Title t= 224.00000 step= 112000
44469
    1GLY      N    1   5.440   5.966   3.797
    1GLY    HT1    2   5.374   6.043   3.823
    1GLY    HT2    3   5.536   5.992   3.826
    1GLY    HT3    4   5.416   5.882   3.853
    1GLY     CA    5   5.417   5.924   3.655
    1GLY    HA1    6   5.448   5.822   3.641
    1GLY    HA2    7   5.462   5.996   3.588
    1GLY      C    8   5.269   5.938   3.632
    1GLY      O    9   5.190   5.969   3.724
    2PRO      N   10   5.218   5.900   3.511
    2PRO     CD   11   5.304   5.877   3.388
    2PRO    HD1   12   5.382   5.798   3.399
    2PRO    HD2   13   5.346   5.972   3.350
    2PRO     CA   14   5.079   5.917   3.482
    2PRO     HA   15   5.052   6.021   3.499
    2PRO     CB   16   5.072   5.894   3.326
    2PRO    HB1   17   5.082   5.999   3.291
    2PRO    HB2   18   4.976   5.863   3.279
    2PRO     CG   19   5.207   5.830   3.286
    2PRO    HG1   20   5.185   5.722   3.296
    2PRO    HG2   21   5.245   5.857   3.185
    2PRO      C   22   4.988   5.829   3.561
    2PRO      O   23   4.890   5.867   3.628
    3GLY      N   24   5.018   5.694   3.578
    3GLY     HN   25   5.108   5.663   3.547
    3GLY     CA   26   4.937   5.610   3.665
    3GLY    HA1   27   4.951   5.516   3.613
    3GLY    HA2   28   4.833   5.638   3.670
    3GLY      C   29   4.988   5.576   3.805
    3GLY      O   30   4.905   5.541   3.894
    4ASN      N   31   5.118   5.605   3.836
    4ASN     HN   32   5.172   5.637   3.758
    4ASN     CA   33   5.177   5.596   3.975
    4ASN     HA   34   5.102   5.556   4.041
    4ASN     CB   35   5.309   5.511   3.956
    4ASN    HB1   36   5.351   5.500   4.058
    4ASN    HB2   37   5.382   5.564   3.890
    4ASN     CG   38   5.281   5.375   3.885
    4ASN    OD1   39   5.318   5.355   3.772
    4ASN    ND2   40   5.234   5.275   3.960
    4ASN   HD21   41   5.217   5.191   3.909
    4ASN   HD22   42   5.194   5.294   4.050
    4ASN      C   43   5.219   5.740   4.021
    4ASN      O   44   5.317   5.790   3.962
    5PRO      N   45   5.148   5.815   4.121
    5PRO     CD   46   5.023   5.767   4.178
    5PRO    HD1   47   5.048   5.682   4.245
    5PRO    HD2   48   4.954   5.736   4.097
    5PRO     CA   49   5.202   5.935   4.186
    5PRO     HA   50   5.184   6.015   4.115
    5PRO     CB   51   5.116   5.945   4.308
    5PRO    HB1   52   5.092   6.053   4.321
    5PRO    HB2   53   5.164   5.894   4.394
    5PRO     CG   54   4.981   5.879   4.273
    5PRO    HG1   55   4.935   5.828   4.361
    5PRO    HG2   56   4.903   5.940   4.222
    5PRO      C   57   5.351   5.942   4.220
    5PRO      O   58   5.394   5.870   4.307
    6GLY      N   59   5.421   6.036   4.165
    6GLY     HN   60   5.382   6.110   4.112
    6GLY     CA   61   5.559   6.055   4.189
    6GLY    HA1   62   5.608   6.071   4.094
    6GLY    HA2   63   5.610   5.972   4.236
    6GLY      C   64   5.593   6.172   4.277
    6GLY      O   65   5.512   6.206   4.361
    7PRO      N   66   5.715   6.232   4.261
    7PRO     CD   67   5.832   6.172   4.192
    7PRO    HD1   68   5.828   6.176   4.082
    7PRO    HD2   69   5.838   6.067   4.228
    7PRO     CA   70   5.762   6.349   4.344
    7PRO     HA   71   5.772   6.308   4.444
    7PRO     CB   72   5.893   6.385   4.273
    7PRO    HB1   73   5.973   6.431   4.334
    7PRO    HB2   74   5.890   6.437   4.174
    7PRO     CG   75   5.953   6.246   4.247
    7PRO    HG1   76   6.035   6.250   4.173
    7PRO    HG2   77   5.994   6.194   4.337
    7PRO      C   78   5.672   6.472   4.353
    7PRO      O   79   5.597   6.502   4.266
    8GLY      N   80   5.673   6.538   4.470
    8GLY     HN   81   5.736   6.513   4.543
    8GLY     CA   82   5.589   6.655   4.492
    8GLY    HA1   83   5.567   6.705   4.399
    8GLY    HA2   84   5.659   6.708   4.555
    8GLY      C   85   5.462   6.627   4.556
    8GLY      O   86   5.422   6.511   4.594
    9ASN      N   87   5.387   6.733   4.576
    9ASN     HN   88   5.416   6.821   4.538
    9ASN     CA   89   5.254   6.721   4.646
    9ASN     HA   90   5.268   6.673   4.742
    9ASN     CB   91   5.205   6.864   4.668
    9ASN    HB1   92   5.104   6.857   4.713
    9ASN    HB2   93   5.183   6.919   4.573
    9ASN     CG   94   5.295   6.952   4.751
    9ASN    OD1   95   5.394   6.910   4.814
    9ASN    ND2   96   5.261   7.083   4.750
    9ASN   HD21   97   5.333   7.146   4.779
    9ASN   HD22   98   5.199   7.118   4.680
    9ASN      C   99   5.156   6.632   4.568
    9ASN      O  100   5.167   6.610   4.445
   10PRO      N  101   5.059   6.573   4.631
   10PRO     CD  102   5.028   6.588   4.773
   10PRO    HD1  103   4.936   6.649   4.785
   10PRO    HD2  104   5.110   6.623   4.840
   10PRO     CA  105   4.957   6.490   4.564
   10PRO     HA  106   5.020   6.414   4.522
   10PRO     CB  107   4.874   6.435   4.684
   10PRO    HB1  108   4.836   6.331   4.686
   10PRO    HB2  109   4.788   6.503   4.702
   10PRO     CG  110   4.968   6.449   4.798
   10PRO    HG1  111   4.920   6.447   4.898
   10PRO    HG2  112   5.043   6.367   4.792
   10PRO      C  113   4.876   6.563   4.458
   10PRO      O  114   4.845   6.681   4.484
   11GLY      N  115   4.831   6.502   4.351
   11GLY     HN  116   4.857   6.406   4.343
   11GLY     CA  117   4.746   6.563   4.243
   11GLY    HA1  118   4.710   6.478   4.186
   11GLY    HA2  119   4.810   6.626   4.183
   11GLY      C  120   4.626   6.640   4.295
   11GLY      O  121   4.568   6.598   4.394
   12PRO      N  122   4.571   6.742   4.223
   12PRO     CD  123   4.638   6.810   4.110
   12PRO    HD1  124   4.682   6.734   4.042
   12PRO    HD2  125   4.718   6.870   4.157
   12PRO     CA  126   4.447   6.808   4.264
   12PRO     HA  127   4.449   6.837   4.368
   12PRO     CB  128   4.445   6.932   4.180
   12PRO    HB1  129   4.513   7.008   4.225
   12PRO    HB2  130   4.346   6.976   4.157
   12PRO     CG  131   4.529   6.894   4.053
   12PRO    HG1  132   4.458   6.837   3.990
   12PRO    HG2  133   4.558   6.989   4.003
   12PRO      C  134   4.328   6.720   4.232
   12PRO      O  135   4.219   6.739   4.287
   13GLY      N  136   4.342   6.620   4.136
   13GLY     HN  137   4.433   6.596   4.105
   13GLY     CA  138   4.231   6.557   4.066
   13GLY    HA1  139   4.166   6.512   4.140
   13GLY    HA2  140   4.268   6.484   3.996
   13GLY      C  141   4.140   6.656   3.985
   13GLY      O  142   4.161   6.777   3.986
   14ASN      N  143   4.044   6.590   3.912
   14ASN     HN  144   4.053   6.491   3.907
   14ASN     CA  145   3.941   6.643   3.824
   14ASN     HA  146   3.963   6.748   3.820
   14ASN     CB  147   3.935   6.573   3.685
   14ASN    HB1  148   3.837   6.592   3.636
   14ASN    HB2  149   3.936   6.465   3.712
   14ASN     CG  150   4.053   6.610   3.598
   14ASN    OD1  151   4.139   6.695   3.627
   14ASN    ND2  152   4.071   6.527   3.496
   14ASN   HD21  153   4.161   6.528   3.454
   14ASN   HD22  154   4.003   6.455   3.481
   14ASN      C  155   3.810   6.624   3.903
   14ASN      O  156   3.790   6.518   3.962
   15PRO      N  157   3.723   6.723   3.909
   15PRO     CD  158   3.753   6.871   3.901
   15PRO    HD1  159   3.799   6.895   3.803
   15PRO    HD2  160   3.832   6.904   3.972
   15PRO     CA  161   3.586   6.705   3.959
   15PRO     HA  162   3.582   6.640   4.045
   15PRO     CB  163   3.541   6.851   3.993
   15PRO    HB1  164   3.565   6.872   4.099
   15PRO    HB2  165   3.430   6.860   3.988
   15PRO     CG  166   3.618   6.948   3.911
   15PRO    HG1  167   3.579   6.960   3.807
   15PRO    HG2  168   3.616   7.050   3.954
   15PRO      C  169   3.499   6.642   3.849
   15PRO    OT1  170   3.405   6.567   3.879
   15PRO    OT2  171   3.525   6.660   3.733
   16LIT    LIT  172   2.403   6.028   2.835
   17LIT    LIT  173   2.088   7.554   1.403
   18LIT    LIT  174   6.211   2.519   6.358
   19LIT    LIT  175   1.492   6.004   4.853
   20LIT    LIT  176   1.347   1.402   3.425
   21LIT    LIT  177   1.100   6.072   6.621
   22LIT    LIT  178   5.576   7.380   3.536
   23LIT    LIT  179   2.975   1.220   4.991
   24LIT    LIT  180   3.068   5.665   2.404
   25LIT    LIT  181   7.835   6.505   4.653
   26LIT    LIT  182   6.956   7.205   0.375
   27LIT    LIT  183   3.021   4.601   0.840
   28LIT    LIT  184   8.061   4.279   5.523
   29LIT    LIT  185   8.197   4.027   6.348
   30LIT    LIT  186   4.531   1.609   3.651
   31LIT    LIT  187   7.445   2.195   1.111
   32LIT    LIT  188   6.880   1.206   3.552
   33LIT    LIT  189   0.234   5.105   3.088
   34LIT    LIT  190   1.544   0.584   3.048
   35LIT    LIT  191   6.378   4.765   3.438
   36LIT    LIT  192   5.567   4.620   0.489
   37LIT    LIT  193   3.656   1.353   6.347
   38LIT    LIT  194   1.864   3.348   2.404
   39LIT    LIT  195   4.665   5.845   5.169
   40LIT    LIT  196   0.586   5.659   0.858
   41LIT    LIT  197   1.300   4.929   5.647
   42LIT    LIT  198   1.128   2.756   4.999
   43LIT    LIT  199   3.333   6.602   3.699
   44LIT    LIT  200   4.560   3.792   3.519
   45LIT    LIT  201   2.231   3.875   4.561
   46LIT    LIT  202   5.534   5.324   6.391
   47LIT    LIT  203   6.469   4.000   5.206
   48LIT    LIT  204   7.525   1.479   0.989
   49LIT    LIT  205   1.994   2.477   4.531
   50LIT    LIT  206   5.264   4.444   1.742
   51LIT    LIT  207   3.946   1.094   2.370
   52LIT    LIT  208   5.518   3.364   2.898
   53LIT    LIT  209   2.407   0.092   1.741
   54LIT    LIT  210   4.189   6.779   0.772
   55LIT    LIT  211   1.955   4.506   0.590
   56LIT    LIT  212   3.539   7.423   6.170
   57LIT    LIT  213   6.599   4.075   4.366
   58CLA    CLA  214   3.214   2.581   1.839
   59CLA    CLA  215   3.322   7.466   1.554
   60CLA    CLA  216   0.338   0.679   4.332
   61CLA    CLA  217   6.004   2.743   3.801
   62CLA    CLA  218   3.167   2.577   6.609
   63CLA    CLA  219   7.889   7.656   3.716
   64CLA    CLA  220   1.400   6.309   5.362
   65CLA    CLA  221   4.350   2.470   6.128
   66CLA    CLA  222   3.451   0.459   0.703
   67CLA    CLA  223   6.408   4.140   3.127
   68CLA    CLA  224   1.022   6.378   1.855
   69CLA    CLA  225   5.107   4.365   4.014
   70CLA    CLA  226   5.486   0.990   5.012
   71CLA    CLA  227   7.474   4.570   5.045
   72CLA    CLA  228   5.591   5.084   1.427
   73CLA    CLA  229   0.385   3.867   2.776
   74CLA    CLA  230   2.631   3.708   5.097
   75CLA    CLA  231   1.356   3.761   5.373
   76CLA    CLA  232   3.821   1.895   3.813
   77CLA    CLA  233   5.203   5.148   5.923
   78CLA    CLA  234   4.659   6.983   5.793
   79CLA    CLA  235   2.779   6.130   3.722
   80CLA    CLA  236   0.420   5.197   4.160
   81CLA    CLA  237   7.104   6.489   6.328
   82CLA    CLA  238   7.890   2.258   4.185
   83CLA    CLA  239   4.023   6.154   0.463
   84CLA    CLA  240   2.817   5.692   2.795
   85CLA    CLA  241   7.041   2.044   0.477
   86CLA    CLA  242   6.075   1.124   3.835
   87CLA    CLA  243   7.188   2.061   1.824
   88CLA    CLA  244   3.835   5.588   5.573
   89CLA    CLA  245   6.728   5.373   1.651
   90CLA    CLA  246   0.093   6.625   6.512
   91CLA    CLA  247   1.994   0.498   2.605
   92CLA    CLA  248   8.067   3.855   6.460
   93CLA    CLA  249   4.337   2.187   5.733
   94CLA    CLA  250   3.445   4.544   4.434
   95CLA    CLA  251   2.636   1.970   6.319
   96CLA    CLA  252   1.187   4.243   5.368
   97CLA    CLA  253   7.771   5.264   0.615
   98CLA    CLA  254   7.982   5.159   5.717
   99CLA    CLA  255   7.812   4.531   0.512
  100TIP3   OH2  256   2.061   6.534   5.181
  100TIP3    H1  257   1.972   6.527   5.146
  100TIP3    H2  258   2.118   6.500   5.112
  101TIP3   OH2  259   7.581   5.469   2.472
  101TIP3    H1  260   7.541   5.398   2.422
  101TIP3    H2  261   7.551   5.549   2.428
  102TIP3   OH2  262   5.500   0.556   1.766
  102TIP3    H1  263   5.451   0.529   1.689
  102TIP3    H2  264   5.436   0.604   1.819
  103TIP3   OH2  265   1.261   3.166   5.879
  103TIP3    H1  266   1.268   3.093   5.939
  103TIP3    H2  267   1.259   3.244   5.935
  104TIP3   OH2  268   4.790   0.586   6.715
  104TIP3    H1  269   4.700   0.557   6.723
  104TIP3    H2  270   4.826   0.581   6.803
  105TIP3   OH2  271   0.528   7.013   0.625
  105TIP3    H1  272   0.587   7.045   0.693
  105TIP3    H2  273   0.440   7.034   0.658
  106TIP3   OH2  274   3.636   4.228   3.315
  106TIP3    H1  275   3.586   4.259   3.390
  106TIP3    H2  276   3.627   4.133   3.318
  107TIP3   OH2  277   1.231   2.096   2.130
  107TIP3    H1  278   1.174   2.172   2.135
  107TIP3    H2  279   1.319   2.132   2.117
  108TIP3   OH2  280   4.329   6.524   6.738
  108TIP3    H1  281   4.315   6.460   6.668
  108TIP3    H2  282   4.244   6.568   6.747
  109TIP3   OH2  283   4.873   5.032   4.244
  109TIP3    H1  284   4.966   5.013   4.232
  109TIP3    H2  285   4.841   5.056   4.157
  110TIP3   OH2  286   3.202   0.859   0.722
  110TIP3    H1  287   3.146   0.881   0.797
  110TIP3    H2  288   3.182   0.927   0.657
  111TIP3   OH2  289   4.547   7.538   5.615
  111TIP3    H1  290   4.568   7.501   5.529
  111TIP3    H2  291   4.631   7.569   5.649
  112TIP3   OH2  292   7.353   4.855   0.054
  112TIP3    H1  293   7.351   4.767   0.017
  112TIP3    H2  294   7.444   4.867   0.081
  113TIP3   OH2  295   7.851   2.977   6.589
  113TIP3    H1  296   7.755   2.983   6.595
  113TIP3    H2  297   7.878   3.057   6.545
  114TIP3   OH2  298   7.682   6.602   6.394
  114TIP3    H1  299   7.712   6.578   6.306
  114TIP3    H2  300   7.598   6.557   6.404
  115TIP3   OH2  301   5.802   3.746   3.446
  115TIP3    H1  302   5.888   3.783   3.429
  115TIP3    H2  303   5.806   3.712   3.535
  116TIP3   OH2  304   6.795   2.715   3.378
  116TIP3    H1  305   6.809   2.809   3.365
  116TIP3    H2  306   6.883   2.678   3.383
  117TIP3   OH2  307   4.610   4.284   5.010
  117TIP3    H1  308   4.580   4.305   4.921
  117TIP3    H2  309   4.537   4.309   5.067
  118TIP3   OH2  310   0.039   0.559   1.344
  118TIP3    H1  311   0.126   0.523   1.360
  118TIP3    H2  312   0.049   0.654   1.353
  119TIP3   OH2  313   1.912   2.277   0.525
  119TIP3    H1  314   1.828   2.257   0.484
  119TIP3    H2  315   1.933   2.365   0.494
  120TIP3   OH2  316   7.348   7.706   5.143
  120TIP3    H1  317   7.297   7.784   5.163
  120TIP3    H2  318   7.285   7.634   5.144
  121TIP3   OH2  319   1.793   6.327   3.506
  121TIP3    H1  320   1.801   6.245   3.458
  121TIP3    H2  321   1.879   6.339   3.548
  122TIP3   OH2  322   8.092   3.603   0.346
  122TIP3    H1  323   8.040   3.579   0.423
  122TIP3    H2  324   8.171   3.643   0.383
  123TIP3   OH2  325   4.406   0.942   3.088
  123TIP3    H1  326   4.321   0.933   3.131
  123TIP3    H2  327   4.469   0.907   3.151
  124TIP3   OH2  328   0.388   7.298   3.445
  124TIP3    H1  329   0.446   7.261   3.378
  124TIP3    H2  330   0.301   7.294   3.407
  125TIP3   OH2  331   4.703   6.444   1.037
  125TIP3    H1  332   4.776   6.393   1.073
  125TIP3    H2  333   4.697   6.521   1.093
  126TIP3   OH2  334   5.568   6.475   2.726
  126TIP3    H1  335   5.640   6.517   2.678
  126TIP3    H2  336   5.552   6.393   2.678
  127TIP3   OH2  337   3.089   0.426   3.581
  127TIP3    H1  338   3.048   0.497   3.531
  127TIP3    H2  339   3.115   0.467   3.663
  128TIP3   OH2  340   1.820   2.975   4.939
  128TIP3    H1  341   1.804   2.882   4.924
  128TIP3    H2  342   1.803   2.987   5.033
  129TIP3   OH2  343   6.334   5.760   1.524
  129TIP3    H1  344   6.321   5.784   1.432
  129TIP3    H2  345   6.413   5.706   1.523
  130TIP3   OH2  346   0.958   0.732   1.677
  130TIP3    H1  347   1.052   0.746   1.666
  130TIP3    H2  348   0.951   0.650   1.726
  131TIP3   OH2  349   3.174   0.324   6.251
  131TIP3    H1  350   3.108   0.367   6.305
  131TIP3    H2  351   3.240   0.391   6.233
  132TIP3   OH2  352   0.667   6.856   0.425
  132TIP3    H1  353   0.602   6.848   0.355
  132TIP3    H2  354   0.624   6.909   0.492
  133TIP3   OH2  355   0.542   1.544   1.882
  133TIP3    H1  356   0.619   1.502   1.922
  133TIP3    H2  357   0.469   1.520   1.939
  134TIP3   OH2  358   3.120   0.501   4.100
  134TIP3    H1  359   3.164   0.583   4.119
  134TIP3    H2  360   3.095   0.508   4.008
  135TIP3   OH2  361   5.314   3.473   3.705
  135TIP3    H1  362   5.316   3.378   3.711
  135TIP3    H2  363   5.224   3.494   3.681
  136TIP3   OH2  364   2.608   2.793   6.336
  136TIP3    H1  365   2.588   2.796   6.430
  136TIP3    H2  366   2.643   2.880   6.316
  137TIP3   OH2  367   2.194   6.324   3.098
  137TIP3    H1  368   2.238   6.387   3.155
  137TIP3    H2  369   2.103   6.324   3.126
  138TIP3   OH2  370   3.922   3.774   1.740
  138TIP3    H1  371   4.001   3.731   1.775
  138TIP3    H2  372   3.939   3.783   1.646
  139TIP3   OH2  373   5.865   1.131   3.296
  139TIP3    H1  374   5.917   1.121   3.376
  139TIP3    H2  375   5.909   1.201   3.247
  140TIP3   OH2  376   7.314   3.627   5.188
  140TIP3    H1  377   7.294   3.677   5.109
  140TIP3    H2  378   7.249   3.557   5.190
  141TIP3   OH2  379   6.382   1.824   2.374
  141TIP3    H1  380   6.389   1.859   2.463
  141TIP3    H2  381   6.391   1.900   2.317
  142TIP3   OH2  382   3.644   2.975   0.561
  142TIP3    H1  383   3.650   3.064   0.597
  142TIP3    H2  384   3.595   2.926   0.628
  143TIP3   OH2  385   6.790   6.323   6.047
  143TIP3    H1  386   6.758   6.268   6.118
  143TIP3    H2  387   6.857   6.271   6.004
  144TIP3   OH2  388   4.221   4.964   1.442
  144TIP3    H1  389   4.143   4.930   1.486
  144TIP3    H2  390   4.295   4.924   1.488
  145TIP3   OH2  391   5.370   2.088   5.261
  145TIP3    H1  392   5.355   2.149   5.189
  145TIP3    H2  393   5.364   2.001   5.220
  146TIP3   OH2  394   2.484   4.350   4.923
  146TIP3    H1  395   2.452   4.379   5.009
  146TIP3    H2  396   2.424   4.391   4.861
  147TIP3   OH2  397   1.489   6.075   6.302
  147TIP3    H1  398   1.490   5.999   6.360
  147TIP3    H2  399   1.480   6.037   6.214
  148TIP3   OH2  400   2.531   7.473   1.740
  148TIP3    H1  401   2.531   7.557   1.694
  148TIP3    H2  402   2.604   7.424   1.701
  149TIP3   OH2  403   1.809   1.284   4.862
  149TIP3    H1  404   1.737   1.235   4.902
  149TIP3    H2  405   1.821   1.360   4.920
  150TIP3   OH2  406   3.245   7.291   1.817
  150TIP3    H1  407   3.164   7.337   1.839
  150TIP3    H2  408   3.273   7.330   1.734
  151TIP3   OH2  409   4.414   4.825   2.515
  151TIP3    H1  410   4.335   4.847   2.563
  151TIP3    H2  411   4.395   4.740   2.475
  152TIP3   OH2  412   3.013   7.372   1.532
  152TIP3    H1  413   3.103   7.399   1.552
  152TIP3    H2  414   3.022   7.293   1.479
  153TIP3   OH2  415   5.790   0.128   6.639
  153TIP3    H1  416   5.808   0.212   6.680
  153TIP3    H2  417   5.764   0.071   6.712
  154TIP3   OH2  418   0.073   7.279   5.951
  154TIP3    H1  419   0.008   7.241   5.892
  154TIP3    H2  420   0.150   7.223   5.942
  155TIP3   OH2  421   1.239   5.248   3.328
  155TIP3    H1  422   1.222   5.253   3.422
  155TIP3    H2  423   1.333   5.259   3.319
  156TIP3   OH2  424   6.601   7.510   3.601
  156TIP3    H1  425   6.539   7.462   3.546
  156TIP3    H2  426   6.622   7.449   3.672
  157TIP3   OH2  427   7.500   3.273   1.675
  157TIP3    H1  428   7.477   3.364   1.693
  157TIP3    H2  429   7.563   3.277   1.603
  158TIP3   OH2  430   6.798   2.221   6.169
  158TIP3    H1  431   6.882   2.175   6.176
  158TIP3    H2  432   6.822   2.309   6.142
  159TIP3   OH2  433   1.412   1.438   4.738
  159TIP3    H1  434   1.497   1.462   4.702
  159TIP3    H2  435   1.433   1.390   4.819
  160TIP3   OH2  436   6.046   4.539   0.194
  160TIP3    H1  437   6.101   4.488   0.135
  160TIP3    H2  438   5.983   4.476   0.229
  161TIP3   OH2  439   3.893   4.475   3.689
  161TIP3    H1  440   3.946   4.543   3.730
  161TIP3    H2  441   3.879   4.506   3.600
  162TIP3   OH2  442   0.095   5.300   3.534
  162TIP3    H1  443   0.086   5.221   3.586
  162TIP3    H2  444   0.144   5.361   3.590
  163TIP3   OH2  445   4.320   1.786   6.556
  163TIP3    H1  446   4.311   1.841   6.633
  163TIP3    H2  447   4.248   1.812   6.498
  164TIP3   OH2  448   7.907   5.974   6.248
  164TIP3    H1  449   7.815   5.989   6.226
  164TIP3    H2  450   7.944   6.062   6.255
  165TIP3   OH2  451   3.314   4.621   4.714
  165TIP3    H1  452   3.336   4.600   4.623
  165TIP3    H2  453   3.361   4.702   4.732
  166TIP3   OH2  454   0.418   3.313   5.333
  166TIP3    H1  455   0.506   3.320   5.295
  166TIP3    H2  456   0.426   3.350   5.420
  167TIP3   OH2  457   4.965   2.609   2.042
  167TIP3    H1  458   4.984   2.614   1.949
  167TIP3    H2  459   4.871   2.626   2.048
  168TIP3   OH2  460   5.483   1.963   2.059
  168TIP3    H1  461   5.488   2.040   2.116
  168TIP3    H2  462   5.401   1.975   2.011
  169TIP3   OH2  463   3.844   5.543   1.107
  169TIP3    H1  464   3.936   5.545   1.081
  169TIP3    H2  465   3.798   5.512   1.030
  170TIP3   OH2  466   6.428   4.196   0.788
  170TIP3    H1  467   6.470   4.143   0.720
  170TIP3    H2  468   6.448   4.286   0.762
  171TIP3   OH2  469   1.572   3.172   2.921
  171TIP3    H1  470   1.532   3.259   2.920
  171TIP3    H2  471   1.598   3.157   2.830
  172TIP3   OH2  472   3.132   2.334   2.786
  172TIP3    H1  473   3.212   2.326   2.735
  172TIP3    H2  474   3.109   2.243   2.807
  173TIP3   OH2  475   0.276   3.550   2.656
  173TIP3    H1  476   0.217   3.581   2.588
  173TIP3    H2  477   0.288   3.625   2.713
  174TIP3   OH2  478   8.184   6.555   3.369
  174TIP3    H1  479   8.143   6.640   3.353
  174TIP3    H2  480   8.207   6.558   3.462
  175TIP3   OH2  481   2.091   2.450   2.512
  175TIP3    H1  482   2.071   2.483   2.425
  175TIP3    H2  483   2.144   2.518   2.553
  176TIP3   OH2  484   2.039   0.069   5.025
  176TIP3    H1  485   1.990  -0.013   5.033
  176TIP3    H2  486   1.999   0.114   4.951
  177TIP3   OH2  487   2.867   0.702   6.273
  177TIP3    H1  488   2.873   0.795   6.295
  177TIP3    H2  489   2.872   0.700   6.178
  178TIP3   OH2  490   2.715   3.917   4.488
  178TIP3    H1  491   2.786   3.889   4.545
  178TIP3    H2  492   2.665   3.837   4.470
  179TIP3   OH2  493   1.966   4.156   3.246
  179TIP3    H1  494   2.001   4.170   3.158
  179TIP3    H2  495   1.917   4.074   3.239
  180TIP3   OH2  496   1.900   3.769   0.393
  180TIP3    H1  497   1.887   3.675   0.407
  180TIP3    H2  498   1.885   3.808   0.479
  181TIP3   OH2  499   0.469   7.580   3.832
  181TIP3    H1  500   0.438   7.530   3.908
  181TIP3    H2  501   0.435   7.533   3.756
  182TIP3   OH2  502   0.448   7.154   0.114
  182TIP3    H1  503   0.400   7.211   0.054
  182TIP3    H2  504   0.380   7.101   0.156
  183TIP3   OH2  505   7.764  -0.016   2.143
  183TIP3    H1  506   7.727   0.047   2.081
  183TIP3    H2  507   7.859   0.000   2.140
  184TIP3   OH2  508   2.614   5.842   2.580
  184TIP3    H1  509   2.695   5.881   2.547
  184TIP3    H2  510   2.643   5.779   2.646
  185TIP3   OH2  511   0.582   3.020   1.830
  185TIP3    H1  512   0.607   3.092   1.888
  185TIP3    H2  513   0.644   2.951   1.850
  186TIP3   OH2  514   2.363   6.692   0.989
  186TIP3    H1  515   2.400   6.627   1.048
  186TIP3    H2  516   2.437   6.748   0.966
  187TIP3   OH2  517   3.024   7.065   2.187
  187TIP3    H1  518   3.063   7.140   2.232
  187TIP3    H2  519   2.930   7.075   2.201
  188TIP3   OH2  520   6.762   3.710   4.016
  188TIP3    H1  521   6.819   3.769   4.064
  188TIP3    H2  522   6.674   3.743   4.031
  189TIP3   OH2  523   5.409   4.743   3.470
  189TIP3    H1  524   5.460   4.718   3.393
  189TIP3    H2  525   5.318   4.733   3.443
  190TIP3   OH2  526   5.322   7.825   0.417
  190TIP3    H1  527   5.378   7.840   0.340
  190TIP3    H2  528   5.258   7.761   0.387
  191TIP3   OH2  529   5.765   7.016   1.437
  191TIP3    H1  530   5.857   6.988   1.443
  191TIP3    H2  531   5.715   6.941   1.469
  192TIP3   OH2  532   2.355   1.313   1.703
  192TIP3    H1  533   2.274   1.293   1.655
  192TIP3    H2  534   2.390   1.228   1.728
  193TIP3   OH2  535   5.844   3.887   3.163
  193TIP3    H1  536   5.936   3.863   3.160
  193TIP3    H2  537   5.797   3.805   3.155
  194TIP3   OH2  538   7.959   7.269   6.675
  194TIP3    H1  539   7.869   7.296   6.658
  194TIP3    H2  540   7.955   7.173   6.679
  195TIP3   OH2  541   4.332   0.600   5.942
  195TIP3    H1  542   4.344   0.695   5.951
  195TIP3    H2  543   4.407   0.562   5.988
  196TIP3   OH2  544   3.933   0.080   4.022
  196TIP3    H1  545   3.979   0.157   4.056
  196TIP3    H2  546   3.846   0.084   4.061
  197TIP3   OH2  547   1.003   6.806   0.991
  197TIP3    H1  548   1.089   6.843   0.971
  197TIP3    H2  549   0.958   6.875   1.040
  198TIP3   OH2  550   4.353   5.503   3.757
  198TIP3    H1  551   4.436   5.544   3.780
  198TIP3    H2  552   4.352   5.502   3.661
  199TIP3   OH2  553   0.485   1.063   4.588
  199TIP3    H1  554   0.449   1.123   4.654
  199TIP3    H2  555   0.415   1.055   4.522
  200TIP3   OH2  556   5.159   2.981   2.806
  200TIP3    H1  557   5.149   2.923   2.731
  200TIP3    H2  558   5.108   3.059   2.783
  201TIP3   OH2  559   4.196   2.873   5.429
  201TIP3    H1  560   4.222   2.921   5.350
  201TIP3    H2  561   4.102   2.858   5.417
  202TIP3   OH2  562   3.927   4.456   2.019
  202TIP3    H1  563   3.957   4.439   1.929
  202TIP3    H2  564   3.945   4.549   2.033
  203TIP3   OH2  565   2.093   3.431   4.621
  203TIP3    H1  566   2.156   3.370   4.583
  203TIP3    H2  567   2.010   3.409   4.578
  204TIP3   OH2  568   4.920   0.041   3.651
  204TIP3    H1  569   4.865  -0.003   3.587
  204TIP3    H2  570   4.987  -0.023   3.674
  205TIP3   OH2  571   5.305   3.606   4.911
  205TIP3    H1  572   5.332   3.661   4.837
  205TIP3    H2  573   5.379   3.548   4.926
  206TIP3   OH2  574   5.853   0.733   4.773
  206TIP3    H1  575   5.919   0.666   4.754
  206TIP3    H2  576   5.903   0.805   4.810
  207TIP3   OH2  577   7.135   3.310   4.703
  207TIP3    H1  578   7.122   3.225   4.662
  207TIP3    H2  579   7.103   3.298   4.793
  208TIP3   OH2  580   3.202   1.201   0.774
  208TIP3    H1  581   3.298   1.200   0.777
  208TIP3    H2  582   3.178   1.125   0.722
  209TIP3   OH2  583   6.846   3.039   6.723
  209TIP3    H1  584   6.913   2.975   6.698
  209TIP3    H2  585   6.869   3.062   6.813
  210TIP3   OH2  586   1.822   4.487   4.733
  210TIP3    H1  587   1.850   4.451   4.649
  210TIP3    H2  588   1.774   4.416   4.775
  211TIP3   OH2  589   3.810   0.196   6.292
  211TIP3    H1  590   3.811   0.198   6.388
  211TIP3    H2  591   3.903   0.191   6.267
  212TIP3   OH2  592   3.143   0.189   3.411
  212TIP3    H1  593   3.123   0.169   3.503
  212TIP3    H2  594   3.066   0.237   3.380
  213TIP3   OH2  595   5.212   0.950   2.729
  213TIP3    H1  596   5.118   0.941   2.715
  213TIP3    H2  597   5.251   0.877   2.680
  214TIP3   OH2  598   0.598   3.955   6.589
  214TIP3    H1  599   0.554   3.938   6.672
  214TIP3    H2  600   0.681   3.997   6.614
  215TIP3   OH2  601   4.200   2.581   1.036
  215TIP3    H1  602   4.131   2.616   0.981
  215TIP3    H2  603   4.280   2.623   1.005
  216TIP3   OH2  604   7.748   0.840   3.100
  216TIP3    H1  605   7.784   0.762   3.057
  216TIP3    H2  606   7.767   0.912   3.040
  217TIP3   OH2  607   4.328   0.117   6.021
  217TIP3    H1  608   4.374   0.050   5.970
  217TIP3    H2  609   4.368   0.199   5.995
  218TIP3   OH2  610   4.018   1.062   1.932
  218TIP3    H1  611   3.986   0.979   1.896
  218TIP3    H2  612   4.113   1.051   1.938
  219TIP3   OH2  613   3.644   1.677   4.916
  219TIP3    H1  614   3.683   1.593   4.893
  219TIP3    H2  615   3.717   1.729   4.949
  220TIP3   OH2  616   4.004   2.498   5.346
  220TIP3    H1  617   4.057   2.536   5.416
  220TIP3    H2  618   3.967   2.573   5.300
  221TIP3   OH2  619   1.355   7.629   1.033
  221TIP3    H1  620   1.267   7.603   1.005
  221TIP3    H2  621   1.352   7.724   1.038
  222TIP3   OH2  622   3.878   3.833   3.994
  222TIP3    H1  623   3.834   3.900   3.942
  222TIP3    H2  624   3.967   3.830   3.960
  223TIP3   OH2  625   0.663   1.167   4.365
  223TIP3    H1  626   0.585   1.125   4.328
  223TIP3    H2  627   0.698   1.102   4.426
  224TIP3   OH2  628   1.294   2.273   4.641
  224TIP3    H1  629   1.237   2.226   4.581
  224TIP3    H2  630   1.337   2.205   4.693
  225TIP3   OH2  631   3.355   2.963   1.425
  225TIP3    H1  632   3.260   2.966   1.432
  225TIP3    H2  633   3.375   3.008   1.343
  226TIP3   OH2  634   4.588   0.074   0.980
  226TIP3    H1  635   4.543   0.158   0.979
  226TIP3    H2  636   4.517   0.009   0.981
  227TIP3   OH2  637   2.659   0.568   2.642
  227TIP3    H1  638   2.689   0.571   2.551
  227TIP3    H2  639   2.700   0.643   2.684
  228TIP3   OH2  640   7.504   2.284   5.365
  228TIP3    H1  641   7.501   2.191   5.343
  228TIP3    H2  642   7.431   2.322   5.316
  229TIP3   OH2  643   4.654   2.857   5.268
  229TIP3    H1  644   4.695   2.770   5.265
  229TIP3    H2  645   4.701   2.908   5.202
  230TIP3   OH2  646   2.049   4.859   5.522
  230TIP3    H1  647   2.070   4.882   5.432
  230TIP3    H2  648   2.031   4.765   5.519
  231TIP3   OH2  649   5.690   0.465   5.245
  231TIP3    H1  650   5.756   0.532   5.261
  231TIP3    H2  651   5.616   0.490   5.301
  232TIP3   OH2  652   2.396   4.941   4.274
  232TIP3    H1  653   2.383   4.860   4.324
  232TIP3    H2  654   2.313   4.956   4.230
  233TIP3   OH2  655   2.415   0.351   0.137
  233TIP3    H1  656   2.494   0.382   0.092
  233TIP3    H2  657   2.448   0.303   0.213
  234TIP3   OH2  658   3.227   2.976   2.570
  234TIP3    H1  659   3.205   2.995   2.661
  234TIP3    H2  660   3.165   2.908   2.544
  235TIP3   OH2  661   5.386   4.050   5.854
  235TIP3    H1  662   5.354   4.140   5.867
  235TIP3    H2  663   5.419   4.049   5.765
  236TIP3   OH2  664   7.665   6.401   4.347
  236TIP3    H1  665   7.634   6.408   4.257
  236TIP3    H2  666   7.630   6.318   4.379
  237TIP3   OH2  667   3.448   0.826   0.035
  237TIP3    H1  668   3.391   0.840   0.111
  237TIP3    H2  669   3.421   0.741   0.000
  238TIP3   OH2  670   7.213   7.688   2.326
  238TIP3    H1  671   7.140   7.628   2.313
  238TIP3    H2  672   7.214   7.705   2.420
  239TIP3   OH2  673   4.402   6.103   1.504
  239TIP3    H1  674   4.446   6.022   1.529
  239TIP3    H2  675   4.361   6.084   1.420
  240TIP3   OH2  676   3.645   3.090   2.289
  240TIP3    H1  677   3.597   3.094   2.372
  240TIP3    H2  678   3.673   2.999   2.282
  241TIP3   OH2  679   2.860   6.431   4.999
  241TIP3    H1  680   2.907   6.498   4.950
  241TIP3    H2  681   2.928   6.375   5.035
  242TIP3   OH2  682   7.953   3.886   1.706
  242TIP3    H1  683   7.911   3.921   1.628
  242TIP3    H2  684   8.045   3.913   1.698
  243TIP3   OH2  685   4.756   4.044   0.636
  243TIP3    H1  686   4.721   4.059   0.548
  243TIP3    H2  687   4.766   4.132   0.673
  244TIP3   OH2  688   4.716   3.705   2.023
  244TIP3    H1  689   4.633   3.745   1.998
  244TIP3    H2  690   4.783   3.762   1.985
  245TIP3   OH2  691   2.535   3.176   2.069
  245TIP3    H1  692   2.602   3.215   2.013
  245TIP3    H2  693   2.561   3.200   2.158
  246TIP3   OH2  694   5.540   4.004   6.314
  246TIP3    H1  695   5.603   3.933   6.302
  246TIP3    H2  696   5.547   4.057   6.234
  247TIP3   OH2  697   2.437   3.327   1.346
  247TIP3    H1  698   2.350   3.342   1.383
  247TIP3    H2  699   2.431   3.241   1.304
  248TIP3   OH2  700   7.688   4.576   5.956
  248TIP3    H1  701   7.766   4.553   6.006
  248TIP3    H2  702   7.689   4.672   5.953
  249TIP3   OH2  703   0.427   3.953   0.530
  249TIP3    H1  704   0.425   3.930   0.623
  249TIP3    H2  705   0.348   4.005   0.516
  250TIP3   OH2  706   3.475   3.715   0.325
  250TIP3    H1  707   3.455   3.694   0.234
  250TIP3    H2  708   3.535   3.646   0.353
  251TIP3   OH2  709   3.300   2.603   1.529
  251TIP3    H1  710   3.263   2.575   1.612
  251TIP3    H2  711   3.225   2.629   1.476
  252TIP3   OH2  712   8.238   5.360   6.173
  252TIP3    H1  713   8.312   5.354   6.111
  252TIP3    H2  714   8.165   5.391   6.120
  253TIP3   OH2  715   1.336   2.602   1.984
  253TIP3    H1  716   1.420   2.601   2.029
  253TIP3    H2  717   1.346   2.669   1.916
  254TIP3   OH2  718   0.576   6.773   4.494
  254TIP3    H1  719   0.612   6.724   4.421
  254TIP3    H2  720   0.510   6.715   4.531
  255TIP3   OH2  721   5.018   6.421   1.357
  255TIP3    H1  722   4.964   6.385   1.286
  255TIP3    H2  723   4.966   6.494   1.391
  256TIP3   OH2  724   6.855   0.465   1.995
  256TIP3    H1  725   6.833   0.381   1.954
  256TIP3    H2  726   6.903   0.513   1.927
  257TIP3   OH2  727   5.210   6.712   6.513
  257TIP3    H1  728   5.303   6.732   6.515
  257TIP3    H2  729   5.201   6.642   6.449
  258TIP3   OH2  730   0.124   5.619   4.547
  258TIP3    H1  731   0.111   5.665   4.630
  258TIP3    H2  732   0.166   5.683   4.490
  259TIP3   OH2  733   3.186   1.929   5.056
  259TIP3    H1  734   3.106   1.893   5.018
  259TIP3    H2  735   3.256   1.879   5.014
  260TIP3   OH2  736   6.192   4.877   4.679
  260TIP3    H1  737   6.098   4.888   4.663
  260TIP3    H2  738   6.211   4.787   4.652
  261TIP3   OH2  739   5.247   6.275   1.426
  261TIP3    H1  740   5.190   6.232   1.489
  261TIP3    H2  741   5.192   6.344   1.387
  262TIP3   OH2  742   1.765   3.232   6.450
  262TIP3    H1  743   1.724   3.218   6.365
  262TIP3    H2  744   1.693   3.230   6.512
  263TIP3   OH2  745   0.582   7.039   4.553
  263TIP3    H1  746   0.623   7.073   4.473
  263TIP3    H2  747   0.589   6.944   4.544
  264TIP3   OH2  748   4.067   1.617   3.348
  264TIP3    H1  749   3.996   1.681   3.361
  264TIP3    H2  750   4.041   1.568   3.270
  265TIP3   OH2  751   0.696   6.073   1.384
  265TIP3    H1  752   0.699   6.083   1.479
  265TIP3    H2  753   0.656   6.155   1.353
  266TIP3   OH2  754   5.291   6.256   3.451
  266TIP3    H1  755   5.208   6.291   3.483
  266TIP3    H2  756   5.300   6.292   3.363
  267TIP3   OH2  757   7.271   3.344   6.059
  267TIP3    H1  758   7.199   3.342   5.996
  267TIP3    H2  759   7.350   3.347   6.004
  268TIP3   OH2  760   3.209   7.323   2.787
  268TIP3    H1  761   3.262   7.257   2.744
  268TIP3    H2  762   3.191   7.287   2.874
  269TIP3   OH2  763   5.442   4.285   6.772
  269TIP3    H1  764   5.514   4.245   6.722
  269TIP3    H2  765   5.436   4.374   6.739
  270TIP3   OH2  766   0.485   6.357   0.369
  270TIP3    H1  767   0.521   6.378   0.455
  270TIP3    H2  768   0.505   6.433   0.315
  271TIP3   OH2  769   5.325   5.501   1.900
  271TIP3    H1  770   5.332   5.475   1.808
  271TIP3    H2  771   5.231   5.517   1.913
  272TIP3   OH2  772   8.175   3.798   1.448
  272TIP3    H1  773   8.113   3.805   1.375
  272TIP3    H2  774   8.152   3.871   1.506
  273TIP3   OH2  775   1.367   1.547   1.891
  273TIP3    H1  776   1.315   1.467   1.878
  273TIP3    H2  777   1.406   1.536   1.978
  274TIP3   OH2  778   4.086   6.509   2.752
  274TIP3    H1  779   4.093   6.479   2.843
  274TIP3    H2  780   4.076   6.429   2.701
  275TIP3   OH2  781   1.539   0.738   2.128
  275TIP3    H1  782   1.474   0.807   2.122
  275TIP3    H2  783   1.621   0.779   2.101
  276TIP3   OH2  784   7.234   6.946   5.943
  276TIP3    H1  785   7.317   6.962   5.990
  276TIP3    H2  786   7.169   6.936   6.013
  277TIP3   OH2  787   4.852   4.229   4.650
  277TIP3    H1  788   4.791   4.264   4.715
  277TIP3    H2  789   4.815   4.255   4.566
  278TIP3   OH2  790   0.907   7.378   1.210
  278TIP3    H1  791   0.825   7.329   1.202
  278TIP3    H2  792   0.923   7.381   1.304
  279TIP3   OH2  793   1.128   5.627   2.258
  279TIP3    H1  794   1.105   5.542   2.222
  279TIP3    H2  795   1.045   5.675   2.260
  280TIP3   OH2  796   7.238   3.809   3.715
  280TIP3    H1  797   7.314   3.838   3.767
  280TIP3    H2  798   7.162   3.839   3.765
  281TIP3   OH2  799   1.958   3.281   1.623
  281TIP3    H1  800   1.934   3.275   1.715
  281TIP3    H2  801   2.046   3.318   1.623
  282TIP3   OH2  802   7.306   2.430   2.978
  282TIP3    H1  803   7.353   2.358   2.935
  282TIP3    H2  804   7.354   2.444   3.059
  283TIP3   OH2  805   0.885   4.434   0.559
  283TIP3    H1  806   0.841   4.358   0.521
  283TIP3    H2  807   0.815   4.479   0.608
  284TIP3   OH2  808   3.014   5.679   1.519
  284TIP3    H1  809   2.964   5.615   1.468
  284TIP3    H2  810   3.049   5.628   1.593
  285TIP3   OH2  811   5.797   0.181   0.745
  285TIP3    H1  812   5.750   0.201   0.826
  285TIP3    H2  813   5.732   0.197   0.676
  286TIP3   OH2  814   4.709   1.723   6.431
  286TIP3    H1  815   4.750   1.788   6.373
  286TIP3    H2  816   4.626   1.703   6.388
  287TIP3   OH2  817   5.751   1.248   6.219
  287TIP3    H1  818   5.711   1.167   6.187
  287TIP3    H2  819   5.844   1.238   6.203
  288TIP3   OH2  820   5.864   2.234   5.154
  288TIP3    H1  821   5.843   2.186   5.234
  288TIP3    H2  822   5.864   2.326   5.181
  289TIP3   OH2  823   3.095   5.151   5.798
  289TIP3    H1  824   3.098   5.228   5.741
  289TIP3    H2  825   3.056   5.183   5.879
  290TIP3   OH2  826   6.308   6.610   1.625
  290TIP3    H1  827   6.279   6.702   1.623
  290TIP3    H2  828   6.354   6.598   1.542
  291TIP3   OH2  829   2.748   2.688   2.777
  291TIP3    H1  830   2.716   2.768   2.735
  291TIP3    H2  831   2.843   2.695   2.772
  292TIP3   OH2  832   7.629   2.200   4.769
  292TIP3    H1  833   7.615   2.121   4.821
  292TIP3    H2  834   7.544   2.216   4.726
  293TIP3   OH2  835   1.430   1.544   3.317
  293TIP3    H1  836   1.418   1.542   3.222
  293TIP3    H2  837   1.474   1.628   3.333
  294TIP3   OH2  838   5.179   0.040   0.774
  294TIP3    H1  839   5.085   0.055   0.765
  294TIP3    H2  840   5.186  -0.044   0.818
  295TIP3   OH2  841   0.399   4.153   3.642
  295TIP3    H1  842   0.416   4.244   3.616
  295TIP3    H2  843   0.477   4.128   3.692
  296TIP3   OH2  844   0.283   3.641   5.180
  296TIP3    H1  845   0.375   3.654   5.200
  296TIP3    H2  846   0.237   3.706   5.233
  297TIP3   OH2  847   3.424   5.126   4.135
  297TIP3    H1  848   3.344   5.073   4.135
  297TIP3    H2  849   3.470   5.100   4.215
  298TIP3   OH2  850   4.152   5.663   6.274
  298TIP3    H1  851   4.067   5.696   6.245
  298TIP3    H2  852   4.190   5.735   6.324
  299TIP3   OH2  853   8.229   5.988   0.604
  299TIP3    H1  854   8.182   5.993   0.520
  299TIP3    H2  855   8.175   5.931   0.658
  300TIP3   OH2  856   6.158   0.907   1.207
  300TIP3    H1  857   6.174   0.978   1.269
  300TIP3    H2  858   6.136   0.832   1.262
  301TIP3   OH2  859   0.065   6.510   1.955
  301TIP3    H1  860   0.157   6.532   1.974
  301TIP3    H2  861   0.048   6.432   2.008
  302TIP3   OH2  862   0.890   5.701   1.505
  302TIP3    H1  863   0.836   5.755   1.563
  302TIP3    H2  864   0.975   5.746   1.504
  303TIP3   OH2  865   1.999   7.697   0.599
  303TIP3    H1  866   1.958   7.783   0.595
  303TIP3    H2  867   2.081   7.711   0.645
  304TIP3   OH2  868   4.334   4.666   6.225
  304TIP3    H1  869   4.259   4.611   6.204
  304TIP3    H2  870   4.401   4.605   6.257
  305TIP3   OH2  871   7.726   1.717   1.393
  305TIP3    H1  872   7.803   1.679   1.350
  305TIP3    H2  873   7.762   1.768   1.466
  306TIP3   OH2  874   0.314   0.988   0.958
  306TIP3    H1  875   0.287   1.079   0.952
  306TIP3    H2  876   0.282   0.948   0.877
  307TIP3   OH2  877   3.686   6.087   0.403
  307TIP3    H1  878   3.634   6.131   0.336
  307TIP3    H2  879   3.772   6.074   0.363
  308TIP3   OH2  880   6.188   4.064   1.479
  308TIP3    H1  881   6.095   4.085   1.481
  308TIP3    H2  882   6.208   4.035   1.568
  309TIP3   OH2  883   4.131   4.965   1.120
  309TIP3    H1  884   4.054   4.954   1.175
  309TIP3    H2  885   4.205   4.945   1.177
  310TIP3   OH2  886   2.735   2.914   4.276
  310TIP3    H1  887   2.792   2.895   4.201
  310TIP3    H2  888   2.767   2.997   4.311
  311TIP3   OH2  889   6.347   3.440   1.056
  311TIP3    H1  890   6.430   3.482   1.074
  311TIP3    H2  891   6.350   3.359   1.108
  312TIP3   OH2  892   2.331   7.773   2.144
  312TIP3    H1  893   2.323   7.713   2.218
  312TIP3    H2  894   2.317   7.717   2.067
  313TIP3   OH2  895   1.527   4.107   0.220
  313TIP3    H1  896   1.461   4.120   0.152
  313TIP3    H2  897   1.478   4.067   0.293
  314TIP3   OH2  898   0.967   2.126   0.695
  314TIP3    H1  899   1.042   2.169   0.738
  314TIP3    H2  900   0.942   2.187   0.625
  315TIP3   OH2  901   7.245   1.473   2.317
  315TIP3    H1  902   7.164   1.475   2.369
  315TIP3    H2  903   7.310   1.435   2.375
  316TIP3   OH2  904   5.879   5.071   4.819
  316TIP3    H1  905   5.931   5.052   4.897
  316TIP3    H2  906   5.856   5.164   4.828
  317TIP3   OH2  907   2.924   4.476   4.277
  317TIP3    H1  908   2.868   4.398   4.283
  317TIP3    H2  909   2.993   4.461   4.342
  318TIP3   OH2  910   2.877   5.306   4.807
  318TIP3    H1  911   2.850   5.216   4.827
  318TIP3    H2  912   2.820   5.333   4.736
  319TIP3   OH2  913   0.205   6.781   2.534
  319TIP3    H1  914   0.292   6.817   2.553
  319TIP3    H2  915   0.162   6.848   2.481
  320TIP3   OH2  916   0.354   0.439   0.738
  320TIP3    H1  917   0.433   0.390   0.760
  320TIP3    H2  918   0.309   0.451   0.822
  321TIP3   OH2  919   5.058   2.741   5.023
  321TIP3    H1  920   4.987   2.796   4.992
  321TIP3    H2  921   5.105   2.715   4.944
  322TIP3   OH2  922   0.904   6.655   1.405
  322TIP3    H1  923   0.867   6.570   1.431
  322TIP3    H2  924   0.852   6.719   1.452
  323TIP3   OH2  925   3.405   3.931   5.810
  323TIP3    H1  926   3.323   3.955   5.767
  323TIP3    H2  927   3.471   3.987   5.767
  324TIP3   OH2  928   0.053   1.443   5.362
  324TIP3    H1  929   0.040   1.537   5.355
  324TIP3    H2  930   0.011   1.419   5.445
  325TIP3   OH2  931   2.159   3.340   2.731
  325TIP3    H1  932   2.244   3.301   2.710
  325TIP3    H2  933   2.165   3.430   2.698
  326TIP3   OH2  934   3.435   5.400   2.031
  326TIP3    H1  935   3.516   5.378   2.077
  326TIP3    H2  936   3.418   5.491   2.054
  327TIP3   OH2  937   1.098   4.249   5.065
  327TIP3    H1  938   1.105   4.275   5.157
  327TIP3    H2  939   1.144   4.165   5.059
  328TIP3   OH2  940   1.570   3.119   4.859
  328TIP3    H1  941   1.660   3.138   4.887
  328TIP3    H2  942   1.520   3.197   4.885
  329TIP3   OH2  943   3.755   4.051   0.316
  329TIP3    H1  944   3.819   4.108   0.358
  329TIP3    H2  945   3.706   4.013   0.389
  330TIP3   OH2  946   7.897   1.402   6.131
  330TIP3    H1  947   7.971   1.344   6.111
  330TIP3    H2  948   7.898   1.467   6.060
  331TIP3   OH2  949   5.450   7.162   5.983
  331TIP3    H1  950   5.390   7.210   5.926
  331TIP3    H2  951   5.399   7.087   6.015
  332TIP3   OH2  952   6.364   3.971   1.100
  332TIP3    H1  953   6.363   3.923   1.183
  332TIP3    H2  954   6.297   3.928   1.047
  333TIP3   OH2  955   7.124   6.309   0.526
  333TIP3    H1  956   7.217   6.327   0.534
  333TIP3    H2  957   7.099   6.275   0.612
  334TIP3   OH2  958   3.436   7.841   5.063
  334TIP3    H1  959   3.466   7.779   4.997
  334TIP3    H2  960   3.341   7.830   5.066
  335TIP3   OH2  961   6.962   3.911   6.004
  335TIP3    H1  962   6.923   3.918   5.917
  335TIP3    H2  963   7.051   3.881   5.988
  336TIP3   OH2  964   3.312   7.079   6.211
  336TIP3    H1  965   3.219   7.086   6.235
  336TIP3    H2  966   3.345   7.007   6.264
  337TIP3   OH2  967   4.932   5.108   6.313
  337TIP3    H1  968   4.848   5.152   6.300
  337TIP3    H2  969   4.954   5.072   6.227
  338TIP3   OH2  970   1.584   0.513   2.861
  338TIP3    H1  971   1.560   0.543   2.774
  338TIP3    H2  972   1.642   0.439   2.846
  339TIP3   OH2  973   1.584   6.991   2.784
  339TIP3    H1  974   1.578   7.087   2.792
  339TIP3    H2  975   1.516   6.969   2.720
  340TIP3   OH2  976   8.006   2.510   4.923
  340TIP3    H1  977   8.002   2.416   4.943
  340TIP3    H2  978   7.919   2.542   4.946
  341TIP3   OH2  979   0.199   5.867   5.573
  341TIP3    H1  980   0.164   5.914   5.649
  341TIP3    H2  981   0.294   5.876   5.581
  342TIP3   OH2  982   1.871   7.225   1.725
  342TIP3    H1  983   1.846   7.159   1.661
  342TIP3    H2  984   1.869   7.179   1.809
  343TIP3   OH2  985   0.155   5.990   5.817
  343TIP3    H1  986   0.105   6.063   5.853
  343TIP3    H2  987   0.246   6.016   5.826
  344TIP3   OH2  988   7.681   5.891   1.930
  344TIP3    H1  989   7.647   5.971   1.889
  344TIP3    H2  990   7.619   5.823   1.905
  345TIP3   OH2  991   1.561   4.942   0.569
  345TIP3    H1  992   1.497   4.871   0.568
  345TIP3    H2  993   1.622   4.920   0.499
  346TIP3   OH2  994   1.400   2.858   2.184
  346TIP3    H1  995   1.361   2.824   2.264
  346TIP3    H2  996   1.491   2.829   2.188
  347TIP3   OH2  997   0.520   7.111   4.254
  347TIP3    H1  998   0.581   7.169   4.209
  347TIP3    H2  999   0.543   7.023   4.224
  348TIP3   OH2 1000   3.452   3.024   4.723
  348TIP3    H1 1001   3.483   2.980   4.802
  348TIP3    H2 1002   3.532   3.056   4.680
  349TIP3   OH2 1003   0.615   6.617   1.149
  349TIP3    H1 1004   0.704   6.651   1.138
  349TIP3    H2 1005   0.613   6.538   1.097
  350TIP3   OH2 1006   1.444   6.791   5.849
  350TIP3    H1 1007   1.492   6.709   5.866
  350TIP3    H2 1008   1.508   6.860   5.868
  351TIP3   OH2 1009   5.489   5.145   3.524
  351TIP3    H1 1010   5.489   5.133   3.619
  351TIP3    H2 1011   5.523   5.063   3.489
  352TIP3   OH2 1012   5.859   6.555   3.060
  352TIP3    H1 1013   5.908   6.567   2.978
  352TIP3    H2 1014   5.849   6.460   3.067
  353TIP3   OH2 1015   5.567   1.537   2.920
  353TIP3    H1 1016   5.533   1.523   3.008
  353TIP3    H2 1017   5.548   1.455   2.874
  354TIP3   OH2 1018   6.403   4.453   2.587
  354TIP3    H1 1019   6.342   4.511   2.541
  354TIP3    H2 1020   6.370   4.449   2.677
  355TIP3   OH2 1021   1.253   0.967   4.305
  355TIP3    H1 1022   1.176   1.021   4.282
  355TIP3    H2 1023   1.288   1.007   4.384
  356TIP3   OH2 1024   3.948   0.852   5.320
  356TIP3    H1 1025   4.026   0.855   5.264
  356TIP3    H2 1026   3.947   0.936   5.366
  357TIP3   OH2 1027   6.810   2.873   1.106
  357TIP3    H1 1028   6.763   2.948   1.068
  357TIP3    H2 1029   6.789   2.877   1.200
  358TIP3   OH2 1030   5.384   0.406   3.670
  358TIP3    H1 1031   5.462   0.389   3.617
  358TIP3    H2 1032   5.416   0.457   3.744
  359TIP3   OH2 1033   3.947   4.266   4.330
  359TIP3    H1 1034   3.881   4.305   4.387
  359TIP3    H2 1035   3.897   4.218   4.264
  360TIP3   OH2 1036   5.945   6.278   3.152
  360TIP3    H1 1037   5.955   6.232   3.235
  360TIP3    H2 1038   6.025   6.257   3.103
  361TIP3   OH2 1039   7.767   1.882   6.002
  361TIP3    H1 1040   7.842   1.865   5.944
  361TIP3    H2 1041   7.694   1.900   5.943
  362TIP3   OH2 1042   2.811   4.953   5.929
  362TIP3    H1 1043   2.830   5.044   5.907
  362TIP3    H2 1044   2.846   4.941   6.017
  363TIP3   OH2 1045   0.871   0.213   6.735
  363TIP3    H1 1046   0.855   0.253   6.821
  363TIP3    H2 1047   0.831   0.273   6.673
  364TIP3   OH2 1048   4.482   5.894   5.227
  364TIP3    H1 1049   4.472   5.913   5.321
  364TIP3    H2 1050   4.394   5.871   5.198
  365TIP3   OH2 1051   4.284   5.740   0.928
  365TIP3    H1 1052   4.262   5.683   0.854
  365TIP3    H2 1053   4.321   5.819   0.888
  366TIP3   OH2 1054   6.484   0.896   0.292
  366TIP3    H1 1055   6.524   0.966   0.343
  366TIP3    H2 1056   6.400   0.879   0.336
  367TIP3   OH2 1057   0.944   3.502   5.175
  367TIP3    H1 1058   1.020   3.499   5.233
  367TIP3    H2 1059   0.907   3.589   5.189
  368TIP3   OH2 1060   7.572   4.936   3.628
  368TIP3    H1 1061   7.645   4.882   3.655
  368TIP3    H2 1062   7.539   4.975   3.709
  369TIP3   OH2 1063   2.654   3.336   1.556
  369TIP3    H1 1064   2.595   3.277   1.603
  369TIP3    H2 1065   2.686   3.284   1.483
  370TIP3   OH2 1066   1.068   2.144   2.931
  370TIP3    H1 1067   1.003   2.173   2.867
  370TIP3    H2 1068   1.048   2.195   3.009
  371TIP3   OH2 1069   2.254   5.041   4.863
  371TIP3    H1 1070   2.171   5.038   4.817
  371TIP3    H2 1071   2.302   4.965   4.830
  372TIP3   OH2 1072   4.639   4.922   6.290
  372TIP3    H1 1073   4.637   5.018   6.293
  372TIP3    H2 1074   4.697   4.902   6.216
  373TIP3   OH2 1075   6.680   2.465   1.025
  373TIP3    H1 1076   6.745   2.479   1.093
  373TIP3    H2 1077   6.632   2.387   1.052
  374TIP3   OH2 1078   5.993   2.768   0.787
  374TIP3    H1 1079   6.043   2.702   0.834
  374TIP3    H2 1080   5.994   2.739   0.696
  375TIP3   OH2 1081   8.039   2.878   6.759
  375TIP3    H1 1082   7.984   2.812   6.801
  375TIP3    H2 1083   7.981   2.921   6.697
  376TIP3   OH2 1084   5.160   4.340   0.880
  376TIP3    H1 1085   5.255   4.333   0.868
  376TIP3    H2 1086   5.133   4.252   0.903
  377TIP3   OH2 1087   1.714   3.385   1.512
  377TIP3    H1 1088   1.806   3.373   1.537
  377TIP3    H2 1089   1.711   3.362   1.419
  378TIP3   OH2 1090   6.160   5.134   5.767
  378TIP3    H1 1091   6.131   5.082   5.842
  378TIP3    H2 1092   6.256   5.125   5.768
  379TIP3   OH2 1093   5.564   3.246   4.467
  379TIP3    H1 1094   5.513   3.266   4.388
  379TIP3    H2 1095   5.562   3.151   4.474
  380TIP3   OH2 1096   2.218   1.741   3.814
  380TIP3    H1 1097   2.193   1.656   3.849
  380TIP3    H2 1098   2.259   1.721   3.730
  381TIP3   OH2 1099   3.717   2.027   2.433
  381TIP3    H1 1100   3.674   2.110   2.412
  381TIP3    H2 1101   3.749   1.995   2.349
  382TIP3   OH2 1102   2.610   2.330   5.739
  382TIP3    H1 1103   2.670   2.327   5.813
  382TIP3    H2 1104   2.625   2.248   5.692
  383TIP3   OH2 1105   7.615   0.871   3.801
  383TIP3    H1 1106   7.665   0.798   3.765
  383TIP3    H2 1107   7.529   0.834   3.820
  384TIP3   OH2 1108   4.309   4.815   4.429
  384TIP3    H1 1109   4.390   4.825   4.480
  384TIP3    H2 1110   4.282   4.724   4.445
  385TIP3   OH2 1111   5.949   3.976   4.024
  385TIP3    H1 1112   5.900   3.895   4.006
  385TIP3    H2 1113   5.883   4.037   4.057
  386TIP3   OH2 1114   2.638   5.455   5.378
  386TIP3    H1 1115   2.624   5.525   5.314
  386TIP3    H2 1116   2.577   5.386   5.353
  387TIP3   OH2 1117   2.921   5.204   3.845
  387TIP3    H1 1118   2.891   5.149   3.917
  387TIP3    H2 1119   2.841   5.231   3.800
  388TIP3   OH2 1120   2.371   4.811   2.378
  388TIP3    H1 1121   2.370   4.720   2.348
  388TIP3    H2 1122   2.353   4.862   2.299
  389TIP3   OH2 1123   1.185   0.720   1.873
  389TIP3    H1 1124   1.267   0.674   1.890
  389TIP3    H2 1125   1.124   0.684   1.937
  390TIP3   OH2 1126   6.364   5.831   2.843
  390TIP3    H1 1127   6.447   5.786   2.827
  390TIP3    H2 1128   6.304   5.761   2.869
  391TIP3   OH2 1129   1.559   7.049   5.711
  391TIP3    H1 1130   1.595   7.078   5.794
  391TIP3    H2 1131   1.614   7.092   5.645
  392TIP3   OH2 1132   2.921   5.641   4.518
  392TIP3    H1 1133   2.947   5.624   4.427
  392TIP3    H2 1134   2.993   5.692   4.554
  393TIP3   OH2 1135   0.560   4.071   3.063
  393TIP3    H1 1136   0.565   4.167   3.065
  393TIP3    H2 1137   0.489   4.050   3.123
  394TIP3   OH2 1138   0.877   5.175   5.984
  394TIP3    H1 1139   0.874   5.238   6.056
  394TIP3    H2 1140   0.813   5.208   5.921
  395TIP3   OH2 1141   0.216   7.815   1.846
  395TIP3    H1 1142   0.286   7.749   1.852
  395TIP3    H2 1143   0.140   7.773   1.888
  396TIP3   OH2 1144   2.532   1.855   3.856
  396TIP3    H1 1145   2.441   1.881   3.843
  396TIP3    H2 1146   2.568   1.921   3.915
  397TIP3   OH2 1147   7.428   0.651   6.730
  397TIP3    H1 1148   7.521   0.628   6.740
  397TIP3    H2 1149   7.402   0.612   6.647
  398TIP3   OH2 1150   4.027   1.956   1.453
  398TIP3    H1 1151   4.021   2.016   1.528
  398TIP3    H2 1152   4.101   1.989   1.402
  399TIP3   OH2 1153   3.684   7.060   5.096
  399TIP3    H1 1154   3.767   7.109   5.090
  399TIP3    H2 1155   3.643   7.073   5.010
  400TIP3   OH2 1156   6.294   7.457   0.365
  400TIP3    H1 1157   6.231   7.428   0.299
  400TIP3    H2 1158   6.328   7.540   0.331
  401TIP3   OH2 1159   4.462   0.390   2.900
  401TIP3    H1 1160   4.447   0.433   2.984
  401TIP3    H2 1161   4.471   0.462   2.838
  402TIP3   OH2 1162   0.206   0.946   5.804
  402TIP3    H1 1163   0.301   0.956   5.794
  402TIP3    H2 1164   0.171   0.957   5.716
  403TIP3   OH2 1165   5.036   1.401   3.145
  403TIP3    H1 1166   5.093   1.325   3.143
  403TIP3    H2 1167   4.949   1.365   3.163
  404TIP3   OH2 1168   1.485   6.159   4.969
  404TIP3    H1 1169   1.531   6.243   4.974
  404TIP3    H2 1170   1.468   6.136   5.060
  405TIP3   OH2 1171   3.690   5.244   6.369
  405TIP3    H1 1172   3.604   5.221   6.333
  405TIP3    H2 1173   3.752   5.222   6.299
  406TIP3   OH2 1174   7.413   4.204   3.927
  406TIP3    H1 1175   7.355   4.280   3.923
  406TIP3    H2 1176   7.456   4.210   4.012
  407TIP3   OH2 1177   0.099   0.979   0.732
  407TIP3    H1 1178   0.033   1.004   0.796
  407TIP3    H2 1179   0.060   1.000   0.648
  408TIP3   OH2 1180   7.079   7.105   3.198
  408TIP3    H1 1181   7.012   7.037   3.195
  408TIP3    H2 1182   7.038   7.176   3.249
  409TIP3   OH2 1183   7.200   4.747   4.705
  409TIP3    H1 1184   7.154   4.666   4.726
  409TIP3    H2 1185   7.157   4.780   4.627
  410TIP3   OH2 1186   2.347   4.327   1.567
  410TIP3    H1 1187   2.416   4.380   1.528
  410TIP3    H2 1188   2.270   4.344   1.513
  411TIP3   OH2 1189   6.115   6.358   3.630
  411TIP3    H1 1190   6.022   6.350   3.606
  411TIP3    H2 1191   6.126   6.450   3.653
  412TIP3   OH2 1192   8.201   2.670   5.801
  412TIP3    H1 1193   8.254   2.613   5.857
  412TIP3    H2 1194   8.165   2.736   5.861
  413TIP3   OH2 1195   3.843   4.136   4.781
  413TIP3    H1 1196   3.769   4.126   4.721
  413TIP3    H2 1197   3.920   4.115   4.727
  414TIP3   OH2 1198   4.090   3.594   5.118
  414TIP3    H1 1199   4.045   3.677   5.100
  414TIP3    H2 1200   4.059   3.569   5.205
  415TIP3   OH2 1201   5.266   0.067   2.581
  415TIP3    H1 1202   5.347   0.097   2.622
  415TIP3    H2 1203   5.294   0.029   2.498
  416TIP3   OH2 1204   1.714   1.534   1.311
  416TIP3    H1 1205   1.793   1.576   1.345
  416TIP3    H2 1206   1.704   1.456   1.365
  417TIP3   OH2 1207   4.158   0.537   1.565
  417TIP3    H1 1208   4.217   0.561   1.493
  417TIP3    H2 1209   4.071   0.561   1.534
  418TIP3   OH2 1210   6.959   1.415   1.377
  418TIP3    H1 1211   7.006   1.456   1.449
  418TIP3    H2 1212   6.866   1.428   1.398
  419TIP3   OH2 1213   1.002   3.440   2.604
  419TIP3    H1 1214   0.996   3.456   2.698
  419TIP3    H2 1215   1.013   3.527   2.565
  420TIP3   OH2 1216   6.733   6.094   2.885
  420TIP3    H1 1217   6.767   6.007   2.905
  420TIP3    H2 1218   6.768   6.114   2.798
  421TIP3   OH2 1219   1.229   7.378   4.410
  421TIP3    H1 1220   1.157   7.366   4.349
  421TIP3    H2 1221   1.241   7.292   4.450
  422TIP3   OH2 1222   2.183   3.698   5.731
  422TIP3    H1 1223   2.272   3.675   5.759
  422TIP3    H2 1224   2.168   3.643   5.654
  423TIP3   OH2 1225   0.672   4.403   5.796
  423TIP3    H1 1226   0.755   4.451   5.795
  423TIP3    H2 1227   0.687   4.329   5.737
  424TIP3   OH2 1228   2.246   1.041   6.690
  424TIP3    H1 1229   2.190   0.965   6.708
  424TIP3    H2 1230   2.301   1.013   6.617
  425TIP3   OH2 1231   2.794   6.872   2.944
  425TIP3    H1 1232   2.740   6.795   2.932
  425TIP3    H2 1233   2.751   6.920   3.015
  426TIP3   OH2 1234   1.668   1.128   3.285
  426TIP3    H1 1235   1.623   1.081   3.215
  426TIP3    H2 1236   1.666   1.069   3.360
  427TIP3   OH2 1237   0.750   6.363   2.892
  427TIP3    H1 1238   0.739   6.298   2.962
  427TIP3    H2 1239   0.672   6.419   2.899
  428TIP3   OH2 1240   2.731   5.974   4.798
  428TIP3    H1 1241   2.695   6.061   4.786
  428TIP3    H2 1242   2.724   5.933   4.711
  429TIP3   OH2 1243   6.218   2.337   3.147
  429TIP3    H1 1244   6.289   2.306   3.090
  429TIP3    H2 1245   6.263   2.385   3.217
  430TIP3   OH2 1246   8.039   6.146   4.359
  430TIP3    H1 1247   8.046   6.091   4.280
  430TIP3    H2 1248   8.034   6.083   4.431
  431TIP3   OH2 1249   1.484   4.506   6.524
  431TIP3    H1 1250   1.422   4.438   6.496
  431TIP3    H2 1251   1.525   4.535   6.443
  432TIP3   OH2 1252   1.046   3.171   1.252
  432TIP3    H1 1253   0.990   3.097   1.228
  432TIP3    H2 1254   1.040   3.177   1.347
  433TIP3   OH2 1255   2.498   1.201   5.997
  433TIP3    H1 1256   2.473   1.120   5.952
  433TIP3    H2 1257   2.546   1.172   6.074
  434TIP3   OH2 1258   3.611   4.423   3.695
  434TIP3    H1 1259   3.547   4.428   3.765
  434TIP3    H2 1260   3.692   4.395   3.737
  435TIP3   OH2 1261   3.061   2.780   2.450
  435TIP3    H1 1262   3.109   2.834   2.386
  435TIP3    H2 1263   2.970   2.783   2.420
  436TIP3   OH2 1264   4.288   7.642   5.655
  436TIP3    H1 1265   4.283   7.586   5.732
  436TIP3    H2 1266   4.380   7.641   5.630
  437TIP3   OH2 1267   7.082   0.699   2.905
  437TIP3    H1 1268   7.130   0.726   2.827
  437TIP3    H2 1269   7.110   0.608   2.920
  438TIP3   OH2 1270   1.250   4.939   4.408
  438TIP3    H1 1271   1.272   4.974   4.495
  438TIP3    H2 1272   1.234   5.017   4.355
  439TIP3   OH2 1273   3.331   1.103   2.821
  439TIP3    H1 1274   3.363   1.176   2.768
  439TIP3    H2 1275   3.290   1.043   2.758
  440TIP3   OH2 1276   1.866   6.736   5.796
  440TIP3    H1 1277   1.876   6.822   5.756
  440TIP3    H2 1278   1.941   6.727   5.854
  441TIP3   OH2 1279   2.010   6.773   0.336
  441TIP3    H1 1280   2.101   6.793   0.315
  441TIP3    H2 1281   2.011   6.683   0.369
  442TIP3   OH2 1282  -0.038   4.326   5.517
  442TIP3    H1 1283   0.032   4.361   5.572
  442TIP3    H2 1284   0.007   4.297   5.437
  443TIP3   OH2 1285   6.486   1.055   0.900
  443TIP3    H1 1286   6.457   1.024   0.815
  443TIP3    H2 1287   6.553   0.993   0.927
  444TIP3   OH2 1288   5.942   0.134   4.827
  444TIP3    H1 1289   6.028   0.098   4.804
  444TIP3    H2 1290   5.961   0.217   4.871
  445TIP3   OH2 1291   7.631   6.450   1.298
  445TIP3    H1 1292   7.603   6.427   1.387
  445TIP3    H2 1293   7.722   6.477   1.309
  446TIP3   OH2 1294   4.303   4.770   3.658
  446TIP3    H1 1295   4.291   4.831   3.731
  446TIP3    H2 1296   4.303   4.825   3.580
  447TIP3   OH2 1297   7.426   2.893   4.681
  447TIP3    H1 1298   7.472   2.815   4.652
  447TIP3    H2 1299   7.448   2.960   4.616
  448TIP3   OH2 1300   1.993   5.119   2.185
  448TIP3    H1 1301   2.007   5.171   2.106
  448TIP3    H2 1302   1.899   5.125   2.201
  449TIP3   OH2 1303   0.533   2.643   1.668
  449TIP3    H1 1304   0.605   2.706   1.664
  449TIP3    H2 1305   0.563   2.568   1.617
  450TIP3   OH2 1306   1.298   1.996   4.345
  450TIP3    H1 1307   1.277   1.952   4.263
  450TIP3    H2 1308   1.277   2.088   4.329
  451TIP3   OH2 1309   4.646   6.225   5.687
  451TIP3    H1 1310   4.561   6.199   5.651
  451TIP3    H2 1311   4.634   6.220   5.782
  452TIP3   OH2 1312   5.567   1.489   2.593
  452TIP3    H1 1313   5.584   1.539   2.673
  452TIP3    H2 1314   5.617   1.534   2.526
  453TIP3   OH2 1315   2.390   0.466   4.862
  453TIP3    H1 1316   2.369   0.392   4.806
  453TIP3    H2 1317   2.461   0.511   4.815
  454TIP3   OH2 1318   0.189   7.011   0.533
  454TIP3    H1 1319   0.106   7.053   0.554
  454TIP3    H2 1320   0.223   6.981   0.617
  455TIP3   OH2 1321   1.919   2.569   0.978
  455TIP3    H1 1322   1.960   2.626   0.913
  455TIP3    H2 1323   1.904   2.626   1.054
  456TIP3   OH2 1324   0.780   6.589   0.439
  456TIP3    H1 1325   0.765   6.669   0.490
  456TIP3    H2 1326   0.710   6.588   0.373
  457TIP3   OH2 1327   0.486   5.065   1.407
  457TIP3    H1 1328   0.559   5.068   1.469
  457TIP3    H2 1329   0.408   5.078   1.461
  458TIP3   OH2 1330   4.633   5.511   0.737
  458TIP3    H1 1331   4.685   5.574   0.687
  458TIP3    H2 1332   4.667   5.517   0.826
  459TIP3   OH2 1333   3.481   4.330   3.041
  459TIP3    H1 1334   3.497   4.276   3.118
  459TIP3    H2 1335   3.535   4.408   3.054
  460TIP3   OH2 1336   7.757   2.005   6.257
  460TIP3    H1 1337   7.785   1.930   6.309
  460TIP3    H2 1338   7.745   1.970   6.169
  461TIP3   OH2 1339   6.682   6.750   4.766
  461TIP3    H1 1340   6.737   6.759   4.688
  461TIP3    H2 1341   6.602   6.708   4.735
  462TIP3   OH2 1342   5.921   1.610   6.216
  462TIP3    H1 1343   5.833   1.622   6.251
  462TIP3    H2 1344   5.958   1.539   6.267
  463TIP3   OH2 1345   1.223   1.520   6.399
  463TIP3    H1 1346   1.251   1.556   6.314
  463TIP3    H2 1347   1.270   1.437   6.406
  464TIP3   OH2 1348   3.489   0.313   5.906
  464TIP3    H1 1349   3.490   0.304   6.001
  464TIP3    H2 1350   3.575   0.284   5.878
  465TIP3   OH2 1351   7.792   4.057   6.190
  465TIP3    H1 1352   7.711   4.012   6.213
  465TIP3    H2 1353   7.851   3.987   6.162
  466TIP3   OH2 1354   3.511   4.211   6.159
  466TIP3    H1 1355   3.436   4.233   6.103
  466TIP3    H2 1356   3.471   4.179   6.240
  467TIP3   OH2 1357   8.267   0.279   1.277
  467TIP3    H1 1358   8.199   0.258   1.340
  467TIP3    H2 1359   8.296   0.367   1.301
  468TIP3   OH2 1360   0.458   6.273   1.406
  468TIP3    H1 1361   0.407   6.352   1.421
  468TIP3    H2 1362   0.434   6.246   1.317
  469TIP3   OH2 1363   1.781   4.037   4.637
  469TIP3    H1 1364   1.795   4.101   4.706
  469TIP3    H2 1365   1.694   4.058   4.601
  470TIP3   OH2 1366   6.073   6.526   0.373
  470TIP3    H1 1367   6.104   6.613   0.399
  470TIP3    H2 1368   6.103   6.517   0.283
  471TIP3   OH2 1369   0.795   3.265   1.549
  471TIP3    H1 1370   0.744   3.276   1.469
  471TIP3    H2 1371   0.731   3.271   1.620
  472TIP3   OH2 1372   7.775   0.729   4.375
  472TIP3    H1 1373   7.719   0.776   4.437
  472TIP3    H2 1374   7.726   0.729   4.294
  473TIP3   OH2 1375   7.741   3.161   1.877
  473TIP3    H1 1376   7.658   3.204   1.859
  473TIP3    H2 1377   7.743   3.086   1.817
  474TIP3   OH2 1378   4.977   5.224   3.816
  474TIP3    H1 1379   4.991   5.144   3.868
  474TIP3    H2 1380   5.053   5.228   3.758
  475TIP3   OH2 1381   7.982   4.702   5.191
  475TIP3    H1 1382   8.051   4.747   5.142
  475TIP3    H2 1383   8.028   4.657   5.261
  476TIP3   OH2 1384   0.988   4.375   6.200
  476TIP3    H1 1385   0.919   4.439   6.181
  476TIP3    H2 1386   0.978   4.356   6.293
  477TIP3   OH2 1387   5.654   7.367   5.164
  477TIP3    H1 1388   5.564   7.348   5.192
  477TIP3    H2 1389   5.707   7.303   5.211
  478TIP3   OH2 1390   2.740   1.367   1.640
  478TIP3    H1 1391   2.835   1.378   1.628
  478TIP3    H2 1392   2.722   1.279   1.607
  479TIP3   OH2 1393   0.996   7.552   2.628
  479TIP3    H1 1394   1.000   7.549   2.532
  479TIP3    H2 1395   0.954   7.469   2.652
  480TIP3   OH2 1396   0.749   5.081   4.232
  480TIP3    H1 1397   0.666   5.121   4.206
  480TIP3    H2 1398   0.727   5.028   4.309
  481TIP3   OH2 1399   5.022   1.789   1.157
  481TIP3    H1 1400   4.999   1.702   1.126
  481TIP3    H2 1401   5.098   1.813   1.104
  482TIP3   OH2 1402   4.340   2.266   3.354
  482TIP3    H1 1403   4.394   2.271   3.275
  482TIP3    H2 1404   4.251   2.281   3.323
  483TIP3   OH2 1405   4.295   6.151   0.606
  483TIP3    H1 1406   4.240   6.140   0.529
  483TIP3    H2 1407   4.327   6.241   0.600
  484TIP3   OH2 1408   1.810   7.649   0.773
  484TIP3    H1 1409   1.741   7.609   0.720
  484TIP3    H2 1410   1.875   7.680   0.710
  485TIP3   OH2 1411   3.473   6.910   5.515
  485TIP3    H1 1412   3.464   6.998   5.552
  485TIP3    H2 1413   3.489   6.854   5.591
  486TIP3   OH2 1414   5.580   7.187   3.467
  486TIP3    H1 1415   5.598   7.093   3.477
  486TIP3    H2 1416   5.606   7.206   3.377
  487TIP3   OH2 1417   1.973   7.259   5.309
  487TIP3    H1 1418   2.055   7.226   5.348
  487TIP3    H2 1419   1.905   7.204   5.347
  488TIP3   OH2 1420   6.453   3.758   4.048
  488TIP3    H1 1421   6.366   3.796   4.044
  488TIP3    H2 1422   6.468   3.720   3.962
  489TIP3   OH2 1423   2.445   1.151   2.132
  489TIP3    H1 1424   2.498   1.079   2.166
  489TIP3    H2 1425   2.485   1.230   2.169
  490TIP3   OH2 1426   2.697   0.624   1.659
  490TIP3    H1 1427   2.704   0.710   1.701
  490TIP3    H2 1428   2.606   0.618   1.631
  491TIP3   OH2 1429   6.946   1.976   1.227
  491TIP3    H1 1430   6.890   1.927   1.167
  491TIP3    H2 1431   6.942   1.927   1.309
  492TIP3   OH2 1432   5.681   7.275   0.966
  492TIP3    H1 1433   5.699   7.327   0.887
  492TIP3    H2 1434   5.592   7.243   0.953
  493TIP3   OH2 1435   2.906   6.914   3.285
  493TIP3    H1 1436   2.825   6.950   3.251
  493TIP3    H2 1437   2.897   6.918   3.380
  494TIP3   OH2 1438   0.566   3.992   6.307
  494TIP3    H1 1439   0.596   4.074   6.269
  494TIP3    H2 1440   0.583   4.001   6.401
  495TIP3   OH2 1441   3.852   2.320   0.594
  495TIP3    H1 1442   3.838   2.335   0.501
  495TIP3    H2 1443   3.894   2.400   0.626
  496TIP3   OH2 1444   1.610   0.969   5.833
  496TIP3    H1 1445   1.703   0.946   5.826
  496TIP3    H2 1446   1.597   0.987   5.926
  497TIP3   OH2 1447   5.351   1.417   2.440
  497TIP3    H1 1448   5.421   1.437   2.501
  497TIP3    H2 1449   5.316   1.333   2.469
  498TIP3   OH2 1450   6.307   0.618   0.606
  498TIP3    H1 1451   6.221   0.576   0.597
  498TIP3    H2 1452   6.352   0.568   0.674
  499TIP3   OH2 1453   6.392   6.232   4.732
  499TIP3    H1 1454   6.298   6.215   4.737
  499TIP3    H2 1455   6.413   6.225   4.639
  500TIP3   OH2 1456   2.711   4.013   4.230
  500TIP3    H1 1457   2.745   3.943   4.174
  500TIP3    H2 1458   2.676   3.968   4.306
  501TIP3   OH2 1459   4.386   7.522   2.380
  501TIP3    H1 1460   4.332   7.599   2.362
  501TIP3    H2 1461   4.328   7.462   2.428
  502TIP3   OH2 1462   2.321   1.734   1.447
  502TIP3    H1 1463   2.339   1.741   1.353
  502TIP3    H2 1464   2.379   1.665   1.478
  503TIP3   OH2 1465   2.750   5.860   4.538
  503TIP3    H1 1466   2.820   5.915   4.501
  503TIP3    H2 1467   2.792   5.775   4.553
  504TIP3   OH2 1468   4.424   5.221   1.639
  504TIP3    H1 1469   4.378   5.153   1.591
  504TIP3    H2 1470   4.381   5.303   1.614
  505TIP3   OH2 1471   0.985   2.947   5.727
  505TIP3    H1 1472   0.969   2.862   5.686
  505TIP3    H2 1473   1.066   2.978   5.687
  506TIP3   OH2 1474   4.875   1.925   1.359
  506TIP3    H1 1475   4.929   1.904   1.283
  506TIP3    H2 1476   4.936   1.926   1.433
  507TIP3   OH2 1477   3.697   0.889   2.917
  507TIP3    H1 1478   3.620   0.932   2.955
  507TIP3    H2 1479   3.744   0.854   2.993
  508TIP3   OH2 1480   3.216   6.811   4.215
  508TIP3    H1 1481   3.226   6.855   4.131
  508TIP3    H2 1482   3.232   6.719   4.197
  509TIP3   OH2 1483   5.860   1.740   0.131
  509TIP3    H1 1484   5.776   1.700   0.110
  509TIP3    H2 1485   5.875   1.721   0.223
  510TIP3   OH2 1486   2.068   3.448   4.110
  510TIP3    H1 1487   2.037   3.371   4.157
  510TIP3    H2 1488   2.082   3.418   4.020
  511TIP3   OH2 1489   1.511   6.023   4.134
  511TIP3    H1 1490   1.585   6.073   4.098
  511TIP3    H2 1491   1.433   6.066   4.099
  512TIP3   OH2 1492   1.147   7.137   0.381
  512TIP3    H1 1493   1.071   7.080   0.388
  512TIP3    H2 1494   1.149   7.185   0.464
  513TIP3   OH2 1495   5.714   3.097   2.904
  513TIP3    H1 1496   5.794   3.048   2.918
  513TIP3    H2 1497   5.669   3.095   2.989
  514TIP3   OH2 1498   4.812   0.282   0.179
  514TIP3    H1 1499   4.793   0.319   0.092
  514TIP3    H2 1500   4.792   0.353   0.240
  515TIP3   OH2 1501   2.778   4.244   4.357
  515TIP3    H1 1502   2.766   4.160   4.313
  515TIP3    H2 1503   2.842   4.226   4.426
  516TIP3   OH2 1504   0.472   4.374   0.377
  516TIP3    H1 1505   0.417   4.309   0.422
  516TIP3    H2 1506   0.410   4.433   0.336
  517TIP3   OH2 1507   2.602   2.016   1.744
  517TIP3    H1 1508   2.627   2.108   1.741
  517TIP3    H2 1509   2.590   1.992   1.653
  518TIP3   OH2 1510   2.594   0.678   1.968
  518TIP3    H1 1511   2.562   0.592   1.940
  518TIP3    H2 1512   2.526   0.711   2.026
  519TIP3   OH2 1513   0.654   3.188   2.821
  519TIP3    H1 1514   0.588   3.242   2.863
  519TIP3    H2 1515   0.609   3.150   2.746
  520TIP3   OH2 1516   1.199   4.604   6.596
  520TIP3    H1 1517   1.256   4.678   6.577
  520TIP3    H2 1518   1.110   4.637   6.583
  521TIP3   OH2 1519   1.707   1.599   0.257
  521TIP3    H1 1520   1.752   1.536   0.314
  521TIP3    H2 1521   1.750   1.588   0.172
  522TIP3   OH2 1522   3.384   0.389   1.199
  522TIP3    H1 1523   3.386   0.367   1.106
  522TIP3    H2 1524   3.325   0.465   1.204
  523TIP3   OH2 1525   1.329   0.500   1.319
  523TIP3    H1 1526   1.410   0.520   1.270
  523TIP3    H2 1527   1.260   0.502   1.252
  524TIP3   OH2 1528   0.090   2.148   0.580
  524TIP3    H1 1529   0.167   2.124   0.631
  524TIP3    H2 1530   0.123   2.208   0.513
  525TIP3   OH2 1531   3.581   0.165   0.362
  525TIP3    H1 1532   3.567   0.252   0.325
  525TIP3    H2 1533   3.590   0.181   0.456
  526TIP3   OH2 1534   3.948   1.807   0.443
  526TIP3    H1 1535   3.866   1.801   0.492
  526TIP3    H2 1536   4.012   1.835   0.507
  527TIP3   OH2 1537   2.258   3.988   5.464
  527TIP3    H1 1538   2.317   3.927   5.419
  527TIP3    H2 1539   2.275   4.073   5.423
  528TIP3   OH2 1540   6.178   3.550   2.675
  528TIP3    H1 1541   6.230   3.620   2.715
  528TIP3    H2 1542   6.094   3.592   2.655
  529TIP3   OH2 1543   1.844   6.195   3.987
  529TIP3    H1 1544   1.787   6.185   3.911
  529TIP3    H2 1545   1.870   6.287   3.986
  530TIP3   OH2 1546   7.322   1.393   1.769
  530TIP3    H1 1547   7.284   1.412   1.855
  530TIP3    H2 1548   7.304   1.300   1.755
  531TIP3   OH2 1549   6.882   5.527   3.730
  531TIP3    H1 1550   6.820   5.522   3.803
  531TIP3    H2 1551   6.862   5.609   3.686
  532TIP3   OH2 1552   4.124   6.578   1.812
  532TIP3    H1 1553   4.030   6.573   1.794
  532TIP3    H2 1554   4.162   6.612   1.732
  533TIP3   OH2 1555   6.508   6.150   4.940
  533TIP3    H1 1556   6.471   6.161   4.852
  533TIP3    H2 1557   6.440   6.179   4.999
  534TIP3   OH2 1558   5.081   3.601   3.133
  534TIP3    H1 1559   5.077   3.612   3.228
  534TIP3    H2 1560   5.080   3.506   3.120
  535TIP3   OH2 1561   5.912   3.057   3.787
  535TIP3    H1 1562   5.880   3.081   3.874
  535TIP3    H2 1563   5.946   2.968   3.798
  536TIP3   OH2 1564   4.832   2.225   5.504
  536TIP3    H1 1565   4.886   2.183   5.572
  536TIP3    H2 1566   4.742   2.213   5.534
  537TIP3   OH2 1567   5.480   3.617   5.605
  537TIP3    H1 1568   5.470   3.558   5.680
  537TIP3    H2 1569   5.402   3.672   5.607
  538TIP3   OH2 1570   6.993   5.721   2.822
  538TIP3    H1 1571   7.051   5.667   2.769
  538TIP3    H2 1572   6.980   5.801   2.770
  539TIP3   OH2 1573   3.957   2.679   0.947
  539TIP3    H1 1574   3.905   2.651   1.023
  539TIP3    H2 1575   3.894   2.727   0.892
  540TIP3   OH2 1576   6.135   2.903   4.017
  540TIP3    H1 1577   6.177   2.967   3.959
  540TIP3    H2 1578   6.104   2.835   3.958
  541TIP3   OH2 1579   6.673   2.868   0.679
  541TIP3    H1 1580   6.762   2.853   0.649
  541TIP3    H2 1581   6.665   2.815   0.758
  542TIP3   OH2 1582   0.019   0.706   5.833
  542TIP3    H1 1583   0.114   0.697   5.839
  542TIP3    H2 1584   0.007   0.785   5.781
  543TIP3   OH2 1585   6.174   3.769   4.995
  543TIP3    H1 1586   6.149   3.819   4.918
  543TIP3    H2 1587   6.104   3.785   5.059
  544TIP3   OH2 1588   3.804   5.825   4.462
  544TIP3    H1 1589   3.853   5.899   4.498
  544TIP3    H2 1590   3.848   5.804   4.380
  545TIP3   OH2 1591   5.229   3.598   6.101
  545TIP3    H1 1592   5.284   3.658   6.050
  545TIP3    H2 1593   5.290   3.557   6.163
  546TIP3   OH2 1594   5.019   2.354   4.451
  546TIP3    H1 1595   4.982   2.296   4.518
  546TIP3    H2 1596   4.949   2.416   4.431
  547TIP3   OH2 1597   2.627   1.331   5.552
  547TIP3    H1 1598   2.696   1.272   5.582
  547TIP3    H2 1599   2.573   1.276   5.495
  548TIP3   OH2 1600   4.864   4.194   1.571
  548TIP3    H1 1601   4.840   4.220   1.659
  548TIP3    H2 1602   4.889   4.276   1.527
  549TIP3   OH2 1603   2.490   6.956   6.273
  549TIP3    H1 1604   2.527   6.962   6.185
  549TIP3    H2 1605   2.407   7.004   6.268
  550TIP3   OH2 1606   6.621   4.794   3.789
  550TIP3    H1 1607   6.613   4.708   3.829
  550TIP3    H2 1608   6.659   4.850   3.858
  551TIP3   OH2 1609   5.403   2.320   0.497
  551TIP3    H1 1610   5.341   2.322   0.423
  551TIP3    H2 1611   5.485   2.353   0.460
  552TIP3   OH2 1612   2.124   1.295   1.591
  552TIP3    H1 1613   2.152   1.360   1.526
  552TIP3    H2 1614   2.058   1.243   1.545
  553TIP3   OH2 1615   7.338   2.561   2.521
  553TIP3    H1 1616   7.248   2.569   2.553
  553TIP3    H2 1617   7.386   2.523   2.594
  554TIP3   OH2 1618   1.272   0.599   1.555
  554TIP3    H1 1619   1.366   0.613   1.566
  554TIP3    H2 1620   1.265   0.548   1.474
  555TIP3   OH2 1621   6.129   4.434   3.312
  555TIP3    H1 1622   6.156   4.343   3.307
  555TIP3    H2 1623   6.048   4.433   3.363
  556TIP3   OH2 1624   5.393   3.786   1.655
  556TIP3    H1 1625   5.312   3.825   1.687
  556TIP3    H2 1626   5.394   3.804   1.561
  557TIP3   OH2 1627   3.789   4.393   5.609
  557TIP3    H1 1628   3.838   4.312   5.597
  557TIP3    H2 1629   3.842   4.460   5.566
  558TIP3   OH2 1630   2.851   1.003   3.779
  558TIP3    H1 1631   2.796   1.078   3.803
  558TIP3    H2 1632   2.930   1.014   3.833
  559TIP3   OH2 1633   2.104   7.347   4.578
  559TIP3    H1 1634   2.084   7.433   4.541
  559TIP3    H2 1635   2.157   7.366   4.655
  560TIP3   OH2 1636   1.004   0.011   2.000
  560TIP3    H1 1637   0.924   0.055   2.029
  560TIP3    H2 1638   0.975  -0.051   1.933
  561TIP3   OH2 1639   2.666   3.797   6.348
  561TIP3    H1 1640   2.608   3.750   6.288
  561TIP3    H2 1641   2.703   3.729   6.404
  562TIP3   OH2 1642   1.212   3.725   2.814
  562TIP3    H1 1643   1.122   3.704   2.789
  562TIP3    H2 1644   1.206   3.757   2.904
  563TIP3   OH2 1645   2.787   6.824   0.034
  563TIP3    H1 1646   2.693   6.843   0.028
  563TIP3    H2 1647   2.827   6.880  -0.032
  564TIP3   OH2 1648   4.499   6.000   5.491
  564TIP3    H1 1649   4.522   5.935   5.558
  564TIP3    H2 1650   4.439   6.060   5.535
  565TIP3   OH2 1651   3.837   4.980   1.580
  565TIP3    H1 1652   3.835   5.075   1.572
  565TIP3    H2 1653   3.758   4.950   1.535
  566TIP3   OH2 1654   0.885   6.548   0.993
  566TIP3    H1 1655   0.938   6.627   1.000
  566TIP3    H2 1656   0.923   6.488   1.058
  567TIP3   OH2 1657   3.231   4.000   3.815
  567TIP3    H1 1658   3.245   4.015   3.909
  567TIP3    H2 1659   3.136   3.988   3.807
  568TIP3   OH2 1660   0.974   5.713   6.483
  568TIP3    H1 1661   0.881   5.698   6.502
  568TIP3    H2 1662   1.016   5.629   6.501
  569TIP3   OH2 1663   6.887   0.109   4.744
  569TIP3    H1 1664   6.932   0.121   4.660
  569TIP3    H2 1665   6.913   0.185   4.796
  570TIP3   OH2 1666   1.706   3.837   2.772
  570TIP3    H1 1667   1.688   3.906   2.837
  570TIP3    H2 1668   1.622   3.791   2.763
  571TIP3   OH2 1669   1.397   5.164   6.153
  571TIP3    H1 1670   1.439   5.218   6.086
  571TIP3    H2 1671   1.436   5.078   6.144
  572TIP3   OH2 1672   3.059   4.790   2.672
  572TIP3    H1 1673   3.112   4.853   2.721
  572TIP3    H2 1674   3.113   4.711   2.671
  573TIP3   OH2 1675   0.345   1.184   1.825
  573TIP3    H1 1676   0.360   1.238   1.747
  573TIP3    H2 1677   0.399   1.107   1.811
  574TIP3   OH2 1678   0.606   6.251   2.665
  574TIP3    H1 1679   0.562   6.300   2.596
  574TIP3    H2 1680   0.666   6.314   2.705
  575TIP3   OH2 1681   5.145   7.762   2.987
  575TIP3    H1 1682   5.095   7.804   2.917
  575TIP3    H2 1683   5.095   7.781   3.066
  576TIP3   OH2 1684   2.365   3.110   0.536
  576TIP3    H1 1685   2.412   3.060   0.469
  576TIP3    H2 1686   2.307   3.168   0.487
  577TIP3   OH2 1687   8.091   1.067   2.502
  577TIP3    H1 1688   8.066   1.159   2.499
  577TIP3    H2 1689   8.031   1.028   2.565
  578TIP3   OH2 1690   0.386   4.708   5.678
  578TIP3    H1 1691   0.441   4.744   5.748
  578TIP3    H2 1692   0.392   4.771   5.607
  579TIP3   OH2 1693   6.672   6.503   6.638
  579TIP3    H1 1694   6.631   6.463   6.714
  579TIP3    H2 1695   6.765   6.485   6.648
  580TIP3   OH2 1696   2.966   7.629   6.730
  580TIP3    H1 1697   3.018   7.551   6.748
  580TIP3    H2 1698   2.912   7.605   6.655
  581TIP3   OH2 1699   5.266   7.698   2.473
  581TIP3    H1 1700   5.257   7.735   2.385
  581TIP3    H2 1701   5.301   7.610   2.458
  582TIP3   OH2 1702   7.162   3.663   4.328
  582TIP3    H1 1703   7.106   3.585   4.323
  582TIP3    H2 1704   7.249   3.629   4.350
  583TIP3   OH2 1705   3.641   0.246   0.612
  583TIP3    H1 1706   3.564   0.296   0.639
  583TIP3    H2 1707   3.713   0.283   0.664
  584TIP3   OH2 1708   5.572   0.537   5.664
  584TIP3    H1 1709   5.534   0.546   5.577
  584TIP3    H2 1710   5.655   0.492   5.650
  585TIP3   OH2 1711   0.961   5.589   2.588
  585TIP3    H1 1712   0.997   5.608   2.675
  585TIP3    H2 1713   0.969   5.672   2.540
  586TIP3   OH2 1714   4.555   2.448   4.164
  586TIP3    H1 1715   4.633   2.491   4.199
  586TIP3    H2 1716   4.517   2.401   4.239
  587TIP3   OH2 1717   3.640   1.674   3.652
  587TIP3    H1 1718   3.575   1.741   3.674
  587TIP3    H2 1719   3.724   1.715   3.669
  588TIP3   OH2 1720   3.262   0.354   1.483
  588TIP3    H1 1721   3.195   0.299   1.441
  588TIP3    H2 1722   3.326   0.370   1.413
  589TIP3   OH2 1723   5.086   1.545   2.509
  589TIP3    H1 1724   5.169   1.515   2.473
  589TIP3    H2 1725   5.110   1.605   2.579
  590TIP3   OH2 1726   4.941   1.048   2.383
  590TIP3    H1 1727   4.917   1.139   2.402
  590TIP3    H2 1728   4.991   1.020   2.460
  591TIP3   OH2 1729   0.728   6.462   1.976
  591TIP3    H1 1730   0.815   6.433   1.950
  591TIP3    H2 1731   0.742   6.520   2.051
  592TIP3   OH2 1732   3.727   4.147   2.888
  592TIP3    H1 1733   3.665   4.176   2.954
  592TIP3    H2 1734   3.739   4.222   2.830
  593TIP3   OH2 1735   5.100   2.716   0.930
  593TIP3    H1 1736   5.099   2.632   0.882
  593TIP3    H2 1737   5.149   2.775   0.873
  594TIP3   OH2 1738   3.292   7.065   1.198
  594TIP3    H1 1739   3.304   7.008   1.122
  594TIP3    H2 1740   3.375   7.060   1.245
  595TIP3   OH2 1741   7.018   6.297  -0.006
  595TIP3    H1 1742   6.972   6.239  -0.067
  595TIP3    H2 1743   6.995   6.264   0.081
  596TIP3   OH2 1744   6.691   7.250   1.198
  596TIP3    H1 1745   6.732   7.331   1.167
  596TIP3    H2 1746   6.606   7.278   1.232
  597TIP3   OH2 1747   0.886   6.518   3.148
  597TIP3    H1 1748   0.839   6.529   3.065
  597TIP3    H2 1749   0.878   6.424   3.167
  598TIP3   OH2 1750   2.802   2.933   2.221
  598TIP3    H1 1751   2.713   2.899   2.216
  598TIP3    H2 1752   2.850   2.869   2.273
  599TIP3   OH2 1753   6.712   6.347   3.023
  599TIP3    H1 1754   6.794   6.390   3.000
  599TIP3    H2 1755   6.705   6.273   2.962
  600TIP3   OH2 1756   7.622   7.610   5.247
  600TIP3    H1 1757   7.527   7.623   5.243
  600TIP3    H2 1758   7.654   7.639   5.162
  601TIP3   OH2 1759   6.742   0.394   6.482
  601TIP3    H1 1760   6.726   0.443   6.401
  601TIP3    H2 1761   6.721   0.456   6.552
  602TIP3   OH2 1762   4.094   5.477   2.620
  602TIP3    H1 1763   4.061   5.399   2.663
  602TIP3    H2 1764   4.156   5.444   2.554
  603TIP3   OH2 1765   7.251   6.959   6.544
  603TIP3    H1 1766   7.217   6.913   6.467
  603TIP3    H2 1767   7.173   6.980   6.596
  604TIP3   OH2 1768   6.634   3.230   4.159
  604TIP3    H1 1769   6.645   3.260   4.249
  604TIP3    H2 1770   6.707   3.169   4.145
  605TIP3   OH2 1771   4.071   6.159   1.216
  605TIP3    H1 1772   4.077   6.185   1.308
  605TIP3    H2 1773   4.160   6.132   1.193
  606TIP3   OH2 1774   6.983   2.181   3.446
  606TIP3    H1 1775   6.961   2.227   3.527
  606TIP3    H2 1776   7.033   2.105   3.473
  607TIP3   OH2 1777   0.518   0.622   1.199
  607TIP3    H1 1778   0.606   0.586   1.200
  607TIP3    H2 1779   0.464   0.557   1.243
  608TIP3   OH2 1780   8.294   5.038   0.531
  608TIP3    H1 1781   8.225   4.980   0.500
  608TIP3    H2 1782   8.254   5.088   0.602
  609TIP3   OH2 1783   0.285   3.753   4.495
  609TIP3    H1 1784   0.293   3.842   4.529
  609TIP3    H2 1785   0.231   3.707   4.560
  610TIP3   OH2 1786   1.352   0.054   5.370
  610TIP3    H1 1787   1.437   0.049   5.415
  610TIP3    H2 1788   1.334   0.148   5.365
  611TIP3   OH2 1789   2.644   5.712   4.950
  611TIP3    H1 1790   2.651   5.800   4.911
  611TIP3    H2 1791   2.714   5.662   4.909
  612TIP3   OH2 1792   4.632   1.320   2.169
  612TIP3    H1 1793   4.687   1.393   2.142
  612TIP3    H2 1794   4.642   1.316   2.264
  613TIP3   OH2 1795   0.422   4.653   2.410
  613TIP3    H1 1796   0.444   4.564   2.436
  613TIP3    H2 1797   0.505   4.700   2.411
  614TIP3   OH2 1798   3.256   0.423   0.249
  614TIP3    H1 1799   3.302   0.492   0.296
  614TIP3    H2 1800   3.302   0.416   0.165
  615TIP3   OH2 1801   6.693   7.256   2.771
  615TIP3    H1 1802   6.745   7.203   2.830
  615TIP3    H2 1803   6.610   7.208   2.762
  616TIP3   OH2 1804   0.564   7.318   0.349
  616TIP3    H1 1805   0.540   7.241   0.298
  616TIP3    H2 1806   0.503   7.387   0.319
  617TIP3   OH2 1807   4.966   7.633   3.190
  617TIP3    H1 1808   4.900   7.692   3.227
  617TIP3    H2 1809   4.917   7.579   3.127
  618TIP3   OH2 1810   4.166   0.888   5.698
  618TIP3    H1 1811   4.178   0.968   5.647
  618TIP3    H2 1812   4.094   0.843   5.654
  619TIP3   OH2 1813   1.518   5.108   3.078
  619TIP3    H1 1814   1.514   5.181   3.017
  619TIP3    H2 1815   1.612   5.091   3.088
  620TIP3   OH2 1816   2.620   1.978   4.265
  620TIP3    H1 1817   2.675   2.024   4.329
  620TIP3    H2 1818   2.668   1.898   4.244
  621TIP3   OH2 1819   0.797   1.262   6.093
  621TIP3    H1 1820   0.805   1.306   6.177
  621TIP3    H2 1821   0.790   1.334   6.029
  622TIP3   OH2 1822   1.127   6.824   4.867
  622TIP3    H1 1823   1.209   6.794   4.908
  622TIP3    H2 1824   1.068   6.839   4.941
  623TIP3   OH2 1825   7.081   2.841   4.993
  623TIP3    H1 1826   7.035   2.895   5.057
  623TIP3    H2 1827   7.173   2.850   5.016
  624TIP3   OH2 1828   3.679   6.157   2.275
  624TIP3    H1 1829   3.751   6.214   2.304
  624TIP3    H2 1830   3.711   6.118   2.194
  625TIP3   OH2 1831   3.465   7.399   3.167
  625TIP3    H1 1832   3.474   7.491   3.193
  625TIP3    H2 1833   3.490   7.349   3.244
  626TIP3   OH2 1834   2.456   0.886   4.246
  626TIP3    H1 1835   2.472   0.839   4.164
  626TIP3    H2 1836   2.515   0.845   4.309
  627TIP3   OH2 1837   7.048   4.519   0.575
  627TIP3    H1 1838   7.073   4.595   0.522
  627TIP3    H2 1839   7.101   4.448   0.540
  628TIP3   OH2 1840   0.308   1.813   1.687
  628TIP3    H1 1841   0.291   1.749   1.757
  628TIP3    H2 1842   0.398   1.795   1.661
  629TIP3   OH2 1843   3.253   7.467   3.644
  629TIP3    H1 1844   3.337   7.494   3.679
  629TIP3    H2 1845   3.268   7.380   3.608
  630TIP3   OH2 1846   7.939   3.842   6.076
  630TIP3    H1 1847   7.920   3.854   5.983
  630TIP3    H2 1848   7.943   3.747   6.087
  631TIP3   OH2 1849   2.354   5.055   0.841
  631TIP3    H1 1850   2.329   4.977   0.792
  631TIP3    H2 1851   2.449   5.059   0.833
  632TIP3   OH2 1852   5.335   3.981   4.009
  632TIP3    H1 1853   5.316   4.035   3.932
  632TIP3    H2 1854   5.395   3.914   3.977
  633TIP3   OH2 1855   1.197   6.803   6.020
  633TIP3    H1 1856   1.195   6.710   6.045
  633TIP3    H2 1857   1.283   6.814   5.978
  634TIP3   OH2 1858   5.329   5.519   5.280
  634TIP3    H1 1859   5.394   5.474   5.226
  634TIP3    H2 1860   5.330   5.473   5.364
  635TIP3   OH2 1861   2.723   0.180   5.053
  635TIP3    H1 1862   2.632   0.180   5.084
  635TIP3    H2 1863   2.768   0.118   5.110
  636TIP3   OH2 1864   2.537   1.950   5.000
  636TIP3    H1 1865   2.474   1.961   5.071
  636TIP3    H2 1866   2.619   1.929   5.044
  637TIP3   OH2 1867   2.973   0.248   2.058
  637TIP3    H1 1868   3.030   0.308   2.106
  637TIP3    H2 1869   2.992   0.266   1.965
  638TIP3   OH2 1870   2.335   6.698   2.664
  638TIP3    H1 1871   2.338   6.731   2.754
  638TIP3    H2 1872   2.427   6.695   2.637
  639TIP3   OH2 1873   3.126   6.464   2.334
  639TIP3    H1 1874   3.203   6.424   2.374
  639TIP3    H2 1875   3.161   6.539   2.285
  640TIP3   OH2 1876   2.454   4.591   0.919
  640TIP3    H1 1877   2.429   4.513   0.869
  640TIP3    H2 1878   2.392   4.592   0.992
  641TIP3   OH2 1879   6.015   6.603   1.875
  641TIP3    H1 1880   5.993   6.532   1.815
  641TIP3    H2 1881   6.110   6.599   1.884
  642TIP3   OH2 1882   7.602   4.025   4.098
  642TIP3    H1 1883   7.693   3.997   4.086
  642TIP3    H2 1884   7.609   4.118   4.121
  643TIP3   OH2 1885   8.233   3.480   0.966
  643TIP3    H1 1886   8.158   3.520   0.923
  643TIP3    H2 1887   8.196   3.404   1.013
  644TIP3   OH2 1888   5.702   2.945   6.631
  644TIP3    H1 1889   5.713   2.883   6.703
  644TIP3    H2 1890   5.681   3.028   6.673
  645TIP3   OH2 1891   1.458   2.490   2.373
  645TIP3    H1 1892   1.396   2.467   2.303
  645TIP3    H2 1893   1.414   2.461   2.454
  646TIP3   OH2 1894   0.430   2.332   2.918
  646TIP3    H1 1895   0.389   2.247   2.905
  646TIP3    H2 1896   0.361   2.385   2.959
  647TIP3   OH2 1897   2.474   6.527   1.400
  647TIP3    H1 1898   2.427   6.601   1.438
  647TIP3    H2 1899   2.566   6.546   1.415
  648TIP3   OH2 1900   5.902   1.059   1.560
  648TIP3    H1 1901   5.856   1.126   1.611
  648TIP3    H2 1902   5.864   0.976   1.589
  649TIP3   OH2 1903   2.909   5.808   3.384
  649TIP3    H1 1904   2.901   5.754   3.463
  649TIP3    H2 1905   2.827   5.795   3.338
  650TIP3   OH2 1906   5.894   7.805   2.445
  650TIP3    H1 1907   5.989   7.812   2.435
  650TIP3    H2 1908   5.881   7.726   2.496
  651TIP3   OH2 1909   5.956   4.739   3.286
  651TIP3    H1 1910   5.954   4.733   3.382
  651TIP3    H2 1911   5.921   4.655   3.256
  652TIP3   OH2 1912   5.647   4.252   5.326
  652TIP3    H1 1913   5.587   4.272   5.398
  652TIP3    H2 1914   5.727   4.221   5.369
  653TIP3   OH2 1915   2.558   3.728   3.889
  653TIP3    H1 1916   2.539   3.815   3.856
  653TIP3    H2 1917   2.522   3.669   3.822
  654TIP3   OH2 1918   3.559   6.669   5.675
  654TIP3    H1 1919   3.491   6.615   5.714
  654TIP3    H2 1920   3.622   6.684   5.746
  655TIP3   OH2 1921   6.893   1.331   3.697
  655TIP3    H1 1922   6.963   1.395   3.709
  655TIP3    H2 1923   6.830   1.352   3.766
  656TIP3   OH2 1924   1.624   6.716   6.387
  656TIP3    H1 1925   1.713   6.712   6.354
  656TIP3    H2 1926   1.605   6.810   6.393
  657TIP3   OH2 1927   2.578   4.653   5.759
  657TIP3    H1 1928   2.515   4.591   5.722
  657TIP3    H2 1929   2.572   4.640   5.854
  658TIP3   OH2 1930   3.955   3.655   0.445
  658TIP3    H1 1931   4.014   3.580   0.451
  658TIP3    H2 1932   3.946   3.672   0.351
  659TIP3   OH2 1933   6.075   3.269   4.344
  659TIP3    H1 1934   6.020   3.218   4.404
  659TIP3    H2 1935   6.040   3.358   4.349
  660TIP3   OH2 1936   0.173   0.070   3.345
  660TIP3    H1 1937   0.183   0.055   3.439
  660TIP3    H2 1938   0.152  -0.016   3.310
  661TIP3   OH2 1939   1.179   5.987   0.959
  661TIP3    H1 1940   1.177   6.076   0.995
  661TIP3    H2 1941   1.091   5.953   0.974
  662TIP3   OH2 1942   2.522   5.692   6.628
  662TIP3    H1 1943   2.576   5.766   6.602
  662TIP3    H2 1944   2.434   5.729   6.639
  663TIP3   OH2 1945   0.816   7.207   6.441
  663TIP3    H1 1946   0.792   7.115   6.447
  663TIP3    H2 1947   0.884   7.210   6.373
  664TIP3   OH2 1948   3.662   3.656   4.658
  664TIP3    H1 1949   3.743   3.681   4.613
  664TIP3    H2 1950   3.593   3.688   4.600
  665TIP3   OH2 1951   4.417   3.106   2.376
  665TIP3    H1 1952   4.396   3.152   2.294
  665TIP3    H2 1953   4.468   3.030   2.348
  666TIP3   OH2 1954   7.930   0.228   3.933
  666TIP3    H1 1955   7.862   0.219   3.866
  666TIP3    H2 1956   7.964   0.316   3.922
  667TIP3   OH2 1957   0.590   2.868   5.137
  667TIP3    H1 1958   0.508   2.915   5.121
  667TIP3    H2 1959   0.564   2.791   5.188
  668TIP3   OH2 1960   1.901   3.268   2.631
  668TIP3    H1 1961   1.986   3.293   2.668
  668TIP3    H2 1962   1.862   3.213   2.698
  669TIP3   OH2 1963   8.019   3.229   2.847
  669TIP3    H1 1964   8.021   3.308   2.793
  669TIP3    H2 1965   7.937   3.186   2.823
  670TIP3   OH2 1966   5.033   3.904   5.717
  670TIP3    H1 1967   5.015   3.872   5.805
  670TIP3    H2 1968   4.951   3.891   5.669
  671TIP3   OH2 1969   5.578   6.154   2.221
  671TIP3    H1 1970   5.535   6.159   2.135
  671TIP3    H2 1971   5.659   6.106   2.203
  672TIP3   OH2 1972   5.973   3.256   3.565
  672TIP3    H1 1973   5.957   3.177   3.616
  672TIP3    H2 1974   5.999   3.224   3.479
  673TIP3   OH2 1975   1.409   3.814   0.226
  673TIP3    H1 1976   1.458   3.733   0.235
  673TIP3    H2 1977   1.431   3.864   0.305
  674TIP3   OH2 1978   3.912   3.413   5.609
  674TIP3    H1 1979   3.918   3.346   5.676
  674TIP3    H2 1980   3.895   3.494   5.657
  675TIP3   OH2 1981   5.724   0.464   3.905
  675TIP3    H1 1982   5.755   0.382   3.868
  675TIP3    H2 1983   5.634   0.472   3.875
  676TIP3   OH2 1984   6.165   4.740   5.064
  676TIP3    H1 1985   6.198   4.710   5.149
  676TIP3    H2 1986   6.242   4.777   5.021
  677TIP3   OH2 1987   5.675   1.824   0.514
  677TIP3    H1 1988   5.708   1.892   0.572
  677TIP3    H2 1989   5.610   1.777   0.567
  678TIP3   OH2 1990   2.745   5.493   4.203
  678TIP3    H1 1991   2.723   5.557   4.136
  678TIP3    H2 1992   2.818   5.533   4.251
  679TIP3   OH2 1993   3.468   5.217   6.248
  679TIP3    H1 1994   3.394   5.250   6.298
  679TIP3    H2 1995   3.465   5.265   6.165
  680TIP3   OH2 1996   0.546   3.663   5.277
  680TIP3    H1 1997   0.564   3.569   5.267
  680TIP3    H2 1998   0.572   3.702   5.194
  681TIP3   OH2 1999   7.155   7.188   6.179
  681TIP3    H1 2000   7.208   7.248   6.127
  681TIP3    H2 2001   7.215   7.155   6.246
  682TIP3   OH2 2002   6.235   0.881   3.709
  682TIP3    H1 2003   6.169   0.949   3.724
  682TIP3    H2 2004   6.190   0.815   3.657
  683TIP3   OH2 2005   6.076   0.211   4.249
  683TIP3    H1 2006   6.150   0.224   4.189
  683TIP3    H2 2007   6.004   0.183   4.192
  684TIP3   OH2 2008   3.639   1.550   3.106
  684TIP3    H1 2009   3.669   1.467   3.144
  684TIP3    H2 2010   3.719   1.595   3.080
  685TIP3   OH2 2011   6.347   2.441   4.676
  685TIP3    H1 2012   6.263   2.485   4.664
  685TIP3    H2 2013   6.338   2.395   4.760
  686TIP3   OH2 2014   3.377   3.301   5.099
  686TIP3    H1 2015   3.307   3.362   5.121
  686TIP3    H2 2016   3.358   3.274   5.009
  687TIP3   OH2 2017   0.777   2.406   6.168
  687TIP3    H1 2018   0.714   2.388   6.098
  687TIP3    H2 2019   0.728   2.459   6.231
  688TIP3   OH2 2020   0.165   2.293   0.342
  688TIP3    H1 2021   0.078   2.310   0.306
  688TIP3    H2 2022   0.189   2.207   0.309
  689TIP3   OH2 2023   5.346   4.177   3.828
  689TIP3    H1 2024   5.332   4.247   3.891
  689TIP3    H2 2025   5.441   4.174   3.817
  690TIP3   OH2 2026   5.841   4.497   3.226
  690TIP3    H1 2027   5.802   4.462   3.306
  690TIP3    H2 2028   5.795   4.452   3.155
  691TIP3   OH2 2029   1.636   2.198   5.461
  691TIP3    H1 2030   1.586   2.116   5.463
  691TIP3    H2 2031   1.722   2.175   5.494
  692TIP3   OH2 2032   0.704   4.588   2.109
  692TIP3    H1 2033   0.639   4.652   2.079
  692TIP3    H2 2034   0.655   4.507   2.118
  693TIP3   OH2 2035   5.661   1.814   1.328
  693TIP3    H1 2036   5.735   1.759   1.301
  693TIP3    H2 2037   5.702   1.887   1.374
  694TIP3   OH2 2038   4.674   0.489   3.303
  694TIP3    H1 2039   4.711   0.534   3.379
  694TIP3    H2 2040   4.741   0.426   3.278
  695TIP3   OH2 2041   3.913   1.776   2.751
  695TIP3    H1 2042   3.902   1.775   2.656
  695TIP3    H2 2043   3.974   1.848   2.767
  696TIP3   OH2 2044   0.626   4.399   4.762
  696TIP3    H1 2045   0.692   4.389   4.694
  696TIP3    H2 2046   0.674   4.434   4.837
  697TIP3   OH2 2047   0.733   0.062   3.814
  697TIP3    H1 2048   0.667   0.000   3.843
  697TIP3    H2 2049   0.815   0.012   3.816
  698TIP3   OH2 2050   4.946   0.199   4.429
  698TIP3    H1 2051   4.898   0.173   4.508
  698TIP3    H2 2052   4.891   0.267   4.390
  699TIP3   OH2 2053   6.186   7.428   4.029
  699TIP3    H1 2054   6.270   7.473   4.021
  699TIP3    H2 2055   6.150   7.460   4.112
  700TIP3   OH2 2056   5.132   0.660   2.417
  700TIP3    H1 2057   5.092   0.688   2.499
  700TIP3    H2 2058   5.067   0.603   2.376
  701TIP3   OH2 2059   3.779   4.971   2.848
  701TIP3    H1 2060   3.776   4.901   2.783
  701TIP3    H2 2061   3.853   4.949   2.904
  702TIP3   OH2 2062   5.954   5.945   5.749
  702TIP3    H1 2063   5.964   5.933   5.843
  702TIP3    H2 2064   5.881   6.006   5.740
  703TIP3   OH2 2065   7.939   5.473   4.700
  703TIP3    H1 2066   7.994   5.482   4.622
  703TIP3    H2 2067   7.849   5.470   4.667
  704TIP3   OH2 2068   6.953   4.712   6.455
  704TIP3    H1 2069   6.954   4.736   6.362
  704TIP3    H2 2070   6.972   4.619   6.456
  705TIP3   OH2 2071   4.420   1.996   6.220
  705TIP3    H1 2072   4.341   1.962   6.263
  705TIP3    H2 2073   4.387   2.042   6.142
  706TIP3   OH2 2074   4.582   2.147   5.209
  706TIP3    H1 2075   4.566   2.140   5.115
  706TIP3    H2 2076   4.496   2.137   5.249
  707TIP3   OH2 2077   7.245   0.370   2.061
  707TIP3    H1 2078   7.210   0.393   1.975
  707TIP3    H2 2079   7.261   0.454   2.103
  708TIP3   OH2 2080   6.614   3.817   6.252
  708TIP3    H1 2081   6.650   3.888   6.306
  708TIP3    H2 2082   6.610   3.742   6.311
  709TIP3   OH2 2083   1.592   3.608   3.816
  709TIP3    H1 2084   1.667   3.611   3.875
  709TIP3    H2 2085   1.576   3.700   3.794
  710TIP3   OH2 2086   2.359   3.698   1.879
  710TIP3    H1 2087   2.280   3.752   1.884
  710TIP3    H2 2088   2.327   3.608   1.872
  711TIP3   OH2 2089   6.353   1.694   6.749
  711TIP3    H1 2090   6.270   1.731   6.721
  711TIP3    H2 2091   6.330   1.611   6.792
  712TIP3   OH2 2092   6.351   3.553   4.265
  712TIP3    H1 2093   6.409   3.538   4.191
  712TIP3    H2 2094   6.280   3.607   4.230
  713TIP3   OH2 2095   0.264   2.942   3.125
  713TIP3    H1 2096   0.209   2.869   3.098
  713TIP3    H2 2097   0.229   3.017   3.076
  714TIP3   OH2 2098   1.729   2.013   0.121
  714TIP3    H1 2099   1.730   1.973   0.033
  714TIP3    H2 2100   1.679   2.094   0.109
  715TIP3   OH2 2101   0.478   5.640   4.127
  715TIP3    H1 2102   0.392   5.607   4.152
  715TIP3    H2 2103   0.462   5.691   4.048
  716TIP3   OH2 2104   7.497   5.748   1.458
  716TIP3    H1 2105   7.461   5.714   1.540
  716TIP3    H2 2106   7.524   5.670   1.410
  717TIP3   OH2 2107   7.574   6.191   4.546
  717TIP3    H1 2108   7.494   6.139   4.544
  717TIP3    H2 2109   7.620   6.161   4.624
  718TIP3   OH2 2110   5.672   3.382   2.776
  718TIP3    H1 2111   5.662   3.427   2.692
  718TIP3    H2 2112   5.753   3.332   2.766
  719TIP3   OH2 2113   6.605   4.904   2.594
  719TIP3    H1 2114   6.700   4.908   2.588
  719TIP3    H2 2115   6.578   4.995   2.606
  720TIP3   OH2 2116   6.944   7.717   0.446
  720TIP3    H1 2117   6.866   7.713   0.500
  720TIP3    H2 2118   6.959   7.811   0.432
  721TIP3   OH2 2119   6.122   2.175   0.907
  721TIP3    H1 2120   6.101   2.113   0.837
  721TIP3    H2 2121   6.044   2.229   0.916
  722TIP3   OH2 2122   7.638   3.877   4.970
  722TIP3    H1 2123   7.626   3.849   5.061
  722TIP3    H2 2124   7.677   3.802   4.926
  723TIP3   OH2 2125   1.323   2.190   6.123
  723TIP3    H1 2126   1.275   2.272   6.132
  723TIP3    H2 2127   1.297   2.156   6.038
  724TIP3   OH2 2128   0.923   3.236   0.131
  724TIP3    H1 2129   0.951   3.196   0.213
  724TIP3    H2 2130   0.841   3.192   0.109
  725TIP3   OH2 2131   4.457   3.173   3.857
  725TIP3    H1 2132   4.520   3.239   3.827
  725TIP3    H2 2133   4.383   3.224   3.890
  726TIP3   OH2 2134   3.105   5.789   1.986
  726TIP3    H1 2135   3.067   5.873   1.961
  726TIP3    H2 2136   3.089   5.782   2.080
  727TIP3   OH2 2137   0.032   4.831   4.820
  727TIP3    H1 2138   0.096   4.869   4.881
  727TIP3    H2 2139  -0.053   4.855   4.857
  728TIP3   OH2 2140   2.159   2.765   2.210
  728TIP3    H1 2141   2.224   2.702   2.242
  728TIP3    H2 2142   2.206   2.848   2.207
  729TIP3   OH2 2143   7.171   1.401   6.724
  729TIP3    H1 2144   7.248   1.403   6.667
  729TIP3    H2 2145   7.111   1.465   6.685
  730TIP3   OH2 2146   8.076   3.925   3.475
  730TIP3    H1 2147   8.054   3.849   3.530
  730TIP3    H2 2148   8.121   3.887   3.399
  731TIP3   OH2 2149   7.296   1.000   2.793
  731TIP3    H1 2150   7.319   0.992   2.886
  731TIP3    H2 2151   7.278   0.910   2.765
  732TIP3   OH2 2152   8.097   2.607   5.166
  732TIP3    H1 2153   8.054   2.584   5.083
  732TIP3    H2 2154   8.132   2.525   5.199
  733TIP3   OH2 2155   0.356   1.303   4.174
  733TIP3    H1 2156   0.349   1.397   4.155
  733TIP3    H2 2157   0.278   1.284   4.226
  734TIP3   OH2 2158   5.816   0.022   2.816
  734TIP3    H1 2159   5.879   0.080   2.860
  734TIP3    H2 2160   5.814  -0.057   2.871
  735TIP3   OH2 2161   3.149   6.919   2.380
  735TIP3    H1 2162   3.087   6.961   2.319
  735TIP3    H2 2163   3.153   6.828   2.351
  736TIP3   OH2 2164   2.006   5.518   5.447
  736TIP3    H1 2165   2.091   5.478   5.428
  736TIP3    H2 2166   1.951   5.496   5.372
  737TIP3   OH2 2167   6.366   7.241   3.845
  737TIP3    H1 2168   6.326   7.272   3.764
  737TIP3    H2 2169   6.330   7.299   3.913
  738TIP3   OH2 2170   0.545   6.202   3.110
  738TIP3    H1 2171   0.541   6.112   3.080
  738TIP3    H2 2172   0.480   6.248   3.057
  739TIP3   OH2 2173   3.900   5.338   2.231
  739TIP3    H1 2174   3.992   5.317   2.248
  739TIP3    H2 2175   3.865   5.366   2.316
  740TIP3   OH2 2176   7.609   6.712   1.385
  740TIP3    H1 2177   7.569   6.631   1.354
  740TIP3    H2 2178   7.672   6.684   1.451
  741TIP3   OH2 2179   4.199   3.164   1.720
  741TIP3    H1 2180   4.253   3.175   1.641
  741TIP3    H2 2181   4.184   3.070   1.726
  742TIP3   OH2 2182   2.700   5.058   6.312
  742TIP3    H1 2183   2.664   5.132   6.264
  742TIP3    H2 2184   2.750   5.097   6.383
  743TIP3   OH2 2185   7.100   3.628   2.346
  743TIP3    H1 2186   7.034   3.560   2.361
  743TIP3    H2 2187   7.055   3.693   2.291
  744TIP3   OH2 2188   1.634   3.184   1.710
  744TIP3    H1 2189   1.675   3.243   1.646
  744TIP3    H2 2190   1.623   3.238   1.788
  745TIP3   OH2 2191   2.127   2.743   4.069
  745TIP3    H1 2192   2.194   2.747   4.000
  745TIP3    H2 2193   2.129   2.829   4.110
  746TIP3   OH2 2194   6.924   5.938   1.812
  746TIP3    H1 2195   6.964   5.966   1.729
  746TIP3    H2 2196   6.950   5.846   1.820
  747TIP3   OH2 2197   3.835   4.727   4.206
  747TIP3    H1 2198   3.762   4.780   4.236
  747TIP3    H2 2199   3.794   4.645   4.176
  748TIP3   OH2 2200   8.233   0.354   6.704
  748TIP3    H1 2201   8.192   0.366   6.618
  748TIP3    H2 2202   8.199   0.425   6.758
  749TIP3   OH2 2203   4.302   7.566   4.143
  749TIP3    H1 2204   4.357   7.490   4.127
  749TIP3    H2 2205   4.215   7.530   4.162
  750TIP3   OH2 2206   0.619   4.842   1.088
  750TIP3    H1 2207   0.524   4.853   1.081
  750TIP3    H2 2208   0.631   4.751   1.113
  751TIP3   OH2 2209   5.613   2.361   0.805
  751TIP3    H1 2210   5.631   2.362   0.711
  751TIP3    H2 2211   5.518   2.357   0.811
  752TIP3   OH2 2212   4.390   6.708   2.961
  752TIP3    H1 2213   4.350   6.791   2.987
  752TIP3    H2 2214   4.364   6.647   3.030
  753TIP3   OH2 2215   5.248   6.010   6.037
  753TIP3    H1 2216   5.165   5.992   6.083
  753TIP3    H2 2217   5.301   6.058   6.100
  754TIP3   OH2 2218   3.369   6.105   3.744
  754TIP3    H1 2219   3.379   6.114   3.649
  754TIP3    H2 2220   3.276   6.117   3.760
  755TIP3   OH2 2221   4.661   4.688   3.077
  755TIP3    H1 2222   4.644   4.604   3.034
  755TIP3    H2 2223   4.578   4.736   3.071
  756TIP3   OH2 2224   6.160   0.341   5.651
  756TIP3    H1 2225   6.156   0.416   5.592
  756TIP3    H2 2226   6.193   0.269   5.597
  757TIP3   OH2 2227   3.988   6.158   4.354
  757TIP3    H1 2228   4.042   6.236   4.366
  757TIP3    H2 2229   4.030   6.110   4.283
  758TIP3   OH2 2230   4.615   4.841   2.805
  758TIP3    H1 2231   4.528   4.828   2.768
  758TIP3    H2 2232   4.649   4.752   2.819
  759TIP3   OH2 2233   0.292   0.193   4.774
  759TIP3    H1 2234   0.274   0.157   4.687
  759TIP3    H2 2235   0.359   0.259   4.759
  760TIP3   OH2 2236   3.869   6.264   1.448
  760TIP3    H1 2237   3.832   6.273   1.361
  760TIP3    H2 2238   3.841   6.177   1.477
  761TIP3   OH2 2239   4.459   7.218   2.343
  761TIP3    H1 2240   4.401   7.246   2.272
  761TIP3    H2 2241   4.466   7.295   2.399
  762TIP3   OH2 2242   8.037   0.497   0.961
  762TIP3    H1 2243   8.059   0.436   0.891
  762TIP3    H2 2244   8.053   0.583   0.923
  763TIP3   OH2 2245   2.569   6.031   5.166
  763TIP3    H1 2246   2.644   6.073   5.123
  763TIP3    H2 2247   2.534   5.971   5.101
  764TIP3   OH2 2248   0.883   1.544   2.204
  764TIP3    H1 2249   0.962   1.576   2.162
  764TIP3    H2 2250   0.904   1.542   2.297
  765TIP3   OH2 2251   2.127   1.900   2.472
  765TIP3    H1 2252   2.121   1.821   2.419
  765TIP3    H2 2253   2.221   1.917   2.480
  766TIP3   OH2 2254   1.492   1.596   5.934
  766TIP3    H1 2255   1.551   1.537   5.887
  766TIP3    H2 2256   1.548   1.669   5.960
  767TIP3   OH2 2257   2.403   2.928   5.288
  767TIP3    H1 2258   2.404   2.854   5.348
  767TIP3    H2 2259   2.358   2.896   5.210
  768TIP3   OH2 2260   0.043   1.165   1.187
  768TIP3    H1 2261  -0.007   1.166   1.105
  768TIP3    H2 2262   0.107   1.235   1.177
  769TIP3   OH2 2263   4.846   3.946   1.464
  769TIP3    H1 2264   4.763   3.962   1.418
  769TIP3    H2 2265   4.878   4.034   1.487
  770TIP3   OH2 2266   6.251   0.531   6.681
  770TIP3    H1 2267   6.185   0.462   6.685
  770TIP3    H2 2268   6.287   0.534   6.769
  771TIP3   OH2 2269   3.598   0.523   4.363
  771TIP3    H1 2270   3.637   0.574   4.434
  771TIP3    H2 2271   3.542   0.586   4.317
  772TIP3   OH2 2272   0.978   4.600   1.312
  772TIP3    H1 2273   0.980   4.618   1.218
  772TIP3    H2 2274   0.890   4.627   1.339
  773TIP3   OH2 2275   3.649   1.158   5.866
  773TIP3    H1 2276   3.581   1.101   5.901
  773TIP3    H2 2277   3.726   1.138   5.919
  774TIP3   OH2 2278   7.883   6.919   2.102
  774TIP3    H1 2279   7.793   6.923   2.072
  774TIP3    H2 2280   7.891   6.992   2.164
  775TIP3   OH2 2281   2.926   7.206   1.735
  775TIP3    H1 2282   2.950   7.283   1.684
  775TIP3    H2 2283   3.005   7.151   1.733
  776TIP3   OH2 2284   3.073   6.979   4.778
  776TIP3    H1 2285   3.059   7.050   4.715
  776TIP3    H2 2286   3.166   6.985   4.800
  777TIP3   OH2 2287   5.462   3.010   6.540
  777TIP3    H1 2288   5.544   2.963   6.555
  777TIP3    H2 2289   5.410   2.951   6.486
  778TIP3   OH2 2290   0.562   4.574   1.445
  778TIP3    H1 2291   0.561   4.522   1.525
  778TIP3    H2 2292   0.474   4.610   1.438
  779TIP3   OH2 2293   1.391   6.411   6.598
  779TIP3    H1 2294   1.441   6.385   6.676
  779TIP3    H2 2295   1.435   6.490   6.566
  780TIP3   OH2 2296   5.094   6.685   3.735
  780TIP3    H1 2297   5.099   6.705   3.642
  780TIP3    H2 2298   5.146   6.754   3.777
  781TIP3   OH2 2299   1.638   6.368   0.020
  781TIP3    H1 2300   1.730   6.345   0.031
  781TIP3    H2 2301   1.637   6.433  -0.049
  782TIP3   OH2 2302   3.392   5.192   1.180
  782TIP3    H1 2303   3.413   5.266   1.123
  782TIP3    H2 2304   3.323   5.225   1.237
  783TIP3   OH2 2305   3.415   4.692   5.045
  783TIP3    H1 2306   3.363   4.690   4.964
  783TIP3    H2 2307   3.355   4.726   5.111
  784TIP3   OH2 2308   8.198   6.830   1.318
  784TIP3    H1 2309   8.265   6.876   1.369
  784TIP3    H2 2310   8.121   6.886   1.323
  785TIP3   OH2 2311   1.361   5.868   4.849
  785TIP3    H1 2312   1.308   5.834   4.777
  785TIP3    H2 2313   1.357   5.800   4.916
  786TIP3   OH2 2314   4.321   0.512   1.179
  786TIP3    H1 2315   4.385   0.535   1.246
  786TIP3    H2 2316   4.271   0.439   1.217
  787TIP3   OH2 2317   7.086   3.060   4.589
  787TIP3    H1 2318   7.117   3.012   4.513
  787TIP3    H2 2319   7.090   2.997   4.661
  788TIP3   OH2 2320   7.533   7.504   1.273
  788TIP3    H1 2321   7.481   7.581   1.297
  788TIP3    H2 2322   7.608   7.539   1.225
  789TIP3   OH2 2323   5.454   1.773   3.319
  789TIP3    H1 2324   5.477   1.788   3.411
  789TIP3    H2 2325   5.368   1.733   3.321
  790TIP3   OH2 2326   1.444   0.502   4.214
  790TIP3    H1 2327   1.515   0.536   4.269
  790TIP3    H2 2328   1.482   0.499   4.126
  791TIP3   OH2 2329   6.599   4.567   5.790
  791TIP3    H1 2330   6.651   4.643   5.816
  791TIP3    H2 2331   6.509   4.598   5.791
  792TIP3   OH2 2332   0.216   6.769   2.947
  792TIP3    H1 2333   0.153   6.723   2.892
  792TIP3    H2 2334   0.172   6.850   2.972
  793TIP3   OH2 2335   4.556   1.376   1.485
  793TIP3    H1 2336   4.534   1.380   1.578
  793TIP3    H2 2337   4.473   1.391   1.440
  794TIP3   OH2 2338   7.288   1.635   4.637
  794TIP3    H1 2339   7.341   1.561   4.666
  794TIP3    H2 2340   7.306   1.641   4.543
  795TIP3   OH2 2341   1.538   7.576   6.532
  795TIP3    H1 2342   1.471   7.540   6.474
  795TIP3    H2 2343   1.544   7.669   6.509
  796TIP3   OH2 2344   4.203   6.455   0.067
  796TIP3    H1 2345   4.243   6.388   0.010
  796TIP3    H2 2346   4.125   6.483   0.019
  797TIP3   OH2 2347   4.555   7.150   5.528
  797TIP3    H1 2348   4.594   7.106   5.604
  797TIP3    H2 2349   4.479   7.196   5.564
  798TIP3   OH2 2350   5.231   0.439   5.829
  798TIP3    H1 2351   5.311   0.489   5.846
  798TIP3    H2 2352   5.219   0.384   5.906
  799TIP3   OH2 2353   6.547   5.131   0.685
  799TIP3    H1 2354   6.606   5.087   0.623
  799TIP3    H2 2355   6.595   5.209   0.713
  800TIP3   OH2 2356   5.314   0.219   0.955
  800TIP3    H1 2357   5.337   0.179   0.871
  800TIP3    H2 2358   5.237   0.171   0.985
  801TIP3   OH2 2359   5.639   4.212   4.098
  801TIP3    H1 2360   5.640   4.192   4.004
  801TIP3    H2 2361   5.637   4.126   4.141
  802TIP3   OH2 2362   6.878   6.139   5.609
  802TIP3    H1 2363   6.873   6.204   5.680
  802TIP3    H2 2364   6.825   6.177   5.539
  803TIP3   OH2 2365   4.184   7.112   0.094
  803TIP3    H1 2366   4.219   7.040   0.145
  803TIP3    H2 2367   4.261   7.158   0.060
  804TIP3   OH2 2368   0.629   0.642   5.351
  804TIP3    H1 2369   0.712   0.595   5.350
  804TIP3    H2 2370   0.565   0.578   5.318
  805TIP3   OH2 2371   4.081   7.028   3.872
  805TIP3    H1 2372   4.115   6.954   3.922
  805TIP3    H2 2373   4.154   7.056   3.817
  806TIP3   OH2 2374   6.170   6.273   6.462
  806TIP3    H1 2375   6.131   6.186   6.457
  806TIP3    H2 2376   6.234   6.266   6.533
  807TIP3   OH2 2377   1.076   3.300   5.695
  807TIP3    H1 2378   1.094   3.394   5.697
  807TIP3    H2 2379   1.142   3.262   5.753
  808TIP3   OH2 2380   6.496   3.962   5.419
  808TIP3    H1 2381   6.589   3.954   5.437
  808TIP3    H2 2382   6.454   3.960   5.505
  809TIP3   OH2 2383   1.094   7.463   5.524
  809TIP3    H1 2384   1.115   7.478   5.432
  809TIP3    H2 2385   1.064   7.548   5.556
  810TIP3   OH2 2386   0.073   7.307   0.657
  810TIP3    H1 2387   0.023   7.376   0.701
  810TIP3    H2 2388   0.034   7.300   0.570
  811TIP3   OH2 2389   3.410   7.212   0.923
  811TIP3    H1 2390   3.482   7.149   0.911
  811TIP3    H2 2391   3.428   7.253   1.007
  812TIP3   OH2 2392   3.051   1.208   3.829
  812TIP3    H1 2393   3.122   1.271   3.822
  812TIP3    H2 2394   2.971   1.260   3.820
  813TIP3   OH2 2395   2.510   3.053   6.507
  813TIP3    H1 2396   2.456   3.119   6.550
  813TIP3    H2 2397   2.575   3.103   6.458
  814TIP3   OH2 2398   6.359   2.704   0.613
  814TIP3    H1 2399   6.438   2.657   0.639
  814TIP3    H2 2400   6.344   2.679   0.522
  815TIP3   OH2 2401   2.734   0.308   2.200
  815TIP3    H1 2402   2.695   0.284   2.284
  815TIP3    H2 2403   2.815   0.258   2.196
  816TIP3   OH2 2404   3.893   7.248   6.234
  816TIP3    H1 2405   3.928   7.328   6.272
  816TIP3    H2 2406   3.845   7.277   6.157
  817TIP3   OH2 2407   2.756   6.187   6.561
  817TIP3    H1 2408   2.817   6.225   6.625
  817TIP3    H2 2409   2.672   6.226   6.582
  818TIP3   OH2 2410   4.993   5.183   2.665
  818TIP3    H1 2411   4.906   5.183   2.705
  818TIP3    H2 2412   4.979   5.144   2.579
  819TIP3   OH2 2413   4.265   5.328   3.943
  819TIP3    H1 2414   4.317   5.382   3.885
  819TIP3    H2 2415   4.260   5.377   4.025
  820TIP3   OH2 2416   2.763   2.423   6.651
  820TIP3    H1 2417   2.768   2.349   6.590
  820TIP3    H2 2418   2.679   2.413   6.696
  821TIP3   OH2 2419   6.094   4.900   4.079
  821TIP3    H1 2420   6.041   4.889   4.158
  821TIP3    H2 2421   6.128   4.989   4.085
  822TIP3   OH2 2422   1.130   2.681   5.603
  822TIP3    H1 2423   1.063   2.612   5.605
  822TIP3    H2 2424   1.106   2.736   5.529
  823TIP3   OH2 2425   0.521   2.054   2.157
  823TIP3    H1 2426   0.453   2.061   2.224
  823TIP3    H2 2427   0.492   2.112   2.087
  824TIP3   OH2 2428   4.918   6.186   5.589
  824TIP3    H1 2429   5.007   6.219   5.601
  824TIP3    H2 2430   4.871   6.214   5.668
  825TIP3   OH2 2431   2.459   4.463   2.649
  825TIP3    H1 2432   2.495   4.549   2.629
  825TIP3    H2 2433   2.518   4.401   2.606
  826TIP3   OH2 2434   1.423   5.882   3.444
  826TIP3    H1 2435   1.353   5.915   3.500
  826TIP3    H2 2436   1.400   5.790   3.428
  827TIP3   OH2 2437   0.539   7.147   2.532
  827TIP3    H1 2438   0.624   7.103   2.528
  827TIP3    H2 2439   0.559   7.240   2.536
  828TIP3   OH2 2440   3.568   3.908   6.302
  828TIP3    H1 2441   3.526   3.906   6.216
  828TIP3    H2 2442   3.531   3.985   6.346
  829TIP3   OH2 2443   1.910   2.062   6.424
  829TIP3    H1 2444   1.849   2.006   6.471
  829TIP3    H2 2445   1.859   2.141   6.404
  830TIP3   OH2 2446   0.051   2.720   5.130
  830TIP3    H1 2447   0.084   2.742   5.217
  830TIP3    H2 2448  -0.043   2.705   5.144
  831TIP3   OH2 2449   5.246   7.533   1.705
  831TIP3    H1 2450   5.160   7.516   1.743
  831TIP3    H2 2451   5.263   7.457   1.649
  832TIP3   OH2 2452   0.555   2.894   2.343
  832TIP3    H1 2453   0.590   2.807   2.325
  832TIP3    H2 2454   0.593   2.950   2.276
  833TIP3   OH2 2455   3.372   5.107   4.437
  833TIP3    H1 2456   3.449   5.133   4.487
  833TIP3    H2 2457   3.348   5.186   4.388
  834TIP3   OH2 2458   5.150   5.290   4.809
  834TIP3    H1 2459   5.108   5.332   4.884
  834TIP3    H2 2460   5.104   5.324   4.733
  835TIP3   OH2 2461   3.188   5.305   1.308
  835TIP3    H1 2462   3.104   5.337   1.276
  835TIP3    H2 2463   3.187   5.326   1.402
  836TIP3   OH2 2464   4.190   7.673   3.175
  836TIP3    H1 2465   4.164   7.763   3.155
  836TIP3    H2 2466   4.195   7.630   3.089
  837TIP3   OH2 2467   7.207   6.659   6.602
  837TIP3    H1 2468   7.200   6.655   6.507
  837TIP3    H2 2469   7.126   6.621   6.635
  838TIP3   OH2 2470   7.900   6.520   3.479
  838TIP3    H1 2471   7.852   6.461   3.537
  838TIP3    H2 2472   7.991   6.489   3.484
  839TIP3   OH2 2473   5.351   0.528   6.404
  839TIP3    H1 2474   5.372   0.448   6.452
  839TIP3    H2 2475   5.411   0.594   6.440
  840TIP3   OH2 2476   4.890   2.394   4.080
  840TIP3    H1 2477   4.973   2.380   4.126
  840TIP3    H2 2478   4.909   2.463   4.017
  841TIP3   OH2 2479   6.353   6.188   2.610
  841TIP3    H1 2480   6.348   6.158   2.519
  841TIP3    H2 2481   6.280   6.143   2.654
  842TIP3   OH2 2482   2.392   4.552   2.320
  842TIP3    H1 2483   2.430   4.531   2.405
  842TIP3    H2 2484   2.387   4.468   2.274
  843TIP3   OH2 2485   3.763   5.028   4.967
  843TIP3    H1 2486   3.680   5.063   4.935
  843TIP3    H2 2487   3.741   4.942   5.003
  844TIP3   OH2 2488   5.143   7.789   3.358
  844TIP3    H1 2489   5.062   7.760   3.317
  844TIP3    H2 2490   5.162   7.874   3.317
  845TIP3   OH2 2491   0.805   0.628   1.188
  845TIP3    H1 2492   0.757   0.664   1.113
  845TIP3    H2 2493   0.890   0.604   1.152
  846TIP3   OH2 2494   0.704   1.300   5.039
  846TIP3    H1 2495   0.719   1.217   5.085
  846TIP3    H2 2496   0.690   1.364   5.109
  847TIP3   OH2 2497   4.721   0.577   5.330
  847TIP3    H1 2498   4.627   0.584   5.311
  847TIP3    H2 2499   4.756   0.526   5.257
  848TIP3   OH2 2500   2.548   7.705   6.259
  848TIP3    H1 2501   2.591   7.790   6.254
  848TIP3    H2 2502   2.501   7.698   6.176
  849TIP3   OH2 2503   4.415   7.427   3.525
  849TIP3    H1 2504   4.422   7.343   3.478
  849TIP3    H2 2505   4.347   7.475   3.477
  850TIP3   OH2 2506   0.350   1.676   0.185
  850TIP3    H1 2507   0.417   1.613   0.158
  850TIP3    H2 2508   0.270   1.624   0.194
  851TIP3   OH2 2509   4.819   4.590   4.583
  851TIP3    H1 2510   4.814   4.673   4.632
  851TIP3    H2 2511   4.728   4.573   4.556
  852TIP3   OH2 2512   2.091   3.328   6.377
  852TIP3    H1 2513   2.010   3.358   6.335
  852TIP3    H2 2514   2.146   3.298   6.304
  853TIP3   OH2 2515   6.742   6.337   2.240
  853TIP3    H1 2516   6.703   6.263   2.195
  853TIP3    H2 2517   6.672   6.372   2.295
  854TIP3   OH2 2518   1.500   6.755   3.034
  854TIP3    H1 2519   1.508   6.663   3.060
  854TIP3    H2 2520   1.487   6.803   3.116
  855TIP3   OH2 2521   7.961   3.671   2.115
  855TIP3    H1 2522   7.969   3.576   2.100
  855TIP3    H2 2523   8.044   3.707   2.083
  856TIP3   OH2 2524   4.248   6.331   2.952
  856TIP3    H1 2525   4.256   6.348   3.045
  856TIP3    H2 2526   4.338   6.316   2.923
  857TIP3   OH2 2527   6.983   1.009   6.376
  857TIP3    H1 2528   6.974   0.914   6.377
  857TIP3    H2 2529   6.945   1.036   6.292
  858TIP3   OH2 2530   3.804   7.646   4.083
  858TIP3    H1 2531   3.711   7.637   4.063
  858TIP3    H2 2532   3.849   7.615   4.005
  859TIP3   OH2 2533   5.738   6.819   5.705
  859TIP3    H1 2534   5.755   6.904   5.664
  859TIP3    H2 2535   5.720   6.761   5.632
  860TIP3   OH2 2536   3.442   1.519   0.671
  860TIP3    H1 2537   3.431   1.436   0.718
  860TIP3    H2 2538   3.535   1.521   0.648
  861TIP3   OH2 2539   1.461   3.853   5.119
  861TIP3    H1 2540   1.458   3.775   5.063
  861TIP3    H2 2541   1.428   3.824   5.203
  862TIP3   OH2 2542   1.694   0.105   5.229
  862TIP3    H1 2543   1.710   0.199   5.243
  862TIP3    H2 2544   1.668   0.073   5.316
  863TIP3   OH2 2545   6.199   2.521   4.106
  863TIP3    H1 2546   6.252   2.548   4.181
  863TIP3    H2 2547   6.111   2.549   4.128
  864TIP3   OH2 2548   5.546   1.995   6.449
  864TIP3    H1 2549   5.457   2.021   6.471
  864TIP3    H2 2550   5.553   2.010   6.355
  865TIP3   OH2 2551   3.463   7.515   5.282
  865TIP3    H1 2552   3.487   7.452   5.215
  865TIP3    H2 2553   3.539   7.572   5.290
  866TIP3   OH2 2554   3.650   5.224   3.491
  866TIP3    H1 2555   3.639   5.250   3.583
  866TIP3    H2 2556   3.629   5.303   3.441
  867TIP3   OH2 2557   4.303   6.195   3.473
  867TIP3    H1 2558   4.285   6.229   3.385
  867TIP3    H2 2559   4.380   6.242   3.502
  868TIP3   OH2 2560   5.801   3.538   2.236
  868TIP3    H1 2561   5.784   3.500   2.150
  868TIP3    H2 2562   5.896   3.550   2.238
  869TIP3   OH2 2563   3.022   5.824   2.304
  869TIP3    H1 2564   3.071   5.890   2.255
  869TIP3    H2 2565   2.933   5.829   2.269
  870TIP3   OH2 2566   3.917   1.407   0.738
  870TIP3    H1 2567   4.007   1.439   0.733
  870TIP3    H2 2568   3.865   1.483   0.764
  871TIP3   OH2 2569   7.185   4.136   4.517
  871TIP3    H1 2570   7.213   4.219   4.557
  871TIP3    H2 2571   7.206   4.069   4.583
  872TIP3   OH2 2572   6.476   4.485   0.370
  872TIP3    H1 2573   6.538   4.517   0.436
  872TIP3    H2 2574   6.488   4.390   0.371
  873TIP3   OH2 2575   6.660   0.938   0.026
  873TIP3    H1 2576   6.663   0.845   0.049
  873TIP3    H2 2577   6.685   0.983   0.107
  874TIP3   OH2 2578   4.954   3.593   6.039
  874TIP3    H1 2579   5.046   3.589   6.069
  874TIP3    H2 2580   4.905   3.551   6.109
  875TIP3   OH2 2581   4.692   3.573   3.697
  875TIP3    H1 2582   4.700   3.485   3.660
  875TIP3    H2 2583   4.684   3.559   3.792
  876TIP3   OH2 2584   3.859   2.436   2.203
  876TIP3    H1 2585   3.766   2.449   2.186
  876TIP3    H2 2586   3.897   2.524   2.196
  877TIP3   OH2 2587   6.683   0.044   0.608
  877TIP3    H1 2588   6.702   0.091   0.689
  877TIP3    H2 2589   6.677  -0.048   0.635
  878TIP3   OH2 2590   4.756   6.382   2.878
  878TIP3    H1 2591   4.728   6.425   2.959
  878TIP3    H2 2592   4.797   6.452   2.828
  879TIP3   OH2 2593   6.581   5.806   4.284
  879TIP3    H1 2594   6.547   5.718   4.268
  879TIP3    H2 2595   6.655   5.815   4.224
  880TIP3   OH2 2596   3.504   5.498   3.603
  880TIP3    H1 2597   3.535   5.438   3.671
  880TIP3    H2 2598   3.420   5.461   3.575
  881TIP3   OH2 2599   5.255   3.815   2.387
  881TIP3    H1 2600   5.174   3.823   2.336
  881TIP3    H2 2601   5.325   3.820   2.322
  882TIP3   OH2 2602   8.195   6.869   4.321
  882TIP3    H1 2603   8.117   6.924   4.319
  882TIP3    H2 2604   8.239   6.887   4.238
  883TIP3   OH2 2605   0.273   6.462   1.651
  883TIP3    H1 2606   0.323   6.418   1.720
  883TIP3    H2 2607   0.182   6.439   1.670
  884TIP3   OH2 2608   8.153   7.456   4.906
  884TIP3    H1 2609   8.063   7.475   4.933
  884TIP3    H2 2610   8.151   7.364   4.881
  885TIP3   OH2 2611   7.651   4.532   4.541
  885TIP3    H1 2612   7.615   4.443   4.543
  885TIP3    H2 2613   7.607   4.578   4.612
  886TIP3   OH2 2614   6.100   5.491   4.594
  886TIP3    H1 2615   6.139   5.439   4.523
  886TIP3    H2 2616   6.152   5.468   4.671
  887TIP3   OH2 2617   0.722   0.526   3.323
  887TIP3    H1 2618   0.800   0.569   3.359
  887TIP3    H2 2619   0.684   0.479   3.397
  888TIP3   OH2 2620   6.953   4.565   2.026
  888TIP3    H1 2621   6.866   4.565   2.066
  888TIP3    H2 2622   7.013   4.572   2.101
  889TIP3   OH2 2623   6.185   3.419   3.931
  889TIP3    H1 2624   6.264   3.409   3.985
  889TIP3    H2 2625   6.218   3.426   3.841
  890TIP3   OH2 2626   5.107   5.351   5.065
  890TIP3    H1 2627   5.195   5.367   5.098
  890TIP3    H2 2628   5.057   5.323   5.141
  891TIP3   OH2 2629   1.542   4.780   2.522
  891TIP3    H1 2630   1.558   4.688   2.503
  891TIP3    H2 2631   1.529   4.820   2.436
  892TIP3   OH2 2632   3.665   6.635   1.370
  892TIP3    H1 2633   3.715   6.618   1.289
  892TIP3    H2 2634   3.577   6.657   1.340
  893TIP3   OH2 2635   6.687   5.761   1.489
  893TIP3    H1 2636   6.665   5.792   1.401
  893TIP3    H2 2637   6.747   5.688   1.473
  894TIP3   OH2 2638   7.022   6.118   4.089
  894TIP3    H1 2639   6.955   6.138   4.154
  894TIP3    H2 2640   6.976   6.067   4.023
  895TIP3   OH2 2641   4.732   3.462   5.230
  895TIP3    H1 2642   4.639   3.454   5.247
  895TIP3    H2 2643   4.774   3.436   5.312
  896TIP3   OH2 2644   1.834   7.102   4.877
  896TIP3    H1 2645   1.920   7.138   4.902
  896TIP3    H2 2646   1.788   7.091   4.960
  897TIP3   OH2 2647   4.596   1.875   4.264
  897TIP3    H1 2648   4.646   1.953   4.291
  897TIP3    H2 2649   4.505   1.905   4.262
  898TIP3   OH2 2650   4.847   7.387   3.887
  898TIP3    H1 2651   4.930   7.432   3.869
  898TIP3    H2 2652   4.838   7.323   3.815
  899TIP3   OH2 2653   2.279   3.605   5.257
  899TIP3    H1 2654   2.371   3.584   5.274
  899TIP3    H2 2655   2.281   3.695   5.224
  900TIP3   OH2 2656   0.379   2.784   3.529
  900TIP3    H1 2657   0.396   2.850   3.463
  900TIP3    H2 2658   0.462   2.737   3.538
  901TIP3   OH2 2659   8.167   6.554   1.261
  901TIP3    H1 2660   8.171   6.643   1.296
  901TIP3    H2 2661   8.244   6.510   1.296
  902TIP3   OH2 2662   1.965   3.962   6.221
  902TIP3    H1 2663   2.056   3.992   6.225
  902TIP3    H2 2664   1.923   4.021   6.159
  903TIP3   OH2 2665   4.371   3.106   1.264
  903TIP3    H1 2666   4.463   3.100   1.290
  903TIP3    H2 2667   4.365   3.052   1.185
  904TIP3   OH2 2668   0.488   1.236   4.806
  904TIP3    H1 2669   0.506   1.179   4.880
  904TIP3    H2 2670   0.506   1.324   4.839
  905TIP3   OH2 2671   2.741   1.697   5.593
  905TIP3    H1 2672   2.719   1.632   5.525
  905TIP3    H2 2673   2.774   1.772   5.544
  906TIP3   OH2 2674   5.881   0.644   5.354
  906TIP3    H1 2675   5.879   0.725   5.301
  906TIP3    H2 2676   5.862   0.673   5.443
  907TIP3   OH2 2677   7.203   6.077   4.415
  907TIP3    H1 2678   7.271   6.063   4.481
  907TIP3    H2 2679   7.243   6.052   4.332
  908TIP3   OH2 2680   6.815   0.209   6.277
  908TIP3    H1 2681   6.861   0.269   6.217
  908TIP3    H2 2682   6.806   0.259   6.358
  909TIP3   OH2 2683   8.178   4.140   4.733
  909TIP3    H1 2684   8.232   4.200   4.682
  909TIP3    H2 2685   8.123   4.096   4.668
  910TIP3   OH2 2686   2.957   4.329   5.281
  910TIP3    H1 2687   3.029   4.291   5.229
  910TIP3    H2 2688   2.930   4.406   5.230
  911TIP3   OH2 2689   0.875   4.099   5.454
  911TIP3    H1 2690   0.955   4.051   5.434
  911TIP3    H2 2691   0.890   4.186   5.416
  912TIP3   OH2 2692   8.138   0.508   4.610
  912TIP3    H1 2693   8.219   0.496   4.560
  912TIP3    H2 2694   8.133   0.429   4.665
  913TIP3   OH2 2695   3.307   6.687   4.912
  913TIP3    H1 2696   3.285   6.635   4.989
  913TIP3    H2 2697   3.224   6.701   4.867
  914TIP3   OH2 2698   5.131   5.899   0.907
  914TIP3    H1 2699   5.174   5.814   0.897
  914TIP3    H2 2700   5.181   5.958   0.850
  915TIP3   OH2 2701   7.196   5.264   6.534
  915TIP3    H1 2702   7.110   5.221   6.532
  915TIP3    H2 2703   7.175   5.357   6.525
  916TIP3   OH2 2704   2.956   3.099   5.164
  916TIP3    H1 2705   3.044   3.088   5.129
  916TIP3    H2 2706   2.902   3.120   5.087
  917TIP3   OH2 2707   6.396   1.695   1.571
  917TIP3    H1 2708   6.429   1.783   1.590
  917TIP3    H2 2709   6.426   1.642   1.645
  918TIP3   OH2 2710   4.518   6.231   3.659
  918TIP3    H1 2711   4.528   6.264   3.749
  918TIP3    H2 2712   4.574   6.154   3.655
  919TIP3   OH2 2713   6.541   5.858   5.412
  919TIP3    H1 2714   6.558   5.908   5.492
  919TIP3    H2 2715   6.520   5.925   5.346
  920TIP3   OH2 2716   3.366   2.382   4.491
  920TIP3    H1 2717   3.406   2.399   4.406
  920TIP3    H2 2718   3.335   2.292   4.485
  921TIP3   OH2 2719   7.940   6.734   0.128
  921TIP3    H1 2720   8.029   6.768   0.120
  921TIP3    H2 2721   7.929   6.677   0.052
  922TIP3   OH2 2722   1.505   5.390   3.342
  922TIP3    H1 2723   1.571   5.424   3.402
  922TIP3    H2 2724   1.430   5.449   3.352
  923TIP3   OH2 2725   5.123   3.368   2.833
  923TIP3    H1 2726   5.139   3.331   2.920
  923TIP3    H2 2727   5.046   3.424   2.844
  924TIP3   OH2 2728   0.040   3.818   2.866
  924TIP3    H1 2729   0.119   3.826   2.812
  924TIP3    H2 2730   0.038   3.899   2.917
  925TIP3   OH2 2731   4.502   5.836   1.525
  925TIP3    H1 2732   4.540   5.801   1.444
  925TIP3    H2 2733   4.569   5.819   1.591
  926TIP3   OH2 2734   0.609   0.721   4.488
  926TIP3    H1 2735   0.641   0.631   4.487
  926TIP3    H2 2736   0.525   0.717   4.444
  927TIP3   OH2 2737   3.900   7.224   5.095
  927TIP3    H1 2738   3.918   7.269   5.178
  927TIP3    H2 2739   3.975   7.244   5.040
  928TIP3   OH2 2740   4.595   1.480   6.159
  928TIP3    H1 2741   4.560   1.569   6.165
  928TIP3    H2 2742   4.518   1.424   6.160
  929TIP3   OH2 2743   3.167   6.475   4.348
  929TIP3    H1 2744   3.202   6.502   4.263
  929TIP3    H2 2745   3.223   6.519   4.412
  930TIP3   OH2 2746   5.509   3.384   3.389
  930TIP3    H1 2747   5.550   3.307   3.427
  930TIP3    H2 2748   5.544   3.457   3.439
  931TIP3   OH2 2749   6.750   6.973   4.427
  931TIP3    H1 2750   6.739   6.910   4.355
  931TIP3    H2 2751   6.662   6.985   4.462
  932TIP3   OH2 2752   3.371   1.030   4.913
  932TIP3    H1 2753   3.461   1.059   4.928
  932TIP3    H2 2754   3.379   0.958   4.851
  933TIP3   OH2 2755   3.151   1.581   5.925
  933TIP3    H1 2756   3.059   1.573   5.898
  933TIP3    H2 2757   3.182   1.660   5.881
  934TIP3   OH2 2758   8.249   3.709   0.100
  934TIP3    H1 2759   8.227   3.683   0.189
  934TIP3    H2 2760   8.344   3.700   0.095
  935TIP3   OH2 2761   4.862   2.117   1.021
  935TIP3    H1 2762   4.850   2.210   0.999
  935TIP3    H2 2763   4.833   2.110   1.112
  936TIP3   OH2 2764   3.218   0.592   4.401
  936TIP3    H1 2765   3.128   0.619   4.423
  936TIP3    H2 2766   3.209   0.503   4.368
  937TIP3   OH2 2767   8.317   6.701   5.797
  937TIP3    H1 2768   8.344   6.784   5.757
  937TIP3    H2 2769   8.231   6.683   5.758
  938TIP3   OH2 2770   4.155   5.480   5.398
  938TIP3    H1 2771   4.168   5.421   5.324
  938TIP3    H2 2772   4.110   5.425   5.463
  939TIP3   OH2 2773   6.931   6.589   2.764
  939TIP3    H1 2774   6.867   6.545   2.707
  939TIP3    H2 2775   7.016   6.566   2.726
  940TIP3   OH2 2776   4.796   2.872   2.112
  940TIP3    H1 2777   4.797   2.873   2.208
  940TIP3    H2 2778   4.722   2.928   2.089
  941TIP3   OH2 2779   6.112   6.492   0.100
  941TIP3    H1 2780   6.107   6.399   0.121
  941TIP3    H2 2781   6.081   6.498   0.010
  942TIP3   OH2 2782   3.387   4.697   2.183
  942TIP3    H1 2783   3.391   4.678   2.089
  942TIP3    H2 2784   3.470   4.738   2.203
  943TIP3   OH2 2785   3.413   3.265   6.649
  943TIP3    H1 2786   3.507   3.248   6.646
  943TIP3    H2 2787   3.405   3.360   6.657
  944TIP3   OH2 2788   5.025   7.358   1.465
  944TIP3    H1 2789   4.947   7.363   1.521
  944TIP3    H2 2790   5.059   7.270   1.479
  945TIP3   OH2 2791   7.843   5.760   4.850
  945TIP3    H1 2792   7.854   5.800   4.764
  945TIP3    H2 2793   7.930   5.728   4.872
  946TIP3   OH2 2794   2.977   6.108   4.202
  946TIP3    H1 2795   2.893   6.083   4.165
  946TIP3    H2 2796   3.038   6.105   4.128
  947TIP3   OH2 2797   1.861   3.912   0.655
  947TIP3    H1 2798   1.766   3.901   0.659
  947TIP3    H2 2799   1.876   4.003   0.681
  948TIP3   OH2 2800   4.804   7.260   5.761
  948TIP3    H1 2801   4.771   7.310   5.685
  948TIP3    H2 2802   4.774   7.170   5.745
  949TIP3   OH2 2803   6.305   0.145   1.490
  949TIP3    H1 2804   6.284   0.103   1.406
  949TIP3    H2 2805   6.354   0.079   1.538
  950TIP3   OH2 2806   7.103   4.748   5.371
  950TIP3    H1 2807   7.187   4.704   5.362
  950TIP3    H2 2808   7.044   4.683   5.409
  951TIP3   OH2 2809   5.416   3.686   6.362
  951TIP3    H1 2810   5.403   3.766   6.310
  951TIP3    H2 2811   5.484   3.710   6.425
  952TIP3   OH2 2812   1.999   1.257   6.333
  952TIP3    H1 2813   1.969   1.174   6.370
  952TIP3    H2 2814   2.094   1.255   6.342
  953TIP3   OH2 2815   3.252   5.843   5.871
  953TIP3    H1 2816   3.285   5.754   5.886
  953TIP3    H2 2817   3.301   5.874   5.795
  954TIP3   OH2 2818   1.176   3.679   6.088
  954TIP3    H1 2819   1.190   3.689   6.182
  954TIP3    H2 2820   1.086   3.708   6.074
  955TIP3   OH2 2821   4.497   1.723   2.961
  955TIP3    H1 2822   4.465   1.733   3.050
  955TIP3    H2 2823   4.521   1.630   2.954
  956TIP3   OH2 2824   3.793   0.786   0.003
  956TIP3    H1 2825   3.857   0.734   0.051
  956TIP3    H2 2826   3.725   0.806   0.067
  957TIP3   OH2 2827   7.670   4.514   2.893
  957TIP3    H1 2828   7.750   4.531   2.943
  957TIP3    H2 2829   7.620   4.595   2.899
  958TIP3   OH2 2830   7.266   4.620   6.632
  958TIP3    H1 2831   7.178   4.656   6.642
  958TIP3    H2 2832   7.323   4.681   6.679
  959TIP3   OH2 2833   3.929   0.471   5.576
  959TIP3    H1 2834   3.941   0.565   5.565
  959TIP3    H2 2835   4.017   0.438   5.597
  960TIP3   OH2 2836   3.517   2.073   0.487
  960TIP3    H1 2837   3.427   2.044   0.500
  960TIP3    H2 2838   3.552   2.086   0.575
  961TIP3   OH2 2839   1.451   7.057   5.349
  961TIP3    H1 2840   1.400   7.010   5.283
  961TIP3    H2 2841   1.521   6.996   5.373
  962TIP3   OH2 2842   4.598   6.208   0.042
  962TIP3    H1 2843   4.665   6.275   0.057
  962TIP3    H2 2844   4.553   6.200   0.126
  963TIP3   OH2 2845   3.837   6.236   3.886
  963TIP3    H1 2846   3.786   6.306   3.846
  963TIP3    H2 2847   3.907   6.281   3.933
  964TIP3   OH2 2848   6.559   3.613   0.685
  964TIP3    H1 2849   6.510   3.681   0.729
  964TIP3    H2 2850   6.536   3.532   0.731
  965TIP3   OH2 2851   0.165   4.669   5.382
  965TIP3    H1 2852   0.193   4.756   5.412
  965TIP3    H2 2853   0.149   4.681   5.289
  966TIP3   OH2 2854   6.912   3.191   2.887
  966TIP3    H1 2855   6.935   3.185   2.794
  966TIP3    H2 2856   6.951   3.274   2.916
  967TIP3   OH2 2857   8.071   4.312   4.932
  967TIP3    H1 2858   8.113   4.396   4.915
  967TIP3    H2 2859   8.101   4.256   4.860
  968TIP3   OH2 2860   7.052   2.140   6.200
  968TIP3    H1 2861   7.051   2.064   6.259
  968TIP3    H2 2862   7.138   2.179   6.213
  969TIP3   OH2 2863   1.715   1.841   0.376
  969TIP3    H1 2864   1.697   1.840   0.470
  969TIP3    H2 2865   1.726   1.749   0.353
  970TIP3   OH2 2866   4.040   6.621   6.715
  970TIP3    H1 2867   3.996   6.538   6.734
  970TIP3    H2 2868   3.971   6.687   6.722
  971TIP3   OH2 2869   0.400   6.567   2.846
  971TIP3    H1 2870   0.313   6.604   2.862
  971TIP3    H2 2871   0.402   6.549   2.752
  972TIP3   OH2 2872   1.600   3.594   6.164
  972TIP3    H1 2873   1.661   3.663   6.136
  972TIP3    H2 2874   1.514   3.624   6.135
  973TIP3   OH2 2875   7.452   3.538   2.605
  973TIP3    H1 2876   7.381   3.603   2.609
  973TIP3    H2 2877   7.522   3.575   2.659
  974TIP3   OH2 2878   7.634   6.440   0.844
  974TIP3    H1 2879   7.692   6.364   0.849
  974TIP3    H2 2880   7.655   6.481   0.761
  975TIP3   OH2 2881   5.548   1.108   0.985
  975TIP3    H1 2882   5.478   1.116   1.050
  975TIP3    H2 2883   5.625   1.143   1.029
  976TIP3   OH2 2884   2.725   3.547   0.898
  976TIP3    H1 2885   2.722   3.458   0.933
  976TIP3    H2 2886   2.650   3.590   0.938
  977TIP3   OH2 2887   3.027   5.175   2.819
  977TIP3    H1 2888   2.952   5.169   2.879
  977TIP3    H2 2889   2.989   5.203   2.736
  978TIP3   OH2 2890   4.895   0.737   3.697
  978TIP3    H1 2891   4.891   0.680   3.773
  978TIP3    H2 2892   4.989   0.742   3.676
  979TIP3   OH2 2893   7.920  -0.024   4.076
  979TIP3    H1 2894   7.940   0.050   4.017
  979TIP3    H2 2895   7.864   0.014   4.144
  980TIP3   OH2 2896   4.582   7.745   3.422
  980TIP3    H1 2897   4.594   7.699   3.339
  980TIP3    H2 2898   4.499   7.711   3.457
  981TIP3   OH2 2899   5.021   1.688   4.967
  981TIP3    H1 2900   5.059   1.769   4.932
  981TIP3    H2 2901   4.983   1.714   5.051
  982TIP3   OH2 2902   4.390   0.374   0.410
  982TIP3    H1 2903   4.318   0.315   0.435
  982TIP3    H2 2904   4.402   0.358   0.317
  983TIP3   OH2 2905   6.856   5.769   5.821
  983TIP3    H1 2906   6.800   5.763   5.898
  983TIP3    H2 2907   6.819   5.705   5.759
  984TIP3   OH2 2908   4.423   4.569   5.031
  984TIP3    H1 2909   4.450   4.623   4.957
  984TIP3    H2 2910   4.424   4.628   5.106
  985TIP3   OH2 2911   2.291   3.177   5.373
  985TIP3    H1 2912   2.339   3.094   5.366
  985TIP3    H2 2913   2.244   3.170   5.456
  986TIP3   OH2 2914   4.591   7.489   0.991
  986TIP3    H1 2915   4.643   7.554   0.944
  986TIP3    H2 2916   4.614   7.502   1.083
  987TIP3   OH2 2917   7.174   4.159   5.391
  987TIP3    H1 2918   7.141   4.177   5.303
  987TIP3    H2 2919   7.230   4.234   5.412
  988TIP3   OH2 2920   0.176   1.632   1.868
  988TIP3    H1 2921   0.093   1.612   1.911
  988TIP3    H2 2922   0.236   1.563   1.898
  989TIP3   OH2 2923   1.916   5.702   3.433
  989TIP3    H1 2924   1.975   5.768   3.470
  989TIP3    H2 2925   1.835   5.711   3.482
  990TIP3   OH2 2926   7.320   5.974   3.341
  990TIP3    H1 2927   7.278   5.949   3.423
  990TIP3    H2 2928   7.272   5.926   3.274
  991TIP3   OH2 2929   2.935   2.216   5.739
  991TIP3    H1 2930   2.948   2.245   5.649
  991TIP3    H2 2931   3.012   2.163   5.759
  992TIP3   OH2 2932   0.219   4.324   5.633
  992TIP3    H1 2933   0.290   4.343   5.572
  992TIP3    H2 2934   0.191   4.409   5.666
  993TIP3   OH2 2935   2.949   1.195   6.295
  993TIP3    H1 2936   2.916   1.277   6.257
  993TIP3    H2 2937   3.042   1.211   6.311
  994TIP3   OH2 2938   2.836   3.327   4.249
  994TIP3    H1 2939   2.845   3.302   4.341
  994TIP3    H2 2940   2.890   3.264   4.202
  995TIP3   OH2 2941   4.020   4.919   1.841
  995TIP3    H1 2942   4.102   4.968   1.850
  995TIP3    H2 2943   3.972   4.965   1.772
  996TIP3   OH2 2944   3.668   3.674   5.477
  996TIP3    H1 2945   3.632   3.709   5.396
  996TIP3    H2 2946   3.591   3.651   5.529
  997TIP3   OH2 2947   2.763   0.365   3.443
  997TIP3    H1 2948   2.854   0.340   3.428
  997TIP3    H2 2949   2.711   0.294   3.404
  998TIP3   OH2 2950   6.123   5.837   3.471
  998TIP3    H1 2951   6.198   5.811   3.525
  998TIP3    H2 2952   6.049   5.837   3.532
  999TIP3   OH2 2953   7.023   1.798   1.487
  999TIP3    H1 2954   7.105   1.815   1.533
  999TIP3    H2 2955   6.988   1.719   1.528
 1000TIP3   OH2 2956   1.371   4.757   0.647
 1000TIP3    H1 2957   1.364   4.704   0.726
 1000TIP3    H2 2958   1.305   4.722   0.588
 1001TIP3   OH2 2959   6.046   6.539   1.423
 1001TIP3    H1 2960   6.113   6.490   1.469
 1001TIP3    H2 2961   6.035   6.492   1.340
 1002TIP3   OH2 2962   5.228   5.314   3.529
 1002TIP3    H1 2963   5.276   5.246   3.482
 1002TIP3    H2 2964   5.270   5.319   3.615
 1003TIP3   OH2 2965   4.162   3.869   0.331
 1003TIP3    H1 2966   4.079   3.863   0.284
 1003TIP3    H2 2967   4.224   3.821   0.277
 1004TIP3   OH2 2968   4.766   6.982   0.721
 1004TIP3    H1 2969   4.861   6.990   0.728
 1004TIP3    H2 2970   4.732   7.033   0.795
 1005TIP3   OH2 2971   5.371   1.237   4.673
 1005TIP3    H1 2972   5.301   1.181   4.706
 1005TIP3    H2 2973   5.325   1.312   4.634
 1006TIP3   OH2 2974   5.263   6.110   4.884
 1006TIP3    H1 2975   5.256   6.088   4.791
 1006TIP3    H2 2976   5.309   6.193   4.886
 1007TIP3   OH2 2977   7.071   7.305   3.930
 1007TIP3    H1 2978   7.131   7.334   3.998
 1007TIP3    H2 2979   7.126   7.289   3.854
 1008TIP3   OH2 2980   2.474   3.069   2.848
 1008TIP3    H1 2981   2.482   3.082   2.942
 1008TIP3    H2 2982   2.382   3.045   2.835
 1009TIP3   OH2 2983   8.308   1.313   2.837
 1009TIP3    H1 2984   8.242   1.380   2.855
 1009TIP3    H2 2985   8.323   1.270   2.921
 1010TIP3   OH2 2986   1.375   2.755   2.880
 1010TIP3    H1 2987   1.282   2.738   2.893
 1010TIP3    H2 2988   1.419   2.679   2.918
 1011TIP3   OH2 2989   2.006   7.151   3.089
 1011TIP3    H1 2990   1.993   7.110   3.174
 1011TIP3    H2 2991   2.066   7.093   3.043
 1012TIP3   OH2 2992   5.799   0.406   5.642
 1012TIP3    H1 2993   5.817   0.321   5.682
 1012TIP3    H2 2994   5.886   0.439   5.618
 1013TIP3   OH2 2995   1.458   0.228   3.211
 1013TIP3    H1 2996   1.539   0.221   3.260
 1013TIP3    H2 2997   1.389   0.216   3.277
 1014TIP3   OH2 2998   4.037   0.949   2.452
 1014TIP3    H1 2999   4.128   0.923   2.463
 1014TIP3    H2 3000   3.988   0.889   2.507
 1015TIP3   OH2 3001   7.806   1.361   5.726
 1015TIP3    H1 3002   7.851   1.288   5.767
 1015TIP3    H2 3003   7.821   1.436   5.784
 1016TIP3   OH2 3004   1.981   5.472   0.128
 1016TIP3    H1 3005   1.917   5.416   0.171
 1016TIP3    H2 3006   1.970   5.558   0.169
 1017TIP3   OH2 3007   2.803   0.994   6.058
 1017TIP3    H1 3008   2.772   1.023   5.972
 1017TIP3    H2 3009   2.757   1.051   6.120
 1018TIP3   OH2 3010   2.910   6.087   1.301
 1018TIP3    H1 3011   2.886   6.010   1.353
 1018TIP3    H2 3012   2.997   6.111   1.332
 1019TIP3   OH2 3013   4.489   7.123   2.897
 1019TIP3    H1 3014   4.509   7.055   2.961
 1019TIP3    H2 3015   4.557   7.189   2.910
 1020TIP3   OH2 3016   1.859   3.022   3.627
 1020TIP3    H1 3017   1.846   2.927   3.616
 1020TIP3    H2 3018   1.778   3.053   3.668
 1021TIP3   OH2 3019   3.620   6.120   4.331
 1021TIP3    H1 3020   3.530   6.094   4.311
 1021TIP3    H2 3021   3.633   6.200   4.280
 1022TIP3   OH2 3022   4.431   4.020   5.963
 1022TIP3    H1 3023   4.454   3.927   5.965
 1022TIP3    H2 3024   4.512   4.065   5.938
 1023TIP3   OH2 3025   4.509   1.311   3.988
 1023TIP3    H1 3026   4.572   1.382   3.987
 1023TIP3    H2 3027   4.471   1.311   3.900
 1024TIP3   OH2 3028   6.429   0.666   0.142
 1024TIP3    H1 3029   6.518   0.653   0.109
 1024TIP3    H2 3030   6.439   0.727   0.215
 1025TIP3   OH2 3031   2.077   6.357   3.588
 1025TIP3    H1 3032   2.097   6.281   3.643
 1025TIP3    H2 3033   2.142   6.355   3.519
 1026TIP3   OH2 3034   7.343   3.068   4.168
 1026TIP3    H1 3035   7.380   3.004   4.107
 1026TIP3    H2 3036   7.258   3.030   4.193
 1027TIP3   OH2 3037   8.058   7.200   2.125
 1027TIP3    H1 3038   7.988   7.153   2.171
 1027TIP3    H2 3039   8.013   7.270   2.078
 1028TIP3   OH2 3040   8.252   3.860   1.143
 1028TIP3    H1 3041   8.296   3.775   1.146
 1028TIP3    H2 3042   8.180   3.848   1.082
 1029TIP3   OH2 3043   5.208   5.263   2.008
 1029TIP3    H1 3044   5.270   5.290   2.076
 1029TIP3    H2 3045   5.148   5.203   2.053
 1030TIP3   OH2 3046   7.443   1.849   4.140
 1030TIP3    H1 3047   7.426   1.755   4.127
 1030TIP3    H2 3048   7.399   1.892   4.067
 1031TIP3   OH2 3049   7.998   5.607   4.311
 1031TIP3    H1 3050   8.017   5.571   4.398
 1031TIP3    H2 3051   8.055   5.558   4.252
 1032TIP3   OH2 3052   3.089   1.781   3.667
 1032TIP3    H1 3053   3.029   1.714   3.634
 1032TIP3    H2 3054   3.033   1.847   3.707
 1033TIP3   OH2 3055   4.062   1.140   6.432
 1033TIP3    H1 3056   4.064   1.154   6.338
 1033TIP3    H2 3057   4.038   1.225   6.469
 1034TIP3   OH2 3058   1.093   0.462   3.085
 1034TIP3    H1 3059   1.101   0.399   3.157
 1034TIP3    H2 3060   1.067   0.543   3.128
 1035TIP3   OH2 3061   2.878   1.586   5.180
 1035TIP3    H1 3062   2.942   1.646   5.218
 1035TIP3    H2 3063   2.808   1.581   5.246
 1036TIP3   OH2 3064   6.133   0.922   4.587
 1036TIP3    H1 3065   6.223   0.939   4.559
 1036TIP3    H2 3066   6.101   1.006   4.619
 1037TIP3   OH2 3067   6.320   7.044   1.818
 1037TIP3    H1 3068   6.388   7.083   1.874
 1037TIP3    H2 3069   6.364   7.029   1.734
 1038TIP3   OH2 3070   0.896   4.166   3.975
 1038TIP3    H1 3071   0.977   4.115   3.972
 1038TIP3    H2 3072   0.836   4.114   4.029
 1039TIP3   OH2 3073   6.818   0.274   4.028
 1039TIP3    H1 3074   6.840   0.232   3.945
 1039TIP3    H2 3075   6.722   0.275   4.030
 1040TIP3   OH2 3076   5.038   4.060   2.835
 1040TIP3    H1 3077   5.082   3.977   2.856
 1040TIP3    H2 3078   5.095   4.103   2.772
 1041TIP3   OH2 3079   3.233   2.937   6.120
 1041TIP3    H1 3080   3.177   2.962   6.194
 1041TIP3    H2 3081   3.254   3.020   6.078
 1042TIP3   OH2 3082   4.866   5.520   4.692
 1042TIP3    H1 3083   4.844   5.575   4.767
 1042TIP3    H2 3084   4.802   5.449   4.695
 1043TIP3   OH2 3085   1.102   3.998   3.998
 1043TIP3    H1 3086   1.190   4.033   4.009
 1043TIP3    H2 3087   1.114   3.903   3.997
 1044TIP3   OH2 3088   2.663   5.670   3.325
 1044TIP3    H1 3089   2.602   5.732   3.285
 1044TIP3    H2 3090   2.628   5.656   3.413
 1045TIP3   OH2 3091   7.735   6.363   3.971
 1045TIP3    H1 3092   7.751   6.286   4.025
 1045TIP3    H2 3093   7.659   6.405   4.012
 1046TIP3   OH2 3094   0.797   2.520   3.638
 1046TIP3    H1 3095   0.727   2.475   3.684
 1046TIP3    H2 3096   0.776   2.613   3.647
 1047TIP3   OH2 3097   2.735   6.410   6.185
 1047TIP3    H1 3098   2.805   6.356   6.148
 1047TIP3    H2 3099   2.747   6.496   6.143
 1048TIP3   OH2 3100   2.244   7.331   4.343
 1048TIP3    H1 3101   2.172   7.361   4.287
 1048TIP3    H2 3102   2.219   7.358   4.431
 1049TIP3   OH2 3103   3.458   1.117   1.376
 1049TIP3    H1 3104   3.543   1.160   1.375
 1049TIP3    H2 3105   3.419   1.137   1.291
 1050TIP3   OH2 3106   4.711   4.193   6.665
 1050TIP3    H1 3107   4.655   4.172   6.590
 1050TIP3    H2 3108   4.735   4.285   6.653
 1051TIP3   OH2 3109   7.348   5.935   4.236
 1051TIP3    H1 3110   7.336   5.968   4.147
 1051TIP3    H2 3111   7.365   5.841   4.224
 1052TIP3   OH2 3112   6.422   2.099   3.511
 1052TIP3    H1 3113   6.385   2.174   3.558
 1052TIP3    H2 3114   6.365   2.087   3.436
 1053TIP3   OH2 3115   4.903   2.972   5.452
 1053TIP3    H1 3116   4.931   2.900   5.396
 1053TIP3    H2 3117   4.807   2.968   5.450
 1054TIP3   OH2 3118   4.659   4.906   4.956
 1054TIP3    H1 3119   4.711   4.941   4.884
 1054TIP3    H2 3120   4.721   4.851   5.005
 1055TIP3   OH2 3121   2.421   1.711   4.140
 1055TIP3    H1 3122   2.385   1.799   4.128
 1055TIP3    H2 3123   2.416   1.671   4.053
 1056TIP3   OH2 3124   3.476   5.395   6.022
 1056TIP3    H1 3125   3.485   5.388   5.927
 1056TIP3    H2 3126   3.468   5.489   6.039
 1057TIP3   OH2 3127   7.101   0.430   0.029
 1057TIP3    H1 3128   7.113   0.410  -0.063
 1057TIP3    H2 3129   7.107   0.345   0.073
 1058TIP3   OH2 3130   4.430   5.541   5.401
 1058TIP3    H1 3131   4.339   5.514   5.408
 1058TIP3    H2 3132   4.457   5.512   5.314
 1059TIP3   OH2 3133   3.253   5.546   4.702
 1059TIP3    H1 3134   3.268   5.583   4.789
 1059TIP3    H2 3135   3.242   5.622   4.646
 1060TIP3   OH2 3136   8.131   2.368   2.829
 1060TIP3    H1 3137   8.079   2.293   2.801
 1060TIP3    H2 3138   8.183   2.391   2.753
 1061TIP3   OH2 3139   5.418   1.400   5.577
 1061TIP3    H1 3140   5.363   1.335   5.620
 1061TIP3    H2 3141   5.406   1.383   5.484
 1062TIP3   OH2 3142   3.973   1.459   5.233
 1062TIP3    H1 3143   3.912   1.386   5.239
 1062TIP3    H2 3144   3.945   1.520   5.301
 1063TIP3   OH2 3145   5.034   2.251   2.751
 1063TIP3    H1 3146   4.991   2.307   2.815
 1063TIP3    H2 3147   4.988   2.167   2.758
 1064TIP3   OH2 3148   8.076   2.902   2.704
 1064TIP3    H1 3149   8.147   2.887   2.766
 1064TIP3    H2 3150   7.996   2.895   2.756
 1065TIP3   OH2 3151   0.390   0.677   0.610
 1065TIP3    H1 3152   0.383   0.588   0.646
 1065TIP3    H2 3153   0.300   0.711   0.613
 1066TIP3   OH2 3154   5.457   7.272   5.605
 1066TIP3    H1 3155   5.474   7.356   5.648
 1066TIP3    H2 3156   5.397   7.226   5.664
 1067TIP3   OH2 3157   0.365   4.732   1.549
 1067TIP3    H1 3158   0.425   4.804   1.571
 1067TIP3    H2 3159   0.278   4.766   1.571
 1068TIP3   OH2 3160   4.920   4.959   3.911
 1068TIP3    H1 3161   4.872   4.980   3.831
 1068TIP3    H2 3162   4.881   4.877   3.942
 1069TIP3   OH2 3163   4.537   6.609   1.925
 1069TIP3    H1 3164   4.518   6.566   2.009
 1069TIP3    H2 3165   4.631   6.599   1.914
 1070TIP3   OH2 3166   7.379   3.236   2.321
 1070TIP3    H1 3167   7.372   3.163   2.259
 1070TIP3    H2 3168   7.354   3.313   2.271
 1071TIP3   OH2 3169   7.813   5.190   4.030
 1071TIP3    H1 3170   7.760   5.251   3.979
 1071TIP3    H2 3171   7.785   5.103   4.001
 1072TIP3   OH2 3172   3.690   5.559   4.533
 1072TIP3    H1 3173   3.753   5.527   4.597
 1072TIP3    H2 3174   3.725   5.644   4.505
 1073TIP3   OH2 3175   5.876   4.245   0.871
 1073TIP3    H1 3176   5.964   4.274   0.895
 1073TIP3    H2 3177   5.870   4.264   0.777
 1074TIP3   OH2 3178   2.156   0.422   2.364
 1074TIP3    H1 3179   2.099   0.444   2.439
 1074TIP3    H2 3180   2.129   0.483   2.295
 1075TIP3   OH2 3181   0.708   1.136   5.846
 1075TIP3    H1 3182   0.795   1.154   5.881
 1075TIP3    H2 3183   0.655   1.211   5.874
 1076TIP3   OH2 3184   2.843   2.898   4.659
 1076TIP3    H1 3185   2.876   2.978   4.617
 1076TIP3    H2 3186   2.889   2.827   4.614
 1077TIP3   OH2 3187   3.652   3.114   1.856
 1077TIP3    H1 3188   3.579   3.071   1.811
 1077TIP3    H2 3189   3.731   3.079   1.814
 1078TIP3   OH2 3190   2.169   3.435   1.721
 1078TIP3    H1 3191   2.242   3.410   1.778
 1078TIP3    H2 3192   2.108   3.480   1.779
 1079TIP3   OH2 3193   6.085   1.117   5.495
 1079TIP3    H1 3194   5.991   1.128   5.507
 1079TIP3    H2 3195   6.121   1.206   5.501
 1080TIP3   OH2 3196   5.136   4.462   0.288
 1080TIP3    H1 3197   5.199   4.395   0.315
 1080TIP3    H2 3198   5.137   4.459   0.192
 1081TIP3   OH2 3199   0.249   6.659   0.024
 1081TIP3    H1 3200   0.258   6.675   0.118
 1081TIP3    H2 3201   0.210   6.571   0.018
 1082TIP3   OH2 3202   3.765   4.781   6.383
 1082TIP3    H1 3203   3.752   4.689   6.361
 1082TIP3    H2 3204   3.849   4.804   6.344
 1083TIP3   OH2 3205   5.575   7.151   3.143
 1083TIP3    H1 3206   5.518   7.222   3.111
 1083TIP3    H2 3207   5.584   7.092   3.068
 1084TIP3   OH2 3208   8.012   1.894   3.026
 1084TIP3    H1 3209   8.081   1.960   3.016
 1084TIP3    H2 3210   8.043   1.836   3.095
 1085TIP3   OH2 3211   2.482   2.317   3.713
 1085TIP3    H1 3212   2.514   2.386   3.771
 1085TIP3    H2 3213   2.561   2.277   3.676
 1086TIP3   OH2 3214   4.981   0.504   2.232
 1086TIP3    H1 3215   5.015   0.431   2.284
 1086TIP3    H2 3216   4.955   0.464   2.149
 1087TIP3   OH2 3217   7.836   5.169   4.329
 1087TIP3    H1 3218   7.789   5.190   4.248
 1087TIP3    H2 3219   7.925   5.147   4.300
 1088TIP3   OH2 3220   2.834   4.067   5.326
 1088TIP3    H1 3221   2.887   4.143   5.302
 1088TIP3    H2 3222   2.770   4.101   5.388
 1089TIP3   OH2 3223   0.522   0.884   1.165
 1089TIP3    H1 3224   0.506   0.790   1.171
 1089TIP3    H2 3225   0.435   0.923   1.165
 1090TIP3   OH2 3226   0.812   1.709   1.616
 1090TIP3    H1 3227   0.869   1.670   1.682
 1090TIP3    H2 3228   0.872   1.757   1.559
 1091TIP3   OH2 3229   2.205   0.761   2.376
 1091TIP3    H1 3230   2.229   0.849   2.405
 1091TIP3    H2 3231   2.239   0.704   2.444
 1092TIP3   OH2 3232   4.877   3.364   5.422
 1092TIP3    H1 3233   4.943   3.307   5.383
 1092TIP3    H2 3234   4.875   3.339   5.514
 1093TIP3   OH2 3235   6.313   4.412   5.238
 1093TIP3    H1 3236   6.318   4.317   5.251
 1093TIP3    H2 3237   6.255   4.422   5.163
 1094TIP3   OH2 3238   6.706   7.294   0.724
 1094TIP3    H1 3239   6.676   7.385   0.720
 1094TIP3    H2 3240   6.649   7.253   0.788
 1095TIP3   OH2 3241   4.474   2.019   3.141
 1095TIP3    H1 3242   4.414   1.947   3.121
 1095TIP3    H2 3243   4.448   2.089   3.080
 1096TIP3   OH2 3244   4.770   5.821   6.287
 1096TIP3    H1 3245   4.764   5.895   6.347
 1096TIP3    H2 3246   4.851   5.776   6.313
 1097TIP3   OH2 3247   3.738   2.998   0.012
 1097TIP3    H1 3248   3.787   3.074  -0.020
 1097TIP3    H2 3249   3.660   3.035   0.053
 1098TIP3   OH2 3250   6.951   3.246   3.239
 1098TIP3    H1 3251   6.980   3.172   3.186
 1098TIP3    H2 3252   6.995   3.322   3.201
 1099TIP3   OH2 3253   5.670   7.175   0.358
 1099TIP3    H1 3254   5.739   7.150   0.420
 1099TIP3    H2 3255   5.640   7.092   0.321
 1100TIP3   OH2 3256   7.929   7.727   3.394
 1100TIP3    H1 3257   7.923   7.700   3.485
 1100TIP3    H2 3258   8.020   7.753   3.383
 1101TIP3   OH2 3259   3.372   4.769   6.190
 1101TIP3    H1 3260   3.405   4.711   6.121
 1101TIP3    H2 3261   3.330   4.841   6.142
 1102TIP3   OH2 3262   5.036   4.939   3.324
 1102TIP3    H1 3263   5.099   4.902   3.386
 1102TIP3    H2 3264   5.016   4.868   3.264
 1103TIP3   OH2 3265   4.144   7.680   4.816
 1103TIP3    H1 3266   4.123   7.773   4.812
 1103TIP3    H2 3267   4.142   7.651   4.724
 1104TIP3   OH2 3268   5.723   7.028   4.424
 1104TIP3    H1 3269   5.743   7.041   4.331
 1104TIP3    H2 3270   5.642   6.979   4.424
 1105TIP3   OH2 3271   1.254   1.330   3.258
 1105TIP3    H1 3272   1.205   1.248   3.251
 1105TIP3    H2 3273   1.221   1.385   3.187
 1106TIP3   OH2 3274   0.206   3.146   3.467
 1106TIP3    H1 3275   0.197   3.164   3.561
 1106TIP3    H2 3276   0.298   3.164   3.448
 1107TIP3   OH2 3277   4.968   5.212   5.239
 1107TIP3    H1 3278   4.986   5.137   5.295
 1107TIP3    H2 3279   4.873   5.215   5.230
 1108TIP3   OH2 3280   5.969   0.916   2.886
 1108TIP3    H1 3281   5.960   0.822   2.906
 1108TIP3    H2 3282   6.062   0.929   2.870
 1109TIP3   OH2 3283   6.105   0.263   1.643
 1109TIP3    H1 3284   6.031   0.250   1.583
 1109TIP3    H2 3285   6.183   0.253   1.587
 1110TIP3   OH2 3286   1.405   7.143   4.256
 1110TIP3    H1 3287   1.478   7.168   4.313
 1110TIP3    H2 3288   1.358   7.076   4.306
 1111TIP3   OH2 3289   7.665   6.105   1.755
 1111TIP3    H1 3290   7.661   6.196   1.785
 1111TIP3    H2 3291   7.759   6.088   1.744
 1112TIP3   OH2 3292   0.477   7.403   5.274
 1112TIP3    H1 3293   0.451   7.406   5.182
 1112TIP3    H2 3294   0.455   7.314   5.303
 1113TIP3   OH2 3295   3.762   0.390   5.051
 1113TIP3    H1 3296   3.695   0.321   5.044
 1113TIP3    H2 3297   3.827   0.367   4.984
 1114TIP3   OH2 3298   0.992   1.923   4.330
 1114TIP3    H1 3299   1.082   1.906   4.301
 1114TIP3    H2 3300   0.941   1.926   4.249
 1115TIP3   OH2 3301   3.329   6.919   1.515
 1115TIP3    H1 3302   3.407   6.972   1.532
 1115TIP3    H2 3303   3.288   6.909   1.601
 1116TIP3   OH2 3304   5.825   7.071   0.577
 1116TIP3    H1 3305   5.890   7.046   0.644
 1116TIP3    H2 3306   5.753   7.009   0.589
 1117TIP3   OH2 3307   6.359   2.391   6.375
 1117TIP3    H1 3308   6.438   2.378   6.428
 1117TIP3    H2 3309   6.362   2.320   6.311
 1118TIP3   OH2 3310   4.554   3.601   2.514
 1118TIP3    H1 3311   4.512   3.520   2.485
 1118TIP3    H2 3312   4.513   3.620   2.599
 1119TIP3   OH2 3313   7.329   3.288   1.291
 1119TIP3    H1 3314   7.238   3.286   1.261
 1119TIP3    H2 3315   7.334   3.366   1.346
 1120TIP3   OH2 3316   1.503   7.253   0.057
 1120TIP3    H1 3317   1.490   7.311  -0.017
 1120TIP3    H2 3318   1.596   7.230   0.054
 1121TIP3   OH2 3319   6.345   7.749   4.825
 1121TIP3    H1 3320   6.356   7.661   4.861
 1121TIP3    H2 3321   6.421   7.761   4.768
 1122TIP3   OH2 3322   2.078   0.271   4.773
 1122TIP3    H1 3323   2.159   0.240   4.733
 1122TIP3    H2 3324   2.075   0.364   4.752
 1123TIP3   OH2 3325   5.782   2.452   5.872
 1123TIP3    H1 3326   5.770   2.389   5.943
 1123TIP3    H2 3327   5.753   2.405   5.794
 1124TIP3   OH2 3328   2.007   4.901   2.414
 1124TIP3    H1 3329   2.085   4.954   2.426
 1124TIP3    H2 3330   2.022   4.854   2.332
 1125TIP3   OH2 3331   2.088   0.990   5.597
 1125TIP3    H1 3332   2.124   0.950   5.517
 1125TIP3    H2 3333   2.156   1.050   5.626
 1126TIP3   OH2 3334   2.406   2.048   3.514
 1126TIP3    H1 3335   2.374   2.050   3.424
 1126TIP3    H2 3336   2.342   1.995   3.562
 1127TIP3   OH2 3337   1.864   0.939   2.713
 1127TIP3    H1 3338   1.827   1.024   2.688
 1127TIP3    H2 3339   1.815   0.875   2.661
 1128TIP3   OH2 3340   2.981   7.721   0.110
 1128TIP3    H1 3341   2.964   7.794   0.170
 1128TIP3    H2 3342   2.915   7.656   0.132
 1129TIP3   OH2 3343   8.089   0.448   3.827
 1129TIP3    H1 3344   8.107   0.487   3.913
 1129TIP3    H2 3345   8.104   0.519   3.765
 1130TIP3   OH2 3346   2.098   1.715   2.917
 1130TIP3    H1 3347   2.060   1.802   2.904
 1130TIP3    H2 3348   2.023   1.655   2.910
 1131TIP3   OH2 3349   0.731   3.125   5.184
 1131TIP3    H1 3350   0.711   3.032   5.173
 1131TIP3    H2 3351   0.727   3.161   5.095
 1132TIP3   OH2 3352   3.457   1.044   0.720
 1132TIP3    H1 3353   3.464   1.122   0.775
 1132TIP3    H2 3354   3.435   1.077   0.633
 1133TIP3   OH2 3355   5.325   5.491   3.259
 1133TIP3    H1 3356   5.231   5.478   3.272
 1133TIP3    H2 3357   5.365   5.454   3.338
 1134TIP3   OH2 3358   4.974   0.994   4.491
 1134TIP3    H1 3359   4.937   1.077   4.462
 1134TIP3    H2 3360   5.063   1.016   4.518
 1135TIP3   OH2 3361   4.260   1.488   5.307
 1135TIP3    H1 3362   4.234   1.571   5.347
 1135TIP3    H2 3363   4.180   1.457   5.264
 1136TIP3   OH2 3364   6.817   1.454   0.758
 1136TIP3    H1 3365   6.880   1.385   0.777
 1136TIP3    H2 3366   6.734   1.409   0.746
 1137TIP3   OH2 3367   7.259   5.071   0.439
 1137TIP3    H1 3368   7.279   4.981   0.413
 1137TIP3    H2 3369   7.335   5.099   0.489
 1138TIP3   OH2 3370   2.032   7.742   5.257
 1138TIP3    H1 3371   2.018   7.652   5.287
 1138TIP3    H2 3372   2.004   7.797   5.330
 1139TIP3   OH2 3373   2.354   7.550   5.010
 1139TIP3    H1 3374   2.348   7.477   4.948
 1139TIP3    H2 3375   2.391   7.622   4.959
 1140TIP3   OH2 3376   7.133   4.219   5.112
 1140TIP3    H1 3377   7.213   4.179   5.078
 1140TIP3    H2 3378   7.062   4.178   5.062
 1141TIP3   OH2 3379   2.504   6.921   1.704
 1141TIP3    H1 3380   2.451   6.933   1.782
 1141TIP3    H2 3381   2.527   7.009   1.676
 1142TIP3   OH2 3382   0.371   6.269   2.905
 1142TIP3    H1 3383   0.367   6.215   2.826
 1142TIP3    H2 3384   0.296   6.327   2.898
 1143TIP3   OH2 3385   0.741   5.796   2.815
 1143TIP3    H1 3386   0.683   5.778   2.741
 1143TIP3    H2 3387   0.769   5.886   2.803
 1144TIP3   OH2 3388   7.815   2.669   2.930
 1144TIP3    H1 3389   7.764   2.684   2.850
 1144TIP3    H2 3390   7.881   2.604   2.905
 1145TIP3   OH2 3391   3.939   0.782   1.855
 1145TIP3    H1 3392   4.015   0.731   1.884
 1145TIP3    H2 3393   3.864   0.740   1.897
 1146TIP3   OH2 3394   1.989   3.232   1.917
 1146TIP3    H1 3395   1.914   3.210   1.973
 1146TIP3    H2 3396   2.015   3.319   1.946
 1147TIP3   OH2 3397   4.658   3.020   3.223
 1147TIP3    H1 3398   4.673   2.978   3.137
 1147TIP3    H2 3399   4.563   3.029   3.229
 1148TIP3   OH2 3400   4.037   1.953   5.197
 1148TIP3    H1 3401   4.049   1.950   5.292
 1148TIP3    H2 3402   4.059   2.043   5.173
 1149TIP3   OH2 3403   6.315   5.153   0.161
 1149TIP3    H1 3404   6.245   5.190   0.215
 1149TIP3    H2 3405   6.298   5.058   0.163
 1150TIP3   OH2 3406   0.195   6.023   1.298
 1150TIP3    H1 3407   0.242   6.077   1.235
 1150TIP3    H2 3408   0.111   6.067   1.310
 1151TIP3   OH2 3409   7.545   0.728   1.958
 1151TIP3    H1 3410   7.628   0.766   1.931
 1151TIP3    H2 3411   7.486   0.803   1.965
 1152TIP3   OH2 3412   3.414   0.674   1.182
 1152TIP3    H1 3413   3.467   0.731   1.238
 1152TIP3    H2 3414   3.351   0.733   1.142
 1153TIP3   OH2 3415   1.054   7.026   0.085
 1153TIP3    H1 3416   0.996   6.953   0.109
 1153TIP3    H2 3417   1.140   6.986   0.079
 1154TIP3   OH2 3418   6.942   3.131   6.267
 1154TIP3    H1 3419   6.949   3.043   6.231
 1154TIP3    H2 3420   6.889   3.122   6.346
 1155TIP3   OH2 3421   1.945   7.264   1.181
 1155TIP3    H1 3422   1.943   7.278   1.276
 1155TIP3    H2 3423   2.035   7.237   1.163
 1156TIP3   OH2 3424   8.142   4.005   6.164
 1156TIP3    H1 3425   8.080   3.935   6.145
 1156TIP3    H2 3426   8.117   4.075   6.103
 1157TIP3   OH2 3427   0.376   2.364   4.627
 1157TIP3    H1 3428   0.469   2.381   4.610
 1157TIP3    H2 3429   0.371   2.268   4.634
 1158TIP3   OH2 3430   1.525   1.010   2.588
 1158TIP3    H1 3431   1.588   1.012   2.517
 1158TIP3    H2 3432   1.558   1.074   2.651
 1159TIP3   OH2 3433   0.308   5.942   0.313
 1159TIP3    H1 3434   0.347   5.875   0.369
 1159TIP3    H2 3435   0.248   5.894   0.256
 1160TIP3   OH2 3436   2.921   2.771   1.138
 1160TIP3    H1 3437   3.002   2.737   1.099
 1160TIP3    H2 3438   2.938   2.864   1.152
 1161TIP3   OH2 3439   6.967   6.986   3.934
 1161TIP3    H1 3440   6.872   6.982   3.918
 1161TIP3    H2 3441   6.984   7.078   3.955
 1162TIP3   OH2 3442   5.742   1.837   4.028
 1162TIP3    H1 3443   5.798   1.904   3.990
 1162TIP3    H2 3444   5.768   1.834   4.121
 1163TIP3   OH2 3445   5.896   2.414   6.697
 1163TIP3    H1 3446   5.954   2.474   6.649
 1163TIP3    H2 3447   5.808   2.447   6.680
 1164TIP3   OH2 3448   0.552   1.784   1.572
 1164TIP3    H1 3449   0.635   1.783   1.621
 1164TIP3    H2 3450   0.574   1.742   1.489
 1165TIP3   OH2 3451   3.610   1.643   2.547
 1165TIP3    H1 3452   3.675   1.712   2.560
 1165TIP3    H2 3453   3.543   1.661   2.613
 1166TIP3   OH2 3454   3.125   3.925   0.061
 1166TIP3    H1 3455   3.108   4.012   0.096
 1166TIP3    H2 3456   3.039   3.881   0.065
 1167TIP3   OH2 3457   5.553   4.235   2.733
 1167TIP3    H1 3458   5.631   4.207   2.782
 1167TIP3    H2 3459   5.547   4.173   2.661
 1168TIP3   OH2 3460   0.409   0.073   2.105
 1168TIP3    H1 3461   0.490   0.031   2.131
 1168TIP3    H2 3462   0.365   0.095   2.187
 1169TIP3   OH2 3463   7.768   0.343   2.586
 1169TIP3    H1 3464   7.720   0.263   2.565
 1169TIP3    H2 3465   7.703   0.412   2.581
 1170TIP3   OH2 3466   2.749   4.713   0.297
 1170TIP3    H1 3467   2.664   4.710   0.341
 1170TIP3    H2 3468   2.811   4.680   0.362
 1171TIP3   OH2 3469   4.864   6.949   2.909
 1171TIP3    H1 3470   4.895   6.921   2.823
 1171TIP3    H2 3471   4.940   6.940   2.966
 1172TIP3   OH2 3472   5.029   2.066   5.628
 1172TIP3    H1 3473   5.087   2.091   5.556
 1172TIP3    H2 3474   5.009   1.974   5.612
 1173TIP3   OH2 3475   3.417   3.603   2.272
 1173TIP3    H1 3476   3.481   3.603   2.200
 1173TIP3    H2 3477   3.394   3.511   2.284
 1174TIP3   OH2 3478   0.655   4.021   2.808
 1174TIP3    H1 3479   0.634   4.044   2.898
 1174TIP3    H2 3480   0.570   4.000   2.768
 1175TIP3   OH2 3481   1.831   3.317   4.491
 1175TIP3    H1 3482   1.742   3.300   4.521
 1175TIP3    H2 3483   1.824   3.326   4.396
 1176TIP3   OH2 3484   0.630   5.547   4.617
 1176TIP3    H1 3485   0.700   5.612   4.628
 1176TIP3    H2 3486   0.650   5.505   4.533
 1177TIP3   OH2 3487   1.799   4.383   2.430
 1177TIP3    H1 3488   1.872   4.445   2.427
 1177TIP3    H2 3489   1.737   4.423   2.491
 1178TIP3   OH2 3490   5.723   2.704   0.880
 1178TIP3    H1 3491   5.800   2.759   0.866
 1178TIP3    H2 3492   5.648   2.760   0.859
 1179TIP3   OH2 3493   5.618   2.444   5.240
 1179TIP3    H1 3494   5.621   2.419   5.332
 1179TIP3    H2 3495   5.709   2.467   5.219
 1180TIP3   OH2 3496   5.246   2.205   6.225
 1180TIP3    H1 3497   5.262   2.164   6.310
 1180TIP3    H2 3498   5.164   2.252   6.236
 1181TIP3   OH2 3499   7.487   5.130   1.782
 1181TIP3    H1 3500   7.402   5.087   1.766
 1181TIP3    H2 3501   7.551   5.060   1.770
 1182TIP3   OH2 3502   3.016   3.496   1.369
 1182TIP3    H1 3503   3.030   3.590   1.355
 1182TIP3    H2 3504   3.063   3.477   1.450
 1183TIP3   OH2 3505   3.410   3.969   1.800
 1183TIP3    H1 3506   3.464   3.996   1.726
 1183TIP3    H2 3507   3.472   3.929   1.861
 1184TIP3   OH2 3508   1.340   1.941   6.274
 1184TIP3    H1 3509   1.403   2.000   6.232
 1184TIP3    H2 3510   1.338   1.968   6.365
 1185TIP3   OH2 3511   5.967   7.677   2.712
 1185TIP3    H1 3512   5.893   7.642   2.762
 1185TIP3    H2 3513   6.042   7.625   2.739
 1186TIP3   OH2 3514   5.314   0.289   4.984
 1186TIP3    H1 3515   5.328   0.283   4.890
 1186TIP3    H2 3516   5.358   0.212   5.020
 1187TIP3   OH2 3517   3.644   1.242   2.108
 1187TIP3    H1 3518   3.564   1.204   2.072
 1187TIP3    H2 3519   3.626   1.250   2.202
 1188TIP3   OH2 3520   0.102   2.924   4.675
 1188TIP3    H1 3521   0.088   2.894   4.585
 1188TIP3    H2 3522   0.049   2.866   4.729
 1189TIP3   OH2 3523   2.918   0.638   0.523
 1189TIP3    H1 3524   2.875   0.691   0.456
 1189TIP3    H2 3525   2.902   0.685   0.605
 1190TIP3   OH2 3526   6.712   1.773   3.783
 1190TIP3    H1 3527   6.655   1.848   3.765
 1190TIP3    H2 3528   6.800   1.811   3.788
 1191TIP3   OH2 3529   4.964   1.617   0.388
 1191TIP3    H1 3530   4.881   1.633   0.433
 1191TIP3    H2 3531   4.984   1.700   0.346
 1192TIP3   OH2 3532   4.825   4.850   0.611
 1192TIP3    H1 3533   4.832   4.864   0.705
 1192TIP3    H2 3534   4.823   4.938   0.573
 1193TIP3   OH2 3535   2.149   5.907   0.437
 1193TIP3    H1 3536   2.057   5.919   0.412
 1193TIP3    H2 3537   2.189   5.865   0.361
 1194TIP3   OH2 3538   7.193   7.690   0.566
 1194TIP3    H1 3539   7.222   7.601   0.585
 1194TIP3    H2 3540   7.116   7.678   0.510
 1195TIP3   OH2 3541   6.068   7.813   6.448
 1195TIP3    H1 3542   6.070   7.717   6.440
 1195TIP3    H2 3543   6.086   7.829   6.541
 1196TIP3   OH2 3544   1.433   6.719   0.255
 1196TIP3    H1 3545   1.392   6.794   0.213
 1196TIP3    H2 3546   1.521   6.749   0.277
 1197TIP3   OH2 3547   3.802   7.427   4.302
 1197TIP3    H1 3548   3.720   7.381   4.285
 1197TIP3    H2 3549   3.789   7.514   4.265
 1198TIP3   OH2 3550   2.542   0.228   5.702
 1198TIP3    H1 3551   2.526   0.152   5.758
 1198TIP3    H2 3552   2.494   0.299   5.745
 1199TIP3   OH2 3553   3.836   0.354   4.616
 1199TIP3    H1 3554   3.796   0.291   4.555
 1199TIP3    H2 3555   3.780   0.432   4.610
 1200TIP3   OH2 3556   1.299   5.750   4.584
 1200TIP3    H1 3557   1.390   5.728   4.564
 1200TIP3    H2 3558   1.283   5.832   4.536
 1201TIP3   OH2 3559   5.294   0.751   6.562
 1201TIP3    H1 3560   5.284   0.727   6.654
 1201TIP3    H2 3561   5.226   0.817   6.546
 1202TIP3   OH2 3562   2.554   2.711   6.626
 1202TIP3    H1 3563   2.646   2.735   6.620
 1202TIP3    H2 3564   2.555   2.616   6.639
 1203TIP3   OH2 3565   7.929   4.783   2.178
 1203TIP3    H1 3566   7.945   4.840   2.253
 1203TIP3    H2 3567   8.007   4.728   2.173
 1204TIP3   OH2 3568   2.800   7.385   6.622
 1204TIP3    H1 3569   2.718   7.400   6.668
 1204TIP3    H2 3570   2.775   7.341   6.541
 1205TIP3   OH2 3571   5.755   4.541   0.159
 1205TIP3    H1 3572   5.675   4.540   0.106
 1205TIP3    H2 3573   5.814   4.480   0.114
 1206TIP3   OH2 3574   4.419   0.460   3.161
 1206TIP3    H1 3575   4.503   0.483   3.199
 1206TIP3    H2 3576   4.416   0.364   3.166
 1207TIP3   OH2 3577   0.676   3.320   6.005
 1207TIP3    H1 3578   0.723   3.288   5.928
 1207TIP3    H2 3579   0.617   3.387   5.972
 1208TIP3   OH2 3580   6.638   2.571   3.953
 1208TIP3    H1 3581   6.610   2.660   3.975
 1208TIP3    H2 3582   6.653   2.530   4.038
 1209TIP3   OH2 3583   2.674   5.300   0.030
 1209TIP3    H1 3584   2.596   5.255   0.063
 1209TIP3    H2 3585   2.695   5.363   0.098
 1210TIP3   OH2 3586   6.826   3.424   2.045
 1210TIP3    H1 3587   6.870   3.343   2.071
 1210TIP3    H2 3588   6.897   3.485   2.024
 1211TIP3   OH2 3589   4.316   6.357   1.291
 1211TIP3    H1 3590   4.356   6.305   1.222
 1211TIP3    H2 3591   4.329   6.448   1.265
 1212TIP3   OH2 3592   7.015   7.706   0.838
 1212TIP3    H1 3593   6.979   7.792   0.818
 1212TIP3    H2 3594   7.072   7.686   0.763
 1213TIP3   OH2 3595   3.391   4.324   0.058
 1213TIP3    H1 3596   3.484   4.321   0.079
 1213TIP3    H2 3597   3.385   4.288  -0.031
 1214TIP3   OH2 3598   6.381   6.289   1.798
 1214TIP3    H1 3599   6.327   6.307   1.721
 1214TIP3    H2 3600   6.332   6.327   1.871
 1215TIP3   OH2 3601   1.914   3.578   6.664
 1215TIP3    H1 3602   1.864   3.498   6.683
 1215TIP3    H2 3603   2.002   3.548   6.643
 1216TIP3   OH2 3604   6.549   1.593   1.961
 1216TIP3    H1 3605   6.601   1.648   1.904
 1216TIP3    H2 3606   6.581   1.613   2.049
 1217TIP3   OH2 3607   3.181   5.767   1.271
 1217TIP3    H1 3608   3.236   5.692   1.249
 1217TIP3    H2 3609   3.165   5.759   1.365
 1218TIP3   OH2 3610   4.287   6.035   0.957
 1218TIP3    H1 3611   4.278   6.127   0.932
 1218TIP3    H2 3612   4.362   6.003   0.906
 1219TIP3   OH2 3613   4.987   1.517   1.116
 1219TIP3    H1 3614   4.968   1.453   1.047
 1219TIP3    H2 3615   5.080   1.504   1.136
 1220TIP3   OH2 3616   1.697   3.507   3.383
 1220TIP3    H1 3617   1.650   3.590   3.379
 1220TIP3    H2 3618   1.777   3.523   3.333
 1221TIP3   OH2 3619   3.562   2.656   4.618
 1221TIP3    H1 3620   3.579   2.711   4.694
 1221TIP3    H2 3621   3.634   2.594   4.616
 1222TIP3   OH2 3622   3.814   6.719   0.587
 1222TIP3    H1 3623   3.838   6.807   0.558
 1222TIP3    H2 3624   3.769   6.680   0.512
 1223TIP3   OH2 3625   5.101   5.168   5.622
 1223TIP3    H1 3626   5.119   5.259   5.598
 1223TIP3    H2 3627   5.110   5.167   5.717
 1224TIP3   OH2 3628   1.934   1.865   6.187
 1224TIP3    H1 3629   1.939   1.789   6.244
 1224TIP3    H2 3630   1.911   1.937   6.246
 1225TIP3   OH2 3631   3.854   1.071   1.060
 1225TIP3    H1 3632   3.879   0.994   1.008
 1225TIP3    H2 3633   3.795   1.036   1.127
 1226TIP3   OH2 3634   6.616   5.703   2.780
 1226TIP3    H1 3635   6.650   5.661   2.702
 1226TIP3    H2 3636   6.689   5.755   2.814
 1227TIP3   OH2 3637   3.380   4.287   1.389
 1227TIP3    H1 3638   3.426   4.246   1.316
 1227TIP3    H2 3639   3.297   4.316   1.352
 1228TIP3   OH2 3640   1.371   4.684   6.296
 1228TIP3    H1 3641   1.459   4.701   6.331
 1228TIP3    H2 3642   1.351   4.595   6.324
 1229TIP3   OH2 3643   3.384   6.971   2.844
 1229TIP3    H1 3644   3.385   6.881   2.812
 1229TIP3    H2 3645   3.303   6.979   2.894
 1230TIP3   OH2 3646   5.522   6.240   3.604
 1230TIP3    H1 3647   5.514   6.307   3.672
 1230TIP3    H2 3648   5.438   6.242   3.558
 1231TIP3   OH2 3649   7.159   1.973   2.569
 1231TIP3    H1 3650   7.111   1.965   2.652
 1231TIP3    H2 3651   7.093   2.003   2.507
 1232TIP3   OH2 3652   4.893   6.961   5.592
 1232TIP3    H1 3653   4.960   7.013   5.636
 1232TIP3    H2 3654   4.817   6.967   5.649
 1233TIP3   OH2 3655   7.025   6.638   0.569
 1233TIP3    H1 3656   7.068   6.591   0.640
 1233TIP3    H2 3657   7.081   6.623   0.492
 1234TIP3   OH2 3658   6.945   0.620   4.322
 1234TIP3    H1 3659   6.896   0.553   4.272
 1234TIP3    H2 3660   7.014   0.571   4.366
 1235TIP3   OH2 3661   2.547   1.008   2.647
 1235TIP3    H1 3662   2.635   1.019   2.684
 1235TIP3    H2 3663   2.496   0.972   2.719
 1236TIP3   OH2 3664   7.588   7.245   4.804
 1236TIP3    H1 3665   7.683   7.253   4.794
 1236TIP3    H2 3666   7.565   7.309   4.871
 1237TIP3   OH2 3667   1.650   1.625   1.944
 1237TIP3    H1 3668   1.611   1.538   1.944
 1237TIP3    H2 3669   1.735   1.613   1.985
 1238TIP3   OH2 3670   6.874   0.928   5.864
 1238TIP3    H1 3671   6.834   0.852   5.820
 1238TIP3    H2 3672   6.942   0.891   5.919
 1239TIP3   OH2 3673   5.791   3.757   3.954
 1239TIP3    H1 3674   5.717   3.696   3.959
 1239TIP3    H2 3675   5.806   3.768   3.860
 1240TIP3   OH2 3676   6.275   1.519   4.805
 1240TIP3    H1 3677   6.200   1.538   4.749
 1240TIP3    H2 3678   6.351   1.542   4.752
 1241TIP3   OH2 3679   0.319   2.519   1.344
 1241TIP3    H1 3680   0.250   2.473   1.393
 1241TIP3    H2 3681   0.315   2.483   1.256
 1242TIP3   OH2 3682   7.347   6.446   2.731
 1242TIP3    H1 3683   7.317   6.435   2.822
 1242TIP3    H2 3684   7.276   6.409   2.678
 1243TIP3   OH2 3685   8.005   6.191   1.400
 1243TIP3    H1 3686   8.071   6.122   1.393
 1243TIP3    H2 3687   7.923   6.150   1.372
 1244TIP3   OH2 3688   7.167   2.384   1.247
 1244TIP3    H1 3689   7.237   2.319   1.241
 1244TIP3    H2 3690   7.129   2.370   1.334
 1245TIP3   OH2 3691   4.382   1.887   2.216
 1245TIP3    H1 3692   4.445   1.821   2.248
 1245TIP3    H2 3693   4.297   1.855   2.245
 1246TIP3   OH2 3694   5.815   0.961   6.409
 1246TIP3    H1 3695   5.787   0.880   6.365
 1246TIP3    H2 3696   5.874   1.003   6.347
 1247TIP3   OH2 3697   3.867   6.501   1.758
 1247TIP3    H1 3698   3.830   6.452   1.831
 1247TIP3    H2 3699   3.804   6.489   1.687
 1248TIP3   OH2 3700   0.023   4.405   4.099
 1248TIP3    H1 3701   0.113   4.428   4.076
 1248TIP3    H2 3702  -0.027   4.485   4.086
 1249TIP3   OH2 3703   2.613   0.788   5.580
 1249TIP3    H1 3704   2.636   0.875   5.613
 1249TIP3    H2 3705   2.669   0.728   5.630
 1250TIP3   OH2 3706   7.201   3.082   3.861
 1250TIP3    H1 3707   7.240   3.117   3.941
 1250TIP3    H2 3708   7.163   3.158   3.817
 1251TIP3   OH2 3709   7.017   3.149   5.424
 1251TIP3    H1 3710   7.030   3.233   5.468
 1251TIP3    H2 3711   7.017   3.085   5.495
 1252TIP3   OH2 3712   0.894   2.487   5.267
 1252TIP3    H1 3713   0.866   2.450   5.351
 1252TIP3    H2 3714   0.990   2.486   5.271
 1253TIP3   OH2 3715   0.807   5.736   0.291
 1253TIP3    H1 3716   0.846   5.794   0.225
 1253TIP3    H2 3717   0.727   5.703   0.249
 1254TIP3   OH2 3718   0.913   2.345   5.743
 1254TIP3    H1 3719   0.873   2.304   5.820
 1254TIP3    H2 3720   1.007   2.349   5.764
 1255TIP3   OH2 3721   5.552   3.862   2.370
 1255TIP3    H1 3722   5.571   3.841   2.279
 1255TIP3    H2 3723   5.592   3.948   2.384
 1256TIP3   OH2 3724   4.761   7.557   4.859
 1256TIP3    H1 3725   4.845   7.513   4.850
 1256TIP3    H2 3726   4.715   7.539   4.777
 1257TIP3   OH2 3727   5.575   3.423   6.597
 1257TIP3    H1 3728   5.516   3.412   6.523
 1257TIP3    H2 3729   5.573   3.516   6.617
 1258TIP3   OH2 3730   6.132   5.812   6.334
 1258TIP3    H1 3731   6.158   5.876   6.401
 1258TIP3    H2 3732   6.042   5.788   6.356
 1259TIP3   OH2 3733   7.129   2.106   3.681
 1259TIP3    H1 3734   7.211   2.143   3.714
 1259TIP3    H2 3735   7.156   2.033   3.626
 1260TIP3   OH2 3736   0.881   0.811   1.414
 1260TIP3    H1 3737   0.822   0.747   1.373
 1260TIP3    H2 3738   0.900   0.774   1.500
 1261TIP3   OH2 3739   6.973   5.802   1.287
 1261TIP3    H1 3740   7.054   5.798   1.236
 1261TIP3    H2 3741   6.949   5.710   1.300
 1262TIP3   OH2 3742   3.986   2.744   6.355
 1262TIP3    H1 3743   3.972   2.773   6.446
 1262TIP3    H2 3744   4.052   2.804   6.320
 1263TIP3   OH2 3745   7.993   7.096   6.419
 1263TIP3    H1 3746   7.921   7.111   6.480
 1263TIP3    H2 3747   7.995   7.002   6.407
 1264TIP3   OH2 3748   4.664   4.593   2.157
 1264TIP3    H1 3749   4.588   4.632   2.200
 1264TIP3    H2 3750   4.738   4.646   2.186
 1265TIP3   OH2 3751   6.282   5.265   1.619
 1265TIP3    H1 3752   6.200   5.245   1.575
 1265TIP3    H2 3753   6.272   5.228   1.707
 1266TIP3   OH2 3754   7.901   7.523   4.311
 1266TIP3    H1 3755   7.943   7.599   4.272
 1266TIP3    H2 3756   7.808   7.535   4.293
 1267TIP3   OH2 3757   5.376   6.844   4.162
 1267TIP3    H1 3758   5.370   6.798   4.079
 1267TIP3    H2 3759   5.289   6.834   4.202
 1268TIP3   OH2 3760   1.180   4.289   0.403
 1268TIP3    H1 3761   1.101   4.234   0.404
 1268TIP3    H2 3762   1.225   4.267   0.485
 1269TIP3   OH2 3763   6.411   3.278   3.010
 1269TIP3    H1 3764   6.412   3.218   2.936
 1269TIP3    H2 3765   6.503   3.283   3.037
 1270TIP3   OH2 3766   1.920   1.211   1.423
 1270TIP3    H1 3767   1.846   1.161   1.389
 1270TIP3    H2 3768   1.930   1.284   1.361
 1271TIP3   OH2 3769   7.761   4.076   1.803
 1271TIP3    H1 3770   7.776   4.096   1.896
 1271TIP3    H2 3771   7.833   4.017   1.780
 1272TIP3   OH2 3772   4.343   1.449   2.659
 1272TIP3    H1 3773   4.255   1.478   2.686
 1272TIP3    H2 3774   4.340   1.353   2.669
 1273TIP3   OH2 3775   0.676   1.050   6.251
 1273TIP3    H1 3776   0.744   1.060   6.318
 1273TIP3    H2 3777   0.715   1.086   6.172
 1274TIP3   OH2 3778   2.863   3.830   4.716
 1274TIP3    H1 3779   2.937   3.865   4.765
 1274TIP3    H2 3780   2.790   3.834   4.777
 1275TIP3   OH2 3781   5.952   2.128   6.191
 1275TIP3    H1 3782   5.885   2.160   6.252
 1275TIP3    H2 3783   5.920   2.153   6.105
 1276TIP3   OH2 3784   4.701   4.806   1.833
 1276TIP3    H1 3785   4.664   4.818   1.745
 1276TIP3    H2 3786   4.786   4.764   1.817
 1277TIP3   OH2 3787   1.821   0.207   4.813
 1277TIP3    H1 3788   1.900   0.254   4.787
 1277TIP3    H2 3789   1.763   0.214   4.737
 1278TIP3   OH2 3790   4.408   2.007   1.944
 1278TIP3    H1 3791   4.384   1.929   1.894
 1278TIP3    H2 3792   4.420   1.975   2.034
 1279TIP3   OH2 3793   2.650   2.452   6.311
 1279TIP3    H1 3794   2.589   2.508   6.359
 1279TIP3    H2 3795   2.736   2.469   6.349
 1280TIP3   OH2 3796   2.354   6.226   6.410
 1280TIP3    H1 3797   2.295   6.163   6.371
 1280TIP3    H2 3798   2.423   6.238   6.345
 1281TIP3   OH2 3799   1.592   0.456   3.981
 1281TIP3    H1 3800   1.621   0.491   3.897
 1281TIP3    H2 3801   1.602   0.361   3.971
 1282TIP3   OH2 3802   3.476   4.413   3.943
 1282TIP3    H1 3803   3.510   4.374   4.023
 1282TIP3    H2 3804   3.381   4.399   3.947
 1283TIP3   OH2 3805   8.057   4.947   1.037
 1283TIP3    H1 3806   8.052   4.852   1.050
 1283TIP3    H2 3807   8.087   4.981   1.121
 1284TIP3   OH2 3808   8.032   1.869   4.787
 1284TIP3    H1 3809   8.028   1.780   4.753
 1284TIP3    H2 3810   7.980   1.867   4.867
 1285TIP3   OH2 3811   6.952   2.966   5.626
 1285TIP3    H1 3812   6.878   2.947   5.570
 1285TIP3    H2 3813   6.970   2.884   5.671
 1286TIP3   OH2 3814   0.107   4.204   0.246
 1286TIP3    H1 3815   0.023   4.191   0.202
 1286TIP3    H2 3816   0.172   4.173   0.183
 1287TIP3   OH2 3817   6.327   1.205   3.677
 1287TIP3    H1 3818   6.255   1.188   3.738
 1287TIP3    H2 3819   6.405   1.208   3.733
 1288TIP3   OH2 3820   6.123   1.781   6.582
 1288TIP3    H1 3821   6.042   1.734   6.605
 1288TIP3    H2 3822   6.096   1.871   6.568
 1289TIP3   OH2 3823   4.654   0.616   0.546
 1289TIP3    H1 3824   4.568   0.657   0.536
 1289TIP3    H2 3825   4.638   0.542   0.604
 1290TIP3   OH2 3826   3.022   7.782   6.420
 1290TIP3    H1 3827   3.041   7.844   6.490
 1290TIP3    H2 3828   2.948   7.731   6.452
 1291TIP3   OH2 3829   6.036   3.981   1.896
 1291TIP3    H1 3830   6.043   3.985   1.991
 1291TIP3    H2 3831   6.029   3.887   1.877
 1292TIP3   OH2 3832   0.044   0.249   6.367
 1292TIP3    H1 3833   0.088   0.321   6.322
 1292TIP3    H2 3834   0.102   0.228   6.441
 1293TIP3   OH2 3835   4.446   0.570   2.187
 1293TIP3    H1 3836   4.446   0.531   2.275
 1293TIP3    H2 3837   4.526   0.622   2.184
 1294TIP3   OH2 3838   2.979   5.742   6.601
 1294TIP3    H1 3839   2.968   5.754   6.696
 1294TIP3    H2 3840   2.984   5.831   6.566
 1295TIP3   OH2 3841   3.693   4.231   1.690
 1295TIP3    H1 3842   3.630   4.172   1.648
 1295TIP3    H2 3843   3.774   4.180   1.694
 1296TIP3   OH2 3844   7.550   3.144   2.530
 1296TIP3    H1 3845   7.500   3.201   2.588
 1296TIP3    H2 3846   7.512   3.158   2.444
 1297TIP3   OH2 3847   7.974   4.802   3.326
 1297TIP3    H1 3848   8.055   4.763   3.293
 1297TIP3    H2 3849   7.942   4.856   3.254
 1298TIP3   OH2 3850   7.955   7.148   0.710
 1298TIP3    H1 3851   7.950   7.242   0.724
 1298TIP3    H2 3852   7.879   7.127   0.656
 1299TIP3   OH2 3853   8.138   6.167   0.233
 1299TIP3    H1 3854   8.229   6.161   0.264
 1299TIP3    H2 3855   8.146   6.168   0.137
 1300TIP3   OH2 3856   6.606   7.639   0.223
 1300TIP3    H1 3857   6.611   7.706   0.291
 1300TIP3    H2 3858   6.697   7.613   0.208
 1301TIP3   OH2 3859   2.202   0.153   2.164
 1301TIP3    H1 3860   2.115   0.142   2.202
 1301TIP3    H2 3861   2.261   0.153   2.239
 1302TIP3   OH2 3862   1.026   2.190   1.439
 1302TIP3    H1 3863   1.021   2.146   1.354
 1302TIP3    H2 3864   1.093   2.142   1.487
 1303TIP3   OH2 3865   2.487   6.100   3.590
 1303TIP3    H1 3866   2.581   6.115   3.601
 1303TIP3    H2 3867   2.478   6.072   3.499
 1304TIP3   OH2 3868   8.034   0.080   2.177
 1304TIP3    H1 3869   8.067   0.098   2.089
 1304TIP3    H2 3870   8.102   0.113   2.236
 1305TIP3   OH2 3871   6.088   7.558   6.511
 1305TIP3    H1 3872   5.994   7.544   6.528
 1305TIP3    H2 3873   6.129   7.553   6.597
 1306TIP3   OH2 3874   2.132   7.750   1.478
 1306TIP3    H1 3875   2.192   7.821   1.500
 1306TIP3    H2 3876   2.047   7.793   1.464
 1307TIP3   OH2 3877   3.975   4.057   5.616
 1307TIP3    H1 3878   3.985   3.994   5.544
 1307TIP3    H2 3879   4.064   4.082   5.638
 1308TIP3   OH2 3880   7.198   6.031   4.719
 1308TIP3    H1 3881   7.275   5.984   4.686
 1308TIP3    H2 3882   7.232   6.117   4.744
 1309TIP3   OH2 3883   2.660   2.387   2.482
 1309TIP3    H1 3884   2.661   2.337   2.400
 1309TIP3    H2 3885   2.750   2.418   2.492
 1310TIP3   OH2 3886   1.766   3.492   0.576
 1310TIP3    H1 3887   1.780   3.517   0.667
 1310TIP3    H2 3888   1.692   3.432   0.579
 1311TIP3   OH2 3889   5.911   1.325   2.780
 1311TIP3    H1 3890   5.952   1.411   2.773
 1311TIP3    H2 3891   5.907   1.308   2.874
 1312TIP3   OH2 3892   3.732   3.706   1.106
 1312TIP3    H1 3893   3.699   3.738   1.022
 1312TIP3    H2 3894   3.658   3.716   1.166
 1313TIP3   OH2 3895   6.702   7.024   3.848
 1313TIP3    H1 3896   6.629   7.011   3.908
 1313TIP3    H2 3897   6.680   7.104   3.800
 1314TIP3   OH2 3898   6.002   5.589   2.569
 1314TIP3    H1 3899   5.994   5.626   2.657
 1314TIP3    H2 3900   6.096   5.575   2.558
 1315TIP3   OH2 3901   1.172   1.027   5.301
 1315TIP3    H1 3902   1.228   0.979   5.239
 1315TIP3    H2 3903   1.122   1.087   5.246
 1316TIP3   OH2 3904   3.924   4.596   5.477
 1316TIP3    H1 3905   4.009   4.627   5.444
 1316TIP3    H2 3906   3.883   4.674   5.513
 1317TIP3   OH2 3907   3.881   7.000   0.540
 1317TIP3    H1 3908   3.963   6.972   0.500
 1317TIP3    H2 3909   3.826   7.025   0.466
 1318TIP3   OH2 3910   0.538   5.515   0.330
 1318TIP3    H1 3911   0.571   5.482   0.247
 1318TIP3    H2 3912   0.467   5.575   0.306
 1319TIP3   OH2 3913   4.120   0.203   5.775
 1319TIP3    H1 3914   4.199   0.248   5.803
 1319TIP3    H2 3915   4.112   0.129   5.836
 1320TIP3   OH2 3916   7.780   2.787   5.800
 1320TIP3    H1 3917   7.791   2.695   5.775
 1320TIP3    H2 3918   7.698   2.789   5.849
 1321TIP3   OH2 3919   4.984   7.445   0.574
 1321TIP3    H1 3920   4.975   7.469   0.666
 1321TIP3    H2 3921   5.069   7.480   0.548
 1322TIP3   OH2 3922   4.990   6.821   1.224
 1322TIP3    H1 3923   5.069   6.854   1.266
 1322TIP3    H2 3924   4.936   6.898   1.207
 1323TIP3   OH2 3925   0.135   6.108   3.245
 1323TIP3    H1 3926   0.160   6.084   3.156
 1323TIP3    H2 3927   0.039   6.101   3.246
 1324TIP3   OH2 3928   4.212   5.863   5.234
 1324TIP3    H1 3929   4.161   5.808   5.294
 1324TIP3    H2 3930   4.147   5.899   5.174
 1325TIP3   OH2 3931   4.529   0.273   3.905
 1325TIP3    H1 3932   4.568   0.332   3.969
 1325TIP3    H2 3933   4.601   0.217   3.875
 1326TIP3   OH2 3934   4.849   5.643   0.566
 1326TIP3    H1 3935   4.925   5.635   0.624
 1326TIP3    H2 3936   4.885   5.664   0.480
 1327TIP3   OH2 3937   4.127   1.730   4.199
 1327TIP3    H1 3938   4.126   1.735   4.103
 1327TIP3    H2 3939   4.098   1.641   4.218
 1328TIP3   OH2 3940   7.492   6.200   5.884
 1328TIP3    H1 3941   7.569   6.224   5.935
 1328TIP3    H2 3942   7.418   6.223   5.940
 1329TIP3   OH2 3943   0.259   6.564   0.324
 1329TIP3    H1 3944   0.279   6.479   0.286
 1329TIP3    H2 3945   0.250   6.547   0.418
 1330TIP3   OH2 3946   7.568   1.350   6.092
 1330TIP3    H1 3947   7.605   1.402   6.164
 1330TIP3    H2 3948   7.609   1.264   6.102
 1331TIP3   OH2 3949   3.524   1.481   6.380
 1331TIP3    H1 3950   3.536   1.567   6.341
 1331TIP3    H2 3951   3.439   1.487   6.425
 1332TIP3   OH2 3952   4.863   0.250   0.567
 1332TIP3    H1 3953   4.940   0.307   0.573
 1332TIP3    H2 3954   4.871   0.208   0.482
 1333TIP3   OH2 3955   1.645   7.459   4.253
 1333TIP3    H1 3956   1.723   7.495   4.212
 1333TIP3    H2 3957   1.636   7.508   4.335
 1334TIP3   OH2 3958   3.198   4.148   1.884
 1334TIP3    H1 3959   3.292   4.146   1.868
 1334TIP3    H2 3960   3.161   4.089   1.817
 1335TIP3   OH2 3961   2.885   1.447   3.818
 1335TIP3    H1 3962   2.932   1.480   3.741
 1335TIP3    H2 3963   2.859   1.526   3.866
 1336TIP3   OH2 3964   2.597   6.648   3.576
 1336TIP3    H1 3965   2.595   6.630   3.482
 1336TIP3    H2 3966   2.669   6.594   3.608
 1337TIP3   OH2 3967   3.705   0.701   4.879
 1337TIP3    H1 3968   3.729   0.760   4.950
 1337TIP3    H2 3969   3.775   0.635   4.878
 1338TIP3   OH2 3970   4.538   5.888   2.891
 1338TIP3    H1 3971   4.557   5.905   2.799
 1338TIP3    H2 3972   4.498   5.968   2.923
 1339TIP3   OH2 3973   4.729  -0.032   5.875
 1339TIP3    H1 3974   4.741   0.054   5.917
 1339TIP3    H2 3975   4.677  -0.013   5.797
 1340TIP3   OH2 3976   2.285   5.945   4.956
 1340TIP3    H1 3977   2.308   5.907   5.041
 1340TIP3    H2 3978   2.306   6.038   4.964
 1341TIP3   OH2 3979   3.392   2.348   5.734
 1341TIP3    H1 3980   3.375   2.407   5.807
 1341TIP3    H2 3981   3.311   2.299   5.723
 1342TIP3   OH2 3982   2.851   3.768   6.138
 1342TIP3    H1 3983   2.852   3.864   6.137
 1342TIP3    H2 3984   2.758   3.745   6.144
 1343TIP3   OH2 3985   3.284   3.063   6.501
 1343TIP3    H1 3986   3.321   2.992   6.553
 1343TIP3    H2 3987   3.334   3.141   6.528
 1344TIP3   OH2 3988   5.301   4.352   1.418
 1344TIP3    H1 3989   5.380   4.332   1.368
 1344TIP3    H2 3990   5.256   4.268   1.426
 1345TIP3   OH2 3991   2.073   0.069   3.133
 1345TIP3    H1 3992   2.008   0.138   3.143
 1345TIP3    H2 3993   2.077   0.053   3.038
 1346TIP3   OH2 3994   7.939   0.421   1.695
 1346TIP3    H1 3995   7.935   0.363   1.771
 1346TIP3    H2 3996   7.929   0.509   1.732
 1347TIP3   OH2 3997   4.978   6.114   4.865
 1347TIP3    H1 3998   4.897   6.157   4.891
 1347TIP3    H2 3999   5.047   6.167   4.904
 1348TIP3   OH2 4000   7.527   2.153   5.092
 1348TIP3    H1 4001   7.478   2.116   5.018
 1348TIP3    H2 4002   7.503   2.099   5.167
 1349TIP3   OH2 4003   0.870   1.562   0.579
 1349TIP3    H1 4004   0.793   1.548   0.523
 1349TIP3    H2 4005   0.856   1.649   0.617
 1350TIP3   OH2 4006   0.585   4.447   5.412
 1350TIP3    H1 4007   0.618   4.372   5.462
 1350TIP3    H2 4008   0.490   4.440   5.418
 1351TIP3   OH2 4009   2.600   4.051   6.375
 1351TIP3    H1 4010   2.621   3.958   6.364
 1351TIP3    H2 4011   2.510   4.051   6.407
 1352TIP3   OH2 4012   5.708   1.747   2.819
 1352TIP3    H1 4013   5.699   1.821   2.879
 1352TIP3    H2 4014   5.666   1.674   2.865
 1353TIP3   OH2 4015   3.785   0.666   2.466
 1353TIP3    H1 4016   3.707   0.710   2.499
 1353TIP3    H2 4017   3.777   0.670   2.371
 1354TIP3   OH2 4018   2.300   1.573   2.389
 1354TIP3    H1 4019   2.228   1.513   2.406
 1354TIP3    H2 4020   2.311   1.622   2.471
 1355TIP3   OH2 4021   5.681   6.123   0.807
 1355TIP3    H1 4022   5.725   6.203   0.779
 1355TIP3    H2 4023   5.752   6.059   0.818
 1356TIP3   OH2 4024   4.367   5.678   2.924
 1356TIP3    H1 4025   4.418   5.616   2.872
 1356TIP3    H2 4026   4.424   5.755   2.931
 1357TIP3   OH2 4027   2.182   2.471   3.575
 1357TIP3    H1 4028   2.265   2.441   3.537
 1357TIP3    H2 4029   2.116   2.415   3.536
 1358TIP3   OH2 4030   7.914   2.317   5.866
 1358TIP3    H1 4031   7.961   2.268   5.934
 1358TIP3    H2 4032   7.976   2.323   5.793
 1359TIP3   OH2 4033   5.122   2.342   3.121
 1359TIP3    H1 4034   5.148   2.313   3.208
 1359TIP3    H2 4035   5.067   2.272   3.087
 1360TIP3   OH2 4036   2.929   3.060   4.417
 1360TIP3    H1 4037   2.961   3.145   4.446
 1360TIP3    H2 4038   2.990   3.033   4.349
 1361TIP3   OH2 4039   0.203   1.330   6.058
 1361TIP3    H1 4040   0.289   1.322   6.098
 1361TIP3    H2 4041   0.148   1.270   6.108
 1362TIP3   OH2 4042   6.954   6.328   0.305
 1362TIP3    H1 4043   7.000   6.310   0.387
 1362TIP3    H2 4044   6.915   6.415   0.318
 1363TIP3   OH2 4045   5.971   6.214   0.021
 1363TIP3    H1 4046   5.886   6.184   0.052
 1363TIP3    H2 4047   5.949   6.282  -0.044
 1364TIP3   OH2 4048   0.256   3.717   6.095
 1364TIP3    H1 4049   0.241   3.640   6.041
 1364TIP3    H2 4050   0.184   3.715   6.159
 1365TIP3   OH2 4051   2.251   6.893   5.779
 1365TIP3    H1 4052   2.298   6.925   5.702
 1365TIP3    H2 4053   2.244   6.969   5.837
 1366TIP3   OH2 4054   2.265   4.838   5.710
 1366TIP3    H1 4055   2.170   4.849   5.701
 1366TIP3    H2 4056   2.300   4.927   5.701
 1367TIP3   OH2 4057   1.425   1.501   4.226
 1367TIP3    H1 4058   1.372   1.442   4.280
 1367TIP3    H2 4059   1.503   1.518   4.279
 1368TIP3   OH2 4060   6.219   1.349   5.001
 1368TIP3    H1 4061   6.136   1.373   5.042
 1368TIP3    H2 4062   6.233   1.416   4.934
 1369TIP3   OH2 4063   0.547   7.695   3.483
 1369TIP3    H1 4064   0.471   7.742   3.517
 1369TIP3    H2 4065   0.603   7.683   3.560
 1370TIP3   OH2 4066   4.118   0.836   6.760
 1370TIP3    H1 4067   4.157   0.818   6.674
 1370TIP3    H2 4068   4.177   0.901   6.799
 1371TIP3   OH2 4069   3.837   1.580   1.744
 1371TIP3    H1 4070   3.900   1.633   1.694
 1371TIP3    H2 4071   3.877   1.493   1.746
 1372TIP3   OH2 4072   3.239   1.928   2.585
 1372TIP3    H1 4073   3.315   1.898   2.634
 1372TIP3    H2 4074   3.215   1.854   2.529
 1373TIP3   OH2 4075   6.972   0.496   0.896
 1373TIP3    H1 4076   6.910   0.500   0.823
 1373TIP3    H2 4077   6.991   0.587   0.917
 1374TIP3   OH2 4078   3.038   2.244   0.484
 1374TIP3    H1 4079   3.069   2.154   0.482
 1374TIP3    H2 4080   2.953   2.240   0.529
 1375TIP3   OH2 4081   2.871   3.187   2.259
 1375TIP3    H1 4082   2.865   3.098   2.226
 1375TIP3    H2 4083   2.959   3.216   2.235
 1376TIP3   OH2 4084   2.608   2.251   5.141
 1376TIP3    H1 4085   2.538   2.315   5.148
 1376TIP3    H2 4086   2.581   2.179   5.198
 1377TIP3   OH2 4087   7.141   4.513   4.434
 1377TIP3    H1 4088   7.184   4.588   4.393
 1377TIP3    H2 4089   7.100   4.549   4.512
 1378TIP3   OH2 4090   6.971   2.562   5.605
 1378TIP3    H1 4091   6.950   2.607   5.524
 1378TIP3    H2 4092   7.045   2.506   5.583
 1379TIP3   OH2 4093   1.906   3.793   3.008
 1379TIP3    H1 4094   1.928   3.859   2.942
 1379TIP3    H2 4095   1.874   3.718   2.958
 1380TIP3   OH2 4096   5.136   2.270   3.404
 1380TIP3    H1 4097   5.078   2.303   3.473
 1380TIP3    H2 4098   5.159   2.181   3.433
 1381TIP3   OH2 4099   0.605   0.851   2.221
 1381TIP3    H1 4100   0.529   0.795   2.207
 1381TIP3    H2 4101   0.573   0.923   2.275
 1382TIP3   OH2 4102   7.715   7.656   0.846
 1382TIP3    H1 4103   7.737   7.566   0.869
 1382TIP3    H2 4104   7.626   7.668   0.879
 1383TIP3   OH2 4105   7.513   5.292   5.892
 1383TIP3    H1 4106   7.528   5.203   5.860
 1383TIP3    H2 4107   7.419   5.296   5.907
 1384TIP3   OH2 4108   4.833   5.542   5.788
 1384TIP3    H1 4109   4.793   5.587   5.862
 1384TIP3    H2 4110   4.926   5.536   5.810
 1385TIP3   OH2 4111   4.537   4.857   4.578
 1385TIP3    H1 4112   4.589   4.831   4.502
 1385TIP3    H2 4113   4.568   4.944   4.600
 1386TIP3   OH2 4114   1.588   7.815   0.615
 1386TIP3    H1 4115   1.594   7.777   0.527
 1386TIP3    H2 4116   1.521   7.762   0.659
 1387TIP3   OH2 4117   1.940   6.786   6.361
 1387TIP3    H1 4118   2.013   6.783   6.422
 1387TIP3    H2 4119   1.882   6.853   6.396
 1388TIP3   OH2 4120   2.159   4.407   5.008
 1388TIP3    H1 4121   2.208   4.416   4.926
 1388TIP3    H2 4122   2.151   4.313   5.022
 1389TIP3   OH2 4123   3.489   7.614   4.920
 1389TIP3    H1 4124   3.476   7.522   4.895
 1389TIP3    H2 4125   3.551   7.648   4.855
 1390TIP3   OH2 4126   0.538   4.867   3.863
 1390TIP3    H1 4127   0.455   4.881   3.817
 1390TIP3    H2 4128   0.519   4.886   3.954
 1391TIP3   OH2 4129   4.968   5.898   6.476
 1391TIP3    H1 4130   4.974   5.825   6.538
 1391TIP3    H2 4131   4.955   5.975   6.531
 1392TIP3   OH2 4132   5.244   0.535   0.896
 1392TIP3    H1 4133   5.311   0.514   0.831
 1392TIP3    H2 4134   5.250   0.465   0.960
 1393TIP3   OH2 4135   5.890   5.894   3.184
 1393TIP3    H1 4136   5.957   5.834   3.152
 1393TIP3    H2 4137   5.932   5.939   3.258
 1394TIP3   OH2 4138   0.288   6.910   0.774
 1394TIP3    H1 4139   0.323   6.836   0.725
 1394TIP3    H2 4140   0.284   6.880   0.864
 1395TIP3   OH2 4141   1.252   3.578   6.621
 1395TIP3    H1 4142   1.285   3.497   6.659
 1395TIP3    H2 4143   1.289   3.580   6.533
 1396TIP3   OH2 4144   0.792   6.721   3.293
 1396TIP3    H1 4145   0.705   6.682   3.302
 1396TIP3    H2 4146   0.845   6.653   3.252
 1397TIP3   OH2 4147   5.167   5.758   4.738
 1397TIP3    H1 4148   5.245   5.783   4.687
 1397TIP3    H2 4149   5.132   5.682   4.692
 1398TIP3   OH2 4150   2.188   6.090   3.730
 1398TIP3    H1 4151   2.197   6.101   3.825
 1398TIP3    H2 4152   2.278   6.077   3.699
 1399TIP3   OH2 4153   3.644   0.730   5.336
 1399TIP3    H1 4154   3.686   0.765   5.415
 1399TIP3    H2 4155   3.570   0.679   5.370
 1400TIP3   OH2 4156   5.972   7.419   3.525
 1400TIP3    H1 4157   5.988   7.389   3.615
 1400TIP3    H2 4158   6.016   7.354   3.470
 1401TIP3   OH2 4159   0.227   1.891   5.677
 1401TIP3    H1 4160   0.168   1.858   5.609
 1401TIP3    H2 4161   0.254   1.813   5.726
 1402TIP3   OH2 4162   0.816   5.351   2.555
 1402TIP3    H1 4163   0.876   5.422   2.533
 1402TIP3    H2 4164   0.776   5.377   2.638
 1403TIP3   OH2 4165   5.536   4.240   4.410
 1403TIP3    H1 4166   5.464   4.223   4.349
 1403TIP3    H2 4167   5.494   4.265   4.492
 1404TIP3   OH2 4168   1.137   3.745   4.054
 1404TIP3    H1 4169   1.057   3.724   4.102
 1404TIP3    H2 4170   1.207   3.704   4.105
 1405TIP3   OH2 4171   0.056   6.292   6.237
 1405TIP3    H1 4172   0.059   6.197   6.247
 1405TIP3    H2 4173  -0.033   6.316   6.263
 1406TIP3   OH2 4174   5.770   2.892   2.168
 1406TIP3    H1 4175   5.689   2.942   2.178
 1406TIP3    H2 4176   5.782   2.883   2.074
 1407TIP3   OH2 4177   0.507   5.082   2.014
 1407TIP3    H1 4178   0.437   5.110   2.073
 1407TIP3    H2 4179   0.468   5.088   1.926
 1408TIP3   OH2 4180   6.823   7.712   3.572
 1408TIP3    H1 4181   6.750   7.650   3.574
 1408TIP3    H2 4182   6.880   7.680   3.503
 1409TIP3   OH2 4183   6.692   1.864   0.146
 1409TIP3    H1 4184   6.761   1.925   0.171
 1409TIP3    H2 4185   6.619   1.886   0.203
 1410TIP3   OH2 4186   7.026   4.826   5.661
 1410TIP3    H1 4187   7.108   4.784   5.636
 1410TIP3    H2 4188   7.052   4.901   5.714
 1411TIP3   OH2 4189   5.102   4.666   3.917
 1411TIP3    H1 4190   5.155   4.724   3.971
 1411TIP3    H2 4191   5.110   4.580   3.959
 1412TIP3   OH2 4192   5.824   2.408   2.814
 1412TIP3    H1 4193   5.883   2.391   2.888
 1412TIP3    H2 4194   5.738   2.420   2.854
 1413TIP3   OH2 4195   4.920   1.169   0.531
 1413TIP3    H1 4196   4.834   1.176   0.491
 1413TIP3    H2 4197   4.904   1.134   0.619
 1414TIP3   OH2 4198   8.102   0.582   6.796
 1414TIP3    H1 4199   8.179   0.611   6.749
 1414TIP3    H2 4200   8.029   0.629   6.756
 1415TIP3   OH2 4201   2.552   4.568   6.096
 1415TIP3    H1 4202   2.623   4.577   6.159
 1415TIP3    H2 4203   2.483   4.522   6.144
 1416TIP3   OH2 4204   6.706   1.460   1.477
 1416TIP3    H1 4205   6.716   1.469   1.572
 1416TIP3    H2 4206   6.615   1.484   1.461
 1417TIP3   OH2 4207   7.031   1.544   2.500
 1417TIP3    H1 4208   7.049   1.496   2.580
 1417TIP3    H2 4209   6.973   1.616   2.527
 1418TIP3   OH2 4210   5.263   3.742   5.313
 1418TIP3    H1 4211   5.237   3.692   5.390
 1418TIP3    H2 4212   5.342   3.699   5.281
 1419TIP3   OH2 4213   4.115   5.493   1.012
 1419TIP3    H1 4214   4.129   5.398   1.014
 1419TIP3    H2 4215   4.203   5.530   1.016
 1420TIP3   OH2 4216   4.926   3.659   4.552
 1420TIP3    H1 4217   4.832   3.661   4.534
 1420TIP3    H2 4218   4.933   3.685   4.644
 1421TIP3   OH2 4219   0.591   0.323   6.063
 1421TIP3    H1 4220   0.509   0.282   6.033
 1421TIP3    H2 4221   0.646   0.249   6.089
 1422TIP3   OH2 4222   4.073   5.287   4.847
 1422TIP3    H1 4223   4.014   5.355   4.814
 1422TIP3    H2 4224   4.119   5.256   4.769
 1423TIP3   OH2 4225   3.573   2.742   5.592
 1423TIP3    H1 4226   3.543   2.669   5.539
 1423TIP3    H2 4227   3.528   2.730   5.676
 1424TIP3   OH2 4228   4.326   0.617   4.624
 1424TIP3    H1 4229   4.379   0.651   4.696
 1424TIP3    H2 4230   4.373   0.645   4.545
 1425TIP3   OH2 4231   1.933   0.318   6.541
 1425TIP3    H1 4232   1.872   0.258   6.583
 1425TIP3    H2 4233   1.905   0.320   6.449
 1426TIP3   OH2 4234   1.332   1.170   1.499
 1426TIP3    H1 4235   1.291   1.083   1.500
 1426TIP3    H2 4236   1.350   1.186   1.407
 1427TIP3   OH2 4237   5.887   7.479   1.805
 1427TIP3    H1 4238   5.977   7.456   1.784
 1427TIP3    H2 4239   5.890   7.571   1.829
 1428TIP3   OH2 4240   5.608   5.065   2.093
 1428TIP3    H1 4241   5.664   5.051   2.016
 1428TIP3    H2 4242   5.587   5.159   2.090
 1429TIP3   OH2 4243   2.035   7.698   1.773
 1429TIP3    H1 4244   2.013   7.605   1.764
 1429TIP3    H2 4245   1.965   7.744   1.727
 1430TIP3   OH2 4246   1.593   1.951   4.926
 1430TIP3    H1 4247   1.531   1.904   4.870
 1430TIP3    H2 4248   1.538   1.994   4.991
 1431TIP3   OH2 4249   7.765   3.778   2.291
 1431TIP3    H1 4250   7.842   3.765   2.236
 1431TIP3    H2 4251   7.693   3.794   2.229
 1432TIP3   OH2 4252   7.722   3.475   3.960
 1432TIP3    H1 4253   7.642   3.426   3.941
 1432TIP3    H2 4254   7.777   3.414   4.009
 1433TIP3   OH2 4255   0.188   7.161   0.863
 1433TIP3    H1 4256   0.206   7.080   0.815
 1433TIP3    H2 4257   0.154   7.221   0.797
 1434TIP3   OH2 4258   1.924   2.692   1.858
 1434TIP3    H1 4259   1.941   2.661   1.769
 1434TIP3    H2 4260   1.953   2.620   1.915
 1435TIP3   OH2 4261   1.764   3.941   0.178
 1435TIP3    H1 4262   1.692   3.963   0.238
 1435TIP3    H2 4263   1.826   3.893   0.233
 1436TIP3   OH2 4264   7.538   3.799   5.756
 1436TIP3    H1 4265   7.536   3.763   5.845
 1436TIP3    H2 4266   7.631   3.808   5.735
 1437TIP3   OH2 4267   2.756   6.823   1.791
 1437TIP3    H1 4268   2.692   6.883   1.754
 1437TIP3    H2 4269   2.743   6.828   1.885
 1438TIP3   OH2 4270   4.568   2.076   5.916
 1438TIP3    H1 4271   4.593   1.991   5.880
 1438TIP3    H2 4272   4.490   2.101   5.868
 1439TIP3   OH2 4273   4.539   1.682   4.737
 1439TIP3    H1 4274   4.444   1.681   4.729
 1439TIP3    H2 4275   4.565   1.592   4.716
 1440TIP3   OH2 4276   3.162   6.305   6.238
 1440TIP3    H1 4277   3.187   6.238   6.302
 1440TIP3    H2 4278   3.078   6.339   6.270
 1441TIP3   OH2 4279   1.660   4.969   5.205
 1441TIP3    H1 4280   1.683   4.882   5.172
 1441TIP3    H2 4281   1.588   4.997   5.149
 1442TIP3   OH2 4282   6.664   5.128   3.884
 1442TIP3    H1 4283   6.724   5.158   3.952
 1442TIP3    H2 4284   6.721   5.098   3.813
 1443TIP3   OH2 4285   3.178   6.985   6.511
 1443TIP3    H1 4286   3.134   7.029   6.438
 1443TIP3    H2 4287   3.247   6.933   6.470
 1444TIP3   OH2 4288   2.258   0.282   2.597
 1444TIP3    H1 4289   2.222   0.336   2.527
 1444TIP3    H2 4290   2.196   0.290   2.669
 1445TIP3   OH2 4291   0.386   2.690   6.132
 1445TIP3    H1 4292   0.386   2.786   6.135
 1445TIP3    H2 4293   0.408   2.669   6.042
 1446TIP3   OH2 4294   1.748   6.886   3.457
 1446TIP3    H1 4295   1.750   6.877   3.362
 1446TIP3    H2 4296   1.829   6.844   3.487
 1447TIP3   OH2 4297   6.515   6.144   0.759
 1447TIP3    H1 4298   6.592   6.187   0.795
 1447TIP3    H2 4299   6.447   6.211   0.760
 1448TIP3   OH2 4300   0.966   6.167   5.824
 1448TIP3    H1 4301   0.962   6.104   5.896
 1448TIP3    H2 4302   0.878   6.203   5.818
 1449TIP3   OH2 4303   4.186   1.222   4.373
 1449TIP3    H1 4304   4.160   1.205   4.282
 1449TIP3    H2 4305   4.277   1.251   4.366
 1450TIP3   OH2 4306   5.551   3.522   3.599
 1450TIP3    H1 4307   5.464   3.497   3.630
 1450TIP3    H2 4308   5.556   3.617   3.614
 1451TIP3   OH2 4309   6.141   6.302   1.544
 1451TIP3    H1 4310   6.112   6.239   1.610
 1451TIP3    H2 4311   6.232   6.278   1.526
 1452TIP3   OH2 4312   3.690   6.121   3.025
 1452TIP3    H1 4313   3.697   6.082   2.937
 1452TIP3    H2 4314   3.732   6.057   3.083
 1453TIP3   OH2 4315   4.081   5.989   2.043
 1453TIP3    H1 4316   4.133   5.960   2.118
 1453TIP3    H2 4317   4.066   6.083   2.059
 1454TIP3   OH2 4318   1.659   3.454   4.320
 1454TIP3    H1 4319   1.590   3.498   4.370
 1454TIP3    H2 4320   1.738   3.504   4.337
 1455TIP3   OH2 4321   7.348   4.280   6.345
 1455TIP3    H1 4322   7.288   4.210   6.369
 1455TIP3    H2 4323   7.304   4.327   6.275
 1456TIP3   OH2 4324   2.264   7.611   1.916
 1456TIP3    H1 4325   2.225   7.654   1.841
 1456TIP3    H2 4326   2.332   7.555   1.879
 1457TIP3   OH2 4327   3.272   1.416   5.038
 1457TIP3    H1 4328   3.364   1.397   5.024
 1457TIP3    H2 4329   3.238   1.340   5.086
 1458TIP3   OH2 4330   6.425   1.407   3.307
 1458TIP3    H1 4331   6.379   1.464   3.367
 1458TIP3    H2 4332   6.357   1.374   3.248
 1459TIP3   OH2 4333   7.023   6.894   2.882
 1459TIP3    H1 4334   7.080   6.817   2.881
 1459TIP3    H2 4335   6.950   6.869   2.825
 1460TIP3   OH2 4336   5.071   2.894   3.166
 1460TIP3    H1 4337   5.014   2.907   3.090
 1460TIP3    H2 4338   5.140   2.835   3.134
 1461TIP3   OH2 4339   5.243   6.362   5.461
 1461TIP3    H1 4340   5.288   6.351   5.545
 1461TIP3    H2 4341   5.299   6.422   5.412
 1462TIP3   OH2 4342   2.625   5.099   2.887
 1462TIP3    H1 4343   2.595   5.096   2.978
 1462TIP3    H2 4344   2.719   5.083   2.892
 1463TIP3   OH2 4345   6.878   5.285   3.144
 1463TIP3    H1 4346   6.926   5.233   3.208
 1463TIP3    H2 4347   6.792   5.245   3.140
 1464TIP3   OH2 4348   4.110   4.450   4.186
 1464TIP3    H1 4349   4.040   4.389   4.209
 1464TIP3    H2 4350   4.188   4.415   4.229
 1465TIP3   OH2 4351   3.435   0.561   4.028
 1465TIP3    H1 4352   3.528   0.581   4.020
 1465TIP3    H2 4353   3.392   0.646   4.033
 1466TIP3   OH2 4354   7.337   1.285   0.674
 1466TIP3    H1 4355   7.375   1.210   0.720
 1466TIP3    H2 4356   7.411   1.323   0.627
 1467TIP3   OH2 4357   6.538   6.013   3.353
 1467TIP3    H1 4358   6.600   6.065   3.302
 1467TIP3    H2 4359   6.569   6.022   3.443
 1468TIP3   OH2 4360   7.215   6.237   3.462
 1468TIP3    H1 4361   7.310   6.239   3.452
 1468TIP3    H2 4362   7.201   6.258   3.555
 1469TIP3   OH2 4363   1.788   1.739   3.819
 1469TIP3    H1 4364   1.797   1.668   3.883
 1469TIP3    H2 4365   1.695   1.762   3.823
 1470TIP3   OH2 4366   6.594   1.095   6.668
 1470TIP3    H1 4367   6.660   1.157   6.638
 1470TIP3    H2 4368   6.596   1.103   6.763
 1471TIP3   OH2 4369   0.781   0.428   5.342
 1471TIP3    H1 4370   0.712   0.370   5.308
 1471TIP3    H2 4371   0.826   0.376   5.408
 1472TIP3   OH2 4372   2.729   3.788   4.066
 1472TIP3    H1 4373   2.783   3.720   4.105
 1472TIP3    H2 4374   2.654   3.741   4.029
 1473TIP3   OH2 4375   1.055   6.627   5.546
 1473TIP3    H1 4376   1.102   6.592   5.622
 1473TIP3    H2 4377   0.973   6.660   5.583
 1474TIP3   OH2 4378   6.530   2.219   1.032
 1474TIP3    H1 4379   6.496   2.143   1.079
 1474TIP3    H2 4380   6.534   2.191   0.940
 1475TIP3   OH2 4381   1.253   6.195   1.727
 1475TIP3    H1 4382   1.179   6.231   1.776
 1475TIP3    H2 4383   1.277   6.265   1.666
 1476TIP3   OH2 4384   3.357   1.393   1.522
 1476TIP3    H1 4385   3.338   1.423   1.611
 1476TIP3    H2 4386   3.285   1.333   1.501
 1477TIP3   OH2 4387   1.024   2.553   0.855
 1477TIP3    H1 4388   1.081   2.476   0.858
 1477TIP3    H2 4389   0.953   2.528   0.796
 1478TIP3   OH2 4390   4.123   7.528   1.868
 1478TIP3    H1 4391   4.116   7.595   1.936
 1478TIP3    H2 4392   4.033   7.499   1.854
 1479TIP3   OH2 4393   0.098   4.123   3.319
 1479TIP3    H1 4394   0.051   4.198   3.354
 1479TIP3    H2 4395   0.094   4.057   3.389
 1480TIP3   OH2 4396   4.723   3.940   3.944
 1480TIP3    H1 4397   4.776   4.017   3.927
 1480TIP3    H2 4398   4.776   3.866   3.913
 1481TIP3   OH2 4399   4.772   4.545   0.868
 1481TIP3    H1 4400   4.731   4.627   0.895
 1481TIP3    H2 4401   4.856   4.572   0.831
 1482TIP3   OH2 4402   7.736   1.971   5.392
 1482TIP3    H1 4403   7.768   2.031   5.460
 1482TIP3    H2 4404   7.800   1.901   5.389
 1483TIP3   OH2 4405   1.020   5.056   6.653
 1483TIP3    H1 4406   1.104   5.101   6.643
 1483TIP3    H2 4407   1.038   4.986   6.716
 1484TIP3   OH2 4408   4.969   3.108   0.987
 1484TIP3    H1 4409   4.905   3.147   1.046
 1484TIP3    H2 4410   4.931   3.022   0.964
 1485TIP3   OH2 4411   1.528   7.084   1.643
 1485TIP3    H1 4412   1.481   7.050   1.567
 1485TIP3    H2 4413   1.603   7.026   1.654
 1486TIP3   OH2 4414   8.217   1.632   4.160
 1486TIP3    H1 4415   8.242   1.699   4.223
 1486TIP3    H2 4416   8.165   1.569   4.210
 1487TIP3   OH2 4417   5.325   7.078   5.083
 1487TIP3    H1 4418   5.267   7.021   5.033
 1487TIP3    H2 4419   5.375   7.126   5.017
 1488TIP3   OH2 4420   1.090   2.905   3.022
 1488TIP3    H1 4421   1.157   2.970   3.042
 1488TIP3    H2 4422   1.015   2.956   2.992
 1489TIP3   OH2 4423   2.036   1.141   2.373
 1489TIP3    H1 4424   2.099   1.069   2.374
 1489TIP3    H2 4425   1.988   1.130   2.291
 1490TIP3   OH2 4426   5.678   2.555   0.254
 1490TIP3    H1 4427   5.596   2.566   0.302
 1490TIP3    H2 4428   5.694   2.640   0.214
 1491TIP3   OH2 4429   2.427   2.963   0.323
 1491TIP3    H1 4430   2.466   2.898   0.265
 1491TIP3    H2 4431   2.344   2.986   0.281
 1492TIP3   OH2 4432   5.520   7.492   0.765
 1492TIP3    H1 4433   5.586   7.533   0.709
 1492TIP3    H2 4434   5.544   7.520   0.853
 1493TIP3   OH2 4435   2.055   4.460   3.240
 1493TIP3    H1 4436   2.041   4.366   3.254
 1493TIP3    H2 4437   2.147   4.473   3.262
 1494TIP3   OH2 4438   7.071   6.907   2.051
 1494TIP3    H1 4439   7.122   6.846   2.104
 1494TIP3    H2 4440   7.103   6.894   1.962
 1495TIP3   OH2 4441   4.596   0.987   4.790
 1495TIP3    H1 4442   4.544   1.038   4.852
 1495TIP3    H2 4443   4.687   1.007   4.812
 1496TIP3   OH2 4444   5.675   7.563   2.684
 1496TIP3    H1 4445   5.707   7.541   2.772
 1496TIP3    H2 4446   5.583   7.537   2.684
 1497TIP3   OH2 4447   4.723   7.346   2.176
 1497TIP3    H1 4448   4.710   7.390   2.092
 1497TIP3    H2 4449   4.692   7.256   2.162
 1498TIP3   OH2 4450   7.489   6.251   3.517
 1498TIP3    H1 4451   7.504   6.169   3.565
 1498TIP3    H2 4452   7.560   6.254   3.453
 1499TIP3   OH2 4453   4.718   3.440   1.051
 1499TIP3    H1 4454   4.747   3.432   0.959
 1499TIP3    H2 4455   4.628   3.471   1.045
 1500TIP3   OH2 4456   2.940   6.589   5.625
 1500TIP3    H1 4457   2.961   6.681   5.607
 1500TIP3    H2 4458   2.849   6.580   5.595
 1501TIP3   OH2 4459   6.480   7.739   2.306
 1501TIP3    H1 4460   6.469   7.806   2.238
 1501TIP3    H2 4461   6.478   7.656   2.258
 1502TIP3   OH2 4462   3.612   7.323   6.327
 1502TIP3    H1 4463   3.673   7.374   6.380
 1502TIP3    H2 4464   3.612   7.236   6.367
 1503TIP3   OH2 4465   7.130   4.198   4.000
 1503TIP3    H1 4466   7.189   4.158   4.064
 1503TIP3    H2 4467   7.047   4.205   4.046
 1504TIP3   OH2 4468   0.453   0.788   1.520
 1504TIP3    H1 4469   0.492   0.850   1.582
 1504TIP3    H2 4470   0.528   0.749   1.475
 1505TIP3   OH2 4471   4.016   6.751   1.193
 1505TIP3    H1 4472   3.933   6.708   1.171
 1505TIP3    H2 4473   4.000   6.794   1.277
 1506TIP3   OH2 4474   2.309   6.670   1.765
 1506TIP3    H1 4475   2.260   6.726   1.704
 1506TIP3    H2 4476   2.399   6.700   1.757
 1507TIP3   OH2 4477   7.797   1.179   4.528
 1507TIP3    H1 4478   7.721   1.180   4.469
 1507TIP3    H2 4479   7.763   1.144   4.610
 1508TIP3   OH2 4480   7.011   6.858   6.451
 1508TIP3    H1 4481   6.959   6.854   6.372
 1508TIP3    H2 4482   6.959   6.811   6.517
 1509TIP3   OH2 4483   5.839   5.314   4.981
 1509TIP3    H1 4484   5.856   5.392   4.928
 1509TIP3    H2 4485   5.744   5.301   4.975
 1510TIP3   OH2 4486   5.440   7.764   1.914
 1510TIP3    H1 4487   5.359   7.731   1.952
 1510TIP3    H2 4488   5.475   7.690   1.864
 1511TIP3   OH2 4489   0.062   6.376   5.221
 1511TIP3    H1 4490   0.058   6.332   5.306
 1511TIP3    H2 4491   0.069   6.469   5.243
 1512TIP3   OH2 4492   6.556   0.739   3.108
 1512TIP3    H1 4493   6.519   0.827   3.117
 1512TIP3    H2 4494   6.642   0.745   3.152
 1513TIP3   OH2 4495   2.834   4.423   1.205
 1513TIP3    H1 4496   2.793   4.490   1.149
 1513TIP3    H2 4497   2.820   4.455   1.294
 1514TIP3   OH2 4498   0.764   7.406   3.262
 1514TIP3    H1 4499   0.710   7.455   3.200
 1514TIP3    H2 4500   0.830   7.469   3.291
 1515TIP3   OH2 4501   3.479   7.687   3.141
 1515TIP3    H1 4502   3.400   7.669   3.091
 1515TIP3    H2 4503   3.491   7.782   3.136
 1516TIP3   OH2 4504   7.655   6.091   5.689
 1516TIP3    H1 4505   7.668   6.007   5.734
 1516TIP3    H2 4506   7.578   6.129   5.733
 1517TIP3   OH2 4507   7.604   4.082   4.774
 1517TIP3    H1 4508   7.632   4.166   4.811
 1517TIP3    H2 4509   7.623   4.018   4.842
 1518TIP3   OH2 4510   0.222   5.631   5.890
 1518TIP3    H1 4511   0.182   5.716   5.907
 1518TIP3    H2 4512   0.316   5.646   5.900
 1519TIP3   OH2 4513   6.008   7.706   4.937
 1519TIP3    H1 4514   6.083   7.682   4.991
 1519TIP3    H2 4515   6.020   7.799   4.920
 1520TIP3   OH2 4516   5.570   5.769   6.537
 1520TIP3    H1 4517   5.513   5.765   6.614
 1520TIP3    H2 4518   5.624   5.848   6.550
 1521TIP3   OH2 4519   2.237   2.211   0.174
 1521TIP3    H1 4520   2.144   2.199   0.158
 1521TIP3    H2 4521   2.253   2.168   0.258
 1522TIP3   OH2 4522   7.185   0.869   0.363
 1522TIP3    H1 4523   7.231   0.922   0.428
 1522TIP3    H2 4524   7.220   0.781   0.375
 1523TIP3   OH2 4525   7.056   2.988   3.533
 1523TIP3    H1 4526   7.076   2.913   3.589
 1523TIP3    H2 4527   7.091   3.063   3.581
 1524TIP3   OH2 4528   0.829   1.641   5.585
 1524TIP3    H1 4529   0.865   1.675   5.503
 1524TIP3    H2 4530   0.815   1.719   5.639
 1525TIP3   OH2 4531   0.390   5.258   2.986
 1525TIP3    H1 4532   0.320   5.323   2.986
 1525TIP3    H2 4533   0.470   5.308   3.000
 1526TIP3   OH2 4534   7.250   6.207   1.054
 1526TIP3    H1 4535   7.295   6.142   1.000
 1526TIP3    H2 4536   7.293   6.290   1.035
 1527TIP3   OH2 4537   2.899   5.337   2.025
 1527TIP3    H1 4538   2.823   5.377   2.068
 1527TIP3    H2 4539   2.941   5.409   1.979
 1528TIP3   OH2 4540   1.194   0.254   2.897
 1528TIP3    H1 4541   1.123   0.227   2.840
 1528TIP3    H2 4542   1.199   0.349   2.886
 1529TIP3   OH2 4543   8.131   1.321   4.218
 1529TIP3    H1 4544   8.202   1.293   4.161
 1529TIP3    H2 4545   8.100   1.241   4.260
 1530TIP3   OH2 4546   7.920   0.348   6.665
 1530TIP3    H1 4547   7.961   0.365   6.580
 1530TIP3    H2 4548   7.863   0.273   6.650
 1531TIP3   OH2 4549   4.761   1.325   3.201
 1531TIP3    H1 4550   4.783   1.234   3.218
 1531TIP3    H2 4551   4.697   1.347   3.269
 1532TIP3   OH2 4552   3.095   4.682   4.527
 1532TIP3    H1 4553   3.175   4.731   4.507
 1532TIP3    H2 4554   3.124   4.608   4.581
 1533TIP3   OH2 4555   5.030   6.855   0.036
 1533TIP3    H1 4556   5.020   6.949   0.023
 1533TIP3    H2 4557   5.054   6.821  -0.050
 1534TIP3   OH2 4558   7.674   3.145   4.233
 1534TIP3    H1 4559   7.583   3.158   4.208
 1534TIP3    H2 4560   7.710   3.087   4.166
 1535TIP3   OH2 4561   0.528   5.747   6.744
 1535TIP3    H1 4562   0.512   5.738   6.650
 1535TIP3    H2 4563   0.464   5.690   6.785
 1536TIP3   OH2 4564   4.225   2.726   1.294
 1536TIP3    H1 4565   4.137   2.763   1.289
 1536TIP3    H2 4566   4.259   2.732   1.205
 1537TIP3   OH2 4567   4.320   1.155   5.244
 1537TIP3    H1 4568   4.306   1.061   5.255
 1537TIP3    H2 4569   4.239   1.186   5.204
 1538TIP3   OH2 4570   0.962   4.067   3.079
 1538TIP3    H1 4571   0.928   4.095   3.164
 1538TIP3    H2 4572   0.946   4.142   3.021
 1539TIP3   OH2 4573   5.368   6.494   2.214
 1539TIP3    H1 4574   5.331   6.410   2.242
 1539TIP3    H2 4575   5.374   6.487   2.119
 1540TIP3   OH2 4576   8.161   1.901   2.736
 1540TIP3    H1 4577   8.236   1.841   2.725
 1540TIP3    H2 4578   8.107   1.859   2.803
 1541TIP3   OH2 4579   7.063   1.763   0.382
 1541TIP3    H1 4580   7.054   1.853   0.412
 1541TIP3    H2 4581   7.015   1.761   0.299
 1542TIP3   OH2 4582   0.548   1.531   2.370
 1542TIP3    H1 4583   0.510   1.444   2.386
 1542TIP3    H2 4584   0.544   1.574   2.455
 1543TIP3   OH2 4585   2.898   4.594   0.517
 1543TIP3    H1 4586   2.913   4.545   0.436
 1543TIP3    H2 4587   2.955   4.550   0.582
 1544TIP3   OH2 4588   0.948   1.677   5.329
 1544TIP3    H1 4589   0.913   1.676   5.240
 1544TIP3    H2 4590   1.009   1.750   5.330
 1545TIP3   OH2 4591   5.027   7.140   3.610
 1545TIP3    H1 4592   4.966   7.157   3.539
 1545TIP3    H2 4593   5.114   7.150   3.571
 1546TIP3   OH2 4594   4.465   4.107   4.328
 1546TIP3    H1 4595   4.451   4.085   4.420
 1546TIP3    H2 4596   4.550   4.067   4.306
 1547TIP3   OH2 4597   6.097   7.329   1.109
 1547TIP3    H1 4598   6.149   7.387   1.164
 1547TIP3    H2 4599   6.007   7.358   1.122
 1548TIP3   OH2 4600   6.799   1.293   4.576
 1548TIP3    H1 4601   6.755   1.257   4.653
 1548TIP3    H2 4602   6.854   1.221   4.544
 1549TIP3   OH2 4603   4.918   6.982   3.311
 1549TIP3    H1 4604   4.896   7.073   3.332
 1549TIP3    H2 4605   4.834   6.936   3.316
 1550TIP3   OH2 4606   2.656   7.190   6.463
 1550TIP3    H1 4607   2.572   7.150   6.485
 1550TIP3    H2 4608   2.638   7.238   6.382
 1551TIP3   OH2 4609   1.559   6.286   0.452
 1551TIP3    H1 4610   1.540   6.257   0.541
 1551TIP3    H2 4611   1.492   6.353   0.434
 1552TIP3   OH2 4612   0.639   4.895   5.157
 1552TIP3    H1 4613   0.702   4.918   5.089
 1552TIP3    H2 4614   0.620   4.977   5.202
 1553TIP3   OH2 4615   1.162   6.229   2.085
 1553TIP3    H1 4616   1.124   6.279   2.012
 1553TIP3    H2 4617   1.242   6.276   2.107
 1554TIP3   OH2 4618   8.253   6.928   6.286
 1554TIP3    H1 4619   8.239   6.834   6.299
 1554TIP3    H2 4620   8.259   6.939   6.191
 1555TIP3   OH2 4621   7.274   5.441   4.615
 1555TIP3    H1 4622   7.232   5.404   4.693
 1555TIP3    H2 4623   7.266   5.536   4.627
 1556TIP3   OH2 4624   7.779   1.932   2.895
 1556TIP3    H1 4625   7.861   1.932   2.945
 1556TIP3    H2 4626   7.730   1.857   2.928
 1557TIP3   OH2 4627   1.945   7.190   3.748
 1557TIP3    H1 4628   1.996   7.268   3.767
 1557TIP3    H2 4629   1.894   7.213   3.670
 1558TIP3   OH2 4630   7.203   7.587   3.849
 1558TIP3    H1 4631   7.258   7.639   3.790
 1558TIP3    H2 4632   7.263   7.525   3.890
 1559TIP3   OH2 4633   2.557   4.114   1.199
 1559TIP3    H1 4634   2.643   4.122   1.240
 1559TIP3    H2 4635   2.514   4.042   1.245
 1560TIP3   OH2 4636   5.585   5.643   4.326
 1560TIP3    H1 4637   5.644   5.695   4.380
 1560TIP3    H2 4638   5.500   5.686   4.335
 1561TIP3   OH2 4639   3.636   4.829   2.179
 1561TIP3    H1 4640   3.732   4.834   2.185
 1561TIP3    H2 4641   3.610   4.910   2.135
 1562TIP3   OH2 4642   2.796   7.419   0.765
 1562TIP3    H1 4643   2.793   7.367   0.845
 1562TIP3    H2 4644   2.718   7.473   0.767
 1563TIP3   OH2 4645   2.549   1.736   0.685
 1563TIP3    H1 4646   2.525   1.783   0.606
 1563TIP3    H2 4647   2.512   1.788   0.756
 1564TIP3   OH2 4648   4.254   4.423   0.285
 1564TIP3    H1 4649   4.225   4.338   0.317
 1564TIP3    H2 4650   4.187   4.484   0.316
 1565TIP3   OH2 4651   8.043   6.250   2.222
 1565TIP3    H1 4652   8.060   6.205   2.139
 1565TIP3    H2 4653   7.948   6.249   2.231
 1566TIP3   OH2 4654   4.776   0.057   0.309
 1566TIP3    H1 4655   4.687   0.032   0.285
 1566TIP3    H2 4656   4.795   0.135   0.257
 1567TIP3   OH2 4657   1.924   0.757   0.939
 1567TIP3    H1 4658   1.879   0.787   0.860
 1567TIP3    H2 4659   1.940   0.837   0.989
 1568TIP3   OH2 4660   6.462   0.776   5.854
 1568TIP3    H1 4661   6.510   0.858   5.863
 1568TIP3    H2 4662   6.372   0.797   5.881
 1569TIP3   OH2 4663   6.319   2.944   4.268
 1569TIP3    H1 4664   6.330   3.014   4.332
 1569TIP3    H2 4665   6.328   2.988   4.183
 1570TIP3   OH2 4666   5.395   4.092   1.292
 1570TIP3    H1 4667   5.310   4.090   1.337
 1570TIP3    H2 4668   5.376   4.128   1.206
 1571TIP3   OH2 4669   1.596   4.436   4.499
 1571TIP3    H1 4670   1.541   4.360   4.519
 1571TIP3    H2 4671   1.550   4.480   4.427
 1572TIP3   OH2 4672   1.437   3.868   6.662
 1572TIP3    H1 4673   1.467   3.789   6.706
 1572TIP3    H2 4674   1.413   3.927   6.733
 1573TIP3   OH2 4675   4.289   0.098   3.933
 1573TIP3    H1 4676   4.354   0.168   3.945
 1573TIP3    H2 4677   4.277   0.062   4.021
 1574TIP3   OH2 4678   1.171   3.760   4.806
 1574TIP3    H1 4679   1.160   3.726   4.894
 1574TIP3    H2 4680   1.130   3.694   4.749
 1575TIP3   OH2 4681   7.190   7.605   3.435
 1575TIP3    H1 4682   7.239   7.687   3.442
 1575TIP3    H2 4683   7.104   7.632   3.401
 1576TIP3   OH2 4684   7.075   4.413   3.848
 1576TIP3    H1 4685   7.157   4.460   3.827
 1576TIP3    H2 4686   7.102   4.344   3.908
 1577TIP3   OH2 4687   6.597   1.835   0.578
 1577TIP3    H1 4688   6.516   1.786   0.588
 1577TIP3    H2 4689   6.594   1.870   0.489
 1578TIP3   OH2 4690   6.161   6.960   2.017
 1578TIP3    H1 4691   6.226   6.957   1.947
 1578TIP3    H2 4692   6.086   6.912   1.982
 1579TIP3   OH2 4693   7.955   2.923   0.039
 1579TIP3    H1 4694   7.959   2.982  -0.036
 1579TIP3    H2 4695   8.009   2.965   0.106
 1580TIP3   OH2 4696   3.874   3.513   3.556
 1580TIP3    H1 4697   3.956   3.522   3.508
 1580TIP3    H2 4698   3.847   3.603   3.576
 1581TIP3   OH2 4699   0.131   5.404   2.220
 1581TIP3    H1 4700   0.205   5.458   2.193
 1581TIP3    H2 4701   0.167   5.343   2.284
 1582TIP3   OH2 4702   4.186   0.214   2.908
 1582TIP3    H1 4703   4.205   0.226   2.815
 1582TIP3    H2 4704   4.192   0.302   2.945
 1583TIP3   OH2 4705   4.607   3.867   4.464
 1583TIP3    H1 4706   4.701   3.880   4.446
 1583TIP3    H2 4707   4.587   3.932   4.531
 1584TIP3   OH2 4708   3.317   2.472   0.271
 1584TIP3    H1 4709   3.229   2.491   0.303
 1584TIP3    H2 4710   3.371   2.543   0.306
 1585TIP3   OH2 4711   1.910   1.366   1.919
 1585TIP3    H1 4712   1.914   1.451   1.875
 1585TIP3    H2 4713   1.939   1.384   2.009
 1586TIP3   OH2 4714   1.703   0.218   5.758
 1586TIP3    H1 4715   1.659   0.279   5.817
 1586TIP3    H2 4716   1.727   0.144   5.813
 1587TIP3   OH2 4717   5.806   2.079   2.209
 1587TIP3    H1 4718   5.840   2.107   2.294
 1587TIP3    H2 4719   5.877   2.028   2.170
 1588TIP3   OH2 4720   4.500   4.003   3.120
 1588TIP3    H1 4721   4.527   3.915   3.094
 1588TIP3    H2 4722   4.571   4.060   3.090
 1589TIP3   OH2 4723   6.407   4.448   1.758
 1589TIP3    H1 4724   6.319   4.411   1.763
 1589TIP3    H2 4725   6.433   4.458   1.849
 1590TIP3   OH2 4726   3.506   1.946   0.902
 1590TIP3    H1 4727   3.493   1.924   0.809
 1590TIP3    H2 4728   3.600   1.957   0.911
 1591TIP3   OH2 4729   4.432   5.315   0.422
 1591TIP3    H1 4730   4.362   5.257   0.392
 1591TIP3    H2 4731   4.435   5.386   0.357
 1592TIP3   OH2 4732   4.583   2.085   6.482
 1592TIP3    H1 4733   4.598   2.078   6.387
 1592TIP3    H2 4734   4.490   2.105   6.490
 1593TIP3   OH2 4735   6.530   4.080   6.113
 1593TIP3    H1 4736   6.533   4.122   6.027
 1593TIP3    H2 4737   6.603   4.018   6.113
 1594TIP3   OH2 4738   3.991   6.541   3.183
 1594TIP3    H1 4739   3.906   6.560   3.224
 1594TIP3    H2 4740   3.971   6.481   3.112
 1595TIP3   OH2 4741   7.960   3.598   4.851
 1595TIP3    H1 4742   7.975   3.509   4.817
 1595TIP3    H2 4743   7.868   3.599   4.875
 1596TIP3   OH2 4744   0.049   3.969   4.912
 1596TIP3    H1 4745   0.044   3.875   4.896
 1596TIP3    H2 4746  -0.010   4.008   4.848
 1597TIP3   OH2 4747   3.183   3.744   1.431
 1597TIP3    H1 4748   3.257   3.799   1.460
 1597TIP3    H2 4749   3.107   3.780   1.478
 1598TIP3   OH2 4750   0.778   5.571   0.825
 1598TIP3    H1 4751   0.857   5.620   0.802
 1598TIP3    H2 4752   0.764   5.510   0.753
 1599TIP3   OH2 4753   7.581   3.917   6.286
 1599TIP3    H1 4754   7.575   3.971   6.365
 1599TIP3    H2 4755   7.642   3.846   6.310
 1600TIP3   OH2 4756   0.502   1.085   5.475
 1600TIP3    H1 4757   0.509   1.144   5.400
 1600TIP3    H2 4758   0.505   1.143   5.551
 1601TIP3   OH2 4759   5.173   7.565   2.189
 1601TIP3    H1 4760   5.081   7.587   2.204
 1601TIP3    H2 4761   5.171   7.475   2.156
 1602TIP3   OH2 4762   5.317   2.235   3.824
 1602TIP3    H1 4763   5.286   2.155   3.868
 1602TIP3    H2 4764   5.317   2.301   3.893
 1603TIP3   OH2 4765   7.921   7.161   1.477
 1603TIP3    H1 4766   7.944   7.086   1.532
 1603TIP3    H2 4767   7.914   7.125   1.388
 1604TIP3   OH2 4768   7.527   6.428   3.178
 1604TIP3    H1 4769   7.494   6.339   3.187
 1604TIP3    H2 4770   7.622   6.420   3.192
 1605TIP3   OH2 4771   4.434   2.820   2.014
 1605TIP3    H1 4772   4.348   2.851   2.044
 1605TIP3    H2 4773   4.486   2.899   2.003
 1606TIP3   OH2 4774   5.861   1.455   5.313
 1606TIP3    H1 4775   5.874   1.361   5.324
 1606TIP3    H2 4776   5.860   1.490   5.402
 1607TIP3   OH2 4777   2.928   2.168   2.623
 1607TIP3    H1 4778   2.963   2.235   2.564
 1607TIP3    H2 4779   2.994   2.098   2.622
 1608TIP3   OH2 4780   1.091   2.574   4.678
 1608TIP3    H1 4781   1.134   2.542   4.599
 1608TIP3    H2 4782   1.161   2.579   4.743
 1609TIP3   OH2 4783   8.239   7.450   1.958
 1609TIP3    H1 4784   8.218   7.517   1.893
 1609TIP3    H2 4785   8.210   7.487   2.042
 1610TIP3   OH2 4786   3.856   4.836   3.950
 1610TIP3    H1 4787   3.846   4.826   4.044
 1610TIP3    H2 4788   3.865   4.930   3.937
 1611TIP3   OH2 4789   2.282   1.506   6.711
 1611TIP3    H1 4790   2.195   1.466   6.719
 1611TIP3    H2 4791   2.341   1.440   6.748
 1612TIP3   OH2 4792   3.130   2.202   4.773
 1612TIP3    H1 4793   3.152   2.114   4.744
 1612TIP3    H2 4794   3.213   2.242   4.797
 1613TIP3   OH2 4795   3.534   1.150   4.219
 1613TIP3    H1 4796   3.536   1.067   4.266
 1613TIP3    H2 4797   3.449   1.150   4.174
 1614TIP3   OH2 4798   7.930   5.168   2.599
 1614TIP3    H1 4799   7.972   5.246   2.560
 1614TIP3    H2 4800   7.837   5.180   2.582
 1615TIP3   OH2 4801   6.752   6.644   1.150
 1615TIP3    H1 4802   6.769   6.698   1.073
 1615TIP3    H2 4803   6.659   6.625   1.146
 1616TIP3   OH2 4804   3.405   4.643   3.348
 1616TIP3    H1 4805   3.358   4.622   3.429
 1616TIP3    H2 4806   3.477   4.700   3.376
 1617TIP3   OH2 4807   5.270   4.596   0.695
 1617TIP3    H1 4808   5.234   4.625   0.612
 1617TIP3    H2 4809   5.195   4.597   0.755
 1618TIP3   OH2 4810   2.463   1.098   5.695
 1618TIP3    H1 4811   2.420   1.183   5.682
 1618TIP3    H2 4812   2.394   1.033   5.680
 1619TIP3   OH2 4813   5.597   0.547   0.987
 1619TIP3    H1 4814   5.666   0.480   0.980
 1619TIP3    H2 4815   5.521   0.499   1.020
 1620TIP3   OH2 4816   1.392   0.464   3.110
 1620TIP3    H1 4817   1.395   0.376   3.147
 1620TIP3    H2 4818   1.314   0.463   3.054
 1621TIP3   OH2 4819   3.631   5.204   4.559
 1621TIP3    H1 4820   3.640   5.260   4.482
 1621TIP3    H2 4821   3.594   5.262   4.626
 1622TIP3   OH2 4822   4.028   2.106   1.674
 1622TIP3    H1 4823   4.116   2.142   1.681
 1622TIP3    H2 4824   3.986   2.132   1.756
 1623TIP3   OH2 4825   5.899   0.050   1.559
 1623TIP3    H1 4826   5.992   0.040   1.581
 1623TIP3    H2 4827   5.860   0.089   1.637
 1624TIP3   OH2 4828   7.824   0.715   5.091
 1624TIP3    H1 4829   7.735   0.700   5.060
 1624TIP3    H2 4830   7.871   0.633   5.072
 1625TIP3   OH2 4831   5.085   3.375   0.841
 1625TIP3    H1 4832   5.072   3.360   0.747
 1625TIP3    H2 4833   5.055   3.295   0.883
 1626TIP3   OH2 4834   3.221   3.806   6.451
 1626TIP3    H1 4835   3.192   3.894   6.428
 1626TIP3    H2 4836   3.152   3.748   6.418
 1627TIP3   OH2 4837   2.607   1.103   6.224
 1627TIP3    H1 4838   2.609   1.148   6.309
 1627TIP3    H2 4839   2.556   1.024   6.240
 1628TIP3   OH2 4840   3.224   1.241   6.293
 1628TIP3    H1 4841   3.229   1.329   6.255
 1628TIP3    H2 4842   3.252   1.253   6.383
 1629TIP3   OH2 4843   5.307   2.125   6.496
 1629TIP3    H1 4844   5.359   2.155   6.571
 1629TIP3    H2 4845   5.219   2.114   6.530
 1630TIP3   OH2 4846   6.657   4.969   5.302
 1630TIP3    H1 4847   6.658   4.878   5.330
 1630TIP3    H2 4848   6.585   4.974   5.239
 1631TIP3   OH2 4849   4.084   2.210   2.883
 1631TIP3    H1 4850   4.161   2.223   2.827
 1631TIP3    H2 4851   4.049   2.126   2.856
 1632TIP3   OH2 4852   6.138   5.138   5.289
 1632TIP3    H1 4853   6.048   5.172   5.289
 1632TIP3    H2 4854   6.191   5.213   5.316
 1633TIP3   OH2 4855   4.827   0.383   0.805
 1633TIP3    H1 4856   4.878   0.460   0.778
 1633TIP3    H2 4857   4.806   0.339   0.723
 1634TIP3   OH2 4858   1.815   7.790   1.621
 1634TIP3    H1 4859   1.791   7.698   1.635
 1634TIP3    H2 4860   1.769   7.837   1.691
 1635TIP3   OH2 4861   6.204   1.286   4.083
 1635TIP3    H1 4862   6.166   1.233   4.013
 1635TIP3    H2 4863   6.195   1.376   4.053
 1636TIP3   OH2 4864   2.094   3.417   3.823
 1636TIP3    H1 4865   2.051   3.464   3.751
 1636TIP3    H2 4866   2.186   3.410   3.796
 1637TIP3   OH2 4867   5.642   2.566   2.657
 1637TIP3    H1 4868   5.651   2.540   2.565
 1637TIP3    H2 4869   5.714   2.522   2.701
 1638TIP3   OH2 4870   7.703   0.881   4.819
 1638TIP3    H1 4871   7.659   0.880   4.734
 1638TIP3    H2 4872   7.679   0.965   4.858
 1639TIP3   OH2 4873   4.936   6.571   5.803
 1639TIP3    H1 4874   5.007   6.509   5.812
 1639TIP3    H2 4875   4.955   6.640   5.867
 1640TIP3   OH2 4876   7.966   5.960   5.627
 1640TIP3    H1 4877   7.954   5.895   5.696
 1640TIP3    H2 4878   7.920   5.924   5.552
 1641TIP3   OH2 4879   4.649   3.422   4.172
 1641TIP3    H1 4880   4.657   3.399   4.079
 1641TIP3    H2 4881   4.678   3.343   4.218
 1642TIP3   OH2 4882   5.683   6.686   3.251
 1642TIP3    H1 4883   5.737   6.623   3.204
 1642TIP3    H2 4884   5.597   6.682   3.208
 1643TIP3   OH2 4885   6.072   7.249   5.501
 1643TIP3    H1 4886   6.058   7.262   5.595
 1643TIP3    H2 4887   6.071   7.154   5.490
 1644TIP3   OH2 4888   7.654   7.834   2.845
 1644TIP3    H1 4889   7.622   7.872   2.763
 1644TIP3    H2 4890   7.625   7.743   2.843
 1645TIP3   OH2 4891   7.880   5.764   0.027
 1645TIP3    H1 4892   7.832   5.710   0.090
 1645TIP3    H2 4893   7.904   5.705  -0.043
 1646TIP3   OH2 4894   0.982   7.676   3.019
 1646TIP3    H1 4895   0.951   7.766   3.011
 1646TIP3    H2 4896   1.071   7.684   3.054
 1647TIP3   OH2 4897   7.747   2.022   1.433
 1647TIP3    H1 4898   7.739   2.110   1.470
 1647TIP3    H2 4899   7.659   1.985   1.438
 1648TIP3   OH2 4900   2.678   6.336   0.557
 1648TIP3    H1 4901   2.683   6.301   0.468
 1648TIP3    H2 4902   2.589   6.370   0.564
 1649TIP3   OH2 4903   5.338   4.198   4.220
 1649TIP3    H1 4904   5.268   4.242   4.172
 1649TIP3    H2 4905   5.360   4.123   4.164
 1650TIP3   OH2 4906   3.422   4.262   5.260
 1650TIP3    H1 4907   3.477   4.295   5.190
 1650TIP3    H2 4908   3.478   4.200   5.307
 1651TIP3   OH2 4909   4.725   4.685   3.688
 1651TIP3    H1 4910   4.713   4.676   3.782
 1651TIP3    H2 4911   4.638   4.673   3.651
 1652TIP3   OH2 4912   4.746   7.252   2.931
 1652TIP3    H1 4913   4.835   7.233   2.962
 1652TIP3    H2 4914   4.754   7.251   2.835
 1653TIP3   OH2 4915   7.108   3.469   5.464
 1653TIP3    H1 4916   7.195   3.489   5.497
 1653TIP3    H2 4917   7.056   3.452   5.543
 1654TIP3   OH2 4918   1.362   2.478   3.445
 1654TIP3    H1 4919   1.305   2.528   3.503
 1654TIP3    H2 4920   1.450   2.511   3.463
 1655TIP3   OH2 4921   1.552   5.685   5.731
 1655TIP3    H1 4922   1.581   5.717   5.645
 1655TIP3    H2 4923   1.564   5.590   5.726
 1656TIP3   OH2 4924   3.478   5.674   6.435
 1656TIP3    H1 4925   3.556   5.632   6.472
 1656TIP3    H2 4926   3.408   5.610   6.448
 1657TIP3   OH2 4927   6.910   6.371   5.352
 1657TIP3    H1 4928   6.831   6.332   5.389
 1657TIP3    H2 4929   6.951   6.415   5.426
 1658TIP3   OH2 4930   1.761   6.725   4.436
 1658TIP3    H1 4931   1.819   6.735   4.511
 1658TIP3    H2 4932   1.732   6.634   4.440
 1659TIP3   OH2 4933   6.423   6.957   5.234
 1659TIP3    H1 4934   6.480   6.927   5.163
 1659TIP3    H2 4935   6.467   6.926   5.314
 1660TIP3   OH2 4936   8.294   1.691   5.200
 1660TIP3    H1 4937   8.228   1.755   5.223
 1660TIP3    H2 4938   8.257   1.643   5.127
 1661TIP3   OH2 4939   2.411   4.722   4.026
 1661TIP3    H1 4940   2.382   4.635   3.999
 1661TIP3    H2 4941   2.370   4.736   4.111
 1662TIP3   OH2 4942   2.367   1.837   6.338
 1662TIP3    H1 4943   2.356   1.829   6.243
 1662TIP3    H2 4944   2.457   1.868   6.349
 1663TIP3   OH2 4945   5.112   0.117   1.506
 1663TIP3    H1 4946   5.063   0.164   1.439
 1663TIP3    H2 4947   5.203   0.145   1.494
 1664TIP3   OH2 4948   8.081   1.680   1.694
 1664TIP3    H1 4949   8.086   1.771   1.665
 1664TIP3    H2 4950   8.172   1.650   1.696
 1665TIP3   OH2 4951   0.405   5.662   4.406
 1665TIP3    H1 4952   0.422   5.578   4.364
 1665TIP3    H2 4953   0.454   5.726   4.354
 1666TIP3   OH2 4954   1.167   7.503   0.813
 1666TIP3    H1 4955   1.075   7.515   0.788
 1666TIP3    H2 4956   1.163   7.463   0.900
 1667TIP3   OH2 4957   1.758   1.625   1.039
 1667TIP3    H1 4958   1.735   1.543   0.996
 1667TIP3    H2 4959   1.743   1.607   1.132
 1668TIP3   OH2 4960   6.794   5.495   5.706
 1668TIP3    H1 4961   6.763   5.537   5.626
 1668TIP3    H2 4962   6.714   5.459   5.746
 1669TIP3   OH2 4963   8.228   4.823   5.095
 1669TIP3    H1 4964   8.221   4.875   5.175
 1669TIP3    H2 4965   8.322   4.812   5.081
 1670TIP3   OH2 4966   4.313   1.810   2.779
 1670TIP3    H1 4967   4.354   1.783   2.697
 1670TIP3    H2 4968   4.381   1.799   2.845
 1671TIP3   OH2 4969   0.888   1.420   3.653
 1671TIP3    H1 4970   0.855   1.477   3.722
 1671TIP3    H2 4971   0.919   1.342   3.699
 1672TIP3   OH2 4972   2.266   5.011   6.715
 1672TIP3    H1 4973   2.347   4.976   6.678
 1672TIP3    H2 4974   2.197   4.978   6.657
 1673TIP3   OH2 4975   3.584   6.107   6.305
 1673TIP3    H1 4976   3.502   6.068   6.336
 1673TIP3    H2 4977   3.556   6.176   6.244
 1674TIP3   OH2 4978   6.044   5.601   1.924
 1674TIP3    H1 4979   6.033   5.639   1.837
 1674TIP3    H2 4980   5.974   5.536   1.931
 1675TIP3   OH2 4981   6.555   5.365   3.781
 1675TIP3    H1 4982   6.589   5.281   3.811
 1675TIP3    H2 4983   6.610   5.430   3.825
 1676TIP3   OH2 4984   7.557   1.223   6.458
 1676TIP3    H1 4985   7.592   1.167   6.388
 1676TIP3    H2 4986   7.582   1.178   6.539
 1677TIP3   OH2 4987   4.629   2.493   3.874
 1677TIP3    H1 4988   4.608   2.442   3.952
 1677TIP3    H2 4989   4.633   2.429   3.803
 1678TIP3   OH2 4990   6.323   5.804   1.034
 1678TIP3    H1 4991   6.401   5.750   1.021
 1678TIP3    H2 4992   6.327   5.831   1.126
 1679TIP3   OH2 4993   4.773   5.596   2.122
 1679TIP3    H1 4994   4.763   5.669   2.183
 1679TIP3    H2 4995   4.764   5.518   2.177
 1680TIP3   OH2 4996   3.324   5.529   5.561
 1680TIP3    H1 4997   3.259   5.468   5.526
 1680TIP3    H2 4998   3.408   5.492   5.534
 1681TIP3   OH2 4999   7.495   5.342   4.932
 1681TIP3    H1 5000   7.465   5.424   4.893
 1681TIP3    H2 5001   7.475   5.351   5.025
 1682TIP3   OH2 5002   8.264   5.443   0.678
 1682TIP3    H1 5003   8.262   5.354   0.711
 1682TIP3    H2 5004   8.181   5.454   0.632
 1683TIP3   OH2 5005   1.151   5.431   5.879
 1683TIP3    H1 5006   1.152   5.400   5.969
 1683TIP3    H2 5007   1.208   5.508   5.878
 1684TIP3   OH2 5008   5.330   4.128   1.027
 1684TIP3    H1 5009   5.377   4.205   0.994
 1684TIP3    H2 5010   5.340   4.063   0.958
 1685TIP3   OH2 5011   2.693   4.583   1.750
 1685TIP3    H1 5012   2.710   4.489   1.756
 1685TIP3    H2 5013   2.755   4.623   1.811
 1686TIP3   OH2 5014   2.278   6.469   0.824
 1686TIP3    H1 5015   2.316   6.394   0.868
 1686TIP3    H2 5016   2.313   6.545   0.871
 1687TIP3   OH2 5017   7.287   4.981   3.179
 1687TIP3    H1 5018   7.315   4.995   3.088
 1687TIP3    H2 5019   7.351   4.919   3.214
 1688TIP3   OH2 5020   5.532   4.899   6.122
 1688TIP3    H1 5021   5.526   4.991   6.095
 1688TIP3    H2 5022   5.624   4.877   6.111
 1689TIP3   OH2 5023   2.257   5.639   0.968
 1689TIP3    H1 5024   2.210   5.677   1.042
 1689TIP3    H2 5025   2.201   5.657   0.892
 1690TIP3   OH2 5026   0.206  -0.015   6.578
 1690TIP3    H1 5027   0.220   0.080   6.573
 1690TIP3    H2 5028   0.165  -0.028   6.663
 1691TIP3   OH2 5029   3.050   3.201   6.602
 1691TIP3    H1 5030   3.130   3.150   6.613
 1691TIP3    H2 5031   3.068   3.257   6.526
 1692TIP3   OH2 5032   4.041   5.919   2.901
 1692TIP3    H1 5033   4.050   5.829   2.871
 1692TIP3    H2 5034   3.973   5.916   2.968
 1693TIP3   OH2 5035   7.109   2.332   5.495
 1693TIP3    H1 5036   7.081   2.247   5.530
 1693TIP3    H2 5037   7.146   2.311   5.409
 1694TIP3   OH2 5038   0.750   6.807   1.554
 1694TIP3    H1 5039   0.664   6.772   1.531
 1694TIP3    H2 5040   0.761   6.786   1.646
 1695TIP3   OH2 5041   7.566   6.268   2.890
 1695TIP3    H1 5042   7.646   6.320   2.892
 1695TIP3    H2 5043   7.498   6.326   2.926
 1696TIP3   OH2 5044   1.714   3.208   5.606
 1696TIP3    H1 5045   1.782   3.144   5.626
 1696TIP3    H2 5046   1.668   3.220   5.690
 1697TIP3   OH2 5047   3.294   6.885   5.194
 1697TIP3    H1 5048   3.347   6.806   5.186
 1697TIP3    H2 5049   3.357   6.956   5.207
 1698TIP3   OH2 5050   5.534   0.048   2.998
 1698TIP3    H1 5051   5.516   0.087   2.913
 1698TIP3    H2 5052   5.551  -0.044   2.979
 1699TIP3   OH2 5053   7.277   2.765   5.977
 1699TIP3    H1 5054   7.321   2.709   6.042
 1699TIP3    H2 5055   7.324   2.848   5.981
 1700TIP3   OH2 5056   5.540   5.351   5.119
 1700TIP3    H1 5057   5.495   5.270   5.097
 1700TIP3    H2 5058   5.511   5.414   5.053
 1701TIP3   OH2 5059   7.358   2.950   1.926
 1701TIP3    H1 5060   7.437   2.898   1.939
 1701TIP3    H2 5061   7.331   2.931   1.836
 1702TIP3   OH2 5062   1.584   2.250   0.121
 1702TIP3    H1 5063   1.594   2.339   0.155
 1702TIP3    H2 5064   1.541   2.261   0.036
 1703TIP3   OH2 5065   4.214   2.918   2.127
 1703TIP3    H1 5066   4.147   2.889   2.066
 1703TIP3    H2 5067   4.211   3.014   2.123
 1704TIP3   OH2 5068   1.686   2.782   2.189
 1704TIP3    H1 5069   1.773   2.806   2.156
 1704TIP3    H2 5070   1.681   2.825   2.274
 1705TIP3   OH2 5071   6.435   4.427   4.748
 1705TIP3    H1 5072   6.498   4.493   4.718
 1705TIP3    H2 5073   6.466   4.403   4.835
 1706TIP3   OH2 5074   7.957   6.172   1.678
 1706TIP3    H1 5075   7.985   6.191   1.589
 1706TIP3    H2 5076   8.003   6.236   1.732
 1707TIP3   OH2 5077   0.784   7.283   5.768
 1707TIP3    H1 5078   0.726   7.252   5.838
 1707TIP3    H2 5079   0.752   7.372   5.749
 1708TIP3   OH2 5080   6.313   7.241   5.723
 1708TIP3    H1 5081   6.287   7.194   5.644
 1708TIP3    H2 5082   6.351   7.174   5.780
 1709TIP3   OH2 5083   4.728   7.176   0.904
 1709TIP3    H1 5084   4.810   7.198   0.947
 1709TIP3    H2 5085   4.669   7.249   0.925
 1710TIP3   OH2 5086   6.531   6.518   2.058
 1710TIP3    H1 5087   6.477   6.460   2.112
 1710TIP3    H2 5088   6.530   6.602   2.105
 1711TIP3   OH2 5089   0.148   1.246   6.404
 1711TIP3    H1 5090   0.213   1.191   6.362
 1711TIP3    H2 5091   0.198   1.312   6.452
 1712TIP3   OH2 5092   8.134   5.262   3.537
 1712TIP3    H1 5093   8.225   5.292   3.543
 1712TIP3    H2 5094   8.096   5.283   3.622
 1713TIP3   OH2 5095   3.983   0.875   0.673
 1713TIP3    H1 5096   3.981   0.971   0.676
 1713TIP3    H2 5097   3.902   0.851   0.630
 1714TIP3   OH2 5098   4.547   0.726   3.680
 1714TIP3    H1 5099   4.634   0.717   3.641
 1714TIP3    H2 5100   4.504   0.793   3.626
 1715TIP3   OH2 5101   0.117   3.168   5.793
 1715TIP3    H1 5102   0.091   3.252   5.756
 1715TIP3    H2 5103   0.137   3.186   5.884
 1716TIP3   OH2 5104   3.382   4.875   4.749
 1716TIP3    H1 5105   3.440   4.938   4.791
 1716TIP3    H2 5106   3.317   4.928   4.702
 1717TIP3   OH2 5107   1.279   2.580   1.493
 1717TIP3    H1 5108   1.345   2.647   1.508
 1717TIP3    H2 5109   1.266   2.540   1.580
 1718TIP3   OH2 5110   4.325   6.910   2.191
 1718TIP3    H1 5111   4.292   6.903   2.102
 1718TIP3    H2 5112   4.409   6.957   2.182
 1719TIP3   OH2 5113   3.747   4.358   4.515
 1719TIP3    H1 5114   3.678   4.297   4.540
 1719TIP3    H2 5115   3.704   4.443   4.510
 1720TIP3   OH2 5116   0.736   6.887   2.112
 1720TIP3    H1 5117   0.750   6.961   2.053
 1720TIP3    H2 5118   0.818   6.839   2.111
 1721TIP3   OH2 5119   7.257   6.296   4.738
 1721TIP3    H1 5120   7.172   6.339   4.734
 1721TIP3    H2 5121   7.301   6.333   4.814
 1722TIP3   OH2 5122   5.943   3.178   0.181
 1722TIP3    H1 5123   5.941   3.089   0.219
 1722TIP3    H2 5124   5.939   3.163   0.087
 1723TIP3   OH2 5125   2.067   3.266   0.443
 1723TIP3    H1 5126   1.986   3.291   0.399
 1723TIP3    H2 5127   2.129   3.335   0.420
 1724TIP3   OH2 5128   6.742   0.081   3.347
 1724TIP3    H1 5129   6.748   0.000   3.397
 1724TIP3    H2 5130   6.681   0.136   3.396
 1725TIP3   OH2 5131   7.808   7.833   5.325
 1725TIP3    H1 5132   7.894   7.848   5.365
 1725TIP3    H2 5133   7.812   7.743   5.293
 1726TIP3   OH2 5134   5.229   6.524   0.231
 1726TIP3    H1 5135   5.319   6.511   0.260
 1726TIP3    H2 5136   5.179   6.456   0.276
 1727TIP3   OH2 5137   0.869   2.041   1.125
 1727TIP3    H1 5138   0.811   1.970   1.150
 1727TIP3    H2 5139   0.957   2.009   1.146
 1728TIP3   OH2 5140   6.856   6.937   3.231
 1728TIP3    H1 5141   6.825   6.941   3.321
 1728TIP3    H2 5142   6.804   6.867   3.191
 1729TIP3   OH2 5143   3.108   5.769   4.675
 1729TIP3    H1 5144   3.061   5.804   4.751
 1729TIP3    H2 5145   3.154   5.844   4.638
 1730TIP3   OH2 5146   3.643   4.692   0.693
 1730TIP3    H1 5147   3.556   4.731   0.703
 1730TIP3    H2 5148   3.686   4.708   0.777
 1731TIP3   OH2 5149   6.642   4.656   0.905
 1731TIP3    H1 5150   6.722   4.705   0.924
 1731TIP3    H2 5151   6.635   4.594   0.978
 1732TIP3   OH2 5152   3.526   7.671   4.089
 1732TIP3    H1 5153   3.509   7.695   4.180
 1732TIP3    H2 5154   3.441   7.674   4.046
 1733TIP3   OH2 5155   1.040   2.822   1.376
 1733TIP3    H1 5156   0.992   2.752   1.419
 1733TIP3    H2 5157   1.018   2.900   1.427
 1734TIP3   OH2 5158   5.489   7.469   4.720
 1734TIP3    H1 5159   5.395   7.481   4.709
 1734TIP3    H2 5160   5.503   7.375   4.713
 1735TIP3   OH2 5161   0.562   6.790   5.556
 1735TIP3    H1 5162   0.541   6.873   5.515
 1735TIP3    H2 5163   0.495   6.729   5.524
 1736TIP3   OH2 5164   2.411   2.810   1.449
 1736TIP3    H1 5165   2.380   2.755   1.521
 1736TIP3    H2 5166   2.375   2.897   1.468
 1737TIP3   OH2 5167   7.490   1.086   0.813
 1737TIP3    H1 5168   7.487   0.994   0.839
 1737TIP3    H2 5169   7.573   1.095   0.766
 1738TIP3   OH2 5170   6.724   7.314   5.741
 1738TIP3    H1 5171   6.768   7.397   5.755
 1738TIP3    H2 5172   6.735   7.295   5.648
 1739TIP3   OH2 5173   5.249   3.992   3.069
 1739TIP3    H1 5174   5.322   3.946   3.110
 1739TIP3    H2 5175   5.270   3.991   2.976
 1740TIP3   OH2 5176   0.790   2.717   6.519
 1740TIP3    H1 5177   0.725   2.777   6.484
 1740TIP3    H2 5178   0.839   2.769   6.583
 1741TIP3   OH2 5179   5.636   1.155   3.757
 1741TIP3    H1 5180   5.633   1.211   3.680
 1741TIP3    H2 5181   5.571   1.193   3.817
 1742TIP3   OH2 5182   4.601   7.706   6.434
 1742TIP3    H1 5183   4.513   7.737   6.452
 1742TIP3    H2 5184   4.609   7.623   6.482
 1743TIP3   OH2 5185   0.975   3.183   3.859
 1743TIP3    H1 5186   1.016   3.105   3.896
 1743TIP3    H2 5187   0.989   3.175   3.764
 1744TIP3   OH2 5188   6.162   6.113   0.385
 1744TIP3    H1 5189   6.078   6.154   0.367
 1744TIP3    H2 5190   6.227   6.181   0.368
 1745TIP3   OH2 5191   1.634   1.457   5.744
 1745TIP3    H1 5192   1.638   1.483   5.652
 1745TIP3    H2 5193   1.627   1.362   5.742
 1746TIP3   OH2 5194   3.030   5.596   0.572
 1746TIP3    H1 5195   3.009   5.686   0.547
 1746TIP3    H2 5196   2.945   5.552   0.577
 1747TIP3   OH2 5197   1.324   6.920   2.902
 1747TIP3    H1 5198   1.281   6.844   2.863
 1747TIP3    H2 5199   1.397   6.883   2.952
 1748TIP3   OH2 5200   8.008   7.761   4.189
 1748TIP3    H1 5201   8.074   7.703   4.153
 1748TIP3    H2 5202   7.971   7.806   4.113
 1749TIP3   OH2 5203   1.374   6.464   0.556
 1749TIP3    H1 5204   1.332   6.546   0.532
 1749TIP3    H2 5205   1.324   6.432   0.632
 1750TIP3   OH2 5206   7.007   5.396   1.227
 1750TIP3    H1 5207   7.001   5.440   1.142
 1750TIP3    H2 5208   6.979   5.306   1.209
 1751TIP3   OH2 5209   1.464   2.788   3.202
 1751TIP3    H1 5210   1.429   2.876   3.191
 1751TIP3    H2 5211   1.545   2.788   3.152
 1752TIP3   OH2 5212   6.683   7.778   3.156
 1752TIP3    H1 5213   6.598   7.777   3.201
 1752TIP3    H2 5214   6.668   7.832   3.079
 1753TIP3   OH2 5215   1.264   0.872   0.607
 1753TIP3    H1 5216   1.185   0.824   0.632
 1753TIP3    H2 5217   1.230   0.954   0.569
 1754TIP3   OH2 5218   7.800   0.548   0.474
 1754TIP3    H1 5219   7.843   0.468   0.503
 1754TIP3    H2 5220   7.708   0.535   0.495
 1755TIP3   OH2 5221   6.912   3.887   5.748
 1755TIP3    H1 5222   6.840   3.910   5.689
 1755TIP3    H2 5223   6.986   3.869   5.689
 1756TIP3   OH2 5224   5.393   3.499   2.798
 1756TIP3    H1 5225   5.310   3.453   2.791
 1756TIP3    H2 5226   5.370   3.586   2.831
 1757TIP3   OH2 5227   4.677   6.837   1.565
 1757TIP3    H1 5228   4.661   6.927   1.536
 1757TIP3    H2 5229   4.602   6.788   1.531
 1758TIP3   OH2 5230   7.707   3.025   0.937
 1758TIP3    H1 5231   7.747   3.013   1.023
 1758TIP3    H2 5232   7.613   3.027   0.954
 1759TIP3   OH2 5233   1.863   4.845   3.273
 1759TIP3    H1 5234   1.843   4.795   3.352
 1759TIP3    H2 5235   1.900   4.780   3.212
 1760TIP3   OH2 5236   6.813   4.233   1.356
 1760TIP3    H1 5237   6.790   4.269   1.442
 1760TIP3    H2 5238   6.875   4.296   1.320
 1761TIP3   OH2 5239   5.116   7.754   5.737
 1761TIP3    H1 5240   5.185   7.736   5.674
 1761TIP3    H2 5241   5.152   7.728   5.822
 1762TIP3   OH2 5242   6.456   6.383   6.215
 1762TIP3    H1 5243   6.539   6.340   6.197
 1762TIP3    H2 5244   6.463   6.412   6.306
 1763TIP3   OH2 5245   6.472   7.667   1.791
 1763TIP3    H1 5246   6.480   7.579   1.754
 1763TIP3    H2 5247   6.490   7.726   1.717
 1764TIP3   OH2 5248   1.638   2.149   4.446
 1764TIP3    H1 5249   1.674   2.195   4.371
 1764TIP3    H2 5250   1.711   2.143   4.508
 1765TIP3   OH2 5251   5.474   2.674   4.627
 1765TIP3    H1 5252   5.536   2.706   4.561
 1765TIP3    H2 5253   5.401   2.639   4.577
 1766TIP3   OH2 5254   6.356   7.246   6.710
 1766TIP3    H1 5255   6.307   7.219   6.631
 1766TIP3    H2 5256   6.316   7.195   6.781
 1767TIP3   OH2 5257   7.474   2.457   2.265
 1767TIP3    H1 5258   7.440   2.520   2.201
 1767TIP3    H2 5259   7.409   2.457   2.336
 1768TIP3   OH2 5260   1.868   3.787   1.399
 1768TIP3    H1 5261   1.933   3.781   1.469
 1768TIP3    H2 5262   1.830   3.874   1.410
 1769TIP3   OH2 5263   5.340   2.313   0.763
 1769TIP3    H1 5264   5.350   2.318   0.668
 1769TIP3    H2 5265   5.246   2.324   0.778
 1770TIP3   OH2 5266   5.209   7.232   1.229
 1770TIP3    H1 5267   5.200   7.192   1.142
 1770TIP3    H2 5268   5.119   7.238   1.262
 1771TIP3   OH2 5269   5.645   1.850   4.504
 1771TIP3    H1 5270   5.655   1.910   4.430
 1771TIP3    H2 5271   5.595   1.899   4.569
 1772TIP3   OH2 5272   4.624   2.101   2.273
 1772TIP3    H1 5273   4.681   2.080   2.199
 1772TIP3    H2 5274   4.636   2.027   2.333
 1773TIP3   OH2 5275   1.900   5.101   5.453
 1773TIP3    H1 5276   1.806   5.099   5.472
 1773TIP3    H2 5277   1.917   5.017   5.409
 1774TIP3   OH2 5278   2.340   0.582   5.108
 1774TIP3    H1 5279   2.334   0.542   5.021
 1774TIP3    H2 5280   2.425   0.554   5.142
 1775TIP3   OH2 5281   4.992   1.101   3.020
 1775TIP3    H1 5282   5.000   1.011   2.987
 1775TIP3    H2 5283   5.082   1.126   3.042
 1776TIP3   OH2 5284   6.049   1.341   1.660
 1776TIP3    H1 5285   6.110   1.317   1.730
 1776TIP3    H2 5286   6.106   1.376   1.590
 1777TIP3   OH2 5287   0.662   3.127   6.180
 1777TIP3    H1 5288   0.736   3.076   6.147
 1777TIP3    H2 5289   0.656   3.202   6.122
 1778TIP3   OH2 5290   3.164   5.575   2.275
 1778TIP3    H1 5291   3.237   5.609   2.224
 1778TIP3    H2 5292   3.135   5.497   2.227
 1779TIP3   OH2 5293   2.662   7.792   3.902
 1779TIP3    H1 5294   2.713   7.832   3.832
 1779TIP3    H2 5295   2.651   7.701   3.873
 1780TIP3   OH2 5296   6.269   4.873   1.587
 1780TIP3    H1 5297   6.194   4.875   1.528
 1780TIP3    H2 5298   6.326   4.805   1.551
 1781TIP3   OH2 5299   4.565   7.086   3.710
 1781TIP3    H1 5300   4.603   7.121   3.791
 1781TIP3    H2 5301   4.637   7.036   3.670
 1782TIP3   OH2 5302   3.120   3.813   4.486
 1782TIP3    H1 5303   3.131   3.901   4.451
 1782TIP3    H2 5304   3.161   3.816   4.572
 1783TIP3   OH2 5305   5.177   0.212   3.176
 1783TIP3    H1 5306   5.216   0.295   3.149
 1783TIP3    H2 5307   5.228   0.186   3.253
 1784TIP3   OH2 5308   3.196   6.727   2.193
 1784TIP3    H1 5309   3.284   6.698   2.167
 1784TIP3    H2 5310   3.142   6.714   2.115
 1785TIP3   OH2 5311   1.007   7.508   0.077
 1785TIP3    H1 5312   1.049   7.446   0.018
 1785TIP3    H2 5313   1.053   7.591   0.062
 1786TIP3   OH2 5314   4.777   6.439   1.775
 1786TIP3    H1 5315   4.762   6.468   1.685
 1786TIP3    H2 5316   4.793   6.521   1.823
 1787TIP3   OH2 5317   0.059   2.069   3.337
 1787TIP3    H1 5318   0.078   2.012   3.262
 1787TIP3    H2 5319   0.136   2.125   3.345
 1788TIP3   OH2 5320   1.751   0.817   0.737
 1788TIP3    H1 5321   1.807   0.801   0.661
 1788TIP3    H2 5322   1.665   0.833   0.700
 1789TIP3   OH2 5323   8.006   5.491   0.608
 1789TIP3    H1 5324   7.955   5.414   0.583
 1789TIP3    H2 5325   8.002   5.548   0.531
 1790TIP3   OH2 5326   8.026   5.641   2.796
 1790TIP3    H1 5327   7.973   5.720   2.789
 1790TIP3    H2 5328   7.985   5.579   2.736
 1791TIP3   OH2 5329   4.972   7.177   6.044
 1791TIP3    H1 5330   5.006   7.263   6.069
 1791TIP3    H2 5331   4.904   7.197   5.979
 1792TIP3   OH2 5332   4.462   0.977   2.840
 1792TIP3    H1 5333   4.435   0.960   2.930
 1792TIP3    H2 5334   4.453   0.893   2.796
 1793TIP3   OH2 5335   2.673   1.641   1.340
 1793TIP3    H1 5336   2.737   1.660   1.273
 1793TIP3    H2 5337   2.678   1.715   1.400
 1794TIP3   OH2 5338   0.389   7.140   2.926
 1794TIP3    H1 5339   0.359   7.177   2.842
 1794TIP3    H2 5340   0.471   7.095   2.904
 1795TIP3   OH2 5341   4.123   0.152   6.619
 1795TIP3    H1 5342   4.088   0.063   6.616
 1795TIP3    H2 5343   4.046   0.209   6.614
 1796TIP3   OH2 5344   6.378   0.825   1.775
 1796TIP3    H1 5345   6.413   0.744   1.738
 1796TIP3    H2 5346   6.295   0.799   1.815
 1797TIP3   OH2 5347   0.670   1.483   5.288
 1797TIP3    H1 5348   0.733   1.481   5.360
 1797TIP3    H2 5349   0.649   1.575   5.276
 1798TIP3   OH2 5350   6.872   1.959   4.191
 1798TIP3    H1 5351   6.804   1.923   4.135
 1798TIP3    H2 5352   6.824   2.008   4.258
 1799TIP3   OH2 5353   4.154   3.840   3.901
 1799TIP3    H1 5354   4.172   3.933   3.917
 1799TIP3    H2 5355   4.236   3.796   3.925
 1800TIP3   OH2 5356   3.523   3.595   1.753
 1800TIP3    H1 5357   3.535   3.514   1.802
 1800TIP3    H2 5358   3.574   3.661   1.801
 1801TIP3   OH2 5359   2.372   6.816   5.219
 1801TIP3    H1 5360   2.445   6.815   5.158
 1801TIP3    H2 5361   2.386   6.894   5.273
 1802TIP3   OH2 5362   3.225   2.537   3.176
 1802TIP3    H1 5363   3.255   2.627   3.164
 1802TIP3    H2 5364   3.188   2.535   3.264
 1803TIP3   OH2 5365   8.066   0.725   3.391
 1803TIP3    H1 5366   7.998   0.660   3.405
 1803TIP3    H2 5367   8.072   0.771   3.475
 1804TIP3   OH2 5368   7.206   7.197   1.877
 1804TIP3    H1 5369   7.118   7.202   1.840
 1804TIP3    H2 5370   7.213   7.273   1.934
 1805TIP3   OH2 5371   5.394   4.764   4.738
 1805TIP3    H1 5372   5.415   4.847   4.782
 1805TIP3    H2 5373   5.335   4.789   4.667
 1806TIP3   OH2 5374   1.136   1.524   3.516
 1806TIP3    H1 5375   1.145   1.581   3.593
 1806TIP3    H2 5376   1.048   1.488   3.522
 1807TIP3   OH2 5377   0.784   5.216   0.114
 1807TIP3    H1 5378   0.837   5.137   0.104
 1807TIP3    H2 5379   0.836   5.272   0.171
 1808TIP3   OH2 5380   2.978   5.272   1.572
 1808TIP3    H1 5381   2.904   5.258   1.631
 1808TIP3    H2 5382   2.961   5.213   1.498
 1809TIP3   OH2 5383   4.099   0.689   4.431
 1809TIP3    H1 5384   4.069   0.684   4.522
 1809TIP3    H2 5385   4.174   0.630   4.427
 1810TIP3   OH2 5386   3.954   6.970   5.929
 1810TIP3    H1 5387   3.992   6.962   6.017
 1810TIP3    H2 5388   4.019   6.931   5.871
 1811TIP3   OH2 5389   1.947   3.275   0.110
 1811TIP3    H1 5390   1.940   3.347   0.172
 1811TIP3    H2 5391   1.880   3.213   0.138
 1812TIP3   OH2 5392   6.540   5.979   1.548
 1812TIP3    H1 5393   6.595   5.901   1.545
 1812TIP3    H2 5394   6.598   6.051   1.521
 1813TIP3   OH2 5395   0.196   2.508   6.283
 1813TIP3    H1 5396   0.266   2.533   6.221
 1813TIP3    H2 5397   0.218   2.419   6.309
 1814TIP3   OH2 5398   7.925   3.055   4.501
 1814TIP3    H1 5399   7.972   3.085   4.423
 1814TIP3    H2 5400   7.983   2.990   4.540
 1815TIP3   OH2 5401   3.917   3.318   0.241
 1815TIP3    H1 5402   4.010   3.329   0.256
 1815TIP3    H2 5403   3.911   3.275   0.155
 1816TIP3   OH2 5404   3.654   1.998   2.008
 1816TIP3    H1 5405   3.607   1.978   2.090
 1816TIP3    H2 5406   3.589   1.984   1.940
 1817TIP3   OH2 5407   3.542   7.597   2.245
 1817TIP3    H1 5408   3.609   7.531   2.230
 1817TIP3    H2 5409   3.477   7.553   2.300
 1818TIP3   OH2 5410   6.672   2.442   0.757
 1818TIP3    H1 5411   6.678   2.439   0.852
 1818TIP3    H2 5412   6.604   2.379   0.735
 1819TIP3   OH2 5413   0.890   0.049   3.026
 1819TIP3    H1 5414   0.866   0.139   3.048
 1819TIP3    H2 5415   0.938   0.056   2.943
 1820TIP3   OH2 5416   5.311   2.414   4.833
 1820TIP3    H1 5417   5.284   2.497   4.794
 1820TIP3    H2 5418   5.266   2.347   4.782
 1821TIP3   OH2 5419   6.449   4.095   6.507
 1821TIP3    H1 5420   6.536   4.086   6.468
 1821TIP3    H2 5421   6.464   4.140   6.590
 1822TIP3   OH2 5422   1.212   3.431   2.844
 1822TIP3    H1 5423   1.299   3.409   2.876
 1822TIP3    H2 5424   1.210   3.526   2.842
 1823TIP3   OH2 5425   1.568   1.058   3.879
 1823TIP3    H1 5426   1.601   1.112   3.951
 1823TIP3    H2 5427   1.506   0.998   3.921
 1824TIP3   OH2 5428   2.338   0.025   1.916
 1824TIP3    H1 5429   2.291   0.081   1.978
 1824TIP3    H2 5430   2.291  -0.059   1.918
 1825TIP3   OH2 5431   7.775   3.336   1.517
 1825TIP3    H1 5432   7.769   3.266   1.452
 1825TIP3    H2 5433   7.851   3.314   1.570
 1826TIP3   OH2 5434   6.598   2.882   1.317
 1826TIP3    H1 5435   6.557   2.888   1.230
 1826TIP3    H2 5436   6.544   2.819   1.364
 1827TIP3   OH2 5437   6.546   0.666   6.333
 1827TIP3    H1 5438   6.497   0.689   6.412
 1827TIP3    H2 5439   6.514   0.727   6.266
 1828TIP3   OH2 5440   6.950   6.455   5.617
 1828TIP3    H1 5441   7.022   6.442   5.679
 1828TIP3    H2 5442   6.871   6.447   5.671
 1829TIP3   OH2 5443   2.589   3.630   3.190
 1829TIP3    H1 5444   2.621   3.720   3.189
 1829TIP3    H2 5445   2.525   3.627   3.119
 1830TIP3   OH2 5446   8.267   7.354   1.000
 1830TIP3    H1 5447   8.245   7.390   0.914
 1830TIP3    H2 5448   8.332   7.286   0.981
 1831TIP3   OH2 5449   1.526   6.142   4.448
 1831TIP3    H1 5450   1.549   6.235   4.457
 1831TIP3    H2 5451   1.595   6.106   4.392
 1832TIP3   OH2 5452   0.611   0.376   6.338
 1832TIP3    H1 5453   0.599   0.467   6.366
 1832TIP3    H2 5454   0.609   0.380   6.243
 1833TIP3   OH2 5455   1.218   6.121   2.693
 1833TIP3    H1 5456   1.276   6.077   2.755
 1833TIP3    H2 5457   1.134   6.076   2.703
 1834TIP3   OH2 5458   2.024   5.954   6.516
 1834TIP3    H1 5459   1.969   5.908   6.452
 1834TIP3    H2 5460   1.993   6.044   6.513
 1835TIP3   OH2 5461   1.837   1.798   4.262
 1835TIP3    H1 5462   1.933   1.793   4.264
 1835TIP3    H2 5463   1.811   1.809   4.353
 1836TIP3   OH2 5464   0.059   7.511   5.193
 1836TIP3    H1 5465   0.084   7.425   5.159
 1836TIP3    H2 5466   0.136   7.565   5.179
 1837TIP3   OH2 5467   5.583   5.615   1.954
 1837TIP3    H1 5468   5.627   5.530   1.942
 1837TIP3    H2 5469   5.490   5.595   1.948
 1838TIP3   OH2 5470   5.742   7.027   5.065
 1838TIP3    H1 5471   5.676   7.015   5.133
 1838TIP3    H2 5472   5.712   7.105   5.017
 1839TIP3   OH2 5473   7.748   5.719   0.537
 1839TIP3    H1 5474   7.687   5.660   0.582
 1839TIP3    H2 5475   7.719   5.807   0.561
 1840TIP3   OH2 5476   1.581   0.306   4.977
 1840TIP3    H1 5477   1.666   0.285   4.939
 1840TIP3    H2 5478   1.602   0.337   5.066
 1841TIP3   OH2 5479   1.887   7.781   2.572
 1841TIP3    H1 5480   1.931   7.865   2.577
 1841TIP3    H2 5481   1.891   7.746   2.661
 1842TIP3   OH2 5482   5.281   7.237   5.794
 1842TIP3    H1 5483   5.217   7.166   5.791
 1842TIP3    H2 5484   5.229   7.317   5.785
 1843TIP3   OH2 5485   3.536   2.072   6.718
 1843TIP3    H1 5486   3.518   1.997   6.775
 1843TIP3    H2 5487   3.468   2.068   6.651
 1844TIP3   OH2 5488   7.980   3.628   5.180
 1844TIP3    H1 5489   7.953   3.690   5.248
 1844TIP3    H2 5490   7.989   3.681   5.101
 1845TIP3   OH2 5491   5.126   3.813   5.097
 1845TIP3    H1 5492   5.149   3.789   5.187
 1845TIP3    H2 5493   5.159   3.741   5.043
 1846TIP3   OH2 5494   4.777   4.648   4.231
 1846TIP3    H1 5495   4.690   4.617   4.207
 1846TIP3    H2 5496   4.822   4.571   4.266
 1847TIP3   OH2 5497   7.028   3.320   5.893
 1847TIP3    H1 5498   6.946   3.270   5.889
 1847TIP3    H2 5499   7.002   3.408   5.917
 1848TIP3   OH2 5500   8.147   1.321   4.642
 1848TIP3    H1 5501   8.224   1.335   4.698
 1848TIP3    H2 5502   8.090   1.264   4.693
 1849TIP3   OH2 5503   7.531   3.417   2.042
 1849TIP3    H1 5504   7.505   3.467   2.119
 1849TIP3    H2 5505   7.470   3.344   2.038
 1850TIP3   OH2 5506   4.225   7.028   2.658
 1850TIP3    H1 5507   4.138   6.989   2.665
 1850TIP3    H2 5508   4.276   6.965   2.608
 1851TIP3   OH2 5509   7.370   2.794   4.335
 1851TIP3    H1 5510   7.450   2.755   4.371
 1851TIP3    H2 5511   7.385   2.888   4.339
 1852TIP3   OH2 5512   4.145   1.550   3.782
 1852TIP3    H1 5513   4.148   1.491   3.857
 1852TIP3    H2 5514   4.087   1.621   3.809
 1853TIP3   OH2 5515   5.472   6.789   2.598
 1853TIP3    H1 5516   5.415   6.724   2.558
 1853TIP3    H2 5517   5.548   6.740   2.629
 1854TIP3   OH2 5518   4.084   2.336   2.067
 1854TIP3    H1 5519   4.074   2.256   2.016
 1854TIP3    H2 5520   3.995   2.357   2.096
 1855TIP3   OH2 5521   2.877   0.608   4.671
 1855TIP3    H1 5522   2.927   0.570   4.744
 1855TIP3    H2 5523   2.942   0.622   4.602
 1856TIP3   OH2 5524   4.226   5.840   1.514
 1856TIP3    H1 5525   4.320   5.854   1.513
 1856TIP3    H2 5526   4.204   5.831   1.606
 1857TIP3   OH2 5527   6.812   2.339   5.492
 1857TIP3    H1 5528   6.902   2.369   5.505
 1857TIP3    H2 5529   6.816   2.284   5.415
 1858TIP3   OH2 5530   1.784   3.296   3.980
 1858TIP3    H1 5531   1.829   3.255   4.054
 1858TIP3    H2 5532   1.778   3.227   3.914
 1859TIP3   OH2 5533   6.692   1.215   2.575
 1859TIP3    H1 5534   6.636   1.284   2.612
 1859TIP3    H2 5535   6.683   1.142   2.636
 1860TIP3   OH2 5536   6.719   4.175   2.537
 1860TIP3    H1 5537   6.763   4.256   2.511
 1860TIP3    H2 5538   6.636   4.176   2.489
 1861TIP3   OH2 5539   2.747   6.574   1.349
 1861TIP3    H1 5540   2.829   6.542   1.387
 1861TIP3    H2 5541   2.772   6.607   1.263
 1862TIP3   OH2 5542   5.467   1.017   2.408
 1862TIP3    H1 5543   5.451   1.092   2.464
 1862TIP3    H2 5544   5.562   1.013   2.400
 1863TIP3   OH2 5545   3.416   5.871   3.265
 1863TIP3    H1 5546   3.454   5.811   3.329
 1863TIP3    H2 5547   3.321   5.863   3.278
 1864TIP3   OH2 5548   3.278   1.120   0.092
 1864TIP3    H1 5549   3.331   1.142   0.016
 1864TIP3    H2 5550   3.297   1.027   0.108
 1865TIP3   OH2 5551   2.223   4.574   1.677
 1865TIP3    H1 5552   2.226   4.484   1.645
 1865TIP3    H2 5553   2.290   4.577   1.746
 1866TIP3   OH2 5554   5.931   5.051   0.655
 1866TIP3    H1 5555   5.901   5.035   0.566
 1866TIP3    H2 5556   6.023   5.028   0.654
 1867TIP3   OH2 5557   7.142   1.926   3.453
 1867TIP3    H1 5558   7.112   1.840   3.425
 1867TIP3    H2 5559   7.224   1.910   3.498
 1868TIP3   OH2 5560   4.096   6.121   2.268
 1868TIP3    H1 5561   4.122   6.185   2.334
 1868TIP3    H2 5562   4.126   6.037   2.302
 1869TIP3   OH2 5563   0.340   1.325   2.375
 1869TIP3    H1 5564   0.378   1.278   2.300
 1869TIP3    H2 5565   0.274   1.266   2.410
 1870TIP3   OH2 5566   5.935   2.306   3.051
 1870TIP3    H1 5567   5.912   2.298   3.144
 1870TIP3    H2 5568   6.031   2.312   3.051
 1871TIP3   OH2 5569   4.857   6.067   0.196
 1871TIP3    H1 5570   4.776   6.099   0.235
 1871TIP3    H2 5571   4.920   6.066   0.268
 1872TIP3   OH2 5572   5.851   4.929   0.379
 1872TIP3    H1 5573   5.823   4.890   0.296
 1872TIP3    H2 5574   5.771   4.968   0.415
 1873TIP3   OH2 5575   7.480   6.695   1.747
 1873TIP3    H1 5576   7.479   6.687   1.842
 1873TIP3    H2 5577   7.416   6.630   1.717
 1874TIP3   OH2 5578   4.240   7.033   0.514
 1874TIP3    H1 5579   4.240   7.124   0.482
 1874TIP3    H2 5580   4.298   6.987   0.454
 1875TIP3   OH2 5581   4.845   4.288   5.283
 1875TIP3    H1 5582   4.796   4.309   5.362
 1875TIP3    H2 5583   4.779   4.280   5.215
 1876TIP3   OH2 5584   3.639   3.922   4.333
 1876TIP3    H1 5585   3.714   3.863   4.322
 1876TIP3    H2 5586   3.656   3.994   4.271
 1877TIP3   OH2 5587   6.793   6.004   2.397
 1877TIP3    H1 5588   6.857   6.011   2.327
 1877TIP3    H2 5589   6.709   6.024   2.355
 1878TIP3   OH2 5590   6.319   1.488   2.973
 1878TIP3    H1 5591   6.286   1.540   2.900
 1878TIP3    H2 5592   6.355   1.553   3.034
 1879TIP3   OH2 5593   3.190   4.206   4.699
 1879TIP3    H1 5594   3.286   4.206   4.694
 1879TIP3    H2 5595   3.169   4.279   4.757
 1880TIP3   OH2 5596   6.923   2.304   5.009
 1880TIP3    H1 5597   7.017   2.288   5.005
 1880TIP3    H2 5598   6.884   2.228   4.967
 1881TIP3   OH2 5599   2.395   4.101   2.374
 1881TIP3    H1 5600   2.450   4.161   2.424
 1881TIP3    H2 5601   2.313   4.147   2.363
 1882TIP3   OH2 5602   0.306   1.796   2.554
 1882TIP3    H1 5603   0.401   1.796   2.542
 1882TIP3    H2 5604   0.275   1.865   2.494
 1883TIP3   OH2 5605   4.902   3.530   2.867
 1883TIP3    H1 5606   4.815   3.500   2.840
 1883TIP3    H2 5607   4.886   3.594   2.936
 1884TIP3   OH2 5608   4.619   1.725   0.976
 1884TIP3    H1 5609   4.536   1.696   1.014
 1884TIP3    H2 5610   4.686   1.674   1.022
 1885TIP3   OH2 5611   3.456   3.673   6.449
 1885TIP3    H1 5612   3.533   3.730   6.448
 1885TIP3    H2 5613   3.384   3.729   6.419
 1886TIP3   OH2 5614   5.105   0.024   1.765
 1886TIP3    H1 5615   5.028   0.060   1.810
 1886TIP3    H2 5616   5.097   0.053   1.675
 1887TIP3   OH2 5617   5.746   5.691   0.381
 1887TIP3    H1 5618   5.812   5.628   0.408
 1887TIP3    H2 5619   5.675   5.638   0.344
 1888TIP3   OH2 5620   0.499   5.872   2.059
 1888TIP3    H1 5621   0.539   5.939   2.002
 1888TIP3    H2 5622   0.498   5.793   2.006
 1889TIP3   OH2 5623   0.074   3.522   4.158
 1889TIP3    H1 5624   0.069   3.579   4.235
 1889TIP3    H2 5625   0.114   3.441   4.189
 1890TIP3   OH2 5626   0.088   1.250   0.342
 1890TIP3    H1 5627   0.037   1.320   0.383
 1890TIP3    H2 5628   0.045   1.236   0.258
 1891TIP3   OH2 5629   5.047   2.102   6.630
 1891TIP3    H1 5630   5.075   2.043   6.700
 1891TIP3    H2 5631   4.960   2.130   6.657
 1892TIP3   OH2 5632   7.932   6.169   5.804
 1892TIP3    H1 5633   7.991   6.141   5.734
 1892TIP3    H2 5634   7.845   6.142   5.774
 1893TIP3   OH2 5635   5.895   0.506   6.201
 1893TIP3    H1 5636   5.862   0.438   6.142
 1893TIP3    H2 5637   5.888   0.468   6.288
 1894TIP3   OH2 5638   3.989   4.818   2.936
 1894TIP3    H1 5639   4.061   4.780   2.986
 1894TIP3    H2 5640   3.916   4.758   2.951
 1895TIP3   OH2 5641   6.867   6.983   2.662
 1895TIP3    H1 5642   6.812   7.046   2.613
 1895TIP3    H2 5643   6.808   6.947   2.728
 1896TIP3   OH2 5644   7.422   5.582   5.807
 1896TIP3    H1 5645   7.459   5.639   5.875
 1896TIP3    H2 5646   7.340   5.624   5.782
 1897TIP3   OH2 5647   3.122   1.147   2.544
 1897TIP3    H1 5648   3.067   1.150   2.466
 1897TIP3    H2 5649   3.157   1.058   2.545
 1898TIP3   OH2 5650   2.725   1.703   2.933
 1898TIP3    H1 5651   2.814   1.678   2.911
 1898TIP3    H2 5652   2.706   1.657   3.015
 1899TIP3   OH2 5653   0.849   1.647   5.063
 1899TIP3    H1 5654   0.917   1.585   5.037
 1899TIP3    H2 5655   0.895   1.730   5.074
 1900TIP3   OH2 5656   1.403   6.454   0.209
 1900TIP3    H1 5657   1.464   6.420   0.144
 1900TIP3    H2 5658   1.444   6.535   0.239
 1901TIP3   OH2 5659   4.106   1.975   2.699
 1901TIP3    H1 5660   4.121   1.988   2.605
 1901TIP3    H2 5661   4.184   1.929   2.730
 1902TIP3   OH2 5662   6.279   2.637   6.222
 1902TIP3    H1 5663   6.353   2.617   6.165
 1902TIP3    H2 5664   6.289   2.730   6.242
 1903TIP3   OH2 5665   5.780   0.490   3.247
 1903TIP3    H1 5666   5.799   0.463   3.157
 1903TIP3    H2 5667   5.854   0.544   3.272
 1904TIP3   OH2 5668   4.223   4.073   3.064
 1904TIP3    H1 5669   4.317   4.058   3.068
 1904TIP3    H2 5670   4.186   4.013   3.129
 1905TIP3   OH2 5671   2.290   6.882   3.539
 1905TIP3    H1 5672   2.199   6.905   3.518
 1905TIP3    H2 5673   2.292   6.786   3.532
 1906TIP3   OH2 5674   6.730   1.690   5.601
 1906TIP3    H1 5675   6.728   1.618   5.665
 1906TIP3    H2 5676   6.665   1.665   5.535
 1907TIP3   OH2 5677   0.066   6.982   1.785
 1907TIP3    H1 5678   0.043   6.895   1.818
 1907TIP3    H2 5679   0.038   7.042   1.854
 1908TIP3   OH2 5680   7.255   1.636   2.874
 1908TIP3    H1 5681   7.312   1.561   2.864
 1908TIP3    H2 5682   7.314   1.710   2.884
 1909TIP3   OH2 5683   7.889   4.152   3.735
 1909TIP3    H1 5684   7.973   4.110   3.753
 1909TIP3    H2 5685   7.913   4.240   3.705
 1910TIP3   OH2 5686   8.187   4.211   4.272
 1910TIP3    H1 5687   8.217   4.274   4.207
 1910TIP3    H2 5688   8.251   4.141   4.269
 1911TIP3   OH2 5689   2.769   4.129   3.797
 1911TIP3    H1 5690   2.804   4.169   3.717
 1911TIP3    H2 5691   2.846   4.102   3.846
 1912TIP3   OH2 5692   5.463   6.978   4.422
 1912TIP3    H1 5693   5.483   7.070   4.405
 1912TIP3    H2 5694   5.407   6.952   4.349
 1913TIP3   OH2 5695   1.666   1.565   3.620
 1913TIP3    H1 5696   1.745   1.536   3.576
 1913TIP3    H2 5697   1.663   1.513   3.701
 1914TIP3   OH2 5698   2.451   0.463   1.597
 1914TIP3    H1 5699   2.521   0.450   1.534
 1914TIP3    H2 5700   2.371   0.448   1.548
 1915TIP3   OH2 5701   4.543   0.371   1.786
 1915TIP3    H1 5702   4.478   0.398   1.850
 1915TIP3    H2 5703   4.591   0.300   1.828
 1916TIP3   OH2 5704   4.578   5.615   3.540
 1916TIP3    H1 5705   4.600   5.611   3.633
 1916TIP3    H2 5706   4.589   5.707   3.516
 1917TIP3   OH2 5707   2.485   2.035   4.741
 1917TIP3    H1 5708   2.542   2.108   4.768
 1917TIP3    H2 5709   2.460   1.992   4.822
 1918TIP3   OH2 5710   3.136   3.693   3.799
 1918TIP3    H1 5711   3.122   3.600   3.779
 1918TIP3    H2 5712   3.185   3.726   3.725
 1919TIP3   OH2 5713   6.019   6.903   6.547
 1919TIP3    H1 5714   5.974   6.820   6.530
 1919TIP3    H2 5715   5.964   6.947   6.613
 1920TIP3   OH2 5716   2.014   0.860   2.957
 1920TIP3    H1 5717   2.024   0.765   2.952
 1920TIP3    H2 5718   1.938   0.879   2.902
 1921TIP3   OH2 5719   6.529   6.486   4.386
 1921TIP3    H1 5720   6.574   6.486   4.301
 1921TIP3    H2 5721   6.561   6.564   4.430
 1922TIP3   OH2 5722   6.771   5.700   6.324
 1922TIP3    H1 5723   6.729   5.614   6.329
 1922TIP3    H2 5724   6.853   5.689   6.372
 1923TIP3   OH2 5725   3.448   6.594   0.924
 1923TIP3    H1 5726   3.540   6.616   0.906
 1923TIP3    H2 5727   3.453   6.530   0.995
 1924TIP3   OH2 5728   4.189   1.226   0.182
 1924TIP3    H1 5729   4.158   1.284   0.113
 1924TIP3    H2 5730   4.239   1.283   0.241
 1925TIP3   OH2 5731   7.913   3.726   1.272
 1925TIP3    H1 5732   7.826   3.687   1.267
 1925TIP3    H2 5733   7.970   3.653   1.298
 1926TIP3   OH2 5734   2.059   0.590   0.658
 1926TIP3    H1 5735   2.085   0.502   0.629
 1926TIP3    H2 5736   2.009   0.625   0.585
 1927TIP3   OH2 5737   5.768   5.798   4.109
 1927TIP3    H1 5738   5.754   5.743   4.186
 1927TIP3    H2 5739   5.861   5.786   4.088
 1928TIP3   OH2 5740   5.051   4.125   5.552
 1928TIP3    H1 5741   5.117   4.086   5.494
 1928TIP3    H2 5742   5.056   4.073   5.632
 1929TIP3   OH2 5743   3.875   3.749   4.492
 1929TIP3    H1 5744   3.864   3.823   4.432
 1929TIP3    H2 5745   3.918   3.681   4.439
 1930TIP3   OH2 5746   1.159   6.879   6.757
 1930TIP3    H1 5747   1.189   6.921   6.838
 1930TIP3    H2 5748   1.240   6.852   6.713
 1931TIP3   OH2 5749   6.415   3.536   3.613
 1931TIP3    H1 5750   6.438   3.592   3.539
 1931TIP3    H2 5751   6.343   3.481   3.579
 1932TIP3   OH2 5752   7.857   0.172   4.749
 1932TIP3    H1 5753   7.786   0.235   4.740
 1932TIP3    H2 5754   7.834   0.101   4.689
 1933TIP3   OH2 5755   4.593   1.330   6.467
 1933TIP3    H1 5756   4.638   1.341   6.551
 1933TIP3    H2 5757   4.526   1.398   6.467
 1934TIP3   OH2 5758   2.769   6.999   2.211
 1934TIP3    H1 5759   2.727   7.084   2.224
 1934TIP3    H2 5760   2.697   6.939   2.192
 1935TIP3   OH2 5761   1.656   4.923   3.583
 1935TIP3    H1 5762   1.601   4.952   3.510
 1935TIP3    H2 5763   1.698   4.844   3.551
 1936TIP3   OH2 5764   1.452   4.796   6.618
 1936TIP3    H1 5765   1.469   4.710   6.581
 1936TIP3    H2 5766   1.474   4.786   6.711
 1937TIP3   OH2 5767   7.844   1.318   2.768
 1937TIP3    H1 5768   7.756   1.304   2.803
 1937TIP3    H2 5769   7.877   1.393   2.815
 1938TIP3   OH2 5770   0.470   6.617   4.072
 1938TIP3    H1 5771   0.536   6.633   4.139
 1938TIP3    H2 5772   0.515   6.564   4.006
 1939TIP3   OH2 5773   0.987   1.356   0.378
 1939TIP3    H1 5774   1.077   1.329   0.358
 1939TIP3    H2 5775   0.975   1.335   0.470
 1940TIP3   OH2 5776   5.147   2.981   1.373
 1940TIP3    H1 5777   5.211   3.015   1.310
 1940TIP3    H2 5778   5.074   3.043   1.368
 1941TIP3   OH2 5779   6.644   0.846   1.005
 1941TIP3    H1 5780   6.664   0.799   0.924
 1941TIP3    H2 5781   6.699   0.804   1.071
 1942TIP3   OH2 5782   7.235   3.538   3.737
 1942TIP3    H1 5783   7.197   3.460   3.778
 1942TIP3    H2 5784   7.188   3.611   3.776
 1943TIP3   OH2 5785   5.534   7.703   4.872
 1943TIP3    H1 5786   5.456   7.659   4.840
 1943TIP3    H2 5787   5.599   7.634   4.883
 1944TIP3   OH2 5788   6.718   7.242   5.213
 1944TIP3    H1 5789   6.781   7.180   5.175
 1944TIP3    H2 5790   6.638   7.229   5.161
 1945TIP3   OH2 5791   6.211   7.568   6.756
 1945TIP3    H1 5792   6.239   7.477   6.749
 1945TIP3    H2 5793   6.288   7.618   6.728
 1946TIP3   OH2 5794   7.496   0.093   2.863
 1946TIP3    H1 5795   7.445   0.112   2.942
 1946TIP3    H2 5796   7.463   0.154   2.798
 1947TIP3   OH2 5797   3.175   4.545   2.694
 1947TIP3    H1 5798   3.193   4.526   2.602
 1947TIP3    H2 5799   3.228   4.482   2.742
 1948TIP3   OH2 5800   5.661   4.106   2.385
 1948TIP3    H1 5801   5.601   4.178   2.366
 1948TIP3    H2 5802   5.729   4.146   2.440
 1949TIP3   OH2 5803   0.987   2.623   2.265
 1949TIP3    H1 5804   0.934   2.550   2.233
 1949TIP3    H2 5805   1.017   2.668   2.186
 1950TIP3   OH2 5806   2.361   1.135   4.276
 1950TIP3    H1 5807   2.403   1.049   4.278
 1950TIP3    H2 5808   2.343   1.151   4.183
 1951TIP3   OH2 5809   0.977   7.648   6.508
 1951TIP3    H1 5810   1.008   7.651   6.418
 1951TIP3    H2 5811   0.934   7.732   6.522
 1952TIP3   OH2 5812   1.602   5.486   1.096
 1952TIP3    H1 5813   1.616   5.553   1.030
 1952TIP3    H2 5814   1.680   5.430   1.089
 1953TIP3   OH2 5815   5.891   1.760   0.730
 1953TIP3    H1 5816   5.848   1.820   0.791
 1953TIP3    H2 5817   5.932   1.816   0.664
 1954TIP3   OH2 5818   8.237   2.810   4.438
 1954TIP3    H1 5819   8.195   2.736   4.393
 1954TIP3    H2 5820   8.179   2.830   4.511
 1955TIP3   OH2 5821   7.735   1.220   1.220
 1955TIP3    H1 5822   7.729   1.281   1.294
 1955TIP3    H2 5823   7.812   1.167   1.239
 1956TIP3   OH2 5824   0.120   1.291   1.992
 1956TIP3    H1 5825   0.121   1.224   2.061
 1956TIP3    H2 5826   0.191   1.265   1.933
 1957TIP3   OH2 5827   1.145   5.994   5.003
 1957TIP3    H1 5828   1.158   6.063   4.938
 1957TIP3    H2 5829   1.191   6.026   5.081
 1958TIP3   OH2 5830   7.461   7.678   0.924
 1958TIP3    H1 5831   7.426   7.590   0.936
 1958TIP3    H2 5832   7.386   7.736   0.938
 1959TIP3   OH2 5833   8.288   4.437   3.671
 1959TIP3    H1 5834   8.199   4.456   3.700
 1959TIP3    H2 5835   8.281   4.353   3.625
 1960TIP3   OH2 5836   7.697   2.390   6.637
 1960TIP3    H1 5837   7.780   2.391   6.685
 1960TIP3    H2 5838   7.722   2.375   6.546
 1961TIP3   OH2 5839   2.505   2.117   3.079
 1961TIP3    H1 5840   2.546   2.061   3.012
 1961TIP3    H2 5841   2.577   2.167   3.116
 1962TIP3   OH2 5842   5.477   4.806   0.165
 1962TIP3    H1 5843   5.391   4.805   0.123
 1962TIP3    H2 5844   5.539   4.805   0.093
 1963TIP3   OH2 5845   4.089   7.628   5.184
 1963TIP3    H1 5846   4.008   7.648   5.139
 1963TIP3    H2 5847   4.123   7.713   5.213
 1964TIP3   OH2 5848   0.464   3.088   0.561
 1964TIP3    H1 5849   0.489   3.115   0.649
 1964TIP3    H2 5850   0.519   3.141   0.503
 1965TIP3   OH2 5851   6.068   6.110   2.639
 1965TIP3    H1 5852   5.984   6.147   2.666
 1965TIP3    H2 5853   6.121   6.108   2.718
 1966TIP3   OH2 5854   1.794   2.545   2.995
 1966TIP3    H1 5855   1.887   2.525   2.997
 1966TIP3    H2 5856   1.752   2.462   2.970
 1967TIP3   OH2 5857   2.098   1.505   3.687
 1967TIP3    H1 5858   2.059   1.582   3.645
 1967TIP3    H2 5859   2.027   1.467   3.738
 1968TIP3   OH2 5860   3.595   2.486   4.319
 1968TIP3    H1 5861   3.579   2.579   4.303
 1968TIP3    H2 5862   3.643   2.483   4.402
 1969TIP3   OH2 5863   3.816   3.142   4.077
 1969TIP3    H1 5864   3.888   3.194   4.041
 1969TIP3    H2 5865   3.814   3.063   4.025
 1970TIP3   OH2 5866   3.312   1.809   1.078
 1970TIP3    H1 5867   3.327   1.742   1.011
 1970TIP3    H2 5868   3.358   1.887   1.044
 1971TIP3   OH2 5869   3.623   2.388   1.029
 1971TIP3    H1 5870   3.665   2.468   1.060
 1971TIP3    H2 5871   3.673   2.317   1.070
 1972TIP3   OH2 5872   4.932   2.169   5.258
 1972TIP3    H1 5873   5.019   2.209   5.256
 1972TIP3    H2 5874   4.896   2.194   5.343
 1973TIP3   OH2 5875   2.328   2.664   0.179
 1973TIP3    H1 5876   2.288   2.609   0.248
 1973TIP3    H2 5877   2.257   2.677   0.116
 1974TIP3   OH2 5878   4.220   1.699   0.029
 1974TIP3    H1 5879   4.282   1.684   0.100
 1974TIP3    H2 5880   4.176   1.781   0.052
 1975TIP3   OH2 5881   2.272   6.055   5.742
 1975TIP3    H1 5882   2.266   5.962   5.719
 1975TIP3    H2 5883   2.187   6.091   5.719
 1976TIP3   OH2 5884   2.919   7.287   3.178
 1976TIP3    H1 5885   2.829   7.279   3.212
 1976TIP3    H2 5886   2.939   7.380   3.186
 1977TIP3   OH2 5887   0.448   2.558   4.050
 1977TIP3    H1 5888   0.361   2.596   4.045
 1977TIP3    H2 5889   0.507   2.633   4.062
 1978TIP3   OH2 5890   0.201   3.570   0.244
 1978TIP3    H1 5891   0.178   3.477   0.234
 1978TIP3    H2 5892   0.162   3.595   0.328
 1979TIP3   OH2 5893   1.722   6.834   1.010
 1979TIP3    H1 5894   1.743   6.927   1.006
 1979TIP3    H2 5895   1.795   6.790   0.967
 1980TIP3   OH2 5896   0.242   3.227   1.575
 1980TIP3    H1 5897   0.190   3.218   1.654
 1980TIP3    H2 5898   0.317   3.170   1.589
 1981TIP3   OH2 5899   0.616   1.763   5.316
 1981TIP3    H1 5900   0.679   1.833   5.329
 1981TIP3    H2 5901   0.531   1.806   5.312
 1982TIP3   OH2 5902   6.810   0.050   0.144
 1982TIP3    H1 5903   6.876   0.001   0.192
 1982TIP3    H2 5904   6.741   0.069   0.208
 1983TIP3   OH2 5905   2.219   5.876   2.423
 1983TIP3    H1 5906   2.269   5.867   2.342
 1983TIP3    H2 5907   2.128   5.882   2.394
 1984TIP3   OH2 5908   7.215   3.099   6.178
 1984TIP3    H1 5909   7.128   3.132   6.196
 1984TIP3    H2 5910   7.263   3.174   6.143
 1985TIP3   OH2 5911   2.627   1.669   2.000
 1985TIP3    H1 5912   2.583   1.685   2.084
 1985TIP3    H2 5913   2.593   1.584   1.971
 1986TIP3   OH2 5914   5.185   5.514   1.171
 1986TIP3    H1 5915   5.236   5.542   1.247
 1986TIP3    H2 5916   5.095   5.513   1.201
 1987TIP3   OH2 5917   5.129   4.293   3.075
 1987TIP3    H1 5918   5.177   4.358   3.024
 1987TIP3    H2 5919   5.189   4.218   3.081
 1988TIP3   OH2 5920   7.183   2.456   4.788
 1988TIP3    H1 5921   7.193   2.500   4.704
 1988TIP3    H2 5922   7.168   2.364   4.766
 1989TIP3   OH2 5923   4.131   2.960   5.982
 1989TIP3    H1 5924   4.150   2.906   6.059
 1989TIP3    H2 5925   4.183   3.040   5.996
 1990TIP3   OH2 5926   5.712   1.088   2.124
 1990TIP3    H1 5927   5.768   1.158   2.091
 1990TIP3    H2 5928   5.685   1.118   2.211
 1991TIP3   OH2 5929   0.682   7.285   4.069
 1991TIP3    H1 5930   0.725   7.313   3.988
 1991TIP3    H2 5931   0.685   7.362   4.126
 1992TIP3   OH2 5932   7.829   7.513   4.696
 1992TIP3    H1 5933   7.814   7.576   4.767
 1992TIP3    H2 5934   7.778   7.547   4.623
 1993TIP3   OH2 5935   4.041   5.986   0.880
 1993TIP3    H1 5936   4.032   6.075   0.846
 1993TIP3    H2 5937   4.131   5.982   0.913
 1994TIP3   OH2 5938   2.546   7.382   4.597
 1994TIP3    H1 5939   2.591   7.373   4.513
 1994TIP3    H2 5940   2.585   7.460   4.637
 1995TIP3   OH2 5941   6.641   5.595   4.921
 1995TIP3    H1 5942   6.563   5.579   4.973
 1995TIP3    H2 5943   6.622   5.675   4.872
 1996TIP3   OH2 5944   0.261   6.889   4.317
 1996TIP3    H1 5945   0.327   6.890   4.248
 1996TIP3    H2 5946   0.220   6.803   4.310
 1997TIP3   OH2 5947   7.941   3.350   1.771
 1997TIP3    H1 5948   7.856   3.308   1.787
 1997TIP3    H2 5949   7.947   3.419   1.837
 1998TIP3   OH2 5950   3.294   5.379   4.362
 1998TIP3    H1 5951   3.215   5.393   4.413
 1998TIP3    H2 5952   3.350   5.454   4.383
 1999TIP3   OH2 5953   6.123   2.567   0.949
 1999TIP3    H1 5954   6.073   2.568   1.031
 1999TIP3    H2 5955   6.178   2.489   0.956
 2000TIP3   OH2 5956   2.736   6.280   2.505
 2000TIP3    H1 5957   2.741   6.370   2.536
 2000TIP3    H2 5958   2.826   6.255   2.485
 2001TIP3   OH2 5959   6.669   6.013   3.625
 2001TIP3    H1 5960   6.762   6.035   3.618
 2001TIP3    H2 5961   6.641   6.049   3.709
 2002TIP3   OH2 5962   4.672   0.445   4.084
 2002TIP3    H1 5963   4.651   0.501   4.159
 2002TIP3    H2 5964   4.705   0.505   4.018
 2003TIP3   OH2 5965   1.768   0.476   1.172
 2003TIP3    H1 5966   1.675   0.482   1.150
 2003TIP3    H2 5967   1.813   0.484   1.088
 2004TIP3   OH2 5968   7.427   2.061   2.198
 2004TIP3    H1 5969   7.429   2.041   2.292
 2004TIP3    H2 5970   7.509   2.024   2.164
 2005TIP3   OH2 5971   4.690   7.071   2.353
 2005TIP3    H1 5972   4.750   7.108   2.419
 2005TIP3    H2 5973   4.614   7.129   2.355
 2006TIP3   OH2 5974   4.487   0.737   2.718
 2006TIP3    H1 5975   4.571   0.712   2.679
 2006TIP3    H2 5976   4.438   0.655   2.725
 2007TIP3   OH2 5977   8.020   5.818   0.674
 2007TIP3    H1 5978   7.927   5.837   0.685
 2007TIP3    H2 5979   8.022   5.737   0.624
 2008TIP3   OH2 5980   7.622   4.884   6.253
 2008TIP3    H1 5981   7.590   4.804   6.296
 2008TIP3    H2 5982   7.545   4.921   6.211
 2009TIP3   OH2 5983   7.857   1.245   0.869
 2009TIP3    H1 5984   7.811   1.305   0.928
 2009TIP3    H2 5985   7.930   1.297   0.834
 2010TIP3   OH2 5986   7.286   0.293   4.098
 2010TIP3    H1 5987   7.307   0.204   4.126
 2010TIP3    H2 5988   7.250   0.335   4.177
 2011TIP3   OH2 5989   8.155   5.811   5.095
 2011TIP3    H1 5990   8.210   5.838   5.168
 2011TIP3    H2 5991   8.116   5.728   5.124
 2012TIP3   OH2 5992   2.352   7.067   5.359
 2012TIP3    H1 5993   2.337   7.150   5.404
 2012TIP3    H2 5994   2.394   7.011   5.424
 2013TIP3   OH2 5995   2.469   3.183   5.120
 2013TIP3    H1 5996   2.450   3.137   5.202
 2013TIP3    H2 5997   2.502   3.269   5.148
 2014TIP3   OH2 5998   7.624   2.252   2.428
 2014TIP3    H1 5999   7.590   2.327   2.380
 2014TIP3    H2 6000   7.550   2.220   2.480
 2015TIP3   OH2 6001   2.199   2.767   5.978
 2015TIP3    H1 6002   2.265   2.711   5.937
 2015TIP3    H2 6003   2.170   2.718   6.054
 2016TIP3   OH2 6004   7.966   4.217   5.977
 2016TIP3    H1 6005   7.882   4.237   5.936
 2016TIP3    H2 6006   7.979   4.287   6.041
 2017TIP3   OH2 6007   0.284   4.933   0.179
 2017TIP3    H1 6008   0.352   4.904   0.239
 2017TIP3    H2 6009   0.218   4.863   0.182
 2018TIP3   OH2 6010   5.108   4.316   1.710
 2018TIP3    H1 6011   5.034   4.306   1.769
 2018TIP3    H2 6012   5.069   4.344   1.627
 2019TIP3   OH2 6013   6.105   5.265   3.435
 2019TIP3    H1 6014   6.140   5.282   3.523
 2019TIP3    H2 6015   6.174   5.295   3.376
 2020TIP3   OH2 6016   4.385   3.443   3.409
 2020TIP3    H1 6017   4.311   3.453   3.350
 2020TIP3    H2 6018   4.455   3.407   3.355
 2021TIP3   OH2 6019   2.018   4.593   1.010
 2021TIP3    H1 6020   1.925   4.609   0.989
 2021TIP3    H2 6021   2.045   4.669   1.061
 2022TIP3   OH2 6022   4.557   0.736   4.507
 2022TIP3    H1 6023   4.516   0.823   4.513
 2022TIP3    H2 6024   4.638   0.745   4.559
 2023TIP3   OH2 6025   4.147   1.687   2.956
 2023TIP3    H1 6026   4.200   1.716   2.882
 2023TIP3    H2 6027   4.119   1.598   2.933
 2024TIP3   OH2 6028   2.686   2.933   5.363
 2024TIP3    H1 6029   2.612   2.902   5.312
 2024TIP3    H2 6030   2.757   2.943   5.300
 2025TIP3   OH2 6031   2.045   4.178   1.986
 2025TIP3    H1 6032   2.065   4.090   2.017
 2025TIP3    H2 6033   1.952   4.190   2.007
 2026TIP3   OH2 6034   0.213   7.617   1.562
 2026TIP3    H1 6035   0.202   7.625   1.657
 2026TIP3    H2 6036   0.230   7.524   1.548
 2027TIP3   OH2 6037   6.687   0.549   3.486
 2027TIP3    H1 6038   6.595   0.572   3.495
 2027TIP3    H2 6039   6.732   0.633   3.478
 2028TIP3   OH2 6040   4.252   1.142   4.093
 2028TIP3    H1 6041   4.250   1.237   4.080
 2028TIP3    H2 6042   4.313   1.110   4.026
 2029TIP3   OH2 6043   2.477   2.160   0.103
 2029TIP3    H1 6044   2.509   2.124   0.186
 2029TIP3    H2 6045   2.396   2.206   0.127
 2030TIP3   OH2 6046   5.556   3.828   2.110
 2030TIP3    H1 6047   5.485   3.854   2.052
 2030TIP3    H2 6048   5.612   3.905   2.115
 2031TIP3   OH2 6049   4.967   4.231   4.933
 2031TIP3    H1 6050   5.058   4.216   4.958
 2031TIP3    H2 6051   4.972   4.262   4.842
 2032TIP3   OH2 6052   5.497   2.939   2.701
 2032TIP3    H1 6053   5.480   2.879   2.774
 2032TIP3    H2 6054   5.530   3.019   2.743
 2033TIP3   OH2 6055   6.009   0.382   4.918
 2033TIP3    H1 6056   6.069   0.430   4.861
 2033TIP3    H2 6057   6.043   0.397   5.006
 2034TIP3   OH2 6058   0.986   7.712   0.962
 2034TIP3    H1 6059   0.971   7.804   0.980
 2034TIP3    H2 6060   0.989   7.706   0.867
 2035TIP3   OH2 6061   2.905   7.487   0.536
 2035TIP3    H1 6062   2.889   7.489   0.631
 2035TIP3    H2 6063   2.850   7.417   0.504
 2036TIP3   OH2 6064   3.957   4.759   3.259
 2036TIP3    H1 6065   3.919   4.671   3.262
 2036TIP3    H2 6066   3.901   4.811   3.317
 2037TIP3   OH2 6067   5.650   3.915   5.975
 2037TIP3    H1 6068   5.716   3.874   5.919
 2037TIP3    H2 6069   5.629   3.997   5.930
 2038TIP3   OH2 6070   1.693   0.133   3.417
 2038TIP3    H1 6071   1.687   0.222   3.452
 2038TIP3    H2 6072   1.707   0.078   3.494
 2039TIP3   OH2 6073   2.246   5.756   3.535
 2039TIP3    H1 6074   2.234   5.766   3.441
 2039TIP3    H2 6075   2.162   5.781   3.573
 2040TIP3   OH2 6076   7.887   0.830   1.196
 2040TIP3    H1 6077   7.942   0.788   1.130
 2040TIP3    H2 6078   7.900   0.924   1.182
 2041TIP3   OH2 6079   3.799   1.453   2.476
 2041TIP3    H1 6080   3.741   1.485   2.545
 2041TIP3    H2 6081   3.759   1.485   2.395
 2042TIP3   OH2 6082   4.033   1.586   2.150
 2042TIP3    H1 6083   3.973   1.511   2.139
 2042TIP3    H2 6084   3.997   1.654   2.092
 2043TIP3   OH2 6085   6.827   7.299   0.283
 2043TIP3    H1 6086   6.848   7.391   0.267
 2043TIP3    H2 6087   6.735   7.291   0.260
 2044TIP3   OH2 6088   2.988   1.871   4.640
 2044TIP3    H1 6089   2.954   1.880   4.551
 2044TIP3    H2 6090   2.941   1.936   4.691
 2045TIP3   OH2 6091   6.452   1.286   4.181
 2045TIP3    H1 6092   6.498   1.224   4.124
 2045TIP3    H2 6093   6.369   1.304   4.136
 2046TIP3   OH2 6094   1.014   5.290   0.296
 2046TIP3    H1 6095   1.098   5.336   0.291
 2046TIP3    H2 6096   0.960   5.344   0.354
 2047TIP3   OH2 6097   1.353   4.005   0.921
 2047TIP3    H1 6098   1.310   3.978   1.002
 2047TIP3    H2 6099   1.287   3.993   0.853
 2048TIP3   OH2 6100   6.185   5.057   1.819
 2048TIP3    H1 6101   6.171   5.000   1.895
 2048TIP3    H2 6102   6.279   5.055   1.804
 2049TIP3   OH2 6103   3.904   0.806   2.738
 2049TIP3    H1 6104   3.830   0.848   2.782
 2049TIP3    H2 6105   3.866   0.732   2.692
 2050TIP3   OH2 6106   7.565   4.299   6.706
 2050TIP3    H1 6107   7.483   4.347   6.719
 2050TIP3    H2 6108   7.601   4.337   6.626
 2051TIP3   OH2 6109   0.800   0.409   1.853
 2051TIP3    H1 6110   0.835   0.338   1.908
 2051TIP3    H2 6111   0.777   0.478   1.915
 2052TIP3   OH2 6112   6.603   5.732   3.469
 2052TIP3    H1 6113   6.646   5.810   3.434
 2052TIP3    H2 6114   6.642   5.720   3.556
 2053TIP3   OH2 6115   5.681   2.907   0.233
 2053TIP3    H1 6116   5.774   2.894   0.254
 2053TIP3    H2 6117   5.657   2.986   0.280
 2054TIP3   OH2 6118   6.966   1.205   6.579
 2054TIP3    H1 6119   6.993   1.137   6.517
 2054TIP3    H2 6120   6.981   1.166   6.665
 2055TIP3   OH2 6121   7.086   5.541   6.557
 2055TIP3    H1 6122   7.123   5.620   6.517
 2055TIP3    H2 6123   7.046   5.572   6.638
 2056TIP3   OH2 6124   7.996   0.060   4.960
 2056TIP3    H1 6125   7.952   0.106   4.889
 2056TIP3    H2 6126   8.086   0.092   4.958
 2057TIP3   OH2 6127   7.606   0.142   2.495
 2057TIP3    H1 6128   7.561   0.059   2.514
 2057TIP3    H2 6129   7.585   0.161   2.404
 2058TIP3   OH2 6130   1.289   0.192   6.186
 2058TIP3    H1 6131   1.278   0.112   6.238
 2058TIP3    H2 6132   1.336   0.162   6.108
 2059TIP3   OH2 6133   4.047   3.615   3.314
 2059TIP3    H1 6134   3.970   3.631   3.259
 2059TIP3    H2 6135   4.091   3.700   3.319
 2060TIP3   OH2 6136   6.215   6.606   3.685
 2060TIP3    H1 6137   6.289   6.657   3.718
 2060TIP3    H2 6138   6.157   6.671   3.645
 2061TIP3   OH2 6139   6.403   3.963   0.433
 2061TIP3    H1 6140   6.422   3.871   0.414
 2061TIP3    H2 6141   6.327   3.984   0.378
 2062TIP3   OH2 6142   5.580   7.527   5.755
 2062TIP3    H1 6143   5.635   7.490   5.823
 2062TIP3    H2 6144   5.640   7.576   5.699
 2063TIP3   OH2 6145   7.060   0.989   3.009
 2063TIP3    H1 6146   7.062   0.907   2.960
 2063TIP3    H2 6147   7.048   1.057   2.942
 2064TIP3   OH2 6148   0.289   4.098   5.484
 2064TIP3    H1 6149   0.223   4.165   5.498
 2064TIP3    H2 6150   0.296   4.053   5.568
 2065TIP3   OH2 6151   5.265   3.428   1.789
 2065TIP3    H1 6152   5.258   3.511   1.836
 2065TIP3    H2 6153   5.291   3.364   1.855
 2066TIP3   OH2 6154   6.573   6.540   5.188
 2066TIP3    H1 6155   6.478   6.547   5.196
 2066TIP3    H2 6156   6.603   6.522   5.278
 2067TIP3   OH2 6157   2.280   4.985   3.876
 2067TIP3    H1 6158   2.195   4.968   3.836
 2067TIP3    H2 6159   2.337   5.004   3.802
 2068TIP3   OH2 6160   7.566   0.138   6.071
 2068TIP3    H1 6161   7.481   0.095   6.080
 2068TIP3    H2 6162   7.589   0.126   5.979
 2069TIP3   OH2 6163   4.159   4.664   5.352
 2069TIP3    H1 6164   4.139   4.656   5.258
 2069TIP3    H2 6165   4.251   4.689   5.355
 2070TIP3   OH2 6166   6.455   6.371   5.897
 2070TIP3    H1 6167   6.530   6.395   5.951
 2070TIP3    H2 6168   6.397   6.447   5.902
 2071TIP3   OH2 6169   2.392   2.952   4.058
 2071TIP3    H1 6170   2.360   3.041   4.044
 2071TIP3    H2 6171   2.443   2.958   4.139
 2072TIP3   OH2 6172   1.707   4.788   5.625
 2072TIP3    H1 6173   1.780   4.741   5.666
 2072TIP3    H2 6174   1.635   4.725   5.625
 2073TIP3   OH2 6175   7.369   0.606   0.371
 2073TIP3    H1 6176   7.401   0.598   0.282
 2073TIP3    H2 6177   7.446   0.631   0.422
 2074TIP3   OH2 6178   3.221   6.975   6.788
 2074TIP3    H1 6179   3.253   6.889   6.817
 2074TIP3    H2 6180   3.220   6.970   6.693
 2075TIP3   OH2 6181   4.046   3.851   0.606
 2075TIP3    H1 6182   3.953   3.869   0.622
 2075TIP3    H2 6183   4.046   3.796   0.528
 2076TIP3   OH2 6184   3.561   6.991   0.798
 2076TIP3    H1 6185   3.520   6.949   0.722
 2076TIP3    H2 6186   3.635   7.039   0.761
 2077TIP3   OH2 6187   2.344   6.779   0.582
 2077TIP3    H1 6188   2.437   6.760   0.574
 2077TIP3    H2 6189   2.334   6.866   0.544
 2078TIP3   OH2 6190   4.497   2.120   4.637
 2078TIP3    H1 6191   4.467   2.069   4.711
 2078TIP3    H2 6192   4.521   2.055   4.571
 2079TIP3   OH2 6193   5.752   4.690   6.377
 2079TIP3    H1 6194   5.802   4.694   6.459
 2079TIP3    H2 6195   5.792   4.619   6.328
 2080TIP3   OH2 6196   6.932   7.530   1.223
 2080TIP3    H1 6197   7.001   7.463   1.219
 2080TIP3    H2 6198   6.946   7.574   1.307
 2081TIP3   OH2 6199   4.672   6.842   2.511
 2081TIP3    H1 6200   4.646   6.872   2.598
 2081TIP3    H2 6201   4.641   6.911   2.452
 2082TIP3   OH2 6202   4.447   7.283   6.768
 2082TIP3    H1 6203   4.436   7.188   6.780
 2082TIP3    H2 6204   4.397   7.303   6.689
 2083TIP3   OH2 6205   0.884   7.102   5.084
 2083TIP3    H1 6206   0.886   7.007   5.095
 2083TIP3    H2 6207   0.945   7.119   5.013
 2084TIP3   OH2 6208   5.698   2.536   3.235
 2084TIP3    H1 6209   5.673   2.444   3.222
 2084TIP3    H2 6210   5.643   2.585   3.173
 2085TIP3   OH2 6211   7.344   1.355   6.518
 2085TIP3    H1 6212   7.296   1.289   6.468
 2085TIP3    H2 6213   7.435   1.325   6.516
 2086TIP3   OH2 6214   5.191   4.449   2.663
 2086TIP3    H1 6215   5.111   4.398   2.659
 2086TIP3    H2 6216   5.257   4.395   2.619
 2087TIP3   OH2 6217   3.106   6.153   1.004
 2087TIP3    H1 6218   3.165   6.100   1.057
 2087TIP3    H2 6219   3.162   6.190   0.936
 2088TIP3   OH2 6220   2.064   0.204   5.265
 2088TIP3    H1 6221   2.036   0.159   5.185
 2088TIP3    H2 6222   2.140   0.154   5.295
 2089TIP3   OH2 6223   1.058   4.747   5.953
 2089TIP3    H1 6224   0.983   4.796   5.987
 2089TIP3    H2 6225   1.020   4.682   5.894
 2090TIP3   OH2 6226   5.187   1.631   0.071
 2090TIP3    H1 6227   5.250   1.640  -0.001
 2090TIP3    H2 6228   5.223   1.687   0.141
 2091TIP3   OH2 6229   3.100   0.508   1.031
 2091TIP3    H1 6230   3.129   0.580   0.975
 2091TIP3    H2 6231   3.060   0.445   0.970
 2092TIP3   OH2 6232   7.345   2.933   2.197
 2092TIP3    H1 6233   7.356   2.965   2.107
 2092TIP3    H2 6234   7.434   2.926   2.231
 2093TIP3   OH2 6235   6.142   5.804   5.615
 2093TIP3    H1 6236   6.066   5.779   5.562
 2093TIP3    H2 6237   6.107   5.869   5.676
 2094TIP3   OH2 6238   1.033   1.537   2.423
 2094TIP3    H1 6239   1.084   1.456   2.421
 2094TIP3    H2 6240   0.951   1.513   2.466
 2095TIP3   OH2 6241   5.139   3.656   4.044
 2095TIP3    H1 6242   5.114   3.649   4.136
 2095TIP3    H2 6243   5.065   3.619   3.996
 2096TIP3   OH2 6244   1.768   2.940   5.208
 2096TIP3    H1 6245   1.847   2.981   5.244
 2096TIP3    H2 6246   1.699   2.963   5.270
 2097TIP3   OH2 6247   1.333   2.338   1.030
 2097TIP3    H1 6248   1.291   2.424   1.038
 2097TIP3    H2 6249   1.406   2.352   0.970
 2098TIP3   OH2 6250   0.353   6.106   4.661
 2098TIP3    H1 6251   0.272   6.151   4.640
 2098TIP3    H2 6252   0.331   6.013   4.655
 2099TIP3   OH2 6253   1.386   7.384   2.525
 2099TIP3    H1 6254   1.304   7.385   2.575
 2099TIP3    H2 6255   1.418   7.294   2.534
 2100TIP3   OH2 6256   1.042   6.037   4.394
 2100TIP3    H1 6257   1.123   6.073   4.356
 2100TIP3    H2 6258   1.019   5.965   4.336
 2101TIP3   OH2 6259   3.665   3.363   5.401
 2101TIP3    H1 6260   3.668   3.421   5.324
 2101TIP3    H2 6261   3.674   3.422   5.476
 2102TIP3   OH2 6262   6.784   3.137   1.715
 2102TIP3    H1 6263   6.859   3.088   1.681
 2102TIP3    H2 6264   6.812   3.229   1.709
 2103TIP3   OH2 6265   0.388   2.492   2.127
 2103TIP3    H1 6266   0.372   2.399   2.142
 2103TIP3    H2 6267   0.371   2.533   2.212
 2104TIP3   OH2 6268   3.315   1.158   4.083
 2104TIP3    H1 6269   3.230   1.124   4.107
 2104TIP3    H2 6270   3.302   1.253   4.074
 2105TIP3   OH2 6271   6.991   6.088   1.033
 2105TIP3    H1 6272   6.994   6.065   0.940
 2105TIP3    H2 6273   7.077   6.127   1.050
 2106TIP3   OH2 6274   6.881   1.972   6.516
 2106TIP3    H1 6275   6.925   1.890   6.493
 2106TIP3    H2 6276   6.945   2.040   6.496
 2107TIP3   OH2 6277   5.002   7.821   0.501
 2107TIP3    H1 6278   4.910   7.801   0.519
 2107TIP3    H2 6279   5.007   7.831   0.406
 2108TIP3   OH2 6280   5.819   1.070   2.727
 2108TIP3    H1 6281   5.864   1.153   2.737
 2108TIP3    H2 6282   5.868   1.009   2.782
 2109TIP3   OH2 6283   0.069   5.169   4.458
 2109TIP3    H1 6284   0.134   5.102   4.434
 2109TIP3    H2 6285   0.122   5.244   4.485
 2110TIP3   OH2 6286   3.262   4.076   4.094
 2110TIP3    H1 6287   3.192   4.133   4.125
 2110TIP3    H2 6288   3.226   3.988   4.099
 2111TIP3   OH2 6289   4.631   3.776   3.028
 2111TIP3    H1 6290   4.724   3.797   3.019
 2111TIP3    H2 6291   4.611   3.723   2.951
 2112TIP3   OH2 6292   5.780   7.060   4.111
 2112TIP3    H1 6293   5.728   6.982   4.133
 2112TIP3    H2 6294   5.836   7.031   4.039
 2113TIP3   OH2 6295   0.789   5.854   3.493
 2113TIP3    H1 6296   0.713   5.905   3.521
 2113TIP3    H2 6297   0.851   5.919   3.461
 2114TIP3   OH2 6298   7.177   0.560   6.783
 2114TIP3    H1 6299   7.234   0.625   6.744
 2114TIP3    H2 6300   7.116   0.535   6.714
 2115TIP3   OH2 6301   6.740   1.525   6.219
 2115TIP3    H1 6302   6.803   1.466   6.262
 2115TIP3    H2 6303   6.655   1.495   6.249
 2116TIP3   OH2 6304   4.394   2.067   5.459
 2116TIP3    H1 6305   4.346   2.096   5.537
 2116TIP3    H2 6306   4.350   2.111   5.386
 2117TIP3   OH2 6307   4.788   2.865   3.732
 2117TIP3    H1 6308   4.711   2.821   3.697
 2117TIP3    H2 6309   4.796   2.945   3.680
 2118TIP3   OH2 6310   2.464   6.436   2.549
 2118TIP3    H1 6311   2.377   6.413   2.582
 2118TIP3    H2 6312   2.511   6.353   2.547
 2119TIP3   OH2 6313   6.800   7.570   4.931
 2119TIP3    H1 6314   6.746   7.575   4.852
 2119TIP3    H2 6315   6.858   7.646   4.926
 2120TIP3   OH2 6316   3.350   2.096   2.327
 2120TIP3    H1 6317   3.391   2.022   2.281
 2120TIP3    H2 6318   3.288   2.056   2.388
 2121TIP3   OH2 6319   1.670   5.644   3.240
 2121TIP3    H1 6320   1.601   5.679   3.184
 2121TIP3    H2 6321   1.636   5.654   3.329
 2122TIP3   OH2 6322   0.074   3.325   0.234
 2122TIP3    H1 6323   0.103   3.245   0.191
 2122TIP3    H2 6324   0.025   3.295   0.311
 2123TIP3   OH2 6325   7.417   7.805   1.374
 2123TIP3    H1 6326   7.424   7.827   1.467
 2123TIP3    H2 6327   7.324   7.794   1.359
 2124TIP3   OH2 6328   5.934   3.710   0.499
 2124TIP3    H1 6329   5.936   3.791   0.447
 2124TIP3    H2 6330   6.004   3.656   0.464
 2125TIP3   OH2 6331   4.886   2.896   4.890
 2125TIP3    H1 6332   4.812   2.836   4.881
 2125TIP3    H2 6333   4.893   2.938   4.804
 2126TIP3   OH2 6334   1.596   3.300   0.549
 2126TIP3    H1 6335   1.593   3.291   0.454
 2126TIP3    H2 6336   1.623   3.213   0.580
 2127TIP3   OH2 6337   1.976   7.517   2.744
 2127TIP3    H1 6338   1.911   7.512   2.814
 2127TIP3    H2 6339   1.924   7.506   2.664
 2128TIP3   OH2 6340   3.337   0.214   2.357
 2128TIP3    H1 6341   3.277   0.172   2.418
 2128TIP3    H2 6342   3.354   0.147   2.290
 2129TIP3   OH2 6343   0.126   1.131   3.048
 2129TIP3    H1 6344   0.154   1.187   3.120
 2129TIP3    H2 6345   0.167   1.046   3.066
 2130TIP3   OH2 6346   5.110   4.199   5.210
 2130TIP3    H1 6347   5.123   4.127   5.273
 2130TIP3    H2 6348   5.028   4.239   5.238
 2131TIP3   OH2 6349   5.487   2.075   0.763
 2131TIP3    H1 6350   5.443   2.161   0.764
 2131TIP3    H2 6351   5.522   2.065   0.851
 2132TIP3   OH2 6352   1.085   2.244   1.754
 2132TIP3    H1 6353   1.151   2.175   1.753
 2132TIP3    H2 6354   1.026   2.220   1.826
 2133TIP3   OH2 6355   8.128   6.744   0.746
 2133TIP3    H1 6356   8.115   6.822   0.801
 2133TIP3    H2 6357   8.136   6.779   0.658
 2134TIP3   OH2 6358   0.705   3.346   4.749
 2134TIP3    H1 6359   0.641   3.276   4.757
 2134TIP3    H2 6360   0.731   3.365   4.839
 2135TIP3   OH2 6361   6.821   1.695   1.330
 2135TIP3    H1 6362   6.903   1.729   1.365
 2135TIP3    H2 6363   6.774   1.661   1.406
 2136TIP3   OH2 6364   2.470   6.706   4.200
 2136TIP3    H1 6365   2.550   6.659   4.224
 2136TIP3    H2 6366   2.486   6.736   4.110
 2137TIP3   OH2 6367   7.991   4.933   1.661
 2137TIP3    H1 6368   8.024   4.843   1.665
 2137TIP3    H2 6369   8.038   4.972   1.587
 2138TIP3   OH2 6370   1.751   1.626   4.073
 2138TIP3    H1 6371   1.697   1.705   4.069
 2138TIP3    H2 6372   1.804   1.637   4.152
 2139TIP3   OH2 6373   4.048   6.618   2.247
 2139TIP3    H1 6374   4.066   6.556   2.176
 2139TIP3    H2 6375   4.128   6.619   2.299
 2140TIP3   OH2 6376   2.786   6.478   3.689
 2140TIP3    H1 6377   2.856   6.477   3.624
 2140TIP3    H2 6378   2.779   6.388   3.718
 2141TIP3   OH2 6379   1.495   1.399   5.016
 2141TIP3    H1 6380   1.456   1.370   5.099
 2141TIP3    H2 6381   1.459   1.486   5.002
 2142TIP3   OH2 6382   2.589   0.040   5.905
 2142TIP3    H1 6383   2.519  -0.013   5.866
 2142TIP3    H2 6384   2.568   0.043   5.998
 2143TIP3   OH2 6385   0.955   4.166   2.360
 2143TIP3    H1 6386   0.927   4.144   2.449
 2143TIP3    H2 6387   0.950   4.083   2.312
 2144TIP3   OH2 6388   0.442   4.888   0.855
 2144TIP3    H1 6389   0.494   4.808   0.859
 2144TIP3    H2 6390   0.351   4.858   0.854
 2145TIP3   OH2 6391   7.416   1.361   2.520
 2145TIP3    H1 6392   7.349   1.346   2.587
 2145TIP3    H2 6393   7.458   1.275   2.509
 2146TIP3   OH2 6394   4.703   0.228   5.077
 2146TIP3    H1 6395   4.646   0.169   5.029
 2146TIP3    H2 6396   4.684   0.211   5.169
 2147TIP3   OH2 6397   0.941   6.974   0.478
 2147TIP3    H1 6398   0.850   6.956   0.456
 2147TIP3    H2 6399   0.941   6.987   0.573
 2148TIP3   OH2 6400   5.240   0.532   4.324
 2148TIP3    H1 6401   5.285   0.593   4.382
 2148TIP3    H2 6402   5.147   0.550   4.338
 2149TIP3   OH2 6403   4.423   2.416   1.936
 2149TIP3    H1 6404   4.507   2.421   1.983
 2149TIP3    H2 6405   4.370   2.355   1.987
 2150TIP3   OH2 6406   3.503   5.716   5.125
 2150TIP3    H1 6407   3.568   5.681   5.186
 2150TIP3    H2 6408   3.555   5.753   5.053
 2151TIP3   OH2 6409   0.518   0.810   6.790
 2151TIP3    H1 6410   0.523   0.876   6.720
 2151TIP3    H2 6411   0.592   0.752   6.774
 2152TIP3   OH2 6412   7.008   7.061   0.248
 2152TIP3    H1 6413   6.945   6.989   0.249
 2152TIP3    H2 6414   7.089   7.021   0.215
 2153TIP3   OH2 6415   2.305   7.024   2.790
 2153TIP3    H1 6416   2.229   7.034   2.733
 2153TIP3    H2 6417   2.377   7.002   2.730
 2154TIP3   OH2 6418   6.104   1.803   2.268
 2154TIP3    H1 6419   6.042   1.821   2.198
 2154TIP3    H2 6420   6.140   1.717   2.247
 2155TIP3   OH2 6421   7.942   4.449   2.314
 2155TIP3    H1 6422   7.979   4.525   2.268
 2155TIP3    H2 6423   7.975   4.373   2.266
 2156TIP3   OH2 6424   3.465   6.241   5.363
 2156TIP3    H1 6425   3.374   6.233   5.333
 2156TIP3    H2 6426   3.517   6.232   5.283
 2157TIP3   OH2 6427   6.250   5.432   1.886
 2157TIP3    H1 6428   6.254   5.419   1.791
 2157TIP3    H2 6429   6.172   5.486   1.899
 2158TIP3   OH2 6430   2.136   1.324   3.134
 2158TIP3    H1 6431   2.208   1.262   3.145
 2158TIP3    H2 6432   2.093   1.327   3.220
 2159TIP3   OH2 6433   7.269   6.914   3.237
 2159TIP3    H1 6434   7.306   6.932   3.324
 2159TIP3    H2 6435   7.219   6.994   3.216
 2160TIP3   OH2 6436   3.596   5.075   1.353
 2160TIP3    H1 6437   3.579   4.987   1.386
 2160TIP3    H2 6438   3.584   5.068   1.258
 2161TIP3   OH2 6439   6.792   0.536   4.724
 2161TIP3    H1 6440   6.703   0.501   4.721
 2161TIP3    H2 6441   6.782   0.623   4.763
 2162TIP3   OH2 6442   0.428   7.852   4.906
 2162TIP3    H1 6443   0.455   7.809   4.987
 2162TIP3    H2 6444   0.348   7.806   4.879
 2163TIP3   OH2 6445   6.952   1.394   5.724
 2163TIP3    H1 6446   6.944   1.391   5.819
 2163TIP3    H2 6447   7.034   1.440   5.707
 2164TIP3   OH2 6448   4.202   7.512   2.941
 2164TIP3    H1 6449   4.149   7.571   2.888
 2164TIP3    H2 6450   4.235   7.447   2.879
 2165TIP3   OH2 6451   2.688   2.967   2.722
 2165TIP3    H1 6452   2.620   3.019   2.764
 2165TIP3    H2 6453   2.750   3.032   2.688
 2166TIP3   OH2 6454  -0.009   7.002   1.525
 2166TIP3    H1 6455   0.012   7.095   1.513
 2166TIP3    H2 6456   0.024   6.982   1.613
 2167TIP3   OH2 6457   2.550   2.690   0.919
 2167TIP3    H1 6458   2.507   2.707   1.002
 2167TIP3    H2 6459   2.590   2.603   0.930
 2168TIP3   OH2 6460   6.984   7.139   5.156
 2168TIP3    H1 6461   7.050   7.073   5.137
 2168TIP3    H2 6462   7.000   7.209   5.093
 2169TIP3   OH2 6463   6.856   7.384   4.556
 2169TIP3    H1 6464   6.848   7.451   4.488
 2169TIP3    H2 6465   6.857   7.301   4.509
 2170TIP3   OH2 6466   3.368   7.135   3.752
 2170TIP3    H1 6467   3.317   7.054   3.750
 2170TIP3    H2 6468   3.349   7.174   3.837
 2171TIP3   OH2 6469   7.628   4.248   4.539
 2171TIP3    H1 6470   7.596   4.197   4.465
 2171TIP3    H2 6471   7.642   4.184   4.608
 2172TIP3   OH2 6472   0.326   5.882   6.597
 2172TIP3    H1 6473   0.285   5.966   6.619
 2172TIP3    H2 6474   0.363   5.851   6.679
 2173TIP3   OH2 6475   0.174   4.730   1.029
 2173TIP3    H1 6476   0.211   4.800   1.083
 2173TIP3    H2 6477   0.153   4.661   1.091
 2174TIP3   OH2 6478   6.973   0.284   4.519
 2174TIP3    H1 6479   7.031   0.345   4.565
 2174TIP3    H2 6480   6.901   0.339   4.488
 2175TIP3   OH2 6481   6.867   6.942   2.245
 2175TIP3    H1 6482   6.906   6.938   2.158
 2175TIP3    H2 6483   6.831   6.854   2.259
 2176TIP3   OH2 6484   6.189   6.681   4.757
 2176TIP3    H1 6485   6.102   6.644   4.776
 2176TIP3    H2 6486   6.250   6.613   4.785
 2177TIP3   OH2 6487   2.742   5.774   1.910
 2177TIP3    H1 6488   2.708   5.697   1.865
 2177TIP3    H2 6489   2.667   5.833   1.917
 2178TIP3   OH2 6490   1.001   5.307   5.086
 2178TIP3    H1 6491   1.022   5.320   5.179
 2178TIP3    H2 6492   1.025   5.216   5.069
 2179TIP3   OH2 6493   1.957   6.231   2.481
 2179TIP3    H1 6494   1.956   6.324   2.506
 2179TIP3    H2 6495   2.048   6.214   2.458
 2180TIP3   OH2 6496   0.503   1.941   5.608
 2180TIP3    H1 6497   0.518   1.951   5.514
 2180TIP3    H2 6498   0.409   1.929   5.616
 2181TIP3   OH2 6499   6.022   0.216   0.086
 2181TIP3    H1 6500   5.994   0.254   0.170
 2181TIP3    H2 6501   6.099   0.267   0.061
 2182TIP3   OH2 6502   2.984   7.372   6.326
 2182TIP3    H1 6503   2.910   7.424   6.295
 2182TIP3    H2 6504   3.052   7.436   6.347
 2183TIP3   OH2 6505   8.187   4.521   1.902
 2183TIP3    H1 6506   8.260   4.574   1.869
 2183TIP3    H2 6507   8.121   4.527   1.833
 2184TIP3   OH2 6508   4.281   7.034   6.104
 2184TIP3    H1 6509   4.190   7.004   6.105
 2184TIP3    H2 6510   4.332   6.959   6.133
 2185TIP3   OH2 6511   1.910   5.299   0.710
 2185TIP3    H1 6512   1.927   5.233   0.778
 2185TIP3    H2 6513   1.888   5.247   0.633
 2186TIP3   OH2 6514   0.837   1.230   2.852
 2186TIP3    H1 6515   0.809   1.302   2.795
 2186TIP3    H2 6516   0.931   1.225   2.841
 2187TIP3   OH2 6517   2.097   6.953   5.447
 2187TIP3    H1 6518   2.171   7.010   5.425
 2187TIP3    H2 6519   2.113   6.872   5.399
 2188TIP3   OH2 6520   2.139   6.469   4.431
 2188TIP3    H1 6521   2.066   6.497   4.376
 2188TIP3    H2 6522   2.131   6.520   4.511
 2189TIP3   OH2 6523   3.781   6.077   0.051
 2189TIP3    H1 6524   3.694   6.042   0.069
 2189TIP3    H2 6525   3.778   6.107  -0.040
 2190TIP3   OH2 6526   1.931   5.365   1.665
 2190TIP3    H1 6527   2.022   5.337   1.667
 2190TIP3    H2 6528   1.934   5.459   1.684
 2191TIP3   OH2 6529   2.010   5.133   0.898
 2191TIP3    H1 6530   1.991   5.041   0.919
 2191TIP3    H2 6531   2.008   5.178   0.982
 2192TIP3   OH2 6532   1.162   1.451   5.356
 2192TIP3    H1 6533   1.077   1.433   5.397
 2192TIP3    H2 6534   1.143   1.515   5.288
 2193TIP3   OH2 6535   6.169   4.907   5.615
 2193TIP3    H1 6536   6.249   4.915   5.564
 2193TIP3    H2 6537   6.158   4.992   5.657
 2194TIP3   OH2 6538   4.329   4.460   2.138
 2194TIP3    H1 6539   4.364   4.496   2.057
 2194TIP3    H2 6540   4.375   4.507   2.207
 2195TIP3   OH2 6541   3.015   6.859   5.612
 2195TIP3    H1 6542   3.023   6.933   5.671
 2195TIP3    H2 6543   2.943   6.882   5.553
 2196TIP3   OH2 6544   1.700   0.825   3.726
 2196TIP3    H1 6545   1.754   0.787   3.795
 2196TIP3    H2 6546   1.659   0.902   3.766
 2197TIP3   OH2 6547   0.522   6.169   6.399
 2197TIP3    H1 6548   0.485   6.111   6.466
 2197TIP3    H2 6549   0.468   6.248   6.404
 2198TIP3   OH2 6550   1.487   2.447   0.808
 2198TIP3    H1 6551   1.414   2.476   0.753
 2198TIP3    H2 6552   1.558   2.431   0.747
 2199TIP3   OH2 6553   6.813   6.914   6.040
 2199TIP3    H1 6554   6.762   6.888   6.117
 2199TIP3    H2 6555   6.767   6.990   6.005
 2200TIP3   OH2 6556   7.120   1.034   4.303
 2200TIP3    H1 6557   7.038   1.014   4.258
 2200TIP3    H2 6558   7.187   1.022   4.236
 2201TIP3   OH2 6559   6.524   0.463   4.728
 2201TIP3    H1 6560   6.502   0.556   4.726
 2201TIP3    H2 6561   6.463   0.422   4.667
 2202TIP3   OH2 6562   0.515   3.112   3.776
 2202TIP3    H1 6563   0.559   3.067   3.704
 2202TIP3    H2 6564   0.480   3.042   3.831
 2203TIP3   OH2 6565   0.875   5.063   2.553
 2203TIP3    H1 6566   0.866   5.159   2.554
 2203TIP3    H2 6567   0.786   5.031   2.540
 2204TIP3   OH2 6568   5.779   7.050   6.314
 2204TIP3    H1 6569   5.844   7.120   6.308
 2204TIP3    H2 6570   5.765   7.023   6.223
 2205TIP3   OH2 6571   2.126   2.347   3.834
 2205TIP3    H1 6572   2.104   2.302   3.753
 2205TIP3    H2 6573   2.146   2.436   3.808
 2206TIP3   OH2 6574   2.158   1.810   0.858
 2206TIP3    H1 6575   2.090   1.844   0.916
 2206TIP3    H2 6576   2.135   1.719   0.843
 2207TIP3   OH2 6577   0.111   1.973   4.499
 2207TIP3    H1 6578   0.194   1.954   4.455
 2207TIP3    H2 6579   0.065   1.889   4.501
 2208TIP3   OH2 6580   6.078   1.625   3.136
 2208TIP3    H1 6581   6.072   1.714   3.171
 2208TIP3    H2 6582   6.079   1.637   3.041
 2209TIP3   OH2 6583   0.047   6.348   6.700
 2209TIP3    H1 6584   0.012   6.425   6.744
 2209TIP3    H2 6585   0.040   6.368   6.607
 2210TIP3   OH2 6586   0.299   0.896   4.763
 2210TIP3    H1 6587   0.265   0.863   4.846
 2210TIP3    H2 6588   0.381   0.940   4.787
 2211TIP3   OH2 6589   4.743   4.505   5.989
 2211TIP3    H1 6590   4.788   4.484   5.907
 2211TIP3    H2 6591   4.779   4.590   6.015
 2212TIP3   OH2 6592   2.743   7.298   5.524
 2212TIP3    H1 6593   2.836   7.284   5.506
 2212TIP3    H2 6594   2.738   7.392   5.545
 2213TIP3   OH2 6595   7.837   0.357   1.081
 2213TIP3    H1 6596   7.842   0.292   1.152
 2213TIP3    H2 6597   7.917   0.407   1.089
 2214TIP3   OH2 6598   5.336   1.476   3.579
 2214TIP3    H1 6599   5.408   1.520   3.624
 2214TIP3    H2 6600   5.367   1.387   3.566
 2215TIP3   OH2 6601   2.862   7.408   6.069
 2215TIP3    H1 6602   2.783   7.365   6.100
 2215TIP3    H2 6603   2.830   7.481   6.016
 2216TIP3   OH2 6604   4.295   7.450   5.117
 2216TIP3    H1 6605   4.229   7.518   5.122
 2216TIP3    H2 6606   4.361   7.484   5.056
 2217TIP3   OH2 6607   4.167   4.143   4.447
 2217TIP3    H1 6608   4.173   4.063   4.394
 2217TIP3    H2 6609   4.085   4.184   4.419
 2218TIP3   OH2 6610   8.299   2.263   6.501
 2218TIP3    H1 6611   8.349   2.306   6.570
 2218TIP3    H2 6612   8.208   2.283   6.521
 2219TIP3   OH2 6613   7.196   0.776   4.805
 2219TIP3    H1 6614   7.134   0.802   4.873
 2219TIP3    H2 6615   7.270   0.837   4.816
 2220TIP3   OH2 6616   4.341   7.466   4.622
 2220TIP3    H1 6617   4.339   7.392   4.682
 2220TIP3    H2 6618   4.290   7.437   4.546
 2221TIP3   OH2 6619   4.390   1.565   1.087
 2221TIP3    H1 6620   4.371   1.471   1.084
 2221TIP3    H2 6621   4.335   1.598   1.158
 2222TIP3   OH2 6622   4.852   3.299   5.022
 2222TIP3    H1 6623   4.830   3.366   5.086
 2222TIP3    H2 6624   4.944   3.316   5.000
 2223TIP3   OH2 6625   6.477   2.855   1.061
 2223TIP3    H1 6626   6.409   2.894   1.008
 2223TIP3    H2 6627   6.528   2.802   1.000
 2224TIP3   OH2 6628   1.746   4.444   2.994
 2224TIP3    H1 6629   1.712   4.523   2.951
 2224TIP3    H2 6630   1.777   4.474   3.079
 2225TIP3   OH2 6631   0.171   2.018   1.289
 2225TIP3    H1 6632   0.183   2.054   1.201
 2225TIP3    H2 6633   0.084   2.046   1.315
 2226TIP3   OH2 6634   3.263   1.778   1.623
 2226TIP3    H1 6635   3.244   1.689   1.654
 2226TIP3    H2 6636   3.279   1.767   1.529
 2227TIP3   OH2 6637   5.940   2.770   2.324
 2227TIP3    H1 6638   5.886   2.693   2.339
 2227TIP3    H2 6639   5.885   2.828   2.272
 2228TIP3   OH2 6640   3.744   0.612   3.533
 2228TIP3    H1 6641   3.822   0.664   3.517
 2228TIP3    H2 6642   3.757   0.532   3.481
 2229TIP3   OH2 6643   5.554   1.998   4.715
 2229TIP3    H1 6644   5.473   1.968   4.754
 2229TIP3    H2 6645   5.621   1.985   4.783
 2230TIP3   OH2 6646   4.433   4.750   6.801
 2230TIP3    H1 6647   4.391   4.833   6.778
 2230TIP3    H2 6648   4.402   4.689   6.735
 2231TIP3   OH2 6649   6.344   7.129   4.233
 2231TIP3    H1 6650   6.369   7.220   4.249
 2231TIP3    H2 6651   6.248   7.131   4.236
 2232TIP3   OH2 6652   2.391   1.072   3.552
 2232TIP3    H1 6653   2.353   1.042   3.634
 2232TIP3    H2 6654   2.425   0.992   3.511
 2233TIP3   OH2 6655   7.490   0.144   4.653
 2233TIP3    H1 6656   7.547   0.088   4.706
 2233TIP3    H2 6657   7.405   0.141   4.697
 2234TIP3   OH2 6658   0.365   0.744   2.885
 2234TIP3    H1 6659   0.339   0.654   2.907
 2234TIP3    H2 6660   0.285   0.783   2.848
 2235TIP3   OH2 6661   7.166   7.053   4.669
 2235TIP3    H1 6662   7.174   7.134   4.617
 2235TIP3    H2 6663   7.238   7.058   4.732
 2236TIP3   OH2 6664   1.463   5.835   2.611
 2236TIP3    H1 6665   1.369   5.850   2.618
 2236TIP3    H2 6666   1.502   5.896   2.674
 2237TIP3   OH2 6667   7.328   1.869   3.654
 2237TIP3    H1 6668   7.356   1.778   3.647
 2237TIP3    H2 6669   7.364   1.898   3.738
 2238TIP3   OH2 6670   6.198   7.129   1.421
 2238TIP3    H1 6671   6.236   7.147   1.507
 2238TIP3    H2 6672   6.107   7.159   1.428
 2239TIP3   OH2 6673   3.927   0.288   1.926
 2239TIP3    H1 6674   3.994   0.243   1.977
 2239TIP3    H2 6675   3.977   0.344   1.866
 2240TIP3   OH2 6676   3.233   6.394   3.359
 2240TIP3    H1 6677   3.151   6.356   3.327
 2240TIP3    H2 6678   3.286   6.405   3.280
 2241TIP3   OH2 6679   0.492   4.984   5.581
 2241TIP3    H1 6680   0.544   5.054   5.541
 2241TIP3    H2 6681   0.554   4.938   5.638
 2242TIP3   OH2 6682   3.870   3.262   5.177
 2242TIP3    H1 6683   3.892   3.296   5.090
 2242TIP3    H2 6684   3.779   3.232   5.169
 2243TIP3   OH2 6685   5.854   5.391   1.950
 2243TIP3    H1 6686   5.771   5.344   1.962
 2243TIP3    H2 6687   5.905   5.367   2.028
 2244TIP3   OH2 6688   0.202   2.014   3.798
 2244TIP3    H1 6689   0.210   2.026   3.892
 2244TIP3    H2 6690   0.114   2.045   3.777
 2245TIP3   OH2 6691   5.142   0.784   5.369
 2245TIP3    H1 6692   5.086   0.770   5.446
 2245TIP3    H2 6693   5.191   0.864   5.389
 2246TIP3   OH2 6694   1.244   1.647   5.711
 2246TIP3    H1 6695   1.208   1.558   5.715
 2246TIP3    H2 6696   1.179   1.701   5.755
 2247TIP3   OH2 6697   5.805   4.958   6.125
 2247TIP3    H1 6698   5.845   4.946   6.039
 2247TIP3    H2 6699   5.865   4.916   6.186
 2248TIP3   OH2 6700   1.322   1.958   0.607
 2248TIP3    H1 6701   1.251   1.962   0.672
 2248TIP3    H2 6702   1.399   1.988   0.653
 2249TIP3   OH2 6703   1.923   1.585   1.742
 2249TIP3    H1 6704   1.941   1.679   1.746
 2249TIP3    H2 6705   2.001   1.548   1.701
 2250TIP3   OH2 6706   0.543   4.565   6.344
 2250TIP3    H1 6707   0.495   4.574   6.262
 2250TIP3    H2 6708   0.475   4.570   6.412
 2251TIP3   OH2 6709   1.055   3.205   4.354
 2251TIP3    H1 6710   0.992   3.222   4.424
 2251TIP3    H2 6711   1.013   3.140   4.298
 2252TIP3   OH2 6712   0.936   3.603   2.832
 2252TIP3    H1 6713   0.922   3.693   2.860
 2252TIP3    H2 6714   0.948   3.554   2.913
 2253TIP3   OH2 6715   0.236   3.881   2.488
 2253TIP3    H1 6716   0.291   3.885   2.566
 2253TIP3    H2 6717   0.279   3.938   2.424
 2254TIP3   OH2 6718   0.072   6.407   0.002
 2254TIP3    H1 6719   0.114   6.364   0.077
 2254TIP3    H2 6720   0.004   6.461   0.041
 2255TIP3   OH2 6721   3.891   2.721   4.014
 2255TIP3    H1 6722   3.860   2.799   3.966
 2255TIP3    H2 6723   3.874   2.742   4.105
 2256TIP3   OH2 6724   8.006   0.823   5.612
 2256TIP3    H1 6725   7.970   0.750   5.562
 2256TIP3    H2 6726   8.101   0.808   5.610
 2257TIP3   OH2 6727   2.318   2.128   3.834
 2257TIP3    H1 6728   2.228   2.151   3.813
 2257TIP3    H2 6729   2.369   2.204   3.804
 2258TIP3   OH2 6730   7.645   6.005   2.176
 2258TIP3    H1 6731   7.567   6.049   2.142
 2258TIP3    H2 6732   7.679   5.956   2.102
 2259TIP3   OH2 6733   1.120   7.735  -0.003
 2259TIP3    H1 6734   1.103   7.812   0.051
 2259TIP3    H2 6735   1.213   7.741  -0.026
 2260TIP3   OH2 6736   0.266   2.896   0.647
 2260TIP3    H1 6737   0.180   2.934   0.666
 2260TIP3    H2 6738   0.320   2.971   0.619
 2261TIP3   OH2 6739   0.889   0.786   3.574
 2261TIP3    H1 6740   0.908   0.694   3.592
 2261TIP3    H2 6741   0.972   0.831   3.591
 2262TIP3   OH2 6742   1.257   0.721   2.276
 2262TIP3    H1 6743   1.181   0.695   2.328
 2262TIP3    H2 6744   1.310   0.642   2.268
 2263TIP3   OH2 6745   5.774   4.447   4.128
 2263TIP3    H1 6746   5.736   4.364   4.101
 2263TIP3    H2 6747   5.735   4.466   4.214
 2264TIP3   OH2 6748   3.794   5.830   0.951
 2264TIP3    H1 6749   3.867   5.855   0.894
 2264TIP3    H2 6750   3.771   5.741   0.924
 2265TIP3   OH2 6751   5.668   4.712   1.951
 2265TIP3    H1 6752   5.669   4.670   1.865
 2265TIP3    H2 6753   5.712   4.650   2.009
 2266TIP3   OH2 6754   1.470   2.741   1.552
 2266TIP3    H1 6755   1.475   2.829   1.515
 2266TIP3    H2 6756   1.554   2.700   1.529
 2267TIP3   OH2 6757   7.315   7.444   0.576
 2267TIP3    H1 6758   7.277   7.367   0.619
 2267TIP3    H2 6759   7.410   7.432   0.585
 2268TIP3   OH2 6760   6.607   6.713   2.559
 2268TIP3    H1 6761   6.593   6.699   2.653
 2268TIP3    H2 6762   6.521   6.734   2.524
 2269TIP3   OH2 6763   2.121   7.384   2.968
 2269TIP3    H1 6764   2.082   7.305   3.004
 2269TIP3    H2 6765   2.048   7.431   2.927
 2270TIP3   OH2 6766   7.408   6.803   3.517
 2270TIP3    H1 6767   7.394   6.708   3.513
 2270TIP3    H2 6768   7.322   6.839   3.536
 2271TIP3   OH2 6769   4.848   7.245   3.327
 2271TIP3    H1 6770   4.789   7.244   3.252
 2271TIP3    H2 6771   4.798   7.289   3.396
 2272TIP3   OH2 6772   2.080   2.527   5.471
 2272TIP3    H1 6773   2.164   2.503   5.432
 2272TIP3    H2 6774   2.092   2.510   5.565
 2273TIP3   OH2 6775   7.164   0.325   6.283
 2273TIP3    H1 6776   7.081   0.305   6.241
 2273TIP3    H2 6777   7.208   0.386   6.223
 2274TIP3   OH2 6778   2.051   6.727   5.989
 2274TIP3    H1 6779   2.136   6.760   6.020
 2274TIP3    H2 6780   2.074   6.658   5.927
 2275TIP3   OH2 6781   1.294   1.808   2.275
 2275TIP3    H1 6782   1.233   1.860   2.223
 2275TIP3    H2 6783   1.250   1.798   2.359
 2276TIP3   OH2 6784   4.400   5.013   0.571
 2276TIP3    H1 6785   4.429   5.103   0.582
 2276TIP3    H2 6786   4.348   5.014   0.491
 2277TIP3   OH2 6787   4.079   0.358   3.870
 2277TIP3    H1 6788   4.114   0.271   3.855
 2277TIP3    H2 6789   3.988   0.343   3.898
 2278TIP3   OH2 6790   1.809   2.036   0.707
 2278TIP3    H1 6791   1.810   2.071   0.618
 2278TIP3    H2 6792   1.850   2.103   0.760
 2279TIP3   OH2 6793   1.116   4.959   5.682
 2279TIP3    H1 6794   1.037   4.948   5.628
 2279TIP3    H2 6795   1.092   4.923   5.767
 2280TIP3   OH2 6796   8.076   3.320   4.434
 2280TIP3    H1 6797   8.159   3.334   4.388
 2280TIP3    H2 6798   8.097   3.259   4.504
 2281TIP3   OH2 6799   3.989   4.870   5.536
 2281TIP3    H1 6800   3.900   4.883   5.567
 2281TIP3    H2 6801   4.003   4.940   5.472
 2282TIP3   OH2 6802   2.617   5.715   1.200
 2282TIP3    H1 6803   2.544   5.718   1.262
 2282TIP3    H2 6804   2.631   5.807   1.174
 2283TIP3   OH2 6805   7.235   5.737   0.859
 2283TIP3    H1 6806   7.283   5.806   0.904
 2283TIP3    H2 6807   7.269   5.655   0.896
 2284TIP3   OH2 6808   3.536   1.267   2.369
 2284TIP3    H1 6809   3.457   1.230   2.329
 2284TIP3    H2 6810   3.532   1.240   2.460
 2285TIP3   OH2 6811   5.596   2.954   3.878
 2285TIP3    H1 6812   5.624   2.915   3.795
 2285TIP3    H2 6813   5.670   3.007   3.906
 2286TIP3   OH2 6814   5.340   3.577   3.296
 2286TIP3    H1 6815   5.259   3.527   3.293
 2286TIP3    H2 6816   5.404   3.518   3.334
 2287TIP3   OH2 6817   2.626   0.706   6.455
 2287TIP3    H1 6818   2.709   0.696   6.408
 2287TIP3    H2 6819   2.627   0.636   6.520
 2288TIP3   OH2 6820   7.361   0.785   3.867
 2288TIP3    H1 6821   7.373   0.692   3.849
 2288TIP3    H2 6822   7.276   0.806   3.828
 2289TIP3   OH2 6823   0.344   0.478   6.473
 2289TIP3    H1 6824   0.421   0.533   6.460
 2289TIP3    H2 6825   0.280   0.513   6.410
 2290TIP3   OH2 6826   3.004   7.295   0.059
 2290TIP3    H1 6827   3.061   7.356   0.106
 2290TIP3    H2 6828   2.917   7.312   0.095
 2291TIP3   OH2 6829   6.938   2.907   0.442
 2291TIP3    H1 6830   6.952   2.884   0.534
 2291TIP3    H2 6831   6.978   2.835   0.393
 2292TIP3   OH2 6832   4.456   6.741   0.956
 2292TIP3    H1 6833   4.531   6.743   0.897
 2292TIP3    H2 6834   4.482   6.796   1.030
 2293TIP3   OH2 6835   4.440   5.858   3.905
 2293TIP3    H1 6836   4.434   5.796   3.833
 2293TIP3    H2 6837   4.368   5.920   3.889
 2294TIP3   OH2 6838   5.096   0.380   1.674
 2294TIP3    H1 6839   5.168   0.432   1.638
 2294TIP3    H2 6840   5.041   0.358   1.599
 2295TIP3   OH2 6841   1.049   5.286   4.616
 2295TIP3    H1 6842   0.955   5.303   4.626
 2295TIP3    H2 6843   1.090   5.344   4.681
 2296TIP3   OH2 6844   2.871   4.361   5.734
 2296TIP3    H1 6845   2.811   4.372   5.809
 2296TIP3    H2 6846   2.933   4.433   5.743
 2297TIP3   OH2 6847   5.188   0.025   5.327
 2297TIP3    H1 6848   5.179   0.098   5.388
 2297TIP3    H2 6849   5.140   0.051   5.249
 2298TIP3   OH2 6850   7.921   7.043   5.722
 2298TIP3    H1 6851   7.978   6.977   5.683
 2298TIP3    H2 6852   7.836   7.029   5.679
 2299TIP3   OH2 6853   3.202   0.144   0.446
 2299TIP3    H1 6854   3.200   0.110   0.536
 2299TIP3    H2 6855   3.291   0.125   0.416
 2300TIP3   OH2 6856   6.400   6.692   0.724
 2300TIP3    H1 6857   6.407   6.623   0.658
 2300TIP3    H2 6858   6.347   6.760   0.683
 2301TIP3   OH2 6859   3.857   3.264   5.875
 2301TIP3    H1 6860   3.908   3.312   5.940
 2301TIP3    H2 6861   3.862   3.173   5.904
 2302TIP3   OH2 6862   4.799   2.990   3.985
 2302TIP3    H1 6863   4.756   2.938   4.053
 2302TIP3    H2 6864   4.788   2.938   3.905
 2303TIP3   OH2 6865   2.839   2.758   6.178
 2303TIP3    H1 6866   2.904   2.739   6.246
 2303TIP3    H2 6867   2.758   2.773   6.226
 2304TIP3   OH2 6868   4.919   1.908   4.323
 2304TIP3    H1 6869   4.940   1.834   4.380
 2304TIP3    H2 6870   4.924   1.872   4.235
 2305TIP3   OH2 6871   1.861   4.541   6.389
 2305TIP3    H1 6872   1.852   4.470   6.325
 2305TIP3    H2 6873   1.950   4.573   6.375
 2306TIP3   OH2 6874   6.239   7.760   0.323
 2306TIP3    H1 6875   6.144   7.767   0.312
 2306TIP3    H2 6876   6.254   7.785   0.414
 2307TIP3   OH2 6877   5.860   0.238   3.811
 2307TIP3    H1 6878   5.942   0.192   3.831
 2307TIP3    H2 6879   5.859   0.245   3.715
 2308TIP3   OH2 6880   7.654   0.477   6.433
 2308TIP3    H1 6881   7.675   0.388   6.462
 2308TIP3    H2 6882   7.736   0.509   6.394
 2309TIP3   OH2 6883   7.326   0.820   3.260
 2309TIP3    H1 6884   7.402   0.762   3.261
 2309TIP3    H2 6885   7.329   0.864   3.346
 2310TIP3   OH2 6886   4.131   4.760   2.231
 2310TIP3    H1 6887   4.101   4.744   2.142
 2310TIP3    H2 6888   4.096   4.686   2.281
 2311TIP3   OH2 6889   7.041   2.184   4.687
 2311TIP3    H1 6890   6.950   2.161   4.667
 2311TIP3    H2 6891   7.093   2.119   4.640
 2312TIP3   OH2 6892   0.104   6.126   0.379
 2312TIP3    H1 6893   0.134   6.171   0.458
 2312TIP3    H2 6894   0.169   6.057   0.365
 2313TIP3   OH2 6895   0.945   2.913   6.643
 2313TIP3    H1 6896   0.888   2.990   6.648
 2313TIP3    H2 6897   0.986   2.920   6.557
 2314TIP3   OH2 6898   0.888   3.773   5.204
 2314TIP3    H1 6899   0.809   3.780   5.149
 2314TIP3    H2 6900   0.866   3.822   5.283
 2315TIP3   OH2 6901   0.491   0.124   1.342
 2315TIP3    H1 6902   0.430   0.135   1.415
 2315TIP3    H2 6903   0.509   0.030   1.341
 2316TIP3   OH2 6904   5.453   6.289   5.671
 2316TIP3    H1 6905   5.471   6.203   5.709
 2316TIP3    H2 6906   5.471   6.279   5.578
 2317TIP3   OH2 6907   6.537   7.316   0.241
 2317TIP3    H1 6908   6.474   7.319   0.312
 2317TIP3    H2 6909   6.492   7.355   0.166
 2318TIP3   OH2 6910   1.996   2.928   0.077
 2318TIP3    H1 6911   1.994   2.853   0.018
 2318TIP3    H2 6912   2.027   3.000   0.023
 2319TIP3   OH2 6913   0.148   3.986   6.075
 2319TIP3    H1 6914   0.109   3.938   6.148
 2319TIP3    H2 6915   0.235   3.947   6.064
 2320TIP3   OH2 6916   0.734   2.036   5.396
 2320TIP3    H1 6917   0.825   2.062   5.413
 2320TIP3    H2 6918   0.684   2.117   5.406
 2321TIP3   OH2 6919   3.760   3.741   6.547
 2321TIP3    H1 6920   3.788   3.723   6.457
 2321TIP3    H2 6921   3.780   3.660   6.595
 2322TIP3   OH2 6922   4.215   3.350   2.662
 2322TIP3    H1 6923   4.143   3.405   2.692
 2322TIP3    H2 6924   4.181   3.261   2.665
 2323TIP3   OH2 6925   4.156   7.573   3.670
 2323TIP3    H1 6926   4.122   7.495   3.715
 2323TIP3    H2 6927   4.200   7.624   3.738
 2324TIP3   OH2 6928   7.033   0.859   0.125
 2324TIP3    H1 6929   7.005   0.770   0.148
 2324TIP3    H2 6930   7.099   0.881   0.191
 2325TIP3   OH2 6931   2.740   6.619   4.578
 2325TIP3    H1 6932   2.673   6.632   4.645
 2325TIP3    H2 6933   2.766   6.527   4.588
 2326TIP3   OH2 6934   2.429   0.471   0.993
 2326TIP3    H1 6935   2.408   0.452   1.084
 2326TIP3    H2 6936   2.412   0.389   0.947
 2327TIP3   OH2 6937   2.690   2.799   1.587
 2327TIP3    H1 6938   2.669   2.828   1.676
 2327TIP3    H2 6939   2.609   2.758   1.556
 2328TIP3   OH2 6940   0.907   4.021   4.805
 2328TIP3    H1 6941   0.894   4.100   4.752
 2328TIP3    H2 6942   0.978   4.043   4.865
 2329TIP3   OH2 6943   2.493   1.251   0.486
 2329TIP3    H1 6944   2.451   1.229   0.569
 2329TIP3    H2 6945   2.569   1.304   0.511
 2330TIP3   OH2 6946   5.366   6.666   3.935
 2330TIP3    H1 6947   5.296   6.607   3.964
 2330TIP3    H2 6948   5.446   6.619   3.955
 2331TIP3   OH2 6949   2.009   3.428   5.721
 2331TIP3    H1 6950   1.916   3.448   5.710
 2331TIP3    H2 6951   2.039   3.489   5.788
 2332TIP3   OH2 6952   8.222   6.640   2.410
 2332TIP3    H1 6953   8.180   6.669   2.329
 2332TIP3    H2 6954   8.291   6.580   2.381
 2333TIP3   OH2 6955   5.495   4.387   3.145
 2333TIP3    H1 6956   5.532   4.306   3.181
 2333TIP3    H2 6957   5.467   4.363   3.057
 2334TIP3   OH2 6958   2.583   3.588   2.275
 2334TIP3    H1 6959   2.668   3.626   2.253
 2334TIP3    H2 6960   2.604   3.501   2.310
 2335TIP3   OH2 6961   8.050   4.406   2.624
 2335TIP3    H1 6962   8.023   4.453   2.545
 2335TIP3    H2 6963   8.085   4.323   2.592
 2336TIP3   OH2 6964   2.796   5.433   5.615
 2336TIP3    H1 6965   2.782   5.524   5.639
 2336TIP3    H2 6966   2.754   5.424   5.530
 2337TIP3   OH2 6967   2.951   5.042   2.421
 2337TIP3    H1 6968   2.991   5.028   2.335
 2337TIP3    H2 6969   2.932   5.136   2.423
 2338TIP3   OH2 6970   7.800   6.587   1.772
 2338TIP3    H1 6971   7.798   6.570   1.866
 2338TIP3    H2 6972   7.788   6.681   1.763
 2339TIP3   OH2 6973   4.321   3.920   0.616
 2339TIP3    H1 6974   4.356   3.905   0.528
 2339TIP3    H2 6975   4.232   3.884   0.612
 2340TIP3   OH2 6976   5.869   4.199   6.146
 2340TIP3    H1 6977   5.923   4.219   6.070
 2340TIP3    H2 6978   5.797   4.147   6.111
 2341TIP3   OH2 6979   0.902   2.991   0.555
 2341TIP3    H1 6980   0.936   3.009   0.643
 2341TIP3    H2 6981   0.867   2.902   0.560
 2342TIP3   OH2 6982   7.698   7.483   3.491
 2342TIP3    H1 6983   7.644   7.442   3.559
 2342TIP3    H2 6984   7.740   7.557   3.535
 2343TIP3   OH2 6985   7.438   6.498   2.223
 2343TIP3    H1 6986   7.428   6.574   2.280
 2343TIP3    H2 6987   7.456   6.425   2.282
 2344TIP3   OH2 6988   0.568   4.871   2.863
 2344TIP3    H1 6989   0.645   4.830   2.903
 2344TIP3    H2 6990   0.602   4.915   2.785
 2345TIP3   OH2 6991   3.949   4.815   2.532
 2345TIP3    H1 6992   3.986   4.747   2.476
 2345TIP3    H2 6993   3.867   4.778   2.564
 2346TIP3   OH2 6994   6.015   5.359   5.849
 2346TIP3    H1 6995   6.056   5.275   5.832
 2346TIP3    H2 6996   5.988   5.391   5.763
 2347TIP3   OH2 6997   3.977   5.491   4.418
 2347TIP3    H1 6998   4.068   5.467   4.396
 2347TIP3    H2 6999   3.956   5.562   4.357
 2348TIP3   OH2 7000   7.443   6.903   4.307
 2348TIP3    H1 7001   7.525   6.939   4.273
 2348TIP3    H2 7002   7.413   6.845   4.237
 2349TIP3   OH2 7003   1.817   2.799   2.641
 2349TIP3    H1 7004   1.805   2.723   2.584
 2349TIP3    H2 7005   1.749   2.791   2.708
 2350TIP3   OH2 7006   5.755   4.576   5.869
 2350TIP3    H1 7007   5.746   4.605   5.778
 2350TIP3    H2 7008   5.821   4.634   5.907
 2351TIP3   OH2 7009   1.388   6.442   2.404
 2351TIP3    H1 7010   1.357   6.395   2.326
 2351TIP3    H2 7011   1.396   6.375   2.471
 2352TIP3   OH2 7012   1.632   6.115   5.269
 2352TIP3    H1 7013   1.721   6.138   5.295
 2352TIP3    H2 7014   1.576   6.176   5.317
 2353TIP3   OH2 7015   3.121   5.059   0.873
 2353TIP3    H1 7016   3.062   4.998   0.829
 2353TIP3    H2 7017   3.073   5.142   0.874
 2354TIP3   OH2 7018   4.326   1.030   0.047
 2354TIP3    H1 7019   4.266   0.955   0.041
 2354TIP3    H2 7020   4.279   1.093   0.102
 2355TIP3   OH2 7021   3.881   6.795   1.480
 2355TIP3    H1 7022   3.815   6.728   1.459
 2355TIP3    H2 7023   3.854   6.828   1.566
 2356TIP3   OH2 7024   7.391   4.316   4.687
 2356TIP3    H1 7025   7.453   4.280   4.624
 2356TIP3    H2 7026   7.433   4.396   4.718
 2357TIP3   OH2 7027   0.810   3.010   5.928
 2357TIP3    H1 7028   0.753   2.933   5.930
 2357TIP3    H2 7029   0.853   3.006   5.843
 2358TIP3   OH2 7030   4.929   7.793   1.385
 2358TIP3    H1 7031   4.987   7.869   1.385
 2358TIP3    H2 7032   4.988   7.718   1.379
 2359TIP3   OH2 7033   4.696   5.641   1.291
 2359TIP3    H1 7034   4.757   5.681   1.353
 2359TIP3    H2 7035   4.649   5.575   1.343
 2360TIP3   OH2 7036   7.994   7.010   3.453
 2360TIP3    H1 7037   7.954   6.923   3.447
 2360TIP3    H2 7038   8.083   6.999   3.420
 2361TIP3   OH2 7039   0.173   7.450   6.140
 2361TIP3    H1 7040   0.157   7.401   6.059
 2361TIP3    H2 7041   0.185   7.382   6.207
 2362TIP3   OH2 7042   1.935   3.187   1.148
 2362TIP3    H1 7043   1.931   3.195   1.053
 2362TIP3    H2 7044   1.966   3.098   1.165
 2363TIP3   OH2 7045   2.038   4.103   4.814
 2363TIP3    H1 7046   1.958   4.123   4.863
 2363TIP3    H2 7047   2.092   4.052   4.875
 2364TIP3   OH2 7048   7.267   0.102   0.821
 2364TIP3    H1 7049   7.278   0.035   0.889
 2364TIP3    H2 7050   7.347   0.154   0.826
 2365TIP3   OH2 7051   0.281   6.919   1.452
 2365TIP3    H1 7052   0.237   6.844   1.492
 2365TIP3    H2 7053   0.269   6.990   1.515
 2366TIP3   OH2 7054   2.872   5.796   3.095
 2366TIP3    H1 7055   2.842   5.755   3.014
 2366TIP3    H2 7056   2.967   5.783   3.095
 2367TIP3   OH2 7057   1.860   5.764   4.723
 2367TIP3    H1 7058   1.784   5.722   4.763
 2367TIP3    H2 7059   1.906   5.693   4.678
 2368TIP3   OH2 7060   2.888   5.489   6.280
 2368TIP3    H1 7061   2.948   5.563   6.269
 2368TIP3    H2 7062   2.842   5.508   6.362
 2369TIP3   OH2 7063   2.910   6.159   5.177
 2369TIP3    H1 7064   2.997   6.197   5.161
 2369TIP3    H2 7065   2.929   6.071   5.211
 2370TIP3   OH2 7066   5.398   6.004   5.299
 2370TIP3    H1 7067   5.310   6.041   5.307
 2370TIP3    H2 7068   5.384   5.914   5.271
 2371TIP3   OH2 7069   7.393   6.975   2.231
 2371TIP3    H1 7070   7.414   7.012   2.146
 2371TIP3    H2 7071   7.314   6.922   2.216
 2372TIP3   OH2 7072   1.607   2.573   0.239
 2372TIP3    H1 7073   1.571   2.563   0.151
 2372TIP3    H2 7074   1.565   2.503   0.290
 2373TIP3   OH2 7075   3.457   3.151   2.795
 2373TIP3    H1 7076   3.433   3.242   2.814
 2373TIP3    H2 7077   3.393   3.099   2.844
 2374TIP3   OH2 7078   7.378   2.248   4.667
 2374TIP3    H1 7079   7.334   2.168   4.637
 2374TIP3    H2 7080   7.370   2.309   4.593
 2375TIP3   OH2 7081   4.152   4.323   5.447
 2375TIP3    H1 7082   4.193   4.317   5.361
 2375TIP3    H2 7083   4.226   4.326   5.508
 2376TIP3   OH2 7084   1.418   2.255   1.995
 2376TIP3    H1 7085   1.357   2.218   1.931
 2376TIP3    H2 7086   1.463   2.326   1.947
 2377TIP3   OH2 7087   5.708   5.202   5.577
 2377TIP3    H1 7088   5.689   5.208   5.484
 2377TIP3    H2 7089   5.728   5.293   5.603
 2378TIP3   OH2 7090   5.682   6.632   3.528
 2378TIP3    H1 7091   5.672   6.678   3.445
 2378TIP3    H2 7092   5.596   6.637   3.569
 2379TIP3   OH2 7093   2.348   7.523   1.046
 2379TIP3    H1 7094   2.263   7.495   1.014
 2379TIP3    H2 7095   2.411   7.486   0.984
 2380TIP3   OH2 7096   5.424   2.724   1.311
 2380TIP3    H1 7097   5.483   2.799   1.315
 2380TIP3    H2 7098   5.372   2.738   1.231
 2381TIP3   OH2 7099   4.426   1.314   1.726
 2381TIP3    H1 7100   4.467   1.247   1.781
 2381TIP3    H2 7101   4.365   1.265   1.670
 2382TIP3   OH2 7102   7.918   2.658   3.368
 2382TIP3    H1 7103   7.954   2.746   3.357
 2382TIP3    H2 7104   7.912   2.646   3.462
 2383TIP3   OH2 7105   4.459   2.428   1.676
 2383TIP3    H1 7106   4.447   2.427   1.771
 2383TIP3    H2 7107   4.546   2.468   1.663
 2384TIP3   OH2 7108   7.681   2.115   1.798
 2384TIP3    H1 7109   7.609   2.121   1.862
 2384TIP3    H2 7110   7.686   2.022   1.776
 2385TIP3   OH2 7111   5.485   5.809   1.553
 2385TIP3    H1 7112   5.481   5.885   1.495
 2385TIP3    H2 7113   5.509   5.845   1.638
 2386TIP3   OH2 7114   3.295   6.700   2.513
 2386TIP3    H1 7115   3.357   6.670   2.447
 2386TIP3    H2 7116   3.281   6.793   2.494
 2387TIP3   OH2 7117   7.974   2.940   3.312
 2387TIP3    H1 7118   8.006   2.885   3.241
 2387TIP3    H2 7119   7.956   3.025   3.271
 2388TIP3   OH2 7120   0.076   3.107   3.050
 2388TIP3    H1 7121  -0.011   3.068   3.042
 2388TIP3    H2 7122   0.082   3.167   2.976
 2389TIP3   OH2 7123   6.396   5.714   6.721
 2389TIP3    H1 7124   6.372   5.797   6.763
 2389TIP3    H2 7125   6.492   5.718   6.716
 2390TIP3   OH2 7126   7.119   2.892   1.099
 2390TIP3    H1 7127   7.145   2.879   1.191
 2390TIP3    H2 7128   7.027   2.865   1.096
 2391TIP3   OH2 7129   2.634   2.069   3.639
 2391TIP3    H1 7130   2.609   2.049   3.729
 2391TIP3    H2 7131   2.555   2.053   3.588
 2392TIP3   OH2 7132   5.109   1.655   4.260
 2392TIP3    H1 7133   5.100   1.725   4.195
 2392TIP3    H2 7134   5.144   1.581   4.210
 2393TIP3   OH2 7135   5.535   3.145   2.191
 2393TIP3    H1 7136   5.584   3.148   2.273
 2393TIP3    H2 7137   5.445   3.165   2.216
 2394TIP3   OH2 7138   0.368   1.214   6.690
 2394TIP3    H1 7139   0.383   1.172   6.775
 2394TIP3    H2 7140   0.315   1.290   6.710
 2395TIP3   OH2 7141   4.692   7.263   4.744
 2395TIP3    H1 7142   4.667   7.355   4.733
 2395TIP3    H2 7143   4.649   7.236   4.825
 2396TIP3   OH2 7144   4.918   4.251   2.618
 2396TIP3    H1 7145   4.907   4.334   2.572
 2396TIP3    H2 7146   4.894   4.270   2.708
 2397TIP3   OH2 7147   1.010   0.235   6.170
 2397TIP3    H1 7148   1.104   0.230   6.154
 2397TIP3    H2 7149   0.975   0.286   6.097
 2398TIP3   OH2 7150   5.067   4.524   4.948
 2398TIP3    H1 7151   5.063   4.525   5.043
 2398TIP3    H2 7152   4.980   4.496   4.920
 2399TIP3   OH2 7153   6.022   4.229   4.471
 2399TIP3    H1 7154   6.032   4.305   4.414
 2399TIP3    H2 7155   5.936   4.193   4.448
 2400TIP3   OH2 7156   2.068   7.418   1.785
 2400TIP3    H1 7157   2.054   7.468   1.866
 2400TIP3    H2 7158   1.987   7.368   1.773
 2401TIP3   OH2 7159   5.718   6.120   5.839
 2401TIP3    H1 7160   5.736   6.136   5.932
 2401TIP3    H2 7161   5.632   6.079   5.838
 2402TIP3   OH2 7162   5.636   5.735   3.861
 2402TIP3    H1 7163   5.672   5.647   3.866
 2402TIP3    H2 7164   5.660   5.775   3.945
 2403TIP3   OH2 7165   1.568   5.377   2.774
 2403TIP3    H1 7166   1.617   5.296   2.788
 2403TIP3    H2 7167   1.516   5.388   2.853
 2404TIP3   OH2 7168   2.620   3.343   5.877
 2404TIP3    H1 7169   2.701   3.300   5.849
 2404TIP3    H2 7170   2.555   3.314   5.813
 2405TIP3   OH2 7171   4.648   0.826   0.049
 2405TIP3    H1 7172   4.718   0.765   0.072
 2405TIP3    H2 7173   4.690   0.913   0.054
 2406TIP3   OH2 7174   7.367   6.383   0.705
 2406TIP3    H1 7175   7.294   6.397   0.766
 2406TIP3    H2 7176   7.390   6.471   0.675
 2407TIP3   OH2 7177   0.676   5.296   6.512
 2407TIP3    H1 7178   0.637   5.209   6.506
 2407TIP3    H2 7179   0.747   5.286   6.575
 2408TIP3   OH2 7180   2.306   1.263   1.253
 2408TIP3    H1 7181   2.359   1.219   1.320
 2408TIP3    H2 7182   2.367   1.321   1.209
 2409TIP3   OH2 7183   2.218   3.423   0.273
 2409TIP3    H1 7184   2.178   3.489   0.217
 2409TIP3    H2 7185   2.311   3.447   0.275
 2410TIP3   OH2 7186   3.502   0.290   2.926
 2410TIP3    H1 7187   3.490   0.204   2.886
 2410TIP3    H2 7188   3.462   0.283   3.012
 2411TIP3   OH2 7189   6.585   4.116   0.997
 2411TIP3    H1 7190   6.520   4.065   1.045
 2411TIP3    H2 7191   6.537   4.148   0.920
 2412TIP3   OH2 7192   7.436   1.984   5.656
 2412TIP3    H1 7193   7.379   2.018   5.725
 2412TIP3    H2 7194   7.401   1.897   5.636
 2413TIP3   OH2 7195   7.016   4.879   5.052
 2413TIP3    H1 7196   7.095   4.824   5.044
 2413TIP3    H2 7197   7.033   4.934   5.129
 2414TIP3   OH2 7198   6.324   5.422   2.379
 2414TIP3    H1 7199   6.273   5.480   2.323
 2414TIP3    H2 7200   6.342   5.345   2.326
 2415TIP3   OH2 7201   1.373   4.812   1.068
 2415TIP3    H1 7202   1.308   4.881   1.053
 2415TIP3    H2 7203   1.346   4.770   1.149
 2416TIP3   OH2 7204   4.658   1.431   4.549
 2416TIP3    H1 7205   4.619   1.374   4.483
 2416TIP3    H2 7206   4.690   1.507   4.499
 2417TIP3   OH2 7207   1.375   2.498   4.230
 2417TIP3    H1 7208   1.290   2.536   4.208
 2417TIP3    H2 7209   1.418   2.484   4.145
 2418TIP3   OH2 7210   7.199   5.135   1.360
 2418TIP3    H1 7211   7.215   5.171   1.273
 2418TIP3    H2 7212   7.218   5.041   1.351
 2419TIP3   OH2 7213   3.327   3.627   6.144
 2419TIP3    H1 7214   3.357   3.717   6.155
 2419TIP3    H2 7215   3.241   3.635   6.103
 2420TIP3   OH2 7216   1.288   6.692   1.266
 2420TIP3    H1 7217   1.233   6.769   1.252
 2420TIP3    H2 7218   1.312   6.662   1.179
 2421TIP3   OH2 7219   8.211   6.240   0.795
 2421TIP3    H1 7220   8.237   6.172   0.733
 2421TIP3    H2 7221   8.177   6.310   0.741
 2422TIP3   OH2 7222   8.190   5.457   4.533
 2422TIP3    H1 7223   8.221   5.367   4.523
 2422TIP3    H2 7224   8.264   5.504   4.570
 2423TIP3   OH2 7225   3.167   1.427   5.654
 2423TIP3    H1 7226   3.191   1.405   5.744
 2423TIP3    H2 7227   3.251   1.436   5.608
 2424TIP3   OH2 7228   4.983   0.646   1.779
 2424TIP3    H1 7229   5.032   0.653   1.861
 2424TIP3    H2 7230   5.002   0.558   1.747
 2425TIP3   OH2 7231   4.431   5.766   6.414
 2425TIP3    H1 7232   4.477   5.689   6.448
 2425TIP3    H2 7233   4.448   5.834   6.479
 2426TIP3   OH2 7234   3.699   1.261   1.429
 2426TIP3    H1 7235   3.747   1.278   1.348
 2426TIP3    H2 7236   3.667   1.347   1.457
 2427TIP3   OH2 7237   5.260   3.210   2.241
 2427TIP3    H1 7238   5.227   3.120   2.247
 2427TIP3    H2 7239   5.200   3.261   2.295
 2428TIP3   OH2 7240   2.931   3.114   6.034
 2428TIP3    H1 7241   2.987   3.125   5.956
 2428TIP3    H2 7242   2.843   3.102   5.999
 2429TIP3   OH2 7243   2.173   6.067   0.871
 2429TIP3    H1 7244   2.241   6.066   0.939
 2429TIP3    H2 7245   2.118   6.141   0.893
 2430TIP3   OH2 7246   3.612   5.564   1.449
 2430TIP3    H1 7247   3.564   5.540   1.528
 2430TIP3    H2 7248   3.573   5.511   1.380
 2431TIP3   OH2 7249   3.765   6.811   5.791
 2431TIP3    H1 7250   3.817   6.885   5.824
 2431TIP3    H2 7251   3.823   6.735   5.801
 2432TIP3   OH2 7252   2.808   3.168   4.932
 2432TIP3    H1 7253   2.731   3.224   4.931
 2432TIP3    H2 7254   2.863   3.201   4.861
 2433TIP3   OH2 7255   7.100   6.919   3.517
 2433TIP3    H1 7256   7.079   7.012   3.509
 2433TIP3    H2 7257   7.130   6.910   3.607
 2434TIP3   OH2 7258   6.557   6.557   2.780
 2434TIP3    H1 7259   6.617   6.488   2.810
 2434TIP3    H2 7260   6.476   6.542   2.829
 2435TIP3   OH2 7261   0.936   1.681   4.020
 2435TIP3    H1 7262   0.961   1.710   3.932
 2435TIP3    H2 7263   1.012   1.633   4.052
 2436TIP3   OH2 7264   2.786   5.268   1.333
 2436TIP3    H1 7265   2.816   5.181   1.358
 2436TIP3    H2 7266   2.722   5.253   1.264
 2437TIP3   OH2 7267   1.392   2.789   6.252
 2437TIP3    H1 7268   1.459   2.721   6.253
 2437TIP3    H2 7269   1.349   2.781   6.337
 2438TIP3   OH2 7270   1.363   4.493   5.217
 2438TIP3    H1 7271   1.308   4.416   5.230
 2438TIP3    H2 7272   1.323   4.561   5.271
 2439TIP3   OH2 7273   3.569   2.675   2.678
 2439TIP3    H1 7274   3.573   2.590   2.636
 2439TIP3    H2 7275   3.658   2.689   2.713
 2440TIP3   OH2 7276   3.102   1.852   5.967
 2440TIP3    H1 7277   3.011   1.840   5.939
 2440TIP3    H2 7278   3.095   1.894   6.053
 2441TIP3   OH2 7279   2.084   5.875   5.254
 2441TIP3    H1 7280   2.175   5.846   5.247
 2441TIP3    H2 7281   2.082   5.962   5.214
 2442TIP3   OH2 7282   3.168   7.420   5.126
 2442TIP3    H1 7283   3.232   7.478   5.084
 2442TIP3    H2 7284   3.143   7.466   5.206
 2443TIP3   OH2 7285   2.827   1.100   4.937
 2443TIP3    H1 7286   2.821   1.005   4.930
 2443TIP3    H2 7287   2.760   1.133   4.877
 2444TIP3   OH2 7288   0.125   2.629   0.036
 2444TIP3    H1 7289   0.030   2.642   0.027
 2444TIP3    H2 7290   0.138   2.537   0.016
 2445TIP3   OH2 7291   5.686   3.788   1.639
 2445TIP3    H1 7292   5.692   3.755   1.729
 2445TIP3    H2 7293   5.593   3.801   1.623
 2446TIP3   OH2 7294   0.730   4.810   1.449
 2446TIP3    H1 7295   0.666   4.739   1.456
 2446TIP3    H2 7296   0.705   4.871   1.519
 2447TIP3   OH2 7297   4.538   4.694   4.807
 2447TIP3    H1 7298   4.562   4.770   4.860
 2447TIP3    H2 7299   4.531   4.727   4.718
 2448TIP3   OH2 7300   1.438   2.464   4.492
 2448TIP3    H1 7301   1.380   2.408   4.543
 2448TIP3    H2 7302   1.402   2.464   4.404
 2449TIP3   OH2 7303   7.383   7.678   6.454
 2449TIP3    H1 7304   7.315   7.720   6.402
 2449TIP3    H2 7305   7.394   7.592   6.413
 2450TIP3   OH2 7306   7.210   0.720   1.259
 2450TIP3    H1 7307   7.217   0.636   1.304
 2450TIP3    H2 7308   7.143   0.768   1.307
 2451TIP3   OH2 7309   7.085   7.306   5.355
 2451TIP3    H1 7310   7.119   7.225   5.394
 2451TIP3    H2 7311   7.047   7.278   5.272
 2452TIP3   OH2 7312   7.917   2.911   3.754
 2452TIP3    H1 7313   7.882   3.000   3.751
 2452TIP3    H2 7314   7.981   2.908   3.683
 2453TIP3   OH2 7315   4.470   2.919   3.464
 2453TIP3    H1 7316   4.433   3.000   3.500
 2453TIP3    H2 7317   4.460   2.855   3.534
 2454TIP3   OH2 7318   5.412   0.131   6.202
 2454TIP3    H1 7319   5.365   0.211   6.176
 2454TIP3    H2 7320   5.494   0.163   6.239
 2455TIP3   OH2 7321   5.118   6.436   3.547
 2455TIP3    H1 7322   5.091   6.419   3.637
 2455TIP3    H2 7323   5.129   6.531   3.542
 2456TIP3   OH2 7324   5.715   4.047   0.707
 2456TIP3    H1 7325   5.710   4.031   0.801
 2456TIP3    H2 7326   5.804   4.019   0.683
 2457TIP3   OH2 7327   3.658   2.484   2.934
 2457TIP3    H1 7328   3.574   2.438   2.931
 2457TIP3    H2 7329   3.717   2.423   2.980
 2458TIP3   OH2 7330   6.300   0.695   2.276
 2458TIP3    H1 7331   6.380   0.744   2.291
 2458TIP3    H2 7332   6.302   0.672   2.183
 2459TIP3   OH2 7333   4.327   2.201   6.470
 2459TIP3    H1 7334   4.271   2.271   6.505
 2459TIP3    H2 7335   4.321   2.212   6.375
 2460TIP3   OH2 7336   2.108   1.394   2.444
 2460TIP3    H1 7337   2.022   1.436   2.451
 2460TIP3    H2 7338   2.089   1.302   2.425
 2461TIP3   OH2 7339   1.346   1.823   4.772
 2461TIP3    H1 7340   1.405   1.884   4.727
 2461TIP3    H2 7341   1.276   1.806   4.710
 2462TIP3   OH2 7342   7.141   1.640   4.039
 2462TIP3    H1 7343   7.057   1.594   4.032
 2462TIP3    H2 7344   7.130   1.701   4.111
 2463TIP3   OH2 7345   5.535   2.100   6.199
 2463TIP3    H1 7346   5.446   2.136   6.206
 2463TIP3    H2 7347   5.591   2.176   6.188
 2464TIP3   OH2 7348   3.968   7.693   3.512
 2464TIP3    H1 7349   4.027   7.642   3.566
 2464TIP3    H2 7350   3.881   7.657   3.530
 2465TIP3   OH2 7351   5.140   1.402   1.379
 2465TIP3    H1 7352   5.065   1.375   1.326
 2465TIP3    H2 7353   5.203   1.437   1.316
 2466TIP3   OH2 7354   4.271   2.109   4.459
 2466TIP3    H1 7355   4.259   2.017   4.482
 2466TIP3    H2 7356   4.330   2.143   4.526
 2467TIP3   OH2 7357   2.804   7.125   4.952
 2467TIP3    H1 7358   2.849   7.161   5.028
 2467TIP3    H2 7359   2.873   7.111   4.887
 2468TIP3   OH2 7360   0.160   5.548   1.552
 2468TIP3    H1 7361   0.074   5.550   1.511
 2468TIP3    H2 7362   0.172   5.636   1.587
 2469TIP3   OH2 7363   6.568   5.382   5.280
 2469TIP3    H1 7364   6.625   5.306   5.264
 2469TIP3    H2 7365   6.583   5.439   5.205
 2470TIP3   OH2 7366   7.364   0.531   6.494
 2470TIP3    H1 7367   7.331   0.583   6.420
 2470TIP3    H2 7368   7.347   0.440   6.469
 2471TIP3   OH2 7369   0.871   7.404   1.474
 2471TIP3    H1 7370   0.831   7.329   1.519
 2471TIP3    H2 7371   0.879   7.471   1.542
 2472TIP3   OH2 7372   4.963   2.573   3.866
 2472TIP3    H1 7373   5.023   2.542   3.798
 2472TIP3    H2 7374   4.902   2.630   3.820
 2473TIP3   OH2 7375   6.064   5.965   0.640
 2473TIP3    H1 7376   6.117   5.967   0.561
 2473TIP3    H2 7377   5.997   6.032   0.626
 2474TIP3   OH2 7378   4.455   6.796   6.117
 2474TIP3    H1 7379   4.504   6.748   6.050
 2474TIP3    H2 7380   4.393   6.732   6.150
 2475TIP3   OH2 7381   4.487   0.662   6.269
 2475TIP3    H1 7382   4.548   0.652   6.195
 2475TIP3    H2 7383   4.419   0.597   6.253
 2476TIP3   OH2 7384   2.783   5.571   3.857
 2476TIP3    H1 7385   2.733   5.607   3.930
 2476TIP3    H2 7386   2.863   5.537   3.897
 2477TIP3   OH2 7387   4.534   6.863   1.184
 2477TIP3    H1 7388   4.453   6.880   1.232
 2477TIP3    H2 7389   4.598   6.920   1.226
 2478TIP3   OH2 7390   6.413   2.079   2.999
 2478TIP3    H1 7391   6.352   2.022   2.953
 2478TIP3    H2 7392   6.461   2.125   2.930
 2479TIP3   OH2 7393   1.011   3.117   0.356
 2479TIP3    H1 7394   1.096   3.119   0.400
 2479TIP3    H2 7395   0.952   3.076   0.419
 2480TIP3   OH2 7396   7.010   0.661   5.541
 2480TIP3    H1 7397   6.976   0.579   5.505
 2480TIP3    H2 7398   6.934   0.702   5.583
 2481TIP3   OH2 7399   0.652   6.269   6.031
 2481TIP3    H1 7400   0.566   6.307   6.016
 2481TIP3    H2 7401   0.710   6.315   5.970
 2482TIP3   OH2 7402   3.117   6.829   4.451
 2482TIP3    H1 7403   3.193   6.843   4.508
 2482TIP3    H2 7404   3.154   6.826   4.363
 2483TIP3   OH2 7405   4.053   5.351   1.599
 2483TIP3    H1 7406   4.011   5.308   1.525
 2483TIP3    H2 7407   4.014   5.438   1.602
 2484TIP3   OH2 7408   1.879   2.713   3.321
 2484TIP3    H1 7409   1.932   2.633   3.316
 2484TIP3    H2 7410   1.839   2.721   3.234
 2485TIP3   OH2 7411   4.985   3.985   6.634
 2485TIP3    H1 7412   4.903   4.034   6.630
 2485TIP3    H2 7413   5.044   4.032   6.576
 2486TIP3   OH2 7414   6.864   3.809   1.482
 2486TIP3    H1 7415   6.873   3.809   1.387
 2486TIP3    H2 7416   6.813   3.888   1.502
 2487TIP3   OH2 7417   1.222   5.766   0.593
 2487TIP3    H1 7418   1.238   5.673   0.612
 2487TIP3    H2 7419   1.284   5.812   0.650
 2488TIP3   OH2 7420   1.784   6.437   2.963
 2488TIP3    H1 7421   1.819   6.495   2.895
 2488TIP3    H2 7422   1.825   6.352   2.946
 2489TIP3   OH2 7423   3.156   4.695   0.738
 2489TIP3    H1 7424   3.128   4.739   0.658
 2489TIP3    H2 7425   3.240   4.736   0.760
 2490TIP3   OH2 7426   7.460   6.591   6.694
 2490TIP3    H1 7427   7.444   6.633   6.778
 2490TIP3    H2 7428   7.379   6.606   6.644
 2491TIP3   OH2 7429   5.611   6.015   4.557
 2491TIP3    H1 7430   5.584   6.033   4.647
 2491TIP3    H2 7431   5.570   6.085   4.506
 2492TIP3   OH2 7432   3.133   0.064   0.719
 2492TIP3    H1 7433   3.161  -0.019   0.758
 2492TIP3    H2 7434   3.039   0.054   0.705
 2493TIP3   OH2 7435   5.129   1.736   2.805
 2493TIP3    H1 7436   5.078   1.734   2.885
 2493TIP3    H2 7437   5.121   1.826   2.773
 2494TIP3   OH2 7438   4.849   7.293   0.128
 2494TIP3    H1 7439   4.926   7.348   0.112
 2494TIP3    H2 7440   4.847   7.281   0.223
 2495TIP3   OH2 7441   3.583   5.377   1.261
 2495TIP3    H1 7442   3.557   5.286   1.278
 2495TIP3    H2 7443   3.632   5.372   1.179
 2496TIP3   OH2 7444   2.422   6.264   0.031
 2496TIP3    H1 7445   2.374   6.183   0.042
 2496TIP3    H2 7446   2.508   6.237  -0.001
 2497TIP3   OH2 7447   4.078   0.036   4.421
 2497TIP3    H1 7448   4.020   0.000   4.354
 2497TIP3    H2 7449   4.167   0.015   4.390
 2498TIP3   OH2 7450   4.768   6.181   2.671
 2498TIP3    H1 7451   4.772   6.215   2.761
 2498TIP3    H2 7452   4.766   6.259   2.616
 2499TIP3   OH2 7453   4.254   1.529   1.582
 2499TIP3    H1 7454   4.244   1.495   1.671
 2499TIP3    H2 7455   4.268   1.451   1.528
 2500TIP3   OH2 7456   4.728   3.358   2.683
 2500TIP3    H1 7457   4.660   3.418   2.712
 2500TIP3    H2 7458   4.695   3.271   2.706
 2501TIP3   OH2 7459   5.978   1.083   6.204
 2501TIP3    H1 7460   6.062   1.116   6.236
 2501TIP3    H2 7461   5.991   1.070   6.110
 2502TIP3   OH2 7462   7.181   3.250   0.788
 2502TIP3    H1 7463   7.234   3.330   0.789
 2502TIP3    H2 7464   7.240   3.182   0.755
 2503TIP3   OH2 7465   6.329   5.821   5.019
 2503TIP3    H1 7466   6.302   5.898   5.068
 2503TIP3    H2 7467   6.374   5.766   5.083
 2504TIP3   OH2 7468   7.504   4.569   6.178
 2504TIP3    H1 7469   7.561   4.573   6.101
 2504TIP3    H2 7470   7.556   4.524   6.245
 2505TIP3   OH2 7471   3.434   0.353   1.738
 2505TIP3    H1 7472   3.445   0.446   1.755
 2505TIP3    H2 7473   3.355   0.347   1.685
 2506TIP3   OH2 7474   6.758   5.304   2.579
 2506TIP3    H1 7475   6.842   5.297   2.533
 2506TIP3    H2 7476   6.776   5.271   2.667
 2507TIP3   OH2 7477   2.834   0.795   0.761
 2507TIP3    H1 7478   2.766   0.731   0.782
 2507TIP3    H2 7479   2.787   0.879   0.755
 2508TIP3   OH2 7480   0.373   2.954   5.851
 2508TIP3    H1 7481   0.355   3.027   5.792
 2508TIP3    H2 7482   0.399   2.882   5.794
 2509TIP3   OH2 7483   4.866   2.237   2.479
 2509TIP3    H1 7484   4.872   2.142   2.472
 2509TIP3    H2 7485   4.896   2.256   2.568
 2510TIP3   OH2 7486   7.943   1.019   3.007
 2510TIP3    H1 7487   7.940   1.112   3.031
 2510TIP3    H2 7488   8.033   0.993   3.024
 2511TIP3   OH2 7489   5.147   0.656   2.916
 2511TIP3    H1 7490   5.147   0.588   2.984
 2511TIP3    H2 7491   5.238   0.683   2.909
 2512TIP3   OH2 7492   4.797   1.945   3.394
 2512TIP3    H1 7493   4.796   1.868   3.336
 2512TIP3    H2 7494   4.705   1.969   3.403
 2513TIP3   OH2 7495   7.166   5.238   5.713
 2513TIP3    H1 7496   7.218   5.211   5.638
 2513TIP3    H2 7497   7.226   5.292   5.766
 2514TIP3   OH2 7498   1.020   2.895   4.899
 2514TIP3    H1 7499   1.051   2.940   4.820
 2514TIP3    H2 7500   0.932   2.929   4.913
 2515TIP3   OH2 7501   1.727   1.178   2.698
 2515TIP3    H1 7502   1.744   1.180   2.603
 2515TIP3    H2 7503   1.761   1.261   2.730
 2516TIP3   OH2 7504   4.310   1.600   2.103
 2516TIP3    H1 7505   4.346   1.574   2.018
 2516TIP3    H2 7506   4.215   1.595   2.092
 2517TIP3   OH2 7507   2.862   5.481   3.190
 2517TIP3    H1 7508   2.916   5.479   3.269
 2517TIP3    H2 7509   2.828   5.570   3.186
 2518TIP3   OH2 7510   2.952   6.684   6.595
 2518TIP3    H1 7511   2.928   6.672   6.687
 2518TIP3    H2 7512   3.047   6.692   6.596
 2519TIP3   OH2 7513   7.045   2.228   5.898
 2519TIP3    H1 7514   6.957   2.265   5.892
 2519TIP3    H2 7515   7.101   2.304   5.915
 2520TIP3   OH2 7516   6.896   2.080   0.948
 2520TIP3    H1 7517   6.839   2.004   0.945
 2520TIP3    H2 7518   6.938   2.076   1.034
 2521TIP3   OH2 7519   1.886   6.797   4.207
 2521TIP3    H1 7520   1.855   6.727   4.265
 2521TIP3    H2 7521   1.806   6.837   4.173
 2522TIP3   OH2 7522   2.063   3.352   2.361
 2522TIP3    H1 7523   2.127   3.390   2.300
 2522TIP3    H2 7524   2.112   3.284   2.407
 2523TIP3   OH2 7525   6.520   1.447   3.678
 2523TIP3    H1 7526   6.434   1.410   3.657
 2523TIP3    H2 7527   6.500   1.522   3.733
 2524TIP3   OH2 7528   6.856   5.734   4.501
 2524TIP3    H1 7529   6.869   5.810   4.444
 2524TIP3    H2 7530   6.913   5.750   4.576
 2525TIP3   OH2 7531   0.250   0.212   2.360
 2525TIP3    H1 7532   0.287   0.130   2.394
 2525TIP3    H2 7533   0.287   0.280   2.418
 2526TIP3   OH2 7534   7.953   3.570   5.495
 2526TIP3    H1 7535   7.897   3.573   5.572
 2526TIP3    H2 7536   7.895   3.547   5.423
 2527TIP3   OH2 7537   4.170   1.189   0.818
 2527TIP3    H1 7538   4.246   1.131   0.806
 2527TIP3    H2 7539   4.110   1.164   0.748
 2528TIP3   OH2 7540   4.739   1.866   0.769
 2528TIP3    H1 7541   4.678   1.824   0.830
 2528TIP3    H2 7542   4.819   1.815   0.776
 2529TIP3   OH2 7543   7.501   7.182   0.107
 2529TIP3    H1 7544   7.580   7.231   0.087
 2529TIP3    H2 7545   7.433   7.222   0.052
 2530TIP3   OH2 7546   0.725   1.513   3.929
 2530TIP3    H1 7547   0.721   1.470   4.014
 2530TIP3    H2 7548   0.814   1.548   3.923
 2531TIP3   OH2 7549   0.776   2.888   3.762
 2531TIP3    H1 7550   0.757   2.975   3.727
 2531TIP3    H2 7551   0.707   2.872   3.826
 2532TIP3   OH2 7552   3.998   3.793   1.474
 2532TIP3    H1 7553   4.045   3.873   1.450
 2532TIP3    H2 7554   4.019   3.732   1.404
 2533TIP3   OH2 7555   2.051   2.319   4.100
 2533TIP3    H1 7556   2.030   2.226   4.109
 2533TIP3    H2 7557   2.104   2.323   4.021
 2534TIP3   OH2 7558   5.575   3.117   0.400
 2534TIP3    H1 7559   5.567   3.203   0.360
 2534TIP3    H2 7560   5.649   3.125   0.461
 2535TIP3   OH2 7561   1.111   0.288   1.986
 2535TIP3    H1 7562   1.066   0.207   1.963
 2535TIP3    H2 7563   1.131   0.329   1.902
 2536TIP3   OH2 7564   6.066   7.211   0.514
 2536TIP3    H1 7565   5.979   7.245   0.494
 2536TIP3    H2 7566   6.068   7.204   0.609
 2537TIP3   OH2 7567   6.163   1.775   3.781
 2537TIP3    H1 7568   6.076   1.735   3.779
 2537TIP3    H2 7569   6.146   1.869   3.791
 2538TIP3   OH2 7570   0.630   4.578   1.824
 2538TIP3    H1 7571   0.576   4.501   1.844
 2538TIP3    H2 7572   0.673   4.599   1.907
 2539TIP3   OH2 7573   1.404   3.999   5.905
 2539TIP3    H1 7574   1.488   4.042   5.887
 2539TIP3    H2 7575   1.380   3.959   5.822
 2540TIP3   OH2 7576   6.651   7.064   5.615
 2540TIP3    H1 7577   6.598   7.038   5.691
 2540TIP3    H2 7578   6.740   7.039   5.639
 2541TIP3   OH2 7579   5.027   5.696   5.954
 2541TIP3    H1 7580   4.941   5.692   5.994
 2541TIP3    H2 7581   5.053   5.604   5.944
 2542TIP3   OH2 7582   6.157   7.664   3.159
 2542TIP3    H1 7583   6.171   7.662   3.254
 2542TIP3    H2 7584   6.148   7.757   3.138
 2543TIP3   OH2 7585   0.146   0.736   0.253
 2543TIP3    H1 7586   0.212   0.801   0.278
 2543TIP3    H2 7587   0.098   0.777   0.181
 2544TIP3   OH2 7588   0.542   7.611   1.441
 2544TIP3    H1 7589   0.492   7.686   1.473
 2544TIP3    H2 7590   0.627   7.647   1.416
 2545TIP3   OH2 7591   1.398   0.428   2.207
 2545TIP3    H1 7592   1.394   0.424   2.112
 2545TIP3    H2 7593   1.349   0.352   2.237
 2546TIP3   OH2 7594   0.163   4.344   1.896
 2546TIP3    H1 7595   0.119   4.277   1.948
 2546TIP3    H2 7596   0.200   4.404   1.961
 2547TIP3   OH2 7597   4.521   2.546   2.270
 2547TIP3    H1 7598   4.575   2.474   2.304
 2547TIP3    H2 7599   4.473   2.507   2.197
 2548TIP3   OH2 7600   0.623   2.396   2.044
 2548TIP3    H1 7601   0.580   2.319   2.009
 2548TIP3    H2 7602   0.553   2.460   2.055
 2549TIP3   OH2 7603   1.186   5.510   4.490
 2549TIP3    H1 7604   1.120   5.459   4.537
 2549TIP3    H2 7605   1.173   5.600   4.520
 2550TIP3   OH2 7606   7.559   3.129   3.347
 2550TIP3    H1 7607   7.465   3.114   3.337
 2550TIP3    H2 7608   7.565   3.212   3.393
 2551TIP3   OH2 7609   2.179   5.337   6.488
 2551TIP3    H1 7610   2.126   5.280   6.432
 2551TIP3    H2 7611   2.265   5.294   6.492
 2552TIP3   OH2 7612   3.951   3.363   0.841
 2552TIP3    H1 7613   4.025   3.375   0.901
 2552TIP3    H2 7614   3.988   3.384   0.755
 2553TIP3   OH2 7615   4.779   2.681   3.109
 2553TIP3    H1 7616   4.874   2.670   3.114
 2553TIP3    H2 7617   4.747   2.645   3.192
 2554TIP3   OH2 7618   2.042   5.792   5.903
 2554TIP3    H1 7619   1.988   5.748   5.970
 2554TIP3    H2 7620   2.130   5.792   5.940
 2555TIP3   OH2 7621   6.045   2.481   4.879
 2555TIP3    H1 7622   6.103   2.552   4.852
 2555TIP3    H2 7623   5.978   2.477   4.811
 2556TIP3   OH2 7624   1.341   3.566   2.235
 2556TIP3    H1 7625   1.352   3.590   2.327
 2556TIP3    H2 7626   1.248   3.546   2.226
 2557TIP3   OH2 7627   7.331   4.683   3.165
 2557TIP3    H1 7628   7.371   4.629   3.233
 2557TIP3    H2 7629   7.335   4.629   3.086
 2558TIP3   OH2 7630   0.586   0.278   0.882
 2558TIP3    H1 7631   0.555   0.323   0.960
 2558TIP3    H2 7632   0.659   0.224   0.912
 2559TIP3   OH2 7633   0.083   3.733   3.987
 2559TIP3    H1 7634   0.086   3.647   4.027
 2559TIP3    H2 7635  -0.008   3.762   4.000
 2560TIP3   OH2 7636   3.952   3.021   4.274
 2560TIP3    H1 7637   4.041   3.006   4.243
 2560TIP3    H2 7638   3.912   3.076   4.208
 2561TIP3   OH2 7639   0.474   5.467   6.631
 2561TIP3    H1 7640   0.509   5.379   6.646
 2561TIP3    H2 7641   0.388   5.466   6.672
 2562TIP3   OH2 7642   7.316   5.534   0.024
 2562TIP3    H1 7643   7.231   5.538   0.067
 2562TIP3    H2 7644   7.304   5.581  -0.058
 2563TIP3   OH2 7645   2.929   6.087   5.770
 2563TIP3    H1 7646   2.880   6.127   5.698
 2563TIP3    H2 7647   2.863   6.063   5.835
 2564TIP3   OH2 7648   0.645   1.386   4.586
 2564TIP3    H1 7649   0.619   1.342   4.505
 2564TIP3    H2 7650   0.635   1.320   4.654
 2565TIP3   OH2 7651   5.806   5.211   4.379
 2565TIP3    H1 7652   5.897   5.218   4.407
 2565TIP3    H2 7653   5.770   5.140   4.432
 2566TIP3   OH2 7654   4.736   1.585   1.181
 2566TIP3    H1 7655   4.827   1.564   1.158
 2566TIP3    H2 7656   4.739   1.602   1.276
 2567TIP3   OH2 7657   4.761   3.727   0.396
 2567TIP3    H1 7658   4.848   3.730   0.355
 2567TIP3    H2 7659   4.719   3.809   0.369
 2568TIP3   OH2 7660   4.947   4.578   5.756
 2568TIP3    H1 7661   4.984   4.516   5.693
 2568TIP3    H2 7662   5.018   4.596   5.816
 2569TIP3   OH2 7663   7.348   5.101   5.113
 2569TIP3    H1 7664   7.390   5.017   5.131
 2569TIP3    H2 7665   7.353   5.111   5.018
 2570TIP3   OH2 7666   5.701   4.493   0.893
 2570TIP3    H1 7667   5.757   4.564   0.860
 2570TIP3    H2 7668   5.731   4.480   0.983
 2571TIP3   OH2 7669   2.712   6.702   6.112
 2571TIP3    H1 7670   2.797   6.688   6.070
 2571TIP3    H2 7671   2.651   6.718   6.040
 2572TIP3   OH2 7672   0.110   2.325   2.055
 2572TIP3    H1 7673   0.120   2.291   2.144
 2572TIP3    H2 7674   0.157   2.262   2.000
 2573TIP3   OH2 7675   7.825   0.910   3.406
 2573TIP3    H1 7676   7.916   0.934   3.387
 2573TIP3    H2 7677   7.776   0.943   3.330
 2574TIP3   OH2 7678   2.750   4.055   0.487
 2574TIP3    H1 7679   2.823   4.015   0.439
 2574TIP3    H2 7680   2.681   3.989   0.486
 2575TIP3   OH2 7681   1.802   2.985   1.739
 2575TIP3    H1 7682   1.822   2.983   1.832
 2575TIP3    H2 7683   1.721   3.036   1.733
 2576TIP3   OH2 7684   3.068   5.818   0.279
 2576TIP3    H1 7685   3.088   5.765   0.202
 2576TIP3    H2 7686   3.146   5.872   0.292
 2577TIP3   OH2 7687   4.006   6.404   1.027
 2577TIP3    H1 7688   4.009   6.353   0.946
 2577TIP3    H2 7689   4.072   6.364   1.083
 2578TIP3   OH2 7690   6.781   2.873   5.430
 2578TIP3    H1 7691   6.706   2.814   5.424
 2578TIP3    H2 7692   6.855   2.820   5.403
 2579TIP3   OH2 7693   1.618   2.924   4.564
 2579TIP3    H1 7694   1.596   2.925   4.657
 2579TIP3    H2 7695   1.542   2.964   4.521
 2580TIP3   OH2 7696   1.167   5.907   3.598
 2580TIP3    H1 7697   1.113   5.949   3.666
 2580TIP3    H2 7698   1.177   5.817   3.628
 2581TIP3   OH2 7699   0.664   6.035   6.153
 2581TIP3    H1 7700   0.660   6.103   6.085
 2581TIP3    H2 7701   0.659   6.084   6.235
 2582TIP3   OH2 7702   0.796   5.548   5.911
 2582TIP3    H1 7703   0.814   5.547   6.004
 2582TIP3    H2 7704   0.769   5.638   5.892
 2583TIP3   OH2 7705   7.655   0.547   5.347
 2583TIP3    H1 7706   7.611   0.487   5.286
 2583TIP3    H2 7707   7.656   0.631   5.301
 2584TIP3   OH2 7708   5.624   0.760   1.170
 2584TIP3    H1 7709   5.677   0.820   1.117
 2584TIP3    H2 7710   5.622   0.679   1.120
 2585TIP3   OH2 7711   8.260   5.703   0.778
 2585TIP3    H1 7712   8.220   5.626   0.738
 2585TIP3    H2 7713   8.187   5.764   0.790
 2586TIP3   OH2 7714   6.971   4.093   4.914
 2586TIP3    H1 7715   6.966   4.018   4.973
 2586TIP3    H2 7716   6.924   4.064   4.835
 2587TIP3   OH2 7717   6.162   7.723   1.748
 2587TIP3    H1 7718   6.246   7.700   1.788
 2587TIP3    H2 7719   6.163   7.819   1.746
 2588TIP3   OH2 7720   1.679   6.535   5.687
 2588TIP3    H1 7721   1.747   6.577   5.738
 2588TIP3    H2 7722   1.602   6.536   5.744
 2589TIP3   OH2 7723   6.229   4.645   3.453
 2589TIP3    H1 7724   6.202   4.591   3.527
 2589TIP3    H2 7725   6.191   4.602   3.376
 2590TIP3   OH2 7726   2.535   1.692   3.162
 2590TIP3    H1 7727   2.604   1.755   3.181
 2590TIP3    H2 7728   2.470   1.741   3.112
 2591TIP3   OH2 7729   6.777   4.007   5.514
 2591TIP3    H1 7730   6.822   3.936   5.468
 2591TIP3    H2 7731   6.840   4.078   5.515
 2592TIP3   OH2 7732   5.621   0.652   5.929
 2592TIP3    H1 7733   5.593   0.654   5.838
 2592TIP3    H2 7734   5.540   0.645   5.980
 2593TIP3   OH2 7735   1.616   1.630   3.018
 2593TIP3    H1 7736   1.574   1.545   3.034
 2593TIP3    H2 7737   1.606   1.643   2.924
 2594TIP3   OH2 7738   5.793   1.070   4.257
 2594TIP3    H1 7739   5.872   1.082   4.309
 2594TIP3    H2 7740   5.823   1.032   4.174
 2595TIP3   OH2 7741   3.380   6.679   2.788
 2595TIP3    H1 7742   3.475   6.676   2.790
 2595TIP3    H2 7743   3.356   6.648   2.701
 2596TIP3   OH2 7744   0.459   6.601   4.838
 2596TIP3    H1 7745   0.404   6.545   4.782
 2596TIP3    H2 7746   0.544   6.556   4.840
 2597TIP3   OH2 7747   6.368   2.552   3.270
 2597TIP3    H1 7748   6.450   2.598   3.249
 2597TIP3    H2 7749   6.343   2.586   3.356
 2598TIP3   OH2 7750   3.516   2.478   3.768
 2598TIP3    H1 7751   3.586   2.430   3.724
 2598TIP3    H2 7752   3.501   2.429   3.849
 2599TIP3   OH2 7753   7.582   1.377   0.581
 2599TIP3    H1 7754   7.624   1.335   0.507
 2599TIP3    H2 7755   7.644   1.444   0.610
 2600TIP3   OH2 7756   7.085   3.523   2.799
 2600TIP3    H1 7757   7.163   3.569   2.831
 2600TIP3    H2 7758   7.120   3.445   2.755
 2601TIP3   OH2 7759   0.714   6.622   0.764
 2601TIP3    H1 7760   0.789   6.668   0.727
 2601TIP3    H2 7761   0.742   6.596   0.852
 2602TIP3   OH2 7762   5.328   4.601   4.950
 2602TIP3    H1 7763   5.233   4.593   4.960
 2602TIP3    H2 7764   5.339   4.661   4.876
 2603TIP3   OH2 7765   6.954   4.180   2.976
 2603TIP3    H1 7766   6.932   4.108   2.916
 2603TIP3    H2 7767   6.914   4.155   3.059
 2604TIP3   OH2 7768   7.990   1.840   0.245
 2604TIP3    H1 7769   7.931   1.772   0.212
 2604TIP3    H2 7770   7.959   1.921   0.204
 2605TIP3   OH2 7771   8.065   5.695   0.429
 2605TIP3    H1 7772   8.160   5.706   0.431
 2605TIP3    H2 7773   8.031   5.783   0.441
 2606TIP3   OH2 7774   6.513   1.095   3.974
 2606TIP3    H1 7775   6.490   1.003   3.963
 2606TIP3    H2 7776   6.602   1.102   3.938
 2607TIP3   OH2 7777   4.595   4.403   1.000
 2607TIP3    H1 7778   4.559   4.384   0.913
 2607TIP3    H2 7779   4.679   4.447   0.982
 2608TIP3   OH2 7780   1.386   3.301   5.681
 2608TIP3    H1 7781   1.417   3.384   5.716
 2608TIP3    H2 7782   1.373   3.246   5.758
 2609TIP3   OH2 7783   7.254   2.577   4.531
 2609TIP3    H1 7784   7.335   2.536   4.499
 2609TIP3    H2 7785   7.230   2.639   4.462
 2610TIP3   OH2 7786   6.813   3.205   6.506
 2610TIP3    H1 7787   6.806   3.143   6.578
 2610TIP3    H2 7788   6.723   3.233   6.490
 2611TIP3   OH2 7789   3.470   3.585   0.634
 2611TIP3    H1 7790   3.563   3.582   0.609
 2611TIP3    H2 7791   3.444   3.493   0.642
 2612TIP3   OH2 7792   6.295   5.252   0.582
 2612TIP3    H1 7793   6.367   5.208   0.626
 2612TIP3    H2 7794   6.231   5.268   0.652
 2613TIP3   OH2 7795   6.599   1.589   2.238
 2613TIP3    H1 7796   6.534   1.611   2.304
 2613TIP3    H2 7797   6.655   1.524   2.280
 2614TIP3   OH2 7798   1.298   3.712   2.476
 2614TIP3    H1 7799   1.320   3.794   2.519
 2614TIP3    H2 7800   1.203   3.705   2.484
 2615TIP3   OH2 7801   4.790   3.034   5.116
 2615TIP3    H1 7802   4.808   3.126   5.094
 2615TIP3    H2 7803   4.821   2.985   5.039
 2616TIP3   OH2 7804   1.625   4.569   0.444
 2616TIP3    H1 7805   1.630   4.473   0.451
 2616TIP3    H2 7806   1.557   4.584   0.379
 2617TIP3   OH2 7807   6.098   1.899   3.278
 2617TIP3    H1 7808   6.172   1.958   3.293
 2617TIP3    H2 7809   6.044   1.944   3.214
 2618TIP3   OH2 7810   0.788   3.945   0.811
 2618TIP3    H1 7811   0.840   4.019   0.843
 2618TIP3    H2 7812   0.839   3.868   0.833
 2619TIP3   OH2 7813   4.885   4.719   3.203
 2619TIP3    H1 7814   4.825   4.726   3.128
 2619TIP3    H2 7815   4.845   4.652   3.259
 2620TIP3   OH2 7816   7.802   0.943   1.587
 2620TIP3    H1 7817   7.863   0.906   1.523
 2620TIP3    H2 7818   7.720   0.951   1.540
 2621TIP3   OH2 7819   2.789   0.072   5.685
 2621TIP3    H1 7820   2.837   0.061   5.768
 2621TIP3    H2 7821   2.717   0.131   5.706
 2622TIP3   OH2 7822   0.209   0.031   3.661
 2622TIP3    H1 7823   0.136  -0.027   3.679
 2622TIP3    H2 7824   0.174   0.119   3.677
 2623TIP3   OH2 7825   0.714   5.750   5.291
 2623TIP3    H1 7826   0.774   5.786   5.225
 2623TIP3    H2 7827   0.768   5.738   5.369
 2624TIP3   OH2 7828   2.498   0.168   5.197
 2624TIP3    H1 7829   2.405   0.145   5.201
 2624TIP3    H2 7830   2.527   0.164   5.288
 2625TIP3   OH2 7831   6.332   0.034   5.644
 2625TIP3    H1 7832   6.350   0.035   5.738
 2625TIP3    H2 7833   6.403  -0.019   5.607
 2626TIP3   OH2 7834   0.934   3.017   2.018
 2626TIP3    H1 7835   0.992   3.093   2.011
 2626TIP3    H2 7836   0.991   2.942   2.001
 2627TIP3   OH2 7837   4.012   2.355   1.453
 2627TIP3    H1 7838   3.925   2.320   1.470
 2627TIP3    H2 7839   4.049   2.371   1.540
 2628TIP3   OH2 7840   8.233   5.461   4.239
 2628TIP3    H1 7841   8.267   5.436   4.325
 2628TIP3    H2 7842   8.192   5.382   4.205
 2629TIP3   OH2 7843   6.141   3.743   4.211
 2629TIP3    H1 7844   6.171   3.832   4.231
 2629TIP3    H2 7845   6.162   3.731   4.118
 2630TIP3   OH2 7846   2.219   4.052   0.299
 2630TIP3    H1 7847   2.300   4.095   0.272
 2630TIP3    H2 7848   2.159   4.066   0.226
 2631TIP3   OH2 7849   2.943   4.864   5.145
 2631TIP3    H1 7850   2.878   4.863   5.215
 2631TIP3    H2 7851   2.921   4.941   5.093
 2632TIP3   OH2 7852   1.792   6.713   2.576
 2632TIP3    H1 7853   1.759   6.679   2.493
 2632TIP3    H2 7854   1.715   6.722   2.632
 2633TIP3   OH2 7855   1.245   1.975   3.859
 2633TIP3    H1 7856   1.315   2.039   3.868
 2633TIP3    H2 7857   1.166   2.020   3.889
 2634TIP3   OH2 7858   1.758   5.072   6.204
 2634TIP3    H1 7859   1.679   5.033   6.167
 2634TIP3    H2 7860   1.829   5.012   6.180
 2635TIP3   OH2 7861   4.199   6.259   6.047
 2635TIP3    H1 7862   4.173   6.190   6.108
 2635TIP3    H2 7863   4.122   6.273   5.993
 2636TIP3   OH2 7864   3.693   7.402   5.702
 2636TIP3    H1 7865   3.635   7.329   5.723
 2636TIP3    H2 7866   3.640   7.461   5.650
 2637TIP3   OH2 7867   3.987   0.764   4.005
 2637TIP3    H1 7868   3.990   0.678   4.045
 2637TIP3    H2 7869   4.028   0.822   4.069
 2638TIP3   OH2 7870   0.727   4.209   2.651
 2638TIP3    H1 7871   0.690   4.155   2.721
 2638TIP3    H2 7872   0.679   4.292   2.656
 2639TIP3   OH2 7873   1.293   4.351   3.964
 2639TIP3    H1 7874   1.219   4.291   3.949
 2639TIP3    H2 7875   1.342   4.349   3.882
 2640TIP3   OH2 7876   3.453   4.928   0.289
 2640TIP3    H1 7877   3.479   5.016   0.262
 2640TIP3    H2 7878   3.365   4.916   0.254
 2641TIP3   OH2 7879   1.652   0.415   3.336
 2641TIP3    H1 7880   1.567   0.391   3.373
 2641TIP3    H2 7881   1.651   0.511   3.335
 2642TIP3   OH2 7882   6.886   2.423   6.613
 2642TIP3    H1 7883   6.929   2.406   6.529
 2642TIP3    H2 7884   6.841   2.341   6.634
 2643TIP3   OH2 7885   0.195   3.124   0.105
 2643TIP3    H1 7886   0.151   3.110   0.021
 2643TIP3    H2 7887   0.288   3.118   0.086
 2644TIP3   OH2 7888   2.454   7.342   0.364
 2644TIP3    H1 7889   2.454   7.280   0.291
 2644TIP3    H2 7890   2.381   7.402   0.345
 2645TIP3   OH2 7891   0.667   6.867   3.512
 2645TIP3    H1 7892   0.682   6.890   3.421
 2645TIP3    H2 7893   0.755   6.863   3.551
 2646TIP3   OH2 7894   2.700   5.001   2.528
 2646TIP3    H1 7895   2.654   5.065   2.583
 2646TIP3    H2 7896   2.793   5.018   2.544
 2647TIP3   OH2 7897   1.281   0.988   5.806
 2647TIP3    H1 7898   1.376   0.979   5.794
 2647TIP3    H2 7899   1.267   1.081   5.821
 2648TIP3   OH2 7900   4.529   5.516   6.497
 2648TIP3    H1 7901   4.596   5.447   6.491
 2648TIP3    H2 7902   4.460   5.486   6.438
 2649TIP3   OH2 7903   4.245   7.216   6.321
 2649TIP3    H1 7904   4.225   7.289   6.263
 2649TIP3    H2 7905   4.276   7.146   6.264
 2650TIP3   OH2 7906   4.101   1.951   2.388
 2650TIP3    H1 7907   4.184   1.999   2.395
 2650TIP3    H2 7908   4.049   2.002   2.327
 2651TIP3   OH2 7909   3.920   3.485   5.330
 2651TIP3    H1 7910   3.896   3.449   5.415
 2651TIP3    H2 7911   3.887   3.421   5.266
 2652TIP3   OH2 7912   1.310   6.535   3.020
 2652TIP3    H1 7913   1.261   6.582   2.953
 2652TIP3    H2 7914   1.363   6.472   2.970
 2653TIP3   OH2 7915   3.844   2.810   2.741
 2653TIP3    H1 7916   3.823   2.903   2.740
 2653TIP3    H2 7917   3.934   2.806   2.774
 2654TIP3   OH2 7918   3.209   5.303   2.104
 2654TIP3    H1 7919   3.156   5.277   2.029
 2654TIP3    H2 7920   3.292   5.330   2.067
 2655TIP3   OH2 7921   1.869   6.315   0.398
 2655TIP3    H1 7922   1.895   6.267   0.477
 2655TIP3    H2 7923   1.773   6.323   0.406
 2656TIP3   OH2 7924   7.727   3.499   5.342
 2656TIP3    H1 7925   7.656   3.562   5.358
 2656TIP3    H2 7926   7.688   3.432   5.287
 2657TIP3   OH2 7927   2.654   0.356   6.282
 2657TIP3    H1 7928   2.619   0.356   6.193
 2657TIP3    H2 7929   2.742   0.318   6.273
 2658TIP3   OH2 7930   3.940   7.108   2.825
 2658TIP3    H1 7931   3.936   7.086   2.918
 2658TIP3    H2 7932   4.002   7.180   2.821
 2659TIP3   OH2 7933   3.394   6.718   1.334
 2659TIP3    H1 7934   3.360   6.782   1.397
 2659TIP3    H2 7935   3.326   6.710   1.268
 2660TIP3   OH2 7936   4.086   3.103   2.780
 2660TIP3    H1 7937   4.006   3.153   2.790
 2660TIP3    H2 7938   4.114   3.084   2.870
 2661TIP3   OH2 7939   0.158   3.151   4.848
 2661TIP3    H1 7940   0.130   3.129   4.936
 2661TIP3    H2 7941   0.199   3.071   4.815
 2662TIP3   OH2 7942   8.134   5.529   3.398
 2662TIP3    H1 7943   8.120   5.437   3.420
 2662TIP3    H2 7944   8.047   5.563   3.376
 2663TIP3   OH2 7945   1.143   4.476   5.628
 2663TIP3    H1 7946   1.233   4.454   5.607
 2663TIP3    H2 7947   1.092   4.441   5.554
 2664TIP3   OH2 7948   0.091   1.261   3.295
 2664TIP3    H1 7949   0.093   1.335   3.356
 2664TIP3    H2 7950   0.180   1.224   3.300
 2665TIP3   OH2 7951   5.651   5.441   5.828
 2665TIP3    H1 7952   5.669   5.490   5.748
 2665TIP3    H2 7953   5.581   5.380   5.804
 2666TIP3   OH2 7954   1.184   6.645   1.749
 2666TIP3    H1 7955   1.098   6.609   1.770
 2666TIP3    H2 7956   1.202   6.613   1.660
 2667TIP3   OH2 7957   8.017   5.676   6.080
 2667TIP3    H1 7958   8.045   5.695   6.169
 2667TIP3    H2 7959   7.987   5.585   6.084
 2668TIP3   OH2 7960   3.004   3.730   5.736
 2668TIP3    H1 7961   2.986   3.822   5.754
 2668TIP3    H2 7962   3.075   3.731   5.672
 2669TIP3   OH2 7963   4.860   0.424   5.138
 2669TIP3    H1 7964   4.906   0.454   5.059
 2669TIP3    H2 7965   4.794   0.363   5.106
 2670TIP3   OH2 7966   3.792   0.407   3.360
 2670TIP3    H1 7967   3.819   0.345   3.292
 2670TIP3    H2 7968   3.840   0.379   3.438
 2671TIP3   OH2 7969   0.128   2.463   1.135
 2671TIP3    H1 7970   0.075   2.538   1.107
 2671TIP3    H2 7971   0.111   2.456   1.229
 2672TIP3   OH2 7972   2.337   5.122   3.405
 2672TIP3    H1 7973   2.337   5.193   3.469
 2672TIP3    H2 7974   2.244   5.112   3.381
 2673TIP3   OH2 7975   2.679   5.982   1.129
 2673TIP3    H1 7976   2.738   6.014   1.061
 2673TIP3    H2 7977   2.732   5.981   1.208
 2674TIP3   OH2 7978   3.256   3.355   3.432
 2674TIP3    H1 7979   3.182   3.360   3.372
 2674TIP3    H2 7980   3.280   3.262   3.433
 2675TIP3   OH2 7981   8.171   3.042   6.034
 2675TIP3    H1 7982   8.116   2.975   5.994
 2675TIP3    H2 7983   8.163   3.118   5.976
 2676TIP3   OH2 7984   3.819   1.782   3.335
 2676TIP3    H1 7985   3.800   1.690   3.354
 2676TIP3    H2 7986   3.783   1.796   3.248
 2677TIP3   OH2 7987   6.272   0.476   6.219
 2677TIP3    H1 7988   6.363   0.490   6.243
 2677TIP3    H2 7989   6.226   0.555   6.247
 2678TIP3   OH2 7990   5.779   1.971   0.880
 2678TIP3    H1 7991   5.818   2.028   0.814
 2678TIP3    H2 7992   5.715   2.026   0.924
 2679TIP3   OH2 7993   5.840   1.218   6.536
 2679TIP3    H1 7994   5.893   1.206   6.615
 2679TIP3    H2 7995   5.811   1.130   6.513
 2680TIP3   OH2 7996   5.112   4.928   1.311
 2680TIP3    H1 7997   5.136   4.993   1.245
 2680TIP3    H2 7998   5.166   4.949   1.387
 2681TIP3   OH2 7999   4.592   0.090   0.694
 2681TIP3    H1 8000   4.506   0.053   0.679
 2681TIP3    H2 8001   4.616   0.062   0.782
 2682TIP3   OH2 8002   3.497   6.524   4.294
 2682TIP3    H1 8003   3.551   6.446   4.281
 2682TIP3    H2 8004   3.554   6.585   4.340
 2683TIP3   OH2 8005   2.933   7.025   3.546
 2683TIP3    H1 8006   2.899   7.111   3.522
 2683TIP3    H2 8007   2.868   6.990   3.607
 2684TIP3   OH2 8008   6.749   4.369   0.980
 2684TIP3    H1 8009   6.821   4.310   0.959
 2684TIP3    H2 8010   6.678   4.311   1.007
 2685TIP3   OH2 8011   1.505   1.377   3.041
 2685TIP3    H1 8012   1.436   1.422   2.993
 2685TIP3    H2 8013   1.538   1.311   2.980
 2686TIP3   OH2 8014   5.122   5.528   4.563
 2686TIP3    H1 8015   5.131   5.433   4.553
 2686TIP3    H2 8016   5.032   5.541   4.592
 2687TIP3   OH2 8017   6.298   2.788   3.733
 2687TIP3    H1 8018   6.346   2.717   3.774
 2687TIP3    H2 8019   6.208   2.778   3.766
 2688TIP3   OH2 8020   0.341   4.887   3.691
 2688TIP3    H1 8021   0.325   4.936   3.610
 2688TIP3    H2 8022   0.316   4.797   3.669
 2689TIP3   OH2 8023   7.498   2.741   5.735
 2689TIP3    H1 8024   7.425   2.788   5.694
 2689TIP3    H2 8025   7.535   2.688   5.665
 2690TIP3   OH2 8026   5.753   5.194   1.028
 2690TIP3    H1 8027   5.770   5.103   1.006
 2690TIP3    H2 8028   5.839   5.231   1.047
 2691TIP3   OH2 8029   0.939   5.272   1.915
 2691TIP3    H1 8030   0.940   5.368   1.918
 2691TIP3    H2 8031   0.919   5.251   1.824
 2692TIP3   OH2 8032   8.118   4.768   2.555
 2692TIP3    H1 8033   8.210   4.793   2.554
 2692TIP3    H2 8034   8.073   4.843   2.515
 2693TIP3   OH2 8035   7.259   6.022   5.068
 2693TIP3    H1 8036   7.354   6.020   5.080
 2693TIP3    H2 8037   7.227   6.081   5.136
 2694TIP3   OH2 8038   4.915   0.951   6.004
 2694TIP3    H1 8039   4.882   0.972   6.091
 2694TIP3    H2 8040   4.842   0.969   5.945
 2695TIP3   OH2 8041   3.651   6.351   4.156
 2695TIP3    H1 8042   3.717   6.383   4.094
 2695TIP3    H2 8043   3.570   6.349   4.106
 2696TIP3   OH2 8044   7.468   0.215   1.521
 2696TIP3    H1 8045   7.463   0.298   1.474
 2696TIP3    H2 8046   7.558   0.212   1.555
 2697TIP3   OH2 8047   6.445   5.602   6.419
 2697TIP3    H1 8048   6.531   5.561   6.418
 2697TIP3    H2 8049   6.419   5.601   6.511
 2698TIP3   OH2 8050   3.839   4.176   1.989
 2698TIP3    H1 8051   3.869   4.258   2.029
 2698TIP3    H2 8052   3.841   4.194   1.895
 2699TIP3   OH2 8053   0.404   7.723   5.670
 2699TIP3    H1 8054   0.389   7.818   5.662
 2699TIP3    H2 8055   0.401   7.691   5.580
 2700TIP3   OH2 8056   6.830   6.369   3.392
 2700TIP3    H1 8057   6.865   6.392   3.478
 2700TIP3    H2 8058   6.782   6.446   3.363
 2701TIP3   OH2 8059   0.615   2.768   5.947
 2701TIP3    H1 8060   0.614   2.677   5.977
 2701TIP3    H2 8061   0.523   2.795   5.948
 2702TIP3   OH2 8062   7.200   4.694   5.009
 2702TIP3    H1 8063   7.179   4.634   5.081
 2702TIP3    H2 8064   7.294   4.683   4.996
 2703TIP3   OH2 8065   6.138   0.426   3.321
 2703TIP3    H1 8066   6.068   0.486   3.345
 2703TIP3    H2 8067   6.189   0.473   3.255
 2704TIP3   OH2 8068   2.592   7.630   0.788
 2704TIP3    H1 8069   2.661   7.696   0.791
 2704TIP3    H2 8070   2.555   7.638   0.700
 2705TIP3   OH2 8071   6.218   3.069   3.300
 2705TIP3    H1 8072   6.285   3.019   3.254
 2705TIP3    H2 8073   6.265   3.144   3.335
 2706TIP3   OH2 8074   5.316   6.732   6.070
 2706TIP3    H1 8075   5.351   6.778   6.146
 2706TIP3    H2 8076   5.226   6.711   6.093
 2707TIP3   OH2 8077   3.003   7.026   5.180
 2707TIP3    H1 8078   3.072   6.963   5.159
 2707TIP3    H2 8079   3.038   7.110   5.150
 2708TIP3   OH2 8080   8.090   3.309   0.680
 2708TIP3    H1 8081   8.057   3.398   0.665
 2708TIP3    H2 8082   8.016   3.262   0.719
 2709TIP3   OH2 8083   5.187   4.822   3.054
 2709TIP3    H1 8084   5.171   4.880   3.129
 2709TIP3    H2 8085   5.142   4.864   2.981
 2710TIP3   OH2 8086   3.828   4.286   6.177
 2710TIP3    H1 8087   3.859   4.231   6.249
 2710TIP3    H2 8088   3.768   4.229   6.128
 2711TIP3   OH2 8089   0.206   5.255   3.216
 2711TIP3    H1 8090   0.119   5.292   3.202
 2711TIP3    H2 8091   0.213   5.245   3.310
 2712TIP3   OH2 8092   6.968   0.705   6.082
 2712TIP3    H1 8093   6.984   0.680   5.991
 2712TIP3    H2 8094   7.050   0.745   6.111
 2713TIP3   OH2 8095   8.041   0.471   0.670
 2713TIP3    H1 8096   8.092   0.399   0.633
 2713TIP3    H2 8097   8.055   0.544   0.609
 2714TIP3   OH2 8098   6.581   2.462   1.415
 2714TIP3    H1 8099   6.659   2.445   1.362
 2714TIP3    H2 8100   6.521   2.505   1.355
 2715TIP3   OH2 8101   4.383   6.539   3.553
 2715TIP3    H1 8102   4.330   6.612   3.584
 2715TIP3    H2 8103   4.363   6.468   3.614
 2716TIP3   OH2 8104   1.454   5.002   2.358
 2716TIP3    H1 8105   1.469   5.072   2.421
 2716TIP3    H2 8106   1.444   5.047   2.274
 2717TIP3   OH2 8107   4.228   3.548   6.579
 2717TIP3    H1 8108   4.159   3.525   6.517
 2717TIP3    H2 8109   4.277   3.467   6.592
 2718TIP3   OH2 8110   1.044   5.774   4.867
 2718TIP3    H1 8111   1.082   5.835   4.930
 2718TIP3    H2 8112   1.041   5.824   4.785
 2719TIP3   OH2 8113   6.665   7.446   2.955
 2719TIP3    H1 8114   6.667   7.528   2.905
 2719TIP3    H2 8115   6.671   7.378   2.888
 2720TIP3   OH2 8116   2.879   2.098   4.745
 2720TIP3    H1 8117   2.800   2.131   4.788
 2720TIP3    H2 8118   2.951   2.138   4.794
 2721TIP3   OH2 8119   5.706   1.150   0.749
 2721TIP3    H1 8120   5.673   1.094   0.818
 2721TIP3    H2 8121   5.730   1.231   0.793
 2722TIP3   OH2 8122   5.234   1.858   2.198
 2722TIP3    H1 8123   5.304   1.793   2.202
 2722TIP3    H2 8124   5.240   1.894   2.109
 2723TIP3   OH2 8125   3.918   0.365   0.656
 2723TIP3    H1 8126   3.855   0.437   0.644
 2723TIP3    H2 8127   3.968   0.389   0.734
 2724TIP3   OH2 8128   1.721   6.114   5.752
 2724TIP3    H1 8129   1.724   6.158   5.667
 2724TIP3    H2 8130   1.802   6.064   5.756
 2725TIP3   OH2 8131   2.477   5.910   6.007
 2725TIP3    H1 8132   2.413   5.839   6.003
 2725TIP3    H2 8133   2.426   5.988   6.029
 2726TIP3   OH2 8134   5.217   4.959   2.614
 2726TIP3    H1 8135   5.236   4.902   2.540
 2726TIP3    H2 8136   5.176   5.036   2.576
 2727TIP3   OH2 8137   1.056   0.325   5.466
 2727TIP3    H1 8138   1.044   0.367   5.551
 2727TIP3    H2 8139   1.150   0.330   5.450
 2728TIP3   OH2 8140   3.246   6.162   1.748
 2728TIP3    H1 8141   3.283   6.099   1.686
 2728TIP3    H2 8142   3.219   6.236   1.693
 2729TIP3   OH2 8143   0.687   3.253   3.160
 2729TIP3    H1 8144   0.763   3.236   3.103
 2729TIP3    H2 8145   0.681   3.348   3.165
 2730TIP3   OH2 8146   6.600   5.580   1.110
 2730TIP3    H1 8147   6.651   5.657   1.084
 2730TIP3    H2 8148   6.654   5.537   1.177
 2731TIP3   OH2 8149   2.037   6.886   3.982
 2731TIP3    H1 8150   2.082   6.932   4.054
 2731TIP3    H2 8151   1.956   6.853   4.022
 2732TIP3   OH2 8152   7.531   4.966   4.077
 2732TIP3    H1 8153   7.512   5.038   4.016
 2732TIP3    H2 8154   7.626   4.961   4.078
 2733TIP3   OH2 8155   1.404   0.279   6.571
 2733TIP3    H1 8156   1.317   0.271   6.533
 2733TIP3    H2 8157   1.391   0.271   6.665
 2734TIP3   OH2 8158   6.948   1.621   0.113
 2734TIP3    H1 8159   6.867   1.636   0.065
 2734TIP3    H2 8160   6.939   1.532   0.149
 2735TIP3   OH2 8161   5.630   5.257   0.598
 2735TIP3    H1 8162   5.621   5.169   0.633
 2735TIP3    H2 8163   5.723   5.278   0.610
 2736TIP3   OH2 8164   2.235   4.098   3.326
 2736TIP3    H1 8165   2.212   4.005   3.328
 2736TIP3    H2 8166   2.154   4.142   3.299
 2737TIP3   OH2 8167   6.644   6.310   1.868
 2737TIP3    H1 8168   6.608   6.379   1.923
 2737TIP3    H2 8169   6.566   6.266   1.831
 2738TIP3   OH2 8170   0.603   0.535   2.641
 2738TIP3    H1 8171   0.606   0.553   2.735
 2738TIP3    H2 8172   0.658   0.603   2.602
 2739TIP3   OH2 8173   7.137   6.533   1.347
 2739TIP3    H1 8174   7.129   6.600   1.279
 2739TIP3    H2 8175   7.051   6.492   1.349
 2740TIP3   OH2 8176   2.318   7.473   0.679
 2740TIP3    H1 8177   2.357   7.536   0.618
 2740TIP3    H2 8178   2.391   7.441   0.731
 2741TIP3   OH2 8179   7.834   6.417   3.231
 2741TIP3    H1 8180   7.878   6.420   3.146
 2741TIP3    H2 8181   7.876   6.486   3.283
 2742TIP3   OH2 8182   2.994   4.760   4.189
 2742TIP3    H1 8183   2.997   4.673   4.151
 2742TIP3    H2 8184   2.973   4.745   4.281
 2743TIP3   OH2 8185   0.144   7.121   5.354
 2743TIP3    H1 8186   0.085   7.049   5.330
 2743TIP3    H2 8187   0.098   7.167   5.425
 2744TIP3   OH2 8188   7.041   4.322   0.069
 2744TIP3    H1 8189   6.959   4.312   0.117
 2744TIP3    H2 8190   7.015   4.331  -0.022
 2745TIP3   OH2 8191   4.985   4.591   3.663
 2745TIP3    H1 8192   4.895   4.592   3.696
 2745TIP3    H2 8193   5.038   4.614   3.740
 2746TIP3   OH2 8194   2.418   1.176   0.752
 2746TIP3    H1 8195   2.374   1.146   0.832
 2746TIP3    H2 8196   2.486   1.236   0.783
 2747TIP3   OH2 8197   4.001   0.093   0.839
 2747TIP3    H1 8198   4.082   0.141   0.823
 2747TIP3    H2 8199   4.001   0.023   0.774
 2748TIP3   OH2 8200   5.770   7.530   4.937
 2748TIP3    H1 8201   5.852   7.572   4.965
 2748TIP3    H2 8202   5.745   7.476   5.011
 2749TIP3   OH2 8203   0.722   7.700   3.699
 2749TIP3    H1 8204   0.661   7.668   3.766
 2749TIP3    H2 8205   0.808   7.693   3.741
 2750TIP3   OH2 8206   7.469   1.114   4.204
 2750TIP3    H1 8207   7.438   1.024   4.199
 2750TIP3    H2 8208   7.550   1.114   4.154
 2751TIP3   OH2 8209   2.419   7.440   2.180
 2751TIP3    H1 8210   2.491   7.494   2.146
 2751TIP3    H2 8211   2.364   7.502   2.229
 2752TIP3   OH2 8212   7.941   1.582   2.576
 2752TIP3    H1 8213   7.906   1.647   2.636
 2752TIP3    H2 8214   7.988   1.633   2.510
 2753TIP3   OH2 8215   2.038   6.916   3.696
 2753TIP3    H1 8216   2.057   6.909   3.790
 2753TIP3    H2 8217   1.995   7.000   3.686
 2754TIP3   OH2 8218   0.505   6.707   1.530
 2754TIP3    H1 8219   0.426   6.755   1.555
 2754TIP3    H2 8220   0.473   6.633   1.479
 2755TIP3   OH2 8221   5.870   6.702   3.717
 2755TIP3    H1 8222   5.788   6.661   3.689
 2755TIP3    H2 8223   5.923   6.707   3.637
 2756TIP3   OH2 8224   5.937   4.843   1.963
 2756TIP3    H1 8225   5.857   4.879   2.002
 2756TIP3    H2 8226   5.912   4.821   1.874
 2757TIP3   OH2 8227   5.433   3.867   2.845
 2757TIP3    H1 8228   5.412   3.903   2.759
 2757TIP3    H2 8229   5.476   3.938   2.892
 2758TIP3   OH2 8230   7.371   6.870   2.678
 2758TIP3    H1 8231   7.393   6.870   2.771
 2758TIP3    H2 8232   7.298   6.932   2.670
 2759TIP3   OH2 8233   1.189   0.224   1.097
 2759TIP3    H1 8234   1.202   0.180   1.181
 2759TIP3    H2 8235   1.278   0.242   1.066
 2760TIP3   OH2 8236   2.158   0.294   5.896
 2760TIP3    H1 8237   2.079   0.330   5.855
 2760TIP3    H2 8238   2.129   0.212   5.935
 2761TIP3   OH2 8239   2.549   4.765   2.572
 2761TIP3    H1 8240   2.483   4.769   2.502
 2761TIP3    H2 8241   2.600   4.845   2.561
 2762TIP3   OH2 8242   7.421   3.740   0.052
 2762TIP3    H1 8243   7.422   3.742  -0.044
 2762TIP3    H2 8244   7.510   3.712   0.075
 2763TIP3   OH2 8245   2.510   7.329   0.860
 2763TIP3    H1 8246   2.498   7.284   0.776
 2763TIP3    H2 8247   2.597   7.301   0.890
 2764TIP3   OH2 8248   6.249   2.839   0.911
 2764TIP3    H1 8249   6.182   2.863   0.976
 2764TIP3    H2 8250   6.240   2.745   0.901
 2765TIP3   OH2 8251   0.165   5.453   5.373
 2765TIP3    H1 8252   0.097   5.403   5.418
 2765TIP3    H2 8253   0.117   5.505   5.308
 2766TIP3   OH2 8254   2.310   2.089   1.668
 2766TIP3    H1 8255   2.294   2.142   1.746
 2766TIP3    H2 8256   2.365   2.144   1.612
 2767TIP3   OH2 8257   6.136   1.887   1.522
 2767TIP3    H1 8258   6.073   1.822   1.489
 2767TIP3    H2 8259   6.104   1.971   1.489
 2768TIP3   OH2 8260   5.531   3.094   1.929
 2768TIP3    H1 8261   5.626   3.094   1.919
 2768TIP3    H2 8262   5.517   3.093   2.024
 2769TIP3   OH2 8263   4.384   6.953   4.849
 2769TIP3    H1 8264   4.295   6.958   4.884
 2769TIP3    H2 8265   4.422   6.877   4.892
 2770TIP3   OH2 8266   0.092   4.750   2.449
 2770TIP3    H1 8267   0.110   4.681   2.385
 2770TIP3    H2 8268   0.085   4.830   2.397
 2771TIP3   OH2 8269   5.012   4.130   0.338
 2771TIP3    H1 8270   5.099   4.093   0.350
 2771TIP3    H2 8271   5.002   4.193   0.410
 2772TIP3   OH2 8272   1.136   6.160   2.415
 2772TIP3    H1 8273   1.161   6.073   2.384
 2772TIP3    H2 8274   1.182   6.170   2.498
 2773TIP3   OH2 8275   5.312   0.792   5.835
 2773TIP3    H1 8276   5.254   0.867   5.820
 2773TIP3    H2 8277   5.297   0.735   5.761
 2774TIP3   OH2 8278   0.366   5.430   0.958
 2774TIP3    H1 8279   0.346   5.418   1.051
 2774TIP3    H2 8280   0.374   5.341   0.923
 2775TIP3   OH2 8281   4.694   3.424   6.511
 2775TIP3    H1 8282   4.759   3.491   6.493
 2775TIP3    H2 8283   4.744   3.345   6.528
 2776TIP3   OH2 8284   1.844   1.767   0.710
 2776TIP3    H1 8285   1.843   1.863   0.708
 2776TIP3    H2 8286   1.756   1.742   0.681
 2777TIP3   OH2 8287   5.351   6.674   0.853
 2777TIP3    H1 8288   5.396   6.745   0.807
 2777TIP3    H2 8289   5.414   6.601   0.850
 2778TIP3   OH2 8290   6.760   7.602   6.336
 2778TIP3    H1 8291   6.677   7.632   6.373
 2778TIP3    H2 8292   6.743   7.592   6.242
 2779TIP3   OH2 8293   7.053   1.166   0.344
 2779TIP3    H1 8294   7.136   1.119   0.353
 2779TIP3    H2 8295   7.078   1.258   0.349
 2780TIP3   OH2 8296   3.722   5.249   2.958
 2780TIP3    H1 8297   3.758   5.292   3.036
 2780TIP3    H2 8298   3.749   5.157   2.967
 2781TIP3   OH2 8299   8.239   5.844   3.310
 2781TIP3    H1 8300   8.183   5.806   3.242
 2781TIP3    H2 8301   8.220   5.937   3.306
 2782TIP3   OH2 8302   6.078   0.614   6.007
 2782TIP3    H1 8303   6.012   0.619   6.077
 2782TIP3    H2 8304   6.145   0.555   6.041
 2783TIP3   OH2 8305   6.898   7.291   4.926
 2783TIP3    H1 8306   6.845   7.359   4.884
 2783TIP3    H2 8307   6.878   7.211   4.877
 2784TIP3   OH2 8308   5.719   7.175   4.793
 2784TIP3    H1 8309   5.796   7.231   4.799
 2784TIP3    H2 8310   5.691   7.183   4.702
 2785TIP3   OH2 8311   2.796   6.929   6.271
 2785TIP3    H1 8312   2.715   6.977   6.259
 2785TIP3    H2 8313   2.777   6.840   6.241
 2786TIP3   OH2 8314   4.260   6.444   5.652
 2786TIP3    H1 8315   4.262   6.489   5.736
 2786TIP3    H2 8316   4.191   6.488   5.603
 2787TIP3   OH2 8317   1.313   7.728   3.290
 2787TIP3    H1 8318   1.282   7.638   3.281
 2787TIP3    H2 8319   1.305   7.765   3.203
 2788TIP3   OH2 8320   5.200   6.517   5.024
 2788TIP3    H1 8321   5.163   6.601   5.051
 2788TIP3    H2 8322   5.139   6.451   5.058
 2789TIP3   OH2 8323   0.984   0.528   6.282
 2789TIP3    H1 8324   0.950   0.507   6.195
 2789TIP3    H2 8325   1.074   0.496   6.280
 2790TIP3   OH2 8326   5.608   5.544   1.656
 2790TIP3    H1 8327   5.608   5.602   1.579
 2790TIP3    H2 8328   5.521   5.557   1.695
 2791TIP3   OH2 8329   0.320   4.614   1.815
 2791TIP3    H1 8330   0.341   4.543   1.876
 2791TIP3    H2 8331   0.383   4.603   1.743
 2792TIP3   OH2 8332   3.478   0.846   1.407
 2792TIP3    H1 8333   3.520   0.842   1.493
 2792TIP3    H2 8334   3.406   0.907   1.419
 2793TIP3   OH2 8335   5.898   6.447   2.684
 2793TIP3    H1 8336   5.893   6.356   2.712
 2793TIP3    H2 8337   5.913   6.444   2.590
 2794TIP3   OH2 8338   5.245   7.119   2.450
 2794TIP3    H1 8339   5.190   7.198   2.455
 2794TIP3    H2 8340   5.203   7.065   2.383
 2795TIP3   OH2 8341   7.532   2.413   5.837
 2795TIP3    H1 8342   7.490   2.374   5.914
 2795TIP3    H2 8343   7.515   2.350   5.767
 2796TIP3   OH2 8344   4.534   5.572   6.778
 2796TIP3    H1 8345   4.577   5.647   6.739
 2796TIP3    H2 8346   4.517   5.513   6.704
 2797TIP3   OH2 8347   2.110   3.376   4.926
 2797TIP3    H1 8348   2.149   3.346   4.844
 2797TIP3    H2 8349   2.022   3.339   4.926
 2798TIP3   OH2 8350   3.724   2.967   4.617
 2798TIP3    H1 8351   3.784   3.037   4.641
 2798TIP3    H2 8352   3.781   2.896   4.588
 2799TIP3   OH2 8353   3.643   7.273   1.093
 2799TIP3    H1 8354   3.595   7.265   1.176
 2799TIP3    H2 8355   3.715   7.210   1.100
 2800TIP3   OH2 8356   1.965   5.126   4.241
 2800TIP3    H1 8357   1.889   5.068   4.244
 2800TIP3    H2 8358   2.034   5.074   4.200
 2801TIP3   OH2 8359   2.383   0.214   1.147
 2801TIP3    H1 8360   2.379   0.127   1.108
 2801TIP3    H2 8361   2.408   0.199   1.238
 2802TIP3   OH2 8362   2.760   6.887   5.475
 2802TIP3    H1 8363   2.753   6.966   5.421
 2802TIP3    H2 8364   2.706   6.822   5.430
 2803TIP3   OH2 8365   1.602   2.608   3.568
 2803TIP3    H1 8366   1.613   2.703   3.577
 2803TIP3    H2 8367   1.560   2.581   3.649
 2804TIP3   OH2 8368   6.468   2.806   2.582
 2804TIP3    H1 8369   6.562   2.824   2.587
 2804TIP3    H2 8370   6.458   2.719   2.622
 2805TIP3   OH2 8371   0.596   4.273   1.147
 2805TIP3    H1 8372   0.544   4.205   1.104
 2805TIP3    H2 8373   0.644   4.226   1.216
 2806TIP3   OH2 8374   0.057   1.733   1.046
 2806TIP3    H1 8375   0.098   1.777   0.971
 2806TIP3    H2 8376  -0.033   1.764   1.046
 2807TIP3   OH2 8377   3.617   5.646   3.077
 2807TIP3    H1 8378   3.626   5.715   3.012
 2807TIP3    H2 8379   3.583   5.571   3.028
 2808TIP3   OH2 8380   1.462   5.547   3.652
 2808TIP3    H1 8381   1.551   5.522   3.631
 2808TIP3    H2 8382   1.463   5.565   3.746
 2809TIP3   OH2 8383   2.220   5.417   6.757
 2809TIP3    H1 8384   2.135   5.443   6.791
 2809TIP3    H2 8385   2.200   5.372   6.675
 2810TIP3   OH2 8386   5.593   5.442   4.137
 2810TIP3    H1 8387   5.623   5.517   4.187
 2810TIP3    H2 8388   5.539   5.392   4.198
 2811TIP3   OH2 8389   7.409   6.631   4.919
 2811TIP3    H1 8390   7.322   6.667   4.904
 2811TIP3    H2 8391   7.394   6.551   4.969
 2812TIP3   OH2 8392   0.645   5.422   4.047
 2812TIP3    H1 8393   0.579   5.491   4.042
 2812TIP3    H2 8394   0.596   5.345   4.076
 2813TIP3   OH2 8395   0.186   5.496   2.953
 2813TIP3    H1 8396   0.126   5.523   2.883
 2813TIP3    H2 8397   0.253   5.565   2.956
 2814TIP3   OH2 8398   6.566   4.267   5.551
 2814TIP3    H1 8399   6.661   4.275   5.542
 2814TIP3    H2 8400   6.540   4.203   5.486
 2815TIP3   OH2 8401   2.615   6.873   5.091
 2815TIP3    H1 8402   2.651   6.934   5.155
 2815TIP3    H2 8403   2.642   6.909   5.006
 2816TIP3   OH2 8404   4.216   4.738   5.658
 2816TIP3    H1 8405   4.148   4.754   5.593
 2816TIP3    H2 8406   4.199   4.648   5.688
 2817TIP3   OH2 8407   6.608   6.769   2.154
 2817TIP3    H1 8408   6.551   6.817   2.213
 2817TIP3    H2 8409   6.674   6.729   2.211
 2818TIP3   OH2 8410   6.379   4.056   5.688
 2818TIP3    H1 8411   6.430   4.017   5.759
 2818TIP3    H2 8412   6.397   4.150   5.694
 2819TIP3   OH2 8413   7.032   2.698   3.063
 2819TIP3    H1 8414   7.042   2.747   3.144
 2819TIP3    H2 8415   6.981   2.756   3.006
 2820TIP3   OH2 8416   8.071   1.809   1.099
 2820TIP3    H1 8417   8.024   1.866   1.161
 2820TIP3    H2 8418   8.037   1.835   1.013
 2821TIP3   OH2 8419   0.559   2.139   4.712
 2821TIP3    H1 8420   0.544   2.046   4.727
 2821TIP3    H2 8421   0.537   2.180   4.796
 2822TIP3   OH2 8422   4.710   5.272   3.721
 2822TIP3    H1 8423   4.799   5.292   3.751
 2822TIP3    H2 8424   4.687   5.190   3.765
 2823TIP3   OH2 8425   7.282   6.555   4.057
 2823TIP3    H1 8426   7.215   6.525   3.996
 2823TIP3    H2 8427   7.284   6.650   4.045
 2824TIP3   OH2 8428   5.930   1.878   2.041
 2824TIP3    H1 8429   5.836   1.869   2.055
 2824TIP3    H2 8430   5.940   1.880   1.946
 2825TIP3   OH2 8431   1.377   1.614   0.497
 2825TIP3    H1 8432   1.421   1.539   0.456
 2825TIP3    H2 8433   1.362   1.675   0.425
 2826TIP3   OH2 8434   1.638   1.204   0.457
 2826TIP3    H1 8435   1.618   1.130   0.400
 2826TIP3    H2 8436   1.627   1.169   0.546
 2827TIP3   OH2 8437   6.463   3.986   4.265
 2827TIP3    H1 8438   6.456   3.922   4.194
 2827TIP3    H2 8439   6.372   4.008   4.286
 2828TIP3   OH2 8440   2.954   3.173   3.527
 2828TIP3    H1 8441   2.893   3.214   3.466
 2828TIP3    H2 8442   3.012   3.120   3.472
 2829TIP3   OH2 8443   1.133   7.096   2.578
 2829TIP3    H1 8444   1.165   7.178   2.616
 2829TIP3    H2 8445   1.123   7.114   2.485
 2830TIP3   OH2 8446   4.594   2.398   0.580
 2830TIP3    H1 8447   4.584   2.319   0.632
 2830TIP3    H2 8448   4.571   2.469   0.640
 2831TIP3   OH2 8449   1.875   5.300   3.250
 2831TIP3    H1 8450   1.932   5.242   3.301
 2831TIP3    H2 8451   1.836   5.242   3.185
 2832TIP3   OH2 8452   3.512   1.284   4.703
 2832TIP3    H1 8453   3.549   1.205   4.664
 2832TIP3    H2 8454   3.418   1.267   4.707
 2833TIP3   OH2 8455   3.158   5.641   0.055
 2833TIP3    H1 8456   3.217   5.567   0.068
 2833TIP3    H2 8457   3.207   5.701  -0.001
 2834TIP3   OH2 8458   7.012   6.668   3.632
 2834TIP3    H1 8459   7.060   6.720   3.696
 2834TIP3    H2 8460   7.013   6.721   3.552
 2835TIP3   OH2 8461   7.305   3.958   2.007
 2835TIP3    H1 8462   7.353   3.948   1.925
 2835TIP3    H2 8463   7.280   4.050   2.009
 2836TIP3   OH2 8464   2.523   2.829   2.309
 2836TIP3    H1 8465   2.607   2.792   2.335
 2836TIP3    H2 8466   2.464   2.753   2.303
 2837TIP3   OH2 8467   2.965   0.768   4.366
 2837TIP3    H1 8468   2.953   0.851   4.412
 2837TIP3    H2 8469   2.880   0.749   4.327
 2838TIP3   OH2 8470   6.825   1.857   4.927
 2838TIP3    H1 8471   6.777   1.779   4.898
 2838TIP3    H2 8472   6.888   1.824   4.991
 2839TIP3   OH2 8473   2.669   2.647   5.742
 2839TIP3    H1 8474   2.758   2.664   5.712
 2839TIP3    H2 8475   2.675   2.649   5.838
 2840TIP3   OH2 8476   5.925   2.640   1.539
 2840TIP3    H1 8477   6.007   2.643   1.589
 2840TIP3    H2 8478   5.856   2.652   1.604
 2841TIP3   OH2 8479   2.784   7.249   3.512
 2841TIP3    H1 8480   2.797   7.340   3.537
 2841TIP3    H2 8481   2.716   7.252   3.445
 2842TIP3   OH2 8482   2.598   4.619   0.516
 2842TIP3    H1 8483   2.534   4.558   0.554
 2842TIP3    H2 8484   2.681   4.595   0.558
 2843TIP3   OH2 8485   0.368   7.415   5.030
 2843TIP3    H1 8486   0.301   7.349   5.044
 2843TIP3    H2 8487   0.369   7.429   4.935
 2844TIP3   OH2 8488   2.425   1.524   5.587
 2844TIP3    H1 8489   2.366   1.470   5.640
 2844TIP3    H2 8490   2.484   1.461   5.545
 2845TIP3   OH2 8491   0.284   5.066   2.185
 2845TIP3    H1 8492   0.308   4.981   2.149
 2845TIP3    H2 8493   0.190   5.060   2.200
 2846TIP3   OH2 8494   7.191   5.727   5.800
 2846TIP3    H1 8495   7.160   5.817   5.806
 2846TIP3    H2 8496   7.132   5.677   5.856
 2847TIP3   OH2 8497   4.098   6.105   5.540
 2847TIP3    H1 8498   4.134   6.017   5.554
 2847TIP3    H2 8499   4.123   6.153   5.619
 2848TIP3   OH2 8500   7.468   4.855   5.675
 2848TIP3    H1 8501   7.417   4.918   5.726
 2848TIP3    H2 8502   7.556   4.892   5.672
 2849TIP3   OH2 8503   1.730   2.374   1.008
 2849TIP3    H1 8504   1.784   2.450   1.030
 2849TIP3    H2 8505   1.647   2.412   0.978
 2850TIP3   OH2 8506   4.286   6.630   4.931
 2850TIP3    H1 8507   4.258   6.543   4.960
 2850TIP3    H2 8508   4.293   6.681   5.012
 2851TIP3   OH2 8509   5.373   1.806   5.245
 2851TIP3    H1 8510   5.444   1.777   5.302
 2851TIP3    H2 8511   5.297   1.814   5.304
 2852TIP3   OH2 8512   6.485   7.136   2.054
 2852TIP3    H1 8513   6.579   7.130   2.038
 2852TIP3    H2 8514   6.472   7.092   2.138
 2853TIP3   OH2 8515   7.824   2.165   5.582
 2853TIP3    H1 8516   7.909   2.207   5.591
 2853TIP3    H2 8517   7.760   2.235   5.592
 2854TIP3   OH2 8518   6.432   4.971   4.029
 2854TIP3    H1 8519   6.365   5.017   4.079
 2854TIP3    H2 8520   6.484   5.041   3.989
 2855TIP3   OH2 8521   5.418   0.867   2.128
 2855TIP3    H1 8522   5.470   0.935   2.086
 2855TIP3    H2 8523   5.398   0.901   2.215
 2856TIP3   OH2 8524   7.859   4.547   4.381
 2856TIP3    H1 8525   7.881   4.455   4.362
 2856TIP3    H2 8526   7.778   4.542   4.431
 2857TIP3   OH2 8527   3.171   4.288   0.544
 2857TIP3    H1 8528   3.247   4.246   0.503
 2857TIP3    H2 8529   3.101   4.278   0.480
 2858TIP3   OH2 8530   6.490   4.395   3.565
 2858TIP3    H1 8531   6.550   4.333   3.524
 2858TIP3    H2 8532   6.403   4.356   3.554
 2859TIP3   OH2 8533   2.242   2.665   5.225
 2859TIP3    H1 8534   2.162   2.680   5.275
 2859TIP3    H2 8535   2.214   2.663   5.134
 2860TIP3   OH2 8536   2.998   3.893   4.231
 2860TIP3    H1 8537   3.044   3.825   4.282
 2860TIP3    H2 8538   3.008   3.972   4.284
 2861TIP3   OH2 8539   4.262   7.719   1.543
 2861TIP3    H1 8540   4.333   7.755   1.490
 2861TIP3    H2 8541   4.305   7.662   1.606
 2862TIP3   OH2 8542   6.040   1.925   4.685
 2862TIP3    H1 8543   6.119   1.940   4.737
 2862TIP3    H2 8544   5.992   1.858   4.734
 2863TIP3   OH2 8545   7.733   5.531   5.819
 2863TIP3    H1 8546   7.820   5.505   5.789
 2863TIP3    H2 8547   7.681   5.451   5.815
 2864TIP3   OH2 8548   0.726   1.845   5.736
 2864TIP3    H1 8549   0.646   1.874   5.693
 2864TIP3    H2 8550   0.787   1.919   5.727
 2865TIP3   OH2 8551   1.886   6.060   2.678
 2865TIP3    H1 8552   1.938   5.980   2.685
 2865TIP3    H2 8553   1.890   6.082   2.585
 2866TIP3   OH2 8554   1.662   4.305   5.329
 2866TIP3    H1 8555   1.607   4.228   5.313
 2866TIP3    H2 8556   1.600   4.378   5.329
 2867TIP3   OH2 8557   0.663   0.022   2.879
 2867TIP3    H1 8558   0.700  -0.030   2.807
 2867TIP3    H2 8559   0.737   0.038   2.937
 2868TIP3   OH2 8560   7.417   5.148   4.315
 2868TIP3    H1 8561   7.389   5.125   4.226
 2868TIP3    H2 8562   7.490   5.089   4.333
 2869TIP3   OH2 8563   1.132   0.162   5.735
 2869TIP3    H1 8564   1.226   0.183   5.732
 2869TIP3    H2 8565   1.129   0.072   5.767
 2870TIP3   OH2 8566   1.230   3.048   6.613
 2870TIP3    H1 8567   1.196   3.042   6.702
 2870TIP3    H2 8568   1.245   3.141   6.598
 2871TIP3   OH2 8569   0.993   4.446   4.790
 2871TIP3    H1 8570   0.986   4.373   4.729
 2871TIP3    H2 8571   0.904   4.460   4.822
 2872TIP3   OH2 8572   4.404   2.791   4.982
 2872TIP3    H1 8573   4.378   2.879   5.009
 2872TIP3    H2 8574   4.380   2.735   5.057
 2873TIP3   OH2 8575   1.960   0.202   5.506
 2873TIP3    H1 8576   1.921   0.117   5.528
 2873TIP3    H2 8577   1.998   0.188   5.419
 2874TIP3   OH2 8578   3.300   5.476   2.647
 2874TIP3    H1 8579   3.236   5.504   2.713
 2874TIP3    H2 8580   3.265   5.394   2.614
 2875TIP3   OH2 8581   4.055   2.267   6.648
 2875TIP3    H1 8582   4.046   2.362   6.633
 2875TIP3    H2 8583   3.965   2.236   6.657
 2876TIP3   OH2 8584   4.353   1.983   0.593
 2876TIP3    H1 8585   4.299   1.924   0.646
 2876TIP3    H2 8586   4.433   1.996   0.644
 2877TIP3   OH2 8587   4.967   3.197   1.966
 2877TIP3    H1 8588   5.046   3.228   2.011
 2877TIP3    H2 8589   4.909   3.273   1.965
 2878TIP3   OH2 8590   2.676   5.975   5.845
 2878TIP3    H1 8591   2.602   5.973   5.905
 2878TIP3    H2 8592   2.642   5.937   5.764
 2879TIP3   OH2 8593   5.323   7.330   1.549
 2879TIP3    H1 8594   5.393   7.314   1.486
 2879TIP3    H2 8595   5.272   7.249   1.548
 2880TIP3   OH2 8596   1.754   2.880   1.270
 2880TIP3    H1 8597   1.667   2.914   1.246
 2880TIP3    H2 8598   1.777   2.927   1.350
 2881TIP3   OH2 8599   5.059   4.867   0.295
 2881TIP3    H1 8600   4.976   4.915   0.295
 2881TIP3    H2 8601   5.121   4.926   0.339
 2882TIP3   OH2 8602   1.760   4.651   0.947
 2882TIP3    H1 8603   1.673   4.636   0.985
 2882TIP3    H2 8604   1.747   4.721   0.884
 2883TIP3   OH2 8605   5.066   4.469   4.506
 2883TIP3    H1 8606   5.000   4.507   4.563
 2883TIP3    H2 8607   5.073   4.378   4.534
 2884TIP3   OH2 8608   4.142   7.420   3.349
 2884TIP3    H1 8609   4.220   7.451   3.302
 2884TIP3    H2 8610   4.069   7.450   3.295
 2885TIP3   OH2 8611   6.646   6.490   3.814
 2885TIP3    H1 8612   6.632   6.506   3.720
 2885TIP3    H2 8613   6.683   6.571   3.847
 2886TIP3   OH2 8614   1.136   0.332   6.442
 2886TIP3    H1 8615   1.097   0.248   6.464
 2886TIP3    H2 8616   1.158   0.325   6.349
 2887TIP3   OH2 8617   3.789   4.089   5.275
 2887TIP3    H1 8618   3.750   4.114   5.191
 2887TIP3    H2 8619   3.714   4.062   5.328
 2888TIP3   OH2 8620   2.996   0.689   5.163
 2888TIP3    H1 8621   2.938   0.633   5.214
 2888TIP3    H2 8622   3.065   0.631   5.133
 2889TIP3   OH2 8623   3.090   1.282   5.437
 2889TIP3    H1 8624   3.152   1.217   5.471
 2889TIP3    H2 8625   3.067   1.336   5.512
 2890TIP3   OH2 8626   2.602   1.464   5.929
 2890TIP3    H1 8627   2.672   1.418   5.881
 2890TIP3    H2 8628   2.543   1.394   5.957
 2891TIP3   OH2 8629   5.241   7.525   3.162
 2891TIP3    H1 8630   5.181   7.464   3.206
 2891TIP3    H2 8631   5.184   7.580   3.108
 2892TIP3   OH2 8632   7.352   4.865   1.933
 2892TIP3    H1 8633   7.375   4.812   1.856
 2892TIP3    H2 8634   7.257   4.860   1.937
 2893TIP3   OH2 8635   4.153   0.143   5.027
 2893TIP3    H1 8636   4.062   0.150   5.056
 2893TIP3    H2 8637   4.166   0.050   5.011
 2894TIP3   OH2 8638   6.628   6.173   6.652
 2894TIP3    H1 8639   6.689   6.213   6.590
 2894TIP3    H2 8640   6.657   6.082   6.659
 2895TIP3   OH2 8641   3.376   5.898   2.403
 2895TIP3    H1 8642   3.346   5.973   2.351
 2895TIP3    H2 8643   3.402   5.937   2.487
 2896TIP3   OH2 8644   5.441   2.142   2.797
 2896TIP3    H1 8645   5.521   2.116   2.751
 2896TIP3    H2 8646   5.397   2.202   2.737
 2897TIP3   OH2 8647   8.243   4.146   1.925
 2897TIP3    H1 8648   8.181   4.114   1.990
 2897TIP3    H2 8649   8.195   4.214   1.878
 2898TIP3   OH2 8650   0.999   3.183   3.579
 2898TIP3    H1 8651   1.074   3.155   3.528
 2898TIP3    H2 8652   0.979   3.271   3.547
 2899TIP3   OH2 8653   6.632   7.288   3.782
 2899TIP3    H1 8654   6.546   7.262   3.815
 2899TIP3    H2 8655   6.676   7.326   3.858
 2900TIP3   OH2 8656   2.421   6.071   1.117
 2900TIP3    H1 8657   2.391   6.073   1.208
 2900TIP3    H2 8658   2.506   6.027   1.119
 2901TIP3   OH2 8659   3.006   3.654   5.367
 2901TIP3    H1 8660   2.929   3.636   5.420
 2901TIP3    H2 8661   3.080   3.646   5.427
 2902TIP3   OH2 8662   3.155   1.786   2.329
 2902TIP3    H1 8663   3.103   1.750   2.257
 2902TIP3    H2 8664   3.205   1.712   2.362
 2903TIP3   OH2 8665   0.835   4.879   6.076
 2903TIP3    H1 8666   0.742   4.857   6.079
 2903TIP3    H2 8667   0.836   4.973   6.057
 2904TIP3   OH2 8668   2.820   6.497   5.878
 2904TIP3    H1 8669   2.895   6.448   5.909
 2904TIP3    H2 8670   2.851   6.542   5.799
 2905TIP3   OH2 8671   7.459   1.468   0.210
 2905TIP3    H1 8672   7.531   1.406   0.204
 2905TIP3    H2 8673   7.419   1.451   0.296
 2906TIP3   OH2 8674   3.010   2.704   2.717
 2906TIP3    H1 8675   3.090   2.692   2.768
 2906TIP3    H2 8676   3.038   2.747   2.636
 2907TIP3   OH2 8677   1.920   3.206   4.207
 2907TIP3    H1 8678   1.996   3.148   4.208
 2907TIP3    H2 8679   1.847   3.151   4.235
 2908TIP3   OH2 8680   3.530   7.832   2.382
 2908TIP3    H1 8681   3.543   7.743   2.349
 2908TIP3    H2 8682   3.568   7.888   2.314
 2909TIP3   OH2 8683   6.471   4.098   3.769
 2909TIP3    H1 8684   6.400   4.136   3.716
 2909TIP3    H2 8685   6.443   4.112   3.859
 2910TIP3   OH2 8686   3.621   1.008   2.617
 2910TIP3    H1 8687   3.588   1.019   2.706
 2910TIP3    H2 8688   3.612   0.915   2.599
 2911TIP3   OH2 8689   6.424   0.584   3.592
 2911TIP3    H1 8690   6.397   0.641   3.520
 2911TIP3    H2 8691   6.344   0.539   3.619
 2912TIP3   OH2 8692   5.668   3.503   4.759
 2912TIP3    H1 8693   5.595   3.500   4.698
 2912TIP3    H2 8694   5.627   3.495   4.846
 2913TIP3   OH2 8695   2.405   1.536   5.228
 2913TIP3    H1 8696   2.440   1.542   5.139
 2913TIP3    H2 8697   2.322   1.583   5.224
 2914TIP3   OH2 8698   7.225   7.051   1.296
 2914TIP3    H1 8699   7.282   6.980   1.265
 2914TIP3    H2 8700   7.285   7.120   1.324
 2915TIP3   OH2 8701   0.296   7.121   5.902
 2915TIP3    H1 8702   0.270   7.077   5.821
 2915TIP3    H2 8703   0.363   7.184   5.875
 2916TIP3   OH2 8704   6.684   2.545   2.262
 2916TIP3    H1 8705   6.701   2.551   2.356
 2916TIP3    H2 8706   6.614   2.609   2.247
 2917TIP3   OH2 8707   7.800   3.189   3.948
 2917TIP3    H1 8708   7.831   3.180   3.858
 2917TIP3    H2 8709   7.753   3.107   3.965
 2918TIP3   OH2 8710   8.050   3.718   3.650
 2918TIP3    H1 8711   7.982   3.672   3.601
 2918TIP3    H2 8712   8.002   3.758   3.723
 2919TIP3   OH2 8713   5.133   3.815   2.852
 2919TIP3    H1 8714   5.124   3.787   2.761
 2919TIP3    H2 8715   5.171   3.739   2.896
 2920TIP3   OH2 8716   7.018   5.919   5.119
 2920TIP3    H1 8717   7.107   5.945   5.096
 2920TIP3    H2 8718   6.963   5.983   5.075
 2921TIP3   OH2 8719   0.847   6.874   3.932
 2921TIP3    H1 8720   0.891   6.855   3.849
 2921TIP3    H2 8721   0.753   6.868   3.912
 2922TIP3   OH2 8722   4.353   4.507   2.480
 2922TIP3    H1 8723   4.361   4.412   2.491
 2922TIP3    H2 8724   4.283   4.532   2.539
 2923TIP3   OH2 8725   5.231   2.841   4.408
 2923TIP3    H1 8726   5.255   2.748   4.409
 2923TIP3    H2 8727   5.136   2.842   4.409
 2924TIP3   OH2 8728   3.465   0.260   5.013
 2924TIP3    H1 8729   3.517   0.185   5.040
 2924TIP3    H2 8730   3.419   0.231   4.934
 2925TIP3   OH2 8731   5.335   0.784   2.514
 2925TIP3    H1 8732   5.257   0.742   2.477
 2925TIP3    H2 8733   5.373   0.831   2.440
 2926TIP3   OH2 8734   1.918   1.006   3.325
 2926TIP3    H1 8735   1.833   1.025   3.285
 2926TIP3    H2 8736   1.897   0.986   3.416
 2927TIP3   OH2 8737   0.900   0.446   2.759
 2927TIP3    H1 8738   0.827   0.497   2.794
 2927TIP3    H2 8739   0.891   0.454   2.664
 2928TIP3   OH2 8740   3.561   0.323   4.176
 2928TIP3    H1 8741   3.555   0.378   4.254
 2928TIP3    H2 8742   3.503   0.364   4.112
 2929TIP3   OH2 8743   1.622   7.223   4.388
 2929TIP3    H1 8744   1.654   7.297   4.335
 2929TIP3    H2 8745   1.699   7.193   4.436
 2930TIP3   OH2 8746   8.064   5.437   6.450
 2930TIP3    H1 8747   8.085   5.440   6.356
 2930TIP3    H2 8748   7.970   5.418   6.453
 2931TIP3   OH2 8749   3.341   2.391   1.226
 2931TIP3    H1 8750   3.305   2.403   1.138
 2931TIP3    H2 8751   3.419   2.338   1.213
 2932TIP3   OH2 8752   7.708   1.476   6.323
 2932TIP3    H1 8753   7.785   1.463   6.267
 2932TIP3    H2 8754   7.730   1.430   6.404
 2933TIP3   OH2 8755   8.155   0.935   2.272
 2933TIP3    H1 8756   8.119   0.983   2.346
 2933TIP3    H2 8757   8.216   0.996   2.231
 2934TIP3   OH2 8758   3.190   3.295   4.455
 2934TIP3    H1 8759   3.181   3.212   4.408
 2934TIP3    H2 8760   3.283   3.315   4.450
 2935TIP3   OH2 8761   0.141   6.712   4.533
 2935TIP3    H1 8762   0.101   6.720   4.446
 2935TIP3    H2 8763   0.115   6.792   4.579
 2936TIP3   OH2 8764   0.486   0.869   3.250
 2936TIP3    H1 8765   0.541   0.948   3.246
 2936TIP3    H2 8766   0.466   0.859   3.343
 2937TIP3   OH2 8767   0.856   3.861   6.342
 2937TIP3    H1 8768   0.907   3.812   6.407
 2937TIP3    H2 8769   0.772   3.817   6.338
 2938TIP3   OH2 8770   4.896   6.298   1.141
 2938TIP3    H1 8771   4.966   6.257   1.090
 2938TIP3    H2 8772   4.850   6.224   1.181
 2939TIP3   OH2 8773   3.776   3.213   6.237
 2939TIP3    H1 8774   3.726   3.193   6.158
 2939TIP3    H2 8775   3.844   3.274   6.208
 2940TIP3   OH2 8776   5.691   6.656   6.253
 2940TIP3    H1 8777   5.703   6.662   6.158
 2940TIP3    H2 8778   5.723   6.568   6.276
 2941TIP3   OH2 8779   6.777   0.650   5.108
 2941TIP3    H1 8780   6.839   0.716   5.140
 2941TIP3    H2 8781   6.719   0.698   5.050
 2942TIP3   OH2 8782   7.106   4.284   4.739
 2942TIP3    H1 8783   7.200   4.301   4.743
 2942TIP3    H2 8784   7.087   4.236   4.820
 2943TIP3   OH2 8785   5.303   3.577   0.762
 2943TIP3    H1 8786   5.266   3.490   0.774
 2943TIP3    H2 8787   5.375   3.564   0.701
 2944TIP3   OH2 8788   1.605   1.889   3.102
 2944TIP3    H1 8789   1.644   1.811   3.063
 2944TIP3    H2 8790   1.516   1.863   3.126
 2945TIP3   OH2 8791   2.335   0.605   0.734
 2945TIP3    H1 8792   2.336   0.545   0.809
 2945TIP3    H2 8793   2.248   0.645   0.736
 2946TIP3   OH2 8794   2.686   6.186   0.313
 2946TIP3    H1 8795   2.665   6.211   0.222
 2946TIP3    H2 8796   2.638   6.104   0.327
 2947TIP3   OH2 8797   7.393   1.407   2.847
 2947TIP3    H1 8798   7.432   1.338   2.902
 2947TIP3    H2 8799   7.459   1.425   2.781
 2948TIP3   OH2 8800   7.920   6.121   3.908
 2948TIP3    H1 8801   7.886   6.114   3.997
 2948TIP3    H2 8802   7.991   6.185   3.914
 2949TIP3   OH2 8803   1.339   1.097   3.012
 2949TIP3    H1 8804   1.430   1.124   2.996
 2949TIP3    H2 8805   1.341   1.060   3.100
 2950TIP3   OH2 8806   2.080   3.635   6.385
 2950TIP3    H1 8807   1.986   3.651   6.380
 2950TIP3    H2 8808   2.088   3.539   6.381
 2951TIP3   OH2 8809   2.304   0.619   4.368
 2951TIP3    H1 8810   2.244   0.546   4.353
 2951TIP3    H2 8811   2.246   0.694   4.384
 2952TIP3   OH2 8812   1.412   1.143   4.146
 2952TIP3    H1 8813   1.360   1.069   4.176
 2952TIP3    H2 8814   1.450   1.180   4.226
 2953TIP3   OH2 8815   5.126   4.803   1.848
 2953TIP3    H1 8816   5.057   4.870   1.849
 2953TIP3    H2 8817   5.207   4.853   1.840
 2954TIP3   OH2 8818   6.747   1.580   1.091
 2954TIP3    H1 8819   6.831   1.538   1.071
 2954TIP3    H2 8820   6.763   1.626   1.174
 2955TIP3   OH2 8821   0.376   6.221   1.155
 2955TIP3    H1 8822   0.401   6.131   1.134
 2955TIP3    H2 8823   0.302   6.240   1.097
 2956TIP3   OH2 8824   0.183   5.046   0.963
 2956TIP3    H1 8825   0.215   4.998   0.886
 2956TIP3    H2 8826   0.259   5.096   0.993
 2957TIP3   OH2 8827   1.068   1.939   6.602
 2957TIP3    H1 8828   1.161   1.953   6.616
 2957TIP3    H2 8829   1.060   1.844   6.589
 2958TIP3   OH2 8830   0.683   7.170   5.381
 2958TIP3    H1 8831   0.662   7.207   5.467
 2958TIP3    H2 8832   0.777   7.184   5.371
 2959TIP3   OH2 8833   7.323   0.895   5.892
 2959TIP3    H1 8834   7.413   0.922   5.872
 2959TIP3    H2 8835   7.326   0.799   5.889
 2960TIP3   OH2 8836   0.884   1.431   6.567
 2960TIP3    H1 8837   0.919   1.357   6.618
 2960TIP3    H2 8838   0.943   1.504   6.587
 2961TIP3   OH2 8839   7.012   2.328   2.254
 2961TIP3    H1 8840   7.069   2.263   2.211
 2961TIP3    H2 8841   7.048   2.335   2.343
 2962TIP3   OH2 8842   4.627   6.331   6.591
 2962TIP3    H1 8843   4.669   6.357   6.509
 2962TIP3    H2 8844   4.533   6.333   6.573
 2963TIP3   OH2 8845   2.965   5.899   4.883
 2963TIP3    H1 8846   2.874   5.917   4.862
 2963TIP3    H2 8847   3.005   5.985   4.891
 2964TIP3   OH2 8848   6.209   2.094   0.283
 2964TIP3    H1 8849   6.211   2.004   0.249
 2964TIP3    H2 8850   6.301   2.113   0.305
 2965TIP3   OH2 8851   4.300   2.630   5.189
 2965TIP3    H1 8852   4.347   2.558   5.148
 2965TIP3    H2 8853   4.347   2.646   5.271
 2966TIP3   OH2 8854   7.875   5.719   1.171
 2966TIP3    H1 8855   7.956   5.751   1.211
 2966TIP3    H2 8856   7.830   5.674   1.243
 2967TIP3   OH2 8857   4.488   6.323   2.782
 2967TIP3    H1 8858   4.558   6.279   2.830
 2967TIP3    H2 8859   4.513   6.415   2.780
 2968TIP3   OH2 8860   5.205   3.316   6.714
 2968TIP3    H1 8861   5.225   3.368   6.636
 2968TIP3    H2 8862   5.110   3.325   6.725
 2969TIP3   OH2 8863   2.543   3.517   2.585
 2969TIP3    H1 8864   2.616   3.472   2.542
 2969TIP3    H2 8865   2.503   3.451   2.641
 2970TIP3   OH2 8866   1.678   6.305   2.728
 2970TIP3    H1 8867   1.738   6.230   2.732
 2970TIP3    H2 8868   1.702   6.350   2.647
 2971TIP3   OH2 8869   7.372   6.649   0.626
 2971TIP3    H1 8870   7.447   6.705   0.604
 2971TIP3    H2 8871   7.335   6.689   0.705
 2972TIP3   OH2 8872   1.586   0.788   0.998
 2972TIP3    H1 8873   1.644   0.812   1.070
 2972TIP3    H2 8874   1.642   0.738   0.938
 2973TIP3   OH2 8875   0.258   7.207   2.663
 2973TIP3    H1 8876   0.312   7.283   2.642
 2973TIP3    H2 8877   0.264   7.151   2.585
 2974TIP3   OH2 8878   0.591   7.637   3.204
 2974TIP3    H1 8879   0.589   7.646   3.300
 2974TIP3    H2 8880   0.580   7.726   3.171
 2975TIP3   OH2 8881   2.074   5.046   5.728
 2975TIP3    H1 8882   2.086   5.136   5.696
 2975TIP3    H2 8883   2.049   4.996   5.650
 2976TIP3   OH2 8884   3.509   0.201   1.395
 2976TIP3    H1 8885   3.460   0.213   1.313
 2976TIP3    H2 8886   3.569   0.275   1.397
 2977TIP3   OH2 8887   4.819   2.390   0.900
 2977TIP3    H1 8888   4.761   2.378   0.975
 2977TIP3    H2 8889   4.777   2.458   0.848
 2978TIP3   OH2 8890   7.708   6.030   6.067
 2978TIP3    H1 8891   7.621   6.070   6.079
 2978TIP3    H2 8892   7.701   5.983   5.984
 2979TIP3   OH2 8893   5.330   7.506   5.185
 2979TIP3    H1 8894   5.365   7.432   5.235
 2979TIP3    H2 8895   5.392   7.577   5.203
 2980TIP3   OH2 8896   6.558   4.868   0.574
 2980TIP3    H1 8897   6.610   4.912   0.507
 2980TIP3    H2 8898   6.574   4.917   0.654
 2981TIP3   OH2 8899   3.685   7.490   1.259
 2981TIP3    H1 8900   3.696   7.583   1.278
 2981TIP3    H2 8901   3.748   7.445   1.315
 2982TIP3   OH2 8902   4.130   6.691   1.533
 2982TIP3    H1 8903   4.127   6.598   1.511
 2982TIP3    H2 8904   4.039   6.720   1.523
 2983TIP3   OH2 8905   5.224   5.486   0.261
 2983TIP3    H1 8906   5.287   5.459   0.327
 2983TIP3    H2 8907   5.257   5.569   0.228
 2984TIP3   OH2 8908   4.503   4.882   0.128
 2984TIP3    H1 8909   4.578   4.837   0.168
 2984TIP3    H2 8910   4.440   4.891   0.200
 2985TIP3   OH2 8911   1.484   3.686   2.771
 2985TIP3    H1 8912   1.471   3.695   2.866
 2985TIP3    H2 8913   1.405   3.723   2.732
 2986TIP3   OH2 8914   4.390   6.852   5.727
 2986TIP3    H1 8915   4.459   6.914   5.752
 2986TIP3    H2 8916   4.421   6.814   5.645
 2987TIP3   OH2 8917   1.024   1.918   2.165
 2987TIP3    H1 8918   0.944   1.966   2.187
 2987TIP3    H2 8919   1.087   1.985   2.140
 2988TIP3   OH2 8920   6.919   3.547   1.447
 2988TIP3    H1 8921   6.900   3.640   1.459
 2988TIP3    H2 8922   6.841   3.511   1.405
 2989TIP3   OH2 8923   8.316   3.232   2.827
 2989TIP3    H1 8924   8.234   3.192   2.798
 2989TIP3    H2 8925   8.293   3.322   2.849
 2990TIP3   OH2 8926   0.839   0.377   6.511
 2990TIP3    H1 8927   0.757   0.361   6.464
 2990TIP3    H2 8928   0.897   0.416   6.446
 2991TIP3   OH2 8929   8.038   6.427   1.803
 2991TIP3    H1 8930   8.071   6.454   1.889
 2991TIP3    H2 8931   7.979   6.498   1.777
 2992TIP3   OH2 8932   3.609   3.844   2.306
 2992TIP3    H1 8933   3.598   3.897   2.227
 2992TIP3    H2 8934   3.614   3.754   2.274
 2993TIP3   OH2 8935   1.165   7.778   1.784
 2993TIP3    H1 8936   1.217   7.767   1.704
 2993TIP3    H2 8937   1.114   7.858   1.769
 2994TIP3   OH2 8938   2.116   5.736   4.165
 2994TIP3    H1 8939   2.063   5.814   4.147
 2994TIP3    H2 8940   2.116   5.728   4.260
 2995TIP3   OH2 8941   1.969   3.997   5.254
 2995TIP3    H1 8942   2.013   3.940   5.317
 2995TIP3    H2 8943   1.892   3.948   5.227
 2996TIP3   OH2 8944   8.083   4.759   5.799
 2996TIP3    H1 8945   8.121   4.804   5.724
 2996TIP3    H2 8946   7.989   4.761   5.783
 2997TIP3   OH2 8947   2.913   4.463   3.332
 2997TIP3    H1 8948   2.956   4.409   3.266
 2997TIP3    H2 8949   2.962   4.545   3.331
 2998TIP3   OH2 8950   6.778   3.409   0.826
 2998TIP3    H1 8951   6.683   3.401   0.836
 2998TIP3    H2 8952   6.798   3.496   0.860
 2999TIP3   OH2 8953   0.712   5.908   0.531
 2999TIP3    H1 8954   0.648   5.976   0.509
 2999TIP3    H2 8955   0.727   5.862   0.449
 3000TIP3   OH2 8956   7.108   2.988   4.290
 3000TIP3    H1 8957   7.014   2.992   4.274
 3000TIP3    H2 8958   7.129   2.895   4.286
 3001TIP3   OH2 8959   2.493   3.147   1.701
 3001TIP3    H1 8960   2.437   3.171   1.776
 3001TIP3    H2 8961   2.432   3.119   1.634
 3002TIP3   OH2 8962   3.157   2.303   0.773
 3002TIP3    H1 8963   3.130   2.221   0.814
 3002TIP3    H2 8964   3.194   2.277   0.688
 3003TIP3   OH2 8965   5.701   2.569   0.628
 3003TIP3    H1 8966   5.716   2.595   0.718
 3003TIP3    H2 8967   5.717   2.648   0.576
 3004TIP3   OH2 8968   0.368   5.267   2.695
 3004TIP3    H1 8969   0.372   5.189   2.641
 3004TIP3    H2 8970   0.378   5.235   2.785
 3005TIP3   OH2 8971   3.157   7.461   2.532
 3005TIP3    H1 8972   3.242   7.460   2.488
 3005TIP3    H2 8973   3.177   7.442   2.624
 3006TIP3   OH2 8974   0.408   7.620   0.805
 3006TIP3    H1 8975   0.408   7.559   0.732
 3006TIP3    H2 8976   0.350   7.580   0.870
 3007TIP3   OH2 8977   7.468   4.755   4.379
 3007TIP3    H1 8978   7.534   4.824   4.373
 3007TIP3    H2 8979   7.508   4.689   4.436
 3008TIP3   OH2 8980   4.106   5.825   4.041
 3008TIP3    H1 8981   4.093   5.746   3.989
 3008TIP3    H2 8982   4.152   5.795   4.120
 3009TIP3   OH2 8983   2.110   7.781   2.799
 3009TIP3    H1 8984   2.083   7.690   2.808
 3009TIP3    H2 8985   2.171   7.795   2.872
 3010TIP3   OH2 8986   1.044   7.138   4.863
 3010TIP3    H1 8987   1.027   7.198   4.790
 3010TIP3    H2 8988   1.053   7.052   4.822
 3011TIP3   OH2 8989   1.629   5.695   5.224
 3011TIP3    H1 8990   1.724   5.691   5.215
 3011TIP3    H2 8991   1.603   5.605   5.243
 3012TIP3   OH2 8992   4.563   0.809   5.782
 3012TIP3    H1 8993   4.537   0.830   5.872
 3012TIP3    H2 8994   4.643   0.860   5.768
 3013TIP3   OH2 8995   5.490   6.812   1.086
 3013TIP3    H1 8996   5.542   6.879   1.131
 3013TIP3    H2 8997   5.460   6.855   1.006
 3014TIP3   OH2 8998   0.056   0.276   5.856
 3014TIP3    H1 8999  -0.032   0.292   5.891
 3014TIP3    H2 9000   0.111   0.261   5.933
 3015TIP3   OH2 9001   7.378   1.015   3.047
 3015TIP3    H1 9002   7.402   0.938   3.098
 3015TIP3    H2 9003   7.343   1.077   3.111
 3016TIP3   OH2 9004   3.956   4.266   0.895
 3016TIP3    H1 9005   3.984   4.177   0.875
 3016TIP3    H2 9006   4.008   4.292   0.971
 3017TIP3   OH2 9007   2.681   4.097   1.529
 3017TIP3    H1 9008   2.684   4.185   1.566
 3017TIP3    H2 9009   2.627   4.047   1.591
 3018TIP3   OH2 9010   0.978   3.032   0.811
 3018TIP3    H1 9011   1.011   3.121   0.813
 3018TIP3    H2 9012   1.055   2.977   0.829
 3019TIP3   OH2 9013   2.408   3.588   6.557
 3019TIP3    H1 9014   2.454   3.587   6.472
 3019TIP3    H2 9015   2.477   3.569   6.621
 3020TIP3   OH2 9016   3.987   2.813   4.585
 3020TIP3    H1 9017   4.052   2.802   4.516
 3020TIP3    H2 9018   4.025   2.770   4.662
 3021TIP3   OH2 9019   5.664   0.878   1.957
 3021TIP3    H1 9020   5.722   0.806   1.980
 3021TIP3    H2 9021   5.687   0.948   2.019
 3022TIP3   OH2 9022   5.037   2.898   1.812
 3022TIP3    H1 9023   4.946   2.927   1.815
 3022TIP3    H2 9024   5.081   2.962   1.757
 3023TIP3   OH2 9025   4.125   5.125   6.548
 3023TIP3    H1 9026   4.180   5.203   6.552
 3023TIP3    H2 9027   4.036   5.158   6.535
 3024TIP3   OH2 9028   3.009   6.230   0.085
 3024TIP3    H1 9029   3.031   6.148   0.042
 3024TIP3    H2 9030   3.043   6.298   0.027
 3025TIP3   OH2 9031   7.792   6.275   0.041
 3025TIP3    H1 9032   7.816   6.342   0.105
 3025TIP3    H2 9033   7.699   6.260   0.055
 3026TIP3   OH2 9034   1.224   3.021   3.859
 3026TIP3    H1 9035   1.280   2.990   3.788
 3026TIP3    H2 9036   1.275   3.007   3.939
 3027TIP3   OH2 9037   5.973   2.553   3.259
 3027TIP3    H1 9038   5.879   2.558   3.242
 3027TIP3    H2 9039   6.008   2.504   3.184
 3028TIP3   OH2 9040   3.057   1.713   4.944
 3028TIP3    H1 9041   3.079   1.658   5.019
 3028TIP3    H2 9042   3.113   1.680   4.873
 3029TIP3   OH2 9043   6.584   3.549   2.242
 3029TIP3    H1 9044   6.628   3.480   2.192
 3029TIP3    H2 9045   6.587   3.626   2.185
 3030TIP3   OH2 9046   2.456   2.979   0.932
 3030TIP3    H1 9047   2.510   3.032   0.872
 3030TIP3    H2 9048   2.476   2.889   0.908
 3031TIP3   OH2 9049   5.862   0.258   5.291
 3031TIP3    H1 9050   5.794   0.325   5.281
 3031TIP3    H2 9051   5.944   0.304   5.271
 3032TIP3   OH2 9052   7.096   5.254   3.850
 3032TIP3    H1 9053   7.123   5.251   3.941
 3032TIP3    H2 9054   7.047   5.337   3.842
 3033TIP3   OH2 9055   4.546   5.557   6.122
 3033TIP3    H1 9056   4.471   5.615   6.117
 3033TIP3    H2 9057   4.509   5.469   6.130
 3034TIP3   OH2 9058   7.650   4.310   3.151
 3034TIP3    H1 9059   7.675   4.355   3.070
 3034TIP3    H2 9060   7.595   4.373   3.198
 3035TIP3   OH2 9061   1.287   5.473   0.641
 3035TIP3    H1 9062   1.368   5.427   0.616
 3035TIP3    H2 9063   1.290   5.477   0.736
 3036TIP3   OH2 9064   4.345   1.064   0.424
 3036TIP3    H1 9065   4.440   1.076   0.422
 3036TIP3    H2 9066   4.322   1.068   0.517
 3037TIP3   OH2 9067   6.286   4.099   5.264
 3037TIP3    H1 9068   6.240   4.061   5.339
 3037TIP3    H2 9069   6.224   4.091   5.192
 3038TIP3   OH2 9070   8.294   6.192   1.301
 3038TIP3    H1 9071   8.220   6.211   1.243
 3038TIP3    H2 9072   8.329   6.278   1.324
 3039TIP3   OH2 9073   2.495   0.390   4.383
 3039TIP3    H1 9074   2.442   0.404   4.304
 3039TIP3    H2 9075   2.486   0.472   4.432
 3040TIP3   OH2 9076   8.133   7.661   2.437
 3040TIP3    H1 9077   8.154   7.717   2.512
 3040TIP3    H2 9078   8.192   7.586   2.446
 3041TIP3   OH2 9079   7.703   2.110   0.205
 3041TIP3    H1 9080   7.664   2.098   0.118
 3041TIP3    H2 9081   7.796   2.121   0.188
 3042TIP3   OH2 9082   1.065   4.846   4.625
 3042TIP3    H1 9083   1.054   4.843   4.530
 3042TIP3    H2 9084   1.145   4.797   4.641
 3043TIP3   OH2 9085   6.368   2.313   5.615
 3043TIP3    H1 9086   6.446   2.353   5.654
 3043TIP3    H2 9087   6.323   2.386   5.571
 3044TIP3   OH2 9088   7.629   1.190   3.463
 3044TIP3    H1 9089   7.673   1.193   3.548
 3044TIP3    H2 9090   7.580   1.108   3.464
 3045TIP3   OH2 9091   8.172   4.583   4.943
 3045TIP3    H1 9092   8.126   4.587   4.859
 3045TIP3    H2 9093   8.185   4.675   4.968
 3046TIP3   OH2 9094   4.755   3.456   0.774
 3046TIP3    H1 9095   4.729   3.512   0.700
 3046TIP3    H2 9096   4.835   3.497   0.808
 3047TIP3   OH2 9097   2.243   2.399   0.686
 3047TIP3    H1 9098   2.150   2.382   0.700
 3047TIP3    H2 9099   2.268   2.455   0.761
 3048TIP3   OH2 9100   1.641   7.363   4.828
 3048TIP3    H1 9101   1.707   7.297   4.804
 3048TIP3    H2 9102   1.674   7.444   4.790
 3049TIP3   OH2 9103   4.503   5.948   6.614
 3049TIP3    H1 9104   4.568   6.017   6.597
 3049TIP3    H2 9105   4.419   5.992   6.603
 3050TIP3   OH2 9106   0.448   7.018   5.468
 3050TIP3    H1 9107   0.373   7.071   5.443
 3050TIP3    H2 9108   0.486   7.063   5.543
 3051TIP3   OH2 9109   5.874   5.900   0.828
 3051TIP3    H1 9110   5.940   5.922   0.893
 3051TIP3    H2 9111   5.923   5.897   0.745
 3052TIP3   OH2 9112   1.131   5.403   4.869
 3052TIP3    H1 9113   1.076   5.370   4.939
 3052TIP3    H2 9114   1.134   5.498   4.884
 3053TIP3   OH2 9115   4.801   2.542   2.530
 3053TIP3    H1 9116   4.881   2.588   2.557
 3053TIP3    H2 9117   4.831   2.475   2.469
 3054TIP3   OH2 9118   4.371   6.392   2.492
 3054TIP3    H1 9119   4.436   6.453   2.456
 3054TIP3    H2 9120   4.343   6.432   2.574
 3055TIP3   OH2 9121   0.984   2.700   3.161
 3055TIP3    H1 9122   0.993   2.608   3.137
 3055TIP3    H2 9123   1.039   2.746   3.097
 3056TIP3   OH2 9124   6.694   1.394   3.881
 3056TIP3    H1 9125   6.637   1.426   3.812
 3056TIP3    H2 9126   6.643   1.402   3.962
 3057TIP3   OH2 9127   6.232   0.736   6.285
 3057TIP3    H1 9128   6.302   0.783   6.241
 3057TIP3    H2 9129   6.213   0.787   6.364
 3058TIP3   OH2 9130   0.884   0.522   4.313
 3058TIP3    H1 9131   0.978   0.510   4.328
 3058TIP3    H2 9132   0.875   0.613   4.287
 3059TIP3   OH2 9133   5.700   4.734   3.587
 3059TIP3    H1 9134   5.645   4.790   3.532
 3059TIP3    H2 9135   5.777   4.787   3.606
 3060TIP3   OH2 9136   1.540   7.464   3.045
 3060TIP3    H1 9137   1.544   7.558   3.062
 3060TIP3    H2 9138   1.503   7.427   3.125
 3061TIP3   OH2 9139   6.677   0.660   2.091
 3061TIP3    H1 9140   6.747   0.724   2.101
 3061TIP3    H2 9141   6.722   0.577   2.076
 3062TIP3   OH2 9142   2.842   2.539   1.593
 3062TIP3    H1 9143   2.842   2.634   1.607
 3062TIP3    H2 9144   2.785   2.526   1.517
 3063TIP3   OH2 9145   4.148   3.926   3.524
 3063TIP3    H1 9146   4.068   3.873   3.531
 3063TIP3    H2 9147   4.136   3.995   3.589
 3064TIP3   OH2 9148   2.837   4.698   1.944
 3064TIP3    H1 9149   2.921   4.728   1.909
 3064TIP3    H2 9150   2.860   4.627   2.005
 3065TIP3   OH2 9151   3.400   6.092   2.581
 3065TIP3    H1 9152   3.306   6.106   2.591
 3065TIP3    H2 9153   3.418   6.009   2.624
 3066TIP3   OH2 9154   3.726   0.095   2.927
 3066TIP3    H1 9155   3.789   0.046   2.874
 3066TIP3    H2 9156   3.711   0.175   2.878
 3067TIP3   OH2 9157   7.950   7.422   3.008
 3067TIP3    H1 9158   7.897   7.462   3.077
 3067TIP3    H2 9159   7.944   7.328   3.025
 3068TIP3   OH2 9160   0.230   4.594   3.715
 3068TIP3    H1 9161   0.274   4.588   3.800
 3068TIP3    H2 9162   0.155   4.535   3.724
 3069TIP3   OH2 9163   0.294   6.350   6.405
 3069TIP3    H1 9164   0.315   6.442   6.387
 3069TIP3    H2 9165   0.206   6.338   6.370
 3070TIP3   OH2 9166   5.031   1.768   5.668
 3070TIP3    H1 9167   5.089   1.693   5.657
 3070TIP3    H2 9168   5.001   1.763   5.759
 3071TIP3   OH2 9169   6.466   0.735   4.670
 3071TIP3    H1 9170   6.439   0.775   4.587
 3071TIP3    H2 9171   6.420   0.787   4.737
 3072TIP3   OH2 9172   0.749   3.107   6.674
 3072TIP3    H1 9173   0.680   3.156   6.719
 3072TIP3    H2 9174   0.728   3.115   6.581
 3073TIP3   OH2 9175   7.989   4.413   3.747
 3073TIP3    H1 9176   7.964   4.471   3.819
 3073TIP3    H2 9177   7.951   4.453   3.669
 3074TIP3   OH2 9178   0.230   2.449   4.855
 3074TIP3    H1 9179   0.274   2.418   4.776
 3074TIP3    H2 9180   0.137   2.452   4.831
 3075TIP3   OH2 9181   7.482   4.150   5.348
 3075TIP3    H1 9182   7.477   4.099   5.428
 3075TIP3    H2 9183   7.446   4.235   5.371
 3076TIP3   OH2 9184   4.081   0.714   2.146
 3076TIP3    H1 9185   4.133   0.642   2.181
 3076TIP3    H2 9186   3.990   0.686   2.156
 3077TIP3   OH2 9187   5.476   5.166   0.975
 3077TIP3    H1 9188   5.476   5.259   0.951
 3077TIP3    H2 9189   5.543   5.160   1.044
 3078TIP3   OH2 9190   3.911   5.920   1.414
 3078TIP3    H1 9191   3.843   5.900   1.350
 3078TIP3    H2 9192   3.990   5.879   1.380
 3079TIP3   OH2 9193   6.177   1.923   0.657
 3079TIP3    H1 9194   6.107   1.988   0.648
 3079TIP3    H2 9195   6.169   1.868   0.579
 3080TIP3   OH2 9196   0.131   4.387   3.413
 3080TIP3    H1 9197   0.147   4.473   3.376
 3080TIP3    H2 9198   0.116   4.402   3.506
 3081TIP3   OH2 9199   3.962   0.623   0.167
 3081TIP3    H1 9200   3.888   0.591   0.217
 3081TIP3    H2 9201   4.034   0.628   0.230
 3082TIP3   OH2 9202   5.706   6.160   0.053
 3082TIP3    H1 9203   5.670   6.073   0.035
 3082TIP3    H2 9204   5.654   6.220   0.000
 3083TIP3   OH2 9205   8.141   3.119   6.296
 3083TIP3    H1 9206   8.126   3.112   6.201
 3083TIP3    H2 9207   8.229   3.156   6.304
 3084TIP3   OH2 9208   7.822   0.708   2.399
 3084TIP3    H1 9209   7.760   0.645   2.436
 3084TIP3    H2 9210   7.893   0.711   2.464
 3085TIP3   OH2 9211   2.967   2.421   4.710
 3085TIP3    H1 9212   2.953   2.404   4.617
 3085TIP3    H2 9213   3.015   2.345   4.742
 3086TIP3   OH2 9214   6.896   3.636   6.389
 3086TIP3    H1 9215   6.904   3.556   6.338
 3086TIP3    H2 9216   6.942   3.702   6.338
 3087TIP3   OH2 9217   3.916   5.311   5.535
 3087TIP3    H1 9218   3.884   5.400   5.547
 3087TIP3    H2 9219   3.860   5.258   5.592
 3088TIP3   OH2 9220   3.211   3.674   5.550
 3088TIP3    H1 9221   3.288   3.732   5.544
 3088TIP3    H2 9222   3.245   3.594   5.590
 3089TIP3   OH2 9223   3.153   6.628   3.769
 3089TIP3    H1 9224   3.077   6.668   3.726
 3089TIP3    H2 9225   3.115   6.571   3.836
 3090TIP3   OH2 9226   1.913   2.716   5.887
 3090TIP3    H1 9227   1.976   2.748   5.823
 3090TIP3    H2 9228   1.967   2.673   5.954
 3091TIP3   OH2 9229   5.959   2.989   3.293
 3091TIP3    H1 9230   5.964   2.902   3.333
 3091TIP3    H2 9231   6.045   3.028   3.310
 3092TIP3   OH2 9232   7.130   2.591   6.213
 3092TIP3    H1 9233   7.208   2.639   6.241
 3092TIP3    H2 9234   7.058   2.629   6.264
 3093TIP3   OH2 9235   4.994   5.484   1.514
 3093TIP3    H1 9236   4.980   5.484   1.419
 3093TIP3    H2 9237   4.992   5.392   1.538
 3094TIP3   OH2 9238   6.715   2.607   1.782
 3094TIP3    H1 9239   6.754   2.522   1.805
 3094TIP3    H2 9240   6.645   2.619   1.846
 3095TIP3   OH2 9241   5.154   0.211   2.143
 3095TIP3    H1 9242   5.197   0.239   2.224
 3095TIP3    H2 9243   5.149   0.116   2.151
 3096TIP3   OH2 9244   7.887   4.769   3.040
 3096TIP3    H1 9245   7.918   4.750   2.951
 3096TIP3    H2 9246   7.911   4.861   3.055
 3097TIP3   OH2 9247   5.553   0.223   0.612
 3097TIP3    H1 9248   5.597   0.248   0.531
 3097TIP3    H2 9249   5.466   0.196   0.585
 3098TIP3   OH2 9250   1.899   0.490   0.890
 3098TIP3    H1 9251   1.892   0.586   0.895
 3098TIP3    H2 9252   1.942   0.474   0.806
 3099TIP3   OH2 9253   7.304   6.870   2.943
 3099TIP3    H1 9254   7.235   6.934   2.929
 3099TIP3    H2 9255   7.311   6.861   3.038
 3100TIP3   OH2 9256   1.924   6.387   5.901
 3100TIP3    H1 9257   1.940   6.312   5.844
 3100TIP3    H2 9258   1.848   6.362   5.952
 3101TIP3   OH2 9259   2.722   4.718   3.990
 3101TIP3    H1 9260   2.683   4.795   4.031
 3101TIP3    H2 9261   2.682   4.643   4.034
 3102TIP3   OH2 9262   6.334   2.640   0.344
 3102TIP3    H1 9263   6.352   2.556   0.302
 3102TIP3    H2 9264   6.372   2.705   0.285
 3103TIP3   OH2 9265   7.997   5.294   1.868
 3103TIP3    H1 9266   7.968   5.202   1.868
 3103TIP3    H2 9267   7.919   5.343   1.891
 3104TIP3   OH2 9268   5.793   1.560   1.282
 3104TIP3    H1 9269   5.746   1.564   1.199
 3104TIP3    H2 9270   5.785   1.469   1.310
 3105TIP3   OH2 9271   2.513   4.411   2.084
 3105TIP3    H1 9272   2.599   4.375   2.104
 3105TIP3    H2 9273   2.492   4.377   1.997
 3106TIP3   OH2 9274   1.338   5.354   5.641
 3106TIP3    H1 9275   1.277   5.348   5.715
 3106TIP3    H2 9276   1.286   5.394   5.571
 3107TIP3   OH2 9277   1.181   6.683   2.824
 3107TIP3    H1 9278   1.098   6.700   2.869
 3107TIP3    H2 9279   1.157   6.635   2.745
 3108TIP3   OH2 9280   4.648   0.224   5.691
 3108TIP3    H1 9281   4.736   0.240   5.727
 3108TIP3    H2 9282   4.630   0.303   5.639
 3109TIP3   OH2 9283   6.499   7.723   3.745
 3109TIP3    H1 9284   6.498   7.636   3.705
 3109TIP3    H2 9285   6.583   7.727   3.791
 3110TIP3   OH2 9286   5.696   1.782   5.632
 3110TIP3    H1 9287   5.686   1.853   5.695
 3110TIP3    H2 9288   5.695   1.703   5.685
 3111TIP3   OH2 9289   2.381   0.438   3.597
 3111TIP3    H1 9290   2.375   0.506   3.664
 3111TIP3    H2 9291   2.297   0.443   3.551
 3112TIP3   OH2 9292   4.768   6.243   1.968
 3112TIP3    H1 9293   4.764   6.324   1.918
 3112TIP3    H2 9294   4.726   6.264   2.051
 3113TIP3   OH2 9295   4.782   1.273   2.917
 3113TIP3    H1 9296   4.858   1.234   2.959
 3113TIP3    H2 9297   4.726   1.301   2.990
 3114TIP3   OH2 9298   4.566   6.442   5.090
 3114TIP3    H1 9299   4.660   6.463   5.090
 3114TIP3    H2 9300   4.554   6.389   5.169
 3115TIP3   OH2 9301   5.566   5.118   3.842
 3115TIP3    H1 9302   5.494   5.058   3.821
 3115TIP3    H2 9303   5.566   5.123   3.937
 3116TIP3   OH2 9304   3.165   3.388   6.434
 3116TIP3    H1 9305   3.249   3.373   6.390
 3116TIP3    H2 9306   3.142   3.478   6.412
 3117TIP3   OH2 9307   3.936   3.054   5.354
 3117TIP3    H1 9308   3.949   3.135   5.304
 3117TIP3    H2 9309   3.914   3.084   5.442
 3118TIP3   OH2 9310   4.550   7.048   2.080
 3118TIP3    H1 9311   4.517   7.117   2.022
 3118TIP3    H2 9312   4.580   6.979   2.020
 3119TIP3   OH2 9313   5.758   4.594   0.433
 3119TIP3    H1 9314   5.849   4.623   0.431
 3119TIP3    H2 9315   5.738   4.571   0.342
 3120TIP3   OH2 9316   1.252   1.385   6.689
 3120TIP3    H1 9317   1.252   1.420   6.600
 3120TIP3    H2 9318   1.192   1.441   6.737
 3121TIP3   OH2 9319   0.833   4.224   3.272
 3121TIP3    H1 9320   0.747   4.194   3.303
 3121TIP3    H2 9321   0.844   4.310   3.312
 3122TIP3   OH2 9322   5.810   5.397   1.308
 3122TIP3    H1 9323   5.742   5.329   1.311
 3122TIP3    H2 9324   5.769   5.473   1.348
 3123TIP3   OH2 9325   0.529   0.415   4.776
 3123TIP3    H1 9326   0.591   0.359   4.730
 3123TIP3    H2 9327   0.491   0.470   4.708
 3124TIP3   OH2 9328   1.877   3.515   2.526
 3124TIP3    H1 9329   1.890   3.608   2.546
 3124TIP3    H2 9330   1.875   3.472   2.611
 3125TIP3   OH2 9331   1.409   0.550   5.082
 3125TIP3    H1 9332   1.388   0.636   5.044
 3125TIP3    H2 9333   1.430   0.495   5.007
 3126TIP3   OH2 9334   1.735   6.301   1.287
 3126TIP3    H1 9335   1.650   6.266   1.260
 3126TIP3    H2 9336   1.756   6.368   1.221
 3127TIP3   OH2 9337   5.273   3.978   6.291
 3127TIP3    H1 9338   5.231   4.023   6.364
 3127TIP3    H2 9339   5.367   3.996   6.301
 3128TIP3   OH2 9340   4.090   4.350   5.067
 3128TIP3    H1 9341   4.048   4.437   5.065
 3128TIP3    H2 9342   4.028   4.295   5.115
 3129TIP3   OH2 9343   2.435   7.328   4.055
 3129TIP3    H1 9344   2.352   7.317   4.102
 3129TIP3    H2 9345   2.478   7.243   4.062
 3130TIP3   OH2 9346   6.728   7.210   1.727
 3130TIP3    H1 9347   6.759   7.132   1.774
 3130TIP3    H2 9348   6.754   7.195   1.636
 3131TIP3   OH2 9349   0.562   0.275   5.511
 3131TIP3    H1 9350   0.500   0.224   5.562
 3131TIP3    H2 9351   0.530   0.269   5.421
 3132TIP3   OH2 9352   4.853   2.861   0.966
 3132TIP3    H1 9353   4.931   2.805   0.968
 3132TIP3    H2 9354   4.798   2.824   0.897
 3133TIP3   OH2 9355   4.717   5.688   5.271
 3133TIP3    H1 9356   4.670   5.605   5.268
 3133TIP3    H2 9357   4.799   5.668   5.316
 3134TIP3   OH2 9358   0.138   7.651   3.452
 3134TIP3    H1 9359   0.084   7.729   3.443
 3134TIP3    H2 9360   0.145   7.616   3.363
 3135TIP3   OH2 9361   2.390   2.522   5.967
 3135TIP3    H1 9362   2.367   2.488   6.053
 3135TIP3    H2 9363   2.484   2.509   5.960
 3136TIP3   OH2 9364   4.791   3.159   3.437
 3136TIP3    H1 9365   4.869   3.107   3.454
 3136TIP3    H2 9366   4.738   3.105   3.378
 3137TIP3   OH2 9367   0.660   1.667   6.211
 3137TIP3    H1 9368   0.568   1.676   6.186
 3137TIP3    H2 9369   0.709   1.700   6.136
 3138TIP3   OH2 9370   4.968   6.820   5.906
 3138TIP3    H1 9371   4.958   6.835   6.000
 3138TIP3    H2 9372   4.899   6.871   5.865
 3139TIP3   OH2 9373   2.635   5.368   2.409
 3139TIP3    H1 9374   2.596   5.285   2.382
 3139TIP3    H2 9375   2.580   5.398   2.481
 3140TIP3   OH2 9376   1.918   4.426   0.411
 3140TIP3    H1 9377   1.977   4.395   0.343
 3140TIP3    H2 9378   1.844   4.365   0.407
 3141TIP3   OH2 9379   6.453   7.263   0.893
 3141TIP3    H1 9380   6.395   7.313   0.835
 3141TIP3    H2 9381   6.453   7.311   0.975
 3142TIP3   OH2 9382   5.055   1.917   6.377
 3142TIP3    H1 9383   5.126   1.931   6.314
 3142TIP3    H2 9384   5.099   1.892   6.458
 3143TIP3   OH2 9385   5.918   7.739   1.872
 3143TIP3    H1 9386   5.926   7.809   1.937
 3143TIP3    H2 9387   6.000   7.743   1.823
 3144TIP3   OH2 9388   5.301   3.662   3.012
 3144TIP3    H1 9389   5.223   3.656   3.066
 3144TIP3    H2 9390   5.367   3.702   3.069
 3145TIP3   OH2 9391   2.628   5.797   1.640
 3145TIP3    H1 9392   2.588   5.745   1.710
 3145TIP3    H2 9393   2.592   5.885   1.650
 3146TIP3   OH2 9394   5.751   2.093   2.868
 3146TIP3    H1 9395   5.742   2.076   2.774
 3146TIP3    H2 9396   5.683   2.157   2.887
 3147TIP3   OH2 9397   2.931   3.624   5.053
 3147TIP3    H1 9398   2.846   3.641   5.011
 3147TIP3    H2 9399   2.921   3.659   5.142
 3148TIP3   OH2 9400   6.144   3.485   0.864
 3148TIP3    H1 9401   6.219   3.473   0.922
 3148TIP3    H2 9402   6.082   3.417   0.890
 3149TIP3   OH2 9403   3.245   3.866   2.427
 3149TIP3    H1 9404   3.156   3.854   2.458
 3149TIP3    H2 9405   3.255   3.803   2.356
 3150TIP3   OH2 9406   4.701   5.913   0.029
 3150TIP3    H1 9407   4.664   5.979  -0.030
 3150TIP3    H2 9408   4.770   5.960   0.077
 3151TIP3   OH2 9409   5.824   7.468   4.674
 3151TIP3    H1 9410   5.792   7.515   4.751
 3151TIP3    H2 9411   5.747   7.426   4.638
 3152TIP3   OH2 9412   3.549   7.133   1.317
 3152TIP3    H1 9413   3.496   7.156   1.394
 3152TIP3    H2 9414   3.632   7.101   1.354
 3153TIP3   OH2 9415   6.301   1.559   0.202
 3153TIP3    H1 9416   6.266   1.645   0.176
 3153TIP3    H2 9417   6.367   1.539   0.136
 3154TIP3   OH2 9418   4.490   1.568   0.616
 3154TIP3    H1 9419   4.540   1.502   0.665
 3154TIP3    H2 9420   4.412   1.522   0.585
 3155TIP3   OH2 9421   2.753   0.562   3.682
 3155TIP3    H1 9422   2.736   0.504   3.608
 3155TIP3    H2 9423   2.779   0.504   3.753
 3156TIP3   OH2 9424   2.892   3.898   2.777
 3156TIP3    H1 9425   2.876   3.950   2.855
 3156TIP3    H2 9426   2.816   3.841   2.770
 3157TIP3   OH2 9427   5.838   0.662   2.003
 3157TIP3    H1 9428   5.884   0.659   1.919
 3157TIP3    H2 9429   5.904   0.639   2.068
 3158TIP3   OH2 9430   7.414   5.333   4.107
 3158TIP3    H1 9431   7.434   5.347   4.200
 3158TIP3    H2 9432   7.494   5.358   4.061
 3159TIP3   OH2 9433   6.293  -0.012   1.932
 3159TIP3    H1 9434   6.278  -0.043   1.843
 3159TIP3    H2 9435   6.258   0.077   1.932
 3160TIP3   OH2 9436   0.369   3.468   1.608
 3160TIP3    H1 9437   0.307   3.396   1.617
 3160TIP3    H2 9438   0.392   3.468   1.515
 3161TIP3   OH2 9439   7.814   7.488   2.168
 3161TIP3    H1 9440   7.745   7.546   2.135
 3161TIP3    H2 9441   7.804   7.492   2.263
 3162TIP3   OH2 9442   3.057   1.881   6.805
 3162TIP3    H1 9443   2.976   1.909   6.762
 3162TIP3    H2 9444   3.126   1.915   6.749
 3163TIP3   OH2 9445   2.372   2.014   5.199
 3163TIP3    H1 9446   2.357   1.927   5.236
 3163TIP3    H2 9447   2.401   2.066   5.274
 3164TIP3   OH2 9448   7.978   5.450   5.387
 3164TIP3    H1 9449   7.895   5.451   5.434
 3164TIP3    H2 9450   7.955   5.476   5.298
 3165TIP3   OH2 9451   1.894   7.525   5.312
 3165TIP3    H1 9452   1.798   7.533   5.313
 3165TIP3    H2 9453   1.911   7.443   5.358
 3166TIP3   OH2 9454   4.737   5.522   0.180
 3166TIP3    H1 9455   4.724   5.546   0.089
 3166TIP3    H2 9456   4.804   5.582   0.212
 3167TIP3   OH2 9457   4.571   4.425   0.152
 3167TIP3    H1 9458   4.642   4.436   0.215
 3167TIP3    H2 9459   4.605   4.464   0.071
 3168TIP3   OH2 9460   5.050   5.346   6.724
 3168TIP3    H1 9461   5.079   5.331   6.635
 3168TIP3    H2 9462   5.047   5.259   6.764
 3169TIP3   OH2 9463   6.577   6.946   4.942
 3169TIP3    H1 9464   6.587   6.896   4.861
 3169TIP3    H2 9465   6.653   6.921   4.995
 3170TIP3   OH2 9466   1.086   3.276   0.791
 3170TIP3    H1 9467   1.102   3.287   0.884
 3170TIP3    H2 9468   1.171   3.294   0.750
 3171TIP3   OH2 9469   7.694   1.562   5.907
 3171TIP3    H1 9470   7.661   1.640   5.951
 3171TIP3    H2 9471   7.655   1.489   5.955
 3172TIP3   OH2 9472   8.107   1.945   6.235
 3172TIP3    H1 9473   8.113   1.910   6.324
 3172TIP3    H2 9474   8.182   2.004   6.227
 3173TIP3   OH2 9475   5.476   0.168   2.148
 3173TIP3    H1 9476   5.535   0.217   2.090
 3173TIP3    H2 9477   5.394   0.163   2.100
 3174TIP3   OH2 9478   7.290   5.700   2.842
 3174TIP3    H1 9479   7.246   5.660   2.766
 3174TIP3    H2 9480   7.259   5.650   2.917
 3175TIP3   OH2 9481   7.261   1.674   0.608
 3175TIP3    H1 9482   7.205   1.671   0.685
 3175TIP3    H2 9483   7.200   1.682   0.534
 3176TIP3   OH2 9484   0.909   7.432   6.030
 3176TIP3    H1 9485   0.965   7.497   5.988
 3176TIP3    H2 9486   0.965   7.389   6.094
 3177TIP3   OH2 9487   2.170   6.872   6.532
 3177TIP3    H1 9488   2.264   6.881   6.518
 3177TIP3    H2 9489   2.162   6.810   6.605
 3178TIP3   OH2 9490   7.861   2.491   4.387
 3178TIP3    H1 9491   7.854   2.423   4.320
 3178TIP3    H2 9492   7.872   2.444   4.469
 3179TIP3   OH2 9493   5.183   4.996   3.841
 3179TIP3    H1 9494   5.259   4.966   3.790
 3179TIP3    H2 9495   5.121   4.923   3.836
 3180TIP3   OH2 9496   0.808   0.983   2.024
 3180TIP3    H1 9497   0.767   0.900   2.048
 3180TIP3    H2 9498   0.796   0.988   1.929
 3181TIP3   OH2 9499   1.128   0.690   0.018
 3181TIP3    H1 9500   1.047   0.731  -0.013
 3181TIP3    H2 9501   1.153   0.740   0.096
 3182TIP3   OH2 9502   4.609   7.515   0.183
 3182TIP3    H1 9503   4.662   7.490   0.259
 3182TIP3    H2 9504   4.629   7.448   0.118
 3183TIP3   OH2 9505   2.680   5.253   5.997
 3183TIP3    H1 9506   2.698   5.226   5.907
 3183TIP3    H2 9507   2.638   5.338   5.989
 3184TIP3   OH2 9508   0.087   3.877   1.835
 3184TIP3    H1 9509   0.167   3.840   1.798
 3184TIP3    H2 9510   0.044   3.803   1.878
 3185TIP3   OH2 9511   3.348   0.382   3.435
 3185TIP3    H1 9512   3.367   0.364   3.343
 3185TIP3    H2 9513   3.267   0.334   3.453
 3186TIP3   OH2 9514   0.545   3.410   3.687
 3186TIP3    H1 9515   0.542   3.331   3.741
 3186TIP3    H2 9516   0.495   3.475   3.736
 3187TIP3   OH2 9517   5.235   4.549   6.730
 3187TIP3    H1 9518   5.149   4.508   6.730
 3187TIP3    H2 9519   5.235   4.606   6.653
 3188TIP3   OH2 9520   7.006   6.577   2.440
 3188TIP3    H1 9521   7.052   6.620   2.512
 3188TIP3    H2 9522   7.058   6.500   2.420
 3189TIP3   OH2 9523   5.493   6.463   1.887
 3189TIP3    H1 9524   5.476   6.551   1.920
 3189TIP3    H2 9525   5.573   6.435   1.931
 3190TIP3   OH2 9526   6.486   4.461   0.744
 3190TIP3    H1 9527   6.541   4.494   0.673
 3190TIP3    H2 9528   6.521   4.503   0.823
 3191TIP3   OH2 9529   6.066   5.428   4.219
 3191TIP3    H1 9530   6.048   5.519   4.242
 3191TIP3    H2 9531   5.981   5.393   4.192
 3192TIP3   OH2 9532   3.480   7.084   5.282
 3192TIP3    H1 9533   3.552   7.078   5.219
 3192TIP3    H2 9534   3.492   7.009   5.340
 3193TIP3   OH2 9535   0.772   0.469   0.579
 3193TIP3    H1 9536   0.777   0.509   0.666
 3193TIP3    H2 9537   0.775   0.542   0.518
 3194TIP3   OH2 9538   4.365   7.681   0.558
 3194TIP3    H1 9539   4.347   7.590   0.538
 3194TIP3    H2 9540   4.456   7.695   0.530
 3195TIP3   OH2 9541   1.465   0.215   1.546
 3195TIP3    H1 9542   1.539   0.185   1.598
 3195TIP3    H2 9543   1.504   0.246   1.464
 3196TIP3   OH2 9544   1.365   3.275   0.716
 3196TIP3    H1 9545   1.308   3.344   0.682
 3196TIP3    H2 9546   1.453   3.301   0.687
 3197TIP3   OH2 9547   6.573   2.702   1.575
 3197TIP3    H1 9548   6.596   2.610   1.561
 3197TIP3    H2 9549   6.623   2.727   1.652
 3198TIP3   OH2 9550   1.255   0.734   5.936
 3198TIP3    H1 9551   1.258   0.735   6.032
 3198TIP3    H2 9552   1.202   0.810   5.913
 3199TIP3   OH2 9553   1.637   6.141   2.388
 3199TIP3    H1 9554   1.574   6.152   2.459
 3199TIP3    H2 9555   1.664   6.050   2.394
 3200TIP3   OH2 9556   6.905   0.754   1.104
 3200TIP3    H1 9557   6.970   0.765   1.034
 3200TIP3    H2 9558   6.936   0.809   1.175
 3201TIP3   OH2 9559   1.469   4.090   5.331
 3201TIP3    H1 9560   1.456   3.999   5.307
 3201TIP3    H2 9561   1.381   4.125   5.344
 3202TIP3   OH2 9562   3.738   6.132   5.975
 3202TIP3    H1 9563   3.673   6.069   6.009
 3202TIP3    H2 9564   3.753   6.104   5.885
 3203TIP3   OH2 9565   8.088   7.338   5.259
 3203TIP3    H1 9566   8.147   7.366   5.189
 3203TIP3    H2 9567   8.003   7.328   5.216
 3204TIP3   OH2 9568   0.416   4.307   4.449
 3204TIP3    H1 9569   0.365   4.362   4.508
 3204TIP3    H2 9570   0.455   4.241   4.505
 3205TIP3   OH2 9571   5.415   2.620   4.363
 3205TIP3    H1 9572   5.500   2.597   4.400
 3205TIP3    H2 9573   5.431   2.629   4.269
 3206TIP3   OH2 9574   1.265   3.390   1.690
 3206TIP3    H1 9575   1.254   3.296   1.695
 3206TIP3    H2 9576   1.178   3.424   1.672
 3207TIP3   OH2 9577   6.863   3.893   1.949
 3207TIP3    H1 9578   6.892   3.848   1.870
 3207TIP3    H2 9579   6.828   3.976   1.917
 3208TIP3   OH2 9580   1.834   3.923   0.995
 3208TIP3    H1 9581   1.804   3.917   1.086
 3208TIP3    H2 9582   1.898   3.852   0.986
 3209TIP3   OH2 9583   8.141   2.383   1.944
 3209TIP3    H1 9584   8.065   2.331   1.970
 3209TIP3    H2 9585   8.198   2.384   2.021
 3210TIP3   OH2 9586   7.606   5.871   2.717
 3210TIP3    H1 9587   7.676   5.849   2.656
 3210TIP3    H2 9588   7.553   5.936   2.671
 3211TIP3   OH2 9589   6.542   2.231   2.784
 3211TIP3    H1 9590   6.569   2.196   2.699
 3211TIP3    H2 9591   6.546   2.326   2.773
 3212TIP3   OH2 9592   3.757   3.652   1.421
 3212TIP3    H1 9593   3.789   3.737   1.392
 3212TIP3    H2 9594   3.836   3.597   1.426
 3213TIP3   OH2 9595   5.815   0.980   0.511
 3213TIP3    H1 9596   5.814   1.064   0.466
 3213TIP3    H2 9597   5.748   0.988   0.579
 3214TIP3   OH2 9598   8.040   0.779   1.534
 3214TIP3    H1 9599   8.048   0.717   1.606
 3214TIP3    H2 9600   8.010   0.726   1.460
 3215TIP3   OH2 9601   6.359   5.412   0.000
 3215TIP3    H1 9602   6.410   5.453   0.069
 3215TIP3    H2 9603   6.373   5.318   0.011
 3216TIP3   OH2 9604   5.500   2.451   1.429
 3216TIP3    H1 9605   5.443   2.434   1.504
 3216TIP3    H2 9606   5.465   2.531   1.390
 3217TIP3   OH2 9607   5.279   5.597   4.356
 3217TIP3    H1 9608   5.243   5.568   4.439
 3217TIP3    H2 9609   5.276   5.692   4.360
 3218TIP3   OH2 9610   3.840   6.049   1.098
 3218TIP3    H1 9611   3.847   5.965   1.054
 3218TIP3    H2 9612   3.924   6.061   1.143
 3219TIP3   OH2 9613   5.275   3.278   1.568
 3219TIP3    H1 9614   5.268   3.338   1.642
 3219TIP3    H2 9615   5.297   3.335   1.494
 3220TIP3   OH2 9616   4.182   7.374   1.352
 3220TIP3    H1 9617   4.169   7.434   1.424
 3220TIP3    H2 9618   4.093   7.351   1.323
 3221TIP3   OH2 9619   6.650   7.677   1.337
 3221TIP3    H1 9620   6.624   7.711   1.422
 3221TIP3    H2 9621   6.648   7.582   1.348
 3222TIP3   OH2 9622   3.956   6.561   2.534
 3222TIP3    H1 9623   3.983   6.588   2.446
 3222TIP3    H2 9624   4.038   6.549   2.582
 3223TIP3   OH2 9625   1.617   3.922   0.821
 3223TIP3    H1 9626   1.543   3.956   0.871
 3223TIP3    H2 9627   1.693   3.936   0.878
 3224TIP3   OH2 9628   1.268   5.277   6.691
 3224TIP3    H1 9629   1.313   5.281   6.775
 3224TIP3    H2 9630   1.278   5.186   6.662
 3225TIP3   OH2 9631   4.964   3.726   6.734
 3225TIP3    H1 9632   4.980   3.801   6.676
 3225TIP3    H2 9633   4.880   3.745   6.776
 3226TIP3   OH2 9634   3.296   4.862   3.631
 3226TIP3    H1 9635   3.351   4.935   3.603
 3226TIP3    H2 9636   3.224   4.902   3.679
 3227TIP3   OH2 9637   5.822   6.947   3.860
 3227TIP3    H1 9638   5.898   6.973   3.810
 3227TIP3    H2 9639   5.816   6.852   3.848
 3228TIP3   OH2 9640   5.432   4.658   6.381
 3228TIP3    H1 9641   5.399   4.572   6.353
 3228TIP3    H2 9642   5.522   4.661   6.349
 3229TIP3   OH2 9643   4.971   0.048   3.108
 3229TIP3    H1 9644   4.891   0.067   3.156
 3229TIP3    H2 9645   5.035   0.111   3.142
 3230TIP3   OH2 9646   1.356   7.445   3.256
 3230TIP3    H1 9647   1.304   7.368   3.278
 3230TIP3    H2 9648   1.384   7.481   3.340
 3231TIP3   OH2 9649   5.322   3.145   3.151
 3231TIP3    H1 9650   5.244   3.094   3.124
 3231TIP3    H2 9651   5.295   3.189   3.231
 3232TIP3   OH2 9652   3.501   3.132   2.529
 3232TIP3    H1 9653   3.474   3.165   2.614
 3232TIP3    H2 9654   3.447   3.054   2.515
 3233TIP3   OH2 9655   8.246   4.402   0.369
 3233TIP3    H1 9656   8.302   4.331   0.337
 3233TIP3    H2 9657   8.192   4.425   0.294
 3234TIP3   OH2 9658   7.736   5.952   3.442
 3234TIP3    H1 9659   7.680   5.880   3.414
 3234TIP3    H2 9660   7.800   5.912   3.500
 3235TIP3   OH2 9661   4.079   0.307   4.491
 3235TIP3    H1 9662   3.998   0.332   4.536
 3235TIP3    H2 9663   4.069   0.213   4.474
 3236TIP3   OH2 9664   0.218   6.287   5.016
 3236TIP3    H1 9665   0.170   6.324   5.090
 3236TIP3    H2 9666   0.202   6.192   5.022
 3237TIP3   OH2 9667   1.060   5.673   1.105
 3237TIP3    H1 9668   1.145   5.712   1.121
 3237TIP3    H2 9669   1.011   5.739   1.055
 3238TIP3   OH2 9670   1.688   1.097   1.027
 3238TIP3    H1 9671   1.768   1.059   1.063
 3238TIP3    H2 9672   1.718   1.155   0.957
 3239TIP3   OH2 9673   3.378   4.682   4.146
 3239TIP3    H1 9674   3.444   4.749   4.129
 3239TIP3    H2 9675   3.389   4.662   4.239
 3240TIP3   OH2 9676   7.334   4.079   2.324
 3240TIP3    H1 9677   7.327   4.157   2.379
 3240TIP3    H2 9678   7.244   4.052   2.307
 3241TIP3   OH2 9679   1.157   7.621   5.299
 3241TIP3    H1 9680   1.178   7.710   5.270
 3241TIP3    H2 9681   1.217   7.565   5.249
 3242TIP3   OH2 9682   3.071   1.534   6.778
 3242TIP3    H1 9683   3.004   1.583   6.729
 3242TIP3    H2 9684   3.151   1.585   6.767
 3243TIP3   OH2 9685   2.321   0.889   1.218
 3243TIP3    H1 9686   2.244   0.946   1.228
 3243TIP3    H2 9687   2.329   0.877   1.124
 3244TIP3   OH2 9688   6.642   1.130   4.765
 3244TIP3    H1 9689   6.588   1.093   4.835
 3244TIP3    H2 9690   6.610   1.087   4.686
 3245TIP3   OH2 9691   3.122   1.150   4.878
 3245TIP3    H1 9692   3.209   1.109   4.887
 3245TIP3    H2 9693   3.098   1.133   4.787
 3246TIP3   OH2 9694   1.849   1.144   2.142
 3246TIP3    H1 9695   1.829   1.237   2.156
 3246TIP3    H2 9696   1.826   1.128   2.051
 3247TIP3   OH2 9697   2.498   7.404   0.062
 3247TIP3    H1 9698   2.543   7.478   0.020
 3247TIP3    H2 9699   2.458   7.442   0.141
 3248TIP3   OH2 9700   4.700   5.801   2.307
 3248TIP3    H1 9701   4.680   5.892   2.326
 3248TIP3    H2 9702   4.632   5.751   2.353
 3249TIP3   OH2 9703   3.598   7.204   4.555
 3249TIP3    H1 9704   3.590   7.196   4.650
 3249TIP3    H2 9705   3.656   7.279   4.542
 3250TIP3   OH2 9706   6.357   1.713   0.549
 3250TIP3    H1 9707   6.360   1.619   0.530
 3250TIP3    H2 9708   6.332   1.718   0.641
 3251TIP3   OH2 9709   6.139   3.511   3.244
 3251TIP3    H1 9710   6.061   3.526   3.191
 3251TIP3    H2 9711   6.182   3.436   3.203
 3252TIP3   OH2 9712   4.916   7.249   1.097
 3252TIP3    H1 9713   4.994   7.230   1.045
 3252TIP3    H2 9714   4.915   7.344   1.106
 3253TIP3   OH2 9715   2.205   5.547   3.070
 3253TIP3    H1 9716   2.109   5.545   3.066
 3253TIP3    H2 9717   2.225   5.543   3.164
 3254TIP3   OH2 9718   7.246   4.491   1.943
 3254TIP3    H1 9719   7.306   4.537   2.001
 3254TIP3    H2 9720   7.245   4.544   1.863
 3255TIP3   OH2 9721   6.860   2.603   5.159
 3255TIP3    H1 9722   6.775   2.569   5.187
 3255TIP3    H2 9723   6.858   2.597   5.063
 3256TIP3   OH2 9724   6.811   0.487   3.735
 3256TIP3    H1 9725   6.785   0.506   3.645
 3256TIP3    H2 9726   6.907   0.493   3.734
 3257TIP3   OH2 9727   0.782   5.106   3.961
 3257TIP3    H1 9728   0.872   5.140   3.960
 3257TIP3    H2 9729   0.775   5.057   4.043
 3258TIP3   OH2 9730   0.116   1.891   3.090
 3258TIP3    H1 9731   0.072   1.806   3.085
 3258TIP3    H2 9732   0.209   1.870   3.099
 3259TIP3   OH2 9733   6.131   3.590   1.523
 3259TIP3    H1 9734   6.045   3.621   1.498
 3259TIP3    H2 9735   6.188   3.612   1.449
 3260TIP3   OH2 9736   3.680   2.656   0.396
 3260TIP3    H1 9737   3.727   2.582   0.359
 3260TIP3    H2 9738   3.710   2.661   0.487
 3261TIP3   OH2 9739   6.463   2.515   2.453
 3261TIP3    H1 9740   6.396   2.526   2.521
 3261TIP3    H2 9741   6.462   2.598   2.405
 3262TIP3   OH2 9742   4.780   0.859   0.509
 3262TIP3    H1 9743   4.752   0.770   0.528
 3262TIP3    H2 9744   4.815   0.855   0.420
 3263TIP3   OH2 9745   5.722   5.061   4.587
 3263TIP3    H1 9746   5.816   5.078   4.591
 3263TIP3    H2 9747   5.699   5.037   4.677
 3264TIP3   OH2 9748   4.789   5.651   4.472
 3264TIP3    H1 9749   4.735   5.726   4.496
 3264TIP3    H2 9750   4.811   5.609   4.555
 3265TIP3   OH2 9751   7.929   2.205   2.520
 3265TIP3    H1 9752   7.934   2.177   2.611
 3265TIP3    H2 9753   7.837   2.225   2.506
 3266TIP3   OH2 9754   4.198   6.832   3.388
 3266TIP3    H1 9755   4.260   6.905   3.391
 3266TIP3    H2 9756   4.167   6.823   3.478
 3267TIP3   OH2 9757   1.346   4.588   2.141
 3267TIP3    H1 9758   1.433   4.562   2.109
 3267TIP3    H2 9759   1.296   4.605   2.061
 3268TIP3   OH2 9760   6.486   7.036   4.012
 3268TIP3    H1 9761   6.446   7.061   3.929
 3268TIP3    H2 9762   6.435   7.081   4.078
 3269TIP3   OH2 9763   6.015   2.553   2.663
 3269TIP3    H1 9764   5.965   2.496   2.721
 3269TIP3    H2 9765   5.964   2.634   2.660
 3270TIP3   OH2 9766   2.843   3.757   3.731
 3270TIP3    H1 9767   2.935   3.764   3.758
 3270TIP3    H2 9768   2.800   3.830   3.775
 3271TIP3   OH2 9769   8.043   3.082   1.551
 3271TIP3    H1 9770   8.052   2.997   1.595
 3271TIP3    H2 9771   8.132   3.102   1.521
 3272TIP3   OH2 9772   5.559   0.662   0.302
 3272TIP3    H1 9773   5.502   0.738   0.289
 3272TIP3    H2 9774   5.633   0.696   0.352
 3273TIP3   OH2 9775   1.674   0.484   4.620
 3273TIP3    H1 9776   1.687   0.390   4.606
 3273TIP3    H2 9777   1.719   0.525   4.546
 3274TIP3   OH2 9778   7.279   5.528   0.452
 3274TIP3    H1 9779   7.205   5.583   0.480
 3274TIP3    H2 9780   7.246   5.480   0.376
 3275TIP3   OH2 9781   4.350   0.432   1.978
 3275TIP3    H1 9782   4.292   0.374   2.028
 3275TIP3    H2 9783   4.405   0.474   2.044
 3276TIP3   OH2 9784   6.902   3.774   5.434
 3276TIP3    H1 9785   6.864   3.693   5.401
 3276TIP3    H2 9786   6.996   3.766   5.414
 3277TIP3   OH2 9787   0.494   0.097   3.250
 3277TIP3    H1 9788   0.522   0.097   3.341
 3277TIP3    H2 9789   0.551   0.162   3.208
 3278TIP3   OH2 9790   1.213   0.446   0.426
 3278TIP3    H1 9791   1.142   0.394   0.462
 3278TIP3    H2 9792   1.170   0.518   0.379
 3279TIP3   OH2 9793   5.449   0.993   5.326
 3279TIP3    H1 9794   5.473   0.909   5.366
 3279TIP3    H2 9795   5.441   0.973   5.232
 3280TIP3   OH2 9796   1.085   3.948   5.033
 3280TIP3    H1 9797   1.136   3.878   4.993
 3280TIP3    H2 9798   1.054   3.912   5.116
 3281TIP3   OH2 9799   7.016   0.775   0.833
 3281TIP3    H1 9800   7.093   0.829   0.819
 3281TIP3    H2 9801   6.946   0.820   0.786
 3282TIP3   OH2 9802   0.248   6.877   5.177
 3282TIP3    H1 9803   0.248   6.835   5.091
 3282TIP3    H2 9804   0.315   6.945   5.170
 3283TIP3   OH2 9805   5.118   6.813   4.303
 3283TIP3    H1 9806   5.060   6.859   4.364
 3283TIP3    H2 9807   5.139   6.731   4.347
 3284TIP3   OH2 9808   1.610   4.863   1.240
 3284TIP3    H1 9809   1.553   4.844   1.166
 3284TIP3    H2 9810   1.680   4.918   1.204
 3285TIP3   OH2 9811   1.661   6.549   0.401
 3285TIP3    H1 9812   1.584   6.534   0.455
 3285TIP3    H2 9813   1.734   6.547   0.462
 3286TIP3   OH2 9814   6.660   5.377   0.755
 3286TIP3    H1 9815   6.688   5.464   0.728
 3286TIP3    H2 9816   6.729   5.347   0.815
 3287TIP3   OH2 9817   6.356   1.045   2.508
 3287TIP3    H1 9818   6.416   0.988   2.556
 3287TIP3    H2 9819   6.358   1.128   2.555
 3288TIP3   OH2 9820   4.278   4.157   1.009
 3288TIP3    H1 9821   4.221   4.089   1.044
 3288TIP3    H2 9822   4.293   4.217   1.083
 3289TIP3   OH2 9823   3.646   5.715   6.139
 3289TIP3    H1 9824   3.580   5.764   6.187
 3289TIP3    H2 9825   3.644   5.627   6.178
 3290TIP3   OH2 9826   0.021   1.444   1.561
 3290TIP3    H1 9827  -0.009   1.510   1.498
 3290TIP3    H2 9828   0.111   1.425   1.534
 3291TIP3   OH2 9829   0.682   3.310   0.846
 3291TIP3    H1 9830   0.777   3.299   0.853
 3291TIP3    H2 9831   0.671   3.382   0.784
 3292TIP3   OH2 9832   7.957   6.146   3.112
 3292TIP3    H1 9833   7.934   6.238   3.128
 3292TIP3    H2 9834   7.886   6.112   3.058
 3293TIP3   OH2 9835   2.130   0.804   4.487
 3293TIP3    H1 9836   2.195   0.873   4.471
 3293TIP3    H2 9837   2.092   0.827   4.572
 3294TIP3   OH2 9838   1.495   3.952   0.458
 3294TIP3    H1 9839   1.493   3.874   0.515
 3294TIP3    H2 9840   1.516   4.024   0.518
 3295TIP3   OH2 9841   3.793   6.966   5.542
 3295TIP3    H1 9842   3.704   6.978   5.508
 3295TIP3    H2 9843   3.784   6.895   5.606
 3296TIP3   OH2 9844   0.388   1.380   6.403
 3296TIP3    H1 9845   0.464   1.369   6.461
 3296TIP3    H2 9846   0.416   1.344   6.319
 3297TIP3   OH2 9847   4.595   7.244   0.073
 3297TIP3    H1 9848   4.690   7.247   0.086
 3297TIP3    H2 9849   4.578   7.156   0.041
 3298TIP3   OH2 9850   4.431   6.098   3.014
 3298TIP3    H1 9851   4.351   6.067   3.056
 3298TIP3    H2 9852   4.455   6.177   3.063
 3299TIP3   OH2 9853   2.537   5.300   6.233
 3299TIP3    H1 9854   2.597   5.359   6.186
 3299TIP3    H2 9855   2.450   5.336   6.216
 3300TIP3   OH2 9856   3.330   5.572   3.822
 3300TIP3    H1 9857   3.385   5.519   3.880
 3300TIP3    H2 9858   3.389   5.637   3.785
 3301TIP3   OH2 9859   4.752   5.732   6.709
 3301TIP3    H1 9860   4.715   5.795   6.647
 3301TIP3    H2 9861   4.800   5.669   6.653
 3302TIP3   OH2 9862   7.624   3.212   4.820
 3302TIP3    H1 9863   7.544   3.264   4.817
 3302TIP3    H2 9864   7.675   3.243   4.745
 3303TIP3   OH2 9865   7.429   0.512   1.823
 3303TIP3    H1 9866   7.462   0.593   1.863
 3303TIP3    H2 9867   7.484   0.499   1.746
 3304TIP3   OH2 9868   5.829   7.377   0.416
 3304TIP3    H1 9869   5.750   7.330   0.392
 3304TIP3    H2 9870   5.842   7.440   0.345
 3305TIP3   OH2 9871   7.840   6.461   5.600
 3305TIP3    H1 9872   7.760   6.477   5.650
 3305TIP3    H2 9873   7.832   6.370   5.571
 3306TIP3   OH2 9874   4.478   0.331   6.386
 3306TIP3    H1 9875   4.551   0.379   6.346
 3306TIP3    H2 9876   4.521   0.273   6.449
 3307TIP3   OH2 9877   0.763   2.720   0.865
 3307TIP3    H1 9878   0.819   2.749   0.937
 3307TIP3    H2 9879   0.757   2.625   0.877
 3308TIP3   OH2 9880   5.489   3.130   1.526
 3308TIP3    H1 9881   5.552   3.186   1.571
 3308TIP3    H2 9882   5.403   3.162   1.553
 3309TIP3   OH2 9883   1.262   5.709   6.661
 3309TIP3    H1 9884   1.209   5.727   6.739
 3309TIP3    H2 9885   1.349   5.743   6.684
 3310TIP3   OH2 9886   4.897   6.245   3.493
 3310TIP3    H1 9887   4.853   6.320   3.534
 3310TIP3    H2 9888   4.988   6.273   3.482
 3311TIP3   OH2 9889   2.537   3.446   5.235
 3311TIP3    H1 9890   2.579   3.517   5.186
 3311TIP3    H2 9891   2.588   3.440   5.316
 3312TIP3   OH2 9892   8.157   5.135   4.638
 3312TIP3    H1 9893   8.240   5.145   4.592
 3312TIP3    H2 9894   8.106   5.075   4.584
 3313TIP3   OH2 9895   4.765   0.738   2.649
 3313TIP3    H1 9896   4.777   0.691   2.566
 3313TIP3    H2 9897   4.853   0.764   2.675
 3314TIP3   OH2 9898   7.071   0.854   5.040
 3314TIP3    H1 9899   7.058   0.837   5.134
 3314TIP3    H2 9900   7.039   0.944   5.027
 3315TIP3   OH2 9901   6.809   6.251   1.186
 3315TIP3    H1 9902   6.877   6.312   1.216
 3315TIP3    H2 9903   6.852   6.198   1.119
 3316TIP3   OH2 9904   6.123   6.045   1.632
 3316TIP3    H1 9905   6.090   6.021   1.545
 3316TIP3    H2 9906   6.212   6.011   1.634
 3317TIP3   OH2 9907   1.016   7.309   1.847
 3317TIP3    H1 9908   1.005   7.243   1.779
 3317TIP3    H2 9909   0.970   7.386   1.813
 3318TIP3   OH2 9910   3.663   5.559   5.288
 3318TIP3    H1 9911   3.711   5.507   5.225
 3318TIP3    H2 9912   3.720   5.564   5.365
 3319TIP3   OH2 9913   3.114   3.215   1.911
 3319TIP3    H1 9914   3.171   3.243   1.839
 3319TIP3    H2 9915   3.031   3.194   1.869
 3320TIP3   OH2 9916   2.565   0.831   1.321
 3320TIP3    H1 9917   2.616   0.839   1.240
 3320TIP3    H2 9918   2.474   0.838   1.293
 3321TIP3   OH2 9919   7.557   7.438   5.808
 3321TIP3    H1 9920   7.529   7.392   5.729
 3321TIP3    H2 9921   7.651   7.421   5.814
 3322TIP3   OH2 9922   3.278   0.173   5.755
 3322TIP3    H1 9923   3.344   0.242   5.760
 3322TIP3    H2 9924   3.201   0.212   5.796
 3323TIP3   OH2 9925   4.412   3.583   1.833
 3323TIP3    H1 9926   4.456   3.602   1.751
 3323TIP3    H2 9927   4.425   3.662   1.886
 3324TIP3   OH2 9928   0.596   3.907   1.230
 3324TIP3    H1 9929   0.520   3.861   1.265
 3324TIP3    H2 9930   0.620   3.859   1.151
 3325TIP3   OH2 9931   0.445   3.559   4.667
 3325TIP3    H1 9932   0.437   3.466   4.689
 3325TIP3    H2 9933   0.392   3.604   4.734
 3326TIP3   OH2 9934   6.130   2.045   6.378
 3326TIP3    H1 9935   6.070   2.020   6.448
 3326TIP3    H2 9936   6.073   2.067   6.304
 3327TIP3   OH2 9937   7.607   3.510   2.386
 3327TIP3    H1 9938   7.552   3.520   2.464
 3327TIP3    H2 9939   7.628   3.600   2.360
 3328TIP3   OH2 9940   8.124   5.768   4.580
 3328TIP3    H1 9941   8.183   5.785   4.507
 3328TIP3    H2 9942   8.181   5.738   4.651
 3329TIP3   OH2 9943   3.957   1.342   1.770
 3329TIP3    H1 9944   3.980   1.332   1.678
 3329TIP3    H2 9945   3.982   1.259   1.810
 3330TIP3   OH2 9946   2.781   0.842   4.827
 3330TIP3    H1 9947   2.753   0.791   4.904
 3330TIP3    H2 9948   2.828   0.778   4.773
 3331TIP3   OH2 9949   0.959   3.781   5.728
 3331TIP3    H1 9950   0.873   3.748   5.699
 3331TIP3    H2 9951   0.939   3.833   5.805
 3332TIP3   OH2 9952   0.411   1.543   4.509
 3332TIP3    H1 9953   0.418   1.577   4.420
 3332TIP3    H2 9954   0.496   1.501   4.525
 3333TIP3   OH2 9955   3.291   2.652   4.528
 3333TIP3    H1 9956   3.279   2.560   4.507
 3333TIP3    H2 9957   3.383   2.659   4.555
 3334TIP3   OH2 9958   3.720   3.289   2.101
 3334TIP3    H1 9959   3.755   3.252   2.020
 3334TIP3    H2 9960   3.694   3.213   2.153
 3335TIP3   OH2 9961   2.043   4.300   6.524
 3335TIP3    H1 9962   2.076   4.324   6.611
 3335TIP3    H2 9963   1.952   4.330   6.524
 3336TIP3   OH2 9964   7.404   2.224   3.515
 3336TIP3    H1 9965   7.394   2.169   3.438
 3336TIP3    H2 9966   7.448   2.168   3.579
 3337TIP3   OH2 9967   1.888   1.655   2.066
 3337TIP3    H1 9968   1.850   1.740   2.087
 3337TIP3    H2 9969   1.981   1.674   2.049
 3338TIP3   OH2 9970   5.193   5.857   1.237
 3338TIP3    H1 9971   5.106   5.853   1.199
 3338TIP3    H2 9972   5.180   5.839   1.330
 3339TIP3   OH2 9973   5.455   2.544   5.891
 3339TIP3    H1 9974   5.460   2.571   5.799
 3339TIP3    H2 9975   5.487   2.619   5.940
 3340TIP3   OH2 9976   3.720   4.550   5.844
 3340TIP3    H1 9977   3.804   4.526   5.885
 3340TIP3    H2 9978   3.732   4.527   5.752
 3341TIP3   OH2 9979   0.875   4.899   1.212
 3341TIP3    H1 9980   0.799   4.852   1.246
 3341TIP3    H2 9981   0.894   4.965   1.279
 3342TIP3   OH2 9982   1.166   3.127   2.269
 3342TIP3    H1 9983   1.087   3.165   2.309
 3342TIP3    H2 9984   1.212   3.085   2.342
 3343TIP3   OH2 9985   6.692   4.487   2.683
 3343TIP3    H1 9986   6.751   4.453   2.616
 3343TIP3    H2 9987   6.604   4.467   2.649
 3344TIP3   OH2 9988   4.166   4.385   3.155
 3344TIP3    H1 9989   4.227   4.336   3.100
 3344TIP3    H2 9990   4.080   4.372   3.114
 3345TIP3   OH2 9991   6.895   0.774   0.451
 3345TIP3    H1 9992   6.988   0.753   0.442
 3345TIP3    H2 9993   6.893   0.854   0.504
 3346TIP3   OH2 9994   1.799   5.241   5.131
 3346TIP3    H1 9995   1.802   5.184   5.053
 3346TIP3    H2 9996   1.759   5.186   5.199
 3347TIP3   OH2 9997   2.634   4.443   3.397
 3347TIP3    H1 9998   2.638   4.538   3.410
 3347TIP3    H2 9999   2.724   4.418   3.374
 3348TIP3   OH210000   3.402   3.885   6.091
 3348TIP3    H110001   3.391   3.880   5.996
 3348TIP3    H210002   3.342   3.955   6.119
 3349TIP3   OH210003   4.357   6.827   0.669
 3349TIP3    H110004   4.363   6.918   0.641
 3349TIP3    H210005   4.438   6.787   0.637
 3350TIP3   OH210006   0.494   4.400   1.964
 3350TIP3    H110007   0.425   4.365   2.020
 3350TIP3    H210008   0.568   4.340   1.977
 3351TIP3   OH210009   3.389   1.017   5.280
 3351TIP3    H110010   3.416   0.936   5.238
 3351TIP3    H210011   3.318   1.051   5.225
 3352TIP3   OH210012   0.294   2.446   3.655
 3352TIP3    H110013   0.328   2.520   3.705
 3352TIP3    H210014   0.329   2.369   3.699
 3353TIP3   OH210015   0.713   6.993   3.203
 3353TIP3    H110016   0.679   6.906   3.224
 3353TIP3    H210017   0.808   6.985   3.213
 3354TIP3   OH210018   3.900   7.201   1.794
 3354TIP3    H110019   3.969   7.180   1.731
 3354TIP3    H210020   3.837   7.130   1.785
 3355TIP3   OH210021   1.309   7.209   2.968
 3355TIP3    H110022   1.315   7.116   2.946
 3355TIP3    H210023   1.343   7.215   3.058
 3356TIP3   OH210024   6.536   2.191   4.166
 3356TIP3    H110025   6.617   2.238   4.148
 3356TIP3    H210026   6.472   2.259   4.187
 3357TIP3   OH210027   4.652   7.588   3.955
 3357TIP3    H110028   4.567   7.544   3.950
 3357TIP3    H210029   4.715   7.518   3.938
 3358TIP3   OH210030   7.934   2.661   0.504
 3358TIP3    H110031   7.989   2.608   0.562
 3358TIP3    H210032   7.995   2.696   0.438
 3359TIP3   OH210033   6.604   6.124   3.854
 3359TIP3    H110034   6.624   6.170   3.935
 3359TIP3    H210035   6.539   6.180   3.810
 3360TIP3   OH210036   4.123   5.266   6.065
 3360TIP3    H110037   4.080   5.352   6.068
 3360TIP3    H210038   4.053   5.204   6.083
 3361TIP3   OH210039   2.402   2.153   1.072
 3361TIP3    H110040   2.313   2.185   1.061
 3361TIP3    H210041   2.450   2.191   0.998
 3362TIP3   OH210042   2.683   2.025   2.580
 3362TIP3    H110043   2.663   2.038   2.487
 3362TIP3    H210044   2.760   2.080   2.595
 3363TIP3   OH210045   7.871   2.435   0.096
 3363TIP3    H110046   7.827   2.451   0.179
 3363TIP3    H210047   7.815   2.371   0.051
 3364TIP3   OH210048   0.208   2.457   5.181
 3364TIP3    H110049   0.222   2.450   5.087
 3364TIP3    H210050   0.129   2.509   5.191
 3365TIP3   OH210051   2.460   2.741   5.615
 3365TIP3    H110052   2.518   2.687   5.670
 3365TIP3    H210053   2.475   2.710   5.526
 3366TIP3   OH210054   3.400   6.420   0.346
 3366TIP3    H110055   3.394   6.412   0.441
 3366TIP3    H210056   3.310   6.408   0.316
 3367TIP3   OH210057   1.646   5.180   0.721
 3367TIP3    H110058   1.681   5.135   0.644
 3367TIP3    H210059   1.561   5.139   0.737
 3368TIP3   OH210060   3.186   7.583   6.306
 3368TIP3    H110061   3.142   7.663   6.334
 3368TIP3    H210062   3.249   7.564   6.375
 3369TIP3   OH210063   8.121   0.297   6.035
 3369TIP3    H110064   8.113   0.382   5.991
 3369TIP3    H210065   8.042   0.290   6.088
 3370TIP3   OH210066   0.679   7.221   4.719
 3370TIP3    H110067   0.751   7.257   4.667
 3370TIP3    H210068   0.650   7.145   4.669
 3371TIP3   OH210069   6.713   0.100   6.631
 3371TIP3    H110070   6.653   0.036   6.593
 3371TIP3    H210071   6.697   0.181   6.581
 3372TIP3   OH210072   1.925   0.974   1.105
 3372TIP3    H110073   1.996   1.015   1.155
 3372TIP3    H210074   1.886   0.912   1.165
 3373TIP3   OH210075   4.602   1.359   1.163
 3373TIP3    H110076   4.531   1.360   1.228
 3373TIP3    H210077   4.637   1.448   1.164
 3374TIP3   OH210078   1.892   7.551   3.239
 3374TIP3    H110079   1.923   7.488   3.304
 3374TIP3    H210080   1.801   7.568   3.262
 3375TIP3   OH210081   5.128   6.350   4.275
 3375TIP3    H110082   5.070   6.281   4.307
 3375TIP3    H210083   5.161   6.393   4.354
 3376TIP3   OH210084   6.382   0.713   3.363
 3376TIP3    H110085   6.437   0.761   3.302
 3376TIP3    H210086   6.330   0.655   3.308
 3377TIP3   OH210087   7.286   0.547   2.511
 3377TIP3    H110088   7.368   0.542   2.462
 3377TIP3    H210089   7.226   0.488   2.465
 3378TIP3   OH210090   5.069   3.500   4.997
 3378TIP3    H110091   5.160   3.523   4.978
 3378TIP3    H210092   5.018   3.545   4.929
 3379TIP3   OH210093   7.425   4.149   0.274
 3379TIP3    H110094   7.489   4.178   0.339
 3379TIP3    H210095   7.357   4.105   0.325
 3380TIP3   OH210096   7.573   1.201   0.078
 3380TIP3    H110097   7.663   1.190   0.045
 3380TIP3    H210098   7.528   1.249   0.009
 3381TIP3   OH210099   1.927   5.765   3.921
 3381TIP3    H110100   1.960   5.822   3.990
 3381TIP3    H210101   1.910   5.682   3.966
 3382TIP3   OH210102   1.536   0.104   6.420
 3382TIP3    H110103   1.502   0.015   6.416
 3382TIP3    H210104   1.487   0.145   6.491
 3383TIP3   OH210105   4.000   7.777   1.485
 3383TIP3    H110106   4.093   7.784   1.508
 3383TIP3    H210107   4.000   7.773   1.389
 3384TIP3   OH210108   5.515   5.838   0.861
 3384TIP3    H110109   5.611   5.848   0.858
 3384TIP3    H210110   5.492   5.856   0.952
 3385TIP3   OH210111   6.607   5.307   5.563
 3385TIP3    H110112   6.621   5.213   5.577
 3385TIP3    H210113   6.617   5.318   5.468
 3386TIP3   OH210114   3.085   3.092   5.418
 3386TIP3    H110115   3.037   3.130   5.344
 3386TIP3    H210116   3.160   3.149   5.430
 3387TIP3   OH210117   4.581   0.203   4.195
 3387TIP3    H110118   4.653   0.191   4.133
 3387TIP3    H210119   4.555   0.294   4.184
 3388TIP3   OH210120   2.787   2.257   1.944
 3388TIP3    H110121   2.858   2.321   1.934
 3388TIP3    H210122   2.734   2.267   1.865
 3389TIP3   OH210123   0.840   1.707   4.418
 3389TIP3    H110124   0.877   1.795   4.412
 3389TIP3    H210125   0.785   1.708   4.496
 3390TIP3   OH210126   3.543   2.749   2.172
 3390TIP3    H110127   3.635   2.771   2.155
 3390TIP3    H210128   3.532   2.759   2.266
 3391TIP3   OH210129   3.064   7.526   5.624
 3391TIP3    H110130   3.005   7.591   5.661
 3391TIP3    H210131   3.057   7.537   5.529
 3392TIP3   OH210132   5.493   0.436   2.308
 3392TIP3    H110133   5.454   0.384   2.238
 3392TIP3    H210134   5.521   0.517   2.265
 3393TIP3   OH210135   7.543   3.397   1.137
 3393TIP3    H110136   7.622   3.344   1.153
 3393TIP3    H210137   7.471   3.343   1.170
 3394TIP3   OH210138   6.655   2.618   3.598
 3394TIP3    H110139   6.599   2.690   3.571
 3394TIP3    H210140   6.682   2.576   3.517
 3395TIP3   OH210141   2.740   4.863   2.274
 3395TIP3    H110142   2.798   4.808   2.327
 3395TIP3    H210143   2.713   4.933   2.333
 3396TIP3   OH210144   7.162   4.906   1.536
 3396TIP3    H110145   7.234   4.846   1.513
 3396TIP3    H210146   7.084   4.851   1.532
 3397TIP3   OH210147   7.734   2.104   6.662
 3397TIP3    H110148   7.717   2.142   6.576
 3397TIP3    H210149   7.660   2.133   6.716
 3398TIP3   OH210150   3.575   3.115   5.407
 3398TIP3    H110151   3.628   3.194   5.396
 3398TIP3    H210152   3.591   3.088   5.498
 3399TIP3   OH210153   5.557   5.510   1.171
 3399TIP3    H110154   5.501   5.443   1.210
 3399TIP3    H210155   5.591   5.470   1.091
 3400TIP3   OH210156   3.146   2.737   0.700
 3400TIP3    H110157   3.123   2.812   0.754
 3400TIP3    H210158   3.133   2.768   0.610
 3401TIP3   OH210159   3.665   4.318   2.333
 3401TIP3    H110160   3.659   4.413   2.336
 3401TIP3    H210161   3.730   4.296   2.399
 3402TIP3   OH210162   6.700   2.504   4.893
 3402TIP3    H110163   6.773   2.554   4.858
 3402TIP3    H210164   6.694   2.427   4.836
 3403TIP3   OH210165   6.721   6.952   6.595
 3403TIP3    H110166   6.643   6.979   6.547
 3403TIP3    H210167   6.727   7.014   6.668
 3404TIP3   OH210168   0.682   1.666   4.693
 3404TIP3    H110169   0.650   1.685   4.781
 3404TIP3    H210170   0.703   1.572   4.694
 3405TIP3   OH210171   4.896   4.614   1.750
 3405TIP3    H110172   4.860   4.569   1.673
 3405TIP3    H210173   4.946   4.687   1.714
 3406TIP3   OH210174   3.356   0.625   5.964
 3406TIP3    H110175   3.317   0.566   5.900
 3406TIP3    H210176   3.450   0.611   5.955
 3407TIP3   OH210177   5.510   7.176   0.707
 3407TIP3    H110178   5.593   7.225   0.708
 3407TIP3    H210179   5.479   7.183   0.617
 3408TIP3   OH210180   3.374   2.907   5.487
 3408TIP3    H110181   3.449   2.960   5.458
 3408TIP3    H210182   3.414   2.831   5.529
 3409TIP3   OH210183   2.191   7.234   5.495
 3409TIP3    H110184   2.220   7.323   5.476
 3409TIP3    H210185   2.130   7.243   5.568
 3410TIP3   OH210186   5.744   7.618   1.279
 3410TIP3    H110187   5.676   7.590   1.217
 3410TIP3    H210188   5.748   7.713   1.267
 3411TIP3   OH210189   3.132   5.312   4.124
 3411TIP3    H110190   3.151   5.267   4.206
 3411TIP3    H210191   3.217   5.328   4.084
 3412TIP3   OH210192   7.042   0.065   1.777
 3412TIP3    H110193   7.123   0.117   1.772
 3412TIP3    H210194   7.031   0.030   1.689
 3413TIP3   OH210195   6.437   0.827   3.894
 3413TIP3    H110196   6.382   0.760   3.934
 3413TIP3    H210197   6.381   0.867   3.827
 3414TIP3   OH210198   4.632   6.974   6.600
 3414TIP3    H110199   4.657   7.065   6.585
 3414TIP3    H210200   4.661   6.928   6.521
 3415TIP3   OH210201   2.168   3.085   4.240
 3415TIP3    H110202   2.207   3.150   4.182
 3415TIP3    H210203   2.242   3.035   4.275
 3416TIP3   OH210204   1.644   4.156   1.808
 3416TIP3    H110205   1.629   4.241   1.850
 3416TIP3    H210206   1.595   4.162   1.726
 3417TIP3   OH210207   0.436   7.813   2.487
 3417TIP3    H110208   0.504   7.750   2.462
 3417TIP3    H210209   0.356   7.761   2.490
 3418TIP3   OH210210   3.286   1.498   4.545
 3418TIP3    H110211   3.298   1.544   4.628
 3418TIP3    H210212   3.249   1.413   4.569
 3419TIP3   OH210213   2.472   7.397   6.478
 3419TIP3    H110214   2.427   7.320   6.512
 3419TIP3    H210215   2.473   7.459   6.551
 3420TIP3   OH210216   2.979   2.318   3.199
 3420TIP3    H110217   3.029   2.279   3.127
 3420TIP3    H210218   2.907   2.363   3.156
 3421TIP3   OH210219   2.487   5.741   0.652
 3421TIP3    H110220   2.475   5.820   0.704
 3421TIP3    H210221   2.441   5.673   0.702
 3422TIP3   OH210222   3.929   2.109   2.255
 3422TIP3    H110223   3.908   2.145   2.341
 3422TIP3    H210224   3.865   2.149   2.196
 3423TIP3   OH210225   1.118   0.594   3.968
 3423TIP3    H110226   1.084   0.667   4.021
 3423TIP3    H210227   1.044   0.534   3.961
 3424TIP3   OH210228   5.157   3.049   6.008
 3424TIP3    H110229   5.213   3.097   5.948
 3424TIP3    H210230   5.116   2.981   5.955
 3425TIP3   OH210231   6.524   4.196   1.613
 3425TIP3    H110232   6.479   4.260   1.667
 3425TIP3    H210233   6.493   4.213   1.524
 3426TIP3   OH210234   3.357   3.912   4.748
 3426TIP3    H110235   3.400   3.905   4.663
 3426TIP3    H210236   3.428   3.920   4.811
 3427TIP3   OH210237   1.557   1.867   3.874
 3427TIP3    H110238   1.592   1.880   3.962
 3427TIP3    H210239   1.534   1.956   3.845
 3428TIP3   OH210240   3.286   3.849   3.603
 3428TIP3    H110241   3.375   3.858   3.568
 3428TIP3    H210242   3.284   3.908   3.678
 3429TIP3   OH210243   5.150   0.879   4.288
 3429TIP3    H110244   5.108   0.867   4.374
 3429TIP3    H210245   5.242   0.861   4.304
 3430TIP3   OH210246   2.579   1.401   0.787
 3430TIP3    H110247   2.536   1.487   0.787
 3430TIP3    H210248   2.638   1.404   0.711
 3431TIP3   OH210249   6.824   3.406   4.305
 3431TIP3    H110250   6.889   3.338   4.322
 3431TIP3    H210251   6.788   3.426   4.391
 3432TIP3   OH210252   0.577   6.589   0.254
 3432TIP3    H110253   0.596   6.587   0.160
 3432TIP3    H210254   0.515   6.662   0.264
 3433TIP3   OH210255   3.673   4.799   5.097
 3433TIP3    H110256   3.593   4.772   5.052
 3433TIP3    H210257   3.684   4.734   5.167
 3434TIP3   OH210258   1.043   1.196   6.609
 3434TIP3    H110259   1.130   1.189   6.572
 3434TIP3    H210260   1.048   1.148   6.692
 3435TIP3   OH210261   2.251   5.035   1.892
 3435TIP3    H110262   2.209   4.986   1.820
 3435TIP3    H210263   2.339   4.999   1.897
 3436TIP3   OH210264   2.734   1.070   0.796
 3436TIP3    H110265   2.811   1.109   0.839
 3436TIP3    H210266   2.666   1.073   0.863
 3437TIP3   OH210267   3.794   4.922   4.591
 3437TIP3    H110268   3.744   5.002   4.579
 3437TIP3    H210269   3.880   4.941   4.552
 3438TIP3   OH210270   1.077   1.219   2.345
 3438TIP3    H110271   1.132   1.141   2.353
 3438TIP3    H210272   1.069   1.234   2.251
 3439TIP3   OH210273   5.427   1.732   6.725
 3439TIP3    H110274   5.514   1.768   6.709
 3439TIP3    H210275   5.434   1.690   6.810
 3440TIP3   OH210276   1.030   3.362   6.708
 3440TIP3    H110277   1.020   3.372   6.613
 3440TIP3    H210278   0.951   3.402   6.744
 3441TIP3   OH210279   1.233   1.801   1.849
 3441TIP3    H110280   1.151   1.779   1.893
 3441TIP3    H210281   1.282   1.718   1.849
 3442TIP3   OH210282   1.875   6.607   6.164
 3442TIP3    H110283   1.936   6.629   6.094
 3442TIP3    H210284   1.915   6.645   6.243
 3443TIP3   OH210285   6.359   1.095   0.555
 3443TIP3    H110286   6.327   1.174   0.599
 3443TIP3    H210287   6.285   1.035   0.557
 3444TIP3   OH210288   2.106   3.150   3.889
 3444TIP3    H110289   2.065   3.234   3.866
 3444TIP3    H210290   2.033   3.088   3.892
 3445TIP3   OH210291   1.790   5.034   4.934
 3445TIP3    H110292   1.868   5.004   4.888
 3445TIP3    H210293   1.769   4.962   4.994
 3446TIP3   OH210294   2.634   6.232   4.721
 3446TIP3    H110295   2.630   6.271   4.808
 3446TIP3    H210296   2.569   6.279   4.669
 3447TIP3   OH210297   3.938   4.018   3.146
 3447TIP3    H110298   3.867   3.966   3.185
 3447TIP3    H210299   4.011   4.009   3.208
 3448TIP3   OH210300   1.587   6.115   0.025
 3448TIP3    H110301   1.617   6.201  -0.004
 3448TIP3    H210302   1.588   6.120   0.121
 3449TIP3   OH210303   0.200   5.862   4.055
 3449TIP3    H110304   0.138   5.934   4.065
 3449TIP3    H210305   0.201   5.845   3.960
 3450TIP3   OH210306   3.931   1.594   3.096
 3450TIP3    H110307   3.979   1.670   3.063
 3450TIP3    H210308   3.990   1.520   3.080
 3451TIP3   OH210309   8.109   2.882   5.184
 3451TIP3    H110310   8.050   2.933   5.128
 3451TIP3    H210311   8.077   2.793   5.179
 3452TIP3   OH210312   5.112   5.888   1.871
 3452TIP3    H110313   5.032   5.849   1.836
 3452TIP3    H210314   5.166   5.905   1.793
 3453TIP3   OH210315   7.784   0.448   3.807
 3453TIP3    H110316   7.726   0.412   3.874
 3453TIP3    H210317   7.771   0.542   3.811
 3454TIP3   OH210318   1.428   3.182   3.689
 3454TIP3    H110319   1.401   3.163   3.599
 3454TIP3    H210320   1.374   3.258   3.714
 3455TIP3   OH210321   2.335   2.989   2.204
 3455TIP3    H110322   2.415   2.939   2.225
 3455TIP3    H210323   2.361   3.048   2.133
 3456TIP3   OH210324   4.702   0.097   1.424
 3456TIP3    H110325   4.661   0.049   1.497
 3456TIP3    H210326   4.628   0.121   1.368
 3457TIP3   OH210327   2.506   5.624   6.214
 3457TIP3    H110328   2.412   5.636   6.202
 3457TIP3    H210329   2.514   5.574   6.296
 3458TIP3   OH210330   0.754   2.586   1.112
 3458TIP3    H110331   0.828   2.645   1.124
 3458TIP3    H210332   0.794   2.500   1.097
 3459TIP3   OH210333   5.715   0.303   1.445
 3459TIP3    H110334   5.790   0.363   1.436
 3459TIP3    H210335   5.704   0.294   1.539
 3460TIP3   OH210336   7.582   4.700   6.475
 3460TIP3    H110337   7.672   4.692   6.507
 3460TIP3    H210338   7.549   4.610   6.473
 3461TIP3   OH210339   4.903   7.561   2.275
 3461TIP3    H110340   4.863   7.637   2.232
 3461TIP3    H210341   4.865   7.486   2.230
 3462TIP3   OH210342   1.112   7.348   3.325
 3462TIP3    H110343   1.074   7.434   3.338
 3462TIP3    H210344   1.073   7.316   3.243
 3463TIP3   OH210345   4.940   4.747   1.147
 3463TIP3    H110346   4.867   4.762   1.087
 3463TIP3    H210347   4.953   4.831   1.191
 3464TIP3   OH210348   2.251   2.565   1.182
 3464TIP3    H110349   2.254   2.481   1.227
 3464TIP3    H210350   2.337   2.604   1.198
 3465TIP3   OH210351   4.493   1.107   1.421
 3465TIP3    H110352   4.510   1.064   1.505
 3465TIP3    H210353   4.565   1.170   1.412
 3466TIP3   OH210354   0.922   4.565   5.763
 3466TIP3    H110355   0.903   4.592   5.674
 3466TIP3    H210356   1.014   4.539   5.761
 3467TIP3   OH210357   8.162   1.495   5.558
 3467TIP3    H110358   8.078   1.483   5.514
 3467TIP3    H210359   8.148   1.572   5.614
 3468TIP3   OH210360   7.249   5.632   3.361
 3468TIP3    H110361   7.162   5.645   3.322
 3468TIP3    H210362   7.300   5.593   3.291
 3469TIP3   OH210363   7.134   3.141   6.609
 3469TIP3    H110364   7.101   3.227   6.584
 3469TIP3    H210365   7.061   3.081   6.593
 3470TIP3   OH210366   4.095   4.982   4.489
 3470TIP3    H110367   4.078   5.018   4.402
 3470TIP3    H210368   4.177   4.933   4.479
 3471TIP3   OH210369   2.761   7.241   0.968
 3471TIP3    H110370   2.698   7.242   1.040
 3471TIP3    H210371   2.830   7.183   0.998
 3472TIP3   OH210372   2.975   1.307   4.426
 3472TIP3    H110373   2.893   1.355   4.417
 3472TIP3    H210374   3.003   1.289   4.336
 3473TIP3   OH210375   5.521   1.320   1.939
 3473TIP3    H110376   5.472   1.322   2.021
 3473TIP3    H210377   5.576   1.399   1.942
 3474TIP3   OH210378   6.099   3.982   6.662
 3474TIP3    H110379   6.147   3.947   6.587
 3474TIP3    H210380   6.164   3.989   6.731
 3475TIP3   OH210381   4.372   6.224   2.155
 3475TIP3    H110382   4.300   6.261   2.105
 3475TIP3    H210383   4.340   6.139   2.184
 3476TIP3   OH210384   5.951   2.909   0.272
 3476TIP3    H110385   5.976   2.933   0.362
 3476TIP3    H210386   6.029   2.926   0.220
 3477TIP3   OH210387   5.959   7.546   2.980
 3477TIP3    H110388   5.904   7.621   3.003
 3477TIP3    H210389   6.043   7.563   3.024
 3478TIP3   OH210390   5.823   2.523   4.698
 3478TIP3    H110391   5.756   2.476   4.648
 3478TIP3    H210392   5.784   2.538   4.784
 3479TIP3   OH210393   6.568   1.677   3.472
 3479TIP3    H110394   6.543   1.737   3.542
 3479TIP3    H210395   6.530   1.593   3.496
 3480TIP3   OH210396   1.957   2.462   5.720
 3480TIP3    H110397   2.046   2.442   5.747
 3480TIP3    H210398   1.915   2.498   5.798
 3481TIP3   OH210399   7.731   0.588   4.782
 3481TIP3    H110400   7.708   0.656   4.845
 3481TIP3    H210401   7.776   0.635   4.712
 3482TIP3   OH210402   2.505   6.022   3.902
 3482TIP3    H110403   2.554   6.043   3.823
 3482TIP3    H210404   2.461   5.939   3.881
 3483TIP3   OH210405   4.045   1.879   0.164
 3483TIP3    H110406   4.044   1.974   0.155
 3483TIP3    H210407   4.027   1.864   0.257
 3484TIP3   OH210408   3.519   5.128   4.878
 3484TIP3    H110409   3.526   5.209   4.827
 3484TIP3    H210410   3.435   5.135   4.923
 3485TIP3   OH210411   3.697   4.561   3.480
 3485TIP3    H110412   3.680   4.654   3.493
 3485TIP3    H210413   3.658   4.519   3.557
 3486TIP3   OH210414   3.704   3.176   1.369
 3486TIP3    H110415   3.695   3.252   1.311
 3486TIP3    H210416   3.796   3.151   1.361
 3487TIP3   OH210417   7.051   0.748   6.410
 3487TIP3    H110418   7.116   0.683   6.384
 3487TIP3    H210419   6.967   0.705   6.398
 3488TIP3   OH210420   5.015   7.828   3.793
 3488TIP3    H110421   5.061   7.746   3.811
 3488TIP3    H210422   4.945   7.832   3.858
 3489TIP3   OH210423   7.316   2.512   5.423
 3489TIP3    H110424   7.282   2.445   5.365
 3489TIP3    H210425   7.274   2.495   5.508
 3490TIP3   OH210426   2.381   0.770   2.154
 3490TIP3    H110427   2.383   0.849   2.208
 3490TIP3    H210428   2.353   0.701   2.214
 3491TIP3   OH210429   1.820   1.953   3.281
 3491TIP3    H110430   1.776   1.941   3.365
 3491TIP3    H210431   1.752   1.940   3.215
 3492TIP3   OH210432   4.083   2.617   0.190
 3492TIP3    H110433   4.063   2.621   0.284
 3492TIP3    H210434   4.022   2.678   0.149
 3493TIP3   OH210435   6.556   5.241   1.864
 3493TIP3    H110436   6.517   5.166   1.819
 3493TIP3    H210437   6.608   5.285   1.797
 3494TIP3   OH210438   7.490   6.359   4.109
 3494TIP3    H110439   7.416   6.420   4.111
 3494TIP3    H210440   7.450   6.273   4.122
 3495TIP3   OH210441   2.295   4.252   5.885
 3495TIP3    H110442   2.303   4.185   5.817
 3495TIP3    H210443   2.342   4.215   5.961
 3496TIP3   OH210444   8.293   2.056   4.274
 3496TIP3    H110445   8.357   2.055   4.345
 3496TIP3    H210446   8.223   1.999   4.304
 3497TIP3   OH210447   0.511   5.412   4.359
 3497TIP3    H110448   0.492   5.338   4.301
 3497TIP3    H210449   0.607   5.416   4.362
 3498TIP3   OH210450   0.668   7.448   6.549
 3498TIP3    H110451   0.721   7.506   6.603
 3498TIP3    H210452   0.728   7.380   6.520
 3499TIP3   OH210453   7.951   4.319   1.895
 3499TIP3    H110454   7.860   4.294   1.913
 3499TIP3    H210455   7.997   4.306   1.977
 3500TIP3   OH210456   2.337   4.493   3.296
 3500TIP3    H110457   2.350   4.447   3.213
 3500TIP3    H210458   2.413   4.550   3.304
 3501TIP3   OH210459   7.102   0.840   3.847
 3501TIP3    H110460   7.044   0.849   3.923
 3501TIP3    H210461   7.043   0.839   3.772
 3502TIP3   OH210462   7.880   6.933   2.701
 3502TIP3    H110463   7.965   6.950   2.661
 3502TIP3    H210464   7.900   6.883   2.780
 3503TIP3   OH210465   0.598   4.955   2.579
 3503TIP3    H110466   0.524   5.013   2.562
 3503TIP3    H210467   0.636   4.938   2.492
 3504TIP3   OH210468   1.740   6.976   5.117
 3504TIP3    H110469   1.672   6.909   5.124
 3504TIP3    H210470   1.778   6.981   5.205
 3505TIP3   OH210471   1.224   1.912   2.916
 3505TIP3    H110472   1.246   1.914   3.009
 3505TIP3    H210473   1.167   1.988   2.903
 3506TIP3   OH210474   1.986   5.133   1.506
 3506TIP3    H110475   2.073   5.172   1.514
 3506TIP3    H210476   1.959   5.116   1.596
 3507TIP3   OH210477   5.593   0.882   2.827
 3507TIP3    H110478   5.641   0.936   2.765
 3507TIP3    H210479   5.621   0.913   2.913
 3508TIP3   OH210480   5.796   0.790   5.575
 3508TIP3    H110481   5.787   0.884   5.592
 3508TIP3    H210482   5.849   0.758   5.648
 3509TIP3   OH210483   4.613   2.518   6.563
 3509TIP3    H110484   4.590   2.603   6.600
 3509TIP3    H210485   4.634   2.536   6.472
 3510TIP3   OH210486   6.082   6.013   5.364
 3510TIP3    H110487   6.089   6.082   5.430
 3510TIP3    H210488   6.003   5.964   5.388
 3511TIP3   OH210489   1.400   1.600   1.273
 3511TIP3    H110490   1.480   1.628   1.229
 3511TIP3    H210491   1.431   1.561   1.355
 3512TIP3   OH210492   0.419   6.124   5.876
 3512TIP3    H110493   0.431   6.218   5.882
 3512TIP3    H210494   0.442   6.091   5.963
 3513TIP3   OH210495   5.270   3.043   6.278
 3513TIP3    H110496   5.218   3.073   6.203
 3513TIP3    H210497   5.352   3.091   6.270
 3514TIP3   OH210498   5.324   1.587   4.612
 3514TIP3    H110499   5.280   1.545   4.538
 3514TIP3    H210500   5.291   1.541   4.689
 3515TIP3   OH210501   6.735   2.197   6.447
 3515TIP3    H110502   6.765   2.214   6.358
 3515TIP3    H210503   6.753   2.104   6.461
 3516TIP3   OH210504   2.044   5.146   5.114
 3516TIP3    H110505   1.959   5.189   5.102
 3516TIP3    H210506   2.104   5.195   5.058
 3517TIP3   OH210507   7.637   1.879   3.585
 3517TIP3    H110508   7.733   1.876   3.583
 3517TIP3    H210509   7.617   1.934   3.660
 3518TIP3   OH210510   6.851   4.229   6.591
 3518TIP3    H110511   6.836   4.242   6.685
 3518TIP3    H210512   6.791   4.291   6.548
 3519TIP3   OH210513   6.796   4.725   5.143
 3519TIP3    H110514   6.859   4.797   5.138
 3519TIP3    H210515   6.847   4.648   5.115
 3520TIP3   OH210516   1.687   6.179   3.764
 3520TIP3    H110517   1.703   6.269   3.736
 3520TIP3    H210518   1.596   6.161   3.739
 3521TIP3   OH210519   6.751   0.780   4.818
 3521TIP3    H110520   6.817   0.845   4.798
 3521TIP3    H210521   6.668   0.822   4.796
 3522TIP3   OH210522   7.076   3.783   0.841
 3522TIP3    H110523   7.132   3.861   0.839
 3522TIP3    H210524   7.105   3.730   0.767
 3523TIP3   OH210525   6.645   0.202   1.288
 3523TIP3    H110526   6.649   0.230   1.379
 3523TIP3    H210527   6.708   0.258   1.242
 3524TIP3   OH210528   0.012   7.562   4.723
 3524TIP3    H110529  -0.069   7.529   4.763
 3524TIP3    H210530   0.079   7.500   4.749
 3525TIP3   OH210531   0.988   1.321   0.658
 3525TIP3    H110532   0.932   1.395   0.633
 3525TIP3    H210533   0.939   1.278   0.729
 3526TIP3   OH210534   6.488   5.140   5.802
 3526TIP3    H110535   6.561   5.088   5.770
 3526TIP3    H210536   6.517   5.173   5.887
 3527TIP3   OH210537   2.164   2.028   6.495
 3527TIP3    H110538   2.074   2.056   6.475
 3527TIP3    H210539   2.159   1.932   6.493
 3528TIP3   OH210540   1.458   5.936   0.470
 3528TIP3    H110541   1.390   5.963   0.408
 3528TIP3    H210542   1.421   5.956   0.556
 3529TIP3   OH210543   4.409   6.504   1.697
 3529TIP3    H110544   4.440   6.544   1.778
 3529TIP3    H210545   4.354   6.431   1.725
 3530TIP3   OH210546   3.304   1.600   0.356
 3530TIP3    H110547   3.353   1.630   0.433
 3530TIP3    H210548   3.328   1.508   0.346
 3531TIP3   OH210549   1.847   5.514   2.119
 3531TIP3    H110550   1.883   5.526   2.031
 3531TIP3    H210551   1.923   5.490   2.172
 3532TIP3   OH210552   6.439   6.563   1.403
 3532TIP3    H110553   6.432   6.542   1.310
 3532TIP3    H210554   6.533   6.571   1.419
 3533TIP3   OH210555   3.320   1.902   5.515
 3533TIP3    H110556   3.336   1.886   5.422
 3533TIP3    H210557   3.228   1.877   5.528
 3534TIP3   OH210558   4.092   0.644   6.089
 3534TIP3    H110559   4.176   0.603   6.071
 3534TIP3    H210560   4.028   0.588   6.044
 3535TIP3   OH210561   5.829   2.120   1.153
 3535TIP3    H110562   5.762   2.182   1.182
 3535TIP3    H210563   5.856   2.151   1.067
 3536TIP3   OH210564   4.714   4.223   3.099
 3536TIP3    H110565   4.776   4.221   3.172
 3536TIP3    H210566   4.765   4.256   3.025
 3537TIP3   OH210567   6.271   2.947   0.654
 3537TIP3    H110568   6.306   2.866   0.616
 3537TIP3    H210569   6.248   2.923   0.744
 3538TIP3   OH210570   6.135   0.161   3.855
 3538TIP3    H110571   6.207   0.200   3.805
 3538TIP3    H210572   6.165   0.164   3.946
 3539TIP3   OH210573   4.642   2.978   0.567
 3539TIP3    H110574   4.551   2.949   0.570
 3539TIP3    H210575   4.638   3.066   0.530
 3540TIP3   OH210576   5.966   1.360   3.687
 3540TIP3    H110577   6.051   1.401   3.672
 3540TIP3    H210578   5.984   1.289   3.749
 3541TIP3   OH210579   1.523   4.149   0.641
 3541TIP3    H110580   1.466   4.209   0.690
 3541TIP3    H210581   1.549   4.083   0.705
 3542TIP3   OH210582   7.255   5.446   1.337
 3542TIP3    H110583   7.166   5.434   1.305
 3542TIP3    H210584   7.249   5.432   1.432
 3543TIP3   OH210585   8.272   2.404   5.942
 3543TIP3    H110586   8.230   2.443   6.020
 3543TIP3    H210587   8.251   2.311   5.948
 3544TIP3   OH210588   0.225   7.629   2.480
 3544TIP3    H110589   0.136   7.599   2.460
 3544TIP3    H210590   0.278   7.550   2.478
 3545TIP3   OH210591   0.373   2.760   1.492
 3545TIP3    H110592   0.415   2.711   1.563
 3545TIP3    H210593   0.340   2.693   1.432
 3546TIP3   OH210594   5.955   1.980   4.403
 3546TIP3    H110595   5.966   1.989   4.498
 3546TIP3    H210596   6.044   1.986   4.368
 3547TIP3   OH210597   7.040   7.459   2.227
 3547TIP3    H110598   6.972   7.508   2.273
 3547TIP3    H210599   6.994   7.417   2.154
 3548TIP3   OH210600   4.221   5.334   4.359
 3548TIP3    H110601   4.297   5.316   4.414
 3548TIP3    H210602   4.257   5.372   4.279
 3549TIP3   OH210603   6.440   2.245   1.780
 3549TIP3    H110604   6.523   2.224   1.738
 3549TIP3    H210605   6.463   2.272   1.868
 3550TIP3   OH210606   3.956   5.575   3.031
 3550TIP3    H110607   3.886   5.613   2.977
 3550TIP3    H210608   4.037   5.605   2.990
 3551TIP3   OH210609   2.511   7.148   2.971
 3551TIP3    H110610   2.578   7.170   2.907
 3551TIP3    H210611   2.456   7.083   2.927
 3552TIP3   OH210612   6.595   7.507   1.095
 3552TIP3    H110613   6.593   7.581   1.154
 3552TIP3    H210614   6.673   7.519   1.042
 3553TIP3   OH210615   8.305   4.517   3.083
 3553TIP3    H110616   8.226   4.491   3.130
 3553TIP3    H210617   8.292   4.484   2.995
 3554TIP3   OH210618   5.004   2.627   5.740
 3554TIP3    H110619   5.077   2.608   5.799
 3554TIP3    H210620   4.965   2.707   5.776
 3555TIP3   OH210621   0.519   3.589   1.357
 3555TIP3    H110622   0.565   3.554   1.281
 3555TIP3    H210623   0.461   3.656   1.321
 3556TIP3   OH210624   5.503   6.207   2.620
 3556TIP3    H110625   5.452   6.134   2.585
 3556TIP3    H210626   5.529   6.178   2.708
 3557TIP3   OH210627   0.033   3.663   0.719
 3557TIP3    H110628  -0.036   3.693   0.779
 3557TIP3    H210629   0.092   3.612   0.774
 3558TIP3   OH210630   2.257   4.140   0.568
 3558TIP3    H110631   2.235   4.094   0.487
 3558TIP3    H210632   2.332   4.195   0.546
 3559TIP3   OH210633   7.743   5.755   6.722
 3559TIP3    H110634   7.673   5.717   6.775
 3559TIP3    H210635   7.823   5.720   6.759
 3560TIP3   OH210636   4.733   0.981   0.975
 3560TIP3    H110637   4.695   0.898   1.004
 3560TIP3    H210638   4.744   1.032   1.055
 3561TIP3   OH210639   0.371   6.622   6.326
 3561TIP3    H110640   0.375   6.696   6.266
 3561TIP3    H210641   0.289   6.634   6.374
 3562TIP3   OH210642   6.560   5.247   2.945
 3562TIP3    H110643   6.579   5.249   3.038
 3562TIP3    H210644   6.574   5.155   2.920
 3563TIP3   OH210645   8.100   7.664   2.148
 3563TIP3    H110646   8.100   7.704   2.235
 3563TIP3    H210647   8.008   7.646   2.130
 3564TIP3   OH210648   2.990   3.405   4.861
 3564TIP3    H110649   2.946   3.450   4.932
 3564TIP3    H210650   3.082   3.432   4.868
 3565TIP3   OH210651   3.059   1.865   2.929
 3565TIP3    H110652   3.029   1.782   2.893
 3565TIP3    H210653   3.024   1.867   3.019
 3566TIP3   OH210654   5.494   7.651   6.504
 3566TIP3    H110655   5.558   7.717   6.531
 3566TIP3    H210656   5.454   7.622   6.586
 3567TIP3   OH210657   2.464   6.899   6.543
 3567TIP3    H110658   2.453   6.912   6.449
 3567TIP3    H210659   2.551   6.859   6.551
 3568TIP3   OH210660   0.995   7.361   5.159
 3568TIP3    H110661   0.927   7.337   5.097
 3568TIP3    H210662   0.978   7.307   5.236
 3569TIP3   OH210663   2.371   6.305   2.107
 3569TIP3    H110664   2.276   6.314   2.117
 3569TIP3    H210665   2.403   6.289   2.196
 3570TIP3   OH210666   3.259   1.371   3.758
 3570TIP3    H110667   3.249   1.394   3.666
 3570TIP3    H210668   3.350   1.391   3.778
 3571TIP3   OH210669   2.213   6.651   6.714
 3571TIP3    H110670   2.293   6.664   6.766
 3571TIP3    H210671   2.239   6.590   6.646
 3572TIP3   OH210672   1.601   2.555   2.016
 3572TIP3    H110673   1.639   2.641   2.030
 3572TIP3    H210674   1.644   2.498   2.080
 3573TIP3   OH210675   1.625   5.859   1.164
 3573TIP3    H110676   1.615   5.833   1.256
 3573TIP3    H210677   1.663   5.781   1.122
 3574TIP3   OH210678   7.931   1.684   2.159
 3574TIP3    H110679   7.965   1.771   2.137
 3574TIP3    H210680   7.867   1.700   2.228
 3575TIP3   OH210681   5.941   6.069   3.401
 3575TIP3    H110682   5.919   5.989   3.449
 3575TIP3    H210683   5.864   6.124   3.411
 3576TIP3   OH210684   4.675   1.891   4.612
 3576TIP3    H110685   4.762   1.909   4.649
 3576TIP3    H210686   4.637   1.828   4.673
 3577TIP3   OH210687   2.807   3.028   3.057
 3577TIP3    H110688   2.872   2.959   3.069
 3577TIP3    H210689   2.848   3.090   2.997
 3578TIP3   OH210690   2.919   4.182   0.857
 3578TIP3    H110691   3.011   4.166   0.876
 3578TIP3    H210692   2.885   4.097   0.828
 3579TIP3   OH210693   2.740   3.793   2.148
 3579TIP3    H110694   2.674   3.862   2.138
 3579TIP3    H210695   2.791   3.797   2.067
 3580TIP3   OH210696   1.732   0.276   0.379
 3580TIP3    H110697   1.728   0.372   0.382
 3580TIP3    H210698   1.781   0.256   0.299
 3581TIP3   OH210699   0.899   1.879   0.702
 3581TIP3    H110700   0.921   1.856   0.792
 3581TIP3    H210701   0.923   1.972   0.694
 3582TIP3   OH210702   6.842   2.417   5.800
 3582TIP3    H110703   6.780   2.368   5.746
 3582TIP3    H210704   6.885   2.477   5.739
 3583TIP3   OH210705   6.470   7.708   0.727
 3583TIP3    H110706   6.383   7.730   0.696
 3583TIP3    H210707   6.457   7.674   0.816
 3584TIP3   OH210708   0.304   7.397   4.050
 3584TIP3    H110709   0.366   7.335   4.012
 3584TIP3    H210710   0.298   7.372   4.142
 3585TIP3   OH210711   2.758   1.324   4.704
 3585TIP3    H110712   2.822   1.389   4.734
 3585TIP3    H210713   2.729   1.356   4.619
 3586TIP3   OH210714   1.532   2.318   5.912
 3586TIP3    H110715   1.572   2.255   5.973
 3586TIP3    H210716   1.543   2.403   5.955
 3587TIP3   OH210717   6.112   4.527   3.667
 3587TIP3    H110718   6.169   4.558   3.738
 3587TIP3    H210719   6.032   4.499   3.711
 3588TIP3   OH210720   8.040   1.132   3.872
 3588TIP3    H110721   8.088   1.105   3.950
 3588TIP3    H210722   8.040   1.055   3.816
 3589TIP3   OH210723   0.070   2.808   0.952
 3589TIP3    H110724   0.139   2.874   0.952
 3589TIP3    H210725   0.085   2.757   1.032
 3590TIP3   OH210726   0.158   2.170   4.674
 3590TIP3    H110727   0.102   2.239   4.638
 3590TIP3    H210728   0.141   2.094   4.617
 3591TIP3   OH210729   7.341   7.181   6.385
 3591TIP3    H110730   7.336   7.116   6.454
 3591TIP3    H210731   7.434   7.205   6.382
 3592TIP3   OH210732   1.304   1.110   6.545
 3592TIP3    H110733   1.324   1.181   6.484
 3592TIP3    H210734   1.390   1.080   6.576
 3593TIP3   OH210735   2.084   4.912   5.254
 3593TIP3    H110736   2.015   4.857   5.217
 3593TIP3    H210737   2.072   4.997   5.212
 3594TIP3   OH210738   5.357   6.595   1.491
 3594TIP3    H110739   5.339   6.502   1.502
 3594TIP3    H210740   5.333   6.615   1.401
 3595TIP3   OH210741   4.078   6.424   5.300
 3595TIP3    H110742   4.024   6.503   5.290
 3595TIP3    H210743   4.155   6.454   5.349
 3596TIP3   OH210744   7.995   4.561   4.714
 3596TIP3    H110745   7.906   4.588   4.737
 3596TIP3    H210746   7.986   4.469   4.690
 3597TIP3   OH210747   7.435   2.173   2.900
 3597TIP3    H110748   7.342   2.152   2.902
 3597TIP3    H210749   7.465   2.161   2.990
 3598TIP3   OH210750   2.769   0.980   1.935
 3598TIP3    H110751   2.778   1.070   1.903
 3598TIP3    H210752   2.743   0.990   2.027
 3599TIP3   OH210753   6.743   0.939   5.191
 3599TIP3    H110754   6.735   0.912   5.282
 3599TIP3    H210755   6.661   0.912   5.151
 3600TIP3   OH210756   3.475   3.143   1.230
 3600TIP3    H110757   3.505   3.086   1.159
 3600TIP3    H210758   3.550   3.149   1.289
 3601TIP3   OH210759   8.292   3.079   4.376
 3601TIP3    H110760   8.292   2.988   4.405
 3601TIP3    H210761   8.215   3.085   4.319
 3602TIP3   OH210762   1.297   3.091   5.300
 3602TIP3    H110763   1.375   3.130   5.339
 3602TIP3    H210764   1.253   3.164   5.256
 3603TIP3   OH210765   6.499   1.542   4.632
 3603TIP3    H110766   6.562   1.470   4.622
 3603TIP3    H210767   6.476   1.566   4.542
 3604TIP3   OH210768   5.849   1.541   5.945
 3604TIP3    H110769   5.855   1.621   5.998
 3604TIP3    H210770   5.764   1.503   5.968
 3605TIP3   OH210771   7.936   0.036   6.161
 3605TIP3    H110772   7.913   0.120   6.201
 3605TIP3    H210773   8.006   0.001   6.216
 3606TIP3   OH210774   0.251   1.908   2.306
 3606TIP3    H110775   0.296   1.882   2.226
 3606TIP3    H210776   0.181   1.844   2.316
 3607TIP3   OH210777   5.596   3.730   0.667
 3607TIP3    H110778   5.547   3.757   0.744
 3607TIP3    H210779   5.655   3.662   0.698
 3608TIP3   OH210780   8.085   6.009   4.121
 3608TIP3    H110781   8.073   5.966   4.037
 3608TIP3    H210782   8.172   6.048   4.116
 3609TIP3   OH210783   4.765   7.660   2.780
 3609TIP3    H110784   4.735   7.750   2.796
 3609TIP3    H210785   4.833   7.669   2.713
 3610TIP3   OH210786   1.743   4.693   1.403
 3610TIP3    H110787   1.729   4.741   1.321
 3610TIP3    H210788   1.679   4.731   1.463
 3611TIP3   OH210789   0.985   6.206   5.180
 3611TIP3    H110790   1.048   6.162   5.124
 3611TIP3    H210791   1.037   6.240   5.253
 3612TIP3   OH210792   7.432   2.204   1.898
 3612TIP3    H110793   7.429   2.198   1.994
 3612TIP3    H210794   7.347   2.169   1.869
 3613TIP3   OH210795   7.340   1.598   6.310
 3613TIP3    H110796   7.420   1.650   6.321
 3613TIP3    H210797   7.353   1.523   6.367
 3614TIP3   OH210798   8.035   0.979   5.984
 3614TIP3    H110799   7.990   1.032   6.050
 3614TIP3    H210800   8.020   1.025   5.902
 3615TIP3   OH210801   6.298   5.759   4.530
 3615TIP3    H110802   6.381   5.787   4.569
 3615TIP3    H210803   6.235   5.764   4.602
 3616TIP3   OH210804   2.432   4.265   1.822
 3616TIP3    H110805   2.389   4.190   1.863
 3616TIP3    H210806   2.381   4.281   1.742
 3617TIP3   OH210807   5.361   2.291   2.550
 3617TIP3    H110808   5.441   2.323   2.508
 3617TIP3    H210809   5.318   2.239   2.482
 3618TIP3   OH210810   1.230   4.020   4.668
 3618TIP3    H110811   1.187   4.015   4.582
 3618TIP3    H210812   1.207   3.938   4.711
 3619TIP3   OH210813   4.810   4.472   4.920
 3619TIP3    H110814   4.784   4.391   4.964
 3619TIP3    H210815   4.750   4.480   4.846
 3620TIP3   OH210816   2.306   4.041   3.610
 3620TIP3    H110817   2.380   3.991   3.575
 3620TIP3    H210818   2.344   4.128   3.628
 3621TIP3   OH210819   0.008   4.721   6.666
 3621TIP3    H110820   0.082   4.670   6.634
 3621TIP3    H210821  -0.063   4.701   6.605
 3622TIP3   OH210822   8.173   2.718   0.374
 3622TIP3    H110823   8.147   2.674   0.293
 3622TIP3    H210824   8.268   2.711   0.375
 3623TIP3   OH210825   5.322   4.100   1.825
 3623TIP3    H110826   5.267   4.140   1.758
 3623TIP3    H210827   5.406   4.086   1.782
 3624TIP3   OH210828   2.966   6.725   3.609
 3624TIP3    H110829   2.952   6.681   3.525
 3624TIP3    H210830   2.902   6.796   3.610
 3625TIP3   OH210831   1.945   2.942   3.041
 3625TIP3    H110832   2.013   2.885   3.076
 3625TIP3    H210833   1.977   3.031   3.059
 3626TIP3   OH210834   8.055   0.287   2.573
 3626TIP3    H110835   8.053   0.230   2.651
 3626TIP3    H210836   7.965   0.319   2.565
 3627TIP3   OH210837   1.513   5.109   0.106
 3627TIP3    H110838   1.578   5.150   0.048
 3627TIP3    H210839   1.450   5.179   0.124
 3628TIP3   OH210840   0.710   0.796   4.742
 3628TIP3    H110841   0.716   0.717   4.797
 3628TIP3    H210842   0.663   0.767   4.664
 3629TIP3   OH210843   5.148   4.342   0.030
 3629TIP3    H110844   5.059   4.307   0.027
 3629TIP3    H210845   5.200   4.278  -0.019
 3630TIP3   OH210846   3.885   1.047   2.197
 3630TIP3    H110847   3.805   0.994   2.193
 3630TIP3    H210848   3.922   1.041   2.109
 3631TIP3   OH210849   1.018   3.460   1.609
 3631TIP3    H110850   0.992   3.528   1.546
 3631TIP3    H210851   0.942   3.403   1.616
 3632TIP3   OH210852   2.292   1.959   6.728
 3632TIP3    H110853   2.245   2.025   6.779
 3632TIP3    H210854   2.249   1.961   6.642
 3633TIP3   OH210855   3.745   3.756   2.908
 3633TIP3    H110856   3.833   3.792   2.891
 3633TIP3    H210857   3.696   3.775   2.829
 3634TIP3   OH210858   1.624   1.829   6.027
 3634TIP3    H110859   1.712   1.791   6.023
 3634TIP3    H210860   1.621   1.873   6.111
 3635TIP3   OH210861   1.849   2.738   4.580
 3635TIP3    H110862   1.943   2.756   4.572
 3635TIP3    H210863   1.807   2.817   4.546
 3636TIP3   OH210864   2.964   0.314   3.264
 3636TIP3    H110865   2.936   0.404   3.250
 3636TIP3    H210866   3.020   0.295   3.189
 3637TIP3   OH210867   5.944   7.290   2.821
 3637TIP3    H110868   6.028   7.258   2.856
 3637TIP3    H210869   5.930   7.373   2.866
 3638TIP3   OH210870   1.303   5.574   3.425
 3638TIP3    H110871   1.221   5.557   3.472
 3638TIP3    H210872   1.370   5.575   3.493
 3639TIP3   OH210873   2.284   2.430   2.018
 3639TIP3    H110874   2.300   2.336   2.024
 3639TIP3    H210875   2.363   2.470   2.053
 3640TIP3   OH210876   5.360   6.779   3.320
 3640TIP3    H110877   5.338   6.717   3.389
 3640TIP3    H210878   5.307   6.752   3.245
 3641TIP3   OH210879   2.276   7.507   5.488
 3641TIP3    H110880   2.329   7.524   5.410
 3641TIP3    H210881   2.266   7.592   5.530
 3642TIP3   OH210882   6.509   1.909   4.248
 3642TIP3    H110883   6.538   1.999   4.238
 3642TIP3    H210884   6.564   1.859   4.187
 3643TIP3   OH210885   0.055   6.102   4.070
 3643TIP3    H110886   0.068   6.171   4.006
 3643TIP3    H210887   0.035   6.147   4.152
 3644TIP3   OH210888   2.263   1.520   0.490
 3644TIP3    H110889   2.244   1.464   0.566
 3644TIP3    H210890   2.185   1.574   0.480
 3645TIP3   OH210891   3.979   5.214   4.351
 3645TIP3    H110892   4.073   5.206   4.364
 3645TIP3    H210893   3.956   5.298   4.390
 3646TIP3   OH210894   0.205   4.173   6.677
 3646TIP3    H110895   0.179   4.264   6.689
 3646TIP3    H210896   0.289   4.166   6.723
 3647TIP3   OH210897   0.578   0.582   1.697
 3647TIP3    H110898   0.620   0.555   1.615
 3647TIP3    H210899   0.646   0.573   1.763
 3648TIP3   OH210900   4.526   5.503   2.802
 3648TIP3    H110901   4.581   5.558   2.746
 3648TIP3    H210902   4.585   5.474   2.873
 3649TIP3   OH210903   6.512   2.253   2.476
 3649TIP3    H110904   6.489   2.343   2.452
 3649TIP3    H210905   6.607   2.250   2.472
 3650TIP3   OH210906   1.495   4.607   4.766
 3650TIP3    H110907   1.533   4.571   4.686
 3650TIP3    H210908   1.513   4.540   4.833
 3651TIP3   OH210909   6.453   1.497   1.401
 3651TIP3    H110910   6.415   1.581   1.424
 3651TIP3    H210911   6.451   1.494   1.305
 3652TIP3   OH210912   1.637   2.053   2.523
 3652TIP3    H110913   1.567   2.040   2.459
 3652TIP3    H210914   1.638   1.971   2.573
 3653TIP3   OH210915   4.083   6.871   5.679
 3653TIP3    H110916   4.173   6.877   5.647
 3653TIP3    H210917   4.042   6.954   5.653
 3654TIP3   OH210918   1.234   2.432   0.668
 3654TIP3    H110919   1.189   2.371   0.726
 3654TIP3    H210920   1.178   2.438   0.591
 3655TIP3   OH210921   1.671   7.389   2.308
 3655TIP3    H110922   1.719   7.469   2.329
 3655TIP3    H210923   1.663   7.389   2.213
 3656TIP3   OH210924   3.223   5.356   6.230
 3656TIP3    H110925   3.224   5.411   6.152
 3656TIP3    H210926   3.149   5.297   6.217
 3657TIP3   OH210927   5.776   1.330   4.790
 3657TIP3    H110928   5.719   1.404   4.772
 3657TIP3    H210929   5.753   1.302   4.878
 3658TIP3   OH210930   5.940   1.882   0.434
 3658TIP3    H110931   5.846   1.865   0.431
 3658TIP3    H210932   5.949   1.973   0.406
 3659TIP3   OH210933   2.370   1.269   4.539
 3659TIP3    H110934   2.351   1.363   4.534
 3659TIP3    H210935   2.415   1.249   4.457
 3660TIP3   OH210936   2.054   6.956   0.929
 3660TIP3    H110937   2.095   6.883   0.976
 3660TIP3    H210938   1.995   6.915   0.866
 3661TIP3   OH210939   4.425   0.377   5.030
 3661TIP3    H110940   4.384   0.300   4.989
 3661TIP3    H210941   4.497   0.341   5.081
 3662TIP3   OH210942   1.547   7.448   0.618
 3662TIP3    H110943   1.594   7.405   0.689
 3662TIP3    H210944   1.485   7.506   0.661
 3663TIP3   OH210945   5.462   6.179   0.954
 3663TIP3    H110946   5.489   6.163   1.045
 3663TIP3    H210947   5.530   6.138   0.901
 3664TIP3   OH210948   0.579   2.221   1.162
 3664TIP3    H110949   0.588   2.209   1.256
 3664TIP3    H210950   0.669   2.226   1.130
 3665TIP3   OH210951   7.144   1.481   5.340
 3665TIP3    H110952   7.198   1.433   5.278
 3665TIP3    H210953   7.112   1.557   5.290
 3666TIP3   OH210954   0.936   6.661   2.070
 3666TIP3    H110955   0.920   6.646   2.163
 3666TIP3    H210956   1.022   6.623   2.053
 3667TIP3   OH210957   5.193   3.974   6.046
 3667TIP3    H110958   5.215   3.998   6.136
 3667TIP3    H210959   5.259   4.019   5.993
 3668TIP3   OH210960   6.929   0.774   4.054
 3668TIP3    H110961   6.854   0.735   4.011
 3668TIP3    H210962   6.937   0.727   4.137
 3669TIP3   OH210963   7.681   6.105   3.714
 3669TIP3    H110964   7.722   6.081   3.631
 3669TIP3    H210965   7.747   6.084   3.781
 3670TIP3   OH210966   1.117   2.557   6.580
 3670TIP3    H110967   1.034   2.547   6.628
 3670TIP3    H210968   1.094   2.609   6.503
 3671TIP3   OH210969   7.978   3.861   0.143
 3671TIP3    H110970   7.942   3.780   0.180
 3671TIP3    H210971   7.922   3.881   0.068
 3672TIP3   OH210972   1.422   2.028   4.602
 3672TIP3    H110973   1.501   2.073   4.572
 3672TIP3    H210974   1.375   2.007   4.521
 3673TIP3   OH210975   4.954   3.817   0.648
 3673TIP3    H110976   4.908   3.895   0.679
 3673TIP3    H210977   4.890   3.775   0.589
 3674TIP3   OH210978   6.744   1.362   4.953
 3674TIP3    H110979   6.773   1.352   5.044
 3674TIP3    H210980   6.667   1.305   4.947
 3675TIP3   OH210981   3.687   1.423   0.543
 3675TIP3    H110982   3.674   1.505   0.494
 3675TIP3    H210983   3.751   1.446   0.610
 3676TIP3   OH210984   6.139   0.972   0.923
 3676TIP3    H110985   6.204   0.909   0.890
 3676TIP3    H210986   6.149   0.968   1.018
 3677TIP3   OH210987   5.939   3.041   0.815
 3677TIP3    H110988   5.988   2.964   0.785
 3677TIP3    H210989   5.892   3.010   0.893
 3678TIP3   OH210990   3.232   6.475   0.569
 3678TIP3    H110991   3.163   6.510   0.513
 3678TIP3    H210992   3.185   6.432   0.641
 3679TIP3   OH210993   5.816   3.907   5.029
 3679TIP3    H110994   5.774   3.992   5.041
 3679TIP3    H210995   5.886   3.905   5.094
 3680TIP3   OH210996   7.735   4.014   2.871
 3680TIP3    H110997   7.765   4.105   2.869
 3680TIP3    H210998   7.694   4.000   2.786
 3681TIP3   OH210999   8.071   3.260   4.048
 3681TIP3    H111000   7.979   3.253   4.022
 3681TIP3    H211001   8.094   3.351   4.031
 3682TIP3   OH211002   4.068   5.950   2.515
 3682TIP3    H111003   3.997   6.011   2.498
 3682TIP3    H211004   4.026   5.875   2.557
 3683TIP3   OH211005   5.125   0.351   6.749
 3683TIP3    H111006   5.160   0.324   6.664
 3683TIP3    H211007   5.030   0.356   6.735
 3684TIP3   OH211008   2.564   6.143   2.802
 3684TIP3    H111009   2.636   6.113   2.748
 3684TIP3    H211010   2.592   6.228   2.836
 3685TIP3   OH211011   0.431   4.784   4.983
 3685TIP3    H111012   0.432   4.704   5.036
 3685TIP3    H211013   0.494   4.842   5.027
 3686TIP3   OH211014   2.066   4.033   2.361
 3686TIP3    H111015   1.977   4.004   2.339
 3686TIP3    H211016   2.063   4.045   2.456
 3687TIP3   OH211017   3.405   2.193   4.237
 3687TIP3    H111018   3.376   2.204   4.328
 3687TIP3    H211019   3.367   2.110   4.209
 3688TIP3   OH211020   8.044   1.257   5.405
 3688TIP3    H111021   7.985   1.188   5.434
 3688TIP3    H211022   8.125   1.241   5.454
 3689TIP3   OH211023   7.643   7.046   5.919
 3689TIP3    H111024   7.721   7.024   5.969
 3689TIP3    H211025   7.674   7.063   5.830
 3690TIP3   OH211026   5.092   3.700   2.587
 3690TIP3    H111027   5.135   3.747   2.516
 3690TIP3    H211028   5.030   3.642   2.542
 3691TIP3   OH211029   7.144   4.614   1.697
 3691TIP3    H111030   7.113   4.595   1.609
 3691TIP3    H211031   7.069   4.655   1.740
 3692TIP3   OH211032   4.548   0.373   0.613
 3692TIP3    H111033   4.501   0.381   0.531
 3692TIP3    H211034   4.564   0.280   0.624
 3693TIP3   OH211035   3.137   3.069   4.943
 3693TIP3    H111036   3.108   3.021   4.866
 3693TIP3    H211037   3.187   3.143   4.908
 3694TIP3   OH211038   0.046   1.505   3.399
 3694TIP3    H111039   0.076   1.550   3.478
 3694TIP3    H211040  -0.022   1.561   3.363
 3695TIP3   OH211041   7.180   3.535   0.673
 3695TIP3    H111042   7.243   3.487   0.619
 3695TIP3    H211043   7.101   3.482   0.671
 3696TIP3   OH211044   7.823   7.503   0.239
 3696TIP3    H111045   7.836   7.596   0.219
 3696TIP3    H211046   7.760   7.503   0.311
 3697TIP3   OH211047   7.083   2.878   3.968
 3697TIP3    H111048   7.133   2.949   3.928
 3697TIP3    H211049   7.100   2.802   3.911
 3698TIP3   OH211050   5.555   3.612   0.099
 3698TIP3    H111051   5.624   3.551   0.125
 3698TIP3    H211052   5.481   3.556   0.076
 3699TIP3   OH211053   6.490   4.757   4.189
 3699TIP3    H111054   6.555   4.775   4.257
 3699TIP3    H211055   6.500   4.830   4.128
 3700TIP3   OH211056   1.762   6.120   4.278
 3700TIP3    H111057   1.816   6.123   4.357
 3700TIP3    H211058   1.820   6.084   4.211
 3701TIP3   OH211059   1.750   2.326   3.373
 3701TIP3    H111060   1.721   2.408   3.332
 3701TIP3    H211061   1.793   2.277   3.304
 3702TIP3   OH211062   6.463   1.654   4.384
 3702TIP3    H111063   6.368   1.661   4.392
 3702TIP3    H211064   6.488   1.723   4.323
 3703TIP3   OH211065   3.268   7.682   1.995
 3703TIP3    H111066   3.344   7.741   1.990
 3703TIP3    H211067   3.255   7.668   2.089
 3704TIP3   OH211068   4.073   0.186   0.494
 3704TIP3    H111069   4.043   0.107   0.540
 3704TIP3    H211070   4.039   0.259   0.546
 3705TIP3   OH211071   2.130   2.624   4.552
 3705TIP3    H111072   2.127   2.713   4.519
 3705TIP3    H211073   2.199   2.625   4.619
 3706TIP3   OH211074   2.734   5.439   0.887
 3706TIP3    H111075   2.655   5.470   0.931
 3706TIP3    H211076   2.769   5.371   0.945
 3707TIP3   OH211077   7.096   6.714   3.189
 3707TIP3    H111078   7.054   6.770   3.254
 3707TIP3    H211079   7.185   6.749   3.181
 3708TIP3   OH211080   0.444   2.632   4.899
 3708TIP3    H111081   0.371   2.571   4.900
 3708TIP3    H211082   0.406   2.716   4.924
 3709TIP3   OH211083   5.740   2.556   6.483
 3709TIP3    H111084   5.644   2.560   6.474
 3709TIP3    H211085   5.769   2.646   6.474
 3710TIP3   OH211086   5.822   7.523   0.169
 3710TIP3    H111087   5.818   7.480   0.083
 3710TIP3    H211088   5.885   7.594   0.157
 3711TIP3   OH211089   5.972   4.324   5.895
 3711TIP3    H111090   5.923   4.386   5.840
 3711TIP3    H211091   6.046   4.298   5.841
 3712TIP3   OH211092   2.981   5.706   5.067
 3712TIP3    H111093   3.073   5.683   5.080
 3712TIP3    H211094   2.983   5.778   5.003
 3713TIP3   OH211095   2.761   0.266   0.466
 3713TIP3    H111096   2.822   0.192   0.465
 3713TIP3    H211097   2.795   0.327   0.401
 3714TIP3   OH211098   3.624   7.839   0.959
 3714TIP3    H111099   3.603   7.823   0.867
 3714TIP3    H211100   3.566   7.780   1.008
 3715TIP3   OH211101   6.038   2.420   6.332
 3715TIP3    H111102   5.970   2.460   6.278
 3715TIP3    H211103   6.004   2.333   6.352
 3716TIP3   OH211104   7.518   1.205   4.457
 3716TIP3    H111105   7.518   1.298   4.434
 3716TIP3    H211106   7.495   1.160   4.376
 3717TIP3   OH211107   2.588   7.117   0.262
 3717TIP3    H111108   2.518   7.083   0.206
 3717TIP3    H211109   2.637   7.039   0.288
 3718TIP3   OH211110   4.752   7.614   1.489
 3718TIP3    H111111   4.791   7.701   1.487
 3718TIP3    H211112   4.788   7.574   1.568
 3719TIP3   OH211113   8.077   1.527   5.969
 3719TIP3    H111114   8.132   1.449   5.973
 3719TIP3    H211115   8.108   1.582   6.040
 3720TIP3   OH211116   1.364   6.811   1.012
 3720TIP3    H111117   1.422   6.796   0.937
 3720TIP3    H211118   1.296   6.870   0.979
 3721TIP3   OH211119   1.352   4.291   4.330
 3721TIP3    H111120   1.367   4.369   4.276
 3721TIP3    H211121   1.420   4.229   4.302
 3722TIP3   OH211122   4.017   3.635   4.691
 3722TIP3    H111123   3.955   3.685   4.638
 3722TIP3    H211124   4.071   3.702   4.733
 3723TIP3   OH211125   0.999   7.413   2.879
 3723TIP3    H111126   0.928   7.353   2.903
 3723TIP3    H211127   1.000   7.478   2.949
 3724TIP3   OH211128   0.362   5.239   1.612
 3724TIP3    H111129   0.287   5.265   1.558
 3724TIP3    H211130   0.426   5.309   1.599
 3725TIP3   OH211131   0.309   3.694   1.744
 3725TIP3    H111132   0.326   3.628   1.676
 3725TIP3    H211133   0.392   3.740   1.754
 3726TIP3   OH211134   7.782   4.486   6.535
 3726TIP3    H111135   7.868   4.488   6.494
 3726TIP3    H211136   7.799   4.469   6.627
 3727TIP3   OH211137   6.215   1.442   6.578
 3727TIP3    H111138   6.181   1.434   6.667
 3727TIP3    H211139   6.292   1.498   6.587
 3728TIP3   OH211140   2.998   3.247   3.775
 3728TIP3    H111141   2.993   3.271   3.682
 3728TIP3    H211142   3.023   3.328   3.819
 3729TIP3   OH211143   7.775   0.060   2.790
 3729TIP3    H111144   7.759  -0.005   2.722
 3729TIP3    H211145   7.688   0.087   2.820
 3730TIP3   OH211146   2.198   0.501   5.333
 3730TIP3    H111147   2.136   0.434   5.306
 3730TIP3    H211148   2.250   0.519   5.254
 3731TIP3   OH211149   8.214   0.942   3.014
 3731TIP3    H111150   8.297   0.983   2.990
 3731TIP3    H211151   8.237   0.880   3.083
 3732TIP3   OH211152   2.322   3.267   4.758
 3732TIP3    H111153   2.301   3.189   4.707
 3732TIP3    H211154   2.418   3.265   4.766
 3733TIP3   OH211155   4.364   7.362   5.807
 3733TIP3    H111156   4.429   7.421   5.770
 3733TIP3    H211157   4.414   7.298   5.857
 3734TIP3   OH211158   4.652   7.167   4.489
 3734TIP3    H111159   4.654   7.210   4.575
 3734TIP3    H211160   4.560   7.148   4.474
 3735TIP3   OH211161   6.010   7.154   3.371
 3735TIP3    H111162   5.938   7.112   3.417
 3735TIP3    H211163   6.079   7.088   3.367
 3736TIP3   OH211164   7.745   4.441   5.705
 3736TIP3    H111165   7.727   4.512   5.642
 3736TIP3    H211166   7.745   4.485   5.790
 3737TIP3   OH211167   0.558   4.820   6.024
 3737TIP3    H111168   0.522   4.732   6.038
 3737TIP3    H211169   0.493   4.879   6.061
 3738TIP3   OH211170   8.079   4.752   6.522
 3738TIP3    H111171   8.004   4.803   6.552
 3738TIP3    H211172   8.120   4.806   6.454
 3739TIP3   OH211173   4.278   0.021   3.404
 3739TIP3    H111174   4.207  -0.043   3.394
 3739TIP3    H211175   4.235   0.106   3.404
 3740TIP3   OH211176   7.935   1.504   2.956
 3740TIP3    H111177   8.003   1.541   2.899
 3740TIP3    H211178   7.907   1.577   3.011
 3741TIP3   OH211179   3.323   3.236   4.833
 3741TIP3    H111180   3.339   3.314   4.780
 3741TIP3    H211181   3.346   3.163   4.776
 3742TIP3   OH211182   1.096   1.263   1.258
 3742TIP3    H111183   1.050   1.198   1.311
 3742TIP3    H211184   1.170   1.215   1.220
 3743TIP3   OH211185   2.918   0.637   1.193
 3743TIP3    H111186   2.923   0.629   1.288
 3743TIP3    H211187   2.990   0.584   1.160
 3744TIP3   OH211188   8.256   3.006   2.276
 3744TIP3    H111189   8.190   2.986   2.341
 3744TIP3    H211190   8.214   2.988   2.192
 3745TIP3   OH211191   4.211   6.286   0.877
 3745TIP3    H111192   4.206   6.251   0.788
 3745TIP3    H211193   4.259   6.368   0.868
 3746TIP3   OH211194   3.613   6.677   5.334
 3746TIP3    H111195   3.606   6.758   5.385
 3746TIP3    H211196   3.579   6.609   5.392
 3747TIP3   OH211197   3.154   4.079   4.358
 3747TIP3    H111198   3.249   4.075   4.365
 3747TIP3    H211199   3.131   4.169   4.379
 3748TIP3   OH211200   1.274   7.303   1.381
 3748TIP3    H111201   1.342   7.338   1.323
 3748TIP3    H211202   1.289   7.347   1.464
 3749TIP3   OH211203   0.546   4.189   0.172
 3749TIP3    H111204   0.532   4.267   0.226
 3749TIP3    H211205   0.641   4.184   0.161
 3750TIP3   OH211206   8.212   7.422   1.465
 3750TIP3    H111207   8.276   7.444   1.397
 3750TIP3    H211208   8.128   7.453   1.431
 3751TIP3   OH211209   8.222   1.932   2.132
 3751TIP3    H111210   8.205   1.948   2.225
 3751TIP3    H211211   8.282   1.858   2.131
 3752TIP3   OH211212   6.189   6.148   3.478
 3752TIP3    H111213   6.159   6.214   3.540
 3752TIP3    H211214   6.110   6.098   3.457
 3753TIP3   OH211215   4.786   6.362   0.110
 3753TIP3    H111216   4.813   6.382   0.200
 3753TIP3    H211217   4.844   6.415   0.055
 3754TIP3   OH211218   1.395   4.693   2.909
 3754TIP3    H111219   1.453   4.670   2.981
 3754TIP3    H211220   1.369   4.784   2.927
 3755TIP3   OH211221   7.065   0.432   2.383
 3755TIP3    H111222   7.066   0.528   2.382
 3755TIP3    H211223   7.013   0.408   2.306
 3756TIP3   OH211224   5.017   3.985   2.208
 3756TIP3    H111225   5.003   3.891   2.222
 3756TIP3    H211226   4.976   4.027   2.283
 3757TIP3   OH211227   0.258   7.111   1.203
 3757TIP3    H111228   0.231   7.102   1.295
 3757TIP3    H211229   0.292   7.024   1.180
 3758TIP3   OH211230   0.310   5.623   2.412
 3758TIP3    H111231   0.315   5.666   2.497
 3758TIP3    H211232   0.235   5.563   2.420
 3759TIP3   OH211233   7.957   6.387   6.788
 3759TIP3    H111234   8.011   6.402   6.711
 3759TIP3    H211235   7.867   6.390   6.756
 3760TIP3   OH211236   7.149   5.941   3.121
 3760TIP3    H111237   7.109   6.025   3.143
 3760TIP3    H211238   7.191   5.956   3.036
 3761TIP3   OH211239   3.674   2.699   3.334
 3761TIP3    H111240   3.702   2.737   3.251
 3761TIP3    H211241   3.744   2.719   3.395
 3762TIP3   OH211242   0.492   1.458   4.960
 3762TIP3    H111243   0.474   1.528   5.023
 3762TIP3    H211244   0.561   1.406   5.001
 3763TIP3   OH211245   1.424   7.651   0.748
 3763TIP3    H111246   1.332   7.640   0.725
 3763TIP3    H211247   1.427   7.643   0.843
 3764TIP3   OH211248   5.942   1.343   0.733
 3764TIP3    H111249   5.972   1.356   0.823
 3764TIP3    H211250   6.018   1.306   0.688
 3765TIP3   OH211251   3.640   7.195   3.705
 3765TIP3    H111252   3.655   7.245   3.786
 3765TIP3    H211253   3.545   7.194   3.694
 3766TIP3   OH211254   7.310   4.240   1.956
 3766TIP3    H111255   7.280   4.330   1.943
 3766TIP3    H211256   7.388   4.233   1.901
 3767TIP3   OH211257   6.056   1.155   3.485
 3767TIP3    H111258   6.130   1.137   3.542
 3767TIP3    H211259   6.000   1.213   3.537
 3768TIP3   OH211260   4.860   2.813   1.496
 3768TIP3    H111261   4.871   2.908   1.489
 3768TIP3    H211262   4.943   2.777   1.464
 3769TIP3   OH211263   6.973   1.343   4.168
 3769TIP3    H111264   7.062   1.322   4.196
 3769TIP3    H211265   6.946   1.414   4.225
 3770TIP3   OH211266   1.817   1.625   4.620
 3770TIP3    H111267   1.836   1.608   4.712
 3770TIP3    H211268   1.902   1.624   4.577
 3771TIP3   OH211269   5.405   0.777   4.066
 3771TIP3    H111270   5.350   0.740   4.135
 3771TIP3    H211271   5.386   0.871   4.069
 3772TIP3   OH211272   2.311   0.973   3.790
 3772TIP3    H111273   2.224   0.998   3.822
 3772TIP3    H211274   2.314   0.878   3.802
 3773TIP3   OH211275   1.670   5.683   4.898
 3773TIP3    H111276   1.676   5.696   4.993
 3773TIP3    H211277   1.592   5.732   4.872
 3774TIP3   OH211278   3.400   0.785   6.585
 3774TIP3    H111279   3.410   0.738   6.668
 3774TIP3    H211280   3.320   0.836   6.595
 3775TIP3   OH211281   0.246   6.108   1.856
 3775TIP3    H111282   0.273   6.121   1.765
 3775TIP3    H211283   0.309   6.159   1.907
 3776TIP3   OH211284   3.896   0.112   5.152
 3776TIP3    H111285   3.897   0.207   5.150
 3776TIP3    H211286   3.813   0.087   5.111
 3777TIP3   OH211287   7.127   6.518   0.827
 3777TIP3    H111288   7.059   6.506   0.893
 3777TIP3    H211289   7.145   6.612   0.828
 3778TIP3   OH211290   6.263   6.983   0.673
 3778TIP3    H111291   6.174   7.002   0.702
 3778TIP3    H211292   6.293   7.064   0.633
 3779TIP3   OH211293   4.505   7.368   1.573
 3779TIP3    H111294   4.506   7.404   1.484
 3779TIP3    H211295   4.414   7.374   1.601
 3780TIP3   OH211296   0.514   1.822   4.542
 3780TIP3    H111297   0.539   1.732   4.562
 3780TIP3    H211298   0.503   1.864   4.627
 3781TIP3   OH211299   0.672   3.518   3.466
 3781TIP3    H111300   0.608   3.581   3.433
 3781TIP3    H211301   0.630   3.480   3.544
 3782TIP3   OH211302   4.134   1.228   5.048
 3782TIP3    H111303   4.155   1.270   4.965
 3782TIP3    H211304   4.041   1.208   5.042
 3783TIP3   OH211305   2.206   1.753   6.547
 3783TIP3    H111306   2.236   1.671   6.585
 3783TIP3    H211307   2.273   1.777   6.483
 3784TIP3   OH211308   0.805   1.782   6.011
 3784TIP3    H111309   0.798   1.814   5.921
 3784TIP3    H211310   0.890   1.813   6.042
 3785TIP3   OH211311   6.218   1.531   1.154
 3785TIP3    H111312   6.172   1.551   1.236
 3785TIP3    H211313   6.203   1.608   1.099
 3786TIP3   OH211314   0.537   1.344   5.944
 3786TIP3    H111315   0.554   1.438   5.952
 3786TIP3    H211316   0.489   1.321   6.024
 3787TIP3   OH211317   3.980   7.290   0.164
 3787TIP3    H111318   4.032   7.212   0.144
 3787TIP3    H211319   3.904   7.284   0.107
 3788TIP3   OH211320   7.627   3.465   6.756
 3788TIP3    H111321   7.676   3.523   6.814
 3788TIP3    H211322   7.694   3.413   6.712
 3789TIP3   OH211323   2.323   7.623   2.372
 3789TIP3    H111324   2.237   7.583   2.383
 3789TIP3    H211325   2.347   7.653   2.460
 3790TIP3   OH211326   6.428   0.343   1.819
 3790TIP3    H111327   6.402   0.252   1.810
 3790TIP3    H211328   6.490   0.343   1.892
 3791TIP3   OH211329   7.443   1.520   1.165
 3791TIP3    H111330   7.397   1.597   1.196
 3791TIP3    H211331   7.396   1.446   1.204
 3792TIP3   OH211332   5.092   0.067   1.172
 3792TIP3    H111333   5.013   0.035   1.129
 3792TIP3    H211334   5.060   0.133   1.233
 3793TIP3   OH211335   0.830   6.245   3.665
 3793TIP3    H111336   0.809   6.275   3.754
 3793TIP3    H211337   0.762   6.282   3.610
 3794TIP3   OH211338   2.854   5.210   3.119
 3794TIP3    H111339   2.878   5.136   3.175
 3794TIP3    H211340   2.880   5.287   3.169
 3795TIP3   OH211341   5.205   0.982   1.032
 3795TIP3    H111342   5.251   0.911   1.078
 3795TIP3    H211343   5.250   1.061   1.060
 3796TIP3   OH211344   1.814   5.763   0.702
 3796TIP3    H111345   1.851   5.831   0.646
 3796TIP3    H211346   1.762   5.709   0.642
 3797TIP3   OH211347   8.135   4.590   2.173
 3797TIP3    H111348   8.131   4.531   2.098
 3797TIP3    H211349   8.217   4.568   2.217
 3798TIP3   OH211350   7.505   5.704   0.159
 3798TIP3    H111351   7.438   5.654   0.112
 3798TIP3    H211352   7.565   5.734   0.090
 3799TIP3   OH211353   3.695   0.162   5.998
 3799TIP3    H111354   3.753   0.201   6.063
 3799TIP3    H211355   3.667   0.079   6.037
 3800TIP3   OH211356   4.963   5.322   2.184
 3800TIP3    H111357   5.031   5.257   2.199
 3800TIP3    H211358   4.926   5.339   2.271
 3801TIP3   OH211359   5.474   0.818   6.234
 3801TIP3    H111360   5.418   0.849   6.305
 3801TIP3    H211361   5.457   0.879   6.162
 3802TIP3   OH211362   2.366   4.191   4.031
 3802TIP3    H111363   2.420   4.250   4.083
 3802TIP3    H211364   2.346   4.240   3.952
 3803TIP3   OH211365   4.232   4.132   3.893
 3803TIP3    H111366   4.175   4.208   3.879
 3803TIP3    H211367   4.286   4.157   3.968
 3804TIP3   OH211368   5.662   4.599   1.687
 3804TIP3    H111369   5.719   4.547   1.631
 3804TIP3    H211370   5.664   4.687   1.650
 3805TIP3   OH211371   6.949   5.206   2.888
 3805TIP3    H111372   7.008   5.138   2.922
 3805TIP3    H211373   6.902   5.238   2.965
 3806TIP3   OH211374   0.227   6.296   0.227
 3806TIP3    H111375   0.319   6.272   0.239
 3806TIP3    H211376   0.179   6.233   0.279
 3807TIP3   OH211377   1.870   2.988   3.955
 3807TIP3    H111378   1.878   2.916   4.018
 3807TIP3    H211379   1.785   2.973   3.913
 3808TIP3   OH211380   2.044   7.570   0.361
 3808TIP3    H111381   1.950   7.560   0.345
 3808TIP3    H211382   2.049   7.608   0.449
 3809TIP3   OH211383   7.929   5.416   6.122
 3809TIP3    H111384   7.839   5.429   6.152
 3809TIP3    H211385   7.947   5.324   6.140
 3810TIP3   OH211386   2.440   1.369   2.811
 3810TIP3    H111387   2.491   1.437   2.767
 3810TIP3    H211388   2.396   1.415   2.883
 3811TIP3   OH211389   6.246   3.360   6.315
 3811TIP3    H111390   6.307   3.336   6.384
 3811TIP3    H211391   6.159   3.352   6.355
 3812TIP3   OH211392   6.816   4.848   3.603
 3812TIP3    H111393   6.852   4.921   3.653
 3812TIP3    H211394   6.742   4.817   3.656
 3813TIP3   OH211395   3.223   6.730   5.499
 3813TIP3    H111396   3.170   6.764   5.571
 3813TIP3    H211397   3.304   6.780   5.502
 3814TIP3   OH211398   6.689   6.195   1.452
 3814TIP3    H111399   6.705   6.168   1.361
 3814TIP3    H211400   6.730   6.281   1.459
 3815TIP3   OH211401   1.384   5.378   4.762
 3815TIP3    H111402   1.440   5.378   4.840
 3815TIP3    H211403   1.295   5.379   4.797
 3816TIP3   OH211404   0.681   3.822   2.232
 3816TIP3    H111405   0.674   3.769   2.152
 3816TIP3    H211406   0.628   3.775   2.296
 3817TIP3   OH211407   3.602   0.930   1.176
 3817TIP3    H111408   3.564   0.920   1.264
 3817TIP3    H211409   3.525   0.941   1.119
 3818TIP3   OH211410   3.575   0.156   0.026
 3818TIP3    H111411   3.665   0.147   0.056
 3818TIP3    H211412   3.550   0.245   0.053
 3819TIP3   OH211413   3.587   1.724   3.944
 3819TIP3    H111414   3.506   1.769   3.921
 3819TIP3    H211415   3.656   1.783   3.916
 3820TIP3   OH211416   7.265   7.709   2.862
 3820TIP3    H111417   7.263   7.770   2.935
 3820TIP3    H211418   7.284   7.624   2.902
 3821TIP3   OH211419   1.421   5.585   2.481
 3821TIP3    H111420   1.513   5.562   2.477
 3821TIP3    H211421   1.418   5.664   2.536
 3822TIP3   OH211422   4.826   7.267   2.558
 3822TIP3    H111423   4.750   7.324   2.563
 3822TIP3    H211424   4.897   7.323   2.527
 3823TIP3   OH211425   5.879   2.325   0.938
 3823TIP3    H111426   5.796   2.358   0.905
 3823TIP3    H211427   5.907   2.391   1.002
 3824TIP3   OH211428   5.837   1.496   5.576
 3824TIP3    H111429   5.914   1.529   5.624
 3824TIP3    H211430   5.763   1.520   5.632
 3825TIP3   OH211431   7.262   3.480   1.625
 3825TIP3    H111432   7.286   3.569   1.653
 3825TIP3    H211433   7.262   3.485   1.530
 3826TIP3   OH211434   2.411   3.006   3.507
 3826TIP3    H111435   2.322   2.990   3.537
 3826TIP3    H211436   2.464   2.999   3.586
 3827TIP3   OH211437   3.646   7.721   5.286
 3827TIP3    H111438   3.718   7.707   5.224
 3827TIP3    H211439   3.577   7.761   5.233
 3828TIP3   OH211440   0.361   1.646   0.472
 3828TIP3    H111441   0.378   1.674   0.382
 3828TIP3    H211442   0.337   1.554   0.465
 3829TIP3   OH211443   7.461   2.620   3.464
 3829TIP3    H111444   7.433   2.711   3.474
 3829TIP3    H211445   7.382   2.574   3.436
 3830TIP3   OH211446   1.462   5.084   4.999
 3830TIP3    H111447   1.515   5.103   4.922
 3830TIP3    H211448   1.406   5.010   4.972
 3831TIP3   OH211449   0.548   2.440   4.271
 3831TIP3    H111450   0.528   2.461   4.180
 3831TIP3    H211451   0.464   2.450   4.317
 3832TIP3   OH211452   7.636   2.617   6.795
 3832TIP3    H111453   7.661   2.536   6.751
 3832TIP3    H211454   7.562   2.651   6.743
 3833TIP3   OH211455   5.057   4.735   1.497
 3833TIP3    H111456   4.962   4.744   1.486
 3833TIP3    H211457   5.094   4.777   1.419
 3834TIP3   OH211458   5.173   2.554   5.960
 3834TIP3    H111459   5.203   2.464   5.950
 3834TIP3    H211460   5.254   2.605   5.967
 3835TIP3   OH211461   6.066   0.065   3.615
 3835TIP3    H111462   6.105   0.095   3.697
 3835TIP3    H211463   6.137   0.072   3.551
 3836TIP3   OH211464   1.019   6.055   3.773
 3836TIP3    H111465   1.003   6.149   3.773
 3836TIP3    H211466   0.932   6.016   3.766
 3837TIP3   OH211467   0.931   6.753   6.384
 3837TIP3    H111468   0.872   6.694   6.337
 3837TIP3    H211469   0.925   6.725   6.476
 3838TIP3   OH211470   0.908   6.568   4.142
 3838TIP3    H111471   0.986   6.602   4.098
 3838TIP3    H211472   0.911   6.473   4.126
 3839TIP3   OH211473   4.738   2.783   0.712
 3839TIP3    H111474   4.808   2.759   0.652
 3839TIP3    H211475   4.691   2.854   0.668
 3840TIP3   OH211476   1.586   6.116   2.994
 3840TIP3    H111477   1.679   6.128   2.976
 3840TIP3    H211478   1.563   6.190   3.050
 3841TIP3   OH211479   0.156   5.501   4.838
 3841TIP3    H111480   0.175   5.509   4.931
 3841TIP3    H211481   0.241   5.492   4.796
 3842TIP3   OH211482   3.286   6.105   5.951
 3842TIP3    H111483   3.338   6.033   5.916
 3842TIP3    H211484   3.253   6.150   5.873
 3843TIP3   OH211485   5.648   0.456   2.776
 3843TIP3    H111486   5.721   0.413   2.731
 3843TIP3    H211487   5.609   0.513   2.709
 3844TIP3   OH211488   3.618   1.748   1.622
 3844TIP3    H111489   3.550   1.693   1.584
 3844TIP3    H211490   3.665   1.691   1.683
 3845TIP3   OH211491   2.255   0.856   6.433
 3845TIP3    H111492   2.326   0.920   6.427
 3845TIP3    H211493   2.189   0.887   6.372
 3846TIP3   OH211494   6.502   1.501   6.310
 3846TIP3    H111495   6.422   1.553   6.300
 3846TIP3    H211496   6.506   1.481   6.404
 3847TIP3   OH211497   8.287   7.265   4.107
 3847TIP3    H111498   8.192   7.272   4.103
 3847TIP3    H211499   8.303   7.180   4.148
 3848TIP3   OH211500   0.759   2.879   1.592
 3848TIP3    H111501   0.826   2.878   1.661
 3848TIP3    H211502   0.780   2.804   1.537
 3849TIP3   OH211503   1.321   7.666   5.836
 3849TIP3    H111504   1.299   7.593   5.779
 3849TIP3    H211505   1.413   7.685   5.816
 3850TIP3   OH211506   6.203   1.550   4.001
 3850TIP3    H111507   6.267   1.621   4.001
 3850TIP3    H211508   6.121   1.591   4.026
 3851TIP3   OH211509   7.725   3.591   4.979
 3851TIP3    H111510   7.707   3.499   4.997
 3851TIP3    H211511   7.755   3.626   5.063
 3852TIP3   OH211512   4.144   6.271   1.982
 3852TIP3    H111513   4.166   6.280   1.889
 3852TIP3    H211514   4.058   6.310   1.990
 3853TIP3   OH211515   7.012   1.207   1.032
 3853TIP3    H111516   6.936   1.149   1.027
 3853TIP3    H211517   7.020   1.243   0.944
 3854TIP3   OH211518   0.283   1.561   1.519
 3854TIP3    H111519   0.278   1.631   1.585
 3854TIP3    H211520   0.267   1.606   1.436
 3855TIP3   OH211521   1.843   2.771   4.119
 3855TIP3    H111522   1.816   2.679   4.125
 3855TIP3    H211523   1.934   2.768   4.091
 3856TIP3   OH211524   5.911   4.066   1.456
 3856TIP3    H111525   5.891   4.019   1.537
 3856TIP3    H211526   5.826   4.075   1.412
 3857TIP3   OH211527   5.466   7.326   2.262
 3857TIP3    H111528   5.531   7.256   2.267
 3857TIP3    H211529   5.474   7.360   2.173
 3858TIP3   OH211530   2.738   4.471   2.506
 3858TIP3    H111531   2.776   4.558   2.497
 3858TIP3    H211532   2.750   4.449   2.599
 3859TIP3   OH211533   4.125   4.168   0.055
 3859TIP3    H111534   4.059   4.110   0.094
 3859TIP3    H211535   4.184   4.188   0.128
 3860TIP3   OH211536   2.288   7.153   1.472
 3860TIP3    H111537   2.270   7.159   1.566
 3860TIP3    H211538   2.377   7.186   1.462
 3861TIP3   OH211539   1.318   7.553   0.167
 3861TIP3    H111540   1.293   7.461   0.156
 3861TIP3    H211541   1.369   7.572   0.089
 3862TIP3   OH211542   7.692   6.883   0.347
 3862TIP3    H111543   7.694   6.799   0.302
 3862TIP3    H211544   7.648   6.942   0.286
 3863TIP3   OH211545   8.245   3.477   1.898
 3863TIP3    H111546   8.239   3.391   1.938
 3863TIP3    H211547   8.322   3.517   1.939
 3864TIP3   OH211548   3.035   5.275   5.027
 3864TIP3    H111549   2.986   5.336   5.082
 3864TIP3    H211550   3.009   5.297   4.938
 3865TIP3   OH211551   4.725   2.771   0.360
 3865TIP3    H111552   4.670   2.794   0.285
 3865TIP3    H211553   4.725   2.850   0.415
 3866TIP3   OH211554   0.859   2.553   5.950
 3866TIP3    H111555   0.778   2.518   5.912
 3866TIP3    H211556   0.863   2.514   6.037
 3867TIP3   OH211557   2.113   6.531   1.966
 3867TIP3    H111558   2.038   6.543   1.908
 3867TIP3    H211559   2.180   6.490   1.911
 3868TIP3   OH211560   7.708   4.835   2.364
 3868TIP3    H111561   7.688   4.858   2.273
 3868TIP3    H211562   7.782   4.891   2.387
 3869TIP3   OH211563   6.188   5.021   1.247
 3869TIP3    H111564   6.271   4.997   1.288
 3869TIP3    H211565   6.187   5.117   1.250
 3870TIP3   OH211566   7.280   2.650   2.197
 3870TIP3    H111567   7.305   2.742   2.198
 3870TIP3    H211568   7.242   2.634   2.283
 3871TIP3   OH211569   1.394   3.682   3.064
 3871TIP3    H111570   1.438   3.767   3.058
 3871TIP3    H211571   1.361   3.679   3.154
 3872TIP3   OH211572   4.364   1.156   2.253
 3872TIP3    H111573   4.378   1.250   2.244
 3872TIP3    H211574   4.389   1.137   2.344
 3873TIP3   OH211575   1.071   2.694   6.047
 3873TIP3    H111576   1.038   2.692   6.137
 3873TIP3    H211577   1.003   2.649   5.996
 3874TIP3   OH211578   1.741   0.735   6.678
 3874TIP3    H111579   1.659   0.712   6.721
 3874TIP3    H211580   1.765   0.820   6.716
 3875TIP3   OH211581   8.319   5.160   4.861
 3875TIP3    H111582   8.262   5.150   4.784
 3875TIP3    H211583   8.259   5.167   4.935
 3876TIP3   OH211584   7.882   2.460   0.988
 3876TIP3    H111585   7.839   2.398   0.930
 3876TIP3    H211586   7.961   2.415   1.018
 3877TIP3   OH211587   4.089   4.332   2.204
 3877TIP3    H111588   4.159   4.397   2.198
 3877TIP3    H211589   4.015   4.373   2.159
 3878TIP3   OH211590   3.444   1.785   3.180
 3878TIP3    H111591   3.524   1.747   3.144
 3878TIP3    H211592   3.463   1.796   3.273
 3879TIP3   OH211593   7.903   3.014   0.482
 3879TIP3    H111594   7.866   3.098   0.456
 3879TIP3    H211595   7.933   2.975   0.400
 3880TIP3   OH211596   8.273   3.187   4.609
 3880TIP3    H111597   8.299   3.138   4.531
 3880TIP3    H211598   8.312   3.138   4.682
 3881TIP3   OH211599   6.923   3.765   2.194
 3881TIP3    H111600   6.870   3.827   2.245
 3881TIP3    H211601   6.944   3.812   2.114
 3882TIP3   OH211602   0.277   5.914   3.428
 3882TIP3    H111603   0.248   5.999   3.397
 3882TIP3    H211604   0.196   5.865   3.442
 3883TIP3   OH211605   8.049   3.806   2.563
 3883TIP3    H111606   7.964   3.761   2.559
 3883TIP3    H211607   8.038   3.871   2.632
 3884TIP3   OH211608   5.791   3.235   3.220
 3884TIP3    H111609   5.857   3.256   3.155
 3884TIP3    H211610   5.806   3.142   3.241
 3885TIP3   OH211611   0.259   3.391   0.661
 3885TIP3    H111612   0.347   3.391   0.625
 3885TIP3    H211613   0.207   3.338   0.600
 3886TIP3   OH211614   0.118   1.813   5.427
 3886TIP3    H111615   0.158   1.729   5.449
 3886TIP3    H211616   0.051   1.791   5.362
 3887TIP3   OH211617   1.877   0.906   5.962
 3887TIP3    H111618   1.964   0.871   5.942
 3887TIP3    H211619   1.838   0.841   6.021
 3888TIP3   OH211620   7.090   1.625   6.202
 3888TIP3    H111621   7.045   1.550   6.240
 3888TIP3    H211622   7.179   1.621   6.239
 3889TIP3   OH211623   0.950   1.369   1.042
 3889TIP3    H111624   1.031   1.410   1.011
 3889TIP3    H211625   0.976   1.322   1.121
 3890TIP3   OH211626   0.214   6.727   1.619
 3890TIP3    H111627   0.225   6.632   1.616
 3890TIP3    H211628   0.147   6.742   1.686
 3891TIP3   OH211629   1.929   6.740   4.697
 3891TIP3    H111630   1.930   6.781   4.783
 3891TIP3    H211631   2.022   6.729   4.676
 3892TIP3   OH211632   4.441   3.764   4.256
 3892TIP3    H111633   4.451   3.671   4.278
 3892TIP3    H211634   4.489   3.810   4.325
 3893TIP3   OH211635   7.737   1.082   0.672
 3893TIP3    H111636   7.772   1.067   0.585
 3893TIP3    H211637   7.785   1.159   0.704
 3894TIP3   OH211638   1.703   7.466   2.629
 3894TIP3    H111639   1.729   7.415   2.553
 3894TIP3    H211640   1.642   7.531   2.595
 3895TIP3   OH211641   7.961   4.620   2.791
 3895TIP3    H111642   7.976   4.534   2.752
 3895TIP3    H211643   8.015   4.680   2.739
 3896TIP3   OH211644   0.274   7.439   5.821
 3896TIP3    H111645   0.187   7.478   5.810
 3896TIP3    H211646   0.321   7.502   5.876
 3897TIP3   OH211647   3.086   2.607   5.097
 3897TIP3    H111648   3.020   2.676   5.100
 3897TIP3    H211649   3.121   2.604   5.186
 3898TIP3   OH211650   4.598   5.222   4.267
 3898TIP3    H111651   4.669   5.217   4.203
 3898TIP3    H211652   4.525   5.178   4.225
 3899TIP3   OH211653   1.374   4.078   4.056
 3899TIP3    H111654   1.369   4.173   4.042
 3899TIP3    H211655   1.440   4.068   4.125
 3900TIP3   OH211656   4.204   0.936   3.281
 3900TIP3    H111657   4.125   0.985   3.304
 3900TIP3    H211658   4.186   0.846   3.307
 3901TIP3   OH211659   3.690   4.349   0.881
 3901TIP3    H111660   3.700   4.306   0.796
 3901TIP3    H211661   3.765   4.319   0.933
 3902TIP3   OH211662   1.581   4.020   5.588
 3902TIP3    H111663   1.545   4.059   5.508
 3902TIP3    H211664   1.676   4.025   5.575
 3903TIP3   OH211665   0.127   3.693   4.686
 3903TIP3    H111666   0.178   3.694   4.767
 3903TIP3    H211667   0.036   3.702   4.715
 3904TIP3   OH211668   0.175   3.270   1.146
 3904TIP3    H111669   0.190   3.330   1.218
 3904TIP3    H211670   0.233   3.196   1.163
 3905TIP3   OH211671   6.262   6.036   5.961
 3905TIP3    H111672   6.185   5.990   5.995
 3905TIP3    H211673   6.328   6.027   6.029
 3906TIP3   OH211674   6.387   6.889   2.893
 3906TIP3    H111675   6.394   6.835   2.972
 3906TIP3    H211676   6.328   6.839   2.836
 3907TIP3   OH211677   3.933   6.546   0.363
 3907TIP3    H111678   3.889   6.481   0.309
 3907TIP3    H211679   3.972   6.496   0.434
 3908TIP3   OH211680   0.293   2.077   5.862
 3908TIP3    H111681   0.242   2.006   5.822
 3908TIP3    H211682   0.352   2.032   5.922
 3909TIP3   OH211683   5.107   4.614   5.976
 3909TIP3    H111684   5.194   4.583   5.950
 3909TIP3    H211685   5.118   4.708   5.990
 3910TIP3   OH211686   0.124   0.621   4.117
 3910TIP3    H111687   0.067   0.549   4.143
 3910TIP3    H211688   0.201   0.612   4.173
 3911TIP3   OH211689   4.964   2.878   4.364
 3911TIP3    H111690   5.004   2.915   4.285
 3911TIP3    H211691   4.880   2.843   4.334
 3912TIP3   OH211692   2.069   4.901   6.520
 3912TIP3    H111693   2.008   4.869   6.586
 3912TIP3    H211694   2.091   4.825   6.467
 3913TIP3   OH211695   5.742   4.401   1.344
 3913TIP3    H111696   5.658   4.393   1.299
 3913TIP3    H211697   5.766   4.493   1.332
 3914TIP3   OH211698   1.437   7.487   1.258
 3914TIP3    H111699   1.392   7.534   1.188
 3914TIP3    H211700   1.508   7.440   1.213
 3915TIP3   OH211701   0.689   2.060   1.849
 3915TIP3    H111702   0.666   1.967   1.847
 3915TIP3    H211703   0.609   2.103   1.878
 3916TIP3   OH211704   5.832   7.514   6.572
 3916TIP3    H111705   5.796   7.590   6.618
 3916TIP3    H211706   5.768   7.494   6.504
 3917TIP3   OH211707   6.697   5.545   3.939
 3917TIP3    H111708   6.647   5.618   3.902
 3917TIP3    H211709   6.656   5.529   4.024
 3918TIP3   OH211710   5.561   7.837   2.505
 3918TIP3    H111711   5.471   7.818   2.534
 3918TIP3    H211712   5.607   7.754   2.515
 3919TIP3   OH211713   4.160   2.320   3.794
 3919TIP3    H111714   4.070   2.317   3.824
 3919TIP3    H211715   4.208   2.265   3.856
 3920TIP3   OH211716   1.415   4.568   0.198
 3920TIP3    H111717   1.421   4.661   0.175
 3920TIP3    H211718   1.467   4.523   0.131
 3921TIP3   OH211719   4.495   3.761   5.957
 3921TIP3    H111720   4.413   3.721   5.929
 3921TIP3    H211721   4.564   3.710   5.913
 3922TIP3   OH211722   7.076   1.174   3.950
 3922TIP3    H111723   7.061   1.211   4.037
 3922TIP3    H211724   6.992   1.182   3.906
 3923TIP3   OH211725   4.334   3.950   1.306
 3923TIP3    H111726   4.330   3.855   1.314
 3923TIP3    H211727   4.277   3.971   1.233
 3924TIP3   OH211728   2.441   7.610   4.129
 3924TIP3    H111729   2.526   7.579   4.098
 3924TIP3    H211730   2.451   7.619   4.223
 3925TIP3   OH211731   1.835   0.506   5.933
 3925TIP3    H111732   1.928   0.494   5.914
 3925TIP3    H211733   1.834   0.543   6.021
 3926TIP3   OH211734   1.994   7.340   5.935
 3926TIP3    H111735   2.068   7.382   5.979
 3926TIP3    H211736   1.970   7.267   5.993
 3927TIP3   OH211737   4.632   5.846   0.524
 3927TIP3    H111738   4.688   5.776   0.558
 3927TIP3    H211739   4.625   5.828   0.431
 3928TIP3   OH211740   5.648   2.753   5.489
 3928TIP3    H111741   5.739   2.750   5.517
 3928TIP3    H211742   5.652   2.774   5.396
 3929TIP3   OH211743   7.473   7.655   3.708
 3929TIP3    H111744   7.452   7.663   3.615
 3929TIP3    H211745   7.483   7.745   3.739
 3930TIP3   OH211746   2.304   4.298   3.771
 3930TIP3    H111747   2.225   4.243   3.776
 3930TIP3    H211748   2.334   4.288   3.681
 3931TIP3   OH211749   5.016   5.668   1.714
 3931TIP3    H111750   4.965   5.655   1.794
 3931TIP3    H211751   5.023   5.580   1.676
 3932TIP3   OH211752   5.885   4.824   4.710
 3932TIP3    H111753   5.816   4.791   4.766
 3932TIP3    H211754   5.896   4.915   4.736
 3933TIP3   OH211755   1.583   3.869   3.778
 3933TIP3    H111756   1.589   3.964   3.766
 3933TIP3    H211757   1.615   3.855   3.868
 3934TIP3   OH211758   5.052   7.449   6.052
 3934TIP3    H111759   5.051   7.451   5.956
 3934TIP3    H211760   5.020   7.535   6.078
 3935TIP3   OH211761   7.124   2.816   3.302
 3935TIP3    H111762   7.130   2.852   3.390
 3935TIP3    H211763   7.212   2.826   3.266
 3936TIP3   OH211764   3.683   0.152   4.455
 3936TIP3    H111765   3.705   0.162   4.363
 3936TIP3    H211766   3.717   0.066   4.479
 3937TIP3   OH211767   7.930   0.691   4.606
 3937TIP3    H111768   8.012   0.645   4.592
 3937TIP3    H211769   7.877   0.668   4.529
 3938TIP3   OH211770   0.565   2.559   2.655
 3938TIP3    H111771   0.485   2.510   2.634
 3938TIP3    H211772   0.534   2.648   2.674
 3939TIP3   OH211773   7.446   0.179   3.698
 3939TIP3    H111774   7.524   0.208   3.651
 3939TIP3    H211775   7.373   0.215   3.647
 3940TIP3   OH211776   4.020   3.534   2.734
 3940TIP3    H111777   3.937   3.547   2.688
 3940TIP3    H211778   3.995   3.516   2.824
 3941TIP3   OH211779   4.654   6.339   0.550
 3941TIP3    H111780   4.617   6.312   0.633
 3941TIP3    H211781   4.646   6.434   0.549
 3942TIP3   OH211782   6.381   3.818   5.160
 3942TIP3    H111783   6.354   3.751   5.223
 3942TIP3    H211784   6.340   3.792   5.078
 3943TIP3   OH211785   6.862   2.407   3.599
 3943TIP3    H111786   6.801   2.374   3.532
 3943TIP3    H211787   6.823   2.489   3.628
 3944TIP3   OH211788   1.108   0.987   0.205
 3944TIP3    H111789   1.159   1.055   0.163
 3944TIP3    H211790   1.173   0.926   0.240
 3945TIP3   OH211791   1.011   0.488   5.689
 3945TIP3    H111792   0.965   0.567   5.718
 3945TIP3    H211793   1.104   0.510   5.696
 3946TIP3   OH211794   4.183   3.129   3.316
 3946TIP3    H111795   4.134   3.049   3.294
 3946TIP3    H211796   4.117   3.189   3.350
 3947TIP3   OH211797   2.578   6.860   0.905
 3947TIP3    H111798   2.605   6.902   0.823
 3947TIP3    H211799   2.655   6.809   0.931
 3948TIP3   OH211800   3.515   3.469   1.381
 3948TIP3    H111801   3.568   3.533   1.429
 3948TIP3    H211802   3.442   3.450   1.439
 3949TIP3   OH211803   3.795   3.704   3.222
 3949TIP3    H111804   3.728   3.644   3.256
 3949TIP3    H211805   3.779   3.707   3.128
 3950TIP3   OH211806   1.164   1.620   0.699
 3950TIP3    H111807   1.220   1.640   0.623
 3950TIP3    H211808   1.079   1.599   0.661
 3951TIP3   OH211809   7.990   1.152   1.667
 3951TIP3    H111810   7.945   1.106   1.738
 3951TIP3    H211811   7.940   1.130   1.588
 3952TIP3   OH211812   6.145   3.586   5.830
 3952TIP3    H111813   6.174   3.537   5.907
 3952TIP3    H211814   6.219   3.643   5.809
 3953TIP3   OH211815   7.615   0.455   5.619
 3953TIP3    H111816   7.598   0.362   5.605
 3953TIP3    H211817   7.595   0.496   5.534
 3954TIP3   OH211818   1.774   7.455   0.306
 3954TIP3    H111819   1.796   7.398   0.233
 3954TIP3    H211820   1.770   7.396   0.382
 3955TIP3   OH211821   3.422   7.182   1.572
 3955TIP3    H111822   3.337   7.139   1.585
 3955TIP3    H211823   3.400   7.274   1.557
 3956TIP3   OH211824   2.321   1.771   6.077
 3956TIP3    H111825   2.234   1.732   6.072
 3956TIP3    H211826   2.330   1.821   5.996
 3957TIP3   OH211827   8.278   0.333   0.128
 3957TIP3    H111828   8.281   0.402   0.063
 3957TIP3    H211829   8.185   0.309   0.133
 3958TIP3   OH211830   0.884   3.894   1.559
 3958TIP3    H111831   0.840   3.822   1.604
 3958TIP3    H211832   0.897   3.960   1.627
 3959TIP3   OH211833   6.594   0.763   0.748
 3959TIP3    H111834   6.613   0.845   0.702
 3959TIP3    H211835   6.632   0.696   0.692
 3960TIP3   OH211836   5.452   0.897   0.116
 3960TIP3    H111837   5.515   0.964   0.143
 3960TIP3    H211838   5.481   0.869   0.030
 3961TIP3   OH211839   7.080   5.206   5.103
 3961TIP3    H111840   7.174   5.202   5.089
 3961TIP3    H211841   7.065   5.154   5.182
 3962TIP3   OH211842   6.861   6.856   1.369
 3962TIP3    H111843   6.808   6.795   1.316
 3962TIP3    H211844   6.920   6.897   1.307
 3963TIP3   OH211845   1.797   7.266   0.522
 3963TIP3    H111846   1.810   7.270   0.617
 3963TIP3    H211847   1.744   7.187   0.509
 3964TIP3   OH211848   0.434   4.560   6.075
 3964TIP3    H111849   0.344   4.573   6.104
 3964TIP3    H211850   0.432   4.478   6.025
 3965TIP3   OH211851   1.077   0.091   5.010
 3965TIP3    H111852   1.001   0.039   4.984
 3965TIP3    H211853   1.093   0.068   5.101
 3966TIP3   OH211854   5.141   6.452   3.870
 3966TIP3    H111855   5.078   6.419   3.934
 3966TIP3    H211856   5.107   6.539   3.846
 3967TIP3   OH211857   7.146   2.472   3.704
 3967TIP3    H111858   7.117   2.492   3.793
 3967TIP3    H211859   7.071   2.429   3.664
 3968TIP3   OH211860   2.982   0.445   0.072
 3968TIP3    H111861   3.035   0.387   0.016
 3968TIP3    H211862   2.970   0.396   0.153
 3969TIP3   OH211863   6.853   3.896   4.730
 3969TIP3    H111864   6.852   3.807   4.765
 3969TIP3    H211865   6.931   3.898   4.675
 3970TIP3   OH211866   1.543   0.849   0.595
 3970TIP3    H111867   1.448   0.857   0.598
 3970TIP3    H211868   1.563   0.839   0.502
 3971TIP3   OH211869   4.325   2.462   1.429
 3971TIP3    H111870   4.362   2.432   1.512
 3971TIP3    H211871   4.272   2.538   1.452
 3972TIP3   OH211872   0.070   7.254   5.630
 3972TIP3    H111873  -0.020   7.272   5.601
 3972TIP3    H211874   0.107   7.340   5.648
 3973TIP3   OH211875   1.391   2.756   4.419
 3973TIP3    H111876   1.477   2.777   4.457
 3973TIP3    H211877   1.408   2.680   4.363
 3974TIP3   OH211878   8.322   7.136   6.427
 3974TIP3    H111879   8.289   7.061   6.379
 3974TIP3    H211880   8.251   7.201   6.423
 3975TIP3   OH211881   0.370   0.375   2.535
 3975TIP3    H111882   0.436   0.413   2.593
 3975TIP3    H211883   0.334   0.449   2.487
 3976TIP3   OH211884   3.273   4.612   3.565
 3976TIP3    H111885   3.269   4.701   3.599
 3976TIP3    H211886   3.204   4.566   3.613
 3977TIP3   OH211887   5.156   0.128   5.904
 3977TIP3    H111888   5.246   0.131   5.874
 3977TIP3    H211889   5.159   0.161   5.994
 3978TIP3   OH211890   5.666   2.091   2.605
 3978TIP3    H111891   5.631   2.164   2.554
 3978TIP3    H211892   5.648   2.014   2.551
 3979TIP3   OH211893   7.264   1.798   3.188
 3979TIP3    H111894   7.303   1.710   3.189
 3979TIP3    H211895   7.312   1.844   3.119
 3980TIP3   OH211896   3.733   3.402   1.190
 3980TIP3    H111897   3.796   3.470   1.166
 3980TIP3    H211898   3.658   3.450   1.224
 3981TIP3   OH211899   0.892   4.037   1.141
 3981TIP3    H111900   0.865   4.065   1.229
 3981TIP3    H211901   0.910   3.944   1.151
 3982TIP3   OH211902   4.107   3.080   2.406
 3982TIP3    H111903   4.110   3.031   2.488
 3982TIP3    H211904   4.189   3.058   2.362
 3983TIP3   OH211905   5.021   2.242   0.508
 3983TIP3    H111906   5.054   2.271   0.423
 3983TIP3    H211907   5.066   2.159   0.524
 3984TIP3   OH211908   5.404   3.949   5.031
 3984TIP3    H111909   5.314   3.943   5.064
 3984TIP3    H211910   5.448   3.872   5.066
 3985TIP3   OH211911   0.587   2.204   1.438
 3985TIP3    H111912   0.649   2.160   1.496
 3985TIP3    H211913   0.503   2.162   1.458
 3986TIP3   OH211914   2.346   6.232   1.404
 3986TIP3    H111915   2.370   6.253   1.494
 3986TIP3    H211916   2.373   6.309   1.353
 3987TIP3   OH211917   7.155   3.161   5.713
 3987TIP3    H111918   7.086   3.098   5.690
 3987TIP3    H211919   7.120   3.208   5.789
 3988TIP3   OH211920   3.312   4.040   2.724
 3988TIP3    H111921   3.382   4.016   2.663
 3988TIP3    H211922   3.231   4.022   2.676
 3989TIP3   OH211923   7.434   5.429   4.398
 3989TIP3    H111924   7.392   5.448   4.481
 3989TIP3    H211925   7.454   5.335   4.401
 3990TIP3   OH211926   3.040   6.755   0.619
 3990TIP3    H111927   2.991   6.838   0.621
 3990TIP3    H211928   3.059   6.741   0.526
 3991TIP3   OH211929   5.672   6.082   3.855
 3991TIP3    H111930   5.759   6.043   3.863
 3991TIP3    H211931   5.688   6.177   3.855
 3992TIP3   OH211932   4.179   4.395   3.816
 3992TIP3    H111933   4.153   4.475   3.861
 3992TIP3    H211934   4.273   4.404   3.804
 3993TIP3   OH211935   7.871   7.104   2.295
 3993TIP3    H111936   7.879   7.180   2.353
 3993TIP3    H211937   7.818   7.042   2.345
 3994TIP3   OH211938   4.113   2.401   0.035
 3994TIP3    H111939   4.042   2.344   0.063
 3994TIP3    H211940   4.109   2.476   0.095
 3995TIP3   OH211941   7.524   0.280   2.228
 3995TIP3    H111942   7.496   0.365   2.196
 3995TIP3    H211943   7.571   0.241   2.153
 3996TIP3   OH211944   2.196   2.827   1.949
 3996TIP3    H111945   2.169   2.788   2.032
 3996TIP3    H211946   2.285   2.793   1.934
 3997TIP3   OH211947   0.861   2.689   5.700
 3997TIP3    H111948   0.886   2.654   5.785
 3997TIP3    H211949   0.777   2.647   5.680
 3998TIP3   OH211950   6.525   5.991   0.274
 3998TIP3    H111951   6.586   5.973   0.204
 3998TIP3    H211952   6.439   5.975   0.236
 3999TIP3   OH211953   2.366   4.704   5.472
 3999TIP3    H111954   2.341   4.759   5.546
 3999TIP3    H211955   2.456   4.731   5.451
 4000TIP3   OH211956   6.166   3.573   6.641
 4000TIP3    H111957   6.075   3.579   6.668
 4000TIP3    H211958   6.198   3.664   6.644
 4001TIP3   OH211959   3.316   4.637   0.484
 4001TIP3    H111960   3.308   4.568   0.417
 4001TIP3    H211961   3.352   4.591   0.560
 4002TIP3   OH211962   5.054   3.814   6.314
 4002TIP3    H111963   5.133   3.867   6.302
 4002TIP3    H211964   5.035   3.779   6.227
 4003TIP3   OH211965   7.434   3.355   6.454
 4003TIP3    H111966   7.413   3.437   6.498
 4003TIP3    H211967   7.370   3.348   6.384
 4004TIP3   OH211968   6.835   3.116   5.852
 4004TIP3    H111969   6.760   3.070   5.889
 4004TIP3    H211970   6.875   3.053   5.792
 4005TIP3   OH211971   3.449   2.588   0.633
 4005TIP3    H111972   3.526   2.537   0.608
 4005TIP3    H211973   3.389   2.578   0.559
 4006TIP3   OH211974   0.388   4.311   3.297
 4006TIP3    H111975   0.301   4.283   3.324
 4006TIP3    H211976   0.383   4.316   3.201
 4007TIP3   OH211977   3.667   6.408   0.023
 4007TIP3    H111978   3.711   6.357   0.091
 4007TIP3    H211979   3.682   6.499   0.048
 4008TIP3   OH211980   0.147   6.244   4.573
 4008TIP3    H111981   0.075   6.268   4.631
 4008TIP3    H211982   0.151   6.315   4.509
 4009TIP3   OH211983   6.047   1.611   5.730
 4009TIP3    H111984   6.133   1.576   5.750
 4009TIP3    H211985   5.988   1.566   5.790
 4010TIP3   OH211986   6.725   7.570   6.638
 4010TIP3    H111987   6.642   7.534   6.671
 4010TIP3    H211988   6.701   7.654   6.599
 4011TIP3   OH211989   2.332   4.423   0.732
 4011TIP3    H111990   2.317   4.336   0.768
 4011TIP3    H211991   2.368   4.407   0.645
 4012TIP3   OH211992   4.599   2.807   5.627
 4012TIP3    H111993   4.521   2.778   5.675
 4012TIP3    H211994   4.658   2.732   5.631
 4013TIP3   OH211995   3.471   3.609   5.638
 4013TIP3    H111996   3.455   3.642   5.726
 4013TIP3    H211997   3.461   3.514   5.646
 4014TIP3   OH211998   5.691   5.360   5.347
 4014TIP3    H111999   5.701   5.454   5.359
 4014TIP3    H212000   5.629   5.351   5.275
 4015TIP3   OH212001   5.103   7.347   3.324
 4015TIP3    H112002   5.022   7.296   3.320
 4015TIP3    H212003   5.163   7.291   3.374
 4016TIP3   OH212004   3.472   7.014   5.937
 4016TIP3    H112005   3.413   7.055   6.000
 4016TIP3    H212006   3.502   6.935   5.981
 4017TIP3   OH212007   4.922   1.655   0.782
 4017TIP3    H112008   4.931   1.579   0.840
 4017TIP3    H212009   4.957   1.626   0.698
 4018TIP3   OH212010   2.343   1.671   0.110
 4018TIP3    H112011   2.394   1.621   0.174
 4018TIP3    H212012   2.317   1.606   0.045
 4019TIP3   OH212013   4.908   2.400   1.855
 4019TIP3    H112014   4.959   2.468   1.810
 4019TIP3    H212015   4.839   2.448   1.901
 4020TIP3   OH212016   3.345   1.581   2.449
 4020TIP3    H112017   3.435   1.600   2.474
 4020TIP3    H212018   3.323   1.501   2.497
 4021TIP3   OH212019   4.483   4.352   1.231
 4021TIP3    H112020   4.567   4.338   1.275
 4021TIP3    H212021   4.507   4.387   1.145
 4022TIP3   OH212022   5.526   1.310   6.381
 4022TIP3    H112023   5.610   1.285   6.343
 4022TIP3    H212024   5.547   1.328   6.473
 4023TIP3   OH212025   3.625   3.629   2.104
 4023TIP3    H112026   3.714   3.596   2.112
 4023TIP3    H212027   3.601   3.614   2.013
 4024TIP3   OH212028   7.006   4.359   1.835
 4024TIP3    H112029   7.090   4.395   1.864
 4024TIP3    H212030   6.941   4.398   1.893
 4025TIP3   OH212031   3.700   7.014   1.767
 4025TIP3    H112032   3.758   6.938   1.774
 4025TIP3    H212033   3.626   6.992   1.824
 4026TIP3   OH212034   0.202   3.815   5.771
 4026TIP3    H112035   0.219   3.784   5.860
 4026TIP3    H212036   0.278   3.867   5.748
 4027TIP3   OH212037   1.693   1.180   4.609
 4027TIP3    H112038   1.623   1.128   4.649
 4027TIP3    H212039   1.760   1.187   4.677
 4028TIP3   OH212040   7.988   2.864   3.042
 4028TIP3    H112041   7.957   2.942   2.994
 4028TIP3    H212042   7.929   2.794   3.015
 4029TIP3   OH212043   0.857   0.450   6.020
 4029TIP3    H112044   0.766   0.430   6.042
 4029TIP3    H212045   0.852   0.513   5.949
 4030TIP3   OH212046   1.494   2.229   3.515
 4030TIP3    H112047   1.579   2.247   3.475
 4030TIP3    H212048   1.436   2.296   3.479
 4031TIP3   OH212049   7.250   5.760   3.760
 4031TIP3    H112050   7.208   5.675   3.745
 4031TIP3    H212051   7.344   5.741   3.753
 4032TIP3   OH212052   1.742   3.335   1.240
 4032TIP3    H112053   1.707   3.370   1.158
 4032TIP3    H212054   1.792   3.258   1.213
 4033TIP3   OH212055   1.269   4.201   6.687
 4033TIP3    H112056   1.235   4.114   6.707
 4033TIP3    H212057   1.310   4.231   6.768
 4034TIP3   OH212058   7.588   4.203   3.714
 4034TIP3    H112059   7.678   4.184   3.740
 4034TIP3    H212060   7.540   4.211   3.797
 4035TIP3   OH212061   4.850   5.369   1.018
 4035TIP3    H112062   4.822   5.280   0.998
 4035TIP3    H212063   4.932   5.380   0.970
 4036TIP3   OH212064   6.753   5.972   1.249
 4036TIP3    H112065   6.761   6.064   1.224
 4036TIP3    H212066   6.843   5.939   1.252
 4037TIP3   OH212067   2.355   6.948   3.940
 4037TIP3    H112068   2.307   6.950   3.857
 4037TIP3    H212069   2.420   6.878   3.929
 4038TIP3   OH212070   5.454   0.686   2.962
 4038TIP3    H112071   5.528   0.626   2.976
 4038TIP3    H212072   5.495   0.765   2.927
 4039TIP3   OH212073   7.057   6.556   1.871
 4039TIP3    H112074   6.993   6.603   1.924
 4039TIP3    H212075   7.091   6.488   1.929
 4040TIP3   OH212076   3.560   2.788   4.357
 4040TIP3    H112077   3.650   2.786   4.325
 4040TIP3    H212078   3.566   2.754   4.446
 4041TIP3   OH212079   2.577   0.527   5.251
 4041TIP3    H112080   2.665   0.490   5.247
 4041TIP3    H212081   2.550   0.515   5.342
 4042TIP3   OH212082   7.480   2.090   3.782
 4042TIP3    H112083   7.457   2.177   3.814
 4042TIP3    H212084   7.524   2.048   3.855
 4043TIP3   OH212085   7.430   6.457   6.321
 4043TIP3    H112086   7.357   6.490   6.269
 4043TIP3    H212087   7.390   6.420   6.399
 4044TIP3   OH212088   3.404   7.604   6.513
 4044TIP3    H112089   3.394   7.514   6.542
 4044TIP3    H212090   3.427   7.653   6.592
 4045TIP3   OH212091   1.948   4.126   0.826
 4045TIP3    H112092   1.884   4.090   0.887
 4045TIP3    H212093   2.032   4.115   0.871
 4046TIP3   OH212094   2.805   0.416   3.908
 4046TIP3    H112095   2.879   0.359   3.891
 4046TIP3    H212096   2.731   0.376   3.862
 4047TIP3   OH212097   5.442   6.567   5.465
 4047TIP3    H112098   5.407   6.616   5.539
 4047TIP3    H212099   5.537   6.583   5.467
 4048TIP3   OH212100   0.958   1.259   3.997
 4048TIP3    H112101   1.040   1.264   3.947
 4048TIP3    H212102   0.892   1.233   3.932
 4049TIP3   OH212103   0.887   7.691   5.171
 4049TIP3    H112104   0.823   7.637   5.217
 4049TIP3    H212105   0.967   7.681   5.223
 4050TIP3   OH212106   2.075   7.481   2.406
 4050TIP3    H112107   2.049   7.540   2.335
 4050TIP3    H212108   2.015   7.407   2.398
 4051TIP3   OH212109   8.292   1.876   2.474
 4051TIP3    H112110   8.251   1.908   2.554
 4051TIP3    H212111   8.296   1.781   2.484
 4052TIP3   OH212112   4.479   3.051   5.837
 4052TIP3    H112113   4.419   2.990   5.795
 4052TIP3    H212114   4.550   3.062   5.775
 4053TIP3   OH212115   4.211   5.752   0.525
 4053TIP3    H112116   4.238   5.690   0.593
 4053TIP3    H212117   4.117   5.760   0.534
 4054TIP3   OH212118   6.313   3.843   1.340
 4054TIP3    H112119   6.269   3.917   1.382
 4054TIP3    H212120   6.243   3.797   1.294
 4055TIP3   OH212121   6.947   1.102   5.120
 4055TIP3    H112122   6.888   1.033   5.151
 4055TIP3    H212123   6.918   1.181   5.166
 4056TIP3   OH212124   3.021   5.497   3.963
 4056TIP3    H112125   3.032   5.428   4.029
 4056TIP3    H212126   3.092   5.558   3.981
 4057TIP3   OH212127   7.709   3.726   4.151
 4057TIP3    H112128   7.762   3.792   4.106
 4057TIP3    H212129   7.754   3.643   4.133
 4058TIP3   OH212130   1.970   1.305   5.918
 4058TIP3    H112131   1.916   1.286   5.995
 4058TIP3    H212132   2.051   1.255   5.933
 4059TIP3   OH212133   3.444   3.314   5.691
 4059TIP3    H112134   3.532   3.276   5.694
 4059TIP3    H212135   3.411   3.305   5.781
 4060TIP3   OH212136   4.235   1.428   4.074
 4060TIP3    H112137   4.288   1.502   4.101
 4060TIP3    H212138   4.160   1.429   4.134
 4061TIP3   OH212139   2.966   1.108   0.047
 4061TIP3    H112140   3.001   1.090  -0.040
 4061TIP3    H212141   2.903   1.037   0.062
 4062TIP3   OH212142   5.361   4.939   5.527
 4062TIP3    H112143   5.426   4.993   5.572
 4062TIP3    H212144   5.303   4.909   5.597
 4063TIP3   OH212145   0.678   1.813   3.861
 4063TIP3    H112146   0.607   1.846   3.806
 4063TIP3    H212147   0.671   1.718   3.855
 4064TIP3   OH212148   2.650   6.979   3.133
 4064TIP3    H112149   2.619   7.065   3.104
 4064TIP3    H212150   2.570   6.927   3.141
 4065TIP3   OH212151   6.523   2.620   4.514
 4065TIP3    H112152   6.481   2.575   4.587
 4065TIP3    H212153   6.602   2.658   4.552
 4066TIP3   OH212154   3.685   4.788   1.821
 4066TIP3    H112155   3.759   4.801   1.762
 4066TIP3    H212156   3.689   4.862   1.882
 4067TIP3   OH212157   4.717   5.274   2.702
 4067TIP3    H112158   4.665   5.260   2.623
 4067TIP3    H212159   4.731   5.369   2.704
 4068TIP3   OH212160   2.323   1.899   5.833
 4068TIP3    H112161   2.374   1.979   5.844
 4068TIP3    H212162   2.373   1.848   5.770
 4069TIP3   OH212163   4.982   6.084   4.556
 4069TIP3    H112164   5.076   6.066   4.551
 4069TIP3    H212165   4.960   6.071   4.648
 4070TIP3   OH212166   7.309   7.481   5.371
 4070TIP3    H112167   7.380   7.455   5.312
 4070TIP3    H212168   7.250   7.405   5.372
 4071TIP3   OH212169   8.130   0.205   5.275
 4071TIP3    H112170   8.201   0.228   5.215
 4071TIP3    H212171   8.171   0.154   5.344
 4072TIP3   OH212172   8.039   0.266   1.461
 4072TIP3    H112173   8.127   0.258   1.496
 4072TIP3    H212174   7.997   0.334   1.514
 4073TIP3   OH212175   5.317   4.933   5.234
 4073TIP3    H112176   5.223   4.920   5.225
 4073TIP3    H212177   5.331   4.943   5.328
 4074TIP3   OH212178   6.004   1.296   3.108
 4074TIP3    H112179   6.094   1.286   3.139
 4074TIP3    H212180   5.980   1.385   3.131
 4075TIP3   OH212181   1.865   7.331   0.790
 4075TIP3    H112182   1.880   7.375   0.874
 4075TIP3    H212183   1.944   7.347   0.740
 4076TIP3   OH212184   7.930   6.379   4.528
 4076TIP3    H112185   8.017   6.419   4.518
 4076TIP3    H212186   7.929   6.307   4.465
 4077TIP3   OH212187   4.045   2.374   4.624
 4077TIP3    H112188   4.000   2.294   4.653
 4077TIP3    H212189   4.074   2.354   4.535
 4078TIP3   OH212190   4.713   1.017   0.709
 4078TIP3    H112191   4.732   0.936   0.660
 4078TIP3    H212192   4.727   0.993   0.801
 4079TIP3   OH212193   4.905   7.232   0.420
 4079TIP3    H112194   4.889   7.314   0.465
 4079TIP3    H212195   4.980   7.194   0.467
 4080TIP3   OH212196   4.051   5.547   5.771
 4080TIP3    H112197   4.004   5.512   5.846
 4080TIP3    H212198   3.992   5.532   5.697
 4081TIP3   OH212199   4.529   7.817   5.435
 4081TIP3    H112200   4.520   7.726   5.408
 4081TIP3    H212201   4.574   7.860   5.363
 4082TIP3   OH212202   1.769   1.851   6.518
 4082TIP3    H112203   1.831   1.784   6.489
 4082TIP3    H212204   1.683   1.814   6.497
 4083TIP3   OH212205   5.391   7.653   1.476
 4083TIP3    H112206   5.343   7.659   1.559
 4083TIP3    H212207   5.467   7.599   1.496
 4084TIP3   OH212208   1.609   4.464   5.707
 4084TIP3    H112209   1.694   4.432   5.678
 4084TIP3    H212210   1.547   4.434   5.640
 4085TIP3   OH212211   0.353   1.014   4.352
 4085TIP3    H112212   0.373   0.920   4.349
 4085TIP3    H212213   0.258   1.017   4.364
 4086TIP3   OH212214   3.326   6.572   4.552
 4086TIP3    H112215   3.350   6.664   4.556
 4086TIP3    H212216   3.409   6.525   4.566
 4087TIP3   OH212217   2.652   5.719   4.062
 4087TIP3    H112218   2.638   5.773   3.984
 4087TIP3    H212219   2.593   5.755   4.128
 4088TIP3   OH212220   1.188   1.391   1.624
 4088TIP3    H112221   1.242   1.470   1.616
 4088TIP3    H212222   1.227   1.329   1.563
 4089TIP3   OH212223   3.846   5.219   1.136
 4089TIP3    H112224   3.848   5.127   1.161
 4089TIP3    H212225   3.777   5.225   1.071
 4090TIP3   OH212226   0.855   2.779   0.066
 4090TIP3    H112227   0.855   2.792   0.160
 4090TIP3    H212228   0.822   2.690   0.054
 4091TIP3   OH212229   0.917   3.792   6.065
 4091TIP3    H112230   0.871   3.710   6.085
 4091TIP3    H212231   0.921   3.838   6.149
 4092TIP3   OH212232   0.685   6.114   0.899
 4092TIP3    H112233   0.691   6.093   0.993
 4092TIP3    H212234   0.764   6.164   0.881
 4093TIP3   OH212235   6.088   6.261   0.883
 4093TIP3    H112236   6.017   6.197   0.888
 4093TIP3    H212237   6.055   6.329   0.825
 4094TIP3   OH212238   2.409   4.118   2.770
 4094TIP3    H112239   2.486   4.172   2.784
 4094TIP3    H212240   2.336   4.180   2.764
 4095TIP3   OH212241   2.928   6.357   6.377
 4095TIP3    H112242   2.935   6.289   6.445
 4095TIP3    H212243   2.835   6.379   6.374
 4096TIP3   OH212244   3.434   1.904   5.258
 4096TIP3    H112245   3.408   1.863   5.176
 4096TIP3    H212246   3.526   1.926   5.246
 4097TIP3   OH212247   5.883   3.738   0.947
 4097TIP3    H112248   5.877   3.687   0.866
 4097TIP3    H212249   5.975   3.761   0.954
 4098TIP3   OH212250   3.157   3.543   2.440
 4098TIP3    H112251   3.165   3.624   2.491
 4098TIP3    H212252   3.241   3.499   2.450
 4099TIP3   OH212253   5.413   5.951   5.593
 4099TIP3    H112254   5.442   5.979   5.506
 4099TIP3    H212255   5.474   5.880   5.617
 4100TIP3   OH212256   0.677   3.146   4.353
 4100TIP3    H112257   0.736   3.220   4.342
 4100TIP3    H212258   0.597   3.183   4.388
 4101TIP3   OH212259   1.517   1.240   1.225
 4101TIP3    H112260   1.423   1.220   1.226
 4101TIP3    H212261   1.557   1.167   1.178
 4102TIP3   OH212262   4.294   5.444   4.677
 4102TIP3    H112263   4.297   5.352   4.651
 4102TIP3    H212264   4.359   5.486   4.620
 4103TIP3   OH212265   6.663   3.182   1.290
 4103TIP3    H112266   6.680   3.125   1.216
 4103TIP3    H212267   6.749   3.201   1.328
 4104TIP3   OH212268   4.731   5.616   0.987
 4104TIP3    H112269   4.762   5.526   0.991
 4104TIP3    H212270   4.718   5.641   1.079
 4105TIP3   OH212271   6.425   4.720  -0.005
 4105TIP3    H112272   6.490   4.731   0.065
 4105TIP3    H212273   6.349   4.680   0.038
 4106TIP3   OH212274   5.830   0.657   6.566
 4106TIP3    H112275   5.756   0.626   6.619
 4106TIP3    H212276   5.798   0.653   6.476
 4107TIP3   OH212277   7.212   2.278   5.248
 4107TIP3    H112278   7.178   2.350   5.196
 4107TIP3    H212279   7.246   2.215   5.184
 4108TIP3   OH212280   3.798   5.698   2.832
 4108TIP3    H112281   3.726   5.654   2.787
 4108TIP3    H212282   3.875   5.680   2.777
 4109TIP3   OH212283   6.858   4.848   1.031
 4109TIP3    H112284   6.915   4.774   1.052
 4109TIP3    H212285   6.848   4.844   0.936
 4110TIP3   OH212286   7.516   5.101   0.528
 4110TIP3    H112287   7.602   5.142   0.527
 4110TIP3    H212288   7.534   5.007   0.532
 4111TIP3   OH212289   6.429   7.114   2.745
 4111TIP3    H112290   6.346   7.162   2.756
 4111TIP3    H212291   6.419   7.035   2.798
 4112TIP3   OH212292   6.166   0.541   1.276
 4112TIP3    H112293   6.086   0.559   1.326
 4112TIP3    H212294   6.168   0.446   1.269
 4113TIP3   OH212295   3.416   4.701   1.301
 4113TIP3    H112296   3.340   4.759   1.311
 4113TIP3    H212297   3.389   4.638   1.234
 4114TIP3   OH212298   3.802   0.080   0.214
 4114TIP3    H112299   3.727   0.081   0.274
 4114TIP3    H212300   3.868   0.026   0.258
 4115TIP3   OH212301   7.678   2.964   4.034
 4115TIP3    H112302   7.602   2.942   3.980
 4115TIP3    H212303   7.703   2.880   4.074
 4116TIP3   OH212304   1.855   4.677   0.539
 4116TIP3    H112305   1.776   4.659   0.487
 4116TIP3    H212306   1.829   4.750   0.596
 4117TIP3   OH212307   1.598   1.731   1.557
 4117TIP3    H112308   1.647   1.767   1.630
 4117TIP3    H212309   1.642   1.764   1.479
 4118TIP3   OH212310   6.560   0.112   6.139
 4118TIP3    H112311   6.613   0.180   6.179
 4118TIP3    H212312   6.618   0.069   6.077
 4119TIP3   OH212313   7.712   5.107   2.111
 4119TIP3    H112314   7.792   5.073   2.071
 4119TIP3    H212315   7.660   5.029   2.132
 4120TIP3   OH212316   4.921   4.466   2.473
 4120TIP3    H112317   4.867   4.545   2.472
 4120TIP3    H212318   5.007   4.495   2.443
 4121TIP3   OH212319   0.290   0.628   5.774
 4121TIP3    H112320   0.370   0.578   5.755
 4121TIP3    H212321   0.270   0.672   5.691
 4122TIP3   OH212322   5.109   4.068   0.681
 4122TIP3    H112323   5.073   4.016   0.609
 4122TIP3    H212324   5.166   4.007   0.728
 4123TIP3   OH212325   1.483   2.227   4.902
 4123TIP3    H112326   1.505   2.319   4.890
 4123TIP3    H212327   1.557   2.180   4.863
 4124TIP3   OH212328   3.293   3.929   5.083
 4124TIP3    H112329   3.262   3.877   5.158
 4124TIP3    H212330   3.239   3.898   5.010
 4125TIP3   OH212331   4.671   1.406   4.818
 4125TIP3    H112332   4.655   1.322   4.860
 4125TIP3    H212333   4.656   1.390   4.725
 4126TIP3   OH212334   3.033   2.520   2.973
 4126TIP3    H112335   3.102   2.502   3.037
 4126TIP3    H212336   3.067   2.484   2.891
 4127TIP3   OH212337   4.494   7.183   5.975
 4127TIP3    H112338   4.551   7.128   5.921
 4127TIP3    H212339   4.417   7.129   5.990
 4128TIP3   OH212340   0.111   1.696   6.401
 4128TIP3    H112341   0.019   1.671   6.390
 4128TIP3    H212342   0.107   1.785   6.437
 4129TIP3   OH212343   0.903   3.256   2.933
 4129TIP3    H112344   0.969   3.249   2.864
 4129TIP3    H212345   0.820   3.235   2.890
 4130TIP3   OH212346   4.514   0.044   3.539
 4130TIP3    H112347   4.422   0.033   3.514
 4130TIP3    H212348   4.519   0.133   3.574
 4131TIP3   OH212349   5.299   2.095   0.193
 4131TIP3    H112350   5.311   2.023   0.255
 4131TIP3    H212351   5.387   2.114   0.161
 4132TIP3   OH212352   5.389   1.771   3.812
 4132TIP3    H112353   5.444   1.784   3.735
 4132TIP3    H212354   5.444   1.795   3.886
 4133TIP3   OH212355   0.492   4.202   6.128
 4133TIP3    H112356   0.585   4.224   6.128
 4133TIP3    H212357   0.456   4.248   6.052
 4134TIP3   OH212358   3.097   0.851   1.174
 4134TIP3    H112359   3.022   0.791   1.184
 4134TIP3    H212360   3.094   0.878   1.083
 4135TIP3   OH212361   6.901   1.929   1.697
 4135TIP3    H112362   6.979   1.970   1.735
 4135TIP3    H212363   6.936   1.860   1.640
 4136TIP3   OH212364   6.883   5.231   6.426
 4136TIP3    H112365   6.861   5.168   6.357
 4136TIP3    H212366   6.901   5.176   6.503
 4137TIP3   OH212367   6.369   0.937   6.756
 4137TIP3    H112368   6.412   0.878   6.817
 4137TIP3    H212369   6.437   1.000   6.731
 4138TIP3   OH212370   0.229   1.497   2.753
 4138TIP3    H112371   0.298   1.432   2.738
 4138TIP3    H212372   0.151   1.445   2.772
 4139TIP3   OH212373   3.464   3.988   3.431
 4139TIP3    H112374   3.419   4.070   3.450
 4139TIP3    H212375   3.445   3.971   3.339
 4140TIP3   OH212376   7.207   7.201   0.658
 4140TIP3    H112377   7.279   7.149   0.695
 4140TIP3    H212378   7.139   7.136   0.639
 4141TIP3   OH212379   0.064   0.867   3.859
 4141TIP3    H112380  -0.009   0.875   3.921
 4141TIP3    H212381   0.065   0.951   3.813
 4142TIP3   OH212382   7.925   7.729   5.779
 4142TIP3    H112383   7.847   7.765   5.737
 4142TIP3    H212384   7.960   7.666   5.717
 4143TIP3   OH212385   7.015   1.970   6.007
 4143TIP3    H112386   7.058   2.002   6.086
 4143TIP3    H212387   7.013   2.045   5.948
 4144TIP3   OH212388   1.313   3.317   2.093
 4144TIP3    H112389   1.334   3.390   2.152
 4144TIP3    H212390   1.278   3.249   2.150
 4145TIP3   OH212391   0.868   2.321   5.486
 4145TIP3    H112392   0.773   2.332   5.491
 4145TIP3    H212393   0.897   2.319   5.577
 4146TIP3   OH212394   2.495   5.495   6.786
 4146TIP3    H112395   2.505   5.569   6.725
 4146TIP3    H212396   2.413   5.453   6.760
 4147TIP3   OH212397   7.124   0.684   3.483
 4147TIP3    H112398   7.080   0.731   3.553
 4147TIP3    H212399   7.187   0.627   3.528
 4148TIP3   OH212400   2.685   6.491   5.499
 4148TIP3    H112401   2.668   6.552   5.428
 4148TIP3    H212402   2.704   6.408   5.456
 4149TIP3   OH212403   0.650   3.764   1.003
 4149TIP3    H112404   0.600   3.683   1.010
 4149TIP3    H212405   0.634   3.795   0.913
 4150TIP3   OH212406   5.622   1.403   5.986
 4150TIP3    H112407   5.648   1.363   6.069
 4150TIP3    H212408   5.527   1.390   5.982
 4151TIP3   OH212409   1.688   6.273   6.350
 4151TIP3    H112410   1.759   6.209   6.343
 4151TIP3    H212411   1.609   6.223   6.332
 4152TIP3   OH212412   1.556   0.380   5.929
 4152TIP3    H112413   1.588   0.345   6.012
 4152TIP3    H212414   1.586   0.470   5.927
 4153TIP3   OH212415   3.377   2.688   5.779
 4153TIP3    H112416   3.354   2.626   5.848
 4153TIP3    H212417   3.293   2.713   5.740
 4154TIP3   OH212418   4.420   4.583   3.910
 4154TIP3    H112419   4.334   4.548   3.934
 4154TIP3    H212420   4.406   4.676   3.896
 4155TIP3   OH212421   6.427   6.015   6.183
 4155TIP3    H112422   6.454   6.105   6.202
 4155TIP3    H212423   6.480   5.962   6.242
 4156TIP3   OH212424   2.244   0.870   3.117
 4156TIP3    H112425   2.246   0.929   3.193
 4156TIP3    H212426   2.160   0.888   3.075
 4157TIP3   OH212427   1.156   0.886   6.472
 4157TIP3    H112428   1.209   0.816   6.510
 4157TIP3    H212429   1.204   0.966   6.493
 4158TIP3   OH212430   5.868   7.481   2.478
 4158TIP3    H112431   5.799   7.485   2.544
 4158TIP3    H212432   5.823   7.489   2.395
 4159TIP3   OH212433   4.897   1.095   3.685
 4159TIP3    H112434   4.979   1.125   3.725
 4159TIP3    H212435   4.855   1.042   3.753
 4160TIP3   OH212436   1.050   2.550   0.054
 4160TIP3    H112437   0.994   2.505   0.117
 4160TIP3    H212438   1.048   2.641   0.081
 4161TIP3   OH212439   0.939   5.290   3.721
 4161TIP3    H112440   0.893   5.211   3.690
 4161TIP3    H212441   0.880   5.362   3.701
 4162TIP3   OH212442   2.468   3.612   5.876
 4162TIP3    H112443   2.465   3.630   5.782
 4162TIP3    H212444   2.518   3.530   5.883
 4163TIP3   OH212445   3.680   5.114   4.262
 4163TIP3    H112446   3.629   5.195   4.264
 4163TIP3    H212447   3.756   5.132   4.318
 4164TIP3   OH212448   0.375   4.510   4.641
 4164TIP3    H112449   0.443   4.460   4.686
 4164TIP3    H212450   0.383   4.598   4.676
 4165TIP3   OH212451   5.339   2.687   1.576
 4165TIP3    H112452   5.412   2.678   1.515
 4165TIP3    H212453   5.271   2.731   1.526
 4166TIP3   OH212454   2.980   6.411   1.892
 4166TIP3    H112455   2.954   6.373   1.807
 4166TIP3    H212456   3.069   6.443   1.878
 4167TIP3   OH212457   6.048   4.390   2.655
 4167TIP3    H112458   5.977   4.374   2.718
 4167TIP3    H212459   6.095   4.307   2.651
 4168TIP3   OH212460   0.613   6.204   6.741
 4168TIP3    H112461   0.586   6.287   6.703
 4168TIP3    H212462   0.534   6.150   6.740
 4169TIP3   OH212463   1.688   2.588   2.477
 4169TIP3    H112464   1.702   2.532   2.554
 4169TIP3    H212465   1.612   2.549   2.433
 4170TIP3   OH212466   5.189   7.823   6.689
 4170TIP3    H112467   5.104   7.779   6.698
 4170TIP3    H212468   5.187   7.863   6.603
 4171TIP3   OH212469   6.252   3.529   4.896
 4171TIP3    H112470   6.176   3.479   4.926
 4171TIP3    H212471   6.222   3.620   4.898
 4172TIP3   OH212472   4.623   5.643   3.807
 4172TIP3    H112473   4.642   5.737   3.808
 4172TIP3    H212474   4.693   5.604   3.859
 4173TIP3   OH212475   4.290   5.547   3.477
 4173TIP3    H112476   4.204   5.511   3.460
 4173TIP3    H212477   4.326   5.567   3.391
 4174TIP3   OH212478   2.681   1.801   4.672
 4174TIP3    H112479   2.712   1.833   4.756
 4174TIP3    H212480   2.601   1.851   4.655
 4175TIP3   OH212481   7.804   2.017   3.207
 4175TIP3    H112482   7.835   2.091   3.154
 4175TIP3    H212483   7.821   2.044   3.297
 4176TIP3   OH212484   7.333   7.428   0.954
 4176TIP3    H112485   7.249   7.415   0.912
 4176TIP3    H212486   7.368   7.339   0.967
 4177TIP3   OH212487   2.896   3.729   1.899
 4177TIP3    H112488   2.860   3.699   1.815
 4177TIP3    H212489   2.963   3.664   1.920
 4178TIP3   OH212490   0.230   2.105   4.932
 4178TIP3    H112491   0.179   2.127   4.854
 4178TIP3    H212492   0.297   2.173   4.937
 4179TIP3   OH212493   0.909   3.810   4.217
 4179TIP3    H112494   0.824   3.765   4.222
 4179TIP3    H212495   0.892   3.889   4.166
 4180TIP3   OH212496   3.034   1.780   0.265
 4180TIP3    H112497   3.104   1.725   0.298
 4180TIP3    H212498   3.069   1.817   0.183
 4181TIP3   OH212499   0.567   2.072   6.167
 4181TIP3    H112500   0.594   2.064   6.258
 4181TIP3    H212501   0.645   2.103   6.121
 4182TIP3   OH212502   0.814   6.113   1.132
 4182TIP3    H112503   0.807   6.077   1.221
 4182TIP3    H212504   0.833   6.206   1.145
 4183TIP3   OH212505   5.436   7.303   3.665
 4183TIP3    H112506   5.507   7.252   3.705
 4183TIP3    H212507   5.369   7.308   3.734
 4184TIP3   OH212508   0.106   5.798   0.173
 4184TIP3    H112509   0.098   5.795   0.078
 4184TIP3    H212510   0.016   5.798   0.205
 4185TIP3   OH212511   1.760   4.369   1.618
 4185TIP3    H112512   1.674   4.410   1.605
 4185TIP3    H212513   1.795   4.410   1.697
 4186TIP3   OH212514   3.864   6.788   1.777
 4186TIP3    H112515   3.847   6.817   1.867
 4186TIP3    H212516   3.859   6.692   1.782
 4187TIP3   OH212517   7.667   7.314   6.665
 4187TIP3    H112518   7.600   7.348   6.724
 4187TIP3    H212519   7.619   7.291   6.585
 4188TIP3   OH212520   2.891   1.672   1.954
 4188TIP3    H112521   2.800   1.671   1.983
 4188TIP3    H212522   2.903   1.757   1.912
 4189TIP3   OH212523   5.624   3.606   0.396
 4189TIP3    H112524   5.627   3.674   0.328
 4189TIP3    H212525   5.687   3.635   0.462
 4190TIP3   OH212526   7.649   4.704   1.407
 4190TIP3    H112527   7.721   4.650   1.439
 4190TIP3    H212528   7.691   4.772   1.355
 4191TIP3   OH212529   2.752   3.374   6.612
 4191TIP3    H112530   2.794   3.309   6.668
 4191TIP3    H212531   2.667   3.390   6.653
 4192TIP3   OH212532   2.254   5.006   2.194
 4192TIP3    H112533   2.238   4.978   2.104
 4192TIP3    H212534   2.188   5.073   2.211
 4193TIP3   OH212535   0.508   5.315   0.621
 4193TIP3    H112536   0.498   5.229   0.662
 4193TIP3    H212537   0.581   5.305   0.560
 4194TIP3   OH212538   4.563   5.267   2.476
 4194TIP3    H112539   4.513   5.203   2.425
 4194TIP3    H212540   4.496   5.318   2.522
 4195TIP3   OH212541   1.194   2.762   3.331
 4195TIP3    H112542   1.271   2.736   3.280
 4195TIP3    H212543   1.120   2.747   3.274
 4196TIP3   OH212544   3.501   2.822   2.922
 4196TIP3    H112545   3.532   2.912   2.916
 4196TIP3    H212546   3.521   2.784   2.836
 4197TIP3   OH212547   3.551   0.378   3.208
 4197TIP3    H112548   3.554   0.445   3.140
 4197TIP3    H212549   3.623   0.401   3.267
 4198TIP3   OH212550   1.882   4.829   6.705
 4198TIP3    H112551   1.822   4.903   6.696
 4198TIP3    H212552   1.824   4.752   6.715
 4199TIP3   OH212553   6.664   4.022   5.197
 4199TIP3    H112554   6.739   3.973   5.163
 4199TIP3    H212555   6.696   4.111   5.206
 4200TIP3   OH212556   7.717   4.905   6.758
 4200TIP3    H112557   7.760   4.914   6.674
 4200TIP3    H212558   7.734   4.814   6.784
 4201TIP3   OH212559   1.883   3.441   0.335
 4201TIP3    H112560   1.828   3.485   0.271
 4201TIP3    H212561   1.831   3.443   0.416
 4202TIP3   OH212562   5.147   6.997   5.761
 4202TIP3    H112563   5.107   6.927   5.813
 4202TIP3    H212564   5.240   6.975   5.758
 4203TIP3   OH212565   7.971   0.485   5.058
 4203TIP3    H112566   8.045   0.446   5.011
 4203TIP3    H212567   7.903   0.418   5.055
 4204TIP3   OH212568   8.005   5.174   0.448
 4204TIP3    H112569   8.005   5.213   0.361
 4204TIP3    H212570   7.920   5.196   0.485
 4205TIP3   OH212571   2.832   2.629   2.094
 4205TIP3    H112572   2.917   2.598   2.123
 4205TIP3    H212573   2.825   2.600   2.004
 4206TIP3   OH212574   5.930   2.084   0.679
 4206TIP3    H112575   5.952   2.177   0.672
 4206TIP3    H212576   5.853   2.073   0.623
 4207TIP3   OH212577   7.080   4.926   0.713
 4207TIP3    H112578   7.146   4.862   0.687
 4207TIP3    H212579   7.129   4.994   0.760
 4208TIP3   OH212580   8.213   7.193   4.559
 4208TIP3    H112581   8.144   7.258   4.545
 4208TIP3    H212582   8.271   7.203   4.484
 4209TIP3   OH212583   5.311   7.405   2.482
 4209TIP3    H112584   5.359   7.365   2.409
 4209TIP3    H212585   5.360   7.379   2.560
 4210TIP3   OH212586   0.947   1.196   2.081
 4210TIP3    H112587   0.875   1.133   2.088
 4210TIP3    H212588   1.019   1.145   2.044
 4211TIP3   OH212589   7.265   4.662   6.331
 4211TIP3    H112590   7.339   4.658   6.271
 4211TIP3    H212591   7.305   4.667   6.418
 4212TIP3   OH212592   1.545   4.493   1.117
 4212TIP3    H112593   1.514   4.570   1.165
 4212TIP3    H212594   1.471   4.432   1.119
 4213TIP3   OH212595   4.403   4.748   2.200
 4213TIP3    H112596   4.310   4.772   2.205
 4213TIP3    H212597   4.450   4.831   2.198
 4214TIP3   OH212598   7.104   5.018   5.865
 4214TIP3    H112599   7.071   5.056   5.946
 4214TIP3    H212600   7.114   5.093   5.806
 4215TIP3   OH212601   2.877   4.893   1.134
 4215TIP3    H112602   2.796   4.924   1.173
 4215TIP3    H212603   2.944   4.953   1.167
 4216TIP3   OH212604   2.105   5.460   2.635
 4216TIP3    H112605   2.050   5.456   2.556
 4216TIP3    H212606   2.109   5.369   2.665
 4217TIP3   OH212607   5.486   2.679   2.870
 4217TIP3    H112608   5.488   2.602   2.813
 4217TIP3    H212609   5.576   2.687   2.903
 4218TIP3   OH212610   7.526   1.545   4.950
 4218TIP3    H112611   7.581   1.492   5.008
 4218TIP3    H212612   7.510   1.490   4.874
 4219TIP3   OH212613   7.529   4.472   2.656
 4219TIP3    H112614   7.592   4.499   2.590
 4219TIP3    H212615   7.576   4.478   2.739
 4220TIP3   OH212616   2.620   6.785   2.037
 4220TIP3    H112617   2.661   6.718   2.093
 4220TIP3    H212618   2.530   6.754   2.026
 4221TIP3   OH212619   3.476   4.768   5.482
 4221TIP3    H112620   3.482   4.697   5.418
 4221TIP3    H212621   3.388   4.804   5.470
 4222TIP3   OH212622   7.046   5.715   3.213
 4222TIP3    H112623   6.999   5.654   3.156
 4222TIP3    H212624   7.069   5.788   3.156
 4223TIP3   OH212625   1.627   6.968   0.145
 4223TIP3    H112626   1.673   6.885   0.135
 4223TIP3    H212627   1.598   6.991   0.057
 4224TIP3   OH212628   0.369   7.616   5.433
 4224TIP3    H112629   0.417   7.546   5.389
 4224TIP3    H212630   0.296   7.572   5.477
 4225TIP3   OH212631   6.239   2.301   6.006
 4225TIP3    H112632   6.262   2.253   6.086
 4225TIP3    H212633   6.322   2.333   5.972
 4226TIP3   OH212634   2.606   5.234   4.243
 4226TIP3    H112635   2.685   5.181   4.250
 4226TIP3    H212636   2.629   5.305   4.183
 4227TIP3   OH212637   4.405   1.891   1.345
 4227TIP3    H112638   4.419   1.984   1.364
 4227TIP3    H212639   4.465   1.871   1.274
 4228TIP3   OH212640   6.414   4.978   5.515
 4228TIP3    H112641   6.503   4.991   5.547
 4228TIP3    H212642   6.410   4.885   5.493
 4229TIP3   OH212643   5.481   3.808   3.188
 4229TIP3    H112644   5.566   3.764   3.185
 4229TIP3    H212645   5.430   3.756   3.250
 4230TIP3   OH212646   7.165   1.160   4.730
 4230TIP3    H112647   7.225   1.181   4.801
 4230TIP3    H212648   7.086   1.128   4.773
 4231TIP3   OH212649   0.423   6.544   5.194
 4231TIP3    H112650   0.414   6.520   5.101
 4231TIP3    H212651   0.516   6.557   5.206
 4232TIP3   OH212652   6.899   5.582   3.051
 4232TIP3    H112653   6.893   5.486   3.053
 4232TIP3    H212654   6.934   5.602   2.964
 4233TIP3   OH212655   6.259   7.707   5.554
 4233TIP3    H112656   6.321   7.769   5.515
 4233TIP3    H212657   6.293   7.621   5.529
 4234TIP3   OH212658   7.323   6.865   1.579
 4234TIP3    H112659   7.390   6.814   1.624
 4234TIP3    H212660   7.246   6.809   1.579
 4235TIP3   OH212661   2.466   6.767   1.484
 4235TIP3    H112662   2.505   6.803   1.563
 4235TIP3    H212663   2.489   6.829   1.415
 4236TIP3   OH212664   3.865   5.763   1.755
 4236TIP3    H112665   3.921   5.840   1.746
 4236TIP3    H212666   3.881   5.712   1.676
 4237TIP3   OH212667   6.748   5.603   0.659
 4237TIP3    H112668   6.834   5.636   0.685
 4237TIP3    H212669   6.759   5.579   0.567
 4238TIP3   OH212670   4.237   6.910   3.010
 4238TIP3    H112671   4.273   6.997   3.029
 4238TIP3    H212672   4.163   6.901   3.070
 4239TIP3   OH212673   6.213   1.473   6.161
 4239TIP3    H112674   6.239   1.499   6.073
 4239TIP3    H212675   6.145   1.535   6.186
 4240TIP3   OH212676   7.161   7.266   5.004
 4240TIP3    H112677   7.078   7.294   4.964
 4240TIP3    H212678   7.227   7.287   4.939
 4241TIP3   OH212679   1.893   1.696   6.710
 4241TIP3    H112680   1.806   1.723   6.681
 4241TIP3    H212681   1.952   1.763   6.674
 4242TIP3   OH212682   2.810   2.618   0.352
 4242TIP3    H112683   2.760   2.696   0.332
 4242TIP3    H212684   2.748   2.546   0.342
 4243TIP3   OH212685   2.116   7.388   6.595
 4243TIP3    H112686   2.144   7.457   6.535
 4243TIP3    H212687   2.061   7.330   6.542
 4244TIP3   OH212688   5.405   4.827   6.578
 4244TIP3    H112689   5.315   4.857   6.584
 4244TIP3    H212690   5.401   4.745   6.529
 4245TIP3   OH212691   7.647   7.028   4.124
 4245TIP3    H112692   7.664   7.081   4.046
 4245TIP3    H212693   7.724   6.971   4.131
 4246TIP3   OH212694   5.074   3.536   3.421
 4246TIP3    H112695   5.075   3.561   3.514
 4246TIP3    H212696   5.080   3.440   3.422
 4247TIP3   OH212697   5.183   3.264   3.437
 4247TIP3    H112698   5.231   3.262   3.520
 4247TIP3    H212699   5.156   3.174   3.423
 4248TIP3   OH212700   7.864   3.951   1.457
 4248TIP3    H112701   7.855   3.866   1.415
 4248TIP3    H212702   7.776   3.989   1.453
 4249TIP3   OH212703   5.307   2.769   1.839
 4249TIP3    H112704   5.220   2.809   1.844
 4249TIP3    H212705   5.318   2.745   1.747
 4250TIP3   OH212706   6.694   3.488   6.437
 4250TIP3    H112707   6.765   3.552   6.430
 4250TIP3    H212708   6.699   3.438   6.355
 4251TIP3   OH212709   1.349   0.698   4.463
 4251TIP3    H112710   1.362   0.634   4.393
 4251TIP3    H212711   1.333   0.780   4.418
 4252TIP3   OH212712   7.661   2.564   6.339
 4252TIP3    H112713   7.719   2.563   6.262
 4252TIP3    H212714   7.717   2.594   6.410
 4253TIP3   OH212715   5.654   5.891   1.265
 4253TIP3    H112716   5.718   5.919   1.199
 4253TIP3    H212717   5.570   5.914   1.227
 4254TIP3   OH212718   7.877   7.024   0.147
 4254TIP3    H112719   7.883   6.934   0.113
 4254TIP3    H212720   7.921   7.077   0.080
 4255TIP3   OH212721   6.147   4.689   5.347
 4255TIP3    H112722   6.225   4.719   5.393
 4255TIP3    H212723   6.118   4.612   5.396
 4256TIP3   OH212724   0.903   7.459   4.341
 4256TIP3    H112725   0.916   7.553   4.353
 4256TIP3    H212726   0.822   7.452   4.292
 4257TIP3   OH212727   4.858   4.433   0.343
 4257TIP3    H112728   4.952   4.438   0.364
 4257TIP3    H212729   4.815   4.451   0.426
 4258TIP3   OH212730   5.909   2.891   5.654
 4258TIP3    H112731   5.840   2.954   5.632
 4258TIP3    H212732   5.880   2.850   5.735
 4259TIP3   OH212733   3.793   0.048   1.266
 4259TIP3    H112734   3.836   0.100   1.198
 4259TIP3    H212735   3.700   0.058   1.248
 4260TIP3   OH212736   7.242   4.689   0.703
 4260TIP3    H112737   7.313   4.642   0.660
 4260TIP3    H212738   7.177   4.621   0.723
 4261TIP3   OH212739   0.302   2.444   4.346
 4261TIP3    H112740   0.248   2.455   4.268
 4261TIP3    H212741   0.245   2.472   4.419
 4262TIP3   OH212742   2.356   4.505   4.224
 4262TIP3    H112743   2.437   4.465   4.192
 4262TIP3    H212744   2.314   4.437   4.277
 4263TIP3   OH212745   6.323   3.231   5.403
 4263TIP3    H112746   6.228   3.240   5.404
 4263TIP3    H212747   6.345   3.197   5.490
 4264TIP3   OH212748   0.143   7.264   5.126
 4264TIP3    H112749   0.156   7.200   5.056
 4264TIP3    H212750   0.155   7.215   5.207
 4265TIP3   OH212751   3.586   4.453   0.453
 4265TIP3    H112752   3.570   4.495   0.538
 4265TIP3    H212753   3.568   4.522   0.389
 4266TIP3   OH212754   7.371   5.855   2.131
 4266TIP3    H112755   7.363   5.951   2.136
 4266TIP3    H212756   7.366   5.836   2.037
 4267TIP3   OH212757   6.736   6.621   3.406
 4267TIP3    H112758   6.649   6.598   3.440
 4267TIP3    H212759   6.720   6.691   3.343
 4268TIP3   OH212760   5.923   2.343   3.884
 4268TIP3    H112761   5.979   2.300   3.948
 4268TIP3    H212762   5.982   2.369   3.814
 4269TIP3   OH212763   6.680   2.462   4.206
 4269TIP3    H112764   6.752   2.402   4.223
 4269TIP3    H212765   6.648   2.488   4.293
 4270TIP3   OH212766   2.591   1.713   2.705
 4270TIP3    H112767   2.611   1.806   2.693
 4270TIP3    H212768   2.617   1.693   2.794
 4271TIP3   OH212769   3.369   6.116   0.849
 4271TIP3    H112770   3.333   6.031   0.875
 4271TIP3    H212771   3.464   6.102   0.851
 4272TIP3   OH212772   2.721   6.293   0.908
 4272TIP3    H112773   2.767   6.221   0.864
 4272TIP3    H212774   2.752   6.289   0.999
 4273TIP3   OH212775   3.893   3.217   4.437
 4273TIP3    H112776   3.909   3.138   4.386
 4273TIP3    H212777   3.975   3.233   4.484
 4274TIP3   OH212778   2.876   0.047   5.422
 4274TIP3    H112779   2.805  -0.006   5.384
 4274TIP3    H212780   2.859   0.045   5.516
 4275TIP3   OH212781   5.678   1.559   2.313
 4275TIP3    H112782   5.765   1.574   2.350
 4275TIP3    H212783   5.634   1.643   2.322
 4276TIP3   OH212784   7.366   0.787   5.279
 4276TIP3    H112785   7.336   0.784   5.369
 4276TIP3    H212786   7.311   0.724   5.233
 4277TIP3   OH212787   3.738   7.555   3.632
 4277TIP3    H112788   3.645   7.578   3.630
 4277TIP3    H212789   3.740   7.461   3.612
 4278TIP3   OH212790   1.880   2.485   0.217
 4278TIP3    H112791   1.795   2.529   0.222
 4278TIP3    H212792   1.926   2.513   0.296
 4279TIP3   OH212793   4.404   3.301   2.936
 4279TIP3    H112794   4.313   3.306   2.966
 4279TIP3    H212795   4.415   3.211   2.906
 4280TIP3   OH212796   3.450   1.540   5.989
 4280TIP3    H112797   3.403   1.588   5.921
 4280TIP3    H212798   3.383   1.521   6.056
 4281TIP3   OH212799   7.044   5.332   2.009
 4281TIP3    H112800   6.989   5.316   2.086
 4281TIP3    H212801   6.998   5.289   1.937
 4282TIP3   OH212802   4.247   0.400   6.562
 4282TIP3    H112803   4.324   0.374   6.511
 4282TIP3    H212804   4.189   0.324   6.559
 4283TIP3   OH212805   8.236   1.705   1.465
 4283TIP3    H112806   8.286   1.695   1.384
 4283TIP3    H212807   8.284   1.771   1.515
 4284TIP3   OH212808   1.568   2.518   5.281
 4284TIP3    H112809   1.558   2.482   5.369
 4284TIP3    H212810   1.648   2.477   5.247
 4285TIP3   OH212811   0.489   3.506   5.890
 4285TIP3    H112812   0.530   3.592   5.897
 4285TIP3    H212813   0.489   3.487   5.796
 4286TIP3   OH212814   3.587   5.766   1.855
 4286TIP3    H112815   3.672   5.767   1.899
 4286TIP3    H212816   3.607   5.787   1.764
 4287TIP3   OH212817   8.088   2.541   0.681
 4287TIP3    H112818   8.038   2.555   0.761
 4287TIP3    H212819   8.169   2.590   0.694
 4288TIP3   OH212820   7.336   1.111   1.783
 4288TIP3    H112821   7.418   1.122   1.734
 4288TIP3    H212822   7.364   1.076   1.867
 4289TIP3   OH212823   1.336   0.675   3.785
 4289TIP3    H112824   1.261   0.636   3.830
 4289TIP3    H212825   1.378   0.730   3.851
 4290TIP3   OH212826   5.064   7.447   0.222
 4290TIP3    H112827   5.099   7.364   0.255
 4290TIP3    H212828   5.140   7.491   0.183
 4291TIP3   OH212829   7.508   7.557   6.224
 4291TIP3    H112830   7.593   7.596   6.244
 4291TIP3    H212831   7.504   7.554   6.129
 4292TIP3   OH212832   6.966   0.296   0.401
 4292TIP3    H112833   7.002   0.208   0.401
 4292TIP3    H212834   6.883   0.288   0.449
 4293TIP3   OH212835   0.307   6.638   5.861
 4293TIP3    H112836   0.343   6.726   5.874
 4293TIP3    H212837   0.229   6.652   5.808
 4294TIP3   OH212838   1.875   7.802   4.402
 4294TIP3    H112839   1.812   7.731   4.407
 4294TIP3    H212840   1.829   7.872   4.356
 4295TIP3   OH212841   1.597   0.481   6.564
 4295TIP3    H112842   1.531   0.412   6.563
 4295TIP3    H212843   1.667   0.447   6.619
 4296TIP3   OH212844   6.132   6.958   2.287
 4296TIP3    H112845   6.144   6.895   2.217
 4296TIP3    H212846   6.110   7.040   2.243
 4297TIP3   OH212847   7.346   0.920   6.707
 4297TIP3    H112848   7.250   0.925   6.708
 4297TIP3    H212849   7.364   0.826   6.718
 4298TIP3   OH212850   1.350   5.808   5.291
 4298TIP3    H112851   1.290   5.785   5.362
 4298TIP3    H212852   1.434   5.821   5.334
 4299TIP3   OH212853   2.849   0.106   4.462
 4299TIP3    H112854   2.810   0.025   4.495
 4299TIP3    H212855   2.790   0.136   4.393
 4300TIP3   OH212856   7.106   4.338   2.757
 4300TIP3    H112857   7.062   4.280   2.819
 4300TIP3    H212858   7.047   4.341   2.682
 4301TIP3   OH212859   0.715   3.038   3.324
 4301TIP3    H112860   0.706   3.121   3.277
 4301TIP3    H212861   0.629   2.997   3.317
 4302TIP3   OH212862   0.492   0.959   5.777
 4302TIP3    H112863   0.510   0.915   5.694
 4302TIP3    H212864   0.568   1.016   5.791
 4303TIP3   OH212865   6.934   7.665   1.514
 4303TIP3    H112866   6.937   7.721   1.592
 4303TIP3    H212867   6.866   7.600   1.534
 4304TIP3   OH212868   5.591   2.368   4.405
 4304TIP3    H112869   5.662   2.387   4.343
 4304TIP3    H212870   5.635   2.325   4.479
 4305TIP3   OH212871   5.515   2.567   5.632
 4305TIP3    H112872   5.553   2.496   5.579
 4305TIP3    H212873   5.556   2.646   5.599
 4306TIP3   OH212874   4.675   6.865   3.341
 4306TIP3    H112875   4.589   6.884   3.379
 4306TIP3    H212876   4.688   6.771   3.357
 4307TIP3   OH212877   5.805   6.074   6.513
 4307TIP3    H112878   5.755   6.155   6.523
 4307TIP3    H212879   5.861   6.070   6.591
 4308TIP3   OH212880   6.622   7.393   2.180
 4308TIP3    H112881   6.568   7.419   2.255
 4308TIP3    H212882   6.668   7.315   2.209
 4309TIP3   OH212883   0.117   2.904   0.312
 4309TIP3    H112884   0.149   2.984   0.269
 4309TIP3    H212885   0.183   2.838   0.289
 4310TIP3   OH212886   5.154   7.205   5.301
 4310TIP3    H112887   5.185   7.173   5.217
 4310TIP3    H212888   5.104   7.131   5.337
 4311TIP3   OH212889   5.714   0.616   4.568
 4311TIP3    H112890   5.741   0.680   4.633
 4311TIP3    H212891   5.699   0.667   4.488
 4312TIP3   OH212892   0.711   5.404   5.136
 4312TIP3    H112893   0.786   5.369   5.089
 4312TIP3    H212894   0.747   5.477   5.187
 4313TIP3   OH212895   5.703   5.075   1.834
 4313TIP3    H112896   5.644   5.121   1.775
 4313TIP3    H212897   5.787   5.074   1.789
 4314TIP3   OH212898   1.614   7.427   3.471
 4314TIP3    H112899   1.692   7.410   3.524
 4314TIP3    H212900   1.613   7.356   3.407
 4315TIP3   OH212901   4.444   0.567   5.242
 4315TIP3    H112902   4.384   0.574   5.317
 4315TIP3    H212903   4.405   0.500   5.186
 4316TIP3   OH212904   6.878   2.094   3.198
 4316TIP3    H112905   6.932   2.137   3.264
 4316TIP3    H212906   6.905   2.002   3.200
 4317TIP3   OH212907   6.731   1.312   6.530
 4317TIP3    H112908   6.821   1.286   6.549
 4317TIP3    H212909   6.704   1.254   6.459
 4318TIP3   OH212910   7.878   7.608   2.735
 4318TIP3    H112911   7.909   7.526   2.772
 4318TIP3    H212912   7.957   7.660   2.721
 4319TIP3   OH212913   8.047   2.074   4.588
 4319TIP3    H112914   8.054   2.011   4.659
 4319TIP3    H212915   8.025   2.021   4.511
 4320TIP3   OH212916   3.132   5.991   6.149
 4320TIP3    H112917   3.167   6.040   6.224
 4320TIP3    H212918   3.162   6.040   6.072
 4321TIP3   OH212919   3.646   1.094   4.971
 4321TIP3    H112920   3.707   1.102   4.897
 4321TIP3    H212921   3.661   1.005   5.004
 4322TIP3   OH212922   3.082   7.106   5.765
 4322TIP3    H112923   3.031   7.110   5.846
 4322TIP3    H212924   3.110   7.196   5.750
 4323TIP3   OH212925   1.003   3.326   6.451
 4323TIP3    H112926   0.913   3.298   6.436
 4323TIP3    H212927   1.056   3.248   6.437
 4324TIP3   OH212928   6.086   7.415   5.945
 4324TIP3    H112929   6.116   7.351   6.009
 4324TIP3    H212930   6.164   7.467   5.926
 4325TIP3   OH212931   3.519   5.392   0.653
 4325TIP3    H112932   3.425   5.376   0.665
 4325TIP3    H212933   3.555   5.307   0.629
 4326TIP3   OH212934   5.538   5.669   2.275
 4326TIP3    H112935   5.474   5.740   2.277
 4326TIP3    H212936   5.491   5.595   2.237
 4327TIP3   OH212937   7.808   2.387   2.765
 4327TIP3    H112938   7.886   2.354   2.808
 4327TIP3    H212939   7.763   2.309   2.732
 4328TIP3   OH212940   4.752   1.696   3.241
 4328TIP3    H112941   4.823   1.672   3.182
 4328TIP3    H212942   4.685   1.629   3.227
 4329TIP3   OH212943   6.122   6.140   5.604
 4329TIP3    H112944   6.073   6.090   5.669
 4329TIP3    H212945   6.214   6.118   5.621
 4330TIP3   OH212946   4.734   2.871   1.212
 4330TIP3    H112947   4.750   2.885   1.119
 4330TIP3    H212948   4.730   2.776   1.222
 4331TIP3   OH212949   2.348   3.666   2.433
 4331TIP3    H112950   2.353   3.756   2.465
 4331TIP3    H212951   2.431   3.626   2.460
 4332TIP3   OH212952   3.856   7.705   6.453
 4332TIP3    H112953   3.828   7.620   6.488
 4332TIP3    H212954   3.774   7.748   6.428
 4333TIP3   OH212955   4.621   7.526   4.598
 4333TIP3    H112956   4.634   7.531   4.503
 4333TIP3    H212957   4.526   7.526   4.609
 4334TIP3   OH212958   4.697   1.503   3.954
 4334TIP3    H112959   4.746   1.422   3.942
 4334TIP3    H212960   4.751   1.570   3.914
 4335TIP3   OH212961   6.947   3.281   2.632
 4335TIP3    H112962   6.906   3.352   2.582
 4335TIP3    H212963   7.009   3.242   2.571
 4336TIP3   OH212964   4.424   3.208   3.190
 4336TIP3    H112965   4.393   3.267   3.120
 4336TIP3    H212966   4.343   3.180   3.234
 4337TIP3   OH212967   6.243   5.904   0.247
 4337TIP3    H112968   6.216   5.977   0.303
 4337TIP3    H212969   6.161   5.857   0.230
 4338TIP3   OH212970   3.031   2.802   5.978
 4338TIP3    H112971   2.965   2.793   6.047
 4338TIP3    H212972   3.101   2.854   6.019
 4339TIP3   OH212973   2.754   4.644   3.725
 4339TIP3    H112974   2.754   4.670   3.817
 4339TIP3    H212975   2.691   4.572   3.721
 4340TIP3   OH212976   8.005   2.428   3.222
 4340TIP3    H112977   7.993   2.354   3.281
 4340TIP3    H212978   7.990   2.505   3.276
 4341TIP3   OH212979   2.105   7.081   0.077
 4341TIP3    H112980   2.164   7.100   0.005
 4341TIP3    H212981   2.018   7.079   0.038
 4342TIP3   OH212982   7.693   0.521   6.700
 4342TIP3    H112983   7.784   0.493   6.695
 4342TIP3    H212984   7.661   0.516   6.609
 4343TIP3   OH212985   0.939   3.303   4.596
 4343TIP3    H112986   0.862   3.327   4.648
 4343TIP3    H212987   0.971   3.385   4.560
 4344TIP3   OH212988   6.099   3.205   6.050
 4344TIP3    H112989   6.147   3.248   5.980
 4344TIP3    H212990   6.127   3.113   6.047
 4345TIP3   OH212991   2.824   1.800   0.549
 4345TIP3    H112992   2.847   1.867   0.485
 4345TIP3    H212993   2.729   1.801   0.553
 4346TIP3   OH212994   2.704   2.186   3.277
 4346TIP3    H112995   2.785   2.213   3.321
 4346TIP3    H212996   2.673   2.111   3.328
 4347TIP3   OH212997   4.604   4.017   1.356
 4347TIP3    H112998   4.567   4.050   1.438
 4347TIP3    H212999   4.538   3.958   1.322
 4348TIP3   OH213000   7.220   7.456   2.006
 4348TIP3    H113001   7.185   7.508   1.933
 4348TIP3    H213002   7.155   7.466   2.076
 4349TIP3   OH213003   2.414   7.733   4.786
 4349TIP3    H113004   2.390   7.821   4.755
 4349TIP3    H213005   2.440   7.686   4.707
 4350TIP3   OH213006   6.627   4.197   2.911
 4350TIP3    H113007   6.651   4.284   2.941
 4350TIP3    H213008   6.560   4.168   2.973
 4351TIP3   OH213009   6.924   1.130   4.847
 4351TIP3    H113010   6.926   1.119   4.942
 4351TIP3    H213011   6.844   1.178   4.829
 4352TIP3   OH213012   7.805   6.454   0.521
 4352TIP3    H113013   7.826   6.541   0.555
 4352TIP3    H213014   7.855   6.394   0.577
 4353TIP3   OH213015   5.562   0.738   5.400
 4353TIP3    H113016   5.613   0.729   5.480
 4353TIP3    H213017   5.502   0.663   5.401
 4354TIP3   OH213018   3.500   1.118   6.597
 4354TIP3    H113019   3.589   1.104   6.630
 4354TIP3    H213020   3.464   1.030   6.587
 4355TIP3   OH213021   1.081   2.943   6.400
 4355TIP3    H113022   1.047   2.983   6.320
 4355TIP3    H213023   1.173   2.971   6.404
 4356TIP3   OH213024   2.933   4.486   2.076
 4356TIP3    H113025   3.012   4.438   2.099
 4356TIP3    H213026   2.868   4.458   2.140
 4357TIP3   OH213027   0.299   5.627   0.251
 4357TIP3    H113028   0.236   5.691   0.219
 4357TIP3    H213029   0.249   5.574   0.313
 4358TIP3   OH213030   7.326   7.217   4.484
 4358TIP3    H113031   7.358   7.305   4.498
 4358TIP3    H213032   7.404   7.165   4.466
 4359TIP3   OH213033   6.776   1.436   2.400
 4359TIP3    H113034   6.761   1.370   2.468
 4359TIP3    H213035   6.871   1.450   2.401
 4360TIP3   OH213036   3.328   4.254   5.956
 4360TIP3    H113037   3.393   4.280   5.890
 4360TIP3    H213038   3.251   4.307   5.936
 4361TIP3   OH213039   2.711   3.196   3.883
 4361TIP3    H113040   2.798   3.190   3.843
 4361TIP3    H213041   2.688   3.289   3.878
 4362TIP3   OH213042   8.051   6.473   0.798
 4362TIP3    H113043   8.000   6.479   0.879
 4362TIP3    H213044   8.070   6.564   0.775
 4363TIP3   OH213045   2.956   6.052   3.062
 4363TIP3    H113046   2.930   5.960   3.071
 4363TIP3    H213047   3.051   6.051   3.073
 4364TIP3   OH213048   2.112   1.795   4.238
 4364TIP3    H113049   2.127   1.764   4.149
 4364TIP3    H213050   2.187   1.762   4.288
 4365TIP3   OH213051   4.682   4.427   1.591
 4365TIP3    H113052   4.605   4.481   1.571
 4365TIP3    H213053   4.676   4.410   1.685
 4366TIP3   OH213054   7.140   6.620   5.499
 4366TIP3    H113055   7.164   6.679   5.571
 4366TIP3    H213056   7.092   6.549   5.541
 4367TIP3   OH213057   1.860   4.906   2.901
 4367TIP3    H113058   1.940   4.874   2.860
 4367TIP3    H213059   1.795   4.838   2.886
 4368TIP3   OH213060   1.737   4.397   4.977
 4368TIP3    H113061   1.642   4.383   4.983
 4368TIP3    H213062   1.755   4.459   5.048
 4369TIP3   OH213063   6.240   7.444   3.008
 4369TIP3    H113064   6.247   7.537   3.028
 4369TIP3    H213065   6.312   7.404   3.056
 4370TIP3   OH213066   2.122   5.437   4.116
 4370TIP3    H113067   2.154   5.473   4.033
 4370TIP3    H213068   2.199   5.396   4.156
 4371TIP3   OH213069   1.091   1.669   2.060
 4371TIP3    H113070   1.070   1.752   2.104
 4371TIP3    H213071   1.183   1.655   2.080
 4372TIP3   OH213072   0.043   6.487   3.728
 4372TIP3    H113073   0.101   6.544   3.677
 4372TIP3    H213074  -0.042   6.530   3.724
 4373TIP3   OH213075   4.741   3.890   6.331
 4373TIP3    H113076   4.830   3.906   6.299
 4373TIP3    H213077   4.699   3.976   6.330
 4374TIP3   OH213078   1.044   3.613   6.437
 4374TIP3    H113079   0.980   3.541   6.439
 4374TIP3    H213080   1.070   3.623   6.528
 4375TIP3   OH213081   4.049   2.547   5.641
 4375TIP3    H113082   4.077   2.532   5.732
 4375TIP3    H213083   3.978   2.611   5.648
 4376TIP3   OH213084   7.962   6.645   4.598
 4376TIP3    H113085   8.042   6.633   4.548
 4376TIP3    H213086   7.981   6.717   4.657
 4377TIP3   OH213087   5.428   5.427   5.513
 4377TIP3    H113088   5.510   5.476   5.515
 4377TIP3    H213089   5.449   5.342   5.552
 4378TIP3   OH213090   0.621   1.099   3.256
 4378TIP3    H113091   0.643   1.181   3.299
 4378TIP3    H213092   0.665   1.103   3.171
 4379TIP3   OH213093   4.700   1.907   1.717
 4379TIP3    H113094   4.654   1.837   1.669
 4379TIP3    H213095   4.654   1.987   1.693
 4380TIP3   OH213096   7.321   7.178   1.588
 4380TIP3    H113097   7.255   7.110   1.605
 4380TIP3    H213098   7.322   7.230   1.668
 4381TIP3   OH213099   5.888   1.680   6.635
 4381TIP3    H113100   5.856   1.630   6.710
 4381TIP3    H213101   5.873   1.623   6.560
 4382TIP3   OH213102   6.713   4.431   4.088
 4382TIP3    H113103   6.645   4.495   4.068
 4382TIP3    H213104   6.738   4.394   4.003
 4383TIP3   OH213105   1.048   0.657   2.864
 4383TIP3    H113106   1.010   0.570   2.872
 4383TIP3    H213107   0.992   0.713   2.917
 4384TIP3   OH213108   3.422   2.828   1.915
 4384TIP3    H113109   3.457   2.798   1.999
 4384TIP3    H213110   3.369   2.755   1.884
 4385TIP3   OH213111   6.535   2.738   4.780
 4385TIP3    H113112   6.574   2.794   4.713
 4385TIP3    H213113   6.608   2.683   4.810
 4386TIP3   OH213114   4.983   7.665   2.600
 4386TIP3    H113115   5.066   7.626   2.624
 4386TIP3    H213116   4.993   7.688   2.508
 4387TIP3   OH213117   3.266   3.160   4.038
 4387TIP3    H113118   3.257   3.204   3.954
 4387TIP3    H213119   3.350   3.191   4.072
 4388TIP3   OH213120   5.982   1.475   5.069
 4388TIP3    H113121   5.914   1.425   5.024
 4388TIP3    H213122   5.944   1.493   5.156
 4389TIP3   OH213123   4.114   2.009   3.679
 4389TIP3    H113124   4.128   1.980   3.589
 4389TIP3    H213125   4.021   1.992   3.695
 4390TIP3   OH213126   4.482   5.143   4.940
 4390TIP3    H113127   4.425   5.081   4.895
 4390TIP3    H213128   4.551   5.089   4.979
 4391TIP3   OH213129   7.259   6.791   6.243
 4391TIP3    H113130   7.228   6.714   6.291
 4391TIP3    H213131   7.180   6.844   6.229
 4392TIP3   OH213132   1.478   3.806   4.762
 4392TIP3    H113133   1.428   3.883   4.733
 4392TIP3    H213134   1.411   3.744   4.792
 4393TIP3   OH213135   7.896   4.236   1.450
 4393TIP3    H113136   7.921   4.296   1.380
 4393TIP3    H213137   7.912   4.148   1.414
 4394TIP3   OH213138   3.876   4.413   2.906
 4394TIP3    H113139   3.957   4.367   2.884
 4394TIP3    H213140   3.851   4.377   2.991
 4395TIP3   OH213141   4.179   7.234   5.023
 4395TIP3    H113142   4.221   7.315   5.053
 4395TIP3    H213143   4.186   7.236   4.928
 4396TIP3   OH213144   4.499   0.885   6.033
 4396TIP3    H113145   4.404   0.892   6.025
 4396TIP3    H213146   4.523   0.947   6.101
 4397TIP3   OH213147   3.058   4.432   3.098
 4397TIP3    H113148   3.096   4.418   3.011
 4397TIP3    H213149   3.132   4.456   3.153
 4398TIP3   OH213150   3.522   2.747   0.091
 4398TIP3    H113151   3.486   2.774   0.175
 4398TIP3    H213152   3.590   2.811   0.072
 4399TIP3   OH213153   5.271   0.429   3.052
 4399TIP3    H113154   5.284   0.419   2.957
 4399TIP3    H213155   5.347   0.478   3.081
 4400TIP3   OH213156   1.592   5.439   5.596
 4400TIP3    H113157   1.652   5.368   5.620
 4400TIP3    H213158   1.505   5.401   5.607
 4401TIP3   OH213159   6.267   3.996   1.728
 4401TIP3    H113160   6.224   3.981   1.812
 4401TIP3    H213161   6.360   4.002   1.749
 4402TIP3   OH213162   6.018   2.345   0.685
 4402TIP3    H113163   6.084   2.359   0.753
 4402TIP3    H213164   6.009   2.430   0.642
 4403TIP3   OH213165   7.785   0.488   3.309
 4403TIP3    H113166   7.833   0.478   3.391
 4403TIP3    H213167   7.853   0.511   3.245
 4404TIP3   OH213168   7.149   2.658   1.306
 4404TIP3    H113169   7.071   2.640   1.358
 4404TIP3    H213170   7.178   2.572   1.275
 4405TIP3   OH213171   3.172   4.370   4.377
 4405TIP3    H113172   3.238   4.430   4.412
 4405TIP3    H213173   3.202   4.349   4.289
 4406TIP3   OH213174   5.743   7.680   5.578
 4406TIP3    H113175   5.803   7.684   5.653
 4406TIP3    H213176   5.709   7.769   5.570
 4407TIP3   OH213177   8.276   1.051   0.502
 4407TIP3    H113178   8.240   1.027   0.417
 4407TIP3    H213179   8.312   1.139   0.490
 4408TIP3   OH213180   3.765   1.332   6.502
 4408TIP3    H113181   3.848   1.379   6.512
 4408TIP3    H213182   3.758   1.279   6.582
 4409TIP3   OH213183   0.122   4.143   3.714
 4409TIP3    H113184   0.213   4.131   3.687
 4409TIP3    H213185   0.119   4.111   3.804
 4410TIP3   OH213186   4.776   3.188   1.159
 4410TIP3    H113187   4.771   3.276   1.121
 4410TIP3    H213188   4.696   3.178   1.210
 4411TIP3   OH213189   0.923   5.537   5.294
 4411TIP3    H113190   0.978   5.614   5.278
 4411TIP3    H213191   0.984   5.471   5.326
 4412TIP3   OH213192   2.094   2.932   5.451
 4412TIP3    H113193   2.034   2.977   5.511
 4412TIP3    H213194   2.181   2.963   5.476
 4413TIP3   OH213195   0.169   0.193   6.112
 4413TIP3    H113196   0.242   0.171   6.170
 4413TIP3    H213197   0.098   0.216   6.172
 4414TIP3   OH213198   8.028   1.401   1.264
 4414TIP3    H113199   8.107   1.363   1.302
 4414TIP3    H213200   8.006   1.474   1.322
 4415TIP3   OH213201   6.566   5.520   4.202
 4415TIP3    H113202   6.627   5.450   4.224
 4415TIP3    H213203   6.480   5.480   4.209
 4416TIP3   OH213204   4.678   6.744   0.824
 4416TIP3    H113205   4.712   6.831   0.803
 4416TIP3    H213206   4.753   6.696   0.858
 4417TIP3   OH213207   1.886   3.062   4.549
 4417TIP3    H113208   1.890   3.151   4.514
 4417TIP3    H213209   1.800   3.030   4.522
 4418TIP3   OH213210   2.220   2.936   2.783
 4418TIP3    H113211   2.171   2.891   2.852
 4418TIP3    H213212   2.157   2.999   2.747
 4419TIP3   OH213213   2.486   0.260   1.793
 4419TIP3    H113214   2.547   0.294   1.858
 4419TIP3    H213215   2.481   0.329   1.726
 4420TIP3   OH213216   2.038   6.198   5.732
 4420TIP3    H113217   1.969   6.133   5.720
 4420TIP3    H213218   2.042   6.245   5.649
 4421TIP3   OH213219   4.892   2.103   0.228
 4421TIP3    H113220   4.839   2.151   0.292
 4421TIP3    H213221   4.878   2.149   0.146
 4422TIP3   OH213222   3.596   6.163   5.117
 4422TIP3    H113223   3.676   6.111   5.125
 4422TIP3    H213224   3.606   6.213   5.036
 4423TIP3   OH213225   5.390   1.087   0.755
 4423TIP3    H113226   5.439   1.032   0.817
 4423TIP3    H213227   5.395   1.175   0.792
 4424TIP3   OH213228   7.591   0.400   0.021
 4424TIP3    H113229   7.535   0.322   0.020
 4424TIP3    H213230   7.673   0.369   0.060
 4425TIP3   OH213231   8.182   0.137   3.814
 4425TIP3    H113232   8.146   0.226   3.810
 4425TIP3    H213233   8.249   0.141   3.881
 4426TIP3   OH213234   3.097   0.321   5.945
 4426TIP3    H113235   3.137   0.344   6.029
 4426TIP3    H213236   3.052   0.238   5.961
 4427TIP3   OH213237   6.464   4.372   2.311
 4427TIP3    H113238   6.464   4.429   2.388
 4427TIP3    H213239   6.389   4.314   2.323
 4428TIP3   OH213240   5.267   3.406   1.077
 4428TIP3    H113241   5.337   3.398   1.013
 4428TIP3    H213242   5.189   3.423   1.026
 4429TIP3   OH213243   4.580   6.904   0.143
 4429TIP3    H113244   4.660   6.913   0.194
 4429TIP3    H213245   4.593   6.825   0.091
 4430TIP3   OH213246   6.492   2.287   5.904
 4430TIP3    H113247   6.497   2.197   5.935
 4430TIP3    H213248   6.553   2.291   5.831
 4431TIP3   OH213249   4.464   7.705   1.831
 4431TIP3    H113250   4.403   7.773   1.857
 4431TIP3    H213251   4.523   7.747   1.768
 4432TIP3   OH213252   5.896   4.008   5.659
 4432TIP3    H113253   5.857   3.925   5.633
 4432TIP3    H213254   5.981   3.984   5.697
 4433TIP3   OH213255   3.669   1.109   3.724
 4433TIP3    H113256   3.726   1.185   3.741
 4433TIP3    H213257   3.622   1.096   3.806
 4434TIP3   OH213258   3.989   1.408   5.970
 4434TIP3    H113259   4.005   1.380   5.880
 4434TIP3    H213260   3.930   1.483   5.962
 4435TIP3   OH213261   1.747   0.593   3.066
 4435TIP3    H113262   1.784   0.525   3.010
 4435TIP3    H213263   1.801   0.591   3.145
 4436TIP3   OH213264   7.547   0.667   3.298
 4436TIP3    H113265   7.639   0.648   3.312
 4436TIP3    H213266   7.505   0.581   3.290
 4437TIP3   OH213267   3.906   3.967   0.106
 4437TIP3    H113268   3.831   3.996   0.157
 4437TIP3    H213269   3.880   3.980   0.015
 4438TIP3   OH213270   4.795   4.467   6.546
 4438TIP3    H113271   4.770   4.538   6.486
 4438TIP3    H213272   4.851   4.510   6.611
 4439TIP3   OH213273   7.339   4.471   4.023
 4439TIP3    H113274   7.333   4.427   4.107
 4439TIP3    H213275   7.355   4.563   4.045
 4440TIP3   OH213276   2.313   5.479   3.318
 4440TIP3    H113277   2.326   5.539   3.391
 4440TIP3    H213278   2.397   5.436   3.307
 4441TIP3   OH213279   5.241   5.231   6.230
 4441TIP3    H113280   5.213   5.197   6.145
 4441TIP3    H213281   5.242   5.155   6.288
 4442TIP3   OH213282   5.728   1.145   5.805
 4442TIP3    H113283   5.665   1.075   5.824
 4442TIP3    H213284   5.735   1.194   5.887
 4443TIP3   OH213285   8.223   7.756   1.935
 4443TIP3    H113286   8.184   7.750   2.022
 4443TIP3    H213287   8.149   7.775   1.877
 4444TIP3   OH213288   0.486   5.151   5.012
 4444TIP3    H113289   0.417   5.098   5.052
 4444TIP3    H213290   0.549   5.164   5.083
 4445TIP3   OH213291   7.287   0.746   5.551
 4445TIP3    H113292   7.198   0.714   5.566
 4445TIP3    H213293   7.340   0.701   5.617
 4446TIP3   OH213294   2.341   7.746   0.093
 4446TIP3    H113295   2.289   7.827   0.086
 4446TIP3    H213296   2.418   7.771   0.143
 4447TIP3   OH213297   6.306   5.003   3.774
 4447TIP3    H113298   6.359   4.950   3.833
 4447TIP3    H213299   6.216   4.979   3.794
 4448TIP3   OH213300   4.739   3.214   1.608
 4448TIP3    H113301   4.652   3.220   1.647
 4448TIP3    H213302   4.779   3.139   1.651
 4449TIP3   OH213303   2.281   7.181   5.106
 4449TIP3    H113304   2.355   7.218   5.060
 4449TIP3    H213305   2.318   7.141   5.184
 4450TIP3   OH213306   0.347   2.373   2.662
 4450TIP3    H113307   0.284   2.445   2.659
 4450TIP3    H213308   0.362   2.359   2.756
 4451TIP3   OH213309   0.713   4.561   1.192
 4451TIP3    H113310   0.656   4.588   1.264
 4451TIP3    H213311   0.677   4.476   1.163
 4452TIP3   OH213312   1.619   5.065   5.480
 4452TIP3    H113313   1.634   4.988   5.535
 4452TIP3    H213314   1.630   5.034   5.390
 4453TIP3   OH213315   1.199   6.939   4.011
 4453TIP3    H113316   1.217   6.922   4.104
 4453TIP3    H213317   1.139   7.014   4.012
 4454TIP3   OH213318   0.295   5.030   5.225
 4454TIP3    H113319   0.259   4.974   5.294
 4454TIP3    H213320   0.314   5.113   5.269
 4455TIP3   OH213321   6.855   1.059   0.205
 4455TIP3    H113322   6.932   1.098   0.248
 4455TIP3    H213323   6.891   0.990   0.150
 4456TIP3   OH213324   7.263   6.661   0.387
 4456TIP3    H113325   7.288   6.584   0.336
 4456TIP3    H213326   7.291   6.641   0.476
 4457TIP3   OH213327   4.428   1.131   4.961
 4457TIP3    H113328   4.481   1.209   4.970
 4457TIP3    H213329   4.372   1.130   5.038
 4458TIP3   OH213330   6.162   6.477   0.703
 4458TIP3    H113331   6.116   6.547   0.749
 4458TIP3    H213332   6.130   6.484   0.613
 4459TIP3   OH213333   0.098   0.047   1.661
 4459TIP3    H113334   0.097  -0.005   1.742
 4459TIP3    H213335   0.072  -0.015   1.593
 4460TIP3   OH213336   6.932   0.152   3.823
 4460TIP3    H113337   6.996   0.155   3.752
 4460TIP3    H213338   6.936   0.062   3.855
 4461TIP3   OH213339   6.818   0.278   2.588
 4461TIP3    H113340   6.876   0.328   2.646
 4461TIP3    H213341   6.788   0.204   2.641
 4462TIP3   OH213342   1.753   7.648   2.345
 4462TIP3    H113343   1.744   7.734   2.306
 4462TIP3    H213344   1.808   7.662   2.422
 4463TIP3   OH213345   1.809   0.376   6.251
 4463TIP3    H113346   1.739   0.326   6.209
 4463TIP3    H213347   1.769   0.461   6.270
 4464TIP3   OH213348   1.764   4.527   3.285
 4464TIP3    H113349   1.716   4.444   3.289
 4464TIP3    H213350   1.855   4.504   3.303
 4465TIP3   OH213351   7.447   5.565   3.168
 4465TIP3    H113352   7.506   5.496   3.196
 4465TIP3    H213353   7.466   5.578   3.075
 4466TIP3   OH213354   5.074   1.466   3.426
 4466TIP3    H113355   5.159   1.429   3.451
 4466TIP3    H213356   5.015   1.390   3.424
 4467TIP3   OH213357   2.930   6.509   3.444
 4467TIP3    H113358   2.985   6.431   3.434
 4467TIP3    H213359   2.928   6.548   3.357
 4468TIP3   OH213360   4.161   4.163   0.352
 4468TIP3    H113361   4.128   4.073   0.360
 4468TIP3    H213362   4.156   4.198   0.441
 4469TIP3   OH213363   5.336   6.571   2.515
 4469TIP3    H113364   5.289   6.507   2.569
 4469TIP3    H213365   5.327   6.538   2.426
 4470TIP3   OH213366   7.819   1.446   0.311
 4470TIP3    H113367   7.772   1.513   0.262
 4470TIP3    H213368   7.836   1.487   0.397
 4471TIP3   OH213369   6.167   4.161   3.346
 4471TIP3    H113370   6.225   4.138   3.273
 4471TIP3    H213371   6.079   4.151   3.311
 4472TIP3   OH213372   6.282   4.126   6.235
 4472TIP3    H113373   6.370   4.136   6.198
 4472TIP3    H213374   6.297   4.098   6.325
 4473TIP3   OH213375   0.862   4.753   4.407
 4473TIP3    H113376   0.802   4.797   4.347
 4473TIP3    H213377   0.832   4.777   4.494
 4474TIP3   OH213378   7.534   2.785   0.775
 4474TIP3    H113379   7.624   2.778   0.804
 4474TIP3    H213380   7.494   2.702   0.801
 4475TIP3   OH213381   1.658   4.350   2.181
 4475TIP3    H113382   1.600   4.274   2.176
 4475TIP3    H213383   1.699   4.342   2.268
 4476TIP3   OH213384   6.089   6.270   1.873
 4476TIP3    H113385   6.015   6.264   1.933
 4476TIP3    H213386   6.150   6.203   1.904
 4477TIP3   OH213387   0.515   6.825   1.937
 4477TIP3    H113388   0.497   6.911   1.900
 4477TIP3    H213389   0.563   6.843   2.018
 4478TIP3   OH213390   0.120   6.434   0.744
 4478TIP3    H113391   0.085   6.469   0.662
 4478TIP3    H213392   0.068   6.476   0.812
 4479TIP3   OH213393   5.740  -0.018   4.458
 4479TIP3    H113394   5.665  -0.011   4.518
 4479TIP3    H213395   5.755   0.071   4.428
 4480TIP3   OH213396   7.376   6.831   1.316
 4480TIP3    H113397   7.465   6.798   1.333
 4480TIP3    H213398   7.346   6.861   1.402
 4481TIP3   OH213399   6.148   0.855   5.647
 4481TIP3    H113400   6.105   0.940   5.637
 4481TIP3    H213401   6.187   0.858   5.734
 4482TIP3   OH213402   0.776   6.283   6.424
 4482TIP3    H113403   0.707   6.220   6.447
 4482TIP3    H213404   0.729   6.364   6.406
 4483TIP3   OH213405   2.246   5.610   3.937
 4483TIP3    H113406   2.196   5.650   4.009
 4483TIP3    H213407   2.303   5.680   3.906
 4484TIP3   OH213408   3.753   7.203   0.332
 4484TIP3    H113409   3.707   7.150   0.267
 4484TIP3    H213410   3.687   7.223   0.398
 4485TIP3   OH213411   5.305   1.962   4.456
 4485TIP3    H113412   5.216   1.971   4.492
 4485TIP3    H213413   5.325   2.049   4.421
 4486TIP3   OH213414   7.929   5.782   3.575
 4486TIP3    H113415   7.914   5.770   3.669
 4486TIP3    H213416   8.005   5.727   3.556
 4487TIP3   OH213417   5.821   7.003   2.443
 4487TIP3    H113418   5.730   6.983   2.421
 4487TIP3    H213419   5.867   6.920   2.432
 4488TIP3   OH213420   4.798   4.691   6.371
 4488TIP3    H113421   4.873   4.655   6.324
 4488TIP3    H213422   4.754   4.747   6.307
 4489TIP3   OH213423   3.657   3.211   0.713
 4489TIP3    H113424   3.668   3.273   0.784
 4489TIP3    H213425   3.584   3.245   0.662
 4490TIP3   OH213426   5.393   5.294   4.653
 4490TIP3    H113427   5.309   5.269   4.690
 4490TIP3    H213428   5.392   5.258   4.564
 4491TIP3   OH213429   0.058   1.969   0.839
 4491TIP3    H113430   0.128   1.969   0.774
 4491TIP3    H213431   0.086   2.033   0.905
 4492TIP3   OH213432   2.907   5.295   4.422
 4492TIP3    H113433   2.901   5.217   4.367
 4492TIP3    H213434   2.820   5.306   4.459
 4493TIP3   OH213435   1.276   2.703   4.878
 4493TIP3    H113436   1.298   2.610   4.880
 4493TIP3    H213437   1.356   2.746   4.847
 4494TIP3   OH213438   3.646   2.306   4.905
 4494TIP3    H113439   3.566   2.314   4.853
 4494TIP3    H213440   3.664   2.395   4.935
 4495TIP3   OH213441   1.638   4.970   4.479
 4495TIP3    H113442   1.615   4.877   4.468
 4495TIP3    H213443   1.612   5.011   4.396
 4496TIP3   OH213444   0.742   2.423   1.798
 4496TIP3    H113445   0.801   2.350   1.781
 4496TIP3    H213446   0.714   2.410   1.889
 4497TIP3   OH213447   1.570   5.597   3.917
 4497TIP3    H113448   1.514   5.646   3.977
 4497TIP3    H213449   1.554   5.505   3.939
 4498TIP3   OH213450   2.729   6.568   2.587
 4498TIP3    H113451   2.809   6.620   2.576
 4498TIP3    H213452   2.660   6.621   2.548
 4499TIP3   OH213453   3.939   1.180   3.550
 4499TIP3    H113454   3.896   1.128   3.482
 4499TIP3    H213455   3.965   1.261   3.506
 4500TIP3   OH213456   3.690   0.423   1.918
 4500TIP3    H113457   3.761   0.364   1.945
 4500TIP3    H213458   3.623   0.364   1.883
 4501TIP3   OH213459  -0.009   6.941   4.060
 4501TIP3    H113460   0.053   6.987   4.003
 4501TIP3    H213461  -0.032   6.862   4.011
 4502TIP3   OH213462   7.270   4.525   2.862
 4502TIP3    H113463   7.349   4.474   2.841
 4502TIP3    H213464   7.198   4.475   2.825
 4503TIP3   OH213465   5.175   2.393   4.257
 4503TIP3    H113466   5.117   2.371   4.330
 4503TIP3    H213467   5.136   2.470   4.217
 4504TIP3   OH213468   1.322   3.023   2.744
 4504TIP3    H113469   1.406   3.056   2.711
 4504TIP3    H213470   1.343   2.939   2.785
 4505TIP3   OH213471   4.302   4.903   1.772
 4505TIP3    H113472   4.319   4.979   1.826
 4505TIP3    H213473   4.365   4.910   1.700
 4506TIP3   OH213474   4.937   6.936   4.499
 4506TIP3    H113475   4.871   6.871   4.474
 4506TIP3    H213476   4.903   6.974   4.580
 4507TIP3   OH213477   7.276   0.012   1.461
 4507TIP3    H113478   7.310   0.095   1.495
 4507TIP3    H213479   7.354  -0.039   1.440
 4508TIP3   OH213480   5.339   6.071   3.018
 4508TIP3    H113481   5.385   6.080   2.934
 4508TIP3    H213482   5.285   5.993   3.006
 4509TIP3   OH213483   3.827   7.601   2.512
 4509TIP3    H113484   3.855   7.511   2.495
 4509TIP3    H213485   3.741   7.592   2.552
 4510TIP3   OH213486   7.050   1.276   0.742
 4510TIP3    H113487   7.142   1.269   0.714
 4510TIP3    H213488   7.000   1.248   0.665
 4511TIP3   OH213489   4.519   2.394   4.837
 4511TIP3    H113490   4.450   2.402   4.770
 4511TIP3    H213491   4.601   2.406   4.789
 4512TIP3   OH213492   2.551   4.707   3.155
 4512TIP3    H113493   2.582   4.621   3.182
 4512TIP3    H213494   2.603   4.728   3.077
 4513TIP3   OH213495   3.658   1.316   3.267
 4513TIP3    H113496   3.674   1.372   3.343
 4513TIP3    H213497   3.667   1.227   3.300
 4514TIP3   OH213498   2.497   6.038   5.569
 4514TIP3    H113499   2.551   5.959   5.573
 4514TIP3    H213500   2.440   6.032   5.645
 4515TIP3   OH213501   7.274   7.236   5.588
 4515TIP3    H113502   7.221   7.162   5.559
 4515TIP3    H213503   7.267   7.235   5.683
 4516TIP3   OH213504   2.513   2.493   2.720
 4516TIP3    H113505   2.575   2.463   2.654
 4516TIP3    H213506   2.539   2.584   2.738
 4517TIP3   OH213507   8.248   5.678   4.821
 4517TIP3    H113508   8.289   5.765   4.826
 4517TIP3    H213509   8.321   5.617   4.822
 4518TIP3   OH213510   1.799   3.680   1.171
 4518TIP3    H113511   1.831   3.711   1.256
 4518TIP3    H213512   1.713   3.643   1.191
 4519TIP3   OH213513   3.460   1.899   4.501
 4519TIP3    H113514   3.500   1.860   4.423
 4519TIP3    H213515   3.452   1.825   4.562
 4520TIP3   OH213516   5.012   7.047   6.682
 4520TIP3    H113517   5.104   7.047   6.659
 4520TIP3    H213518   5.011   7.060   6.777
 4521TIP3   OH213519   5.004   6.060   0.456
 4521TIP3    H113520   4.925   6.026   0.498
 4521TIP3    H213521   5.058   5.983   0.440
 4522TIP3   OH213522   1.595   4.135   3.609
 4522TIP3    H113523   1.677   4.120   3.563
 4522TIP3    H213524   1.537   4.066   3.577
 4523TIP3   OH213525   0.393   6.345   2.316
 4523TIP3    H113526   0.406   6.363   2.223
 4523TIP3    H213527   0.404   6.250   2.324
 4524TIP3   OH213528   3.138   0.222   3.013
 4524TIP3    H113529   3.083   0.194   2.940
 4524TIP3    H213530   3.151   0.316   3.000
 4525TIP3   OH213531   7.852   7.771   6.718
 4525TIP3    H113532   7.921   7.732   6.664
 4525TIP3    H213533   7.821   7.699   6.773
 4526TIP3   OH213534   5.149   2.666   4.754
 4526TIP3    H113535   5.056   2.680   4.771
 4526TIP3    H213536   5.151   2.629   4.665
 4527TIP3   OH213537   6.489   4.686   3.568
 4527TIP3    H113538   6.525   4.712   3.653
 4527TIP3    H213539   6.500   4.591   3.565
 4528TIP3   OH213540   2.285   1.650   3.533
 4528TIP3    H113541   2.256   1.563   3.558
 4528TIP3    H213542   2.281   1.650   3.437
 4529TIP3   OH213543   6.419   0.409   0.736
 4529TIP3    H113544   6.512   0.394   0.751
 4529TIP3    H213545   6.380   0.410   0.824
 4530TIP3   OH213546   0.868   4.793   0.326
 4530TIP3    H113547   0.801   4.727   0.344
 4530TIP3    H213548   0.838   4.871   0.372
 4531TIP3   OH213549   5.277   7.166   6.619
 4531TIP3    H113550   5.207   7.215   6.661
 4531TIP3    H213551   5.357   7.214   6.642
 4532TIP3   OH213552   0.125   2.111   0.078
 4532TIP3    H113553   0.092   2.048   0.142
 4532TIP3    H213554   0.055   2.176   0.070
 4533TIP3   OH213555   8.245   2.140   5.889
 4533TIP3    H113556   8.285   2.060   5.923
 4533TIP3    H213557   8.219   2.117   5.799
 4534TIP3   OH213558   2.121   4.116   3.875
 4534TIP3    H113559   2.115   4.022   3.861
 4534TIP3    H213560   2.030   4.146   3.880
 4535TIP3   OH213561   6.445   5.025   1.742
 4535TIP3    H113562   6.537   5.013   1.718
 4535TIP3    H213563   6.396   4.975   1.676
 4536TIP3   OH213564   2.932   5.483   0.245
 4536TIP3    H113565   2.991   5.557   0.260
 4536TIP3    H213566   2.982   5.407   0.275
 4537TIP3   OH213567   6.094   3.772   3.051
 4537TIP3    H113568   6.033   3.714   3.005
 4537TIP3    H213569   6.180   3.746   3.018
 4538TIP3   OH213570   6.695   6.889   1.653
 4538TIP3    H113571   6.689   6.845   1.738
 4538TIP3    H213572   6.686   6.818   1.589
 4539TIP3   OH213573   7.826   2.657   1.387
 4539TIP3    H113574   7.886   2.624   1.320
 4539TIP3    H213575   7.760   2.705   1.337
 4540TIP3   OH213576   7.740   7.155   2.800
 4540TIP3    H113577   7.816   7.157   2.859
 4540TIP3    H213578   7.762   7.088   2.735
 4541TIP3   OH213579   6.499   2.531   6.040
 4541TIP3    H113580   6.466   2.581   5.966
 4541TIP3    H213581   6.510   2.442   6.006
 4542TIP3   OH213582   8.096   6.356   2.704
 4542TIP3    H113583   8.122   6.316   2.621
 4542TIP3    H213584   8.122   6.293   2.771
 4543TIP3   OH213585   3.434   4.277   2.502
 4543TIP3    H113586   3.489   4.293   2.425
 4543TIP3    H213587   3.455   4.187   2.529
 4544TIP3   OH213588   5.760   2.009   5.459
 4544TIP3    H113589   5.773   1.938   5.521
 4544TIP3    H213590   5.846   2.051   5.451
 4545TIP3   OH213591   5.846   7.374   1.149
 4545TIP3    H113592   5.782   7.341   1.087
 4545TIP3    H213593   5.826   7.467   1.157
 4546TIP3   OH213594   3.456   3.357   4.381
 4546TIP3    H113595   3.479   3.332   4.292
 4546TIP3    H213596   3.514   3.305   4.436
 4547TIP3   OH213597   3.710   6.844   3.216
 4547TIP3    H113598   3.655   6.895   3.157
 4547TIP3    H213599   3.671   6.757   3.217
 4548TIP3   OH213600   5.302   1.150   1.818
 4548TIP3    H113601   5.243   1.114   1.885
 4548TIP3    H213602   5.363   1.205   1.868
 4549TIP3   OH213603   6.396   3.329   0.414
 4549TIP3    H113604   6.353   3.345   0.329
 4549TIP3    H213605   6.325   3.299   0.471
 4550TIP3   OH213606   6.661   6.896   4.168
 4550TIP3    H113607   6.599   6.852   4.226
 4550TIP3    H213608   6.610   6.967   4.129
 4551TIP3   OH213609   6.691   4.542   0.024
 4551TIP3    H113610   6.750   4.615   0.005
 4551TIP3    H213611   6.718   4.511   0.110
 4552TIP3   OH213612   2.101   2.059   2.701
 4552TIP3    H113613   2.119   1.990   2.636
 4552TIP3    H213614   2.184   2.072   2.746
 4553TIP3   OH213615   6.461   1.861   0.314
 4553TIP3    H113616   6.407   1.798   0.267
 4553TIP3    H213617   6.424   1.863   0.403
 4554TIP3   OH213618   5.359   4.399   6.388
 4554TIP3    H113619   5.317   4.331   6.335
 4554TIP3    H213620   5.451   4.398   6.361
 4555TIP3   OH213621   8.301   5.310   6.454
 4555TIP3    H113622   8.233   5.376   6.465
 4555TIP3    H213623   8.330   5.321   6.363
 4556TIP3   OH213624   6.146   1.788   1.059
 4556TIP3    H113625   6.054   1.798   1.082
 4556TIP3    H213626   6.188   1.868   1.090
 4557TIP3   OH213627   2.309   4.282   4.367
 4557TIP3    H113628   2.261   4.257   4.445
 4557TIP3    H213629   2.392   4.235   4.373
 4558TIP3   OH213630   4.476   2.745   1.463
 4558TIP3    H113631   4.386   2.754   1.432
 4558TIP3    H213632   4.472   2.774   1.555
 4559TIP3   OH213633   1.906   2.514   2.318
 4559TIP3    H113634   1.832   2.550   2.367
 4559TIP3    H213635   1.867   2.478   2.238
 4560TIP3   OH213636   2.971   7.630   3.023
 4560TIP3    H113637   2.967   7.615   3.118
 4560TIP3    H213638   2.924   7.555   2.986
 4561TIP3   OH213639   8.298   1.153   0.058
 4561TIP3    H113640   8.279   1.087  -0.008
 4561TIP3    H213641   8.265   1.235   0.021
 4562TIP3   OH213642   0.294   6.503   1.081
 4562TIP3    H113643   0.337   6.523   0.998
 4562TIP3    H213644   0.200   6.507   1.061
 4563TIP3   OH213645   6.195   2.604   6.526
 4563TIP3    H113646   6.258   2.560   6.584
 4563TIP3    H213647   6.135   2.649   6.586
 4564TIP3   OH213648   1.292   0.532   2.853
 4564TIP3    H113649   1.210   0.582   2.849
 4564TIP3    H213650   1.320   0.525   2.761
 4565TIP3   OH213651   7.741   7.393   0.843
 4565TIP3    H113652   7.698   7.365   0.924
 4565TIP3    H213653   7.832   7.365   0.854
 4566TIP3   OH213654   5.554   6.045   2.837
 4566TIP3    H113655   5.625   6.057   2.900
 4566TIP3    H213656   5.512   5.963   2.863
 4567TIP3   OH213657   7.088   2.144   6.520
 4567TIP3    H113658   7.094   2.174   6.610
 4567TIP3    H213659   7.160   2.082   6.510
 4568TIP3   OH213660   1.906   6.376   3.213
 4568TIP3    H113661   1.834   6.395   3.153
 4568TIP3    H213662   1.896   6.439   3.284
 4569TIP3   OH213663   1.397   3.430   3.370
 4569TIP3    H113664   1.347   3.511   3.355
 4569TIP3    H213665   1.423   3.435   3.462
 4570TIP3   OH213666   1.840   2.936   0.335
 4570TIP3    H113667   1.758   2.887   0.337
 4570TIP3    H213668   1.883   2.908   0.254
 4571TIP3   OH213669   2.855   3.832   3.264
 4571TIP3    H113670   2.942   3.844   3.301
 4571TIP3    H213671   2.801   3.803   3.338
 4572TIP3   OH213672   5.350   2.500   5.260
 4572TIP3    H113673   5.436   2.482   5.222
 4572TIP3    H213674   5.290   2.445   5.210
 4573TIP3   OH213675   6.190   3.663   0.399
 4573TIP3    H113676   6.284   3.679   0.399
 4573TIP3    H213677   6.173   3.617   0.317
 4574TIP3   OH213678   1.007   7.481   2.370
 4574TIP3    H113679   0.967   7.520   2.293
 4574TIP3    H213680   1.068   7.416   2.336
 4575TIP3   OH213681   4.229   5.740   2.370
 4575TIP3    H113682   4.206   5.820   2.418
 4575TIP3    H213683   4.146   5.709   2.334
 4576TIP3   OH213684   7.037   2.808   2.694
 4576TIP3    H113685   7.023   2.801   2.599
 4576TIP3    H213686   7.106   2.873   2.703
 4577TIP3   OH213687   0.869   3.944   1.875
 4577TIP3    H113688   0.777   3.965   1.893
 4577TIP3    H213689   0.910   4.030   1.861
 4578TIP3   OH213690   5.449   1.721   4.333
 4578TIP3    H113691   5.532   1.728   4.380
 4578TIP3    H213692   5.394   1.789   4.371
 4579TIP3   OH213693   6.815   2.671   6.743
 4579TIP3    H113694   6.803   2.620   6.823
 4579TIP3    H213695   6.827   2.607   6.674
 4580TIP3   OH213696   2.233   6.663   2.989
 4580TIP3    H113697   2.222   6.589   2.929
 4580TIP3    H213698   2.173   6.730   2.955
 4581TIP3   OH213699   0.502   0.729   1.933
 4581TIP3    H113700   0.440   0.681   1.988
 4581TIP3    H213701   0.487   0.697   1.845
 4582TIP3   OH213702   4.186   4.448   3.419
 4582TIP3    H113703   4.144   4.531   3.397
 4582TIP3    H213704   4.175   4.395   3.340
 4583TIP3   OH213705   1.957   5.876   3.201
 4583TIP3    H113706   1.947   5.858   3.108
 4583TIP3    H213707   1.930   5.795   3.245
 4584TIP3   OH213708   6.682   6.186   6.249
 4584TIP3    H113709   6.715   6.250   6.312
 4584TIP3    H213710   6.637   6.121   6.303
 4585TIP3   OH213711   7.947   1.010   6.717
 4585TIP3    H113712   8.013   0.947   6.688
 4585TIP3    H213713   7.996   1.092   6.727
 4586TIP3   OH213714   4.908   3.948   4.948
 4586TIP3    H113715   4.914   4.044   4.943
 4586TIP3    H213716   4.997   3.919   4.965
 4587TIP3   OH213717   8.035   6.675   6.006
 4587TIP3    H113718   8.108   6.626   6.043
 4587TIP3    H213719   8.019   6.634   5.921
 4588TIP3   OH213720   1.922   6.497   2.197
 4588TIP3    H113721   2.000   6.512   2.143
 4588TIP3    H213722   1.893   6.409   2.172
 4589TIP3   OH213723   3.174   6.295   0.755
 4589TIP3    H113724   3.143   6.248   0.678
 4589TIP3    H213725   3.250   6.246   0.785
 4590TIP3   OH213726   5.383   5.648   6.115
 4590TIP3    H113727   5.418   5.725   6.158
 4590TIP3    H213728   5.366   5.676   6.025
 4591TIP3   OH213729   3.665   3.086   3.509
 4591TIP3    H113730   3.635   3.126   3.591
 4591TIP3    H213731   3.591   3.034   3.479
 4592TIP3   OH213732   1.824   5.346   5.760
 4592TIP3    H113733   1.835   5.439   5.783
 4592TIP3    H213734   1.912   5.315   5.740
 4593TIP3   OH213735   6.981   6.328   5.092
 4593TIP3    H113736   6.913   6.289   5.037
 4593TIP3    H213737   6.939   6.342   5.177
 4594TIP3   OH213738   7.430   6.732   2.380
 4594TIP3    H113739   7.413   6.765   2.468
 4594TIP3    H213740   7.505   6.783   2.349
 4595TIP3   OH213741   8.121   4.667   5.427
 4595TIP3    H113742   8.177   4.714   5.365
 4595TIP3    H213743   8.104   4.730   5.496
 4596TIP3   OH213744   3.581   6.918   6.669
 4596TIP3    H113745   3.662   6.968   6.679
 4596TIP3    H213746   3.603   6.830   6.699
 4597TIP3   OH213747   1.202   5.275   3.614
 4597TIP3    H113748   1.211   5.319   3.698
 4597TIP3    H213749   1.108   5.273   3.597
 4598TIP3   OH213750   2.633   4.951   1.254
 4598TIP3    H113751   2.544   4.967   1.284
 4598TIP3    H213752   2.667   4.884   1.314
 4599TIP3   OH213753   7.103   4.925   0.165
 4599TIP3    H113754   7.195   4.929   0.142
 4599TIP3    H213755   7.100   4.870   0.243
 4600TIP3   OH213756   4.410   3.377   2.449
 4600TIP3    H113757   4.338   3.414   2.500
 4600TIP3    H213758   4.407   3.283   2.467
 4601TIP3   OH213759   0.283   4.567   3.055
 4601TIP3    H113760   0.194   4.571   3.020
 4601TIP3    H213761   0.272   4.581   3.149
 4602TIP3   OH213762   6.771   6.441   4.641
 4602TIP3    H113763   6.730   6.361   4.674
 4602TIP3    H213764   6.838   6.462   4.706
 4603TIP3   OH213765   4.078   0.504   2.887
 4603TIP3    H113766   4.006   0.482   2.946
 4603TIP3    H213767   4.038   0.504   2.800
 4604TIP3   OH213768   6.784   5.848   2.982
 4604TIP3    H113769   6.841   5.785   2.938
 4604TIP3    H213770   6.748   5.799   3.057
 4605TIP3   OH213771   6.704   4.319   3.852
 4605TIP3    H113772   6.617   4.306   3.813
 4605TIP3    H213773   6.758   4.353   3.780
 4606TIP3   OH213774   6.304   5.033   3.110
 4606TIP3    H113775   6.309   5.125   3.135
 4606TIP3    H213776   6.330   5.032   3.018
 4607TIP3   OH213777   5.877   0.510   1.440
 4607TIP3    H113778   5.810   0.578   1.442
 4607TIP3    H213779   5.948   0.546   1.494
 4608TIP3   OH213780   4.371   3.925   5.548
 4608TIP3    H113781   4.438   3.971   5.497
 4608TIP3    H213782   4.309   3.893   5.482
 4609TIP3   OH213783   8.025   2.994   4.905
 4609TIP3    H113784   7.967   3.008   4.980
 4609TIP3    H213785   8.075   3.075   4.897
 4610TIP3   OH213786   7.753   0.056   4.280
 4610TIP3    H113787   7.700  -0.019   4.308
 4610TIP3    H213788   7.700   0.132   4.305
 4611TIP3   OH213789   7.027   3.844   6.255
 4611TIP3    H113790   6.978   3.907   6.203
 4611TIP3    H213791   7.119   3.862   6.234
 4612TIP3   OH213792   1.269   5.821   6.197
 4612TIP3    H113793   1.251   5.872   6.118
 4612TIP3    H213794   1.215   5.743   6.188
 4613TIP3   OH213795   8.250   5.618   1.086
 4613TIP3    H113796   8.261   5.651   0.997
 4613TIP3    H213797   8.196   5.540   1.076
 4614TIP3   OH213798   0.384   2.993   4.638
 4614TIP3    H113799   0.289   2.984   4.644
 4614TIP3    H213800   0.417   2.904   4.642
 4615TIP3   OH213801   4.366   2.578   4.462
 4615TIP3    H113802   4.332   2.536   4.541
 4615TIP3    H213803   4.439   2.523   4.435
 4616TIP3   OH213804   0.579   0.518   5.685
 4616TIP3    H113805   0.559   0.429   5.655
 4616TIP3    H213806   0.654   0.545   5.632
 4617TIP3   OH213807   5.020   0.021   6.743
 4617TIP3    H113808   5.012   0.114   6.762
 4617TIP3    H213809   5.005   0.014   6.649
 4618TIP3   OH213810   8.114   1.246   6.093
 4618TIP3    H113811   8.156   1.191   6.158
 4618TIP3    H213812   8.142   1.210   6.009
 4619TIP3   OH213813   3.542   7.228   0.519
 4619TIP3    H113814   3.480   7.155   0.524
 4619TIP3    H213815   3.487   7.304   0.501
 4620TIP3   OH213816   7.380   3.012   1.334
 4620TIP3    H113817   7.375   3.091   1.280
 4620TIP3    H213818   7.290   2.979   1.337
 4621TIP3   OH213819   7.407   6.117   2.102
 4621TIP3    H113820   7.348   6.158   2.039
 4621TIP3    H213821   7.417   6.182   2.171
 4622TIP3   OH213822   7.609   0.879   4.526
 4622TIP3    H113823   7.595   0.965   4.565
 4622TIP3    H213824   7.528   0.832   4.541
 4623TIP3   OH213825   7.209   5.483   3.030
 4623TIP3    H113826   7.141   5.463   3.095
 4623TIP3    H213827   7.241   5.397   3.002
 4624TIP3   OH213828   5.159   6.502   1.024
 4624TIP3    H113829   5.156   6.407   1.039
 4624TIP3    H213830   5.213   6.512   0.946
 4625TIP3   OH213831   1.763   5.681   0.969
 4625TIP3    H113832   1.839   5.625   0.983
 4625TIP3    H213833   1.784   5.731   0.891
 4626TIP3   OH213834   2.225   1.840   1.693
 4626TIP3    H113835   2.275   1.921   1.696
 4626TIP3    H213836   2.242   1.804   1.606
 4627TIP3   OH213837   6.483   1.251   5.008
 4627TIP3    H113838   6.449   1.250   5.098
 4627TIP3    H213839   6.405   1.257   4.953
 4628TIP3   OH213840   6.982   1.170   2.523
 4628TIP3    H113841   7.002   1.162   2.430
 4628TIP3    H213842   6.891   1.198   2.526
 4629TIP3   OH213843   1.159   7.726   4.236
 4629TIP3    H113844   1.200   7.645   4.205
 4629TIP3    H213845   1.162   7.785   4.160
 4630TIP3   OH213846   2.440   5.046   0.324
 4630TIP3    H113847   2.413   5.116   0.384
 4630TIP3    H213848   2.358   5.002   0.301
 4631TIP3   OH213849   6.725   5.462   0.091
 4631TIP3    H113850   6.747   5.550   0.059
 4631TIP3    H213851   6.798   5.407   0.060
 4632TIP3   OH213852   2.544   3.549   4.229
 4632TIP3    H113853   2.590   3.632   4.220
 4632TIP3    H213854   2.607   3.491   4.273
 4633TIP3   OH213855   6.902   5.140   1.816
 4633TIP3    H113856   6.855   5.059   1.796
 4633TIP3    H213857   6.872   5.202   1.750
 4634TIP3   OH213858   4.998   1.806   4.040
 4634TIP3    H113859   4.995   1.892   3.997
 4634TIP3    H213860   4.966   1.745   3.974
 4635TIP3   OH213861   3.420   6.288   3.954
 4635TIP3    H113862   3.406   6.381   3.936
 4635TIP3    H213863   3.399   6.244   3.871
 4636TIP3   OH213864   7.452   4.687   1.699
 4636TIP3    H113865   7.409   4.731   1.626
 4636TIP3    H213866   7.445   4.594   1.678
 4637TIP3   OH213867   4.890   0.230   4.851
 4637TIP3    H113868   4.940   0.307   4.877
 4637TIP3    H213869   4.869   0.187   4.934
 4638TIP3   OH213870   5.003   1.213   5.661
 4638TIP3    H113871   4.908   1.213   5.669
 4638TIP3    H213872   5.020   1.192   5.569
 4639TIP3   OH213873   7.690   1.004   4.038
 4639TIP3    H113874   7.687   0.972   3.948
 4639TIP3    H213875   7.734   0.934   4.086
 4640TIP3   OH213876   2.482   6.127   3.271
 4640TIP3    H113877   2.539   6.067   3.222
 4640TIP3    H213878   2.543   6.187   3.315
 4641TIP3   OH213879   0.574   6.880   2.904
 4641TIP3    H113880   0.618   6.797   2.885
 4641TIP3    H213881   0.530   6.864   2.988
 4642TIP3   OH213882   6.482   1.695   0.967
 4642TIP3    H113883   6.565   1.709   0.921
 4642TIP3    H213884   6.493   1.611   1.011
 4643TIP3   OH213885   6.121   1.224   2.616
 4643TIP3    H113886   6.082   1.194   2.533
 4643TIP3    H213887   6.049   1.266   2.663
 4644TIP3   OH213888   0.376   4.517   4.285
 4644TIP3    H113889   0.418   4.433   4.304
 4644TIP3    H213890   0.296   4.515   4.337
 4645TIP3   OH213891   5.194   0.677   4.676
 4645TIP3    H113892   5.270   0.680   4.733
 4645TIP3    H213893   5.119   0.691   4.734
 4646TIP3   OH213894   3.821   3.157   1.068
 4646TIP3    H113895   3.769   3.095   1.119
 4646TIP3    H213896   3.769   3.237   1.066
 4647TIP3   OH213897   1.281   3.027   2.483
 4647TIP3    H113898   1.280   2.932   2.468
 4647TIP3    H213899   1.307   3.037   2.574
 4648TIP3   OH213900   6.390   5.555   0.276
 4648TIP3    H113901   6.443   5.524   0.349
 4648TIP3    H213902   6.301   5.562   0.312
 4649TIP3   OH213903   5.241   0.181   0.236
 4649TIP3    H113904   5.324   0.172   0.283
 4649TIP3    H213905   5.245   0.267   0.194
 4650TIP3   OH213906   7.924   4.594   3.553
 4650TIP3    H113907   7.947   4.670   3.500
 4650TIP3    H213908   7.871   4.540   3.494
 4651TIP3   OH213909   2.576   0.089   0.684
 4651TIP3    H113910   2.511   0.047   0.742
 4651TIP3    H213911   2.556   0.182   0.691
 4652TIP3   OH213912   1.138   3.860   3.038
 4652TIP3    H113913   1.094   3.944   3.023
 4652TIP3    H213914   1.197   3.877   3.111
 4653TIP3   OH213915   5.781   1.428   1.659
 4653TIP3    H113916   5.874   1.407   1.663
 4653TIP3    H213917   5.740   1.371   1.724
 4654TIP3   OH213918   6.762   2.183   2.430
 4654TIP3    H113919   6.842   2.132   2.441
 4654TIP3    H213920   6.790   2.263   2.386
 4655TIP3   OH213921   7.166   0.573   5.153
 4655TIP3    H113922   7.094   0.637   5.156
 4655TIP3    H213923   7.125   0.490   5.177
 4656TIP3   OH213924   6.647   7.444   4.721
 4656TIP3    H113925   6.726   7.417   4.674
 4656TIP3    H213926   6.599   7.363   4.736
 4657TIP3   OH213927   2.844   4.063   1.325
 4657TIP3    H113928   2.785   4.068   1.400
 4657TIP3    H213929   2.817   3.984   1.278
 4658TIP3   OH213930   3.327   4.535   1.097
 4658TIP3    H113931   3.327   4.451   1.051
 4658TIP3    H213932   3.343   4.600   1.029
 4659TIP3   OH213933   3.844   0.215   6.563
 4659TIP3    H113934   3.839   0.308   6.585
 4659TIP3    H213935   3.789   0.172   6.629
 4660TIP3   OH213936   7.307   3.832   6.211
 4660TIP3    H113937   7.285   3.754   6.262
 4660TIP3    H213938   7.393   3.859   6.242
 4661TIP3   OH213939   6.758   1.798   4.405
 4661TIP3    H113940   6.788   1.707   4.407
 4661TIP3    H213941   6.784   1.830   4.318
 4662TIP3   OH213942   7.232   5.888   0.123
 4662TIP3    H113943   7.239   5.984   0.129
 4662TIP3    H213944   7.315   5.860   0.086
 4663TIP3   OH213945   0.090   2.758   6.011
 4663TIP3    H113946   0.143   2.807   6.074
 4663TIP3    H213947   0.002   2.760   6.049
 4664TIP3   OH213948   5.595   6.432   3.013
 4664TIP3    H113949   5.570   6.523   3.027
 4664TIP3    H213950   5.607   6.425   2.918
 4665TIP3   OH213951   5.166   5.785   1.501
 4665TIP3    H113952   5.214   5.850   1.552
 4665TIP3    H213953   5.127   5.727   1.566
 4666TIP3   OH213954   6.466   2.506   5.034
 4666TIP3    H113955   6.398   2.451   4.995
 4666TIP3    H213956   6.538   2.503   4.971
 4667TIP3   OH213957   2.282   1.506   2.958
 4667TIP3    H113958   2.221   1.578   2.943
 4667TIP3    H213959   2.240   1.454   3.027
 4668TIP3   OH213960   0.241   0.366   2.125
 4668TIP3    H113961   0.227   0.305   2.197
 4668TIP3    H213962   0.264   0.310   2.050
 4669TIP3   OH213963   5.686   4.466   2.839
 4669TIP3    H113964   5.607   4.419   2.813
 4669TIP3    H213965   5.739   4.400   2.885
 4670TIP3   OH213966   3.695   5.232   5.977
 4670TIP3    H113967   3.608   5.270   5.993
 4670TIP3    H213968   3.691   5.202   5.886
 4671TIP3   OH213969   1.479   1.323   2.359
 4671TIP3    H113970   1.465   1.249   2.299
 4671TIP3    H213971   1.563   1.305   2.400
 4672TIP3   OH213972   4.910   4.196   0.066
 4672TIP3    H113973   4.816   4.179   0.076
 4672TIP3    H213974   4.947   4.178   0.152
 4673TIP3   OH213975   7.446   6.680   5.600
 4673TIP3    H113976   7.361   6.694   5.642
 4673TIP3    H213977   7.424   6.646   5.513
 4674TIP3   OH213978   1.705   5.483   2.391
 4674TIP3    H113979   1.728   5.525   2.308
 4674TIP3    H213980   1.789   5.453   2.426
 4675TIP3   OH213981   1.321   4.931   2.980
 4675TIP3    H113982   1.363   4.961   2.899
 4675TIP3    H213983   1.356   4.989   3.048
 4676TIP3   OH213984   6.127   0.019   6.734
 4676TIP3    H113985   6.072   0.021   6.813
 4676TIP3    H213986   6.213  -0.007   6.766
 4677TIP3   OH213987   2.248   4.237   5.335
 4677TIP3    H113988   2.202   4.312   5.372
 4677TIP3    H213989   2.305   4.275   5.267
 4678TIP3   OH213990   2.965   2.149   5.372
 4678TIP3    H113991   2.957   2.244   5.366
 4678TIP3    H213992   3.045   2.129   5.323
 4679TIP3   OH213993   0.554   4.324   2.338
 4679TIP3    H113994   0.567   4.232   2.361
 4679TIP3    H213995   0.618   4.371   2.392
 4680TIP3   OH213996   7.034   4.807   6.180
 4680TIP3    H113997   7.109   4.754   6.207
 4680TIP3    H213998   7.063   4.898   6.193
 4681TIP3   OH213999   0.820   6.871   5.375
 4681TIP3    H114000   0.748   6.834   5.427
 4681TIP3    H214001   0.778   6.940   5.322
 4682TIP3   OH214002   2.886   1.655   5.828
 4682TIP3    H114003   2.809   1.669   5.882
 4682TIP3    H214004   2.857   1.675   5.739
 4683TIP3   OH214005   7.921   1.136   2.224
 4683TIP3    H114006   7.917   1.177   2.311
 4683TIP3    H214007   7.974   1.197   2.171
 4684TIP3   OH214008   5.464   1.648   0.538
 4684TIP3    H114009   5.505   1.625   0.454
 4684TIP3    H214010   5.417   1.569   0.564
 4685TIP3   OH214011   6.945   1.554   6.606
 4685TIP3    H114012   6.877   1.500   6.645
 4685TIP3    H214013   6.898   1.618   6.552
 4686TIP3   OH214014   7.876   5.234   2.912
 4686TIP3    H114015   7.810   5.199   2.853
 4686TIP3    H214016   7.866   5.329   2.905
 4687TIP3   OH214017   1.470   7.118   6.198
 4687TIP3    H114018   1.389   7.068   6.215
 4687TIP3    H214019   1.508   7.131   6.284
 4688TIP3   OH214020   0.763   1.315   0.224
 4688TIP3    H114021   0.833   1.333   0.287
 4688TIP3    H214022   0.806   1.318   0.139
 4689TIP3   OH214023   4.176   0.290   0.976
 4689TIP3    H114024   4.237   0.271   0.905
 4689TIP3    H214025   4.156   0.205   1.016
 4690TIP3   OH214026   3.700   4.087   5.971
 4690TIP3    H114027   3.634   4.107   6.038
 4690TIP3    H214028   3.676   4.142   5.897
 4691TIP3   OH214029   4.700   1.932   6.680
 4691TIP3    H114030   4.640   1.962   6.611
 4691TIP3    H214031   4.764   1.878   6.635
 4692TIP3   OH214032   0.701   0.457   4.513
 4692TIP3    H114033   0.770   0.469   4.448
 4692TIP3    H214034   0.704   0.364   4.534
 4693TIP3   OH214035   3.537   4.233   1.099
 4693TIP3    H114036   3.554   4.211   1.007
 4693TIP3    H214037   3.596   4.306   1.118
 4694TIP3   OH214038   7.835   3.446   3.376
 4694TIP3    H114039   7.830   3.531   3.331
 4694TIP3    H214040   7.927   3.422   3.369
 4695TIP3   OH214041   3.278   1.114   5.531
 4695TIP3    H114042   3.327   1.059   5.469
 4695TIP3    H214043   3.330   1.194   5.538
 4696TIP3   OH214044   5.477   6.232   3.191
 4696TIP3    H114045   5.524   6.272   3.118
 4696TIP3    H214046   5.419   6.168   3.150
 4697TIP3   OH214047   1.272   3.400   6.008
 4697TIP3    H114048   1.287   3.495   6.006
 4697TIP3    H214049   1.356   3.364   6.036
 4698TIP3   OH214050   1.265   6.253   3.263
 4698TIP3    H114051   1.246   6.243   3.170
 4698TIP3    H214052   1.180   6.269   3.304
 4699TIP3   OH214053   5.146   1.068   5.859
 4699TIP3    H114054   5.101   1.150   5.836
 4699TIP3    H214055   5.077   1.014   5.898
 4700TIP3   OH214056   2.252   7.514   0.232
 4700TIP3    H114057   2.171   7.537   0.277
 4700TIP3    H214058   2.272   7.591   0.178
 4701TIP3   OH214059   2.484   0.229   0.391
 4701TIP3    H114060   2.569   0.212   0.432
 4701TIP3    H214061   2.458   0.314   0.426
 4702TIP3   OH214062   4.783   4.953   3.671
 4702TIP3    H114063   4.762   4.859   3.679
 4702TIP3    H214064   4.760   4.975   3.580
 4703TIP3   OH214065   4.577   2.226   6.223
 4703TIP3    H114066   4.534   2.144   6.200
 4703TIP3    H214067   4.525   2.294   6.179
 4704TIP3   OH214068   4.476   1.483   5.720
 4704TIP3    H114069   4.548   1.509   5.777
 4704TIP3    H214070   4.411   1.552   5.729
 4705TIP3   OH214071   8.045   2.465   1.318
 4705TIP3    H114072   7.966   2.424   1.283
 4705TIP3    H214073   8.072   2.408   1.390
 4706TIP3   OH214074   6.763   3.891   2.380
 4706TIP3    H114075   6.776   3.985   2.370
 4706TIP3    H214076   6.793   3.873   2.469
 4707TIP3   OH214077   0.058   1.476   5.835
 4707TIP3    H114078   0.021   1.445   5.752
 4707TIP3    H214079   0.077   1.395   5.883
 4708TIP3   OH214080   0.109   5.922   1.055
 4708TIP3    H114081   0.172   5.986   1.022
 4708TIP3    H214082   0.093   5.947   1.145
 4709TIP3   OH214083   6.170   7.355   3.274
 4709TIP3    H114084   6.140   7.362   3.184
 4709TIP3    H214085   6.126   7.278   3.309
 4710TIP3   OH214086   3.920   3.823   2.521
 4710TIP3    H114087   3.900   3.903   2.569
 4710TIP3    H214088   3.843   3.768   2.533
 4711TIP3   OH214089   5.965   7.703   3.611
 4711TIP3    H114090   5.926   7.618   3.590
 4711TIP3    H214091   5.890   7.761   3.622
 4712TIP3   OH214092   0.953   5.664   4.413
 4712TIP3    H114093   0.878   5.704   4.369
 4712TIP3    H214094   1.027   5.681   4.355
 4713TIP3   OH214095   6.934   6.416   3.643
 4713TIP3    H114096   6.950   6.401   3.737
 4713TIP3    H214097   6.956   6.508   3.630
 4714TIP3   OH214098   0.475   2.194   4.969
 4714TIP3    H114099   0.521   2.271   5.003
 4714TIP3    H214100   0.511   2.121   5.019
 4715TIP3   OH214101   6.400   4.662   5.174
 4715TIP3    H114102   6.410   4.732   5.238
 4715TIP3    H214103   6.358   4.591   5.223
 4716TIP3   OH214104   2.414   4.337   1.276
 4716TIP3    H114105   2.457   4.273   1.219
 4716TIP3    H214106   2.321   4.327   1.258
 4717TIP3   OH214107   7.680   3.497   0.376
 4717TIP3    H114108   7.656   3.461   0.462
 4717TIP3    H214109   7.637   3.439   0.313
 4718TIP3   OH214110   4.843   3.812   5.543
 4718TIP3    H114111   4.749   3.806   5.560
 4718TIP3    H214112   4.855   3.765   5.460
 4719TIP3   OH214113   3.095   1.807   6.456
 4719TIP3    H114114   3.117   1.892   6.495
 4719TIP3    H214115   3.174   1.754   6.467
 4720TIP3   OH214116   3.330   0.637   2.440
 4720TIP3    H114117   3.256   0.656   2.382
 4720TIP3    H214118   3.316   0.547   2.469
 4721TIP3   OH214119   7.639   2.532   3.791
 4721TIP3    H114120   7.615   2.472   3.720
 4721TIP3    H214121   7.659   2.614   3.747
 4722TIP3   OH214122   8.058   4.225   2.179
 4722TIP3    H114123   8.108   4.218   2.260
 4722TIP3    H214124   8.022   4.137   2.165
 4723TIP3   OH214125   6.435   5.192   3.365
 4723TIP3    H114126   6.370   5.233   3.308
 4723TIP3    H214127   6.471   5.264   3.417
 4724TIP3   OH214128   5.519   4.070   3.409
 4724TIP3    H114129   5.429   4.102   3.399
 4724TIP3    H214130   5.510   3.975   3.412
 4725TIP3   OH214131   3.422   6.104   1.525
 4725TIP3    H114132   3.450   6.116   1.434
 4725TIP3    H214133   3.489   6.048   1.564
 4726TIP3   OH214134   3.174   3.709   0.823
 4726TIP3    H114135   3.131   3.702   0.737
 4726TIP3    H214136   3.110   3.672   0.884
 4727TIP3   OH214137   0.193   6.901   6.481
 4727TIP3    H114138   0.134   6.826   6.476
 4727TIP3    H214139   0.168   6.957   6.408
 4728TIP3   OH214140   1.785   4.413   3.799
 4728TIP3    H114141   1.701   4.445   3.832
 4728TIP3    H214142   1.779   4.424   3.704
 4729TIP3   OH214143   7.943   1.892   5.072
 4729TIP3    H114144   7.884   1.964   5.096
 4729TIP3    H214145   8.015   1.898   5.134
 4730TIP3   OH214146   5.195   6.858   1.458
 4730TIP3    H114147   5.261   6.925   1.438
 4730TIP3    H214148   5.222   6.782   1.405
 4731TIP3   OH214149   0.358   1.959   0.042
 4731TIP3    H114150   0.384   1.895   0.108
 4731TIP3    H214151   0.285   2.007   0.082
 4732TIP3   OH214152   3.122   0.579   2.126
 4732TIP3    H114153   3.138   0.583   2.032
 4732TIP3    H214154   3.044   0.631   2.139
 4733TIP3   OH214155   5.721   2.190   6.640
 4733TIP3    H114156   5.770   2.264   6.675
 4733TIP3    H214157   5.730   2.197   6.546
 4734TIP3   OH214158   7.206   4.711   2.246
 4734TIP3    H114159   7.284   4.711   2.302
 4734TIP3    H214160   7.165   4.796   2.263
 4735TIP3   OH214161   3.780   5.119   5.680
 4735TIP3    H114162   3.728   5.047   5.644
 4735TIP3    H214163   3.828   5.079   5.753
 4736TIP3   OH214164   2.352   5.036   5.131
 4736TIP3    H114165   2.287   4.985   5.179
 4736TIP3    H214166   2.327   5.026   5.039
 4737TIP3   OH214167   2.109   2.653   6.196
 4737TIP3    H114168   2.089   2.560   6.180
 4737TIP3    H214169   2.168   2.652   6.271
 4738TIP3   OH214170   0.632   4.241   0.686
 4738TIP3    H114171   0.553   4.211   0.641
 4738TIP3    H214172   0.698   4.247   0.618
 4739TIP3   OH214173   4.802   1.035   3.202
 4739TIP3    H114174   4.726   0.991   3.163
 4739TIP3    H214175   4.860   1.051   3.127
 4740TIP3   OH214176   4.844   6.967   3.738
 4740TIP3    H114177   4.912   7.002   3.680
 4740TIP3    H214178   4.876   6.984   3.826
 4741TIP3   OH214179   4.314   0.524   2.675
 4741TIP3    H114180   4.235   0.566   2.709
 4741TIP3    H214181   4.286   0.435   2.656
 4742TIP3   OH214182   0.870   0.786   3.010
 4742TIP3    H114183   0.881   0.775   3.105
 4742TIP3    H214184   0.846   0.879   3.000
 4743TIP3   OH214185   1.080   2.623   2.830
 4743TIP3    H114186   1.022   2.687   2.788
 4743TIP3    H214187   1.026   2.582   2.897
 4744TIP3   OH214188   5.999   3.260   4.074
 4744TIP3    H114189   6.043   3.235   4.155
 4744TIP3    H214190   6.052   3.331   4.038
 4745TIP3   OH214191   2.741   2.893   4.928
 4745TIP3    H114192   2.767   2.975   4.970
 4745TIP3    H214193   2.786   2.894   4.844
 4746TIP3   OH214194   5.034   5.592   3.026
 4746TIP3    H114195   5.003   5.504   3.006
 4746TIP3    H214196   5.128   5.589   3.011
 4747TIP3   OH214197   4.965   0.566   4.402
 4747TIP3    H114198   4.981   0.600   4.490
 4747TIP3    H214199   4.883   0.518   4.408
 4748TIP3   OH214200   4.746   3.143   4.787
 4748TIP3    H114201   4.774   3.211   4.848
 4748TIP3    H214202   4.826   3.116   4.742
 4749TIP3   OH214203   8.271   6.916   4.608
 4749TIP3    H114204   8.223   6.908   4.525
 4749TIP3    H214205   8.284   7.010   4.620
 4750TIP3   OH214206   3.347   1.997   5.926
 4750TIP3    H114207   3.254   1.992   5.946
 4750TIP3    H214208   3.354   2.069   5.863
 4751TIP3   OH214209   6.683   3.031   4.466
 4751TIP3    H114210   6.753   2.995   4.521
 4751TIP3    H214211   6.676   2.969   4.393
 4752TIP3   OH214212   3.206   0.728   0.467
 4752TIP3    H114213   3.222   0.777   0.547
 4752TIP3    H214214   3.112   0.709   0.469
 4753TIP3   OH214215   2.347   7.248   1.793
 4753TIP3    H114216   2.415   7.314   1.777
 4753TIP3    H214217   2.274   7.297   1.831
 4754TIP3   OH214218   7.155   2.815   4.684
 4754TIP3    H114219   7.171   2.724   4.660
 4754TIP3    H214220   7.239   2.859   4.671
 4755TIP3   OH214221   1.631   2.357   2.892
 4755TIP3    H114222   1.625   2.262   2.908
 4755TIP3    H214223   1.650   2.365   2.799
 4756TIP3   OH214224   3.468   1.992   1.501
 4756TIP3    H114225   3.501   1.996   1.590
 4756TIP3    H214226   3.458   1.899   1.482
 4757TIP3   OH214227   0.142   4.681   4.019
 4757TIP3    H114228   0.175   4.715   4.102
 4757TIP3    H214229   0.185   4.596   4.008
 4758TIP3   OH214230   5.072   0.757   1.358
 4758TIP3    H114231   5.037   0.812   1.428
 4758TIP3    H214232   5.039   0.796   1.277
 4759TIP3   OH214233   7.003   3.449   6.564
 4759TIP3    H114234   6.934   3.397   6.523
 4759TIP3    H214235   6.983   3.539   6.538
 4760TIP3   OH214236   7.946   3.198   3.185
 4760TIP3    H114237   7.987   3.223   3.103
 4760TIP3    H214238   7.995   3.245   3.252
 4761TIP3   OH214239   0.680   7.789   5.770
 4761TIP3    H114240   0.720   7.785   5.683
 4761TIP3    H214241   0.601   7.841   5.759
 4762TIP3   OH214242   1.692   2.145   0.431
 4762TIP3    H114243   1.599   2.155   0.411
 4762TIP3    H214244   1.714   2.058   0.399
 4763TIP3   OH214245   6.691   0.390   0.777
 4763TIP3    H114246   6.748   0.315   0.794
 4763TIP3    H214247   6.745   0.451   0.729
 4764TIP3   OH214248   2.706   1.456   4.465
 4764TIP3    H114249   2.764   1.525   4.497
 4764TIP3    H214250   2.619   1.496   4.465
 4765TIP3   OH214251   0.807   3.761   3.248
 4765TIP3    H114252   0.862   3.825   3.292
 4765TIP3    H214253   0.724   3.765   3.294
 4766TIP3   OH214254   5.093   3.600   4.337
 4766TIP3    H114255   5.042   3.633   4.411
 4766TIP3    H214256   5.184   3.608   4.365
 4767TIP3   OH214257   7.883   6.218   6.479
 4767TIP3    H114258   7.790   6.214   6.456
 4767TIP3    H214259   7.895   6.151   6.546
 4768TIP3   OH214260   3.080   0.179   0.185
 4768TIP3    H114261   3.104   0.270   0.168
 4768TIP3    H214262   3.090   0.169   0.280
 4769TIP3   OH214263   6.077   1.636   2.560
 4769TIP3    H114264   6.070   1.696   2.486
 4769TIP3    H214265   6.000   1.580   2.553
 4770TIP3   OH214266   4.459   7.219   1.280
 4770TIP3    H114267   4.372   7.259   1.285
 4770TIP3    H214268   4.474   7.207   1.186
 4771TIP3   OH214269   2.834   3.485   2.533
 4771TIP3    H114270   2.883   3.515   2.457
 4771TIP3    H214271   2.828   3.562   2.590
 4772TIP3   OH214272   7.952   6.465   4.814
 4772TIP3    H114273   7.928   6.500   4.900
 4772TIP3    H214274   8.035   6.420   4.828
 4773TIP3   OH214275   3.120   4.215   0.094
 4773TIP3    H114276   3.199   4.267   0.082
 4773TIP3    H214277   3.112   4.204   0.188
 4774TIP3   OH214278   5.689   4.489   3.458
 4774TIP3    H114279   5.596   4.467   3.461
 4774TIP3    H214280   5.698   4.565   3.515
 4775TIP3   OH214281   4.534   5.506   5.135
 4775TIP3    H114282   4.496   5.422   5.107
 4775TIP3    H214283   4.478   5.572   5.094
 4776TIP3   OH214284   4.639   1.830   2.400
 4776TIP3    H114285   4.647   1.772   2.324
 4776TIP3    H214286   4.567   1.794   2.450
 4777TIP3   OH214287   4.328   5.943   2.637
 4777TIP3    H114288   4.328   6.002   2.713
 4777TIP3    H214289   4.249   5.968   2.588
 4778TIP3   OH214290   1.344   4.588   0.880
 4778TIP3    H114291   1.354   4.676   0.917
 4778TIP3    H214292   1.253   4.563   0.901
 4779TIP3   OH214293   1.528   2.832   4.843
 4779TIP3    H114294   1.554   2.924   4.846
 4779TIP3    H214295   1.542   2.799   4.932
 4780TIP3   OH214296   2.132   1.934   3.494
 4780TIP3    H114297   2.106   1.909   3.405
 4780TIP3    H214298   2.120   1.856   3.546
 4781TIP3   OH214299   3.060   1.772   5.264
 4781TIP3    H114300   3.118   1.701   5.291
 4781TIP3    H214301   3.117   1.834   5.218
 4782TIP3   OH214302   7.312   1.152   0.184
 4782TIP3    H114303   7.407   1.148   0.173
 4782TIP3    H214304   7.277   1.123   0.100
 4783TIP3   OH214305   1.114   2.162   4.500
 4783TIP3    H114306   1.035   2.124   4.461
 4783TIP3    H214307   1.157   2.207   4.427
 4784TIP3   OH214308   1.077   4.245   0.696
 4784TIP3    H114309   1.017   4.218   0.765
 4784TIP3    H214310   1.041   4.328   0.664
 4785TIP3   OH214311   7.856   7.593   2.422
 4785TIP3    H114312   7.951   7.593   2.432
 4785TIP3    H214313   7.825   7.532   2.489
 4786TIP3   OH214314   6.333   2.805   1.816
 4786TIP3    H114315   6.415   2.773   1.853
 4786TIP3    H214316   6.348   2.897   1.798
 4787TIP3   OH214317   4.498   6.448   4.606
 4787TIP3    H114318   4.526   6.467   4.696
 4787TIP3    H214319   4.533   6.520   4.554
 4788TIP3   OH214320   1.399   3.468   0.119
 4788TIP3    H114321   1.466   3.407   0.150
 4788TIP3    H214322   1.442   3.517   0.050
 4789TIP3   OH214323   7.751   6.259   2.176
 4789TIP3    H114324   7.678   6.272   2.236
 4789TIP3    H214325   7.737   6.172   2.139
 4790TIP3   OH214326   3.630   3.811   1.888
 4790TIP3    H114327   3.719   3.841   1.866
 4790TIP3    H214328   3.611   3.854   1.972
 4791TIP3   OH214329   3.622   5.639   0.557
 4791TIP3    H114330   3.547   5.697   0.568
 4791TIP3    H214331   3.589   5.552   0.580
 4792TIP3   OH214332   4.434   0.763   0.487
 4792TIP3    H114333   4.445   0.855   0.463
 4792TIP3    H214334   4.373   0.765   0.561
 4793TIP3   OH214335   6.666   2.725   0.917
 4793TIP3    H114336   6.722   2.763   0.985
 4793TIP3    H214337   6.682   2.631   0.923
 4794TIP3   OH214338   4.991   0.585   1.068
 4794TIP3    H114339   5.017   0.602   0.977
 4794TIP3    H214340   4.987   0.672   1.108
 4795TIP3   OH214341   2.933   7.171   0.739
 4795TIP3    H114342   3.023   7.170   0.770
 4795TIP3    H214343   2.905   7.262   0.752
 4796TIP3   OH214344   1.814   3.455   2.226
 4796TIP3    H114345   1.885   3.452   2.161
 4796TIP3    H214346   1.745   3.505   2.183
 4797TIP3   OH214347   5.821   6.196   2.748
 4797TIP3    H114348   5.796   6.181   2.839
 4797TIP3    H214349   5.778   6.126   2.699
 4798TIP3   OH214350   2.455   1.499   1.518
 4798TIP3    H114351   2.543   1.534   1.534
 4798TIP3    H214352   2.447   1.427   1.580
 4799TIP3   OH214353   7.987   0.031   0.109
 4799TIP3    H114354   7.903   0.025   0.063
 4799TIP3    H214355   7.999   0.124   0.125
 4800TIP3   OH214356   6.485   7.491   4.021
 4800TIP3    H114357   6.475   7.585   4.039
 4800TIP3    H214358   6.533   7.457   4.096
 4801TIP3   OH214359   1.493   3.358   5.205
 4801TIP3    H114360   1.502   3.316   5.290
 4801TIP3    H214361   1.536   3.443   5.215
 4802TIP3   OH214362   6.435   4.770   3.250
 4802TIP3    H114363   6.431   4.854   3.204
 4802TIP3    H214364   6.473   4.710   3.187
 4803TIP3   OH214365   6.072   7.069   6.333
 4803TIP3    H114366   6.101   7.015   6.260
 4803TIP3    H214367   6.046   7.006   6.401
 4804TIP3   OH214368   5.531   5.252   0.329
 4804TIP3    H114369   5.619   5.282   0.307
 4804TIP3    H214370   5.522   5.271   0.423
 4805TIP3   OH214371   7.860   4.087   6.494
 4805TIP3    H114372   7.898   4.000   6.504
 4805TIP3    H214373   7.847   4.096   6.399
 4806TIP3   OH214374   0.237   5.368   4.501
 4806TIP3    H114375   0.297   5.407   4.438
 4806TIP3    H214376   0.217   5.438   4.563
 4807TIP3   OH214377   4.760   2.618   5.322
 4807TIP3    H114378   4.732   2.529   5.301
 4807TIP3    H214379   4.739   2.628   5.415
 4808TIP3   OH214380   3.890   5.715   4.758
 4808TIP3    H114381   3.986   5.721   4.758
 4808TIP3    H214382   3.861   5.803   4.783
 4809TIP3   OH214383   3.727   1.522   4.178
 4809TIP3    H114384   3.649   1.524   4.233
 4809TIP3    H214385   3.772   1.605   4.198
 4810TIP3   OH214386   0.427   2.321   5.663
 4810TIP3    H114387   0.417   2.329   5.568
 4810TIP3    H214388   0.338   2.302   5.695
 4811TIP3   OH214389   2.481   5.202   3.912
 4811TIP3    H114390   2.388   5.220   3.923
 4811TIP3    H214391   2.498   5.127   3.969
 4812TIP3   OH214392   4.262   3.304   4.005
 4812TIP3    H114393   4.303   3.286   4.089
 4812TIP3    H214394   4.256   3.400   4.001
 4813TIP3   OH214395   7.130   7.791   1.353
 4813TIP3    H114396   7.067   7.745   1.408
 4813TIP3    H214397   7.159   7.725   1.290
 4814TIP3   OH214398   0.314   6.546   6.736
 4814TIP3    H114399   0.340   6.638   6.726
 4814TIP3    H214400   0.229   6.540   6.694
 4815TIP3   OH214401   6.047   2.810   4.299
 4815TIP3    H114402   6.003   2.781   4.219
 4815TIP3    H214403   6.127   2.853   4.269
 4816TIP3   OH214404   1.870   7.275   2.467
 4816TIP3    H114405   1.844   7.196   2.514
 4816TIP3    H214406   1.800   7.289   2.403
 4817TIP3   OH214407   0.293   1.256   3.824
 4817TIP3    H114408   0.361   1.322   3.816
 4817TIP3    H214409   0.298   1.228   3.916
 4818TIP3   OH214410   2.178   1.718   1.955
 4818TIP3    H114411   2.180   1.748   1.864
 4818TIP3    H214412   2.204   1.626   1.951
 4819TIP3   OH214413   6.037   5.447   6.630
 4819TIP3    H114414   6.096   5.519   6.607
 4819TIP3    H214415   5.952   5.472   6.594
 4820TIP3   OH214416   1.091   0.232   3.617
 4820TIP3    H114417   1.135   0.239   3.701
 4820TIP3    H214418   1.068   0.322   3.594
 4821TIP3   OH214419   0.415   6.344   4.407
 4821TIP3    H114420   0.427   6.254   4.437
 4821TIP3    H214421   0.333   6.343   4.358
 4822TIP3   OH214422   3.449   4.028   2.971
 4822TIP3    H114423   3.376   4.020   2.908
 4822TIP3    H214424   3.410   4.067   3.049
 4823TIP3   OH214425   6.334   2.258   4.891
 4823TIP3    H114426   6.257   2.211   4.925
 4823TIP3    H214427   6.386   2.191   4.847
 4824TIP3   OH214428   2.835   6.284   1.131
 4824TIP3    H114429   2.901   6.349   1.154
 4824TIP3    H214430   2.862   6.205   1.179
 4825TIP3   OH214431   4.017   5.634   2.194
 4825TIP3    H114432   4.011   5.637   2.099
 4825TIP3    H214433   3.929   5.610   2.223
 4826TIP3   OH214434   7.732   6.417   3.687
 4826TIP3    H114435   7.686   6.345   3.645
 4826TIP3    H214436   7.748   6.387   3.776
 4827TIP3   OH214437   2.315   6.005   0.152
 4827TIP3    H114438   2.336   5.917   0.184
 4827TIP3    H214439   2.247   5.991   0.086
 4828TIP3   OH214440   0.160   7.786   3.876
 4828TIP3    H114441   0.195   7.747   3.956
 4828TIP3    H214442   0.076   7.742   3.862
 4829TIP3   OH214443   7.648   5.666   4.054
 4829TIP3    H114444   7.562   5.689   4.090
 4829TIP3    H214445   7.708   5.730   4.094
 4830TIP3   OH214446   6.970   7.716   3.049
 4830TIP3    H114447   7.005   7.771   2.978
 4830TIP3    H214448   6.877   7.739   3.053
 4831TIP3   OH214449   1.995   7.528   4.835
 4831TIP3    H114450   2.006   7.607   4.889
 4831TIP3    H214451   2.042   7.460   4.882
 4832TIP3   OH214452   3.913   2.738   5.289
 4832TIP3    H114453   3.901   2.823   5.331
 4832TIP3    H214454   3.873   2.748   5.202
 4833TIP3   OH214455   7.524   7.502   2.088
 4833TIP3    H114456   7.514   7.457   2.172
 4833TIP3    H214457   7.507   7.435   2.023
 4834TIP3   OH214458   4.117   5.651   2.825
 4834TIP3    H114459   4.127   5.582   2.759
 4834TIP3    H214460   4.206   5.668   2.855
 4835TIP3   OH214461   6.727   1.137   5.717
 4835TIP3    H114462   6.666   1.155   5.788
 4835TIP3    H214463   6.778   1.062   5.748
 4836TIP3   OH214464   4.774   6.998   0.333
 4836TIP3    H114465   4.810   7.086   0.344
 4836TIP3    H214466   4.850   6.940   0.342
 4837TIP3   OH214467   4.181   1.444   0.709
 4837TIP3    H114468   4.194   1.355   0.744
 4837TIP3    H214469   4.209   1.501   0.781
 4838TIP3   OH214470   0.598   3.723   5.026
 4838TIP3    H114471   0.585   3.632   5.000
 4838TIP3    H214472   0.589   3.773   4.945
 4839TIP3   OH214473   6.150   7.341   5.063
 4839TIP3    H114474   6.131   7.369   5.152
 4839TIP3    H214475   6.239   7.307   5.067
 4840TIP3   OH214476   6.114   0.901   4.040
 4840TIP3    H114477   6.025   0.900   4.073
 4840TIP3    H214478   6.113   0.966   3.970
 4841TIP3   OH214479   3.819   5.482   2.457
 4841TIP3    H114480   3.727   5.493   2.432
 4841TIP3    H214481   3.818   5.411   2.521
 4842TIP3   OH214482   6.815   3.915   0.534
 4842TIP3    H114483   6.849   3.924   0.445
 4842TIP3    H214484   6.810   3.820   0.548
 4843TIP3   OH214485   7.675   5.617   6.271
 4843TIP3    H114486   7.728   5.554   6.319
 4843TIP3    H214487   7.694   5.701   6.313
 4844TIP3   OH214488   0.499   7.732   5.164
 4844TIP3    H114489   0.488   7.644   5.200
 4844TIP3    H214490   0.557   7.776   5.226
 4845TIP3   OH214491   6.973   7.694   6.476
 4845TIP3    H114492   6.892   7.667   6.434
 4845TIP3    H214493   6.996   7.621   6.533
 4846TIP3   OH214494   4.054   3.355   4.682
 4846TIP3    H114495   4.025   3.442   4.657
 4846TIP3    H214496   4.074   3.362   4.775
 4847TIP3   OH214497   4.631   6.585   3.425
 4847TIP3    H114498   4.546   6.563   3.463
 4847TIP3    H214499   4.695   6.551   3.488
 4848TIP3   OH214500   2.856   2.057   5.061
 4848TIP3    H114501   2.809   2.096   5.135
 4848TIP3    H214502   2.882   2.131   5.007
 4849TIP3   OH214503   5.246   5.277   2.853
 4849TIP3    H114504   5.178   5.251   2.791
 4849TIP3    H214505   5.270   5.195   2.898
 4850TIP3   OH214506   7.323   4.407   6.034
 4850TIP3    H114507   7.373   4.474   6.082
 4850TIP3    H214508   7.374   4.392   5.955
 4851TIP3   OH214509   1.659   3.505   2.718
 4851TIP3    H114510   1.692   3.517   2.629
 4851TIP3    H214511   1.573   3.547   2.718
 4852TIP3   OH214512   5.282   7.616   4.922
 4852TIP3    H114513   5.263   7.706   4.948
 4852TIP3    H214514   5.314   7.575   5.003
 4853TIP3   OH214515   6.063   0.075   6.409
 4853TIP3    H114516   6.094  -0.002   6.456
 4853TIP3    H214517   6.140   0.109   6.364
 4854TIP3   OH214518   6.662   6.938   3.445
 4854TIP3    H114519   6.707   6.901   3.521
 4854TIP3    H214520   6.642   7.028   3.470
 4855TIP3   OH214521   4.659   5.993   3.658
 4855TIP3    H114522   4.748   5.975   3.628
 4855TIP3    H214523   4.613   5.909   3.650
 4856TIP3   OH214524   2.602   2.602   4.004
 4856TIP3    H114525   2.540   2.657   3.955
 4856TIP3    H214526   2.626   2.656   4.080
 4857TIP3   OH214527   5.256   3.348   5.562
 4857TIP3    H114528   5.202   3.356   5.641
 4857TIP3    H214529   5.246   3.433   5.518
 4858TIP3   OH214530   3.739   2.638   1.168
 4858TIP3    H114531   3.648   2.613   1.182
 4858TIP3    H214532   3.784   2.607   1.246
 4859TIP3   OH214533   2.508   4.537   1.452
 4859TIP3    H114534   2.472   4.486   1.380
 4859TIP3    H214535   2.454   4.616   1.455
 4860TIP3   OH214536   6.118   6.292   2.309
 4860TIP3    H114537   6.158   6.213   2.346
 4860TIP3    H214538   6.035   6.301   2.357
 4861TIP3   OH214539   7.980   2.147   6.079
 4861TIP3    H114540   7.965   2.125   6.171
 4861TIP3    H214541   8.030   2.073   6.045
 4862TIP3   OH214542   5.070   7.398   5.779
 4862TIP3    H114543   5.052   7.440   5.695
 4862TIP3    H214544   5.021   7.315   5.775
 4863TIP3   OH214545   7.652   0.333   4.779
 4863TIP3    H114546   7.566   0.337   4.738
 4863TIP3    H214547   7.680   0.425   4.785
 4864TIP3   OH214548   6.485   5.447   2.034
 4864TIP3    H114549   6.424   5.405   1.973
 4864TIP3    H214550   6.549   5.491   1.978
 4865TIP3   OH214551   0.272   5.388   6.220
 4865TIP3    H114552   0.216   5.380   6.143
 4865TIP3    H214553   0.299   5.299   6.240
 4866TIP3   OH214554   4.404   0.956   6.600
 4866TIP3    H114555   4.468   0.900   6.556
 4866TIP3    H214556   4.456   1.026   6.638
 4867TIP3   OH214557   0.742   7.680   6.029
 4867TIP3    H114558   0.799   7.604   6.024
 4867TIP3    H214559   0.750   7.723   5.944
 4868TIP3   OH214560   4.704   5.109   4.004
 4868TIP3    H114561   4.626   5.095   3.951
 4868TIP3    H214562   4.767   5.045   3.971
 4869TIP3   OH214563   3.465   0.799   5.760
 4869TIP3    H114564   3.518   0.778   5.837
 4869TIP3    H214565   3.382   0.830   5.795
 4870TIP3   OH214566   6.449   0.887   5.345
 4870TIP3    H114567   6.354   0.897   5.341
 4870TIP3    H214568   6.478   0.961   5.398
 4871TIP3   OH214569   6.166   5.288   0.346
 4871TIP3    H114570   6.200   5.268   0.433
 4871TIP3    H214571   6.176   5.383   0.338
 4872TIP3   OH214572   7.630   0.294   3.525
 4872TIP3    H114573   7.588   0.341   3.454
 4872TIP3    H214574   7.712   0.341   3.541
 4873TIP3   OH214575   3.615   0.556   2.263
 4873TIP3    H114576   3.670   0.604   2.201
 4873TIP3    H214577   3.527   0.560   2.225
 4874TIP3   OH214578   2.358   7.028   0.174
 4874TIP3    H114579   2.274   7.065   0.148
 4874TIP3    H214580   2.351   6.935   0.153
 4875TIP3   OH214581   7.859   5.484   5.125
 4875TIP3    H114582   7.912   5.523   5.055
 4875TIP3    H214583   7.859   5.391   5.106
 4876TIP3   OH214584   7.069   4.621   2.521
 4876TIP3    H114585   7.090   4.531   2.498
 4876TIP3    H214586   6.993   4.614   2.579
 4877TIP3   OH214587   6.242   3.545   1.760
 4877TIP3    H114588   6.333   3.548   1.732
 4877TIP3    H214589   6.193   3.584   1.687
 4878TIP3   OH214590   1.158   5.564   5.507
 4878TIP3    H114591   1.073   5.597   5.534
 4878TIP3    H214592   1.220   5.628   5.543
 4879TIP3   OH214593   8.028   1.298   0.407
 4879TIP3    H114594   7.969   1.363   0.370
 4879TIP3    H214595   7.979   1.216   0.404
 4880TIP3   OH214596   4.426   4.178   0.237
 4880TIP3    H114597   4.346   4.180   0.290
 4880TIP3    H214598   4.423   4.258   0.186
 4881TIP3   OH214599   8.018   5.161   1.472
 4881TIP3    H114600   8.081   5.224   1.508
 4881TIP3    H214601   7.937   5.211   1.461
 4882TIP3   OH214602   7.676   7.815   1.330
 4882TIP3    H114603   7.674   7.756   1.405
 4882TIP3    H214604   7.584   7.826   1.306
 4883TIP3   OH214605   7.243   6.048   6.025
 4883TIP3    H114606   7.187   6.011   5.956
 4883TIP3    H214607   7.291   5.973   6.059
 4884TIP3   OH214608   6.911   3.885   3.259
 4884TIP3    H114609   6.987   3.941   3.243
 4884TIP3    H214610   6.903   3.881   3.354
 4885TIP3   OH214611   5.058   6.747   5.111
 4885TIP3    H114612   5.094   6.773   5.196
 4885TIP3    H214613   5.043   6.829   5.065
 4886TIP3   OH214614   3.751   6.692   2.175
 4886TIP3    H114615   3.802   6.613   2.194
 4886TIP3    H214616   3.710   6.715   2.259
 4887TIP3   OH214617   3.129   0.421   2.339
 4887TIP3    H114618   3.123   0.467   2.256
 4887TIP3    H214619   3.164   0.335   2.316
 4888TIP3   OH214620   0.437   0.454   5.266
 4888TIP3    H114621   0.440   0.358   5.264
 4888TIP3    H214622   0.379   0.475   5.339
 4889TIP3   OH214623   6.686   1.132   6.351
 4889TIP3    H114624   6.745   1.101   6.282
 4889TIP3    H214625   6.640   1.053   6.380
 4890TIP3   OH214626   6.510   2.070   2.269
 4890TIP3    H114627   6.586   2.030   2.226
 4890TIP3    H214628   6.548   2.133   2.330
 4891TIP3   OH214629   7.839   2.675   6.530
 4891TIP3    H114630   7.825   2.749   6.590
 4891TIP3    H214631   7.930   2.650   6.543
 4892TIP3   OH214632   5.780   0.345   3.011
 4892TIP3    H114633   5.746   0.381   2.929
 4892TIP3    H214634   5.871   0.321   2.992
 4893TIP3   OH214635   1.044   6.353   2.732
 4893TIP3    H114636   0.999   6.271   2.755
 4893TIP3    H214637   1.087   6.380   2.813
 4894TIP3   OH214638   1.551   1.673   6.734
 4894TIP3    H114639   1.523   1.701   6.647
 4894TIP3    H214640   1.520   1.742   6.792
 4895TIP3   OH214641   4.876   7.610   5.688
 4895TIP3    H114642   4.962   7.641   5.714
 4895TIP3    H214643   4.876   7.617   5.592
 4896TIP3   OH214644   4.446   0.175   1.219
 4896TIP3    H114645   4.480   0.242   1.159
 4896TIP3    H214646   4.386   0.223   1.276
 4897TIP3   OH214647   0.727   5.124   1.133
 4897TIP3    H114648   0.781   5.045   1.135
 4897TIP3    H214649   0.689   5.129   1.220
 4898TIP3   OH214650   5.112   1.017   1.971
 4898TIP3    H114651   5.080   0.967   1.896
 4898TIP3    H214652   5.117   0.953   2.042
 4899TIP3   OH214653   4.091   0.455   3.526
 4899TIP3    H114654   4.103   0.497   3.612
 4899TIP3    H214655   4.047   0.373   3.545
 4900TIP3   OH214656   0.955   3.577   1.376
 4900TIP3    H114657   0.939   3.671   1.368
 4900TIP3    H214658   0.967   3.547   1.286
 4901TIP3   OH214659   4.802   4.642   0.151
 4901TIP3    H114660   4.849   4.569   0.191
 4901TIP3    H214661   4.777   4.698   0.225
 4902TIP3   OH214662   1.020   7.485   0.358
 4902TIP3    H114663   0.936   7.456   0.395
 4902TIP3    H214664   1.016   7.460   0.266
 4903TIP3   OH214665   5.374   3.541   2.407
 4903TIP3    H114666   5.311   3.470   2.422
 4903TIP3    H214667   5.321   3.621   2.406
 4904TIP3   OH214668   4.011   6.917   2.211
 4904TIP3    H114669   4.105   6.937   2.209
 4904TIP3    H214670   4.008   6.822   2.226
 4905TIP3   OH214671   7.298   6.543   1.609
 4905TIP3    H114672   7.285   6.531   1.515
 4905TIP3    H214673   7.213   6.521   1.648
 4906TIP3   OH214674   7.174   6.537   5.120
 4906TIP3    H114675   7.102   6.473   5.119
 4906TIP3    H214676   7.133   6.618   5.151
 4907TIP3   OH214677   3.866   5.079   3.170
 4907TIP3    H114678   3.896   5.059   3.258
 4907TIP3    H214679   3.842   5.172   3.173
 4908TIP3   OH214680   8.262   0.146   4.949
 4908TIP3    H114681   8.268   0.064   4.900
 4908TIP3    H214682   8.349   0.155   4.989
 4909TIP3   OH214683   3.763   4.737   0.464
 4909TIP3    H114684   3.712   4.699   0.393
 4909TIP3    H214685   3.705   4.729   0.541
 4910TIP3   OH214686   3.055   4.164   3.245
 4910TIP3    H114687   3.065   4.176   3.151
 4910TIP3    H214688   2.962   4.179   3.262
 4911TIP3   OH214689   1.784   4.123   4.929
 4911TIP3    H114690   1.771   4.210   4.967
 4911TIP3    H214691   1.701   4.077   4.944
 4912TIP3   OH214692   5.737   1.901   5.202
 4912TIP3    H114693   5.663   1.847   5.229
 4912TIP3    H214694   5.753   1.959   5.276
 4913TIP3   OH214695   4.013   4.843   6.310
 4913TIP3    H114696   4.054   4.758   6.325
 4913TIP3    H214697   4.085   4.906   6.314
 4914TIP3   OH214698   5.308   2.931   3.573
 4914TIP3    H114699   5.311   2.868   3.646
 4914TIP3    H214700   5.362   2.891   3.505
 4915TIP3   OH214701   3.908   7.211   3.993
 4915TIP3    H114702   3.879   7.152   4.063
 4915TIP3    H214703   3.957   7.154   3.933
 4916TIP3   OH214704   2.403   5.631   2.908
 4916TIP3    H114705   2.331   5.605   2.967
 4916TIP3    H214706   2.365   5.624   2.821
 4917TIP3   OH214707   7.374   6.362   4.984
 4917TIP3    H114708   7.404   6.291   5.042
 4917TIP3    H214709   7.309   6.409   5.036
 4918TIP3   OH214710   7.036   6.090   2.758
 4918TIP3    H114711   7.012   6.148   2.830
 4918TIP3    H214712   7.107   6.036   2.794
 4919TIP3   OH214713   2.391   4.945   3.625
 4919TIP3    H114714   2.374   5.021   3.570
 4919TIP3    H214715   2.468   4.904   3.585
 4920TIP3   OH214716   5.485   5.850   6.263
 4920TIP3    H114717   5.548   5.798   6.313
 4920TIP3    H214718   5.407   5.852   6.319
 4921TIP3   OH214719   4.842   0.670   6.448
 4921TIP3    H114720   4.814   0.672   6.539
 4921TIP3    H214721   4.938   0.673   6.453
 4922TIP3   OH214722   4.993   4.677   2.753
 4922TIP3    H114723   5.010   4.661   2.846
 4922TIP3    H214724   5.062   4.630   2.707
 4923TIP3   OH214725   2.460   6.915   5.557
 4923TIP3    H114726   2.510   6.961   5.625
 4923TIP3    H214727   2.480   6.823   5.570
 4924TIP3   OH214728   0.587   6.137   4.072
 4924TIP3    H114729   0.679   6.111   4.073
 4924TIP3    H214730   0.548   6.092   4.147
 4925TIP3   OH214731   4.468   4.809   4.082
 4925TIP3    H114732   4.396   4.851   4.034
 4925TIP3    H214733   4.433   4.795   4.170
 4926TIP3   OH214734   2.937   3.256   5.804
 4926TIP3    H114735   2.928   3.176   5.751
 4926TIP3    H214736   2.922   3.327   5.742
 4927TIP3   OH214737   1.180   1.810   4.551
 4927TIP3    H114738   1.208   1.867   4.479
 4927TIP3    H214739   1.087   1.793   4.533
 4928TIP3   OH214740   0.009   5.206   2.561
 4928TIP3    H114741   0.072   5.276   2.542
 4928TIP3    H214742  -0.027   5.228   2.647
 4929TIP3   OH214743   3.651   5.241   6.759
 4929TIP3    H114744   3.634   5.335   6.758
 4929TIP3    H214745   3.733   5.231   6.711
 4930TIP3   OH214746   4.114   7.077   6.524
 4930TIP3    H114747   4.178   7.092   6.454
 4930TIP3    H214748   4.160   7.022   6.587
 4931TIP3   OH214749   5.154   7.598   4.456
 4931TIP3    H114750   5.224   7.636   4.402
 4931TIP3    H214751   5.174   7.505   4.460
 4932TIP3   OH214752   3.846   4.829   3.511
 4932TIP3    H114753   3.870   4.920   3.495
 4932TIP3    H214754   3.913   4.798   3.573
 4933TIP3   OH214755   6.448   5.018   1.342
 4933TIP3    H114756   6.501   4.964   1.283
 4933TIP3    H214757   6.512   5.062   1.398
 4934TIP3   OH214758   2.237   6.004   6.319
 4934TIP3    H114759   2.204   6.007   6.229
 4934TIP3    H214760   2.164   5.967   6.370
 4935TIP3   OH214761   1.530   3.197   6.273
 4935TIP3    H114762   1.563   3.107   6.273
 4935TIP3    H214763   1.494   3.209   6.186
 4936TIP3   OH214764   7.250   3.353   2.644
 4936TIP3    H114765   7.295   3.407   2.579
 4936TIP3    H214766   7.207   3.284   2.593
 4937TIP3   OH214767   3.565   0.839   3.816
 4937TIP3    H114768   3.646   0.875   3.851
 4937TIP3    H214769   3.574   0.744   3.828
 4938TIP3   OH214770   6.980   1.658   2.004
 4938TIP3    H114771   6.903   1.714   1.995
 4938TIP3    H214772   7.054   1.717   1.989
 4939TIP3   OH214773   4.928   7.703   6.552
 4939TIP3    H114774   4.903   7.757   6.478
 4939TIP3    H214775   4.845   7.671   6.588
 4940TIP3   OH214776   2.646   4.815   1.491
 4940TIP3    H114777   2.600   4.852   1.567
 4940TIP3    H214778   2.656   4.722   1.513
 4941TIP3   OH214779   6.128   3.354   0.269
 4941TIP3    H114780   6.173   3.385   0.191
 4941TIP3    H214781   6.073   3.282   0.239
 4942TIP3   OH214782   0.872   0.367   5.051
 4942TIP3    H114783   0.882   0.274   5.070
 4942TIP3    H214784   0.932   0.410   5.112
 4943TIP3   OH214785   4.896   1.927   4.743
 4943TIP3    H114786   4.983   1.899   4.770
 4943TIP3    H214787   4.845   1.927   4.824
 4944TIP3   OH214788   0.659   3.980   5.686
 4944TIP3    H114789   0.703   3.966   5.770
 4944TIP3    H214790   0.670   3.898   5.639
 4945TIP3   OH214791   0.282   7.010   4.589
 4945TIP3    H114792   0.263   6.958   4.511
 4945TIP3    H214793   0.377   7.017   4.590
 4946TIP3   OH214794   7.005   6.224   3.003
 4946TIP3    H114795   7.012   6.196   3.094
 4946TIP3    H214796   7.008   6.320   3.007
 4947TIP3   OH214797   2.286   1.335   6.465
 4947TIP3    H114798   2.345   1.384   6.408
 4947TIP3    H214799   2.289   1.381   6.549
 4948TIP3   OH214800   4.561   7.776   0.294
 4948TIP3    H114801   4.594   7.691   0.267
 4948TIP3    H214802   4.612   7.839   0.244
 4949TIP3   OH214803   1.029   1.701   6.465
 4949TIP3    H114804   1.019   1.748   6.383
 4949TIP3    H214805   1.087   1.627   6.444
 4950TIP3   OH214806   8.143   5.857   4.330
 4950TIP3    H114807   8.082   5.784   4.343
 4950TIP3    H214808   8.112   5.900   4.250
 4951TIP3   OH214809   7.958   4.716   0.775
 4951TIP3    H114810   7.922   4.659   0.707
 4951TIP3    H214811   7.991   4.793   0.728
 4952TIP3   OH214812   0.011   2.901   3.268
 4952TIP3    H114813   0.101   2.924   3.245
 4952TIP3    H214814  -0.011   2.827   3.211
 4953TIP3   OH214815   6.101   2.289   4.346
 4953TIP3    H114816   6.120   2.226   4.416
 4953TIP3    H214817   6.043   2.353   4.387
 4954TIP3   OH214818   7.096   2.540   2.675
 4954TIP3    H114819   7.056   2.622   2.706
 4954TIP3    H214820   7.107   2.487   2.754
 4955TIP3   OH214821   4.932   1.339   2.159
 4955TIP3    H114822   4.911   1.288   2.236
 4955TIP3    H214823   4.950   1.427   2.192
 4956TIP3   OH214824   4.612   6.969   3.070
 4956TIP3    H114825   4.698   6.960   3.029
 4956TIP3    H214826   4.601   6.890   3.123
 4957TIP3   OH214827   3.535   5.847   4.327
 4957TIP3    H114828   3.614   5.894   4.352
 4957TIP3    H214829   3.542   5.836   4.232
 4958TIP3   OH214830   6.903   3.991   0.782
 4958TIP3    H114831   6.889   3.964   0.691
 4958TIP3    H214832   6.948   3.916   0.822
 4959TIP3   OH214833   4.457   2.432   5.091
 4959TIP3    H114834   4.479   2.347   5.129
 4959TIP3    H214835   4.481   2.425   4.999
 4960TIP3   OH214836   6.749   1.278   5.215
 4960TIP3    H114837   6.669   1.234   5.246
 4960TIP3    H214838   6.778   1.330   5.290
 4961TIP3   OH214839   5.882   5.752   6.771
 4961TIP3    H114840   5.864   5.658   6.767
 4961TIP3    H214841   5.940   5.769   6.696
 4962TIP3   OH214842   4.297   5.517   4.145
 4962TIP3    H114843   4.392   5.529   4.138
 4962TIP3    H214844   4.265   5.600   4.181
 4963TIP3   OH214845   5.148   5.363   0.875
 4963TIP3    H114846   5.229   5.344   0.827
 4963TIP3    H214847   5.177   5.395   0.960
 4964TIP3   OH214848   2.311   2.609   6.379
 4964TIP3    H114849   2.344   2.697   6.398
 4964TIP3    H214850   2.369   2.551   6.428
 4965TIP3   OH214851   2.148   6.028   1.321
 4965TIP3    H114852   2.174   6.117   1.342
 4965TIP3    H214853   2.078   6.037   1.256
 4966TIP3   OH214854   3.754   6.889   2.730
 4966TIP3    H114855   3.727   6.978   2.752
 4966TIP3    H214856   3.746   6.840   2.812
 4967TIP3   OH214857   0.725   1.029   3.002
 4967TIP3    H114858   0.646   1.014   2.951
 4967TIP3    H214859   0.766   1.106   2.962
 4968TIP3   OH214860   1.910   6.800   1.440
 4968TIP3    H114861   1.937   6.869   1.378
 4968TIP3    H214862   1.848   6.747   1.390
 4969TIP3   OH214863   4.772   6.706   3.705
 4969TIP3    H114864   4.797   6.796   3.728
 4969TIP3    H214865   4.823   6.686   3.627
 4970TIP3   OH214866   6.851   1.925   4.649
 4970TIP3    H114867   6.800   1.855   4.607
 4970TIP3    H214868   6.822   1.925   4.740
 4971TIP3   OH214869   6.411   5.694   3.977
 4971TIP3    H114870   6.384   5.688   4.069
 4971TIP3    H214871   6.374   5.615   3.937
 4972TIP3   OH214872   8.274   4.508   2.805
 4972TIP3    H114873   8.247   4.520   2.714
 4972TIP3    H214874   8.291   4.414   2.812
 4973TIP3   OH214875   5.891   3.020   0.539
 4973TIP3    H114876   5.918   3.016   0.631
 4973TIP3    H214877   5.885   3.114   0.520
 4974TIP3   OH214878   6.812   7.204   6.328
 4974TIP3    H114879   6.760   7.124   6.317
 4974TIP3    H214880   6.864   7.210   6.248
 4975TIP3   OH214881   3.694   2.135   4.461
 4975TIP3    H114882   3.630   2.067   4.480
 4975TIP3    H214883   3.655   2.186   4.390
 4976TIP3   OH214884   7.351   7.124   3.408
 4976TIP3    H114885   7.269   7.135   3.456
 4976TIP3    H214886   7.355   7.201   3.350
 4977TIP3   OH214887   2.441   3.977   4.186
 4977TIP3    H114888   2.401   4.013   4.107
 4977TIP3    H214889   2.532   4.006   4.182
 4978TIP3   OH214890   6.966   6.478   6.603
 4978TIP3    H114891   6.986   6.401   6.657
 4978TIP3    H214892   7.017   6.465   6.524
 4979TIP3   OH214893   0.523   5.740   5.472
 4979TIP3    H114894   0.587   5.771   5.408
 4979TIP3    H214895   0.492   5.819   5.516
 4980TIP3   OH214896   5.868   2.387   0.157
 4980TIP3    H114897   5.801   2.449   0.187
 4980TIP3    H214898   5.893   2.419   0.070
 4981TIP3   OH214899   7.793   3.801   1.030
 4981TIP3    H114900   7.736   3.787   0.954
 4981TIP3    H214901   7.761   3.741   1.096
 4982TIP3   OH214902   2.485   2.067   6.063
 4982TIP3    H114903   2.539   2.031   6.134
 4982TIP3    H214904   2.473   2.159   6.087
 4983TIP3   OH214905   7.575   4.861   2.112
 4983TIP3    H114906   7.551   4.786   2.167
 4983TIP3    H214907   7.500   4.872   2.054
 4984TIP3   OH214908   0.425   4.416   3.548
 4984TIP3    H114909   0.401   4.397   3.458
 4984TIP3    H214910   0.359   4.478   3.579
 4985TIP3   OH214911   2.742   7.603   4.647
 4985TIP3    H114912   2.735   7.697   4.627
 4985TIP3    H214913   2.763   7.562   4.563
 4986TIP3   OH214914   1.412   3.457   1.448
 4986TIP3    H114915   1.424   3.362   1.439
 4986TIP3    H214916   1.368   3.467   1.533
 4987TIP3   OH214917   0.291   2.844   4.930
 4987TIP3    H114918   0.226   2.808   4.869
 4987TIP3    H214919   0.242   2.863   5.009
 4988TIP3   OH214920   8.226   1.405   3.137
 4988TIP3    H114921   8.146   1.354   3.120
 4988TIP3    H214922   8.272   1.355   3.204
 4989TIP3   OH214923   4.972   0.197   4.010
 4989TIP3    H114924   5.046   0.189   3.949
 4989TIP3    H214925   4.951   0.290   4.011
 4990TIP3   OH214926   0.582   5.450   2.711
 4990TIP3    H114927   0.607   5.450   2.804
 4990TIP3    H214928   0.496   5.409   2.710
 4991TIP3   OH214929   7.722   5.612   5.401
 4991TIP3    H114930   7.747   5.569   5.319
 4991TIP3    H214931   7.627   5.622   5.395
 4992TIP3   OH214932   3.000   3.169   1.475
 4992TIP3    H114933   3.074   3.219   1.441
 4992TIP3    H214934   3.029   3.078   1.471
 4993TIP3   OH214935   4.248   6.080   6.635
 4993TIP3    H114936   4.201   6.019   6.692
 4993TIP3    H214937   4.179   6.135   6.598
 4994TIP3   OH214938   3.765   6.340   6.368
 4994TIP3    H114939   3.829   6.375   6.307
 4994TIP3    H214940   3.724   6.266   6.322
 4995TIP3   OH214941   3.994   3.849   2.918
 4995TIP3    H114942   4.080   3.856   2.877
 4995TIP3    H214943   3.996   3.912   2.990
 4996TIP3   OH214944   2.306   2.111   2.900
 4996TIP3    H114945   2.374   2.109   2.968
 4996TIP3    H214946   2.283   2.203   2.892
 4997TIP3   OH214947   2.281   5.289   2.436
 4997TIP3    H114948   2.343   5.219   2.457
 4997TIP3    H214949   2.274   5.340   2.516
 4998TIP3   OH214950   0.704   4.535   3.623
 4998TIP3    H114951   0.763   4.505   3.692
 4998TIP3    H214952   0.623   4.485   3.637
 4999TIP3   OH214953   5.854   5.751   1.644
 4999TIP3    H114954   5.926   5.688   1.644
 4999TIP3    H214955   5.775   5.698   1.648
 5000TIP3   OH214956   2.581   2.776   0.125
 5000TIP3    H114957   2.506   2.717   0.135
 5000TIP3    H214958   2.552   2.841   0.060
 5001TIP3   OH214959   6.302   0.382   4.560
 5001TIP3    H114960   6.295   0.457   4.501
 5001TIP3    H214961   6.218   0.337   4.550
 5002TIP3   OH214962   3.327   1.599   6.712
 5002TIP3    H114963   3.406   1.576   6.761
 5002TIP3    H214964   3.359   1.623   6.625
 5003TIP3   OH214965   2.660   2.936   1.829
 5003TIP3    H114966   2.732   2.959   1.888
 5003TIP3    H214967   2.620   3.021   1.807
 5004TIP3   OH214968   5.170   1.161   0.389
 5004TIP3    H114969   5.198   1.237   0.338
 5004TIP3    H214970   5.088   1.188   0.430
 5005TIP3   OH214971   7.978   2.502   6.297
 5005TIP3    H114972   7.959   2.509   6.204
 5005TIP3    H214973   8.074   2.506   6.303
 5006TIP3   OH214974   4.505   2.132   4.948
 5006TIP3    H114975   4.468   2.064   4.891
 5006TIP3    H214976   4.499   2.212   4.897
 5007TIP3   OH214977   0.631   5.365   1.284
 5007TIP3    H114978   0.664   5.319   1.362
 5007TIP3    H214979   0.709   5.396   1.239
 5008TIP3   OH214980   4.984   0.277   1.358
 5008TIP3    H114981   5.034   0.350   1.322
 5008TIP3    H214982   4.897   0.287   1.319
 5009TIP3   OH214983   5.413   2.790   2.087
 5009TIP3    H114984   5.504   2.768   2.067
 5009TIP3    H214985   5.371   2.798   2.001
 5010TIP3   OH214986   1.292   0.554   5.731
 5010TIP3    H114987   1.371   0.587   5.687
 5010TIP3    H214988   1.281   0.611   5.807
 5011TIP3   OH214989   5.251   4.441   5.331
 5011TIP3    H114990   5.194   4.502   5.284
 5011TIP3    H214991   5.231   4.356   5.293
 5012TIP3   OH214992   6.347   5.400   2.951
 5012TIP3    H114993   6.322   5.386   2.860
 5012TIP3    H214994   6.437   5.369   2.957
 5013TIP3   OH214995   1.394   1.095   4.753
 5013TIP3    H114996   1.304   1.104   4.785
 5013TIP3    H214997   1.449   1.112   4.830
 5014TIP3   OH214998   8.182   0.708   4.960
 5014TIP3    H114999   8.230   0.683   4.881
 5014TIP3    H215000   8.129   0.782   4.934
 5015TIP3   OH215001   1.922   3.008   5.651
 5015TIP3    H115002   1.994   2.977   5.706
 5015TIP3    H215003   1.870   2.929   5.635
 5016TIP3   OH215004   2.152   3.787   0.299
 5016TIP3    H115005   2.061   3.774   0.326
 5016TIP3    H215006   2.162   3.882   0.291
 5017TIP3   OH215007   0.422   5.856   1.636
 5017TIP3    H115008   0.374   5.826   1.559
 5017TIP3    H215009   0.398   5.948   1.645
 5018TIP3   OH215010   3.123   2.728   5.702
 5018TIP3    H115011   3.054   2.740   5.636
 5018TIP3    H215012   3.075   2.720   5.785
 5019TIP3   OH215013   0.582   2.281   5.395
 5019TIP3    H115014   0.489   2.276   5.371
 5019TIP3    H215015   0.621   2.338   5.330
 5020TIP3   OH215016   4.866   1.076   4.804
 5020TIP3    H115017   4.918   1.120   4.738
 5020TIP3    H215018   4.878   1.127   4.884
 5021TIP3   OH215019   6.148   5.709   5.308
 5021TIP3    H115020   6.151   5.805   5.302
 5021TIP3    H215021   6.229   5.684   5.351
 5022TIP3   OH215022   4.924   2.862   0.134
 5022TIP3    H115023   4.879   2.817   0.205
 5022TIP3    H215024   4.897   2.953   0.141
 5023TIP3   OH215025   5.405   3.309   4.261
 5023TIP3    H115026   5.313   3.315   4.284
 5023TIP3    H215027   5.406   3.267   4.175
 5024TIP3   OH215028   3.697   1.762   1.281
 5024TIP3    H115029   3.614   1.754   1.328
 5024TIP3    H215030   3.725   1.852   1.298
 5025TIP3   OH215031   2.497   3.880   3.454
 5025TIP3    H115032   2.575   3.830   3.480
 5025TIP3    H215033   2.424   3.823   3.476
 5026TIP3   OH215034   0.404   7.034   6.657
 5026TIP3    H115035   0.412   7.129   6.652
 5026TIP3    H215036   0.336   7.013   6.593
 5027TIP3   OH215037   1.614   6.980   4.056
 5027TIP3    H115038   1.548   7.028   4.106
 5027TIP3    H215039   1.693   7.034   4.061
 5028TIP3   OH215040   4.410   7.003   4.596
 5028TIP3    H115041   4.484   6.943   4.585
 5028TIP3    H215042   4.387   6.996   4.688
 5029TIP3   OH215043   7.615   5.600   1.830
 5029TIP3    H115044   7.581   5.572   1.915
 5029TIP3    H215045   7.589   5.530   1.770
 5030TIP3   OH215046   4.959   3.170   2.756
 5030TIP3    H115047   4.980   3.263   2.756
 5030TIP3    H215048   4.943   3.149   2.664
 5031TIP3   OH215049   1.358   0.903   3.972
 5031TIP3    H115050   1.272   0.931   3.941
 5031TIP3    H215051   1.341   0.866   4.059
 5032TIP3   OH215052   3.811   1.205   4.341
 5032TIP3    H115053   3.737   1.221   4.282
 5032TIP3    H215054   3.838   1.115   4.322
 5033TIP3   OH215055   2.763   6.536   0.386
 5033TIP3    H115056   2.681   6.511   0.344
 5033TIP3    H215057   2.766   6.486   0.468
 5034TIP3   OH215058   6.314   3.818   2.647
 5034TIP3    H115059   6.393   3.862   2.615
 5034TIP3    H215060   6.250   3.889   2.657
 5035TIP3   OH215061   5.104   6.670   1.673
 5035TIP3    H115062   5.028   6.727   1.687
 5035TIP3    H215063   5.163   6.722   1.618
 5036TIP3   OH215064   1.005   3.069   5.164
 5036TIP3    H115065   0.924   3.112   5.190
 5036TIP3    H215066   0.980   2.979   5.146
 5037TIP3   OH215067   7.839   6.190   5.507
 5037TIP3    H115068   7.753   6.161   5.535
 5037TIP3    H215069   7.901   6.135   5.556
 5038TIP3   OH215070   6.366   7.543   2.117
 5038TIP3    H115071   6.453   7.504   2.103
 5038TIP3    H215072   6.316   7.475   2.162
 5039TIP3   OH215073   3.182   5.300   3.816
 5039TIP3    H115074   3.100   5.285   3.863
 5039TIP3    H215075   3.168   5.382   3.769
 5040TIP3   OH215076   3.063   4.290   5.512
 5040TIP3    H115077   3.026   4.301   5.424
 5040TIP3    H215078   3.001   4.334   5.569
 5041TIP3   OH215079   0.653   2.081   3.933
 5041TIP3    H115080   0.690   2.127   4.008
 5041TIP3    H215081   0.693   1.994   3.937
 5042TIP3   OH215082   5.328   5.423   1.622
 5042TIP3    H115083   5.312   5.330   1.603
 5042TIP3    H215084   5.321   5.466   1.537
 5043TIP3   OH215085   2.262   4.750   0.342
 5043TIP3    H115086   2.199   4.728   0.274
 5043TIP3    H215087   2.271   4.671   0.394
 5044TIP3   OH215088   4.316   1.641   0.841
 5044TIP3    H115089   4.389   1.634   0.780
 5044TIP3    H215090   4.353   1.617   0.926
 5045TIP3   OH215091   6.741   6.805   2.839
 5045TIP3    H115092   6.759   6.727   2.787
 5045TIP3    H215093   6.728   6.772   2.928
 5046TIP3   OH215094   3.487   5.177   0.215
 5046TIP3    H115095   3.484   5.272   0.201
 5046TIP3    H215096   3.482   5.140   0.127
 5047TIP3   OH215097   6.124   3.113   1.152
 5047TIP3    H115098   6.208   3.142   1.188
 5047TIP3    H215099   6.105   3.032   1.198
 5048TIP3   OH215100   3.149   1.219   3.105
 5048TIP3    H115101   3.239   1.251   3.104
 5048TIP3    H215102   3.118   1.236   3.194
 5049TIP3   OH215103   6.746   3.185   0.571
 5049TIP3    H115104   6.794   3.162   0.651
 5049TIP3    H215105   6.657   3.155   0.588
 5050TIP3   OH215106   6.485   1.013   3.580
 5050TIP3    H115107   6.452   0.943   3.635
 5050TIP3    H215108   6.419   1.082   3.586
 5051TIP3   OH215109   3.356   5.871   4.038
 5051TIP3    H115110   3.444   5.847   4.010
 5051TIP3    H215111   3.298   5.836   3.970
 5052TIP3   OH215112   6.855   5.303   2.197
 5052TIP3    H115113   6.765   5.269   2.194
 5052TIP3    H215114   6.864   5.340   2.284
 5053TIP3   OH215115   4.898   5.596   6.497
 5053TIP3    H115116   4.988   5.565   6.487
 5053TIP3    H215117   4.856   5.575   6.414
 5054TIP3   OH215118   3.328   4.459   0.281
 5054TIP3    H115119   3.333   4.420   0.194
 5054TIP3    H215120   3.359   4.390   0.340
 5055TIP3   OH215121   0.674   6.744   6.021
 5055TIP3    H115122   0.621   6.753   5.942
 5055TIP3    H215123   0.707   6.833   6.038
 5056TIP3   OH215124   7.180   0.459   1.789
 5056TIP3    H115125   7.263   0.504   1.778
 5056TIP3    H215126   7.116   0.530   1.799
 5057TIP3   OH215127   7.830   6.770   3.451
 5057TIP3    H115128   7.863   6.683   3.475
 5057TIP3    H215129   7.773   6.754   3.376
 5058TIP3   OH215130   7.645   1.232   0.334
 5058TIP3    H115131   7.605   1.201   0.252
 5058TIP3    H215132   7.713   1.293   0.307
 5059TIP3   OH215133   1.652   3.202   3.404
 5059TIP3    H115134   1.733   3.174   3.447
 5059TIP3    H215135   1.665   3.294   3.384
 5060TIP3   OH215136   1.201   2.268   0.256
 5060TIP3    H115137   1.243   2.190   0.292
 5060TIP3    H215138   1.122   2.236   0.213
 5061TIP3   OH215139   6.221   5.575   3.531
 5061TIP3    H115140   6.306   5.533   3.544
 5061TIP3    H215141   6.206   5.571   3.436
 5062TIP3   OH215142   7.606   2.396   3.552
 5062TIP3    H115143   7.597   2.480   3.508
 5062TIP3    H215144   7.526   2.349   3.531
 5063TIP3   OH215145   4.140   3.390   4.947
 5063TIP3    H115146   4.130   3.468   5.001
 5063TIP3    H215147   4.213   3.342   4.987
 5064TIP3   OH215148   5.121   3.383   2.433
 5064TIP3    H115149   5.054   3.387   2.364
 5064TIP3    H215150   5.071   3.388   2.515
 5065TIP3   OH215151   6.909   6.449   0.979
 5065TIP3    H115152   6.833   6.398   0.953
 5065TIP3    H215153   6.890   6.478   1.069
 5066TIP3   OH215154   2.051   0.642   1.161
 5066TIP3    H115155   2.143   0.615   1.161
 5066TIP3    H215156   2.032   0.661   1.069
 5067TIP3   OH215157   1.276   4.335   6.079
 5067TIP3    H115158   1.253   4.242   6.080
 5067TIP3    H215159   1.208   4.377   6.132
 5068TIP3   OH215160   0.531   4.726   4.369
 5068TIP3    H115161   0.476   4.649   4.360
 5068TIP3    H215162   0.585   4.709   4.446
 5069TIP3   OH215163   0.544   5.560   2.295
 5069TIP3    H115164   0.571   5.471   2.317
 5069TIP3    H215165   0.472   5.579   2.355
 5070TIP3   OH215166   6.967   2.004   5.294
 5070TIP3    H115167   6.917   2.085   5.285
 5070TIP3    H215168   6.937   1.966   5.377
 5071TIP3   OH215169   0.560   1.834   2.430
 5071TIP3    H115170   0.637   1.787   2.460
 5071TIP3    H215171   0.566   1.831   2.334
 5072TIP3   OH215172   4.976   7.306   4.814
 5072TIP3    H115173   4.965   7.273   4.903
 5072TIP3    H215174   4.893   7.285   4.770
 5073TIP3   OH215175   7.425   6.697   4.490
 5073TIP3    H115176   7.343   6.703   4.539
 5073TIP3    H215177   7.425   6.774   4.433
 5074TIP3   OH215178   6.428   5.763   0.103
 5074TIP3    H115179   6.452   5.691   0.162
 5074TIP3    H215180   6.369   5.817   0.155
 5075TIP3   OH215181   0.009   3.665   6.241
 5075TIP3    H115182   0.028   3.580   6.281
 5075TIP3    H215183  -0.020   3.720   6.314
 5076TIP3   OH215184   7.584   2.572   0.594
 5076TIP3    H115185   7.647   2.613   0.653
 5076TIP3    H215186   7.550   2.497   0.644
 5077TIP3   OH215187   1.713   0.575   0.459
 5077TIP3    H115188   1.805   0.566   0.485
 5077TIP3    H215189   1.717   0.623   0.376
 5078TIP3   OH215190   4.057   5.788   3.727
 5078TIP3    H115191   4.020   5.817   3.811
 5078TIP3    H215192   4.107   5.864   3.696
 5079TIP3   OH215193   1.936   1.948   2.885
 5079TIP3    H115194   1.852   1.973   2.847
 5079TIP3    H215195   2.002   1.987   2.827
 5080TIP3   OH215196   0.282   4.333   1.339
 5080TIP3    H115197   0.309   4.241   1.349
 5080TIP3    H215198   0.364   4.380   1.324
 5081TIP3   OH215199   6.693   5.012   5.631
 5081TIP3    H115200   6.747   4.944   5.592
 5081TIP3    H215201   6.754   5.084   5.650
 5082TIP3   OH215202   3.268   6.527   5.125
 5082TIP3    H115203   3.256   6.434   5.107
 5082TIP3    H215204   3.218   6.543   5.205
 5083TIP3   OH215205   4.040   0.048   2.082
 5083TIP3    H115206   3.963   0.018   2.034
 5083TIP3    H215207   4.083  -0.032   2.112
 5084TIP3   OH215208   5.395   2.493   1.932
 5084TIP3    H115209   5.315   2.483   1.983
 5084TIP3    H215210   5.393   2.584   1.903
 5085TIP3   OH215211   4.000   3.679   1.182
 5085TIP3    H115212   4.026   3.587   1.169
 5085TIP3    H215213   3.921   3.689   1.130
 5086TIP3   OH215214   0.246   0.158   0.857
 5086TIP3    H115215   0.300   0.192   0.928
 5086TIP3    H215216   0.156   0.183   0.881
 5087TIP3   OH215217   1.205   4.437   6.361
 5087TIP3    H115218   1.126   4.477   6.325
 5087TIP3    H215219   1.207   4.465   6.452
 5088TIP3   OH215220   4.030   2.433   1.186
 5088TIP3    H115221   4.107   2.483   1.159
 5088TIP3    H215222   4.035   2.431   1.282
 5089TIP3   OH215223   4.762   0.226   1.964
 5089TIP3    H115224   4.740   0.219   2.057
 5089TIP3    H215225   4.851   0.262   1.963
 5090TIP3   OH215226   4.918   5.868   4.751
 5090TIP3    H115227   5.005   5.829   4.744
 5090TIP3    H215228   4.928   5.939   4.814
 5091TIP3   OH215229   0.712   3.089   3.573
 5091TIP3    H115230   0.715   3.060   3.482
 5091TIP3    H215231   0.776   3.161   3.577
 5092TIP3   OH215232   5.962   2.943   6.199
 5092TIP3    H115233   5.980   2.950   6.106
 5092TIP3    H215234   6.041   2.902   6.236
 5093TIP3   OH215235   5.125   0.980   6.360
 5093TIP3    H115236   5.219   0.995   6.367
 5093TIP3    H215237   5.116   0.912   6.294
 5094TIP3   OH215238   3.803   6.449   2.760
 5094TIP3    H115239   3.742   6.397   2.707
 5094TIP3    H215240   3.860   6.492   2.697
 5095TIP3   OH215241   1.830   3.309   3.013
 5095TIP3    H115242   1.754   3.254   3.029
 5095TIP3    H215243   1.895   3.251   2.972
 5096TIP3   OH215244   6.235   4.454   0.583
 5096TIP3    H115245   6.236   4.543   0.548
 5096TIP3    H215246   6.313   4.448   0.638
 5097TIP3   OH215247   2.802   4.533   3.076
 5097TIP3    H115248   2.801   4.627   3.096
 5097TIP3    H215249   2.882   4.500   3.116
 5098TIP3   OH215250   1.220   6.275   5.723
 5098TIP3    H115251   1.291   6.281   5.788
 5098TIP3    H215252   1.148   6.233   5.770
 5099TIP3   OH215253   2.537   1.443   1.889
 5099TIP3    H115254   2.499   1.384   1.954
 5099TIP3    H215255   2.509   1.407   1.805
 5100TIP3   OH215256   2.184   5.632   0.513
 5100TIP3    H115257   2.253   5.582   0.469
 5100TIP3    H215258   2.180   5.715   0.465
 5101TIP3   OH215259   1.689   6.733   1.860
 5101TIP3    H115260   1.599   6.720   1.829
 5101TIP3    H215261   1.683   6.721   1.955
 5102TIP3   OH215262   4.824   0.958   2.154
 5102TIP3    H115263   4.891   0.966   2.222
 5102TIP3    H215264   4.815   1.047   2.120
 5103TIP3   OH215265   2.430   2.334   6.157
 5103TIP3    H115266   2.491   2.394   6.200
 5103TIP3    H215267   2.406   2.271   6.226
 5104TIP3   OH215268   1.096   1.788   6.189
 5104TIP3    H115269   1.135   1.722   6.131
 5104TIP3    H215270   1.171   1.824   6.237
 5105TIP3   OH215271   6.735   1.683   5.166
 5105TIP3    H115272   6.675   1.634   5.110
 5105TIP3    H215273   6.679   1.718   5.236
 5106TIP3   OH215274   5.418   0.255   6.529
 5106TIP3    H115275   5.435   0.183   6.590
 5106TIP3    H215276   5.491   0.252   6.467
 5107TIP3   OH215277   7.061   1.876   6.309
 5107TIP3    H115278   6.999   1.803   6.312
 5107TIP3    H215279   7.147   1.835   6.305
 5108TIP3   OH215280   8.277   1.907   3.529
 5108TIP3    H115281   8.288   1.969   3.457
 5108TIP3    H215282   8.284   1.960   3.608
 5109TIP3   OH215283   3.487   1.694   4.693
 5109TIP3    H115284   3.403   1.732   4.717
 5109TIP3    H215285   3.547   1.725   4.761
 5110TIP3   OH215286   2.142   7.319   2.612
 5110TIP3    H115287   2.057   7.275   2.606
 5110TIP3    H215288   2.125   7.408   2.580
 5111TIP3   OH215289   7.274   0.293   0.189
 5111TIP3    H115290   7.295   0.283   0.282
 5111TIP3    H215291   7.291   0.385   0.170
 5112TIP3   OH215292   3.375   0.805   4.464
 5112TIP3    H115293   3.338   0.717   4.452
 5112TIP3    H215294   3.428   0.819   4.386
 5113TIP3   OH215295   7.093   2.921   1.684
 5113TIP3    H115296   7.045   2.965   1.754
 5113TIP3    H215297   7.171   2.975   1.672
 5114TIP3   OH215298   5.740   3.928   3.675
 5114TIP3    H115299   5.803   3.856   3.673
 5114TIP3    H215300   5.654   3.885   3.670
 5115TIP3   OH215301   4.095   2.450   1.704
 5115TIP3    H115302   4.021   2.469   1.762
 5115TIP3    H215303   4.167   2.429   1.762
 5116TIP3   OH215304   3.502   4.309   1.852
 5116TIP3    H115305   3.451   4.356   1.786
 5116TIP3    H215306   3.588   4.297   1.812
 5117TIP3   OH215307   3.405   6.694   0.303
 5117TIP3    H115308   3.411   6.599   0.310
 5117TIP3    H215309   3.495   6.725   0.310
 5118TIP3   OH215310   4.686   5.236   1.294
 5118TIP3    H115311   4.672   5.273   1.382
 5118TIP3    H215312   4.620   5.278   1.240
 5119TIP3   OH215313   7.238   5.320   0.280
 5119TIP3    H115314   7.220   5.237   0.322
 5119TIP3    H215315   7.310   5.302   0.220
 5120TIP3   OH215316   0.587   6.125   1.946
 5120TIP3    H115317   0.568   6.210   1.985
 5120TIP3    H215318   0.667   6.139   1.895
 5121TIP3   OH215319   3.142   3.273   2.201
 5121TIP3    H115320   3.142   3.247   2.109
 5121TIP3    H215321   3.229   3.250   2.233
 5122TIP3   OH215322   8.202   1.004   4.575
 5122TIP3    H115323   8.164   0.983   4.660
 5122TIP3    H215324   8.282   0.950   4.571
 5123TIP3   OH215325   1.707   0.595   4.385
 5123TIP3    H115326   1.731   0.610   4.294
 5123TIP3    H215327   1.728   0.678   4.429
 5124TIP3   OH215328   6.084   6.576   2.847
 5124TIP3    H115329   6.015   6.526   2.804
 5124TIP3    H215330   6.101   6.649   2.788
 5125TIP3   OH215331   0.331   5.031   1.810
 5125TIP3    H115332   0.303   5.108   1.762
 5125TIP3    H215333   0.250   4.987   1.835
 5126TIP3   OH215334   5.314   6.294   4.494
 5126TIP3    H115335   5.353   6.367   4.542
 5126TIP3    H215336   5.376   6.274   4.424
 5127TIP3   OH215337   7.597   0.546   1.598
 5127TIP3    H115338   7.549   0.488   1.538
 5127TIP3    H215339   7.689   0.530   1.578
 5128TIP3   OH215340   6.555   0.251   0.089
 5128TIP3    H115341   6.636   0.299   0.107
 5128TIP3    H215342   6.551   0.184   0.158
 5129TIP3   OH215343   3.870   5.179   6.580
 5129TIP3    H115344   3.844   5.095   6.617
 5129TIP3    H215345   3.805   5.195   6.510
 5130TIP3   OH215346   3.295   5.191   6.653
 5130TIP3    H115347   3.348   5.254   6.605
 5130TIP3    H215348   3.356   5.122   6.679
 5131TIP3   OH215349   7.048   4.149   2.563
 5131TIP3    H115350   7.117   4.144   2.630
 5131TIP3    H215351   7.024   4.058   2.546
 5132TIP3   OH215352   4.613   1.590   5.356
 5132TIP3    H115353   4.533   1.607   5.306
 5132TIP3    H215354   4.674   1.555   5.292
 5133TIP3   OH215355   6.301   5.396   5.106
 5133TIP3    H115356   6.242   5.339   5.058
 5133TIP3    H215357   6.354   5.337   5.159
 5134TIP3   OH215358   4.907   2.249   1.630
 5134TIP3    H115359   4.980   2.276   1.576
 5134TIP3    H215360   4.929   2.279   1.718
 5135TIP3   OH215361   4.195   6.876   6.679
 5135TIP3    H115362   4.127   6.808   6.676
 5135TIP3    H215363   4.277   6.829   6.663
 5136TIP3   OH215364   0.583   1.868   3.245
 5136TIP3    H115365   0.628   1.953   3.240
 5136TIP3    H215366   0.529   1.875   3.324
 5137TIP3   OH215367   0.161   5.120   3.757
 5137TIP3    H115368   0.153   5.033   3.797
 5137TIP3    H215369   0.154   5.181   3.830
 5138TIP3   OH215370   5.949   5.981   3.825
 5138TIP3    H115371   6.020   6.045   3.834
 5138TIP3    H215372   5.992   5.896   3.839
 5139TIP3   OH215373   7.185   4.868   3.708
 5139TIP3    H115374   7.167   4.958   3.683
 5139TIP3    H215375   7.099   4.832   3.731
 5140TIP3   OH215376   0.339   0.872   3.486
 5140TIP3    H115377   0.358   0.963   3.510
 5140TIP3    H215378   0.326   0.828   3.570
 5141TIP3   OH215379   1.907   1.013   0.304
 5141TIP3    H115380   1.885   1.056   0.222
 5141TIP3    H215381   1.930   1.084   0.363
 5142TIP3   OH215382   3.828   0.200   1.023
 5142TIP3    H115383   3.777   0.270   0.984
 5142TIP3    H215384   3.884   0.169   0.952
 5143TIP3   OH215385   2.568   7.695   0.235
 5143TIP3    H115386   2.620   7.627   0.192
 5143TIP3    H215387   2.623   7.724   0.308
 5144TIP3   OH215388   1.719   1.850   1.782
 5144TIP3    H115389   1.810   1.825   1.796
 5144TIP3    H215390   1.668   1.788   1.834
 5145TIP3   OH215391   6.079   3.322   5.329
 5145TIP3    H115392   5.998   3.300   5.373
 5145TIP3    H215393   6.067   3.412   5.299
 5146TIP3   OH215394   6.169   6.375   6.202
 5146TIP3    H115395   6.166   6.314   6.276
 5146TIP3    H215396   6.262   6.384   6.182
 5147TIP3   OH215397   4.547   5.707   5.571
 5147TIP3    H115398   4.635   5.674   5.556
 5147TIP3    H215399   4.490   5.648   5.520
 5148TIP3   OH215400   0.320   4.039   2.242
 5148TIP3    H115401   0.321   3.959   2.189
 5148TIP3    H215402   0.409   4.046   2.276
 5149TIP3   OH215403   6.176   4.904   2.052
 5149TIP3    H115404   6.080   4.901   2.057
 5149TIP3    H215405   6.199   4.832   1.994
 5150TIP3   OH215406   0.961   6.076   0.681
 5150TIP3    H115407   0.927   6.146   0.737
 5150TIP3    H215408   0.890   6.059   0.619
 5151TIP3   OH215409   6.732   1.044   3.001
 5151TIP3    H115410   6.733   1.137   3.022
 5151TIP3    H215411   6.813   1.009   3.038
 5152TIP3   OH215412   7.027   6.306   2.264
 5152TIP3    H115413   7.006   6.213   2.263
 5152TIP3    H215414   6.942   6.350   2.255
 5153TIP3   OH215415   2.378   4.492   5.651
 5153TIP3    H115416   2.364   4.533   5.566
 5153TIP3    H215417   2.378   4.398   5.633
 5154TIP3   OH215418   0.129   1.764   0.613
 5154TIP3    H115419   0.184   1.728   0.544
 5154TIP3    H215420   0.179   1.750   0.693
 5155TIP3   OH215421   1.981   6.256   6.482
 5155TIP3    H115422   2.015   6.289   6.399
 5155TIP3    H215423   1.917   6.323   6.510
 5156TIP3   OH215424   6.602   7.499   2.547
 5156TIP3    H115425   6.655   7.422   2.564
 5156TIP3    H215426   6.520   7.464   2.511
 5157TIP3   OH215427   6.647   5.152   2.117
 5157TIP3    H115428   6.558   5.142   2.150
 5157TIP3    H215429   6.637   5.198   2.033
 5158TIP3   OH215430   7.681   0.842   6.245
 5158TIP3    H115431   7.751   0.808   6.301
 5158TIP3    H215432   7.608   0.858   6.305
 5159TIP3   OH215433   3.519   7.356   4.147
 5159TIP3    H115434   3.481   7.296   4.211
 5159TIP3    H215435   3.485   7.442   4.173
 5160TIP3   OH215436   7.942   1.953   0.501
 5160TIP3    H115437   8.026   1.932   0.542
 5160TIP3    H215438   7.948   1.916   0.413
 5161TIP3   OH215439   0.842   5.959   3.194
 5161TIP3    H115440   0.847   5.873   3.152
 5161TIP3    H215441   0.897   5.952   3.271
 5162TIP3   OH215442   2.150   4.197   3.008
 5162TIP3    H115443   2.130   4.227   2.919
 5162TIP3    H215444   2.140   4.102   3.005
 5163TIP3   OH215445   3.345   6.676   1.950
 5163TIP3    H115446   3.414   6.741   1.937
 5163TIP3    H215447   3.364   6.607   1.887
 5164TIP3   OH215448   3.741   6.293   1.194
 5164TIP3    H115449   3.772   6.215   1.147
 5164TIP3    H215450   3.786   6.366   1.150
 5165TIP3   OH215451   1.649   3.090   6.734
 5165TIP3    H115452   1.683   3.040   6.808
 5165TIP3    H215453   1.648   3.027   6.661
 5166TIP3   OH215454   3.179   0.845   3.624
 5166TIP3    H115455   3.225   0.912   3.674
 5166TIP3    H215456   3.228   0.764   3.640
 5167TIP3   OH215457   2.349   6.693   2.061
 5167TIP3    H115458   2.306   6.631   2.119
 5167TIP3    H215459   2.321   6.667   1.973
 5168TIP3   OH215460   7.976   6.886   4.738
 5168TIP3    H115461   7.929   6.915   4.660
 5168TIP3    H215462   8.068   6.907   4.720
 5169TIP3   OH215463   4.716   3.833   6.783
 5169TIP3    H115464   4.733   3.865   6.694
 5169TIP3    H215465   4.628   3.795   6.778
 5170TIP3   OH215466   4.248   4.868   5.917
 5170TIP3    H115467   4.306   4.815   5.971
 5170TIP3    H215468   4.238   4.818   5.836
 5171TIP3   OH215469   6.705   2.031   3.520
 5171TIP3    H115470   6.689   2.093   3.450
 5171TIP3    H215471   6.620   2.015   3.560
 5172TIP3   OH215472   3.880   1.095   3.248
 5172TIP3    H115473   3.883   1.029   3.179
 5172TIP3    H215474   3.818   1.060   3.312
 5173TIP3   OH215475   3.038   6.368   5.997
 5173TIP3    H115476   3.085   6.364   6.080
 5173TIP3    H215477   2.975   6.295   6.002
 5174TIP3   OH215478   6.152   6.843   4.326
 5174TIP3    H115479   6.136   6.846   4.420
 5174TIP3    H215480   6.120   6.928   4.293
 5175TIP3   OH215481   3.526   4.358   4.187
 5175TIP3    H115482   3.497   4.416   4.257
 5175TIP3    H215483   3.553   4.278   4.232
 5176TIP3   OH215484   0.410   2.661   5.277
 5176TIP3    H115485   0.351   2.586   5.274
 5176TIP3    H215486   0.354   2.735   5.300
 5177TIP3   OH215487   1.827   2.416   5.086
 5177TIP3    H115488   1.849   2.434   5.177
 5177TIP3    H215489   1.802   2.501   5.050
 5178TIP3   OH215490   2.238   7.584   3.437
 5178TIP3    H115491   2.163   7.638   3.413
 5178TIP3    H215492   2.262   7.539   3.356
 5179TIP3   OH215493   0.116   7.154   4.795
 5179TIP3    H115494   0.140   7.244   4.773
 5179TIP3    H215495   0.169   7.099   4.737
 5180TIP3   OH215496   0.133   1.133   2.467
 5180TIP3    H115497   0.050   1.146   2.512
 5180TIP3    H215498   0.190   1.093   2.533
 5181TIP3   OH215499   3.726   2.992   6.401
 5181TIP3    H115500   3.632   2.979   6.409
 5181TIP3    H215501   3.736   3.056   6.331
 5182TIP3   OH215502   5.299   3.929   4.630
 5182TIP3    H115503   5.208   3.950   4.608
 5182TIP3    H215504   5.337   4.012   4.658
 5183TIP3   OH215505   3.616   2.140   0.732
 5183TIP3    H115506   3.555   2.186   0.790
 5183TIP3    H215507   3.690   2.117   0.788
 5184TIP3   OH215508   2.904   5.031   1.457
 5184TIP3    H115509   2.993   4.999   1.437
 5184TIP3    H215510   2.852   4.951   1.467
 5185TIP3   OH215511   2.384   5.534   0.342
 5185TIP3    H115512   2.477   5.551   0.327
 5185TIP3    H215513   2.339   5.576   0.268
 5186TIP3   OH215514   4.610   3.090   4.553
 5186TIP3    H115515   4.627   3.033   4.627
 5186TIP3    H215516   4.619   3.179   4.588
 5187TIP3   OH215517   4.772   5.015   5.887
 5187TIP3    H115518   4.678   5.025   5.906
 5187TIP3    H215519   4.776   5.003   5.792
 5188TIP3   OH215520   7.606   5.284   4.683
 5188TIP3    H115521   7.547   5.282   4.759
 5188TIP3    H215522   7.634   5.194   4.671
 5189TIP3   OH215523   7.602   3.390   3.480
 5189TIP3    H115524   7.675   3.414   3.423
 5189TIP3    H215525   7.559   3.473   3.500
 5190TIP3   OH215526   6.837   4.582   5.591
 5190TIP3    H115527   6.907   4.595   5.656
 5190TIP3    H215528   6.757   4.576   5.643
 5191TIP3   OH215529   2.268   2.377   4.870
 5191TIP3    H115530   2.255   2.358   4.777
 5191TIP3    H215531   2.209   2.450   4.888
 5192TIP3   OH215532   7.540   7.701   2.446
 5192TIP3    H115533   7.530   7.606   2.458
 5192TIP3    H215534   7.621   7.723   2.492
 5193TIP3   OH215535   2.698   1.136   3.196
 5193TIP3    H115536   2.634   1.067   3.178
 5193TIP3    H215537   2.766   1.124   3.130
 5194TIP3   OH215538   0.554   1.569   5.588
 5194TIP3    H115539   0.644   1.599   5.577
 5194TIP3    H215540   0.504   1.650   5.599
 5195TIP3   OH215541   1.929   1.369   2.746
 5195TIP3    H115542   2.019   1.342   2.731
 5195TIP3    H215543   1.926   1.395   2.838
 5196TIP3   OH215544   4.603   6.814   4.595
 5196TIP3    H115545   4.603   6.752   4.522
 5196TIP3    H215546   4.684   6.796   4.642
 5197TIP3   OH215547   0.309   6.647   1.977
 5197TIP3    H115548   0.372   6.678   1.912
 5197TIP3    H215549   0.310   6.714   2.045
 5198TIP3   OH215550   1.691   4.610   2.085
 5198TIP3    H115551   1.773   4.649   2.116
 5198TIP3    H215552   1.683   4.528   2.133
 5199TIP3   OH215553   2.932   0.850   1.763
 5199TIP3    H115554   2.964   0.928   1.717
 5199TIP3    H215555   2.854   0.881   1.810
 5200TIP3   OH215556   3.907   4.097   3.434
 5200TIP3    H115557   3.828   4.132   3.474
 5200TIP3    H215558   3.978   4.129   3.490
 5201TIP3   OH215559   5.438   1.075   0.435
 5201TIP3    H115560   5.448   0.982   0.419
 5201TIP3    H215561   5.344   1.089   0.442
 5202TIP3   OH215562   1.703   0.022   0.958
 5202TIP3    H115563   1.630  -0.024   0.917
 5202TIP3    H215564   1.702   0.109   0.918
 5203TIP3   OH215565   3.582   0.055   6.519
 5203TIP3    H115566   3.538   0.069   6.435
 5203TIP3    H215567   3.603   0.143   6.550
 5204TIP3   OH215568   3.394   4.288   3.524
 5204TIP3    H115569   3.392   4.384   3.533
 5204TIP3    H215570   3.448   4.259   3.597
 5205TIP3   OH215571   8.291   3.110   3.989
 5205TIP3    H115572   8.215   3.165   4.006
 5205TIP3    H215573   8.257   3.021   3.987
 5206TIP3   OH215574   0.239   3.272   4.223
 5206TIP3    H115575   0.311   3.263   4.286
 5206TIP3    H215576   0.184   3.196   4.240
 5207TIP3   OH215577   4.756   5.666   2.860
 5207TIP3    H115578   4.722   5.754   2.875
 5207TIP3    H215579   4.802   5.644   2.941
 5208TIP3   OH215580   2.370   2.077   4.278
 5208TIP3    H115581   2.344   2.044   4.364
 5208TIP3    H215582   2.464   2.060   4.273
 5209TIP3   OH215583   5.217   3.631   0.148
 5209TIP3    H115584   5.258   3.647   0.233
 5209TIP3    H215585   5.290   3.607   0.090
 5210TIP3   OH215586   7.898   6.021   2.359
 5210TIP3    H115587   7.803   6.015   2.347
 5210TIP3    H215588   7.910   6.081   2.432
 5211TIP3   OH215589   5.508   6.985   2.116
 5211TIP3    H115590   5.413   6.995   2.125
 5211TIP3    H215591   5.535   6.936   2.194
 5212TIP3   OH215592   6.547   4.031   2.164
 5212TIP3    H115593   6.633   4.064   2.190
 5212TIP3    H215594   6.565   3.943   2.129
 5213TIP3   OH215595   1.026   6.981   3.237
 5213TIP3    H115596   1.068   6.904   3.197
 5213TIP3    H215597   1.065   6.987   3.324
 5214TIP3   OH215598   3.441   1.807   0.663
 5214TIP3    H115599   3.445   1.813   0.567
 5214TIP3    H215600   3.391   1.727   0.679
 5215TIP3   OH215601   4.012   5.095   5.366
 5215TIP3    H115602   4.000   5.179   5.411
 5215TIP3    H215603   3.980   5.111   5.277
 5216TIP3   OH215604   0.085   4.996   3.515
 5216TIP3    H115605   0.176   5.021   3.502
 5216TIP3    H215606   0.072   5.001   3.610
 5217TIP3   OH215607   1.803   3.556   0.871
 5217TIP3    H115608   1.804   3.595   0.958
 5217TIP3    H215609   1.720   3.584   0.833
 5218TIP3   OH215610   1.200   4.929   6.320
 5218TIP3    H115611   1.140   4.927   6.245
 5218TIP3    H215612   1.251   4.849   6.312
 5219TIP3   OH215613   4.786   5.272   0.220
 5219TIP3    H115614   4.774   5.366   0.202
 5219TIP3    H215615   4.880   5.263   0.237
 5220TIP3   OH215616   3.361   0.933   2.202
 5220TIP3    H115617   3.330   0.978   2.124
 5220TIP3    H215618   3.312   0.974   2.274
 5221TIP3   OH215619   5.329   1.042   6.066
 5221TIP3    H115620   5.289   1.057   5.980
 5221TIP3    H215621   5.302   1.118   6.118
 5222TIP3   OH215622   4.124   4.038   1.446
 5222TIP3    H115623   4.217   4.036   1.422
 5222TIP3    H215624   4.124   4.050   1.541
 5223TIP3   OH215625   3.722   2.745   3.059
 5223TIP3    H115626   3.696   2.659   3.024
 5223TIP3    H215627   3.663   2.807   3.016
 5224TIP3   OH215628   8.103   7.345   6.441
 5224TIP3    H115629   8.073   7.263   6.402
 5224TIP3    H215630   8.077   7.339   6.533
 5225TIP3   OH215631   6.774   4.169   2.218
 5225TIP3    H115632   6.763   4.251   2.266
 5225TIP3    H215633   6.766   4.193   2.126
 5226TIP3   OH215634   1.556   2.078   1.730
 5226TIP3    H115635   1.635   2.024   1.737
 5226TIP3    H215636   1.587   2.162   1.697
 5227TIP3   OH215637   1.431   0.146   2.942
 5227TIP3    H115638   1.448   0.164   3.034
 5227TIP3    H215639   1.347   0.188   2.924
 5228TIP3   OH215640   4.914   3.395   4.372
 5228TIP3    H115641   4.958   3.473   4.340
 5228TIP3    H215642   4.984   3.332   4.389
 5229TIP3   OH215643   8.028   3.576   4.406
 5229TIP3    H115644   7.957   3.540   4.353
 5229TIP3    H215645   8.051   3.506   4.467
 5230TIP3   OH215646   8.128   3.373   0.054
 5230TIP3    H115647   8.045   3.329   0.072
 5230TIP3    H215648   8.169   3.382   0.140
 5231TIP3   OH215649   5.688   0.685   4.073
 5231TIP3    H115650   5.707   0.631   3.996
 5231TIP3    H215651   5.599   0.660   4.099
 5232TIP3   OH215652   2.467   1.585   4.389
 5232TIP3    H115653   2.442   1.665   4.436
 5232TIP3    H215654   2.475   1.613   4.298
 5233TIP3   OH215655   2.230   5.270   0.761
 5233TIP3    H115656   2.268   5.194   0.806
 5233TIP3    H215657   2.143   5.281   0.801
 5234TIP3   OH215658   3.255   2.751   4.025
 5234TIP3    H115659   3.200   2.680   4.057
 5234TIP3    H215660   3.266   2.809   4.100
 5235TIP3   OH215661   5.652   5.808   3.341
 5235TIP3    H115662   5.739   5.824   3.305
 5235TIP3    H215663   5.668   5.759   3.422
 5236TIP3   OH215664   4.454   6.458   3.145
 5236TIP3    H115665   4.375   6.508   3.168
 5236TIP3    H215666   4.484   6.422   3.229
 5237TIP3   OH215667   6.363   6.310   0.323
 5237TIP3    H115668   6.323   6.300   0.237
 5237TIP3    H215669   6.456   6.296   0.309
 5238TIP3   OH215670   5.010   5.722   5.170
 5238TIP3    H115671   4.982   5.806   5.135
 5238TIP3    H215672   5.102   5.734   5.192
 5239TIP3   OH215673   7.616   6.532   5.761
 5239TIP3    H115674   7.526   6.503   5.778
 5239TIP3    H215675   7.609   6.589   5.685
 5240TIP3   OH215676   6.759   3.714   6.005
 5240TIP3    H115677   6.691   3.741   6.067
 5240TIP3    H215678   6.830   3.776   6.018
 5241TIP3   OH215679   6.500   0.217   2.062
 5241TIP3    H115680   6.576   0.210   2.120
 5241TIP3    H215681   6.499   0.135   2.012
 5242TIP3   OH215682   6.223   0.529   1.928
 5242TIP3    H115683   6.256   0.456   1.875
 5242TIP3    H215684   6.301   0.575   1.958
 5243TIP3   OH215685   4.870   6.009   0.883
 5243TIP3    H115686   4.844   6.003   0.791
 5243TIP3    H215687   4.965   5.999   0.883
 5244TIP3   OH215688   4.394   5.314   6.115
 5244TIP3    H115689   4.319   5.288   6.062
 5244TIP3    H215690   4.452   5.239   6.113
 5245TIP3   OH215691   2.739   2.370   4.086
 5245TIP3    H115692   2.674   2.374   4.155
 5245TIP3    H215693   2.729   2.452   4.038
 5246TIP3   OH215694   6.223   1.734   4.514
 5246TIP3    H115695   6.181   1.807   4.559
 5246TIP3    H215696   6.173   1.657   4.542
 5247TIP3   OH215697   5.657   0.054   5.219
 5247TIP3    H115698   5.580   0.084   5.267
 5247TIP3    H215699   5.727   0.113   5.247
 5248TIP3   OH215700   2.089   3.208   5.540
 5248TIP3    H115701   2.044   3.169   5.615
 5248TIP3    H215702   2.081   3.303   5.554
 5249TIP3   OH215703   2.938   3.244   2.901
 5249TIP3    H115704   2.996   3.294   2.844
 5249TIP3    H215705   2.858   3.298   2.907
 5250TIP3   OH215706   2.106   2.980   5.844
 5250TIP3    H115707   2.153   2.902   5.875
 5250TIP3    H215708   2.176   3.042   5.820
 5251TIP3   OH215709   8.034   0.560   2.232
 5251TIP3    H115710   7.977   0.637   2.223
 5251TIP3    H215711   7.977   0.490   2.262
 5252TIP3   OH215712   3.326   7.216   0.034
 5252TIP3    H115713   3.412   7.260   0.031
 5252TIP3    H215714   3.276   7.266   0.099
 5253TIP3   OH215715   5.119   5.964   5.537
 5253TIP3    H115716   5.084   5.944   5.624
 5253TIP3    H215717   5.207   5.926   5.537
 5254TIP3   OH215718   6.986   4.455   6.422
 5254TIP3    H115719   7.070   4.439   6.377
 5254TIP3    H215720   6.976   4.381   6.480
 5255TIP3   OH215721   4.389   2.769   1.731
 5255TIP3    H115722   4.484   2.760   1.730
 5255TIP3    H215723   4.365   2.760   1.824
 5256TIP3   OH215724   1.831   7.426   4.613
 5256TIP3    H115725   1.867   7.347   4.573
 5256TIP3    H215726   1.890   7.444   4.686
 5257TIP3   OH215727   1.135   5.486   6.545
 5257TIP3    H115728   1.169   5.409   6.589
 5257TIP3    H215729   1.183   5.559   6.584
 5258TIP3   OH215730   0.102   0.513   4.446
 5258TIP3    H115731   0.146   0.480   4.524
 5258TIP3    H215732   0.170   0.559   4.398
 5259TIP3   OH215733   2.684   0.302   3.056
 5259TIP3    H115734   2.770   0.262   3.046
 5259TIP3    H215735   2.665   0.296   3.150
 5260TIP3   OH215736   5.702   6.278   3.380
 5260TIP3    H115737   5.646   6.297   3.455
 5260TIP3    H215738   5.641   6.257   3.309
 5261TIP3   OH215739   4.649   4.555   5.338
 5261TIP3    H115740   4.602   4.472   5.348
 5261TIP3    H215741   4.585   4.614   5.298
 5262TIP3   OH215742   4.058   2.569   5.925
 5262TIP3    H115743   4.139   2.617   5.937
 5262TIP3    H215744   4.003   2.596   5.998
 5263TIP3   OH215745   8.061   0.775   0.928
 5263TIP3    H115746   8.111   0.818   0.997
 5263TIP3    H215747   8.066   0.835   0.853
 5264TIP3   OH215748   4.709   1.243   5.032
 5264TIP3    H115749   4.740   1.331   5.056
 5264TIP3    H215750   4.673   1.208   5.113
 5265TIP3   OH215751   0.403   2.664   6.530
 5265TIP3    H115752   0.484   2.715   6.520
 5265TIP3    H215753   0.431   2.573   6.522
 5266TIP3   OH215754   2.027   2.650   6.595
 5266TIP3    H115755   2.068   2.640   6.681
 5266TIP3    H215756   2.044   2.742   6.571
 5267TIP3   OH215757   6.081   2.149   5.021
 5267TIP3    H115758   6.018   2.175   5.088
 5267TIP3    H215759   6.078   2.053   5.022
 5268TIP3   OH215760   5.091   1.352   6.390
 5268TIP3    H115761   5.008   1.398   6.378
 5268TIP3    H215762   5.074   1.287   6.458
 5269TIP3   OH215763   4.582   4.123   6.367
 5269TIP3    H115764   4.526   4.054   6.402
 5269TIP3    H215765   4.527   4.167   6.302
 5270TIP3   OH215766   1.225   7.767   0.596
 5270TIP3    H115767   1.229   7.731   0.507
 5270TIP3    H215768   1.133   7.766   0.619
 5271TIP3   OH215769   7.168   4.010   3.197
 5271TIP3    H115770   7.219   4.083   3.233
 5271TIP3    H215771   7.185   4.014   3.102
 5272TIP3   OH215772   5.617   2.301   1.236
 5272TIP3    H115773   5.597   2.357   1.161
 5272TIP3    H215774   5.615   2.361   1.311
 5273TIP3   OH215775   1.807   7.436   6.287
 5273TIP3    H115776   1.862   7.394   6.220
 5273TIP3    H215777   1.770   7.513   6.242
 5274TIP3   OH215778   7.218   4.346   0.477
 5274TIP3    H115779   7.276   4.289   0.529
 5274TIP3    H215780   7.276   4.384   0.411
 5275TIP3   OH215781   0.348   6.079   3.928
 5275TIP3    H115782   0.265   6.117   3.957
 5275TIP3    H215783   0.410   6.100   3.998
 5276TIP3   OH215784   7.794   1.680   5.686
 5276TIP3    H115785   7.750   1.638   5.760
 5276TIP3    H215786   7.741   1.756   5.666
 5277TIP3   OH215787   5.137   2.348   1.472
 5277TIP3    H115788   5.161   2.297   1.394
 5277TIP3    H215789   5.213   2.342   1.529
 5278TIP3   OH215790   1.924   2.068   4.049
 5278TIP3    H115791   1.992   2.028   3.995
 5278TIP3    H215792   1.862   1.997   4.066
 5279TIP3   OH215793   2.936   1.576   3.567
 5279TIP3    H115794   2.955   1.536   3.482
 5279TIP3    H215795   2.854   1.625   3.552
 5280TIP3   OH215796   4.024   4.342   6.731
 5280TIP3    H115797   3.981   4.424   6.758
 5280TIP3    H215798   4.118   4.361   6.739
 5281TIP3   OH215799   1.957  -0.033   0.648
 5281TIP3    H115800   1.874   0.006   0.620
 5281TIP3    H215801   1.995   0.031   0.707
 5282TIP3   OH215802   8.138   2.331   0.466
 5282TIP3    H115803   8.138   2.403   0.529
 5282TIP3    H215804   8.068   2.273   0.496
 5283TIP3   OH215805   4.661   4.243   3.482
 5283TIP3    H115806   4.582   4.198   3.513
 5283TIP3    H215807   4.692   4.293   3.558
 5284TIP3   OH215808   0.872   0.312   1.228
 5284TIP3    H115809   0.918   0.353   1.155
 5284TIP3    H215810   0.924   0.333   1.305
 5285TIP3   OH215811   5.973   1.681   2.880
 5285TIP3    H115812   6.037   1.673   2.810
 5285TIP3    H215813   5.892   1.708   2.836
 5286TIP3   OH215814   5.810   3.577   0.735
 5286TIP3    H115815   5.855   3.586   0.651
 5286TIP3    H215816   5.830   3.488   0.763
 5287TIP3   OH215817   2.425   3.900   2.567
 5287TIP3    H115818   2.511   3.910   2.525
 5287TIP3    H215819   2.426   3.962   2.640
 5288TIP3   OH215820   3.135   4.011   6.090
 5288TIP3    H115821   3.047   4.025   6.055
 5288TIP3    H215822   3.193   4.055   6.028
 5289TIP3   OH215823   2.614   6.502   3.945
 5289TIP3    H115824   2.687   6.503   3.883
 5289TIP3    H215825   2.655   6.517   4.030
 5290TIP3   OH215826   5.261   4.252   3.402
 5290TIP3    H115827   5.218   4.262   3.487
 5290TIP3    H215828   5.301   4.337   3.385
 5291TIP3   OH215829   5.545   5.534   4.674
 5291TIP3    H115830   5.596   5.531   4.593
 5291TIP3    H215831   5.491   5.456   4.672
 5292TIP3   OH215832   1.176   4.450   1.466
 5292TIP3    H115833   1.094   4.485   1.430
 5292TIP3    H215834   1.191   4.369   1.417
 5293TIP3   OH215835   7.232   7.264   5.848
 5293TIP3    H115836   7.272   7.199   5.906
 5293TIP3    H215837   7.249   7.347   5.891
 5294TIP3   OH215838   7.427   7.797   3.958
 5294TIP3    H115839   7.509   7.811   4.005
 5294TIP3    H215840   7.399   7.709   3.983
 5295TIP3   OH215841   0.951   0.172   4.037
 5295TIP3    H115842   1.003   0.187   4.117
 5295TIP3    H215843   0.989   0.231   3.972
 5296TIP3   OH215844   6.339   5.343   2.671
 5296TIP3    H115845   6.353   5.392   2.589
 5296TIP3    H215846   6.248   5.313   2.665
 5297TIP3   OH215847   2.095   7.713   4.990
 5297TIP3    H115848   2.171   7.662   5.018
 5297TIP3    H215849   2.066   7.758   5.069
 5298TIP3   OH215850   2.135   6.995   2.278
 5298TIP3    H115851   2.200   7.065   2.272
 5298TIP3    H215852   2.177   6.926   2.329
 5299TIP3   OH215853   0.186   6.579   3.463
 5299TIP3    H115854   0.231   6.510   3.415
 5299TIP3    H215855   0.164   6.644   3.397
 5300TIP3   OH215856   4.339   4.194   5.070
 5300TIP3    H115857   4.256   4.242   5.064
 5300TIP3    H215858   4.314   4.103   5.085
 5301TIP3   OH215859   0.619   3.236   0.131
 5301TIP3    H115860   0.564   3.176   0.081
 5301TIP3    H215861   0.593   3.323   0.101
 5302TIP3   OH215862   1.951   1.972   5.152
 5302TIP3    H115863   1.880   2.036   5.163
 5302TIP3    H215864   1.961   1.932   5.239
 5303TIP3   OH215865   6.366   5.615   5.419
 5303TIP3    H115866   6.356   5.586   5.509
 5303TIP3    H215867   6.422   5.693   5.424
 5304TIP3   OH215868   0.507   1.917   0.925
 5304TIP3    H115869   0.574   1.985   0.924
 5304TIP3    H215870   0.514   1.877   1.011
 5305TIP3   OH215871   8.179   4.926   5.623
 5305TIP3    H115872   8.107   4.981   5.652
 5305TIP3    H215873   8.257   4.967   5.661
 5306TIP3   OH215874   0.765   3.226   6.417
 5306TIP3    H115875   0.768   3.173   6.337
 5306TIP3    H215876   0.682   3.274   6.411
 5307TIP3   OH215877   2.007   5.988   4.091
 5307TIP3    H115878   2.097   6.015   4.075
 5307TIP3    H215879   1.954   6.054   4.047
 5308TIP3   OH215880   4.365   2.957   1.023
 5308TIP3    H115881   4.272   2.964   1.004
 5308TIP3    H215882   4.408   3.003   0.951
 5309TIP3   OH215883   2.877   3.204   0.126
 5309TIP3    H115884   2.852   3.169   0.211
 5309TIP3    H215885   2.799   3.250   0.095
 5310TIP3   OH215886   8.169   5.923   6.584
 5310TIP3    H115887   8.106   5.953   6.649
 5310TIP3    H215888   8.238   5.880   6.635
 5311TIP3   OH215889   8.102   6.549   2.035
 5311TIP3    H115890   8.069   6.598   2.110
 5311TIP3    H215891   8.194   6.573   2.028
 5312TIP3   OH215892   2.488   3.095   1.191
 5312TIP3    H115893   2.477   3.024   1.128
 5312TIP3    H215894   2.582   3.097   1.209
 5313TIP3   OH215895   3.396   4.209   0.369
 5313TIP3    H115896   3.410   4.115   0.375
 5313TIP3    H215897   3.476   4.242   0.328
 5314TIP3   OH215898   0.811   1.904   4.126
 5314TIP3    H115899   0.801   1.828   4.069
 5314TIP3    H215900   0.728   1.910   4.173
 5315TIP3   OH215901   1.949   2.315   2.685
 5315TIP3    H115902   2.010   2.356   2.624
 5315TIP3    H215903   1.974   2.222   2.686
 5316TIP3   OH215904   6.396   1.292   2.675
 5316TIP3    H115905   6.439   1.359   2.621
 5316TIP3    H215906   6.303   1.300   2.654
 5317TIP3   OH215907   5.509   7.738   5.162
 5317TIP3    H115908   5.476   7.766   5.076
 5317TIP3    H215909   5.602   7.762   5.160
 5318TIP3   OH215910   0.297   0.608   6.795
 5318TIP3    H115911   0.267   0.577   6.710
 5318TIP3    H215912   0.384   0.645   6.778
 5319TIP3   OH215913   0.117   4.996   3.184
 5319TIP3    H115914   0.082   4.909   3.163
 5319TIP3    H215915   0.053   5.033   3.245
 5320TIP3   OH215916   1.639   2.543   0.565
 5320TIP3    H115917   1.559   2.518   0.518
 5320TIP3    H215918   1.707   2.541   0.498
 5321TIP3   OH215919   5.968   6.628   5.310
 5321TIP3    H115920   5.937   6.630   5.219
 5321TIP3    H215921   6.049   6.679   5.309
 5322TIP3   OH215922   5.550   3.694   1.139
 5322TIP3    H115923   5.574   3.610   1.178
 5322TIP3    H215924   5.477   3.674   1.080
 5323TIP3   OH215925   3.354   0.526   6.232
 5323TIP3    H115926   3.348   0.565   6.145
 5323TIP3    H215927   3.414   0.453   6.221
 5324TIP3   OH215928   3.177   3.087   4.289
 5324TIP3    H115929   3.190   3.114   4.198
 5324TIP3    H215930   3.227   3.006   4.297
 5325TIP3   OH215931   8.092   6.527   6.563
 5325TIP3    H115932   8.094   6.475   6.482
 5325TIP3    H215933   8.178   6.570   6.566
 5326TIP3   OH215934   0.588   0.160   1.824
 5326TIP3    H115935   0.620   0.239   1.780
 5326TIP3    H215936   0.497   0.180   1.846
 5327TIP3   OH215937   7.987   1.478   0.793
 5327TIP3    H115938   7.970   1.515   0.880
 5327TIP3    H215939   8.072   1.514   0.767
 5328TIP3   OH215940   7.614   2.973   1.464
 5328TIP3    H115941   7.671   2.982   1.387
 5328TIP3    H215942   7.526   2.986   1.430
 5329TIP3   OH215943   0.157   1.713   1.290
 5329TIP3    H115944   0.193   1.801   1.297
 5329TIP3    H215945   0.145   1.700   1.196
 5330TIP3   OH215946   3.735   6.307   4.740
 5330TIP3    H115947   3.752   6.236   4.678
 5330TIP3    H215948   3.648   6.338   4.717
 5331TIP3   OH215949   4.708   2.635   1.363
 5331TIP3    H115950   4.754   2.704   1.411
 5331TIP3    H215951   4.615   2.653   1.378
 5332TIP3   OH215952   3.497   4.853   3.945
 5332TIP3    H115953   3.531   4.803   3.870
 5332TIP3    H215954   3.463   4.933   3.906
 5333TIP3   OH215955   6.839   7.178   5.944
 5333TIP3    H115956   6.895   7.248   5.979
 5333TIP3    H215957   6.791   7.219   5.873
 5334TIP3   OH215958   8.075   4.303   1.657
 5334TIP3    H115959   8.010   4.296   1.587
 5334TIP3    H215960   8.024   4.297   1.738
 5335TIP3   OH215961   7.604   0.990   5.173
 5335TIP3    H115962   7.541   0.931   5.215
 5335TIP3    H215963   7.578   1.078   5.202
 5336TIP3   OH215964   6.855   2.483   1.248
 5336TIP3    H115965   6.905   2.509   1.325
 5336TIP3    H215966   6.861   2.388   1.246
 5337TIP3   OH215967   1.003   5.954   2.736
 5337TIP3    H115968   0.940   5.978   2.667
 5337TIP3    H215969   0.985   5.862   2.754
 5338TIP3   OH215970   7.659   4.266   6.076
 5338TIP3    H115971   7.727   4.207   6.106
 5338TIP3    H215972   7.673   4.346   6.127
 5339TIP3   OH215973   6.512   1.136   1.965
 5339TIP3    H115974   6.521   1.110   1.874
 5339TIP3    H215975   6.579   1.203   1.978
 5340TIP3   OH215976   0.828   1.444   6.294
 5340TIP3    H115977   0.784   1.528   6.280
 5340TIP3    H215978   0.865   1.451   6.382
 5341TIP3   OH215979   4.098   0.691   1.095
 5341TIP3    H115980   4.060   0.728   1.175
 5341TIP3    H215981   4.149   0.617   1.126
 5342TIP3   OH215982   7.981   1.095   1.258
 5342TIP3    H115983   8.039   1.027   1.291
 5342TIP3    H215984   8.033   1.175   1.262
 5343TIP3   OH215985   2.991   0.941   6.343
 5343TIP3    H115986   2.972   1.035   6.342
 5343TIP3    H215987   3.033   0.924   6.258
 5344TIP3   OH215988   3.141   4.445   1.298
 5344TIP3    H115989   3.196   4.503   1.245
 5344TIP3    H215990   3.092   4.505   1.355
 5345TIP3   OH215991   6.697   6.372   0.790
 5345TIP3    H115992   6.631   6.430   0.828
 5345TIP3    H215993   6.690   6.387   0.696
 5346TIP3   OH215994   7.529   7.315   5.546
 5346TIP3    H115995   7.435   7.298   5.547
 5346TIP3    H215996   7.538   7.399   5.502
 5347TIP3   OH215997   5.981   7.319   3.790
 5347TIP3    H115998   6.025   7.311   3.874
 5347TIP3    H215999   6.008   7.241   3.741
 5348TIP3   OH216000   3.196   5.991   5.185
 5348TIP3    H116001   3.104   5.967   5.193
 5348TIP3    H216002   3.236   5.961   5.267
 5349TIP3   OH216003   5.412   5.768   4.602
 5349TIP3    H116004   5.456   5.684   4.615
 5349TIP3    H216005   5.484   5.829   4.584
 5350TIP3   OH216006   8.123   0.246   4.725
 5350TIP3    H116007   8.153   0.250   4.816
 5350TIP3    H216008   8.035   0.209   4.730
 5351TIP3   OH216009   2.420   5.123   3.132
 5351TIP3    H116010   2.402   5.099   3.223
 5351TIP3    H216011   2.346   5.178   3.106
 5352TIP3   OH216012   6.570   7.740   5.889
 5352TIP3    H116013   6.538   7.764   5.977
 5352TIP3    H216014   6.598   7.649   5.898
 5353TIP3   OH216015   4.944   6.071   3.098
 5353TIP3    H116016   4.997   6.002   3.057
 5353TIP3    H216017   4.984   6.153   3.070
 5354TIP3   OH216018   3.905   7.622   5.796
 5354TIP3    H116019   3.944   7.535   5.797
 5354TIP3    H216020   3.858   7.626   5.713
 5355TIP3   OH216021   2.889   2.496   1.868
 5355TIP3    H116022   2.890   2.476   1.774
 5355TIP3    H216023   2.980   2.515   1.890
 5356TIP3   OH216024   1.177   7.689   0.342
 5356TIP3    H116025   1.109   7.622   0.350
 5356TIP3    H216026   1.237   7.654   0.277
 5357TIP3   OH216027   4.119   2.873   1.823
 5357TIP3    H116028   4.060   2.815   1.776
 5357TIP3    H216029   4.205   2.859   1.782
 5358TIP3   OH216030   0.139   5.067   6.437
 5358TIP3    H116031   0.164   5.031   6.522
 5358TIP3    H216032   0.095   5.149   6.457
 5359TIP3   OH216033   3.013   3.344   0.907
 5359TIP3    H116034   3.050   3.430   0.885
 5359TIP3    H216035   2.974   3.356   0.994
 5360TIP3   OH216036   2.676   0.754   5.055
 5360TIP3    H116037   2.666   0.662   5.076
 5360TIP3    H216038   2.656   0.800   5.137
 5361TIP3   OH216039   0.839   1.186   6.431
 5361TIP3    H116040   0.814   1.279   6.427
 5361TIP3    H216041   0.906   1.183   6.499
 5362TIP3   OH216042   6.225   1.327   0.644
 5362TIP3    H116043   6.256   1.369   0.724
 5362TIP3    H216044   6.239   1.392   0.576
 5363TIP3   OH216045   2.607   0.146   3.879
 5363TIP3    H116046   2.645   0.059   3.865
 5363TIP3    H216047   2.598   0.182   3.790
 5364TIP3   OH216048   7.162   2.303   0.371
 5364TIP3    H116049   7.257   2.296   0.359
 5364TIP3    H216050   7.138   2.222   0.417
 5365TIP3   OH216051   6.210   4.306   5.010
 5365TIP3    H116052   6.197   4.341   4.922
 5365TIP3    H216053   6.139   4.243   5.021
 5366TIP3   OH216054   1.501   4.047   4.918
 5366TIP3    H116055   1.445   4.114   4.957
 5366TIP3    H216056   1.494   3.973   4.978
 5367TIP3   OH216057   4.422   4.903   5.537
 5367TIP3    H116058   4.376   4.965   5.481
 5367TIP3    H216059   4.354   4.841   5.564
 5368TIP3   OH216060   4.590   1.111   6.289
 5368TIP3    H116061   4.601   1.196   6.333
 5368TIP3    H216062   4.500   1.086   6.308
 5369TIP3   OH216063   0.772   7.355   3.805
 5369TIP3    H116064   0.742   7.346   3.715
 5369TIP3    H216065   0.830   7.431   3.803
 5370TIP3   OH216066   5.699   7.492   3.450
 5370TIP3    H116067   5.700   7.540   3.367
 5370TIP3    H216068   5.790   7.464   3.462
 5371TIP3   OH216069   0.283   5.772   2.653
 5371TIP3    H116070   0.289   5.734   2.741
 5371TIP3    H216071   0.200   5.820   2.654
 5372TIP3   OH216072   0.826   3.371   1.203
 5372TIP3    H116073   0.877   3.291   1.210
 5372TIP3    H216074   0.771   3.372   1.282
 5373TIP3   OH216075   1.135   5.099   2.242
 5373TIP3    H116076   1.225   5.129   2.227
 5373TIP3    H216077   1.142   5.005   2.253
 5374TIP3   OH216078   5.439   2.586   3.145
 5374TIP3    H116079   5.395   2.570   3.062
 5374TIP3    H216080   5.384   2.544   3.210
 5375TIP3   OH216081   4.891   2.450   5.062
 5375TIP3    H116082   4.837   2.470   5.138
 5375TIP3    H216083   4.869   2.360   5.039
 5376TIP3   OH216084   0.104   0.106   1.947
 5376TIP3    H116085   0.035   0.049   1.914
 5376TIP3    H216086   0.146   0.056   2.017
 5377TIP3   OH216087   4.112   3.191   1.381
 5377TIP3    H116088   4.189   3.149   1.343
 5377TIP3    H216089   4.131   3.285   1.378
 5378TIP3   OH216090   0.083   4.019   6.383
 5378TIP3    H116091   0.139   4.095   6.367
 5378TIP3    H216092   0.140   3.957   6.429
 5379TIP3   OH216093   7.291   4.864   1.217
 5379TIP3    H116094   7.282   4.868   1.122
 5379TIP3    H216095   7.275   4.772   1.239
 5380TIP3   OH216096   8.123   5.152   3.276
 5380TIP3    H116097   8.118   5.163   3.371
 5380TIP3    H216098   8.184   5.221   3.247
 5381TIP3   OH216099   3.302   7.274   0.667
 5381TIP3    H116100   3.367   7.282   0.737
 5381TIP3    H216101   3.308   7.356   0.618
 5382TIP3   OH216102   2.306   6.361   4.042
 5382TIP3    H116103   2.400   6.377   4.027
 5382TIP3    H216104   2.263   6.437   4.004
 5383TIP3   OH216105   6.617   6.648  -0.026
 5383TIP3    H116106   6.709   6.661  -0.001
 5383TIP3    H216107   6.573   6.623   0.055
 5384TIP3   OH216108   7.306   7.380   4.778
 5384TIP3    H116109   7.394   7.386   4.739
 5384TIP3    H216110   7.252   7.439   4.725
 5385TIP3   OH216111   1.411   2.366   6.560
 5385TIP3    H116112   1.482   2.336   6.616
 5385TIP3    H216113   1.340   2.304   6.575
 5386TIP3   OH216114   1.096   0.697   0.386
 5386TIP3    H116115   1.124   0.671   0.474
 5386TIP3    H216116   1.005   0.726   0.397
 5387TIP3   OH216117   8.253   2.219   1.591
 5387TIP3    H116118   8.331   2.220   1.645
 5387TIP3    H216119   8.182   2.243   1.650
 5388TIP3   OH216120   1.647   5.867   2.396
 5388TIP3    H116121   1.585   5.868   2.469
 5388TIP3    H216122   1.601   5.823   2.325
 5389TIP3   OH216123   2.398   2.961   4.359
 5389TIP3    H116124   2.454   2.991   4.431
 5389TIP3    H216125   2.388   2.867   4.374
 5390TIP3   OH216126   6.068   5.637   5.017
 5390TIP3    H116127   6.124   5.631   5.094
 5390TIP3    H216128   6.109   5.704   4.962
 5391TIP3   OH216129   0.594   7.423   2.592
 5391TIP3    H116130   0.529   7.432   2.661
 5391TIP3    H216131   0.677   7.415   2.638
 5392TIP3   OH216132   1.438   0.599   0.277
 5392TIP3    H116133   1.385   0.554   0.342
 5392TIP3    H216134   1.508   0.536   0.256
 5393TIP3   OH216135   5.199   7.303   2.148
 5393TIP3    H116136   5.213   7.211   2.129
 5393TIP3    H216137   5.278   7.330   2.196
 5394TIP3   OH216138   5.239   1.799   6.541
 5394TIP3    H116139   5.263   1.717   6.497
 5394TIP3    H216140   5.305   1.809   6.610
 5395TIP3   OH216141   3.180   3.363   5.590
 5395TIP3    H116142   3.242   3.311   5.640
 5395TIP3    H216143   3.213   3.360   5.500
 5396TIP3   OH216144   5.136   0.492   1.278
 5396TIP3    H116145   5.084   0.544   1.217
 5396TIP3    H216146   5.158   0.552   1.349
 5397TIP3   OH216147   1.952   3.027   0.575
 5397TIP3    H116148   1.924   3.009   0.486
 5397TIP3    H216149   2.041   3.063   0.566
 5398TIP3   OH216150   1.425   2.438   6.306
 5398TIP3    H116151   1.431   2.427   6.401
 5398TIP3    H216152   1.332   2.426   6.286
 5399TIP3   OH216153   5.393   3.125   5.821
 5399TIP3    H116154   5.402   3.115   5.726
 5399TIP3    H216155   5.437   3.208   5.840
 5400TIP3   OH216156   8.078   3.525   1.336
 5400TIP3    H116157   8.096   3.435   1.310
 5400TIP3    H216158   8.124   3.535   1.420
 5401TIP3   OH216159   2.544   3.803   5.399
 5401TIP3    H116160   2.554   3.819   5.305
 5401TIP3    H216161   2.572   3.885   5.440
 5402TIP3   OH216162   5.865   5.250   6.743
 5402TIP3    H116163   5.949   5.295   6.754
 5402TIP3    H216164   5.879   5.163   6.780
 5403TIP3   OH216165   0.913   5.696   5.599
 5403TIP3    H116166   0.853   5.624   5.619
 5403TIP3    H216167   0.895   5.761   5.667
 5404TIP3   OH216168   6.218   5.061   0.874
 5404TIP3    H116169   6.275   5.011   0.816
 5404TIP3    H216170   6.161   4.996   0.915
 5405TIP3   OH216171   3.047   3.956   1.160
 5405TIP3    H116172   2.964   3.908   1.156
 5405TIP3    H216173   3.023   4.043   1.192
 5406TIP3   OH216174   1.528   4.325   6.182
 5406TIP3    H116175   1.501   4.289   6.266
 5406TIP3    H216176   1.458   4.386   6.158
 5407TIP3   OH216177   3.471   3.798   3.911
 5407TIP3    H116178   3.380   3.772   3.929
 5407TIP3    H216179   3.514   3.716   3.886
 5408TIP3   OH216180   0.069   2.409   0.783
 5408TIP3    H116181   0.070   2.349   0.857
 5408TIP3    H216182   0.082   2.353   0.706
 5409TIP3   OH216183   6.788   1.991   2.825
 5409TIP3    H116184   6.849   1.923   2.853
 5409TIP3    H216185   6.704   1.965   2.862
 5410TIP3   OH216186   1.984   4.429   4.218
 5410TIP3    H116187   2.034   4.360   4.173
 5410TIP3    H216188   1.950   4.484   4.147
 5411TIP3   OH216189   1.697   3.106   0.020
 5411TIP3    H116190   1.752   3.057  -0.042
 5411TIP3    H216191   1.661   3.039   0.078
 5412TIP3   OH216192   4.816   0.668   3.456
 5412TIP3    H116193   4.825   0.717   3.538
 5412TIP3    H216194   4.902   0.629   3.443
 5413TIP3   OH216195   8.205   4.666   4.569
 5413TIP3    H116196   8.132   4.617   4.607
 5413TIP3    H216197   8.215   4.743   4.626
 5414TIP3   OH216198   1.236   2.373  -0.005
 5414TIP3    H116199   1.160   2.430   0.010
 5414TIP3    H216200   1.245   2.323   0.076
 5415TIP3   OH216201   3.108   6.958   1.719
 5415TIP3    H116202   3.041   6.890   1.708
 5415TIP3    H216203   3.124   6.961   1.813
 5416TIP3   OH216204   2.016   4.110   2.642
 5416TIP3    H116205   1.934   4.159   2.640
 5416TIP3    H216206   2.083   4.176   2.659
 5417TIP3   OH216207   4.953   0.839   1.125
 5417TIP3    H116208   4.983   0.927   1.151
 5417TIP3    H216209   4.903   0.853   1.045
 5418TIP3   OH216210   5.386   1.468   4.295
 5418TIP3    H116211   5.410   1.560   4.307
 5418TIP3    H216212   5.458   1.431   4.244
 5419TIP3   OH216213   6.702   4.486   6.544
 5419TIP3    H116214   6.764   4.506   6.615
 5419TIP3    H216215   6.670   4.571   6.516
 5420TIP3   OH216216   0.983   1.766   0.975
 5420TIP3    H116217   1.042   1.691   0.966
 5420TIP3    H216218   0.906   1.730   1.020
 5421TIP3   OH216219   6.611   5.621   3.061
 5421TIP3    H116220   6.701   5.588   3.068
 5421TIP3    H216221   6.590   5.610   2.968
 5422TIP3   OH216222   3.257   5.352   0.709
 5422TIP3    H116223   3.239   5.429   0.763
 5422TIP3    H216224   3.171   5.312   0.695
 5423TIP3   OH216225   0.046   2.494   3.583
 5423TIP3    H116226   0.128   2.455   3.614
 5423TIP3    H216227  -0.010   2.494   3.661
 5424TIP3   OH216228   0.609   2.921   0.994
 5424TIP3    H116229   0.622   2.869   0.915
 5424TIP3    H216230   0.535   2.878   1.038
 5425TIP3   OH216231   6.563   1.177   3.240
 5425TIP3    H116232   6.512   1.258   3.241
 5425TIP3    H216233   6.553   1.143   3.151
 5426TIP3   OH216234   0.060   0.172   4.290
 5426TIP3    H116235   0.064   0.173   4.386
 5426TIP3    H216236   0.018   0.088   4.269
 5427TIP3   OH216237   6.841   3.267   0.319
 5427TIP3    H116238   6.801   3.187   0.284
 5427TIP3    H216239   6.819   3.265   0.412
 5428TIP3   OH216240   0.591   5.252   5.510
 5428TIP3    H116241   0.635   5.328   5.472
 5428TIP3    H216242   0.610   5.257   5.603
 5429TIP3   OH216243   3.776   2.020   1.351
 5429TIP3    H116244   3.751   2.111   1.369
 5429TIP3    H216245   3.869   2.016   1.374
 5430TIP3   OH216246   4.048   7.420   4.155
 5430TIP3    H116247   4.020   7.356   4.090
 5430TIP3    H216248   3.968   7.444   4.201
 5431TIP3   OH216249   3.726   0.877   4.518
 5431TIP3    H116250   3.769   0.869   4.432
 5431TIP3    H216251   3.699   0.787   4.539
 5432TIP3   OH216252   6.427   3.239   3.643
 5432TIP3    H116253   6.417   3.234   3.548
 5432TIP3    H216254   6.478   3.319   3.658
 5433TIP3   OH216255   5.362   6.487   3.239
 5433TIP3    H116256   5.329   6.548   3.173
 5433TIP3    H216257   5.408   6.419   3.189
 5434TIP3   OH216258   7.865   6.387   2.541
 5434TIP3    H116259   7.778   6.393   2.580
 5434TIP3    H216260   7.874   6.468   2.491
 5435TIP3   OH216261   1.983   1.091   0.708
 5435TIP3    H116262   2.038   1.052   0.639
 5435TIP3    H216263   1.904   1.037   0.709
 5436TIP3   OH216264   3.907   5.221   0.497
 5436TIP3    H116265   3.874   5.181   0.577
 5436TIP3    H216266   3.863   5.173   0.427
 5437TIP3   OH216267   0.404   4.976   3.077
 5437TIP3    H116268   0.472   4.954   3.141
 5437TIP3    H216269   0.446   4.959   2.992
 5438TIP3   OH216270   7.720   5.054   3.268
 5438TIP3    H116271   7.778   5.036   3.341
 5438TIP3    H216272   7.776   5.050   3.191
 5439TIP3   OH216273   7.099   4.278   6.113
 5439TIP3    H116274   7.166   4.345   6.106
 5439TIP3    H216275   7.146   4.195   6.100
 5440TIP3   OH216276   3.193   4.996   4.134
 5440TIP3    H116277   3.161   4.935   4.201
 5440TIP3    H216278   3.161   4.959   4.051
 5441TIP3   OH216279   0.305   3.397   6.544
 5441TIP3    H116280   0.390   3.417   6.505
 5441TIP3    H216281   0.316   3.414   6.637
 5442TIP3   OH216282   7.002   0.899   1.371
 5442TIP3    H116283   7.057   0.965   1.328
 5442TIP3    H216284   6.921   0.946   1.393
 5443TIP3   OH216285   0.196   4.786   4.262
 5443TIP3    H116286   0.166   4.718   4.322
 5443TIP3    H216287   0.234   4.853   4.318
 5444TIP3   OH216288   1.946   6.120   3.375
 5444TIP3    H116289   1.933   6.045   3.317
 5444TIP3    H216290   1.961   6.194   3.317
 5445TIP3   OH216291   7.734   5.464   2.946
 5445TIP3    H116292   7.672   5.520   2.899
 5445TIP3    H216293   7.679   5.396   2.986
 5446TIP3   OH216294   7.978   0.295   0.167
 5446TIP3    H116295   7.922   0.313   0.242
 5446TIP3    H216296   7.949   0.357   0.100
 5447TIP3   OH216297   6.235   2.516   5.501
 5447TIP3    H116298   6.143   2.534   5.518
 5447TIP3    H216299   6.252   2.557   5.416
 5448TIP3   OH216300   1.503   4.507   4.247
 5448TIP3    H116301   1.578   4.455   4.219
 5448TIP3    H216302   1.456   4.526   4.165
 5449TIP3   OH216303   5.981   6.957   0.783
 5449TIP3    H116304   5.900   6.934   0.828
 5449TIP3    H216305   6.029   7.013   0.844
 5450TIP3   OH216306   7.077   4.888   4.491
 5450TIP3    H116307   7.122   4.839   4.423
 5450TIP3    H216308   7.129   4.967   4.503
 5451TIP3   OH216309   0.024   4.028   5.823
 5451TIP3    H116310   0.087   3.965   5.788
 5451TIP3    H216311   0.025   4.011   5.918
 5452TIP3   OH216312   2.087   1.588   4.508
 5452TIP3    H116313   2.087   1.529   4.584
 5452TIP3    H216314   2.155   1.652   4.528
 5453TIP3   OH216315   7.508   2.466   1.848
 5453TIP3    H116316   7.514   2.381   1.890
 5453TIP3    H216317   7.550   2.453   1.762
 5454TIP3   OH216318   5.306   6.634   5.803
 5454TIP3    H116319   5.241   6.566   5.786
 5454TIP3    H216320   5.304   6.647   5.897
 5455TIP3   OH216321   4.470   7.275   1.914
 5455TIP3    H116322   4.433   7.311   1.995
 5455TIP3    H216323   4.395   7.263   1.856
 5456TIP3   OH216324   7.475   2.436   3.202
 5456TIP3    H116325   7.535   2.507   3.222
 5456TIP3    H216326   7.531   2.362   3.179
 5457TIP3   OH216327   3.798   6.582   4.871
 5457TIP3    H116328   3.872   6.523   4.858
 5457TIP3    H216329   3.742   6.536   4.934
 5458TIP3   OH216330   1.333   4.191   0.029
 5458TIP3    H116331   1.309   4.146  -0.052
 5458TIP3    H216332   1.249   4.207   0.073
 5459TIP3   OH216333   4.074   1.361   0.460
 5459TIP3    H116334   4.076   1.386   0.552
 5459TIP3    H216335   4.165   1.339   0.439
 5460TIP3   OH216336   2.680   6.014   6.312
 5460TIP3    H116337   2.606   6.075   6.317
 5460TIP3    H216338   2.640   5.928   6.323
 5461TIP3   OH216339   1.819   4.005   1.573
 5461TIP3    H116340   1.744   4.058   1.547
 5461TIP3    H216341   1.893   4.066   1.572
 5462TIP3   OH216342   2.666   5.260   3.742
 5462TIP3    H116343   2.661   5.356   3.742
 5462TIP3    H216344   2.604   5.233   3.811
 5463TIP3   OH216345   6.863   4.155   4.042
 5463TIP3    H116346   6.821   4.188   4.121
 5463TIP3    H216347   6.829   4.210   3.971
 5464TIP3   OH216348   0.263   1.867   2.037
 5464TIP3    H116349   0.357   1.865   2.018
 5464TIP3    H216350   0.232   1.780   2.013
 5465TIP3   OH216351   6.627   7.155   4.705
 5465TIP3    H116352   6.592   7.124   4.621
 5465TIP3    H216353   6.702   7.098   4.722
 5466TIP3   OH216354   8.117   3.483   3.103
 5466TIP3    H116355   8.183   3.489   3.034
 5466TIP3    H216356   8.037   3.517   3.064
 5467TIP3   OH216357   4.701   7.689   0.806
 5467TIP3    H116358   4.689   7.765   0.750
 5467TIP3    H216359   4.758   7.720   0.877
 5468TIP3   OH216360   5.583   7.570   3.897
 5468TIP3    H116361   5.633   7.490   3.878
 5468TIP3    H216362   5.557   7.602   3.811
 5469TIP3   OH216363   5.614   1.856   6.096
 5469TIP3    H116364   5.611   1.784   6.159
 5469TIP3    H216365   5.566   1.927   6.138
 5470TIP3   OH216366   6.045   6.753   0.592
 5470TIP3    H116367   6.046   6.812   0.668
 5470TIP3    H216368   6.103   6.796   0.528
 5471TIP3   OH216369   2.468   1.740   2.249
 5471TIP3    H116370   2.416   1.662   2.270
 5471TIP3    H216371   2.407   1.813   2.262
 5472TIP3   OH216372   5.409   3.978   0.750
 5472TIP3    H116373   5.380   3.912   0.688
 5472TIP3    H216374   5.504   3.971   0.750
 5473TIP3   OH216375   0.326   5.090   3.516
 5473TIP3    H116376   0.397   5.126   3.462
 5473TIP3    H216377   0.327   5.144   3.595
 5474TIP3   OH216378   2.806   7.605   3.496
 5474TIP3    H116379   2.867   7.604   3.570
 5474TIP3    H216380   2.731   7.655   3.529
 5475TIP3   OH216381   4.076   4.879   4.213
 5475TIP3    H116382   4.004   4.817   4.223
 5475TIP3    H216383   4.146   4.844   4.269
 5476TIP3   OH216384   5.665   0.359   4.206
 5476TIP3    H116385   5.742   0.315   4.169
 5476TIP3    H216386   5.686   0.370   4.298
 5477TIP3   OH216387   4.808   0.387   1.644
 5477TIP3    H116388   4.841   0.322   1.706
 5477TIP3    H216389   4.721   0.410   1.676
 5478TIP3   OH216390   6.828   6.158   4.318
 5478TIP3    H116391   6.834   6.063   4.330
 5478TIP3    H216392   6.835   6.193   4.407
 5479TIP3   OH216393   0.706   6.629   6.748
 5479TIP3    H116394   0.781   6.674   6.709
 5479TIP3    H216395   0.653   6.601   6.674
 5480TIP3   OH216396   0.646   1.166   6.757
 5480TIP3    H116397   0.645   1.104   6.683
 5480TIP3    H216398   0.583   1.234   6.732
 5481TIP3   OH216399   3.720   3.673   6.214
 5481TIP3    H116400   3.678   3.660   6.129
 5481TIP3    H216401   3.688   3.758   6.245
 5482TIP3   OH216402   4.141   4.368   6.258
 5482TIP3    H116403   4.115   4.395   6.170
 5482TIP3    H216404   4.076   4.303   6.284
 5483TIP3   OH216405   2.868   7.558   2.271
 5483TIP3    H116406   2.848   7.599   2.355
 5483TIP3    H216407   2.955   7.589   2.248
 5484TIP3   OH216408   3.446   1.545   5.285
 5484TIP3    H116409   3.503   1.601   5.338
 5484TIP3    H216410   3.506   1.486   5.240
 5485TIP3   OH216411   1.514   6.666   4.621
 5485TIP3    H116412   1.524   6.756   4.591
 5485TIP3    H216413   1.511   6.672   4.716
 5486TIP3   OH216414   3.881   5.578   1.547
 5486TIP3    H116415   3.921   5.603   1.464
 5486TIP3    H216416   3.787   5.573   1.527
 5487TIP3   OH216417   6.848   7.339   5.484
 5487TIP3    H116418   6.928   7.337   5.431
 5487TIP3    H216419   6.785   7.384   5.428
 5488TIP3   OH216420   1.856   5.754   5.100
 5488TIP3    H116421   1.878   5.799   5.018
 5488TIP3    H216422   1.915   5.793   5.165
 5489TIP3   OH216423   2.766   1.372   6.675
 5489TIP3    H116424   2.802   1.460   6.664
 5489TIP3    H216425   2.812   1.337   6.752
 5490TIP3   OH216426   4.586   0.448   5.980
 5490TIP3    H116427   4.652   0.495   5.929
 5490TIP3    H216428   4.633   0.416   6.057
 5491TIP3   OH216429   6.554   2.859   6.286
 5491TIP3    H116430   6.605   2.778   6.286
 5491TIP3    H216431   6.598   2.915   6.223
 5492TIP3   OH216432   1.768   0.830   4.519
 5492TIP3    H116433   1.677   0.852   4.541
 5492TIP3    H216434   1.820   0.898   4.562
 5493TIP3   OH216435   6.871   2.981   4.091
 5493TIP3    H116436   6.818   2.991   4.013
 5493TIP3    H216437   6.956   2.950   4.060
 5494TIP3   OH216438   6.427   7.081   3.383
 5494TIP3    H116439   6.489   7.143   3.421
 5494TIP3    H216440   6.470   7.050   3.303
 5495TIP3   OH216441   2.111   5.189   2.646
 5495TIP3    H116442   2.054   5.145   2.708
 5495TIP3    H216443   2.174   5.122   2.618
 5496TIP3   OH216444   6.871   0.026   1.200
 5496TIP3    H116445   6.912   0.112   1.190
 5496TIP3    H216446   6.779   0.041   1.178
 5497TIP3   OH216447   7.603   0.893   0.153
 5497TIP3    H116448   7.595   0.821   0.090
 5497TIP3    H216449   7.573   0.970   0.106
 5498TIP3   OH216450   2.721   4.380   3.924
 5498TIP3    H116451   2.656   4.421   3.866
 5498TIP3    H216452   2.730   4.291   3.891
 5499TIP3   OH216453   6.562   2.351   6.574
 5499TIP3    H116454   6.634   2.311   6.527
 5499TIP3    H216455   6.604   2.405   6.641
 5500TIP3   OH216456   7.819   4.894   4.208
 5500TIP3    H116457   7.886   4.835   4.243
 5500TIP3    H216458   7.770   4.923   4.286
 5501TIP3   OH216459   1.998   7.260   5.674
 5501TIP3    H116460   1.949   7.324   5.622
 5501TIP3    H216461   1.987   7.288   5.764
 5502TIP3   OH216462   4.269   0.582   0.888
 5502TIP3    H116463   4.219   0.501   0.876
 5502TIP3    H216464   4.280   0.589   0.983
 5503TIP3   OH216465   3.407   0.128   5.306
 5503TIP3    H116466   3.361   0.209   5.332
 5503TIP3    H216467   3.486   0.159   5.263
 5504TIP3   OH216468   3.927   5.759   3.416
 5504TIP3    H116469   3.844   5.730   3.453
 5504TIP3    H216470   3.980   5.782   3.492
 5505TIP3   OH216471   5.843   7.225   1.923
 5505TIP3    H116472   5.848   7.304   1.868
 5505TIP3    H216473   5.933   7.192   1.926
 5506TIP3   OH216474   2.120   6.067   1.770
 5506TIP3    H116475   2.209   6.092   1.797
 5506TIP3    H216476   2.072   6.150   1.769
 5507TIP3   OH216477   2.271   0.996   2.489
 5507TIP3    H116478   2.222   1.022   2.567
 5507TIP3    H216479   2.316   1.075   2.462
 5508TIP3   OH216480   0.168   4.572   4.478
 5508TIP3    H116481   0.242   4.558   4.538
 5508TIP3    H216482   0.091   4.572   4.534
 5509TIP3   OH216483   7.449   5.044   2.287
 5509TIP3    H116484   7.435   4.973   2.348
 5509TIP3    H216485   7.450   5.002   2.201
 5510TIP3   OH216486   4.597   5.780   0.250
 5510TIP3    H116487   4.625   5.690   0.234
 5510TIP3    H216488   4.635   5.830   0.177
 5511TIP3   OH216489   1.532   7.133   2.366
 5511TIP3    H116490   1.558   7.066   2.303
 5511TIP3    H216491   1.547   7.216   2.321
 5512TIP3   OH216492   1.836   0.374   2.928
 5512TIP3    H116493   1.793   0.298   2.889
 5512TIP3    H216494   1.929   0.354   2.924
 5513TIP3   OH216495   3.321   6.763   3.076
 5513TIP3    H116496   3.369   6.825   3.130
 5513TIP3    H216497   3.368   6.760   2.993
 5514TIP3   OH216498   3.068   6.486   3.977
 5514TIP3    H116499   3.140   6.475   4.039
 5514TIP3    H216500   3.004   6.418   4.002
 5515TIP3   OH216501   4.363   5.570   3.195
 5515TIP3    H116502   4.348   5.596   3.104
 5515TIP3    H216503   4.439   5.512   3.191
 5516TIP3   OH216504   3.783   7.495   0.972
 5516TIP3    H116505   3.791   7.447   0.889
 5516TIP3    H216506   3.713   7.450   1.018
 5517TIP3   OH216507   2.899   1.917   3.940
 5517TIP3    H116508   2.866   2.004   3.961
 5517TIP3    H216509   2.869   1.901   3.851
 5518TIP3   OH216510   4.447   5.045   2.334
 5518TIP3    H116511   4.461   4.982   2.405
 5518TIP3    H216512   4.353   5.045   2.320
 5519TIP3   OH216513   1.014   4.885   1.562
 5519TIP3    H116514   1.029   4.812   1.502
 5519TIP3    H216515   1.009   4.962   1.506
 5520TIP3   OH216516   6.678   2.620   6.278
 5520TIP3    H116517   6.751   2.559   6.280
 5520TIP3    H216518   6.628   2.596   6.200
 5521TIP3   OH216519   1.531   4.827   1.509
 5521TIP3    H116520   1.454   4.861   1.556
 5521TIP3    H216521   1.521   4.860   1.420
 5522TIP3   OH216522   7.140   2.767   0.335
 5522TIP3    H116523   7.186   2.768   0.251
 5522TIP3    H216524   7.209   2.748   0.399
 5523TIP3   OH216525   6.852   2.216   0.686
 5523TIP3    H116526   6.935   2.205   0.640
 5523TIP3    H216527   6.867   2.180   0.773
 5524TIP3   OH216528   1.195   2.351   5.749
 5524TIP3    H116529   1.285   2.378   5.768
 5524TIP3    H216530   1.204   2.279   5.687
 5525TIP3   OH216531   6.372   4.984   5.239
 5525TIP3    H116532   6.281   5.007   5.217
 5525TIP3    H216533   6.382   5.011   5.330
 5526TIP3   OH216534   0.099   7.854   2.639
 5526TIP3    H116535   0.150   7.779   2.608
 5526TIP3    H216536   0.010   7.819   2.647
 5527TIP3   OH216537   8.199   6.383   5.578
 5527TIP3    H116538   8.282   6.340   5.558
 5527TIP3    H216539   8.142   6.361   5.504
 5528TIP3   OH216540   5.402   5.307   1.279
 5528TIP3    H116541   5.450   5.226   1.300
 5528TIP3    H216542   5.311   5.286   1.298
 5529TIP3   OH216543   2.171   0.460   1.802
 5529TIP3    H116544   2.197   0.552   1.809
 5529TIP3    H216545   2.212   0.418   1.878
 5530TIP3   OH216546   3.875   2.733   4.298
 5530TIP3    H116547   3.961   2.691   4.294
 5530TIP3    H216548   3.894   2.826   4.309
 5531TIP3   OH216549   7.550   3.876   1.786
 5531TIP3    H116550   7.562   3.959   1.741
 5531TIP3    H216551   7.626   3.868   1.844
 5532TIP3   OH216552   4.743   3.729   2.359
 5532TIP3    H116553   4.752   3.823   2.348
 5532TIP3    H216554   4.707   3.717   2.447
 5533TIP3   OH216555   8.146   4.828   0.435
 5533TIP3    H116556   8.090   4.831   0.513
 5533TIP3    H216557   8.225   4.782   0.465
 5534TIP3   OH216558   4.013   7.192   4.762
 5534TIP3    H116559   3.960   7.131   4.814
 5534TIP3    H216560   3.997   7.277   4.803
 5535TIP3   OH216561   4.997   7.523   1.779
 5535TIP3    H116562   4.950   7.446   1.745
 5535TIP3    H216563   4.944   7.598   1.752
 5536TIP3   OH216564   7.544   5.483   2.056
 5536TIP3    H116565   7.497   5.402   2.037
 5536TIP3    H216566   7.540   5.490   2.152
 5537TIP3   OH216567   2.668   0.710   4.343
 5537TIP3    H116568   2.683   0.668   4.258
 5537TIP3    H216569   2.699   0.646   4.407
 5538TIP3   OH216570   0.324   5.256   1.222
 5538TIP3    H116571   0.403   5.205   1.238
 5538TIP3    H216572   0.257   5.214   1.275
 5539TIP3   OH216573   5.664   2.473   3.635
 5539TIP3    H116574   5.751   2.450   3.601
 5539TIP3    H216575   5.683   2.514   3.720
 5540TIP3   OH216576   7.676   2.473   4.085
 5540TIP3    H116577   7.738   2.410   4.121
 5540TIP3    H216578   7.667   2.447   3.993
 5541TIP3   OH216579   7.589   3.008   6.518
 5541TIP3    H116580   7.547   2.923   6.527
 5541TIP3    H216581   7.571   3.034   6.427
 5542TIP3   OH216582   1.528   1.681   5.607
 5542TIP3    H116583   1.521   1.766   5.650
 5542TIP3    H216584   1.451   1.633   5.637
 5543TIP3   OH216585   3.103   7.774   5.025
 5543TIP3    H116586   3.145   7.831   4.961
 5543TIP3    H216587   3.031   7.825   5.060
 5544TIP3   OH216588   3.215   7.778   0.690
 5544TIP3    H116589   3.185   7.695   0.728
 5544TIP3    H216590   3.146   7.840   0.709
 5545TIP3   OH216591   4.110   2.606   4.371
 5545TIP3    H116592   4.118   2.516   4.340
 5545TIP3    H216593   4.189   2.621   4.422
 5546TIP3   OH216594   7.898   5.838   2.606
 5546TIP3    H116595   7.890   5.828   2.511
 5546TIP3    H216596   7.946   5.920   2.617
 5547TIP3   OH216597   3.371   2.708   6.241
 5547TIP3    H116598   3.288   2.725   6.195
 5547TIP3    H216599   3.400   2.794   6.271
 5548TIP3   OH216600   7.215   0.273   5.866
 5548TIP3    H116601   7.234   0.180   5.851
 5548TIP3    H216602   7.202   0.308   5.778
 5549TIP3   OH216603   5.397   0.733   4.874
 5549TIP3    H116604   5.476   0.699   4.833
 5549TIP3    H216605   5.427   0.809   4.924
 5550TIP3   OH216606   1.906   0.257   3.216
 5550TIP3    H116607   1.839   0.273   3.282
 5550TIP3    H216608   1.934   0.345   3.188
 5551TIP3   OH216609   7.804   3.444   2.025
 5551TIP3    H116610   7.839   3.398   2.101
 5551TIP3    H216611   7.709   3.427   2.028
 5552TIP3   OH216612   7.175   7.540   6.586
 5552TIP3    H116613   7.204   7.487   6.660
 5552TIP3    H216614   7.235   7.614   6.583
 5553TIP3   OH216615   1.459   7.672   3.767
 5553TIP3    H116616   1.466   7.599   3.829
 5553TIP3    H216617   1.492   7.748   3.815
 5554TIP3   OH216618   2.734   2.515   3.795
 5554TIP3    H116619   2.691   2.575   3.733
 5554TIP3    H216620   2.706   2.546   3.881
 5555TIP3   OH216621   1.347   5.001   3.536
 5555TIP3    H116622   1.418   5.042   3.487
 5555TIP3    H216623   1.302   5.074   3.580
 5556TIP3   OH216624   5.169   2.596   0.432
 5556TIP3    H116625   5.199   2.670   0.379
 5556TIP3    H216626   5.229   2.525   0.410
 5557TIP3   OH216627   0.509   5.052   0.623
 5557TIP3    H116628   0.507   4.985   0.691
 5557TIP3    H216629   0.433   5.032   0.568
 5558TIP3   OH216630   5.470   1.846   4.075
 5558TIP3    H116631   5.560   1.822   4.054
 5558TIP3    H216632   5.443   1.781   4.140
 5559TIP3   OH216633   6.141   3.868   6.286
 5559TIP3    H116634   6.203   3.874   6.213
 5559TIP3    H216635   6.196   3.853   6.363
 5560TIP3   OH216636   5.472   3.532   5.318
 5560TIP3    H116637   5.525   3.531   5.397
 5560TIP3    H216638   5.453   3.440   5.301
 5561TIP3   OH216639   5.339   0.781   1.169
 5561TIP3    H116640   5.434   0.784   1.155
 5561TIP3    H216641   5.313   0.695   1.134
 5562TIP3   OH216642   0.508   2.803   2.768
 5562TIP3    H116643   0.520   2.848   2.851
 5562TIP3    H216644   0.564   2.850   2.706
 5563TIP3   OH216645   7.049   0.430   4.035
 5563TIP3    H116646   6.963   0.393   4.018
 5563TIP3    H216647   7.111   0.367   3.997
 5564TIP3   OH216648   3.316   6.658   0.040
 5564TIP3    H116649   3.336   6.681   0.130
 5564TIP3    H216650   3.246   6.718   0.014
 5565TIP3   OH216651   1.360   4.634   4.037
 5565TIP3    H116652   1.296   4.704   4.041
 5565TIP3    H216653   1.308   4.553   4.041
 5566TIP3   OH216654   1.782   6.564   3.397
 5566TIP3    H116655   1.696   6.596   3.371
 5566TIP3    H216656   1.765   6.483   3.445
 5567TIP3   OH216657   7.541   6.145   0.648
 5567TIP3    H116658   7.466   6.105   0.604
 5567TIP3    H216659   7.504   6.216   0.700
 5568TIP3   OH216660   0.380   1.653   4.160
 5568TIP3    H116661   0.359   1.734   4.206
 5568TIP3    H216662   0.464   1.626   4.195
 5569TIP3   OH216663   1.238   0.544   3.465
 5569TIP3    H116664   1.187   0.492   3.403
 5569TIP3    H216665   1.304   0.484   3.499
 5570TIP3   OH216666   1.558   7.272   5.228
 5570TIP3    H116667   1.507   7.200   5.266
 5570TIP3    H216668   1.615   7.230   5.164
 5571TIP3   OH216669   6.329   5.722   5.924
 5571TIP3    H116670   6.364   5.811   5.923
 5571TIP3    H216671   6.321   5.701   6.018
 5572TIP3   OH216672   0.803   3.089   5.450
 5572TIP3    H116673   0.876   3.140   5.414
 5572TIP3    H216674   0.738   3.087   5.381
 5573TIP3   OH216675   3.401   0.429   6.744
 5573TIP3    H116676   3.402   0.384   6.659
 5573TIP3    H216677   3.493   0.439   6.767
 5574TIP3   OH216678   4.906   3.780   3.344
 5574TIP3    H116679   4.909   3.876   3.344
 5574TIP3    H216680   4.966   3.754   3.414
 5575TIP3   OH216681   3.176   6.169   5.710
 5575TIP3    H116682   3.167   6.253   5.666
 5575TIP3    H216683   3.086   6.138   5.722
 5576TIP3   OH216684   1.699   3.182   0.298
 5576TIP3    H116685   1.752   3.102   0.307
 5576TIP3    H216686   1.667   3.180   0.208
 5577TIP3   OH216687   2.836   6.841   1.430
 5577TIP3    H116688   2.772   6.773   1.407
 5577TIP3    H216689   2.812   6.916   1.375
 5578TIP3   OH216690   7.466   2.817   1.637
 5578TIP3    H116691   7.454   2.760   1.561
 5578TIP3    H216692   7.511   2.894   1.604
 5579TIP3   OH216693   3.310   2.843   4.288
 5579TIP3    H116694   3.258   2.771   4.324
 5579TIP3    H216695   3.399   2.808   4.282
 5580TIP3   OH216696   2.206   3.508   5.529
 5580TIP3    H116697   2.196   3.448   5.456
 5580TIP3    H216698   2.287   3.555   5.511
 5581TIP3   OH216699   0.354   7.421   0.590
 5581TIP3    H116700   0.284   7.356   0.603
 5581TIP3    H216701   0.355   7.435   0.495
 5582TIP3   OH216702   7.287   1.982   0.264
 5582TIP3    H116703   7.262   1.894   0.233
 5582TIP3    H216704   7.228   1.999   0.337
 5583TIP3   OH216705   6.953   0.346   6.082
 5583TIP3    H116706   6.931   0.288   6.010
 5583TIP3    H216707   6.985   0.426   6.040
 5584TIP3   OH216708   5.237   1.042   4.805
 5584TIP3    H116709   5.304   1.038   4.873
 5584TIP3    H216710   5.157   1.012   4.848
 5585TIP3   OH216711   4.029   1.306   1.511
 5585TIP3    H116712   4.102   1.244   1.516
 5585TIP3    H216713   4.019   1.323   1.417
 5586TIP3   OH216714   0.776   7.584   1.094
 5586TIP3    H116715   0.854   7.627   1.061
 5586TIP3    H216716   0.809   7.510   1.145
 5587TIP3   OH216717   3.316   1.911   4.247
 5587TIP3    H116718   3.392   1.853   4.238
 5587TIP3    H216719   3.262   1.869   4.313
 5588TIP3   OH216720   7.527   0.708   3.571
 5588TIP3    H116721   7.527   0.763   3.492
 5588TIP3    H216722   7.617   0.676   3.578
 5589TIP3   OH216723   3.501   1.021   4.577
 5589TIP3    H116724   3.443   0.951   4.546
 5589TIP3    H216725   3.588   0.982   4.574
 5590TIP3   OH216726   5.375   5.701   0.163
 5590TIP3    H116727   5.376   5.747   0.079
 5590TIP3    H216728   5.455   5.648   0.163
 5591TIP3   OH216729   0.296   7.691   6.268
 5591TIP3    H116730   0.263   7.660   6.184
 5591TIP3    H216731   0.316   7.611   6.317
 5592TIP3   OH216732   1.861   5.828   2.159
 5592TIP3    H116733   1.900   5.908   2.195
 5592TIP3    H216734   1.771   5.853   2.137
 5593TIP3   OH216735   2.441   5.472   6.461
 5593TIP3    H116736   2.464   5.383   6.487
 5593TIP3    H216737   2.489   5.528   6.523
 5594TIP3   OH216738   6.665   1.481   5.767
 5594TIP3    H116739   6.743   1.429   5.786
 5594TIP3    H216740   6.627   1.500   5.852
 5595TIP3   OH216741   0.583   1.785   0.028
 5595TIP3    H116742   0.533   1.834  -0.037
 5595TIP3    H216743   0.518   1.726   0.068
 5596TIP3   OH216744   0.452   5.990   5.555
 5596TIP3    H116745   0.471   6.043   5.477
 5596TIP3    H216746   0.470   6.049   5.628
 5597TIP3   OH216747   1.923   6.446   3.967
 5597TIP3    H116748   1.911   6.458   3.873
 5597TIP3    H216749   2.006   6.490   3.987
 5598TIP3   OH216750   2.118   5.134   6.342
 5598TIP3    H116751   2.180   5.105   6.276
 5598TIP3    H216752   2.100   5.055   6.394
 5599TIP3   OH216753   2.031   5.929   3.564
 5599TIP3    H116754   2.024   6.009   3.512
 5599TIP3    H216755   2.074   5.956   3.645
 5600TIP3   OH216756   2.219   5.865   1.532
 5600TIP3    H116757   2.172   5.903   1.458
 5600TIP3    H216758   2.173   5.784   1.552
 5601TIP3   OH216759   8.269   6.856   1.014
 5601TIP3    H116760   8.232   6.852   1.102
 5601TIP3    H216761   8.204   6.903   0.962
 5602TIP3   OH216762   3.134   0.457   0.672
 5602TIP3    H116763   3.229   0.468   0.665
 5602TIP3    H216764   3.100   0.483   0.587
 5603TIP3   OH216765   5.313   1.488   1.154
 5603TIP3    H116766   5.304   1.487   1.059
 5603TIP3    H216767   5.358   1.570   1.174
 5604TIP3   OH216768   1.440   6.949   6.418
 5604TIP3    H116769   1.356   6.960   6.373
 5604TIP3    H216770   1.442   7.020   6.482
 5605TIP3   OH216771   1.018   6.230   3.385
 5605TIP3    H116772   0.962   6.225   3.308
 5605TIP3    H216773   0.980   6.167   3.446
 5606TIP3   OH216774   5.497   4.028   5.315
 5606TIP3    H116775   5.550   4.101   5.283
 5606TIP3    H216776   5.496   3.966   5.242
 5607TIP3   OH216777   4.041   4.487   5.717
 5607TIP3    H116778   4.047   4.399   5.753
 5607TIP3    H216779   4.071   4.479   5.626
 5608TIP3   OH216780   3.057   0.409   4.811
 5608TIP3    H116781   2.979   0.356   4.795
 5608TIP3    H216782   3.129   0.358   4.773
 5609TIP3   OH216783   6.849   3.702   4.348
 5609TIP3    H116784   6.895   3.756   4.284
 5609TIP3    H216785   6.844   3.616   4.308
 5610TIP3   OH216786   5.002   6.197   1.553
 5610TIP3    H116787   4.951   6.275   1.534
 5610TIP3    H216788   4.937   6.129   1.572
 5611TIP3   OH216789   2.942   6.749   2.564
 5611TIP3    H116790   2.909   6.753   2.474
 5611TIP3    H216791   2.940   6.839   2.594
 5612TIP3   OH216792   2.737   6.590   4.163
 5612TIP3    H116793   2.763   6.526   4.229
 5612TIP3    H216794   2.801   6.661   4.172
 5613TIP3   OH216795   1.145   7.397   1.083
 5613TIP3    H116796   1.210   7.380   1.152
 5613TIP3    H216797   1.061   7.387   1.127
 5614TIP3   OH216798   3.287   7.224   3.053
 5614TIP3    H116799   3.223   7.216   3.124
 5614TIP3    H216800   3.344   7.296   3.079
 5615TIP3   OH216801   8.240   2.471   4.780
 5615TIP3    H116802   8.237   2.387   4.735
 5615TIP3    H216803   8.154   2.480   4.820
 5616TIP3   OH216804   0.182   7.106   3.961
 5616TIP3    H116805   0.273   7.120   3.986
 5616TIP3    H216806   0.140   7.191   3.975
 5617TIP3   OH216807   3.163   4.878   4.913
 5617TIP3    H116808   3.078   4.843   4.887
 5617TIP3    H216809   3.217   4.871   4.834
 5618TIP3   OH216810   6.505   2.142   3.874
 5618TIP3    H116811   6.500   2.186   3.959
 5618TIP3    H216812   6.521   2.212   3.811
 5619TIP3   OH216813   6.416   0.693   2.015
 5619TIP3    H116814   6.502   0.668   2.051
 5619TIP3    H216815   6.435   0.765   1.955
 5620TIP3   OH216816   4.825   1.254   3.951
 5620TIP3    H116817   4.861   1.270   4.039
 5620TIP3    H216818   4.808   1.159   3.950
 5621TIP3   OH216819   2.673   5.814   3.718
 5621TIP3    H116820   2.749   5.765   3.686
 5621TIP3    H216821   2.692   5.905   3.693
 5622TIP3   OH216822   0.418   5.449   5.051
 5622TIP3    H116823   0.501   5.482   5.086
 5622TIP3    H216824   0.422   5.355   5.066
 5623TIP3   OH216825   7.907   1.004   0.168
 5623TIP3    H116826   7.862   1.055   0.101
 5623TIP3    H216827   7.889   0.913   0.146
 5624TIP3   OH216828   6.431   4.080   5.027
 5624TIP3    H116829   6.407   4.171   5.009
 5624TIP3    H216830   6.435   4.039   4.941
 5625TIP3   OH216831   5.857   1.766   1.069
 5625TIP3    H116832   5.786   1.702   1.061
 5625TIP3    H216833   5.820   1.848   1.036
 5626TIP3   OH216834   8.074   4.230   3.986
 5626TIP3    H116835   8.065   4.292   3.914
 5626TIP3    H216836   8.161   4.193   3.975
 5627TIP3   OH216837   7.681   2.638   3.252
 5627TIP3    H116838   7.772   2.654   3.277
 5627TIP3    H216839   7.631   2.705   3.301
 5628TIP3   OH216840   7.643   6.089   6.400
 5628TIP3    H116841   7.600   6.095   6.315
 5628TIP3    H216842   7.581   6.041   6.455
 5629TIP3   OH216843   4.236   7.266   2.805
 5629TIP3    H116844   4.236   7.192   2.745
 5629TIP3    H216845   4.316   7.256   2.856
 5630TIP3   OH216846   3.490   3.654   5.916
 5630TIP3    H116847   3.422   3.661   5.982
 5630TIP3    H216848   3.520   3.564   5.921
 5631TIP3   OH216849   5.383   3.280   6.456
 5631TIP3    H116850   5.350   3.200   6.498
 5631TIP3    H216851   5.388   3.258   6.363
 5632TIP3   OH216852   3.344   3.044   3.772
 5632TIP3    H116853   3.337   3.027   3.866
 5632TIP3    H216854   3.325   2.960   3.730
 5633TIP3   OH216855   1.481   6.350   3.547
 5633TIP3    H116856   1.459   6.263   3.579
 5633TIP3    H216857   1.560   6.337   3.495
 5634TIP3   OH216858   0.662   4.141   4.501
 5634TIP3    H116859   0.613   4.064   4.472
 5634TIP3    H216860   0.708   4.172   4.422
 5635TIP3   OH216861   5.040   2.931   6.679
 5635TIP3    H116862   5.128   2.941   6.714
 5635TIP3    H216863   5.047   2.962   6.588
 5636TIP3   OH216864   1.940   7.458   3.493
 5636TIP3    H116865   1.905   7.417   3.573
 5636TIP3    H216866   2.027   7.421   3.484
 5637TIP3   OH216867   4.974   3.327   3.954
 5637TIP3    H116868   4.972   3.266   4.028
 5637TIP3    H216869   5.066   3.334   3.931
 5638TIP3   OH216870   7.376   2.710   6.259
 5638TIP3    H116871   7.469   2.733   6.257
 5638TIP3    H216872   7.333   2.787   6.296
 5639TIP3   OH216873   1.686   1.098   0.722
 5639TIP3    H116874   1.694   1.003   0.707
 5639TIP3    H216875   1.599   1.109   0.760
 5640TIP3   OH216876   0.366   1.895   3.439
 5640TIP3    H116877   0.407   1.964   3.491
 5640TIP3    H216878   0.308   1.850   3.500
 5641TIP3   OH216879   7.386   3.799   3.108
 5641TIP3    H116880   7.377   3.868   3.043
 5641TIP3    H216881   7.454   3.830   3.167
 5642TIP3   OH216882   0.647   2.294   2.414
 5642TIP3    H116883   0.555   2.303   2.392
 5642TIP3    H216884   0.651   2.217   2.470
 5643TIP3   OH216885   2.950   2.361   5.061
 5643TIP3    H116886   3.008   2.288   5.080
 5643TIP3    H216887   3.000   2.439   5.085
 5644TIP3   OH216888   4.882   2.607   4.849
 5644TIP3    H116889   4.805   2.663   4.859
 5644TIP3    H216890   4.899   2.573   4.937
 5645TIP3   OH216891   3.108   4.435   1.815
 5645TIP3    H116892   3.050   4.502   1.851
 5645TIP3    H216893   3.119   4.372   1.887
 5646TIP3   OH216894   3.253   0.412   3.853
 5646TIP3    H116895   3.309   0.469   3.905
 5646TIP3    H216896   3.293   0.412   3.766
 5647TIP3   OH216897   0.956   1.792   4.791
 5647TIP3    H116898   0.887   1.727   4.800
 5647TIP3    H216899   1.035   1.741   4.773
 5648TIP3   OH216900   2.756   6.155   5.577
 5648TIP3    H116901   2.768   6.190   5.489
 5648TIP3    H216902   2.661   6.149   5.587
 5649TIP3   OH216903   1.852   4.377   1.342
 5649TIP3    H116904   1.808   4.449   1.297
 5649TIP3    H216905   1.802   4.364   1.423
 5650TIP3   OH216906   0.862   7.222   2.329
 5650TIP3    H116907   0.943   7.261   2.362
 5650TIP3    H216908   0.890   7.143   2.283
 5651TIP3   OH216909   2.800   2.564   1.012
 5651TIP3    H116910   2.853   2.584   0.936
 5651TIP3    H216911   2.821   2.633   1.075
 5652TIP3   OH216912   1.118   2.034   4.807
 5652TIP3    H116913   1.054   1.980   4.761
 5652TIP3    H216914   1.195   1.977   4.816
 5653TIP3   OH216915   0.930   1.231   4.470
 5653TIP3    H116916   0.939   1.230   4.565
 5653TIP3    H216917   0.836   1.239   4.454
 5654TIP3   OH216918   4.310   3.434   2.046
 5654TIP3    H116919   4.317   3.485   1.965
 5654TIP3    H216920   4.342   3.493   2.115
 5655TIP3   OH216921   3.761   7.110   1.490
 5655TIP3    H116922   3.735   7.080   1.577
 5655TIP3    H216923   3.783   7.202   1.502
 5656TIP3   OH216924   4.893   1.459   4.278
 5656TIP3    H116925   4.951   1.492   4.210
 5656TIP3    H216926   4.846   1.536   4.310
 5657TIP3   OH216927   0.084   4.303   5.247
 5657TIP3    H116928   0.125   4.302   5.160
 5657TIP3    H216929   0.010   4.363   5.238
 5658TIP3   OH216930   3.359   4.989   0.971
 5658TIP3    H116931   3.272   5.023   0.949
 5658TIP3    H216932   3.382   5.034   1.052
 5659TIP3   OH216933   7.014   2.551   3.430
 5659TIP3    H116934   6.975   2.481   3.483
 5659TIP3    H216935   7.104   2.523   3.414
 5660TIP3   OH216936   8.277   5.304   1.221
 5660TIP3    H116937   8.323   5.223   1.242
 5660TIP3    H216938   8.245   5.291   1.132
 5661TIP3   OH216939   0.409   3.228   3.030
 5661TIP3    H116940   0.459   3.270   3.100
 5661TIP3    H216941   0.336   3.287   3.013
 5662TIP3   OH216942   2.495   0.976   3.071
 5662TIP3    H116943   2.408   0.950   3.040
 5662TIP3    H216944   2.534   0.894   3.102
 5663TIP3   OH216945   4.419   0.797   0.835
 5663TIP3    H116946   4.356   0.726   0.848
 5663TIP3    H216947   4.504   0.755   0.839
 5664TIP3   OH216948   2.088   0.632   5.780
 5664TIP3    H116949   2.012   0.621   5.724
 5664TIP3    H216950   2.154   0.673   5.724
 5665TIP3   OH216951   5.279   1.758   0.296
 5665TIP3    H116952   5.318   1.781   0.381
 5665TIP3    H216953   5.197   1.808   0.295
 5666TIP3   OH216954   5.135   6.877   1.918
 5666TIP3    H116955   5.070   6.900   1.851
 5666TIP3    H216956   5.129   6.782   1.926
 5667TIP3   OH216957   1.464   2.129   3.810
 5667TIP3    H116958   1.479   2.198   3.874
 5667TIP3    H216959   1.467   2.174   3.725
 5668TIP3   OH216960   4.021   2.549   0.446
 5668TIP3    H116961   4.019   2.534   0.540
 5668TIP3    H216962   4.113   2.542   0.421
 5669TIP3   OH216963   7.079   0.987   3.296
 5669TIP3    H116964   7.033   0.983   3.212
 5669TIP3    H216965   7.124   0.903   3.303
 5670TIP3   OH216966   6.239   5.664   4.266
 5670TIP3    H116967   6.258   5.572   4.284
 5670TIP3    H216968   6.244   5.707   4.351
 5671TIP3   OH216969   0.714   5.062   3.688
 5671TIP3    H116970   0.723   5.044   3.782
 5671TIP3    H216971   0.667   4.987   3.654
 5672TIP3   OH216972   6.228   4.563   5.948
 5672TIP3    H116973   6.234   4.571   6.043
 5672TIP3    H216974   6.289   4.629   5.915
 5673TIP3   OH216975   1.355   3.661   4.201
 5673TIP3    H116976   1.426   3.720   4.178
 5673TIP3    H216977   1.390   3.609   4.274
 5674TIP3   OH216978   6.337   1.806   4.046
 5674TIP3    H116979   6.402   1.854   4.098
 5674TIP3    H216980   6.296   1.872   3.991
 5675TIP3   OH216981   4.709   0.417   6.280
 5675TIP3    H116982   4.798   0.391   6.305
 5675TIP3    H216983   4.711   0.513   6.281
 5676TIP3   OH216984   2.892   6.755   5.121
 5676TIP3    H116985   2.894   6.850   5.130
 5676TIP3    H216986   2.909   6.739   5.028
 5677TIP3   OH216987   4.570   7.251   3.943
 5677TIP3    H116988   4.522   7.323   3.903
 5677TIP3    H216989   4.564   7.267   4.037
 5678TIP3   OH216990   1.625   2.549   3.255
 5678TIP3    H116991   1.668   2.591   3.180
 5678TIP3    H216992   1.585   2.622   3.303
 5679TIP3   OH216993   5.824   1.903   1.699
 5679TIP3    H116994   5.912   1.876   1.725
 5679TIP3    H216995   5.830   1.998   1.689
 5680TIP3   OH216996   5.875   3.021   5.182
 5680TIP3    H116997   5.866   2.999   5.089
 5680TIP3    H216998   5.787   3.049   5.208
 5681TIP3   OH216999   0.371   7.499   0.300
 5681TIP3    H117000   0.277   7.485   0.289
 5681TIP3    H217001   0.385   7.591   0.275
 5682TIP3   OH217002   1.588   6.613   6.628
 5682TIP3    H117003   1.588   6.644   6.537
 5682TIP3    H217004   1.513   6.656   6.668
 5683TIP3   OH217005   6.737   5.667   5.202
 5683TIP3    H117006   6.668   5.732   5.217
 5683TIP3    H217007   6.739   5.655   5.107
 5684TIP3   OH217008   6.009   0.160   2.958
 5684TIP3    H117009   6.034   0.156   3.050
 5684TIP3    H217010   6.086   0.195   2.913
 5685TIP3   OH217011   2.634   5.775   0.396
 5685TIP3    H117012   2.578   5.731   0.460
 5685TIP3    H217013   2.674   5.704   0.346
 5686TIP3   OH217014   7.757   0.859   1.848
 5686TIP3    H117015   7.810   0.928   1.887
 5686TIP3    H217016   7.761   0.876   1.754
 5687TIP3   OH217017   0.286   0.442   2.994
 5687TIP3    H117018   0.349   0.491   3.048
 5687TIP3    H217019   0.254   0.373   3.051
 5688TIP3   OH217020   6.476   7.004   1.575
 5688TIP3    H117021   6.552   6.967   1.620
 5688TIP3    H217022   6.498   6.999   1.482
 5689TIP3   OH217023   4.150   1.952   6.066
 5689TIP3    H117024   4.210   2.025   6.081
 5689TIP3    H217025   4.063   1.989   6.080
 5690TIP3   OH217026   6.318   6.820   5.471
 5690TIP3    H117027   6.288   6.731   5.454
 5690TIP3    H217028   6.408   6.808   5.504
 5691TIP3   OH217029   1.287   4.571   3.599
 5691TIP3    H117030   1.326   4.488   3.626
 5691TIP3    H217031   1.348   4.605   3.533
 5692TIP3   OH217032   0.179   1.139   1.439
 5692TIP3    H117033   0.164   1.046   1.456
 5692TIP3    H217034   0.126   1.158   1.361
 5693TIP3   OH217035   5.815   0.377   4.472
 5693TIP3    H117036   5.765   0.442   4.522
 5693TIP3    H217037   5.868   0.429   4.412
 5694TIP3   OH217038   2.181   1.319   2.707
 5694TIP3    H117039   2.263   1.343   2.751
 5694TIP3    H217040   2.206   1.304   2.616
 5695TIP3   OH217041   5.596   3.370   3.077
 5695TIP3    H117042   5.667   3.313   3.103
 5695TIP3    H217043   5.539   3.375   3.155
 5696TIP3   OH217044   3.274   5.491   6.450
 5696TIP3    H117045   3.245   5.448   6.370
 5696TIP3    H217046   3.216   5.456   6.518
 5697TIP3   OH217047   7.573   3.195   5.294
 5697TIP3    H117048   7.486   3.159   5.280
 5697TIP3    H217049   7.575   3.219   5.387
 5698TIP3   OH217050   0.999  -0.036   1.567
 5698TIP3    H117051   0.918   0.015   1.558
 5698TIP3    H217052   1.066   0.029   1.586
 5699TIP3   OH217053   7.194   0.063   2.605
 5699TIP3    H117054   7.112   0.063   2.555
 5699TIP3    H217055   7.255   0.016   2.549
 5700TIP3   OH217056   2.152   3.564   2.585
 5700TIP3    H117057   2.101   3.528   2.512
 5700TIP3    H217058   2.226   3.608   2.544
 5701TIP3   OH217059   3.279   4.852   4.406
 5701TIP3    H117060   3.353   4.806   4.367
 5701TIP3    H217061   3.308   4.943   4.412
 5702TIP3   OH217062   5.253   7.481   1.067
 5702TIP3    H117063   5.166   7.452   1.093
 5702TIP3    H217064   5.238   7.534   0.989
 5703TIP3   OH217065   0.512   6.847   5.823
 5703TIP3    H117066   0.537   6.814   5.737
 5703TIP3    H217067   0.454   6.921   5.805
 5704TIP3   OH217068   2.452   1.202   2.489
 5704TIP3    H117069   2.465   1.128   2.549
 5704TIP3    H217070   2.539   1.239   2.477
 5705TIP3   OH217071   2.693   1.110   1.552
 5705TIP3    H117072   2.611   1.065   1.532
 5705TIP3    H217073   2.757   1.073   1.491
 5706TIP3   OH217074   2.676   5.161   1.111
 5706TIP3    H117075   2.709   5.127   1.028
 5706TIP3    H217076   2.622   5.091   1.147
 5707TIP3   OH217077   4.163   0.786   0.029
 5707TIP3    H117078   4.137   0.836   0.106
 5707TIP3    H217079   4.120   0.701   0.040
 5708TIP3   OH217080   2.111   0.580   2.128
 5708TIP3    H117081   2.178   0.541   2.072
 5708TIP3    H217082   2.028   0.550   2.090
 5709TIP3   OH217083   7.043   5.830   2.401
 5709TIP3    H117084   7.051   5.813   2.307
 5709TIP3    H217085   6.949   5.831   2.417
 5710TIP3   OH217086   8.113   6.622   2.672
 5710TIP3    H117087   8.155   6.617   2.586
 5710TIP3    H217088   8.082   6.533   2.688
 5711TIP3   OH217089   4.543   2.670   2.530
 5711TIP3    H117090   4.617   2.610   2.535
 5711TIP3    H217091   4.466   2.616   2.546
 5712TIP3   OH217092   7.696   1.822   6.564
 5712TIP3    H117093   7.696   1.909   6.604
 5712TIP3    H217094   7.727   1.763   6.633
 5713TIP3   OH217095   1.427   3.889   6.363
 5713TIP3    H117096   1.418   3.885   6.458
 5713TIP3    H217097   1.391   3.805   6.332
 5714TIP3   OH217098   2.375   6.498   3.246
 5714TIP3    H117099   2.385   6.593   3.236
 5714TIP3    H217100   2.454   6.461   3.209
 5715TIP3   OH217101   2.065   4.732   0.150
 5715TIP3    H117102   1.980   4.690   0.160
 5715TIP3    H217103   2.045   4.822   0.126
 5716TIP3   OH217104   4.384   7.612   0.069
 5716TIP3    H117105   4.441   7.679   0.031
 5716TIP3    H217106   4.437   7.573   0.139
 5717TIP3   OH217107   5.011   0.900   0.339
 5717TIP3    H117108   5.084   0.961   0.352
 5717TIP3    H217109   4.936   0.956   0.319
 5718TIP3   OH217110   1.452   6.920   2.527
 5718TIP3    H117111   1.446   7.005   2.484
 5718TIP3    H217112   1.388   6.866   2.481
 5719TIP3   OH217113   4.936   4.085   0.977
 5719TIP3    H117114   4.853   4.065   1.022
 5719TIP3    H217115   4.913   4.086   0.884
 5720TIP3   OH217116   0.825   2.370   2.243
 5720TIP3    H117117   0.766   2.356   2.169
 5720TIP3    H217118   0.783   2.325   2.316
 5721TIP3   OH217119   1.060   2.799   3.853
 5721TIP3    H117120   1.098   2.886   3.848
 5721TIP3    H217121   0.981   2.804   3.798
 5722TIP3   OH217122   3.426   5.398   0.982
 5722TIP3    H117123   3.334   5.386   0.960
 5722TIP3    H217124   3.458   5.464   0.921
 5723TIP3   OH217125   8.077   4.381   0.584
 5723TIP3    H117126   7.996   4.425   0.557
 5723TIP3    H217127   8.133   4.383   0.506
 5724TIP3   OH217128   0.330   6.297   3.297
 5724TIP3    H117129   0.279   6.222   3.267
 5724TIP3    H217130   0.318   6.363   3.230
 5725TIP3   OH217131   6.919   1.508   0.410
 5725TIP3    H117132   6.935   1.600   0.432
 5725TIP3    H217133   7.006   1.468   0.407
 5726TIP3   OH217134   1.175   4.429   0.173
 5726TIP3    H117135   1.178   4.382   0.256
 5726TIP3    H217136   1.255   4.481   0.171
 5727TIP3   OH217137   3.753   7.676   4.777
 5727TIP3    H117138   3.745   7.754   4.721
 5727TIP3    H217139   3.841   7.643   4.759
 5728TIP3   OH217140   1.139   6.513   6.045
 5728TIP3    H117141   1.087   6.533   5.967
 5728TIP3    H217142   1.188   6.435   6.022
 5729TIP3   OH217143   2.444   4.908   4.719
 5729TIP3    H117144   2.524   4.885   4.767
 5729TIP3    H217145   2.476   4.957   4.643
 5730TIP3   OH217146   7.400   3.348   4.669
 5730TIP3    H117147   7.453   3.425   4.689
 5730TIP3    H217148   7.310   3.377   4.684
 5731TIP3   OH217149   2.571   5.574   1.818
 5731TIP3    H117150   2.554   5.524   1.738
 5731TIP3    H217151   2.509   5.539   1.882
 5732TIP3   OH217152   5.545   2.926   2.448
 5732TIP3    H117153   5.549   2.938   2.543
 5732TIP3    H217154   5.452   2.932   2.427
 5733TIP3   OH217155   5.231   5.079   0.379
 5733TIP3    H117156   5.169   5.149   0.358
 5733TIP3    H217157   5.301   5.089   0.314
 5734TIP3   OH217158   5.702   0.067   3.433
 5734TIP3    H117159   5.749  -0.016   3.438
 5734TIP3    H217160   5.715   0.096   3.342
 5735TIP3   OH217161   1.862   3.789   5.426
 5735TIP3    H117162   1.882   3.696   5.426
 5735TIP3    H217163   1.783   3.797   5.480
 5736TIP3   OH217164   2.871   2.701   5.521
 5736TIP3    H117165   2.806   2.770   5.506
 5736TIP3    H217166   2.936   2.714   5.451
 5737TIP3   OH217167   1.495   7.130   4.663
 5737TIP3    H117168   1.526   7.046   4.696
 5737TIP3    H217169   1.542   7.143   4.580
 5738TIP3   OH217170   1.438   2.073   2.328
 5738TIP3    H117171   1.353   2.112   2.350
 5738TIP3    H217172   1.416   1.984   2.301
 5739TIP3   OH217173   0.842   5.584   3.380
 5739TIP3    H117174   0.842   5.671   3.419
 5739TIP3    H217175   0.934   5.566   3.361
 5740TIP3   OH217176   5.900   0.654   0.755
 5740TIP3    H117177   5.937   0.566   0.757
 5740TIP3    H217178   5.954   0.705   0.815
 5741TIP3   OH217179   3.934   5.561   6.710
 5741TIP3    H117180   3.994   5.489   6.688
 5741TIP3    H217181   3.950   5.579   6.802
 5742TIP3   OH217182   5.830   4.507   4.757
 5742TIP3    H117183   5.821   4.569   4.830
 5742TIP3    H217184   5.768   4.538   4.692
 5743TIP3   OH217185   0.073   4.272   5.934
 5743TIP3    H117186   0.078   4.222   5.852
 5743TIP3    H217187   0.129   4.224   5.995
 5744TIP3   OH217188   1.834   0.627   5.669
 5744TIP3    H117189   1.743   0.646   5.646
 5744TIP3    H217190   1.828   0.557   5.734
 5745TIP3   OH217191   1.099   0.974   3.892
 5745TIP3    H117192   1.036   0.935   3.953
 5745TIP3    H217193   1.049   0.988   3.812
 5746TIP3   OH217194   3.877   2.392   6.348
 5746TIP3    H117195   3.927   2.350   6.279
 5746TIP3    H217196   3.930   2.467   6.375
 5747TIP3   OH217197   8.162   4.456   1.134
 5747TIP3    H117198   8.161   4.361   1.122
 5747TIP3    H217199   8.253   4.480   1.121
 5748TIP3   OH217200   2.977   7.836   1.197
 5748TIP3    H117201   3.053   7.804   1.245
 5748TIP3    H217202   2.908   7.772   1.217
 5749TIP3   OH217203   3.319   3.391   2.796
 5749TIP3    H117204   3.335   3.441   2.876
 5749TIP3    H217205   3.232   3.420   2.767
 5750TIP3   OH217206   6.583   4.705   4.953
 5750TIP3    H117207   6.502   4.756   4.961
 5750TIP3    H217208   6.626   4.716   5.037
 5751TIP3   OH217209   3.296   4.044   3.204
 5751TIP3    H117210   3.237   4.119   3.203
 5751TIP3    H217211   3.240   3.969   3.226
 5752TIP3   OH217212   4.399   3.214   0.141
 5752TIP3    H117213   4.333   3.145   0.148
 5752TIP3    H217214   4.474   3.171   0.101
 5753TIP3   OH217215   2.163   4.796   3.450
 5753TIP3    H117216   2.153   4.891   3.456
 5753TIP3    H217217   2.218   4.782   3.373
 5754TIP3   OH217218   4.274   6.715   2.380
 5754TIP3    H117219   4.281   6.785   2.315
 5754TIP3    H217220   4.364   6.689   2.397
 5755TIP3   OH217221   6.520   2.800   2.305
 5755TIP3    H117222   6.479   2.845   2.379
 5755TIP3    H217223   6.481   2.840   2.228
 5756TIP3   OH217224   1.014   5.104   1.378
 5756TIP3    H117225   0.943   5.157   1.415
 5756TIP3    H217226   1.094   5.152   1.401
 5757TIP3   OH217227   5.479   4.997   4.848
 5757TIP3    H117228   5.521   5.083   4.840
 5757TIP3    H217229   5.502   4.967   4.936
 5758TIP3   OH217230   6.877   4.817   0.455
 5758TIP3    H117231   6.966   4.802   0.425
 5758TIP3    H217232   6.864   4.912   0.447
 5759TIP3   OH217233   2.952   6.723   1.655
 5759TIP3    H117234   2.938   6.766   1.571
 5759TIP3    H217235   2.870   6.738   1.703
 5760TIP3   OH217236   0.017   5.251   0.308
 5760TIP3    H117237  -0.015   5.209   0.388
 5760TIP3    H217238   0.111   5.256   0.320
 5761TIP3   OH217239   2.317   6.465   0.334
 5761TIP3    H117240   2.323   6.370   0.345
 5761TIP3    H217241   2.225   6.482   0.319
 5762TIP3   OH217242   1.240   2.596   2.609
 5762TIP3    H117243   1.298   2.522   2.626
 5762TIP3    H217244   1.193   2.610   2.692
 5763TIP3   OH217245   1.488   1.403   0.358
 5763TIP3    H117246   1.520   1.387   0.269
 5763TIP3    H217247   1.540   1.345   0.413
 5764TIP3   OH217248   1.556   6.684   3.731
 5764TIP3    H117249   1.543   6.719   3.819
 5764TIP3    H217250   1.535   6.757   3.673
 5765TIP3   OH217251   6.372   0.507   2.838
 5765TIP3    H117252   6.457   0.470   2.864
 5765TIP3    H217253   6.389   0.551   2.755
 5766TIP3   OH217254   0.205   0.835   1.867
 5766TIP3    H117255   0.123   0.850   1.820
 5766TIP3    H217256   0.273   0.844   1.799
 5767TIP3   OH217257   4.148   3.972   2.556
 5767TIP3    H117258   4.093   3.894   2.549
 5767TIP3    H217259   4.217   3.948   2.617
 5768TIP3   OH217260   4.660   3.644   4.597
 5768TIP3    H117261   4.643   3.711   4.530
 5768TIP3    H217262   4.669   3.694   4.678
 5769TIP3   OH217263   6.704   3.323   3.003
 5769TIP3    H117264   6.775   3.267   2.970
 5769TIP3    H217265   6.659   3.353   2.924
 5770TIP3   OH217266   3.216   7.417   0.178
 5770TIP3    H117267   3.245   7.506   0.159
 5770TIP3    H217268   3.226   7.409   0.273
 5771TIP3   OH217269   6.372   7.743   4.081
 5771TIP3    H117270   6.425   7.812   4.040
 5771TIP3    H217271   6.309   7.790   4.136
 5772TIP3   OH217272   3.692   5.148   2.181
 5772TIP3    H117273   3.614   5.132   2.234
 5772TIP3    H217274   3.744   5.210   2.232
 5773TIP3   OH217275   4.036   4.700   1.995
 5773TIP3    H117276   3.995   4.777   1.957
 5773TIP3    H217277   4.106   4.678   1.935
 5774TIP3   OH217278   5.148   0.016   2.877
 5774TIP3    H117279   5.218   0.049   2.820
 5774TIP3    H217280   5.146   0.077   2.951
 5775TIP3   OH217281   8.035   5.480   5.725
 5775TIP3    H117282   8.122   5.473   5.685
 5775TIP3    H217283   7.992   5.398   5.703
 5776TIP3   OH217284   2.607   3.503   1.991
 5776TIP3    H117285   2.671   3.432   1.994
 5776TIP3    H217286   2.585   3.519   2.082
 5777TIP3   OH217287   7.787   3.308   4.622
 5777TIP3    H117288   7.867   3.333   4.668
 5777TIP3    H217289   7.803   3.218   4.593
 5778TIP3   OH217290   3.497   3.667   2.509
 5778TIP3    H117291   3.480   3.761   2.503
 5778TIP3    H217292   3.478   3.633   2.422
 5779TIP3   OH217293   4.441   6.788   5.085
 5779TIP3    H117294   4.531   6.820   5.082
 5779TIP3    H217295   4.400   6.835   5.157
 5780TIP3   OH217296   3.025   5.735   6.139
 5780TIP3    H117297   3.078   5.814   6.124
 5780TIP3    H217298   2.935   5.764   6.128
 5781TIP3   OH217299   0.969   3.038   6.143
 5781TIP3    H117300   0.972   3.021   6.049
 5781TIP3    H217301   0.981   3.132   6.151
 5782TIP3   OH217302   3.225   0.596   3.177
 5782TIP3    H117303   3.279   0.656   3.125
 5782TIP3    H217304   3.252   0.612   3.268
 5783TIP3   OH217305   7.434   5.879   1.236
 5783TIP3    H117306   7.480   5.841   1.311
 5783TIP3    H217307   7.350   5.834   1.234
 5784TIP3   OH217308   7.875   7.273   2.521
 5784TIP3    H117309   7.935   7.314   2.583
 5784TIP3    H217310   7.788   7.288   2.559
 5785TIP3   OH217311   3.013   6.605   6.286
 5785TIP3    H117312   2.956   6.673   6.319
 5785TIP3    H217313   2.989   6.527   6.336
 5786TIP3   OH217314   1.814   7.724   3.771
 5786TIP3    H117315   1.788   7.772   3.692
 5786TIP3    H217316   1.887   7.774   3.807
 5787TIP3   OH217317   8.036   4.193   6.670
 5787TIP3    H117318   8.018   4.127   6.737
 5787TIP3    H217319   8.001   4.154   6.589
 5788TIP3   OH217320   3.881   3.334   0.560
 5788TIP3    H117321   3.912   3.253   0.518
 5788TIP3    H217322   3.811   3.306   0.619
 5789TIP3   OH217323   4.397   5.791   3.650
 5789TIP3    H117324   4.363   5.719   3.598
 5789TIP3    H217325   4.348   5.868   3.620
 5790TIP3   OH217326   4.921   2.260   3.735
 5790TIP3    H117327   4.842   2.279   3.685
 5790TIP3    H217328   4.967   2.344   3.741
 5791TIP3   OH217329   0.909   4.234   4.265
 5791TIP3    H117330   0.894   4.329   4.260
 5791TIP3    H217331   0.883   4.201   4.179
 5792TIP3   OH217332   6.533   3.712   6.506
 5792TIP3    H117333   6.564   3.736   6.594
 5792TIP3    H217334   6.521   3.617   6.510
 5793TIP3   OH217335   7.654   0.239   4.029
 5793TIP3    H117336   7.749   0.232   4.034
 5793TIP3    H217337   7.624   0.151   4.007
 5794TIP3   OH217338   2.027   6.826   2.849
 5794TIP3    H117339   2.030   6.872   2.765
 5794TIP3    H217340   1.937   6.840   2.880
 5795TIP3   OH217341   2.457   5.197   6.500
 5795TIP3    H117342   2.438   5.103   6.501
 5795TIP3    H217343   2.478   5.215   6.408
 5796TIP3   OH217344   5.487   3.397   0.890
 5796TIP3    H117345   5.568   3.371   0.934
 5796TIP3    H217346   5.514   3.416   0.800
 5797TIP3   OH217347   7.610   1.619   5.456
 5797TIP3    H117348   7.602   1.542   5.512
 5797TIP3    H217349   7.703   1.641   5.459
 5798TIP3   OH217350   6.821   6.529   2.050
 5798TIP3    H117351   6.728   6.531   2.028
 5798TIP3    H217352   6.829   6.465   2.120
 5799TIP3   OH217353   2.959   0.579   3.265
 5799TIP3    H117354   2.948   0.635   3.342
 5799TIP3    H217355   3.039   0.611   3.224
 5800TIP3   OH217356   4.969   0.328   6.349
 5800TIP3    H117357   4.992   0.417   6.375
 5800TIP3    H217358   5.037   0.273   6.387
 5801TIP3   OH217359   2.125   3.379   5.269
 5801TIP3    H117360   2.187   3.447   5.245
 5801TIP3    H217361   2.179   3.305   5.296
 5802TIP3   OH217362   2.824   0.196   1.783
 5802TIP3    H117363   2.838   0.192   1.689
 5802TIP3    H217364   2.875   0.123   1.818
 5803TIP3   OH217365   0.002   0.846   5.603
 5803TIP3    H117366   0.001   0.905   5.528
 5803TIP3    H217367   0.009   0.759   5.564
 5804TIP3   OH217368   8.283   5.383   3.115
 5804TIP3    H117369   8.216   5.451   3.110
 5804TIP3    H217370   8.353   5.414   3.057
 5805TIP3   OH217371   7.918   5.843   5.376
 5805TIP3    H117372   7.854   5.774   5.359
 5805TIP3    H217373   8.002   5.796   5.385
 5806TIP3   OH217374   6.147   2.865   1.215
 5806TIP3    H117375   6.077   2.821   1.264
 5806TIP3    H217376   6.226   2.815   1.237
 5807TIP3   OH217377   7.166   6.879   3.781
 5807TIP3    H117378   7.244   6.887   3.836
 5807TIP3    H217379   7.100   6.932   3.824
 5808TIP3   OH217380   3.551   1.344   1.162
 5808TIP3    H117381   3.484   1.282   1.134
 5808TIP3    H217382   3.621   1.335   1.097
 5809TIP3   OH217383   5.045   6.733   6.724
 5809TIP3    H117384   4.990   6.788   6.668
 5809TIP3    H217385   5.130   6.732   6.680
 5810TIP3   OH217386   5.797   4.018   6.703
 5810TIP3    H117387   5.818   4.054   6.789
 5810TIP3    H217388   5.883   4.003   6.662
 5811TIP3   OH217389   0.319   3.691   4.906
 5811TIP3    H117390   0.335   3.785   4.897
 5811TIP3    H217391   0.307   3.677   5.000
 5812TIP3   OH217392   8.034   4.684   1.031
 5812TIP3    H117393   8.057   4.593   1.052
 5812TIP3    H217394   7.983   4.677   0.951
 5813TIP3   OH217395   6.465   0.087   3.509
 5813TIP3    H117396   6.461   0.003   3.463
 5813TIP3    H217397   6.381   0.129   3.490
 5814TIP3   OH217398   3.420   0.071   2.748
 5814TIP3    H117399   3.458   0.096   2.664
 5814TIP3    H217400   3.464  -0.011   2.771
 5815TIP3   OH217401   3.422   7.441   1.250
 5815TIP3    H117402   3.399   7.440   1.343
 5815TIP3    H217403   3.517   7.453   1.249
 5816TIP3   OH217404   8.273   7.725   0.555
 5816TIP3    H117405   8.352   7.778   0.557
 5816TIP3    H217406   8.202   7.787   0.572
 5817TIP3   OH217407   1.819   1.665   5.606
 5817TIP3    H117408   1.726   1.678   5.588
 5817TIP3    H217409   1.840   1.731   5.673
 5818TIP3   OH217410   3.913   2.101   6.405
 5818TIP3    H117411   3.915   2.124   6.498
 5818TIP3    H217412   3.943   2.180   6.360
 5819TIP3   OH217413   6.325   4.091   2.328
 5819TIP3    H117414   6.356   4.070   2.416
 5819TIP3    H217415   6.397   4.064   2.270
 5820TIP3   OH217416   2.213   3.954   6.042
 5820TIP3    H117417   2.298   3.950   6.085
 5820TIP3    H217418   2.231   3.934   5.950
 5821TIP3   OH217419   6.599   6.541   5.489
 5821TIP3    H117420   6.568   6.462   5.534
 5821TIP3    H217421   6.599   6.609   5.556
 5822TIP3   OH217422   4.316   7.350   2.133
 5822TIP3    H117423   4.228   7.371   2.101
 5822TIP3    H217424   4.354   7.435   2.156
 5823TIP3   OH217425   5.758   6.930   6.055
 5823TIP3    H117426   5.699   6.854   6.046
 5823TIP3    H217427   5.753   6.974   5.970
 5824TIP3   OH217428   7.240   1.089   6.379
 5824TIP3    H117429   7.147   1.073   6.393
 5824TIP3    H217430   7.268   1.019   6.320
 5825TIP3   OH217431   1.076   5.605   3.623
 5825TIP3    H117432   1.116   5.560   3.697
 5825TIP3    H217433   0.985   5.619   3.650
 5826TIP3   OH217434   1.336   0.547   6.740
 5826TIP3    H117435   1.328   0.460   6.780
 5826TIP3    H217436   1.426   0.574   6.758
 5827TIP3   OH217437   6.541   4.308   6.670
 5827TIP3    H117438   6.569   4.317   6.762
 5827TIP3    H217439   6.574   4.388   6.628
 5828TIP3   OH217440   2.860   5.258   2.614
 5828TIP3    H117441   2.849   5.308   2.695
 5828TIP3    H217442   2.782   5.280   2.562
 5829TIP3   OH217443   6.067   3.299   6.554
 5829TIP3    H117444   5.971   3.299   6.557
 5829TIP3    H217445   6.093   3.361   6.622
 5830TIP3   OH217446   0.496   3.724   2.487
 5830TIP3    H117447   0.502   3.629   2.494
 5830TIP3    H217448   0.429   3.749   2.550
 5831TIP3   OH217449   6.339   5.315   4.488
 5831TIP3    H117450   6.337   5.219   4.497
 5831TIP3    H217451   6.408   5.343   4.549
 5832TIP3   OH217452   6.404   6.287   1.482
 5832TIP3    H117453   6.434   6.375   1.456
 5832TIP3    H217454   6.484   6.233   1.478
 5833TIP3   OH217455   1.294   6.024   0.022
 5833TIP3    H117456   1.377   6.023   0.070
 5833TIP3    H217457   1.317   5.990  -0.065
 5834TIP3   OH217458   2.816   0.424   4.398
 5834TIP3    H117459   2.723   0.402   4.396
 5834TIP3    H217460   2.860   0.340   4.412
 5835TIP3   OH217461   3.570   2.376   0.539
 5835TIP3    H117462   3.533   2.299   0.496
 5835TIP3    H217463   3.645   2.343   0.588
 5836TIP3   OH217464   3.305   3.078   3.499
 5836TIP3    H117465   3.293   3.076   3.594
 5836TIP3    H217466   3.311   2.986   3.474
 5837TIP3   OH217467   1.797   7.097   0.959
 5837TIP3    H117468   1.866   7.134   1.015
 5837TIP3    H217469   1.804   7.145   0.877
 5838TIP3   OH217470   4.384   0.129   2.478
 5838TIP3    H117471   4.402   0.119   2.572
 5838TIP3    H217472   4.468   0.112   2.436
 5839TIP3   OH217473   8.043   2.889   1.215
 5839TIP3    H117474   8.103   2.940   1.269
 5839TIP3    H217475   8.099   2.847   1.149
 5840TIP3   OH217476   4.541   6.612   2.419
 5840TIP3    H117477   4.593   6.687   2.447
 5840TIP3    H217478   4.571   6.594   2.330
 5841TIP3   OH217479   8.119   5.948   1.457
 5841TIP3    H117480   8.145   5.915   1.371
 5841TIP3    H217481   8.101   5.869   1.508
 5842TIP3   OH217482   0.548   5.413   6.268
 5842TIP3    H117483   0.453   5.424   6.266
 5842TIP3    H217484   0.564   5.361   6.346
 5843TIP3   OH217485   0.985   6.492   4.925
 5843TIP3    H117486   0.998   6.486   5.020
 5843TIP3    H217487   1.074   6.495   4.889
 5844TIP3   OH217488   7.564   4.006   1.500
 5844TIP3    H117489   7.523   3.924   1.471
 5844TIP3    H217490   7.494   4.072   1.492
 5845TIP3   OH217491   0.151   5.549   3.347
 5845TIP3    H117492   0.074   5.602   3.369
 5845TIP3    H217493   0.150   5.477   3.411
 5846TIP3   OH217494   3.643   6.091   0.892
 5846TIP3    H117495   3.698   6.016   0.917
 5846TIP3    H217496   3.677   6.119   0.807
 5847TIP3   OH217497   0.175   6.189   0.977
 5847TIP3    H117498   0.171   6.248   0.902
 5847TIP3    H217499   0.084   6.177   1.003
 5848TIP3   OH217500   7.031   5.745   6.170
 5848TIP3    H117501   6.971   5.818   6.152
 5848TIP3    H217502   6.974   5.673   6.195
 5849TIP3   OH217503   7.923   3.170   0.847
 5849TIP3    H117504   7.840   3.153   0.892
 5849TIP3    H217505   7.942   3.089   0.800
 5850TIP3   OH217506   2.720   5.524   6.065
 5850TIP3    H117507   2.668   5.580   6.123
 5850TIP3    H217508   2.792   5.494   6.120
 5851TIP3   OH217509   4.355   4.360   4.315
 5851TIP3    H117510   4.383   4.392   4.400
 5851TIP3    H217511   4.380   4.267   4.314
 5852TIP3   OH217512   2.315   4.678   6.669
 5852TIP3    H117513   2.291   4.705   6.580
 5852TIP3    H217514   2.231   4.667   6.714
 5853TIP3   OH217515   3.153   0.484   2.951
 5853TIP3    H117516   3.070   0.526   2.926
 5853TIP3    H217517   3.177   0.525   3.034
 5854TIP3   OH217518   5.439   6.078   5.827
 5854TIP3    H117519   5.365   6.084   5.887
 5854TIP3    H217520   5.413   6.011   5.764
 5855TIP3   OH217521   6.703   0.729   3.899
 5855TIP3    H117522   6.608   0.733   3.886
 5855TIP3    H217523   6.730   0.649   3.853
 5856TIP3   OH217524   5.945   4.739   5.933
 5856TIP3    H117525   6.005   4.761   6.004
 5856TIP3    H217526   5.906   4.822   5.907
 5857TIP3   OH217527   7.656   7.234   1.995
 5857TIP3    H117528   7.658   7.139   2.001
 5857TIP3    H217529   7.631   7.252   1.904
 5858TIP3   OH217530   0.437   6.280   4.836
 5858TIP3    H117531   0.381   6.252   4.764
 5858TIP3    H217532   0.381   6.277   4.913
 5859TIP3   OH217533   6.990   1.830   3.166
 5859TIP3    H117534   7.079   1.864   3.177
 5859TIP3    H217535   6.981   1.765   3.236
 5860TIP3   OH217536   3.857   7.235   5.954
 5860TIP3    H117537   3.887   7.146   5.973
 5860TIP3    H217538   3.934   7.280   5.921
 5861TIP3   OH217539   4.976   4.546   6.207
 5861TIP3    H117540   5.025   4.558   6.125
 5861TIP3    H217541   4.919   4.471   6.190
 5862TIP3   OH217542   4.802   6.876   2.172
 5862TIP3    H117543   4.865   6.871   2.244
 5862TIP3    H217544   4.738   6.942   2.201
 5863TIP3   OH217545   6.323   7.351   1.602
 5863TIP3    H117546   6.418   7.341   1.608
 5863TIP3    H217547   6.295   7.366   1.693
 5864TIP3   OH217548   7.886   0.593   6.329
 5864TIP3    H117549   7.908   0.666   6.387
 5864TIP3    H217550   7.897   0.628   6.241
 5865TIP3   OH217551   8.201   1.090   6.315
 5865TIP3    H117552   8.280   1.139   6.335
 5865TIP3    H217553   8.221   1.000   6.338
 5866TIP3   OH217554   3.975   6.122   5.276
 5866TIP3    H117555   4.021   6.086   5.352
 5866TIP3    H217556   4.006   6.212   5.268
 5867TIP3   OH217557   7.424   6.053   6.551
 5867TIP3    H117558   7.346   6.031   6.602
 5867TIP3    H217559   7.420   6.148   6.540
 5868TIP3   OH217560   1.409   4.525   5.879
 5868TIP3    H117561   1.394   4.436   5.912
 5868TIP3    H217562   1.442   4.511   5.790
 5869TIP3   OH217563   1.957   1.835   1.086
 5869TIP3    H117564   1.908   1.766   1.042
 5869TIP3    H217565   1.893   1.876   1.143
 5870TIP3   OH217566   6.115   5.723   3.827
 5870TIP3    H117567   6.064   5.645   3.805
 5870TIP3    H217568   6.201   5.707   3.789
 5871TIP3   OH217569   8.025   6.450   3.028
 5871TIP3    H117570   8.054   6.528   2.981
 5871TIP3    H217571   8.105   6.414   3.066
 5872TIP3   OH217572   1.815   5.281   4.008
 5872TIP3    H117573   1.903   5.307   3.979
 5872TIP3    H217574   1.825   5.265   4.101
 5873TIP3   OH217575   1.995   3.146   6.586
 5873TIP3    H117576   1.900   3.138   6.575
 5873TIP3    H217577   2.023   3.197   6.510
 5874TIP3   OH217578   8.198   0.697   3.707
 5874TIP3    H117579   8.268   0.730   3.764
 5874TIP3    H217580   8.245   0.658   3.633
 5875TIP3   OH217581   7.144   5.122   3.617
 5875TIP3    H117582   7.128   5.160   3.704
 5875TIP3    H217583   7.222   5.168   3.585
 5876TIP3   OH217584   5.411   2.932   1.004
 5876TIP3    H117585   5.415   2.916   0.910
 5876TIP3    H217586   5.319   2.953   1.021
 5877TIP3   OH217587   1.534   5.317   5.342
 5877TIP3    H117588   1.561   5.382   5.407
 5877TIP3    H217589   1.573   5.235   5.373
 5878TIP3   OH217590   0.905   6.602   4.606
 5878TIP3    H117591   0.902   6.555   4.689
 5878TIP3    H217592   0.855   6.547   4.546
 5879TIP3   OH217593   7.741   2.239   6.369
 5879TIP3    H117594   7.771   2.156   6.332
 5879TIP3    H217595   7.780   2.306   6.312
 5880TIP3   OH217596   0.488   5.338   5.988
 5880TIP3    H117597   0.531   5.352   6.072
 5880TIP3    H217598   0.482   5.425   5.949
 5881TIP3   OH217599   4.191   0.612   0.404
 5881TIP3    H117600   4.182   0.625   0.498
 5881TIP3    H217601   4.267   0.554   0.395
 5882TIP3   OH217602   4.859   2.989   2.965
 5882TIP3    H117603   4.851   2.899   2.934
 5882TIP3    H217604   4.899   3.036   2.892
 5883TIP3   OH217605   5.439   5.787   2.896
 5883TIP3    H117606   5.528   5.753   2.887
 5883TIP3    H217607   5.389   5.714   2.932
 5884TIP3   OH217608   0.878   1.232   3.150
 5884TIP3    H117609   0.907   1.320   3.172
 5884TIP3    H217610   0.828   1.243   3.068
 5885TIP3   OH217611   7.875   0.818   6.481
 5885TIP3    H117612   7.901   0.904   6.449
 5885TIP3    H217613   7.908   0.814   6.571
 5886TIP3   OH217614   3.252   6.232   4.470
 5886TIP3    H117615   3.228   6.310   4.420
 5886TIP3    H217616   3.258   6.162   4.405
 5887TIP3   OH217617   4.811   3.036   1.829
 5887TIP3    H117618   4.745   3.030   1.897
 5887TIP3    H217619   4.881   3.088   1.868
 5888TIP3   OH217620   4.101   0.881   4.233
 5888TIP3    H117621   4.129   0.844   4.317
 5888TIP3    H217622   4.168   0.946   4.211
 5889TIP3   OH217623   5.649   2.683   2.391
 5889TIP3    H117624   5.559   2.653   2.406
 5889TIP3    H217625   5.647   2.776   2.414
 5890TIP3   OH217626   7.448   5.658   5.355
 5890TIP3    H117627   7.383   5.644   5.424
 5890TIP3    H217628   7.400   5.640   5.273
 5891TIP3   OH217629   3.857   6.031   4.796
 5891TIP3    H117630   3.791   6.091   4.831
 5891TIP3    H217631   3.851   6.042   4.701
 5892TIP3   OH217632   0.759   2.994   4.941
 5892TIP3    H117633   0.692   2.945   4.989
 5892TIP3    H217634   0.734   2.985   4.849
 5893TIP3   OH217635   2.943   2.954   3.709
 5893TIP3    H117636   2.981   3.024   3.762
 5893TIP3    H217637   2.917   2.997   3.628
 5894TIP3   OH217638   3.522   2.476   1.863
 5894TIP3    H117639   3.564   2.541   1.807
 5894TIP3    H217640   3.430   2.502   1.866
 5895TIP3   OH217641   6.092   1.805   6.166
 5895TIP3    H117642   6.011   1.758   6.185
 5895TIP3    H217643   6.094   1.877   6.230
 5896TIP3   OH217644   2.001   1.642   0.460
 5896TIP3    H117645   1.945   1.676   0.530
 5896TIP3    H217646   1.943   1.633   0.384
 5897TIP3   OH217647   3.133   6.726   3.327
 5897TIP3    H117648   3.192   6.715   3.252
 5897TIP3    H217649   3.056   6.770   3.290
 5898TIP3   OH217650   2.739   6.074   4.060
 5898TIP3    H117651   2.684   6.101   4.134
 5898TIP3    H217652   2.687   6.095   3.983
 5899TIP3   OH217653   5.830   0.919   4.044
 5899TIP3    H117654   5.772   0.844   4.053
 5899TIP3    H217655   5.820   0.946   3.953
 5900TIP3   OH217656   4.889   7.001   2.613
 5900TIP3    H117657   4.816   6.970   2.558
 5900TIP3    H217658   4.898   7.094   2.592
 5901TIP3   OH217659   7.959   4.301   0.919
 5901TIP3    H117660   8.021   4.357   0.873
 5901TIP3    H217661   8.012   4.253   0.983
 5902TIP3   OH217662   0.453   6.005   0.082
 5902TIP3    H117663   0.397   5.993   0.158
 5902TIP3    H217664   0.505   6.082   0.102
 5903TIP3   OH217665   3.310   0.251   4.762
 5903TIP3    H117666   3.275   0.163   4.777
 5903TIP3    H217667   3.396   0.236   4.723
 5904TIP3   OH217668   0.164   4.251   2.494
 5904TIP3    H117669   0.212   4.302   2.560
 5904TIP3    H217670   0.213   4.170   2.486
 5905TIP3   OH217671   1.401   5.094   1.284
 5905TIP3    H117672   1.492   5.074   1.306
 5905TIP3    H217673   1.399   5.189   1.275
 5906TIP3   OH217674   5.028   2.046   4.526
 5906TIP3    H117675   5.008   2.006   4.442
 5906TIP3    H217676   4.977   1.997   4.590
 5907TIP3   OH217677   8.208   2.068   1.394
 5907TIP3    H117678   8.220   2.131   1.465
 5907TIP3    H217679   8.170   1.991   1.437
 5908TIP3   OH217680   6.526   4.190   0.280
 5908TIP3    H117681   6.534   4.125   0.350
 5908TIP3    H217682   6.443   4.169   0.237
 5909TIP3   OH217683   3.486   6.481   1.788
 5909TIP3    H117684   3.535   6.472   1.706
 5909TIP3    H217685   3.550   6.463   1.857
 5910TIP3   OH217686   1.972   4.593   5.529
 5910TIP3    H117687   1.930   4.538   5.594
 5910TIP3    H217688   2.015   4.532   5.469
 5911TIP3   OH217689   5.387   1.324   2.847
 5911TIP3    H117690   5.393   1.277   2.764
 5911TIP3    H217691   5.307   1.376   2.839
 5912TIP3   OH217692   3.700   5.044   1.920
 5912TIP3    H117693   3.689   5.114   1.856
 5912TIP3    H217694   3.705   5.088   2.004
 5913TIP3   OH217695   2.326   4.886   2.828
 5913TIP3    H117696   2.369   4.801   2.837
 5913TIP3    H217697   2.386   4.948   2.870
 5914TIP3   OH217698   2.363   6.175   1.844
 5914TIP3    H117699   2.344   6.230   1.921
 5914TIP3    H217700   2.398   6.236   1.779
 5915TIP3   OH217701   1.166   2.175   6.394
 5915TIP3    H117702   1.083   2.140   6.363
 5915TIP3    H217703   1.214   2.197   6.315
 5916TIP3   OH217704   2.545   0.354   0.711
 5916TIP3    H117705   2.608   0.362   0.640
 5916TIP3    H217706   2.598   0.362   0.791
 5917TIP3   OH217707   7.119   1.346   3.031
 5917TIP3    H117708   7.173   1.276   3.069
 5917TIP3    H217709   7.158   1.427   3.064
 5918TIP3   OH217710   0.065   3.522   1.662
 5918TIP3    H117711   0.146   3.561   1.693
 5918TIP3    H217712   0.018   3.497   1.742
 5919TIP3   OH217713   0.264   7.099   3.702
 5919TIP3    H117714   0.244   7.094   3.796
 5919TIP3    H217715   0.281   7.008   3.676
 5920TIP3   OH217716   7.961   1.567   1.913
 5920TIP3    H117717   7.941   1.620   1.990
 5920TIP3    H217718   8.007   1.627   1.854
 5921TIP3   OH217719   3.508   5.862   0.298
 5921TIP3    H117720   3.569   5.810   0.246
 5921TIP3    H217721   3.551   5.871   0.383
 5922TIP3   OH217722   1.235   7.287   0.172
 5922TIP3    H117723   1.319   7.245   0.154
 5922TIP3    H217724   1.194   7.232   0.238
 5923TIP3   OH217725   1.536   7.653   0.374
 5923TIP3    H117726   1.601   7.587   0.398
 5923TIP3    H217727   1.472   7.606   0.321
 5924TIP3   OH217728   5.713   0.876   5.201
 5924TIP3    H117729   5.641   0.912   5.149
 5924TIP3    H217730   5.672   0.852   5.284
 5925TIP3   OH217731   2.412   6.790   3.152
 5925TIP3    H117732   2.346   6.839   3.201
 5925TIP3    H217733   2.362   6.737   3.090
 5926TIP3   OH217734   6.889   5.994   6.131
 5926TIP3    H117735   6.828   6.040   6.189
 5926TIP3    H217736   6.976   6.023   6.160
 5927TIP3   OH217737   1.212   7.817   3.780
 5927TIP3    H117738   1.212   7.808   3.875
 5927TIP3    H217739   1.288   7.766   3.751
 5928TIP3   OH217740   3.330   3.493   4.075
 5928TIP3    H117741   3.368   3.527   4.157
 5928TIP3    H217742   3.237   3.485   4.094
 5929TIP3   OH217743   0.629   3.063   4.721
 5929TIP3    H117744   0.683   3.082   4.644
 5929TIP3    H217745   0.546   3.032   4.685
 5930TIP3   OH217746   3.807   4.052   3.844
 5930TIP3    H117747   3.758   4.056   3.762
 5930TIP3    H217748   3.842   4.140   3.856
 5931TIP3   OH217749   0.685   4.769   4.143
 5931TIP3    H117750   0.614   4.830   4.123
 5931TIP3    H217751   0.649   4.709   4.208
 5932TIP3   OH217752   5.458   0.488   5.411
 5932TIP3    H117753   5.446   0.399   5.378
 5932TIP3    H217754   5.372   0.529   5.402
 5933TIP3   OH217755   0.824   2.965   2.968
 5933TIP3    H117756   0.789   2.911   3.040
 5933TIP3    H217757   0.750   3.020   2.942
 5934TIP3   OH217758   7.508   1.782   0.588
 5934TIP3    H117759   7.422   1.741   0.581
 5934TIP3    H217760   7.532   1.802   0.497
 5935TIP3   OH217761   2.685   0.984   5.791
 5935TIP3    H117762   2.753   1.037   5.749
 5935TIP3    H217763   2.605   1.036   5.781
 5936TIP3   OH217764   1.001   6.626   5.848
 5936TIP3    H117765   0.914   6.647   5.812
 5936TIP3    H217766   1.047   6.710   5.847
 5937TIP3   OH217767   0.232   3.537   3.567
 5937TIP3    H117768   0.301   3.567   3.626
 5937TIP3    H217769   0.151   3.568   3.608
 5938TIP3   OH217770   5.985   6.346   1.184
 5938TIP3    H117771   5.914   6.300   1.230
 5938TIP3    H217772   5.974   6.321   1.093
 5939TIP3   OH217773   4.525   5.045   3.821
 5939TIP3    H117774   4.481   5.107   3.763
 5939TIP3    H217775   4.530   4.964   3.771
 5940TIP3   OH217776   5.813   6.648   0.452
 5940TIP3    H117777   5.886   6.678   0.507
 5940TIP3    H217778   5.854   6.593   0.385
 5941TIP3   OH217779   6.153   5.593   1.111
 5941TIP3    H117780   6.205   5.644   1.049
 5941TIP3    H217781   6.070   5.578   1.066
 5942TIP3   OH217782   4.143   5.247   3.398
 5942TIP3    H117783   4.182   5.212   3.318
 5942TIP3    H217784   4.112   5.334   3.375
 5943TIP3   OH217785   6.531   5.450   5.824
 5943TIP3    H117786   6.525   5.368   5.774
 5943TIP3    H217787   6.458   5.503   5.794
 5944TIP3   OH217788   0.911   3.579   4.404
 5944TIP3    H117789   0.928   3.662   4.360
 5944TIP3    H217790   0.827   3.592   4.449
 5945TIP3   OH217791   7.830   2.960   2.815
 5945TIP3    H117792   7.821   3.025   2.746
 5945TIP3    H217793   7.744   2.954   2.855
 5946TIP3   OH217794   3.173   4.331   2.194
 5946TIP3    H117795   3.124   4.257   2.229
 5946TIP3    H217796   3.256   4.293   2.165
 5947TIP3   OH217797   0.414   3.462   3.331
 5947TIP3    H117798   0.457   3.538   3.292
 5947TIP3    H217799   0.372   3.496   3.410
 5948TIP3   OH217800   4.993   1.474   5.797
 5948TIP3    H117801   5.015   1.406   5.733
 5948TIP3    H217802   4.971   1.426   5.877
 5949TIP3   OH217803   5.946   4.195   6.417
 5949TIP3    H117804   5.920   4.130   6.352
 5949TIP3    H217805   5.984   4.266   6.366
 5950TIP3   OH217806   6.557   7.291   5.966
 5950TIP3    H117807   6.588   7.210   6.007
 5950TIP3    H217808   6.593   7.289   5.878
 5951TIP3   OH217809   1.745   1.378   3.213
 5951TIP3    H117810   1.664   1.368   3.164
 5951TIP3    H217811   1.778   1.288   3.223
 5952TIP3   OH217812   0.638   5.655   1.047
 5952TIP3    H117813   0.694   5.582   1.073
 5952TIP3    H217814   0.624   5.705   1.127
 5953TIP3   OH217815   0.343   2.595   2.367
 5953TIP3    H117816   0.311   2.566   2.453
 5953TIP3    H217817   0.324   2.689   2.365
 5954TIP3   OH217818   1.666   7.247   2.008
 5954TIP3    H117819   1.744   7.298   2.032
 5954TIP3    H217820   1.701   7.160   1.986
 5955TIP3   OH217821   8.204   5.470   2.377
 5955TIP3    H117822   8.240   5.491   2.463
 5955TIP3    H217823   8.280   5.450   2.323
 5956TIP3   OH217824   3.403   4.107   6.388
 5956TIP3    H117825   3.425   4.156   6.467
 5956TIP3    H217826   3.317   4.070   6.406
 5957TIP3   OH217827   7.330   2.178   1.556
 5957TIP3    H117828   7.304   2.266   1.582
 5957TIP3    H217829   7.286   2.120   1.618
 5958TIP3   OH217830   1.244   5.683   1.773
 5958TIP3    H117831   1.165   5.729   1.743
 5958TIP3    H217832   1.272   5.631   1.697
 5959TIP3   OH217833   1.832   0.658   4.855
 5959TIP3    H117834   1.793   0.644   4.769
 5959TIP3    H217835   1.924   0.677   4.837
 5960TIP3   OH217836   4.943   7.527   0.852
 5960TIP3    H117837   4.909   7.614   0.830
 5960TIP3    H217838   4.937   7.523   0.948
 5961TIP3   OH217839   6.264   0.253   2.192
 5961TIP3    H117840   6.346   0.241   2.145
 5961TIP3    H217841   6.196   0.248   2.125
 5962TIP3   OH217842   3.470   6.283   4.657
 5962TIP3    H117843   3.409   6.264   4.586
 5962TIP3    H217844   3.421   6.340   4.716
 5963TIP3   OH217845   2.169   2.054   1.412
 5963TIP3    H117846   2.223   2.019   1.341
 5963TIP3    H217847   2.229   2.059   1.487
 5964TIP3   OH217848   1.541   4.933   6.133
 5964TIP3    H117849   1.569   4.896   6.049
 5964TIP3    H217850   1.483   4.867   6.170
 5965TIP3   OH217851   4.590   1.487   0.324
 5965TIP3    H117852   4.667   1.453   0.279
 5965TIP3    H217853   4.622   1.562   0.373
 5966TIP3   OH217854   1.906   7.541   4.169
 5966TIP3    H117855   1.935   7.450   4.179
 5966TIP3    H217856   1.965   7.591   4.226
 5967TIP3   OH217857   1.833   7.290   0.085
 5967TIP3    H117858   1.914   7.336   0.062
 5967TIP3    H217859   1.829   7.217   0.023
 5968TIP3   OH217860   1.563   5.197   2.528
 5968TIP3    H117861   1.549   5.267   2.592
 5968TIP3    H217862   1.658   5.188   2.524
 5969TIP3   OH217863   3.822   0.136   1.543
 5969TIP3    H117864   3.912   0.166   1.541
 5969TIP3    H217865   3.807   0.100   1.455
 5970TIP3   OH217866   4.011   1.701   1.587
 5970TIP3    H117867   4.007   1.783   1.539
 5970TIP3    H217868   4.099   1.667   1.568
 5971TIP3   OH217869   2.465   3.189   3.121
 5971TIP3    H117870   2.479   3.205   3.214
 5971TIP3    H217871   2.436   3.098   3.117
 5972TIP3   OH217872   5.260   7.760   1.171
 5972TIP3    H117873   5.312   7.757   1.252
 5972TIP3    H217874   5.189   7.698   1.187
 5973TIP3   OH217875   5.298   7.414   0.633
 5973TIP3    H117876   5.369   7.429   0.696
 5973TIP3    H217877   5.337   7.434   0.548
 5974TIP3   OH217878   3.751   2.496   3.965
 5974TIP3    H117879   3.688   2.566   3.948
 5974TIP3    H217880   3.829   2.541   3.998
 5975TIP3   OH217881   5.839   4.967   0.883
 5975TIP3    H117882   5.875   4.979   0.795
 5975TIP3    H217883   5.911   4.933   0.935
 5976TIP3   OH217884   7.162   7.123   2.238
 5976TIP3    H117885   7.149   7.077   2.321
 5976TIP3    H217886   7.109   7.074   2.175
 5977TIP3   OH217887   1.032   2.470   1.477
 5977TIP3    H117888   1.026   2.377   1.458
 5977TIP3    H217889   1.125   2.491   1.468
 5978TIP3   OH217890   3.816   7.039   4.225
 5978TIP3    H117891   3.730   7.029   4.267
 5978TIP3    H217892   3.863   6.959   4.249
 5979TIP3   OH217893   1.173   7.369   0.534
 5979TIP3    H117894   1.197   7.433   0.601
 5979TIP3    H217895   1.117   7.418   0.474
 5980TIP3   OH217896   7.131   4.370   2.459
 5980TIP3    H117897   7.103   4.285   2.493
 5980TIP3    H217898   7.224   4.376   2.479
 5981TIP3   OH217899   1.529   7.722   5.018
 5981TIP3    H117900   1.605   7.665   5.021
 5981TIP3    H217901   1.494   7.720   5.108
 5982TIP3   OH217902   4.495   3.470   1.472
 5982TIP3    H117903   4.565   3.445   1.532
 5982TIP3    H217904   4.527   3.548   1.428
 5983TIP3   OH217905   5.149   7.562   3.497
 5983TIP3    H117906   5.143   7.649   3.458
 5983TIP3    H217907   5.114   7.503   3.431
 5984TIP3   OH217908   0.684   7.133   0.823
 5984TIP3    H117909   0.698   7.216   0.777
 5984TIP3    H217910   0.614   7.152   0.886
 5985TIP3   OH217911   2.147   7.062   4.538
 5985TIP3    H117912   2.238   7.082   4.521
 5985TIP3    H217913   2.111   7.141   4.578
 5986TIP3   OH217914   6.067   6.616   6.119
 5986TIP3    H117915   6.121   6.549   6.159
 5986TIP3    H217916   5.989   6.620   6.175
 5987TIP3   OH217917   5.728   4.854   1.590
 5987TIP3    H117918   5.807   4.903   1.614
 5987TIP3    H217919   5.674   4.917   1.542
 5988TIP3   OH217920   7.420   1.987   3.335
 5988TIP3    H117921   7.367   1.926   3.283
 5988TIP3    H217922   7.465   1.932   3.399
 5989TIP3   OH217923   6.922   4.989   2.123
 5989TIP3    H117924   6.895   5.081   2.127
 5989TIP3    H217925   6.844   4.942   2.095
 5990TIP3   OH217926   6.137   4.487   1.390
 5990TIP3    H117927   6.128   4.436   1.309
 5990TIP3    H217928   6.059   4.465   1.441
 5991TIP3   OH217929   8.040   5.752   6.341
 5991TIP3    H117930   8.086   5.786   6.419
 5991TIP3    H217931   7.989   5.826   6.310
 5992TIP3   OH217932   8.217   3.184   1.064
 5992TIP3    H117933   8.303   3.194   1.104
 5992TIP3    H217934   8.234   3.149   0.977
 5993TIP3   OH217935   3.613   4.023   1.246
 5993TIP3    H117936   3.545   3.957   1.231
 5993TIP3    H217937   3.578   4.103   1.207
 5994TIP3   OH217938   2.986   4.616   1.034
 5994TIP3    H117939   2.924   4.688   1.050
 5994TIP3    H217940   2.991   4.570   1.118
 5995TIP3   OH217941   2.893   3.574   4.150
 5995TIP3    H117942   2.848   3.500   4.192
 5995TIP3    H217943   2.960   3.600   4.213
 5996TIP3   OH217944   5.857   1.337   4.191
 5996TIP3    H117945   5.848   1.316   4.284
 5996TIP3    H217946   5.906   1.263   4.154
 5997TIP3   OH217947   0.826   2.633   1.483
 5997TIP3    H117948   0.751   2.584   1.451
 5997TIP3    H217949   0.892   2.566   1.503
 5998TIP3   OH217950   7.961   5.021   3.104
 5998TIP3    H117951   7.948   5.054   3.015
 5998TIP3    H217952   8.023   5.082   3.144
 5999TIP3   OH217953   5.679   6.631   1.194
 5999TIP3    H117954   5.659   6.670   1.280
 5999TIP3    H217955   5.617   6.673   1.135
 6000TIP3   OH217956   3.566   2.130   3.311
 6000TIP3    H117957   3.519   2.184   3.374
 6000TIP3    H217958   3.624   2.075   3.364
 6001TIP3   OH217959   5.785   5.366   0.349
 6001TIP3    H117960   5.870   5.350   0.308
 6001TIP3    H217961   5.802   5.355   0.443
 6002TIP3   OH217962   7.089   3.186   1.200
 6002TIP3    H117963   7.041   3.234   1.133
 6002TIP3    H217964   7.108   3.101   1.159
 6003TIP3   OH217965   2.327   2.579   2.559
 6003TIP3    H117966   2.365   2.665   2.577
 6003TIP3    H217967   2.385   2.517   2.605
 6004TIP3   OH217968   7.345   1.402   5.156
 6004TIP3    H117969   7.431   1.427   5.189
 6004TIP3    H217970   7.319   1.474   5.099
 6005TIP3   OH217971   6.851   1.473   5.982
 6005TIP3    H117972   6.871   1.563   5.958
 6005TIP3    H217973   6.793   1.480   6.058
 6006TIP3   OH217974   4.497   1.740   3.783
 6006TIP3    H117975   4.470   1.830   3.765
 6006TIP3    H217976   4.466   1.724   3.872
 6007TIP3   OH217977   5.764   7.307   0.697
 6007TIP3    H117978   5.820   7.385   0.701
 6007TIP3    H217979   5.811   7.246   0.641
 6008TIP3   OH217980   6.958   1.198   1.553
 6008TIP3    H117981   6.971   1.281   1.505
 6008TIP3    H217982   6.891   1.152   1.502
 6009TIP3   OH217983   6.744   0.172   5.332
 6009TIP3    H117984   6.708   0.249   5.288
 6009TIP3    H217985   6.672   0.139   5.385
 6010TIP3   OH217986   1.031   1.928   3.183
 6010TIP3    H117987   0.972   1.981   3.130
 6010TIP3    H217988   0.991   1.841   3.185
 6011TIP3   OH217989   1.478   0.646   4.694
 6011TIP3    H117990   1.436   0.631   4.609
 6011TIP3    H217991   1.568   0.614   4.682
 6012TIP3   OH217992   3.173   7.693   1.355
 6012TIP3    H117993   3.143   7.765   1.410
 6012TIP3    H217994   3.215   7.632   1.416
 6013TIP3   OH217995   8.099   0.590   5.272
 6013TIP3    H117996   8.089   0.594   5.177
 6013TIP3    H217997   8.010   0.597   5.306
 6014TIP3   OH217998   6.290   2.375   1.100
 6014TIP3    H117999   6.367   2.322   1.080
 6014TIP3    H218000   6.240   2.321   1.162
 6015TIP3   OH218001   7.722   1.508   3.473
 6015TIP3    H118002   7.735   1.471   3.560
 6015TIP3    H218003   7.772   1.451   3.414
 6016TIP3   OH218004   0.487   6.105   0.490
 6016TIP3    H118005   0.473   6.183   0.436
 6016TIP3    H218006   0.416   6.046   0.465
 6017TIP3   OH218007   1.616   2.578   4.665
 6017TIP3    H118008   1.539   2.554   4.613
 6017TIP3    H218009   1.607   2.673   4.678
 6018TIP3   OH218010   7.413   4.852   5.184
 6018TIP3    H118011   7.383   4.778   5.132
 6018TIP3    H218012   7.508   4.842   5.188
 6019TIP3   OH218013   7.914   6.423   1.291
 6019TIP3    H118014   7.944   6.334   1.311
 6019TIP3    H218015   7.990   6.478   1.307
 6020TIP3   OH218016   1.089   5.913   3.345
 6020TIP3    H118017   1.135   5.912   3.429
 6020TIP3    H218018   1.151   5.874   3.283
 6021TIP3   OH218019   2.348   0.432   5.760
 6021TIP3    H118020   2.278   0.381   5.802
 6021TIP3    H218021   2.312   0.521   5.753
 6022TIP3   OH218022   5.822   3.020   1.436
 6022TIP3    H118023   5.887   2.995   1.502
 6022TIP3    H218024   5.833   3.115   1.427
 6023TIP3   OH218025   1.857   7.616   6.528
 6023TIP3    H118026   1.898   7.572   6.453
 6023TIP3    H218027   1.766   7.590   6.524
 6024TIP3   OH218028   2.327   1.699   2.643
 6024TIP3    H118029   2.275   1.659   2.712
 6024TIP3    H218030   2.414   1.710   2.682
 6025TIP3   OH218031   1.888   3.618   4.313
 6025TIP3    H118032   1.956   3.570   4.266
 6025TIP3    H218033   1.926   3.634   4.400
 6026TIP3   OH218034   1.999   6.030   2.261
 6026TIP3    H118035   1.949   6.076   2.329
 6026TIP3    H218036   2.037   6.100   2.207
 6027TIP3   OH218037   3.366   6.085   4.997
 6027TIP3    H118038   3.304   6.060   5.065
 6027TIP3    H218039   3.445   6.110   5.045
 6028TIP3   OH218040   7.817   4.874   1.268
 6028TIP3    H118041   7.869   4.954   1.275
 6028TIP3    H218042   7.881   4.806   1.249
 6029TIP3   OH218043   7.705   5.172   6.318
 6029TIP3    H118044   7.614   5.199   6.326
 6029TIP3    H218045   7.702   5.077   6.316
 6030TIP3   OH218046   2.854   6.358   4.600
 6030TIP3    H118047   2.790   6.297   4.636
 6030TIP3    H218048   2.855   6.340   4.506
 6031TIP3   OH218049   2.235   6.188   2.440
 6031TIP3    H118050   2.322   6.220   2.418
 6031TIP3    H218051   2.250   6.100   2.475
 6032TIP3   OH218052   2.813   3.456   3.175
 6032TIP3    H118053   2.754   3.514   3.224
 6032TIP3    H218054   2.771   3.445   3.090
 6033TIP3   OH218055   1.753   1.358   1.644
 6033TIP3    H118056   1.813   1.427   1.673
 6033TIP3    H218057   1.671   1.404   1.625
 6034TIP3   OH218058   5.735   0.730   6.296
 6034TIP3    H118059   5.783   0.681   6.230
 6034TIP3    H218060   5.652   0.753   6.253
 6035TIP3   OH218061   5.207   4.017   3.660
 6035TIP3    H118062   5.257   3.997   3.581
 6035TIP3    H218063   5.256   4.088   3.702
 6036TIP3   OH218064   0.886   5.981   5.996
 6036TIP3    H118065   0.809   5.995   6.051
 6036TIP3    H218066   0.960   5.998   6.054
 6037TIP3   OH218067   3.951   0.751   5.573
 6037TIP3    H118068   3.948   0.780   5.482
 6037TIP3    H218069   3.868   0.779   5.610
 6038TIP3   OH218070   3.349   5.263   1.750
 6038TIP3    H118071   3.342   5.202   1.823
 6038TIP3    H218072   3.431   5.240   1.706
 6039TIP3   OH218073   6.412   2.930   2.095
 6039TIP3    H118074   6.328   2.902   2.130
 6039TIP3    H218075   6.390   2.980   2.017
 6040TIP3   OH218076   5.895   3.197   2.428
 6040TIP3    H118077   5.918   3.265   2.491
 6040TIP3    H218078   5.889   3.243   2.344
 6041TIP3   OH218079   7.645   4.801   2.645
 6041TIP3    H118080   7.676   4.752   2.721
 6041TIP3    H218081   7.671   4.748   2.570
 6042TIP3   OH218082   1.853   5.079   0.534
 6042TIP3    H118083   1.859   4.984   0.545
 6042TIP3    H218084   1.854   5.093   0.439
 6043TIP3   OH218085   7.359   4.443   1.636
 6043TIP3    H118086   7.270   4.471   1.659
 6043TIP3    H218087   7.360   4.444   1.540
 6044TIP3   OH218088   3.596   4.601   0.990
 6044TIP3    H118089   3.690   4.621   0.991
 6044TIP3    H218090   3.590   4.515   0.948
 6045TIP3   OH218091   3.002   4.649   1.416
 6045TIP3    H118092   2.926   4.594   1.434
 6045TIP3    H218093   3.022   4.690   1.500
 6046TIP3   OH218094   4.749   3.183   4.307
 6046TIP3    H118095   4.697   3.137   4.372
 6046TIP3    H218096   4.803   3.244   4.357
 6047TIP3   OH218097   6.472   1.638   3.876
 6047TIP3    H118098   6.491   1.714   3.821
 6047TIP3    H218099   6.450   1.675   3.961
 6048TIP3   OH218100   5.260   4.578   1.580
 6048TIP3    H118101   5.267   4.541   1.492
 6048TIP3    H218102   5.194   4.647   1.572
 6049TIP3   OH218103   4.366   5.362   1.972
 6049TIP3    H118104   4.338   5.429   2.033
 6049TIP3    H218105   4.336   5.393   1.886
 6050TIP3   OH218106   0.452   7.733   6.634
 6050TIP3    H118107   0.371   7.783   6.647
 6050TIP3    H218108   0.436   7.650   6.679
 6051TIP3   OH218109   6.522   5.461   4.629
 6051TIP3    H118110   6.582   5.510   4.573
 6051TIP3    H218111   6.578   5.403   4.680
 6052TIP3   OH218112   4.504   7.729   3.035
 6052TIP3    H118113   4.511   7.675   3.114
 6052TIP3    H218114   4.449   7.803   3.061
 6053TIP3   OH218115   6.834   4.320   5.465
 6053TIP3    H118116   6.840   4.410   5.497
 6053TIP3    H218117   6.900   4.272   5.516
 6054TIP3   OH218118   5.934   0.200   5.814
 6054TIP3    H118119   5.939   0.105   5.830
 6054TIP3    H218120   6.019   0.222   5.777
 6055TIP3   OH218121   1.315   0.828   0.257
 6055TIP3    H118122   1.245   0.782   0.304
 6055TIP3    H218123   1.386   0.765   0.250
 6056TIP3   OH218124   3.470   5.804   3.747
 6056TIP3    H118125   3.418   5.884   3.758
 6056TIP3    H218126   3.543   5.815   3.808
 6057TIP3   OH218127   5.204   0.729   0.171
 6057TIP3    H118128   5.267   0.780   0.121
 6057TIP3    H218129   5.178   0.786   0.243
 6058TIP3   OH218130   0.229   2.266   1.617
 6058TIP3    H118131   0.284   2.204   1.568
 6058TIP3    H218132   0.291   2.326   1.658
 6059TIP3   OH218133   4.130   0.423   1.820
 6059TIP3    H118134   4.204   0.423   1.880
 6059TIP3    H218135   4.154   0.485   1.751
 6060TIP3   OH218136   4.255   7.142   3.180
 6060TIP3    H118137   4.288   7.231   3.191
 6060TIP3    H218138   4.163   7.155   3.156
 6061TIP3   OH218139   4.493   3.897   1.607
 6061TIP3    H118140   4.569   3.840   1.604
 6061TIP3    H218141   4.418   3.839   1.594
 6062TIP3   OH218142   7.248   1.042   5.202
 6062TIP3    H118143   7.308   1.102   5.246
 6062TIP3    H218144   7.288   0.955   5.213
 6063TIP3   OH218145   6.613   1.691   2.938
 6063TIP3    H118146   6.547   1.704   3.005
 6063TIP3    H218147   6.564   1.660   2.862
 6064TIP3   OH218148   0.019   3.568   5.111
 6064TIP3    H118149   0.009   3.478   5.141
 6064TIP3    H218150   0.114   3.579   5.101
 6065TIP3   OH218151   2.610   2.817   3.433
 6065TIP3    H118152   2.653   2.817   3.519
 6065TIP3    H218153   2.527   2.861   3.448
 6066TIP3   OH218154   0.897   3.027   4.180
 6066TIP3    H118155   0.874   2.976   4.103
 6066TIP3    H218156   0.828   3.008   4.243
 6067TIP3   OH218157   3.807   3.122   2.531
 6067TIP3    H118158   3.712   3.113   2.523
 6067TIP3    H218159   3.841   3.038   2.500
 6068TIP3   OH218160   0.876   1.172   3.740
 6068TIP3    H118161   0.909   1.122   3.665
 6068TIP3    H218162   0.798   1.125   3.768
 6069TIP3   OH218163   6.664   5.409   6.421
 6069TIP3    H118164   6.740   5.351   6.416
 6069TIP3    H218165   6.594   5.354   6.455
 6070TIP3   OH218166   0.601   0.847   0.674
 6070TIP3    H118167   0.538   0.778   0.652
 6070TIP3    H218168   0.547   0.918   0.710
 6071TIP3   OH218169   3.370   5.618   5.828
 6071TIP3    H118170   3.465   5.620   5.818
 6071TIP3    H218171   3.338   5.576   5.748
 6072TIP3   OH218172   5.216   1.144   4.073
 6072TIP3    H118173   5.152   1.074   4.060
 6072TIP3    H218174   5.226   1.150   4.168
 6073TIP3   OH218175   4.634   7.815   5.014
 6073TIP3    H118176   4.551   7.772   4.991
 6073TIP3    H218177   4.654   7.871   4.940
 6074TIP3   OH218178   8.246   1.456   0.442
 6074TIP3    H118179   8.254   1.517   0.368
 6074TIP3    H218180   8.166   1.407   0.424
 6075TIP3   OH218181   7.589   7.238   4.285
 6075TIP3    H118182   7.584   7.165   4.223
 6075TIP3    H218183   7.654   7.210   4.349
 6076TIP3   OH218184   0.363   2.439   1.767
 6076TIP3    H118185   0.322   2.496   1.832
 6076TIP3    H218186   0.433   2.492   1.729
 6077TIP3   OH218187   7.590   3.830   3.617
 6077TIP3    H118188   7.524   3.777   3.573
 6077TIP3    H218189   7.547   3.861   3.697
 6078TIP3   OH218190   4.267   1.639   4.749
 6078TIP3    H118191   4.200   1.643   4.818
 6078TIP3    H218192   4.244   1.561   4.698
 6079TIP3   OH218193   4.650   0.789   2.261
 6079TIP3    H118194   4.736   0.830   2.248
 6079TIP3    H218195   4.590   0.842   2.209
 6080TIP3   OH218196   0.306   7.136   2.367
 6080TIP3    H118197   0.382   7.079   2.380
 6080TIP3    H218198   0.315   7.169   2.278
 6081TIP3   OH218199   3.691   5.604   2.116
 6081TIP3    H118200   3.644   5.687   2.126
 6081TIP3    H218201   3.723   5.584   2.204
 6082TIP3   OH218202   1.182   4.501   4.391
 6082TIP3    H118203   1.202   4.570   4.454
 6082TIP3    H218204   1.211   4.421   4.433
 6083TIP3   OH218205   4.490   3.934   3.393
 6083TIP3    H118206   4.498   3.969   3.304
 6083TIP3    H218207   4.453   4.006   3.444
 6084TIP3   OH218208   7.689   4.522   5.256
 6084TIP3    H118209   7.625   4.560   5.197
 6084TIP3    H218210   7.758   4.489   5.199
 6085TIP3   OH218211   1.073   4.514   0.845
 6085TIP3    H118212   1.039   4.534   0.932
 6085TIP3    H218213   1.020   4.568   0.786
 6086TIP3   OH218214   4.531   4.484   6.340
 6086TIP3    H118215   4.490   4.405   6.304
 6086TIP3    H218216   4.616   4.454   6.373
 6087TIP3   OH218217   8.262   5.289   5.758
 6087TIP3    H118218   8.285   5.306   5.849
 6087TIP3    H218219   8.184   5.234   5.763
 6088TIP3   OH218220   5.876   5.475   2.371
 6088TIP3    H118221   5.909   5.526   2.297
 6088TIP3    H218222   5.907   5.522   2.448
 6089TIP3   OH218223   7.324   2.441   1.634
 6089TIP3    H118224   7.277   2.524   1.635
 6089TIP3    H218225   7.376   2.442   1.714
 6090TIP3   OH218226   7.604   0.985   5.501
 6090TIP3    H118227   7.662   0.937   5.442
 6090TIP3    H218228   7.647   0.979   5.587
 6091TIP3   OH218229   7.145   5.707   4.164
 6091TIP3    H118230   7.119   5.616   4.147
 6091TIP3    H218231   7.093   5.758   4.103
 6092TIP3   OH218232   1.611   5.958   0.841
 6092TIP3    H118233   1.662   5.965   0.760
 6092TIP3    H218234   1.592   5.864   0.849
 6093TIP3   OH218235   5.655   6.844   0.557
 6093TIP3    H118236   5.719   6.794   0.507
 6093TIP3    H218237   5.606   6.893   0.492
 6094TIP3   OH218238   4.938   4.193   1.880
 6094TIP3    H118239   4.991   4.201   1.959
 6094TIP3    H218240   4.894   4.108   1.889
 6095TIP3   OH218241   4.876   1.356   6.631
 6095TIP3    H118242   4.841   1.381   6.716
 6095TIP3    H218243   4.918   1.271   6.646
 6096TIP3   OH218244   5.060   2.335   0.758
 6096TIP3    H118245   5.026   2.304   0.674
 6096TIP3    H218246   4.983   2.356   0.809
 6097TIP3   OH218247   6.419   6.798   4.268
 6097TIP3    H118248   6.422   6.729   4.334
 6097TIP3    H218249   6.326   6.815   4.255
 6098TIP3   OH218250   0.142   7.037   3.014
 6098TIP3    H118251   0.094   7.119   3.006
 6098TIP3    H218252   0.234   7.063   3.018
 6099TIP3   OH218253   2.521   6.036   4.500
 6099TIP3    H118254   2.448   6.049   4.561
 6099TIP3    H218255   2.589   5.994   4.553
 6100TIP3   OH218256   0.220   4.933   5.473
 6100TIP3    H118257   0.164   4.991   5.524
 6100TIP3    H218258   0.309   4.958   5.497
 6101TIP3   OH218259   1.286   1.020   2.413
 6101TIP3    H118260   1.291   0.976   2.329
 6101TIP3    H218261   1.371   1.004   2.454
 6102TIP3   OH218262   7.127   7.588   1.799
 6102TIP3    H118263   7.064   7.657   1.779
 6102TIP3    H218264   7.075   7.507   1.795
 6103TIP3   OH218265   5.910   5.359   0.611
 6103TIP3    H118266   5.942   5.284   0.660
 6103TIP3    H218267   5.964   5.432   0.641
 6104TIP3   OH218268   1.072   3.197   2.733
 6104TIP3    H118269   1.139   3.135   2.762
 6104TIP3    H218270   1.119   3.281   2.727
 6105TIP3   OH218271   3.345   1.747   5.762
 6105TIP3    H118272   3.343   1.769   5.669
 6105TIP3    H218273   3.340   1.831   5.807
 6106TIP3   OH218274   2.629   4.298   1.013
 6106TIP3    H118275   2.611   4.230   1.079
 6106TIP3    H218276   2.711   4.337   1.042
 6107TIP3   OH218277   5.504   3.832   4.777
 6107TIP3    H118278   5.466   3.862   4.860
 6107TIP3    H218279   5.445   3.866   4.710
 6108TIP3   OH218280   1.478   2.123   1.414
 6108TIP3    H118281   1.461   2.054   1.478
 6108TIP3    H218282   1.572   2.142   1.424
 6109TIP3   OH218283   6.943   0.286   1.591
 6109TIP3    H118284   7.034   0.257   1.597
 6109TIP3    H218285   6.947   0.370   1.546
 6110TIP3   OH218286   4.201   3.225   5.731
 6110TIP3    H118287   4.190   3.246   5.823
 6110TIP3    H218288   4.223   3.132   5.730
 6111TIP3   OH218289   6.406   4.737   0.297
 6111TIP3    H118290   6.407   4.647   0.328
 6111TIP3    H218291   6.497   4.759   0.281
 6112TIP3   OH218292   4.684   5.186   6.211
 6112TIP3    H118293   4.732   5.246   6.154
 6112TIP3    H218294   4.613   5.153   6.157
 6113TIP3   OH218295   0.639   4.814   3.601
 6113TIP3    H118296   0.604   4.826   3.689
 6113TIP3    H218297   0.650   4.719   3.593
 6114TIP3   OH218298   2.926   0.870   2.362
 6114TIP3    H118299   2.862   0.810   2.325
 6114TIP3    H218300   2.936   0.841   2.453
 6115TIP3   OH218301   5.988   7.682   1.394
 6115TIP3    H118302   5.921   7.624   1.357
 6115TIP3    H218303   6.046   7.623   1.442
 6116TIP3   OH218304   3.772   0.103   5.744
 6116TIP3    H118305   3.761   0.182   5.691
 6116TIP3    H218306   3.731   0.124   5.828
 6117TIP3   OH218307   5.069   6.184   0.699
 6117TIP3    H118308   5.003   6.151   0.638
 6117TIP3    H218309   5.140   6.119   0.694
 6118TIP3   OH218310   7.782   0.287   5.001
 6118TIP3    H118311   7.729   0.311   4.925
 6118TIP3    H218312   7.766   0.193   5.012
 6119TIP3   OH218313   6.211   4.610   0.874
 6119TIP3    H118314   6.227   4.656   0.792
 6119TIP3    H218315   6.133   4.653   0.910
 6120TIP3   OH218316   4.672   0.650   4.269
 6120TIP3    H118317   4.637   0.670   4.355
 6120TIP3    H218318   4.702   0.734   4.235
 6121TIP3   OH218319   6.241   1.972   5.985
 6121TIP3    H118320   6.201   1.916   6.051
 6121TIP3    H218321   6.195   2.056   5.993
 6122TIP3   OH218322   6.432   4.187   2.629
 6122TIP3    H118323   6.460   4.279   2.628
 6122TIP3    H218324   6.506   4.141   2.667
 6123TIP3   OH218325   4.609   7.154   4.978
 6123TIP3    H118326   4.545   7.083   4.969
 6123TIP3    H218327   4.597   7.187   5.067
 6124TIP3   OH218328   6.327   0.445   0.984
 6124TIP3    H118329   6.252   0.504   0.977
 6124TIP3    H218330   6.301   0.381   1.050
 6125TIP3   OH218331   1.837   4.043   5.533
 6125TIP3    H118332   1.884   4.108   5.481
 6125TIP3    H218333   1.869   3.959   5.500
 6126TIP3   OH218334   6.785   1.067   1.368
 6126TIP3    H118335   6.715   1.003   1.379
 6126TIP3    H218336   6.747   1.136   1.314
 6127TIP3   OH218337   3.330   7.708   3.919
 6127TIP3    H118338   3.236   7.723   3.929
 6127TIP3    H218339   3.359   7.775   3.858
 6128TIP3   OH218340   2.348   2.666   1.685
 6128TIP3    H118341   2.370   2.690   1.775
 6128TIP3    H218342   2.341   2.571   1.685
 6129TIP3   OH218343   6.039   4.461   4.327
 6129TIP3    H118344   6.094   4.530   4.290
 6129TIP3    H218345   5.952   4.477   4.289
 6130TIP3   OH218346   5.111   7.177   1.874
 6130TIP3    H118347   5.060   7.247   1.913
 6130TIP3    H218348   5.202   7.205   1.883
 6131TIP3   OH218349   7.679   1.751   4.857
 6131TIP3    H118350   7.763   1.715   4.884
 6131TIP3    H218351   7.614   1.695   4.901
 6132TIP3   OH218352   0.909   2.484   3.384
 6132TIP3    H118353   0.869   2.475   3.471
 6132TIP3    H218354   0.976   2.550   3.395
 6133TIP3   OH218355   4.690   1.507   1.724
 6133TIP3    H118356   4.663   1.530   1.635
 6133TIP3    H218357   4.767   1.560   1.741
 6134TIP3   OH218358   7.660   3.473   4.477
 6134TIP3    H118359   7.677   3.407   4.544
 6134TIP3    H218360   7.719   3.449   4.404
 6135TIP3   OH218361   0.386   6.556   4.576
 6135TIP3    H118362   0.302   6.602   4.584
 6135TIP3    H218363   0.377   6.503   4.497
 6136TIP3   OH218364   0.644   7.221   5.030
 6136TIP3    H118365   0.653   7.227   4.935
 6136TIP3    H218366   0.724   7.178   5.059
 6137TIP3   OH218367   6.727   7.459   3.226
 6137TIP3    H118368   6.642   7.501   3.225
 6137TIP3    H218369   6.742   7.430   3.136
 6138TIP3   OH218370   7.053   5.456   1.641
 6138TIP3    H118371   6.963   5.459   1.674
 6138TIP3    H218372   7.065   5.365   1.612
 6139TIP3   OH218373   3.786   2.208   5.897
 6139TIP3    H118374   3.877   2.237   5.906
 6139TIP3    H218375   3.785   2.154   5.818
 6140TIP3   OH218376   7.709   3.944   2.605
 6140TIP3    H118377   7.648   3.918   2.536
 6140TIP3    H218378   7.750   4.024   2.572
 6141TIP3   OH218379   2.579   3.924   0.148
 6141TIP3    H118380   2.556   4.013   0.174
 6141TIP3    H218381   2.520   3.903   0.076
 6142TIP3   OH218382   7.343   0.188   4.424
 6142TIP3    H118383   7.387   0.166   4.507
 6142TIP3    H218384   7.285   0.114   4.407
 6143TIP3   OH218385   7.495   6.971   6.274
 6143TIP3    H118386   7.445   6.891   6.259
 6143TIP3    H218387   7.586   6.943   6.277
 6144TIP3   OH218388   2.430   1.724   1.198
 6144TIP3    H118389   2.437   1.692   1.108
 6144TIP3    H218390   2.500   1.678   1.245
 6145TIP3   OH218391   1.212   7.502   4.941
 6145TIP3    H118392   1.242   7.421   4.900
 6145TIP3    H218393   1.137   7.476   4.995
 6146TIP3   OH218394   6.071   7.608   4.525
 6146TIP3    H118395   6.018   7.560   4.589
 6146TIP3    H218396   6.161   7.580   4.543
 6147TIP3   OH218397   7.961   6.068   4.816
 6147TIP3    H118398   7.933   6.130   4.884
 6147TIP3    H218399   8.049   6.041   4.843
 6148TIP3   OH218400   4.583   0.735   1.579
 6148TIP3    H118401   4.630   0.749   1.661
 6148TIP3    H218402   4.627   0.793   1.516
 6149TIP3   OH218403   5.222   2.736   2.925
 6149TIP3    H118404   5.207   2.821   2.882
 6149TIP3    H218405   5.315   2.719   2.912
 6150TIP3   OH218406   1.609   4.155   1.446
 6150TIP3    H118407   1.545   4.100   1.491
 6150TIP3    H218408   1.562   4.236   1.427
 6151TIP3   OH218409   2.091   1.239   5.335
 6151TIP3    H118410   2.023   1.206   5.393
 6151TIP3    H218411   2.165   1.257   5.392
 6152TIP3   OH218412   0.417   6.762   3.124
 6152TIP3    H118413   0.385   6.848   3.151
 6152TIP3    H218414   0.354   6.732   3.058
 6153TIP3   OH218415   3.380   5.899   5.355
 6153TIP3    H118416   3.409   5.913   5.265
 6153TIP3    H218417   3.454   5.856   5.398
 6154TIP3   OH218418   4.328   1.179   2.668
 6154TIP3    H118419   4.240   1.152   2.642
 6154TIP3    H218420   4.362   1.103   2.716
 6155TIP3   OH218421   5.835   1.588   0.356
 6155TIP3    H118422   5.810   1.559   0.444
 6155TIP3    H218423   5.924   1.553   0.343
 6156TIP3   OH218424   0.378   6.539   0.840
 6156TIP3    H118425   0.313   6.500   0.781
 6156TIP3    H218426   0.410   6.616   0.792
 6157TIP3   OH218427   4.352   6.496   6.062
 6157TIP3    H118428   4.308   6.412   6.052
 6157TIP3    H218429   4.319   6.549   5.990
 6158TIP3   OH218430   4.530   7.582   5.304
 6158TIP3    H118431   4.480   7.504   5.282
 6158TIP3    H218432   4.614   7.570   5.260
 6159TIP3   OH218433   3.019   7.732   5.954
 6159TIP3    H118434   3.107   7.699   5.934
 6159TIP3    H218435   3.031   7.783   6.034
 6160TIP3   OH218436   1.579   3.692   2.473
 6160TIP3    H118437   1.484   3.693   2.464
 6160TIP3    H218438   1.601   3.778   2.509
 6161TIP3   OH218439   7.462   1.763   5.162
 6161TIP3    H118440   7.467   1.667   5.156
 6161TIP3    H218441   7.386   1.786   5.109
 6162TIP3   OH218442   5.001   5.342   0.562
 6162TIP3    H118443   4.941   5.416   0.571
 6162TIP3    H218444   5.079   5.369   0.611
 6163TIP3   OH218445   5.958   3.904   4.538
 6163TIP3    H118446   5.886   3.855   4.578
 6163TIP3    H218447   5.914   3.963   4.476
 6164TIP3   OH218448   7.109   5.825   2.115
 6164TIP3    H118449   7.096   5.756   2.051
 6164TIP3    H218450   7.203   5.824   2.133
 6165TIP3   OH218451   5.255   0.328   6.080
 6165TIP3    H118452   5.166   0.349   6.108
 6165TIP3    H218453   5.305   0.407   6.099
 6166TIP3   OH218454   1.534   6.284   3.246
 6166TIP3    H118455   1.570   6.200   3.276
 6166TIP3    H218456   1.443   6.283   3.276
 6167TIP3   OH218457   0.627   3.649   6.607
 6167TIP3    H118458   0.565   3.714   6.640
 6167TIP3    H218459   0.710   3.696   6.604
 6168TIP3   OH218460   5.800   4.721   2.822
 6168TIP3    H118461   5.733   4.653   2.816
 6168TIP3    H218462   5.881   4.672   2.842
 6169TIP3   OH218463   0.646   1.721   0.787
 6169TIP3    H118464   0.710   1.769   0.734
 6169TIP3    H218465   0.600   1.790   0.836
 6170TIP3   OH218466   3.678   0.840   5.595
 6170TIP3    H118467   3.594   0.828   5.639
 6170TIP3    H218468   3.693   0.934   5.595
 6171TIP3   OH218469   1.887   4.785   5.099
 6171TIP3    H118470   1.852   4.771   5.011
 6171TIP3    H218471   1.903   4.698   5.134
 6172TIP3   OH218472   4.782   2.600   5.600
 6172TIP3    H118473   4.876   2.608   5.612
 6172TIP3    H218474   4.762   2.511   5.630
 6173TIP3   OH218475   1.919   4.067   6.775
 6173TIP3    H118476   1.850   4.095   6.834
 6173TIP3    H218477   1.874   4.020   6.705
 6174TIP3   OH218478   2.408   1.872   0.902
 6174TIP3    H118479   2.405   1.965   0.923
 6174TIP3    H218480   2.316   1.846   0.895
 6175TIP3   OH218481   5.905   2.385   3.539
 6175TIP3    H118482   5.925   2.361   3.449
 6175TIP3    H218483   5.986   2.423   3.572
 6176TIP3   OH218484   0.423   4.209   3.951
 6176TIP3    H118485   0.513   4.189   3.979
 6176TIP3    H218486   0.387   4.123   3.927
 6177TIP3   OH218487   4.204   5.925   3.506
 6177TIP3    H118488   4.247   6.010   3.496
 6177TIP3    H218489   4.225   5.878   3.425
 6178TIP3   OH218490   2.583   0.325   6.001
 6178TIP3    H118491   2.571   0.230   6.007
 6178TIP3    H218492   2.498   0.362   6.023
 6179TIP3   OH218493   3.750   3.569   0.586
 6179TIP3    H118494   3.785   3.480   0.578
 6179TIP3    H218495   3.820   3.626   0.558
 6180TIP3   OH218496   1.815   3.710   3.619
 6180TIP3    H118497   1.783   3.641   3.677
 6180TIP3    H218498   1.877   3.666   3.561
 6181TIP3   OH218499   1.654   0.212   2.795
 6181TIP3    H118500   1.580   0.192   2.851
 6181TIP3    H218501   1.699   0.129   2.783
 6182TIP3   OH218502   1.845   3.142   2.341
 6182TIP3    H118503   1.914   3.103   2.288
 6182TIP3    H218504   1.804   3.067   2.385
 6183TIP3   OH218505   5.432   4.872   1.877
 6183TIP3    H118506   5.453   4.908   1.791
 6183TIP3    H218507   5.501   4.808   1.894
 6184TIP3   OH218508   2.617   7.118   3.703
 6184TIP3    H118509   2.670   7.179   3.652
 6184TIP3    H218510   2.527   7.141   3.683
 6185TIP3   OH218511   1.284   6.695   0.490
 6185TIP3    H118512   1.203   6.653   0.464
 6185TIP3    H218513   1.334   6.704   0.408
 6186TIP3   OH218514   4.619   2.050   3.776
 6186TIP3    H118515   4.672   2.071   3.853
 6186TIP3    H218516   4.531   2.034   3.811
 6187TIP3   OH218517   8.217   1.476   4.420
 6187TIP3    H118518   8.205   1.420   4.497
 6187TIP3    H218519   8.202   1.418   4.345
 6188TIP3   OH218520   0.457   1.883   0.532
 6188TIP3    H118521   0.417   1.796   0.534
 6188TIP3    H218522   0.536   1.872   0.480
 6189TIP3   OH218523   4.978   5.641   2.562
 6189TIP3    H118524   5.043   5.571   2.570
 6189TIP3    H218525   4.978   5.683   2.648
 6190TIP3   OH218526   3.873   1.555   1.354
 6190TIP3    H118527   3.809   1.625   1.342
 6190TIP3    H218528   3.887   1.552   1.449
 6191TIP3   OH218529   7.958   0.694   2.662
 6191TIP3    H118530   8.045   0.679   2.698
 6191TIP3    H218531   7.927   0.773   2.706
 6192TIP3   OH218532   1.669   3.047   0.638
 6192TIP3    H118533   1.663   2.957   0.605
 6192TIP3    H218534   1.763   3.064   0.644
 6193TIP3   OH218535   6.469   7.032   6.483
 6193TIP3    H118536   6.417   6.960   6.520
 6193TIP3    H218537   6.408   7.080   6.429
 6194TIP3   OH218538   5.273   3.665   1.934
 6194TIP3    H118539   5.332   3.611   1.988
 6194TIP3    H218540   5.253   3.740   1.989
 6195TIP3   OH218541   4.399   0.916   5.430
 6195TIP3    H118542   4.426   0.903   5.339
 6195TIP3    H218543   4.406   0.829   5.470
 6196TIP3   OH218544   4.326   1.219   3.370
 6196TIP3    H118545   4.235   1.243   3.381
 6196TIP3    H218546   4.357   1.198   3.458
 6197TIP3   OH218547   8.289   2.940   0.562
 6197TIP3    H118548   8.260   2.863   0.611
 6197TIP3    H218549   8.314   2.905   0.476
 6198TIP3   OH218550   6.869   4.169   5.868
 6198TIP3    H118551   6.921   4.121   5.804
 6198TIP3    H218552   6.899   4.260   5.862
 6199TIP3   OH218553   4.853   4.318   6.151
 6199TIP3    H118554   4.897   4.238   6.121
 6199TIP3    H218555   4.802   4.348   6.075
 6200TIP3   OH218556   3.832   1.060   6.052
 6200TIP3    H118557   3.925   1.065   6.072
 6200TIP3    H218558   3.803   0.978   6.094
 6201TIP3   OH218559   5.015   1.114   6.574
 6201TIP3    H118560   5.054   1.093   6.659
 6201TIP3    H218561   5.054   1.052   6.513
 6202TIP3   OH218562   4.879   0.703   0.149
 6202TIP3    H118563   4.961   0.697   0.197
 6202TIP3    H218564   4.822   0.638   0.190
 6203TIP3   OH218565   3.631   0.774   1.637
 6203TIP3    H118566   3.638   0.679   1.636
 6203TIP3    H218567   3.585   0.795   1.718
 6204TIP3   OH218568   3.275   2.986   5.741
 6204TIP3    H118569   3.198   2.932   5.755
 6204TIP3    H218570   3.288   2.986   5.646
 6205TIP3   OH218571   6.665   3.762   3.581
 6205TIP3    H118572   6.581   3.786   3.620
 6205TIP3    H218573   6.697   3.843   3.542
 6206TIP3   OH218574   2.081   2.326   4.658
 6206TIP3    H118575   2.119   2.275   4.586
 6206TIP3    H218576   2.069   2.263   4.729
 6207TIP3   OH218577   7.772   3.954   5.699
 6207TIP3    H118578   7.746   4.032   5.748
 6207TIP3    H218579   7.858   3.975   5.664
 6208TIP3   OH218580   1.133   2.138   5.056
 6208TIP3    H118581   1.146   2.108   4.966
 6208TIP3    H218582   1.211   2.188   5.077
 6209TIP3   OH218583   2.040   5.515   6.039
 6209TIP3    H118584   2.002   5.433   6.070
 6209TIP3    H218585   1.968   5.577   6.041
 6210TIP3   OH218586   6.651   1.815   6.679
 6210TIP3    H118587   6.633   1.891   6.624
 6210TIP3    H218588   6.565   1.781   6.703
 6211TIP3   OH218589   6.813   4.861   2.903
 6211TIP3    H118590   6.881   4.827   2.961
 6211TIP3    H218591   6.751   4.904   2.961
 6212TIP3   OH218592   7.589   3.857   3.285
 6212TIP3    H118593   7.600   3.937   3.234
 6212TIP3    H218594   7.590   3.887   3.376
 6213TIP3   OH218595   1.045   2.389   0.467
 6213TIP3    H118596   0.977   2.446   0.431
 6213TIP3    H218597   1.102   2.370   0.393
 6214TIP3   OH218598   5.407   5.939   2.519
 6214TIP3    H118599   5.372   5.902   2.437
 6214TIP3    H218600   5.501   5.943   2.505
 6215TIP3   OH218601   4.677   5.170   5.221
 6215TIP3    H118602   4.612   5.103   5.238
 6215TIP3    H218603   4.666   5.234   5.291
 6216TIP3   OH218604   3.499   1.044   3.041
 6216TIP3    H118605   3.457   1.050   3.126
 6216TIP3    H218606   3.437   1.085   2.980
 6217TIP3   OH218607   0.474   5.174   4.589
 6217TIP3    H118608   0.434   5.154   4.674
 6217TIP3    H218609   0.418   5.243   4.552
 6218TIP3   OH218610   6.563   5.179   5.073
 6218TIP3    H118611   6.489   5.125   5.102
 6218TIP3    H218612   6.551   5.188   4.979
 6219TIP3   OH218613   1.312   6.097   6.632
 6219TIP3    H118614   1.349   6.184   6.649
 6219TIP3    H218615   1.384   6.037   6.653
 6220TIP3   OH218616   8.005   2.123   2.774
 6220TIP3    H118617   8.054   2.042   2.765
 6220TIP3    H218618   8.008   2.143   2.868
 6221TIP3   OH218619   6.013   4.687   1.730
 6221TIP3    H118620   5.964   4.605   1.735
 6221TIP3    H218621   6.001   4.718   1.641
 6222TIP3   OH218622   1.392   2.873   3.675
 6222TIP3    H118623   1.469   2.883   3.619
 6222TIP3    H218624   1.318   2.899   3.619
 6223TIP3   OH218625   1.440   2.952   0.789
 6223TIP3    H118626   1.498   3.012   0.742
 6223TIP3    H218627   1.470   2.865   0.764
 6224TIP3   OH218628   3.814   3.420   3.793
 6224TIP3    H118629   3.886   3.415   3.855
 6224TIP3    H218630   3.855   3.445   3.710
 6225TIP3   OH218631   1.387   1.512   2.155
 6225TIP3    H118632   1.381   1.432   2.207
 6225TIP3    H218633   1.409   1.580   2.218
 6226TIP3   OH218634   6.823   7.260   2.528
 6226TIP3    H118635   6.909   7.301   2.517
 6226TIP3    H218636   6.807   7.263   2.623
 6227TIP3   OH218637   0.079   3.632   1.409
 6227TIP3    H118638   0.041   3.719   1.413
 6227TIP3    H218639   0.064   3.595   1.496
 6228TIP3   OH218640   7.165   0.381   5.609
 6228TIP3    H118641   7.189   0.303   5.560
 6228TIP3    H218642   7.071   0.393   5.592
 6229TIP3   OH218643   8.074   6.431   0.292
 6229TIP3    H118644   8.093   6.337   0.294
 6229TIP3    H218645   7.983   6.437   0.264
 6230TIP3   OH218646   7.221   5.100   4.851
 6230TIP3    H118647   7.152   5.034   4.850
 6230TIP3    H218648   7.173   5.184   4.850
 6231TIP3   OH218649   0.382   1.294   1.581
 6231TIP3    H118650   0.330   1.229   1.534
 6231TIP3    H218651   0.355   1.378   1.544
 6232TIP3   OH218652   3.294   7.583   0.911
 6232TIP3    H118653   3.255   7.526   0.976
 6232TIP3    H218654   3.386   7.592   0.939
 6233TIP3   OH218655   3.601   7.343   5.113
 6233TIP3    H118656   3.668   7.282   5.144
 6233TIP3    H218657   3.612   7.344   5.018
 6234TIP3   OH218658   6.208   3.132   3.849
 6234TIP3    H118659   6.257   3.175   3.779
 6234TIP3    H218660   6.118   3.164   3.837
 6235TIP3   OH218661   7.671   7.205   1.295
 6235TIP3    H118662   7.592   7.202   1.242
 6235TIP3    H218663   7.698   7.113   1.304
 6236TIP3   OH218664   6.174   6.875   6.141
 6236TIP3    H118665   6.232   6.837   6.207
 6236TIP3    H218666   6.121   6.801   6.110
 6237TIP3   OH218667   6.261   2.898   6.321
 6237TIP3    H118668   6.352   2.894   6.349
 6237TIP3    H218669   6.216   2.944   6.392
 6238TIP3   OH218670   4.031   4.742   3.707
 6238TIP3    H118671   4.123   4.724   3.688
 6238TIP3    H218672   4.032   4.780   3.795
 6239TIP3   OH218673   6.472   0.944   4.854
 6239TIP3    H118674   6.489   0.900   4.937
 6239TIP3    H218675   6.395   0.998   4.871
 6240TIP3   OH218676   7.172   6.771   4.865
 6240TIP3    H118677   7.186   6.843   4.927
 6240TIP3    H218678   7.081   6.745   4.878
 6241TIP3   OH218679   5.313   1.267   6.223
 6241TIP3    H118680   5.231   1.288   6.268
 6241TIP3    H218681   5.381   1.283   6.289
 6242TIP3   OH218682   8.141   5.184   0.039
 6242TIP3    H118683   8.171   5.244   0.107
 6242TIP3    H218684   8.193   5.208  -0.038
 6243TIP3   OH218685   2.785   7.538   0.256
 6243TIP3    H118686   2.808   7.552   0.348
 6243TIP3    H218687   2.794   7.444   0.243
 6244TIP3   OH218688   8.216   7.702   5.302
 6244TIP3    H118689   8.125   7.679   5.280
 6244TIP3    H218690   8.267   7.627   5.271
 6245TIP3   OH218691   3.556   6.648   6.105
 6245TIP3    H118692   3.591   6.579   6.050
 6245TIP3    H218693   3.466   6.621   6.123
 6246TIP3   OH218694   4.141   1.056   3.723
 6246TIP3    H118695   4.068   1.103   3.682
 6246TIP3    H218696   4.142   0.971   3.679
 6247TIP3   OH218697   5.183   1.692   3.283
 6247TIP3    H118698   5.166   1.598   3.288
 6247TIP3    H218699   5.154   1.726   3.367
 6248TIP3   OH218700   4.357   2.894   0.572
 6248TIP3    H118701   4.305   2.975   0.577
 6248TIP3    H218702   4.296   2.825   0.598
 6249TIP3   OH218703   2.267   5.661   2.661
 6249TIP3    H118704   2.210   5.731   2.629
 6249TIP3    H218705   2.214   5.582   2.655
 6250TIP3   OH218706   1.122   2.324   4.006
 6250TIP3    H118707   1.166   2.406   3.984
 6250TIP3    H218708   1.057   2.313   3.936
 6251TIP3   OH218709   1.542   2.040   0.749
 6251TIP3    H118710   1.636   2.030   0.734
 6251TIP3    H218711   1.534   2.054   0.843
 6252TIP3   OH218712   0.560   4.911   1.642
 6252TIP3    H118713   0.487   4.971   1.661
 6252TIP3    H218714   0.621   4.925   1.715
 6253TIP3   OH218715   1.465   3.943   3.478
 6253TIP3    H118716   1.408   3.896   3.539
 6253TIP3    H218717   1.414   3.953   3.398
 6254TIP3   OH218718   6.391   1.198   2.943
 6254TIP3    H118719   6.428   1.215   2.857
 6254TIP3    H218720   6.349   1.281   2.968
 6255TIP3   OH218721   2.329   5.398   1.254
 6255TIP3    H118722   2.374   5.430   1.176
 6255TIP3    H218723   2.367   5.448   1.326
 6256TIP3   OH218724   1.650   1.685   2.454
 6256TIP3    H118725   1.652   1.717   2.364
 6256TIP3    H218726   1.563   1.647   2.465
 6257TIP3   OH218727   0.719   7.527   5.298
 6257TIP3    H118728   0.631   7.495   5.316
 6257TIP3    H218729   0.774   7.449   5.299
 6258TIP3   OH218730   6.543   2.126   0.014
 6258TIP3    H118731   6.527   2.172   0.096
 6258TIP3    H218732   6.464   2.074   0.000
 6259TIP3   OH218733   5.973   4.902   5.349
 6259TIP3    H118734   6.030   4.826   5.362
 6259TIP3    H218735   6.026   4.977   5.378
 6260TIP3   OH218736   3.839   6.316   3.529
 6260TIP3    H118737   3.750   6.323   3.565
 6260TIP3    H218738   3.831   6.252   3.458
 6261TIP3   OH218739   3.692   4.557   4.058
 6261TIP3    H118740   3.641   4.589   3.984
 6261TIP3    H218741   3.633   4.499   4.105
 6262TIP3   OH218742   2.274   0.464   1.271
 6262TIP3    H118743   2.224   0.464   1.353
 6262TIP3    H218744   2.277   0.372   1.244
 6263TIP3   OH218745   3.345   7.748   6.062
 6263TIP3    H118746   3.312   7.666   6.098
 6263TIP3    H218747   3.316   7.748   5.971
 6264TIP3   OH218748   0.291   5.166   4.792
 6264TIP3    H118749   0.198   5.185   4.799
 6264TIP3    H218750   0.329   5.207   4.870
 6265TIP3   OH218751   6.498   3.928   2.492
 6265TIP3    H118752   6.560   3.922   2.419
 6265TIP3    H218753   6.545   3.974   2.561
 6266TIP3   OH218754   4.423   3.708   3.211
 6266TIP3    H118755   4.508   3.718   3.168
 6266TIP3    H218756   4.438   3.645   3.281
 6267TIP3   OH218757   7.607  -0.012   0.993
 6267TIP3    H118758   7.530   0.028   1.033
 6267TIP3    H218759   7.660   0.061   0.962
 6268TIP3   OH218760   1.936   5.240   6.650
 6268TIP3    H118761   1.869   5.206   6.591
 6268TIP3    H218762   1.977   5.312   6.600
 6269TIP3   OH218763   2.727   2.136   0.954
 6269TIP3    H118764   2.659   2.203   0.940
 6269TIP3    H218765   2.809   2.184   0.952
 6270TIP3   OH218766   0.692   7.830   0.866
 6270TIP3    H118767   0.652   7.743   0.866
 6270TIP3    H218768   0.702   7.852   0.773
 6271TIP3   OH218769   4.792   0.910   6.251
 6271TIP3    H118770   4.851   0.897   6.325
 6271TIP3    H218771   4.747   0.992   6.271
 6272TIP3   OH218772   5.936   1.014   5.112
 6272TIP3    H118773   5.898   1.092   5.072
 6272TIP3    H218774   5.861   0.962   5.140
 6273TIP3   OH218775   6.278   6.813   6.528
 6273TIP3    H118776   6.257   6.730   6.572
 6273TIP3    H218777   6.197   6.865   6.536
 6274TIP3   OH218778   1.340   0.753   4.897
 6274TIP3    H118779   1.256   0.759   4.852
 6274TIP3    H218780   1.404   0.735   4.828
 6275TIP3   OH218781   0.012   5.947   2.944
 6275TIP3    H118782   0.103   5.976   2.948
 6275TIP3    H218783   0.009   5.869   3.000
 6276TIP3   OH218784   2.882   2.671   0.615
 6276TIP3    H118785   2.963   2.624   0.636
 6276TIP3    H218786   2.866   2.650   0.523
 6277TIP3   OH218787   4.914   4.300   2.898
 6277TIP3    H118788   4.930   4.206   2.884
 6277TIP3    H218789   4.978   4.326   2.964
 6278TIP3   OH218790   3.068   3.409   2.730
 6278TIP3    H118791   3.007   3.473   2.693
 6278TIP3    H218792   3.089   3.351   2.656
 6279TIP3   OH218793   3.925   5.875   0.288
 6279TIP3    H118794   3.891   5.825   0.362
 6279TIP3    H218795   3.961   5.955   0.327
 6280TIP3   OH218796   4.353   4.622   0.884
 6280TIP3    H118797   4.315   4.674   0.814
 6280TIP3    H218798   4.387   4.544   0.841
 6281TIP3   OH218799   0.464   1.311   5.682
 6281TIP3    H118800   0.478   1.403   5.658
 6281TIP3    H218801   0.491   1.307   5.774
 6282TIP3   OH218802   7.089   4.383   5.788
 6282TIP3    H118803   7.134   4.461   5.757
 6282TIP3    H218804   7.070   4.400   5.880
 6283TIP3   OH218805   1.745   1.181   2.420
 6283TIP3    H118806   1.718   1.113   2.357
 6283TIP3    H218807   1.840   1.181   2.415
 6284TIP3   OH218808   6.952   0.104   2.386
 6284TIP3    H118809   7.004   0.170   2.339
 6284TIP3    H218810   6.897   0.155   2.446
 6285TIP3   OH218811   4.020   4.948   4.783
 6285TIP3    H118812   3.993   4.956   4.692
 6285TIP3    H218813   3.944   4.976   4.833
 6286TIP3   OH218814   6.961   2.039   2.375
 6286TIP3    H118815   6.936   1.947   2.362
 6286TIP3    H218816   6.995   2.066   2.290
 6287TIP3   OH218817   6.916   6.990   5.707
 6287TIP3    H118818   6.897   6.904   5.745
 6287TIP3    H218819   6.925   7.048   5.781
 6288TIP3   OH218820   2.838   2.681   6.647
 6288TIP3    H118821   2.819   2.588   6.652
 6288TIP3    H218822   2.928   2.686   6.616
 6289TIP3   OH218823   2.485   6.505   0.127
 6289TIP3    H118824   2.481   6.428   0.071
 6289TIP3    H218825   2.451   6.476   0.211
 6290TIP3   OH218826   7.712   1.763   3.135
 6290TIP3    H118827   7.733   1.856   3.147
 6290TIP3    H218828   7.648   1.744   3.204
 6291TIP3   OH218829   7.165   0.787   4.465
 6291TIP3    H118830   7.159   0.869   4.418
 6291TIP3    H218831   7.259   0.767   4.469
 6292TIP3   OH218832   3.235   0.380   5.332
 6292TIP3    H118833   3.201   0.412   5.248
 6292TIP3    H218834   3.157   0.352   5.381
 6293TIP3   OH218835   3.113   3.645   0.216
 6293TIP3    H118836   3.170   3.714   0.185
 6293TIP3    H218837   3.172   3.572   0.236
 6294TIP3   OH218838   4.433   2.704   0.942
 6294TIP3    H118839   4.386   2.723   0.861
 6294TIP3    H218840   4.409   2.775   1.001
 6295TIP3   OH218841   7.865   4.120   3.261
 6295TIP3    H118842   7.838   4.081   3.344
 6295TIP3    H218843   7.788   4.169   3.232
 6296TIP3   OH218844   3.812   7.668   5.056
 6296TIP3    H118845   3.744   7.658   4.990
 6296TIP3    H218846   3.839   7.759   5.050
 6297TIP3   OH218847   8.053   3.586   6.278
 6297TIP3    H118848   8.135   3.626   6.248
 6297TIP3    H218849   8.023   3.644   6.348
 6298TIP3   OH218850   2.797   5.205   0.294
 6298TIP3    H118851   2.841   5.255   0.226
 6298TIP3    H218852   2.773   5.123   0.251
 6299TIP3   OH218853   5.330   1.204   1.144
 6299TIP3    H118854   5.344   1.299   1.149
 6299TIP3    H218855   5.289   1.182   1.228
 6300TIP3   OH218856   5.716   0.372   4.957
 6300TIP3    H118857   5.683   0.384   5.046
 6300TIP3    H218858   5.808   0.400   4.962
 6301TIP3   OH218859   2.772   0.376   1.425
 6301TIP3    H118860   2.831   0.445   1.455
 6301TIP3    H218861   2.699   0.423   1.384
 6302TIP3   OH218862   4.471   2.772   4.639
 6302TIP3    H118863   4.461   2.730   4.554
 6302TIP3    H218864   4.381   2.788   4.668
 6303TIP3   OH218865   0.387   3.959   4.971
 6303TIP3    H118866   0.423   4.045   4.950
 6303TIP3    H218867   0.398   3.950   5.065
 6304TIP3   OH218868   1.331   2.213   2.842
 6304TIP3    H118869   1.266   2.213   2.912
 6304TIP3    H218870   1.409   2.173   2.881
 6305TIP3   OH218871   5.604   0.727   2.588
 6305TIP3    H118872   5.599   0.759   2.678
 6305TIP3    H218873   5.514   0.733   2.556
 6306TIP3   OH218874   7.261   1.196   4.969
 6306TIP3    H118875   7.288   1.278   5.009
 6306TIP3    H218876   7.214   1.150   5.038
 6307TIP3   OH218877   5.385   6.356   4.879
 6307TIP3    H118878   5.414   6.438   4.839
 6307TIP3    H218879   5.333   6.384   4.955
 6308TIP3   OH218880   6.179   2.629   1.647
 6308TIP3    H118881   6.234   2.553   1.629
 6308TIP3    H218882   6.229   2.682   1.709
 6309TIP3   OH218883   2.633   1.737   5.956
 6309TIP3    H118884   2.617   1.644   5.940
 6309TIP3    H218885   2.550   1.770   5.989
 6310TIP3   OH218886   7.709   6.918   1.219
 6310TIP3    H118887   7.671   6.873   1.295
 6310TIP3    H218888   7.674   6.870   1.143
 6311TIP3   OH218889   2.277   3.317   4.440
 6311TIP3    H118890   2.368   3.292   4.459
 6311TIP3    H218891   2.274   3.323   4.345
 6312TIP3   OH218892   2.735   4.303   6.284
 6312TIP3    H118893   2.675   4.237   6.318
 6312TIP3    H218894   2.724   4.378   6.343
 6313TIP3   OH218895   6.272   7.205   4.615
 6313TIP3    H118896   6.194   7.258   4.597
 6313TIP3    H218897   6.287   7.217   4.709
 6314TIP3   OH218898   7.181   3.853   5.643
 6314TIP3    H118899   7.239   3.917   5.600
 6314TIP3    H218900   7.240   3.784   5.674
 6315TIP3   OH218901   3.477   4.975   1.723
 6315TIP3    H118902   3.559   4.973   1.773
 6315TIP3    H218903   3.411   4.944   1.786
 6316TIP3   OH218904   7.992   4.026   4.551
 6316TIP3    H118905   8.007   3.955   4.488
 6316TIP3    H218906   7.942   3.985   4.622
 6317TIP3   OH218907   6.921   4.490   5.081
 6317TIP3    H118908   7.015   4.499   5.069
 6317TIP3    H218909   6.886   4.475   4.993
 6318TIP3   OH218910   4.729   6.629   0.291
 6318TIP3    H118911   4.738   6.539   0.258
 6318TIP3    H218912   4.678   6.674   0.223
 6319TIP3   OH218913   3.150   2.162   5.166
 6319TIP3    H118914   3.167   2.072   5.141
 6319TIP3    H218915   3.229   2.210   5.140
 6320TIP3   OH218916   7.867   4.613   1.527
 6320TIP3    H118917   7.955   4.588   1.500
 6320TIP3    H218918   7.873   4.621   1.622
 6321TIP3   OH218919   2.912   2.060   3.637
 6321TIP3    H118920   2.821   2.036   3.624
 6321TIP3    H218921   2.943   2.086   3.551
 6322TIP3   OH218922   4.261   2.018   6.689
 6322TIP3    H118923   4.303   2.069   6.759
 6322TIP3    H218924   4.293   2.058   6.608
 6323TIP3   OH218925   3.996   0.823   1.571
 6323TIP3    H118926   3.965   0.839   1.660
 6323TIP3    H218927   3.941   0.753   1.538
 6324TIP3   OH218928   2.892   1.607   4.606
 6324TIP3    H118929   2.862   1.698   4.600
 6324TIP3    H218930   2.977   1.613   4.648
 6325TIP3   OH218931   7.897   1.494   5.454
 6325TIP3    H118932   7.901   1.417   5.398
 6325TIP3    H218933   7.848   1.465   5.531
 6326TIP3   OH218934   6.131   2.493   3.674
 6326TIP3    H118935   6.071   2.564   3.694
 6326TIP3    H218936   6.213   2.518   3.716
 6327TIP3   OH218937   3.969   1.499   1.107
 6327TIP3    H118938   3.960   1.414   1.149
 6327TIP3    H218939   3.918   1.558   1.163
 6328TIP3   OH218940   7.496   4.200   1.127
 6328TIP3    H118941   7.537   4.126   1.171
 6328TIP3    H218942   7.563   4.232   1.066
 6329TIP3   OH218943   2.731   7.400   1.561
 6329TIP3    H118944   2.739   7.438   1.474
 6329TIP3    H218945   2.821   7.395   1.594
 6330TIP3   OH218946   0.298   1.587   4.791
 6330TIP3    H118947   0.369   1.547   4.841
 6330TIP3    H218948   0.332   1.672   4.764
 6331TIP3   OH218949   0.625   7.716   4.731
 6331TIP3    H118950   0.629   7.771   4.809
 6331TIP3    H218951   0.693   7.650   4.744
 6332TIP3   OH218952   2.883   3.063   1.254
 6332TIP3    H118953   2.909   3.123   1.185
 6332TIP3    H218954   2.908   3.106   1.335
 6333TIP3   OH218955   6.242   6.030   3.836
 6333TIP3    H118956   6.306   5.971   3.797
 6333TIP3    H218957   6.282   6.117   3.828
 6334TIP3   OH218958   0.037   0.338   2.860
 6334TIP3    H118959   0.011   0.264   2.916
 6334TIP3    H218960   0.099   0.299   2.798
 6335TIP3   OH218961   7.395   3.106   0.338
 6335TIP3    H118962   7.450   3.072   0.409
 6335TIP3    H218963   7.306   3.095   0.369
 6336TIP3   OH218964   0.062   1.670   3.655
 6336TIP3    H118965   0.029   1.654   3.744
 6336TIP3    H218966  -0.002   1.728   3.616
 6337TIP3   OH218967   2.301   5.520   2.285
 6337TIP3    H118968   2.215   5.562   2.279
 6337TIP3    H218969   2.284   5.437   2.330
 6338TIP3   OH218970   6.356   6.207   6.679
 6338TIP3    H118971   6.373   6.275   6.745
 6338TIP3    H218972   6.442   6.170   6.659
 6339TIP3   OH218973   7.633   5.428   3.941
 6339TIP3    H118974   7.648   5.514   3.981
 6339TIP3    H218975   7.595   5.447   3.856
 6340TIP3   OH218976   2.753   1.065   0.525
 6340TIP3    H118977   2.742   1.066   0.620
 6340TIP3    H218978   2.778   1.154   0.502
 6341TIP3   OH218979   2.055   4.343   1.767
 6341TIP3    H118980   2.042   4.437   1.781
 6341TIP3    H218981   2.045   4.304   1.854
 6342TIP3   OH218982   2.119   6.651   0.671
 6342TIP3    H118983   2.205   6.678   0.638
 6342TIP3    H218984   2.139   6.593   0.744
 6343TIP3   OH218985   3.941   2.842   1.315
 6343TIP3    H118986   3.936   2.904   1.388
 6343TIP3    H218987   3.882   2.771   1.340
 6344TIP3   OH218988   0.029   6.743   0.240
 6344TIP3    H118989   0.098   6.684   0.271
 6344TIP3    H218990  -0.019   6.691   0.176
 6345TIP3   OH218991   5.705   6.677   5.468
 6345TIP3    H118992   5.787   6.628   5.464
 6345TIP3    H218993   5.727   6.764   5.437
 6346TIP3   OH218994   4.726   4.774   3.960
 6346TIP3    H118995   4.644   4.793   4.006
 6346TIP3    H218996   4.744   4.682   3.980
 6347TIP3   OH218997   1.399   0.210   5.727
 6347TIP3    H118998   1.433   0.250   5.646
 6347TIP3    H218999   1.441   0.258   5.797
 6348TIP3   OH219000   1.374   0.401   0.725
 6348TIP3    H119001   1.303   0.428   0.667
 6348TIP3    H219002   1.440   0.470   0.718
 6349TIP3   OH219003   0.158   2.799   2.167
 6349TIP3    H119004   0.079   2.839   2.129
 6349TIP3    H219005   0.163   2.837   2.255
 6350TIP3   OH219006   0.755   4.294   6.032
 6350TIP3    H119007   0.840   4.337   6.041
 6350TIP3    H219008   0.700   4.358   5.987
 6351TIP3   OH219009   1.501   6.656   4.913
 6351TIP3    H119010   1.504   6.729   4.975
 6351TIP3    H219011   1.557   6.590   4.951
 6352TIP3   OH219012   1.726   3.035   4.263
 6352TIP3    H119013   1.633   3.053   4.275
 6352TIP3    H219014   1.728   2.958   4.207
 6353TIP3   OH219015   1.026   4.703   0.127
 6353TIP3    H119016   1.015   4.609   0.143
 6353TIP3    H219017   0.979   4.745   0.199
 6354TIP3   OH219018   6.280   5.333   5.391
 6354TIP3    H119019   6.356   5.292   5.433
 6354TIP3    H219020   6.313   5.416   5.358
 6355TIP3   OH219021   3.993   7.461   1.151
 6355TIP3    H119022   3.926   7.473   1.084
 6355TIP3    H219023   4.074   7.491   1.109
 6356TIP3   OH219024   3.678   4.374   6.712
 6356TIP3    H119025   3.664   4.343   6.802
 6356TIP3    H219026   3.737   4.448   6.721
 6357TIP3   OH219027   1.649   4.267   0.965
 6357TIP3    H119028   1.559   4.250   0.937
 6357TIP3    H219029   1.647   4.354   1.004
 6358TIP3   OH219030   1.841   0.884   5.569
 6358TIP3    H119031   1.928   0.920   5.584
 6358TIP3    H219032   1.844   0.796   5.606
 6359TIP3   OH219033   2.745   7.058   5.280
 6359TIP3    H119034   2.701   7.141   5.296
 6359TIP3    H219035   2.835   7.082   5.256
 6360TIP3   OH219036   4.439   3.461   0.041
 6360TIP3    H119037   4.350   3.489   0.064
 6360TIP3    H219038   4.440   3.368   0.059
 6361TIP3   OH219039   4.010   0.646   4.970
 6361TIP3    H119040   4.105   0.632   4.972
 6361TIP3    H219041   3.978   0.602   5.049
 6362TIP3   OH219042   1.190   2.797   5.173
 6362TIP3    H119043   1.252   2.761   5.236
 6362TIP3    H219044   1.172   2.885   5.205
 6363TIP3   OH219045   8.322   1.936   0.264
 6363TIP3    H119046   8.285   1.853   0.235
 6363TIP3    H219047   8.285   1.949   0.352
 6364TIP3   OH219048   4.220   2.576   6.386
 6364TIP3    H119049   4.139   2.611   6.350
 6364TIP3    H219050   4.277   2.563   6.310
 6365TIP3   OH219051   7.755   3.237   1.181
 6365TIP3    H119052   7.843   3.262   1.211
 6365TIP3    H219053   7.749   3.144   1.200
 6366TIP3   OH219054   7.203   1.522   5.590
 6366TIP3    H119055   7.247   1.446   5.628
 6366TIP3    H219056   7.187   1.497   5.499
 6367TIP3   OH219057   5.044   3.339   3.172
 6367TIP3    H119058   5.093   3.292   3.239
 6367TIP3    H219059   4.959   3.357   3.213
 6368TIP3   OH219060   5.123   5.200   3.176
 6368TIP3    H119061   5.105   5.138   3.247
 6368TIP3    H219062   5.185   5.154   3.120
 6369TIP3   OH219063   5.818   5.999   1.516
 6369TIP3    H119064   5.725   6.011   1.499
 6369TIP3    H219065   5.822   5.928   1.580
 6370TIP3   OH219066   1.680   5.513   5.945
 6370TIP3    H119067   1.715   5.590   5.901
 6370TIP3    H219068   1.649   5.547   6.030
 6371TIP3   OH219069   1.478   5.807   6.370
 6371TIP3    H119070   1.488   5.712   6.364
 6371TIP3    H219071   1.405   5.827   6.312
 6372TIP3   OH219072   3.440   2.113   2.780
 6372TIP3    H119073   3.486   2.084   2.858
 6372TIP3    H219074   3.347   2.099   2.799
 6373TIP3   OH219075   7.514   2.516   4.851
 6373TIP3    H119076   7.512   2.550   4.761
 6373TIP3    H219077   7.468   2.432   4.846
 6374TIP3   OH219078   4.699   0.798   2.952
 6374TIP3    H119079   4.730   0.718   2.910
 6374TIP3    H219080   4.675   0.856   2.879
 6375TIP3   OH219081   3.102   3.872   4.823
 6375TIP3    H119082   3.179   3.920   4.792
 6375TIP3    H219083   3.122   3.780   4.803
 6376TIP3   OH219084   5.738   6.745   5.087
 6376TIP3    H119085   5.765   6.831   5.054
 6376TIP3    H219086   5.712   6.761   5.178
 6377TIP3   OH219087   3.604   5.785   4.851
 6377TIP3    H119088   3.672   5.741   4.800
 6377TIP3    H219089   3.581   5.862   4.799
 6378TIP3   OH219090   2.614   6.667   6.746
 6378TIP3    H119091   2.636   6.682   6.654
 6378TIP3    H219092   2.546   6.732   6.765
 6379TIP3   OH219093   5.430   0.223   1.721
 6379TIP3    H119094   5.406   0.307   1.682
 6379TIP3    H219095   5.500   0.244   1.783
 6380TIP3   OH219096   5.087   1.566   1.621
 6380TIP3    H119097   5.090   1.518   1.538
 6380TIP3    H219098   5.169   1.544   1.665
 6381TIP3   OH219099   7.126   5.343   0.916
 6381TIP3    H119100   7.173   5.271   0.958
 6381TIP3    H219101   7.138   5.328   0.822
 6382TIP3   OH219102   0.839   2.198   5.107
 6382TIP3    H119103   0.792   2.276   5.076
 6382TIP3    H219104   0.930   2.214   5.083
 6383TIP3   OH219105   1.263   3.650   3.311
 6383TIP3    H119106   1.268   3.740   3.344
 6383TIP3    H219107   1.171   3.625   3.324
 6384TIP3   OH219108   6.671   4.224   4.254
 6384TIP3    H119109   6.754   4.261   4.284
 6384TIP3    H219110   6.647   4.278   4.178
 6385TIP3   OH219111   4.144   7.073   5.282
 6385TIP3    H119112   4.092   7.144   5.244
 6385TIP3    H219113   4.234   7.091   5.255
 6386TIP3   OH219114   7.444   7.392   3.788
 6386TIP3    H119115   7.473   7.483   3.785
 6386TIP3    H219116   7.520   7.342   3.758
 6387TIP3   OH219117   6.895   7.075   4.768
 6387TIP3    H119118   6.981   7.091   4.730
 6387TIP3    H219119   6.897   6.983   4.794
 6388TIP3   OH219120   5.747   2.115   3.551
 6388TIP3    H119121   5.791   2.192   3.586
 6388TIP3    H219122   5.657   2.123   3.582
 6389TIP3   OH219123   6.013   7.201   2.279
 6389TIP3    H119124   5.924   7.202   2.244
 6389TIP3    H219125   6.002   7.199   2.374
 6390TIP3   OH219126   7.567   4.303   4.143
 6390TIP3    H119127   7.526   4.323   4.227
 6390TIP3    H219128   7.649   4.354   4.143
 6391TIP3   OH219129   1.295   1.595   3.038
 6391TIP3    H119130   1.314   1.689   3.038
 6391TIP3    H219131   1.209   1.588   2.997
 6392TIP3   OH219132   0.775   2.448   6.545
 6392TIP3    H119133   0.801   2.433   6.636
 6392TIP3    H219134   0.770   2.543   6.538
 6393TIP3   OH219135   3.780   6.932   2.352
 6393TIP3    H119136   3.802   6.914   2.444
 6393TIP3    H219137   3.864   6.930   2.307
 6394TIP3   OH219138   6.123   1.011   2.317
 6394TIP3    H119139   6.190   1.021   2.384
 6394TIP3    H219140   6.169   1.023   2.234
 6395TIP3   OH219141   7.819   1.393   4.962
 6395TIP3    H119142   7.862   1.358   5.040
 6395TIP3    H219143   7.848   1.484   4.958
 6396TIP3   OH219144   6.695   1.412   2.858
 6396TIP3    H119145   6.739   1.356   2.922
 6396TIP3    H219146   6.684   1.495   2.904
 6397TIP3   OH219147   6.768   2.326   2.120
 6397TIP3    H119148   6.859   2.314   2.147
 6397TIP3    H219149   6.736   2.399   2.173
 6398TIP3   OH219150   5.483   2.958   4.390
 6398TIP3    H119151   5.388   2.965   4.400
 6398TIP3    H219152   5.499   2.865   4.374
 6399TIP3   OH219153   3.738   5.526   0.847
 6399TIP3    H119154   3.692   5.522   0.763
 6399TIP3    H219155   3.828   5.550   0.824
 6400TIP3   OH219156   1.761   0.052   5.963
 6400TIP3    H119157   1.813  -0.028   5.966
 6400TIP3    H219158   1.733   0.065   6.053
 6401TIP3   OH219159   6.343   7.227   0.514
 6401TIP3    H119160   6.249   7.228   0.496
 6401TIP3    H219161   6.362   7.316   0.544
 6402TIP3   OH219162   6.504   4.150   4.517
 6402TIP3    H119163   6.530   4.206   4.591
 6402TIP3    H219164   6.415   4.123   4.537
 6403TIP3   OH219165   3.077   7.117   1.394
 6403TIP3    H119166   3.086   7.051   1.463
 6403TIP3    H219167   3.160   7.113   1.346
 6404TIP3   OH219168   5.890   5.519   3.792
 6404TIP3    H119169   5.812   5.482   3.833
 6404TIP3    H219170   5.882   5.496   3.699
 6405TIP3   OH219171   3.625   5.589   5.838
 6405TIP3    H119172   3.673   5.554   5.763
 6405TIP3    H219173   3.673   5.669   5.861
 6406TIP3   OH219174   1.890   0.807   5.264
 6406TIP3    H119175   1.917   0.857   5.188
 6406TIP3    H219176   1.849   0.728   5.227
 6407TIP3   OH219177   7.017   6.544   6.023
 6407TIP3    H119178   6.964   6.465   6.038
 6407TIP3    H219179   7.068   6.554   6.104
 6408TIP3   OH219180   2.093   7.429   3.828
 6408TIP3    H119181   2.181   7.463   3.815
 6408TIP3    H219182   2.040   7.506   3.847
 6409TIP3   OH219183   7.119   1.813   4.236
 6409TIP3    H119184   7.054   1.878   4.210
 6409TIP3    H219185   7.121   1.819   4.332
 6410TIP3   OH219186   7.035   5.946   0.391
 6410TIP3    H119187   6.988   5.996   0.458
 6410TIP3    H219188   7.076   5.875   0.440
 6411TIP3   OH219189   6.371   3.214   1.218
 6411TIP3    H119190   6.463   3.190   1.203
 6411TIP3    H219191   6.342   3.153   1.286
 6412TIP3   OH219192   7.363   3.067   0.695
 6412TIP3    H119193   7.433   3.036   0.638
 6412TIP3    H219194   7.311   2.989   0.714
 6413TIP3   OH219195   4.781   1.052   5.371
 6413TIP3    H119196   4.839   1.124   5.395
 6413TIP3    H219197   4.701   1.094   5.342
 6414TIP3   OH219198   3.937   2.935   6.579
 6414TIP3    H119199   3.886   2.879   6.636
 6414TIP3    H219200   3.877   2.960   6.509
 6415TIP3   OH219201   8.002   7.042   4.249
 6415TIP3    H119202   8.025   6.987   4.174
 6415TIP3    H219203   8.000   7.131   4.215
 6416TIP3   OH219204   2.368   5.259   4.522
 6416TIP3    H119205   2.287   5.293   4.559
 6416TIP3    H219206   2.422   5.337   4.505
 6417TIP3   OH219207   2.637   3.703   1.766
 6417TIP3    H119208   2.555   3.750   1.784
 6417TIP3    H219209   2.642   3.636   1.833
 6418TIP3   OH219210   6.966   5.566   1.019
 6418TIP3    H119211   6.955   5.550   0.925
 6418TIP3    H219212   6.909   5.640   1.037
 6419TIP3   OH219213   1.878   5.794   2.961
 6419TIP3    H119214   1.792   5.802   2.920
 6419TIP3    H219215   1.892   5.699   2.967
 6420TIP3   OH219216   4.691   7.449   3.490
 6420TIP3    H119217   4.597   7.443   3.503
 6420TIP3    H219218   4.715   7.535   3.524
 6421TIP3   OH219219   2.835   0.428   5.226
 6421TIP3    H119220   2.873   0.379   5.299
 6421TIP3    H219221   2.860   0.379   5.148
 6422TIP3   OH219222   5.997   5.264   1.529
 6422TIP3    H119223   5.952   5.335   1.575
 6422TIP3    H219224   6.002   5.293   1.438
 6423TIP3   OH219225   5.865   2.737   5.905
 6423TIP3    H119226   5.830   2.648   5.900
 6423TIP3    H219227   5.806   2.783   5.964
 6424TIP3   OH219228   0.509   2.397   6.510
 6424TIP3    H119229   0.587   2.442   6.479
 6424TIP3    H219230   0.516   2.398   6.605
 6425TIP3   OH219231   5.764   6.195   1.809
 6425TIP3    H119232   5.797   6.218   1.722
 6425TIP3    H219233   5.798   6.106   1.824
 6426TIP3   OH219234   4.574   6.277   3.332
 6426TIP3    H119235   4.643   6.279   3.398
 6426TIP3    H219236   4.559   6.184   3.317
 6427TIP3   OH219237   2.921   6.788   4.203
 6427TIP3    H119238   2.883   6.839   4.275
 6427TIP3    H219239   3.000   6.835   4.179
 6428TIP3   OH219240   3.171   2.249   1.639
 6428TIP3    H119241   3.151   2.296   1.720
 6428TIP3    H219242   3.136   2.161   1.653
 6429TIP3   OH219243   2.239   2.243   2.423
 6429TIP3    H119244   2.177   2.306   2.461
 6429TIP3    H219245   2.310   2.238   2.487
 6430TIP3   OH219246   6.009   3.921   4.817
 6430TIP3    H119247   5.975   3.938   4.729
 6430TIP3    H219248   5.932   3.924   4.874
 6431TIP3   OH219249   0.418   6.708   0.613
 6431TIP3    H119250   0.375   6.749   0.538
 6431TIP3    H219251   0.491   6.660   0.575
 6432TIP3   OH219252   4.088   0.009   4.701
 6432TIP3    H119253   4.100   0.036   4.610
 6432TIP3    H219254   4.007  -0.043   4.700
 6433TIP3   OH219255   0.490   5.176   0.936
 6433TIP3    H119256   0.461   5.087   0.916
 6433TIP3    H219257   0.558   5.165   1.003
 6434TIP3   OH219258   6.315   5.677   2.512
 6434TIP3    H119259   6.329   5.604   2.451
 6434TIP3    H219260   6.375   5.745   2.482
 6435TIP3   OH219261   1.152   1.028   1.927
 6435TIP3    H119262   1.137   1.088   1.854
 6435TIP3    H219263   1.129   0.942   1.892
 6436TIP3   OH219264   8.111   3.450   6.535
 6436TIP3    H119265   8.127   3.473   6.443
 6436TIP3    H219266   8.164   3.512   6.584
 6437TIP3   OH219267   7.254   2.464   5.709
 6437TIP3    H119268   7.219   2.427   5.790
 6437TIP3    H219269   7.349   2.453   5.717
 6438TIP3   OH219270   0.800   1.379   1.670
 6438TIP3    H119271   0.814   1.405   1.579
 6438TIP3    H219272   0.751   1.452   1.708
 6439TIP3   OH219273   1.404   1.137   0.754
 6439TIP3    H119274   1.422   1.230   0.739
 6439TIP3    H219275   1.333   1.116   0.694
 6440TIP3   OH219276   3.847   4.317   2.544
 6440TIP3    H119277   3.865   4.223   2.535
 6440TIP3    H219278   3.779   4.322   2.612
 6441TIP3   OH219279   7.681   4.158   5.141
 6441TIP3    H119280   7.728   4.078   5.165
 6441TIP3    H219281   7.615   4.168   5.210
 6442TIP3   OH219282   3.213   3.668   0.526
 6442TIP3    H119283   3.303   3.665   0.559
 6442TIP3    H219284   3.221   3.648   0.433
 6443TIP3   OH219285   7.550   0.200   0.738
 6443TIP3    H119286   7.537   0.244   0.821
 6443TIP3    H219287   7.643   0.213   0.718
 6444TIP3   OH219288   1.305   2.350   5.172
 6444TIP3    H119289   1.385   2.395   5.197
 6444TIP3    H219290   1.246   2.361   5.247
 6445TIP3   OH219291   5.739   3.092   6.396
 6445TIP3    H119292   5.761   3.022   6.457
 6445TIP3    H219293   5.702   3.161   6.451
 6446TIP3   OH219294   8.120   5.857   0.131
 6446TIP3    H119295   8.057   5.829   0.065
 6446TIP3    H219296   8.066   5.883   0.206
 6447TIP3   OH219297   5.544   5.095   4.182
 6447TIP3    H119298   5.539   5.024   4.245
 6447TIP3    H219299   5.531   5.174   4.234
 6448TIP3   OH219300   4.519   2.886   6.225
 6448TIP3    H119301   4.456   2.848   6.286
 6448TIP3    H219302   4.600   2.892   6.276
 6449TIP3   OH219303   7.270   3.116   0.105
 6449TIP3    H119304   7.344   3.110   0.165
 6449TIP3    H219305   7.236   3.205   0.118
 6450TIP3   OH219306   4.629   6.067   4.280
 6450TIP3    H119307   4.567   6.120   4.229
 6450TIP3    H219308   4.643   5.989   4.226
 6451TIP3   OH219309   7.101   6.345   2.659
 6451TIP3    H119310   7.012   6.364   2.632
 6451TIP3    H219311   7.095   6.261   2.705
 6452TIP3   OH219312   4.353   3.579   2.729
 6452TIP3    H119313   4.307   3.511   2.680
 6452TIP3    H219314   4.301   3.589   2.810
 6453TIP3   OH219315   2.723   4.521   6.456
 6453TIP3    H119316   2.802   4.576   6.463
 6453TIP3    H219317   2.665   4.570   6.399
 6454TIP3   OH219318   1.017   6.244   6.557
 6454TIP3    H119319   0.941   6.251   6.498
 6454TIP3    H219320   1.016   6.325   6.607
 6455TIP3   OH219321   0.110   3.195   3.748
 6455TIP3    H119322   0.065   3.141   3.814
 6455TIP3    H219323   0.180   3.238   3.797
 6456TIP3   OH219324   0.595   2.452   3.815
 6456TIP3    H119325   0.568   2.465   3.906
 6456TIP3    H219326   0.548   2.373   3.788
 6457TIP3   OH219327   1.323   4.695   1.882
 6457TIP3    H119328   1.267   4.626   1.845
 6457TIP3    H219329   1.279   4.776   1.859
 6458TIP3   OH219330   5.808   4.040   1.762
 6458TIP3    H119331   5.782   4.095   1.836
 6458TIP3    H219332   5.893   4.005   1.787
 6459TIP3   OH219333   5.057   4.575   3.030
 6459TIP3    H119334   4.989   4.607   3.088
 6459TIP3    H219335   5.122   4.646   3.026
 6460TIP3   OH219336   1.279   7.534   3.937
 6460TIP3    H119337   1.299   7.535   4.031
 6460TIP3    H219338   1.276   7.441   3.914
 6461TIP3   OH219339   3.051   3.425   0.548
 6461TIP3    H119340   3.077   3.518   0.552
 6461TIP3    H219341   2.994   3.420   0.472
 6462TIP3   OH219342   5.601   1.663   6.301
 6462TIP3    H119343   5.506   1.654   6.302
 6462TIP3    H219344   5.630   1.621   6.382
 6463TIP3   OH219345   6.429   3.288   3.360
 6463TIP3    H119346   6.522   3.283   3.341
 6463TIP3    H219347   6.411   3.382   3.371
 6464TIP3   OH219348   7.302   0.420   6.061
 6464TIP3    H119349   7.393   0.393   6.071
 6464TIP3    H219350   7.270   0.369   5.985
 6465TIP3   OH219351   5.320   7.376  -0.001
 6465TIP3    H119352   5.233   7.338   0.001
 6465TIP3    H219353   5.365   7.335   0.073
 6466TIP3   OH219354   7.429   0.423   3.327
 6466TIP3    H119355   7.451   0.336   3.293
 6466TIP3    H219356   7.354   0.408   3.384
 6467TIP3   OH219357   5.198   6.415   6.518
 6467TIP3    H119358   5.294   6.421   6.523
 6467TIP3    H219359   5.174   6.357   6.590
 6468TIP3   OH219360   0.231   5.585   0.778
 6468TIP3    H119361   0.141   5.560   0.759
 6468TIP3    H219362   0.263   5.519   0.839
 6469TIP3   OH219363   1.812   5.932   1.660
 6469TIP3    H119364   1.829   6.022   1.633
 6469TIP3    H219365   1.875   5.916   1.730
 6470TIP3   OH219366   3.233   5.000   6.048
 6470TIP3    H119367   3.254   5.058   5.975
 6470TIP3    H219368   3.231   5.057   6.124
 6471TIP3   OH219369   4.997   4.757   4.416
 6471TIP3    H119370   4.925   4.710   4.458
 6471TIP3    H219371   5.034   4.695   4.354
 6472TIP3   OH219372   0.164   3.071   6.252
 6472TIP3    H119373   0.256   3.062   6.225
 6472TIP3    H219374   0.119   3.000   6.206
 6473TIP3   OH219375   1.433   5.386   3.027
 6473TIP3    H119376   1.393   5.473   3.021
 6473TIP3    H219377   1.451   5.374   3.120
 6474TIP3   OH219378   3.877   7.034   6.730
 6474TIP3    H119379   3.831   7.108   6.769
 6474TIP3    H219380   3.939   7.074   6.669
 6475TIP3   OH219381   5.450   3.152   5.565
 6475TIP3    H119382   5.400   3.234   5.572
 6475TIP3    H219383   5.407   3.104   5.494
 6476TIP3   OH219384   7.320   3.920   2.676
 6476TIP3    H119385   7.370   3.946   2.599
 6476TIP3    H219386   7.268   3.845   2.648
 6477TIP3   OH219387   1.166   2.107   3.428
 6477TIP3    H119388   1.137   2.061   3.350
 6477TIP3    H219389   1.246   2.153   3.401
 6478TIP3   OH219390   5.407   1.417   2.155
 6478TIP3    H119391   5.405   1.477   2.230
 6478TIP3    H219392   5.331   1.442   2.102
 6479TIP3   OH219393   3.737   5.191   5.212
 6479TIP3    H119394   3.774   5.131   5.147
 6479TIP3    H219395   3.802   5.262   5.218
 6480TIP3   OH219396   7.323   3.593   2.896
 6480TIP3    H119397   7.395   3.645   2.860
 6480TIP3    H219398   7.326   3.609   2.990
 6481TIP3   OH219399   4.216   2.713   0.765
 6481TIP3    H119400   4.131   2.749   0.741
 6481TIP3    H219401   4.203   2.618   0.766
 6482TIP3   OH219402   2.925   4.989   4.748
 6482TIP3    H119403   2.897   5.005   4.658
 6482TIP3    H219404   3.019   5.007   4.748
 6483TIP3   OH219405   3.017   1.832   4.312
 6483TIP3    H119406   2.936   1.811   4.266
 6483TIP3    H219407   3.079   1.764   4.284
 6484TIP3   OH219408   7.936   0.884   4.195
 6484TIP3    H119409   7.940   0.961   4.252
 6484TIP3    H219410   7.910   0.812   4.254
 6485TIP3   OH219411   1.922   1.919   1.464
 6485TIP3    H119412   1.962   1.935   1.550
 6485TIP3    H219413   1.981   1.960   1.402
 6486TIP3   OH219414   1.008   2.035   3.972
 6486TIP3    H119415   0.952   1.996   4.039
 6486TIP3    H219416   0.977   2.125   3.965
 6487TIP3   OH219417   2.750   3.038   6.298
 6487TIP3    H119418   2.713   3.126   6.303
 6487TIP3    H219419   2.766   3.024   6.205
 6488TIP3   OH219420   2.900   0.095   1.006
 6488TIP3    H119421   2.987   0.124   1.035
 6488TIP3    H219422   2.888   0.010   1.048
 6489TIP3   OH219423   4.326   4.284   4.616
 6489TIP3    H119424   4.252   4.255   4.564
 6489TIP3    H219425   4.287   4.330   4.691
 6490TIP3   OH219426   3.478   2.684   1.264
 6490TIP3    H119427   3.419   2.618   1.301
 6490TIP3    H219428   3.480   2.753   1.331
 6491TIP3   OH219429   4.680   3.261   0.531
 6491TIP3    H119430   4.697   3.288   0.622
 6491TIP3    H219431   4.732   3.322   0.478
 6492TIP3   OH219432   8.188   1.933   5.197
 6492TIP3    H119433   8.249   1.996   5.159
 6492TIP3    H219434   8.128   1.986   5.250
 6493TIP3   OH219435   1.032   0.169   0.756
 6493TIP3    H119436   1.127   0.168   0.768
 6493TIP3    H219437   1.004   0.080   0.777
 6494TIP3   OH219438   7.723   5.124   0.275
 6494TIP3    H119439   7.759   5.201   0.230
 6494TIP3    H219440   7.709   5.153   0.365
 6495TIP3   OH219441   3.590   4.041   2.070
 6495TIP3    H119442   3.533   4.101   2.118
 6495TIP3    H219443   3.666   4.094   2.045
 6496TIP3   OH219444   0.841   5.604   3.741
 6496TIP3    H119445   0.807   5.681   3.787
 6496TIP3    H219446   0.764   5.563   3.703
 6497TIP3   OH219447   1.927   6.484   1.575
 6497TIP3    H119448   1.841   6.519   1.550
 6497TIP3    H219449   1.955   6.540   1.648
 6498TIP3   OH219450   5.777   4.819   3.067
 6498TIP3    H119451   5.865   4.829   3.103
 6498TIP3    H219452   5.790   4.783   2.980
 6499TIP3   OH219453   4.892   0.083   5.503
 6499TIP3    H119454   4.870   0.148   5.570
 6499TIP3    H219455   4.944   0.018   5.549
 6500TIP3   OH219456   6.838   5.019   2.658
 6500TIP3    H119457   6.822   4.987   2.746
 6500TIP3    H219458   6.917   5.073   2.666
 6501TIP3   OH219459   0.520   5.515   5.644
 6501TIP3    H119460   0.606   5.506   5.604
 6501TIP3    H219461   0.485   5.597   5.609
 6502TIP3   OH219462   0.270   0.633   6.112
 6502TIP3    H119463   0.330   0.684   6.057
 6502TIP3    H219464   0.213   0.698   6.152
 6503TIP3   OH219465   2.135   4.857   5.997
 6503TIP3    H119466   2.123   4.952   6.002
 6503TIP3    H219467   2.172   4.842   5.910
 6504TIP3   OH219468   3.433   6.128   1.950
 6504TIP3    H119469   3.468   6.044   1.920
 6504TIP3    H219470   3.361   6.147   1.890
 6505TIP3   OH219471   0.336   2.236   6.355
 6505TIP3    H119472   0.379   2.293   6.419
 6505TIP3    H219473   0.338   2.149   6.395
 6506TIP3   OH219474   3.697   6.669   0.880
 6506TIP3    H119475   3.700   6.759   0.914
 6506TIP3    H219476   3.723   6.676   0.789
 6507TIP3   OH219477   8.153   7.406   3.521
 6507TIP3    H119478   8.225   7.387   3.581
 6507TIP3    H219479   8.076   7.413   3.577
 6508TIP3   OH219480   4.018   4.320   5.971
 6508TIP3    H119481   3.949   4.323   6.037
 6508TIP3    H219482   4.035   4.227   5.958
 6509TIP3   OH219483   2.775   0.759   2.778
 6509TIP3    H119484   2.765   0.854   2.791
 6509TIP3    H219485   2.753   0.721   2.864
 6510TIP3   OH219486   5.289   2.921   2.285
 6510TIP3    H119487   5.348   2.888   2.218
 6510TIP3    H219488   5.202   2.907   2.250
 6511TIP3   OH219489   6.156   0.224   1.923
 6511TIP3    H119490   6.143   0.217   1.829
 6511TIP3    H219491   6.079   0.271   1.955
 6512TIP3   OH219492   6.116   6.854   0.337
 6512TIP3    H119493   6.024   6.867   0.314
 6512TIP3    H219494   6.161   6.931   0.302
 6513TIP3   OH219495   0.211   3.892   6.610
 6513TIP3    H119496   0.186   3.855   6.695
 6513TIP3    H219497   0.200   3.987   6.621
 6514TIP3   OH219498   6.581   0.902   1.417
 6514TIP3    H119499   6.534   0.819   1.421
 6514TIP3    H219500   6.545   0.946   1.340
 6515TIP3   OH219501   3.293   6.937   5.739
 6515TIP3    H119502   3.219   6.994   5.760
 6515TIP3    H219503   3.359   6.958   5.804
 6516TIP3   OH219504   3.137   6.506   3.012
 6516TIP3    H119505   3.154   6.495   2.919
 6516TIP3    H219506   3.138   6.601   3.026
 6517TIP3   OH219507   6.881   6.742   6.689
 6517TIP3    H119508   6.880   6.647   6.676
 6517TIP3    H219509   6.801   6.772   6.645
 6518TIP3   OH219510   3.799   2.654   1.461
 6518TIP3    H119511   3.765   2.583   1.515
 6518TIP3    H219512   3.743   2.729   1.482
 6519TIP3   OH219513   7.206   5.519   2.204
 6519TIP3    H119514   7.154   5.570   2.142
 6519TIP3    H219515   7.142   5.463   2.249
 6520TIP3   OH219516   0.349   1.062   0.064
 6520TIP3    H119517   0.424   1.080   0.121
 6520TIP3    H219518   0.387   1.016  -0.011
 6521TIP3   OH219519   1.375   6.464   3.780
 6521TIP3    H119520   1.408   6.431   3.696
 6521TIP3    H219521   1.398   6.557   3.780
 6522TIP3   OH219522   8.175   4.244   0.068
 6522TIP3    H119523   8.136   4.221   0.152
 6522TIP3    H219524   8.103   4.237   0.005
 6523TIP3   OH219525   0.726   6.815   0.026
 6523TIP3    H119526   0.746   6.901  -0.009
 6523TIP3    H219527   0.790   6.801   0.095
 6524TIP3   OH219528   0.307   1.782   3.689
 6524TIP3    H119529   0.276   1.867   3.722
 6524TIP3    H219530   0.227   1.730   3.678
 6525TIP3   OH219531   0.711   2.210   4.221
 6525TIP3    H119532   0.660   2.283   4.257
 6525TIP3    H219533   0.724   2.151   4.295
 6526TIP3   OH219534   4.390   6.970   6.413
 6526TIP3    H119535   4.445   7.027   6.359
 6526TIP3    H219536   4.405   6.999   6.503
 6527TIP3   OH219537   5.359   3.047   5.330
 6527TIP3    H119538   5.333   2.956   5.315
 6527TIP3    H219539   5.318   3.096   5.259
 6528TIP3   OH219540   4.383   1.195   3.625
 6528TIP3    H119541   4.308   1.154   3.669
 6528TIP3    H219542   4.443   1.123   3.609
 6529TIP3   OH219543   2.439   4.396   5.204
 6529TIP3    H119544   2.408   4.486   5.215
 6529TIP3    H219545   2.525   4.396   5.246
 6530TIP3   OH219546   6.774   4.444   2.931
 6530TIP3    H119547   6.850   4.386   2.930
 6530TIP3    H219548   6.737   4.437   2.843
 6531TIP3   OH219549   3.180   5.711   5.411
 6531TIP3    H119550   3.226   5.655   5.474
 6531TIP3    H219551   3.242   5.782   5.393
 6532TIP3   OH219552   1.045   7.645   5.906
 6532TIP3    H119553   1.140   7.660   5.906
 6532TIP3    H219554   1.025   7.622   5.815
 6533TIP3   OH219555   0.394   6.746   2.283
 6533TIP3    H119556   0.337   6.703   2.347
 6533TIP3    H219557   0.437   6.816   2.333
 6534TIP3   OH219558   7.054   3.283   3.753
 6534TIP3    H119559   7.070   3.305   3.661
 6534TIP3    H219560   6.973   3.231   3.752
 6535TIP3   OH219561   6.805   6.255   6.460
 6535TIP3    H119562   6.858   6.177   6.478
 6535TIP3    H219563   6.867   6.328   6.461
 6536TIP3   OH219564   5.420   6.950   5.731
 6536TIP3    H119565   5.449   6.902   5.809
 6536TIP3    H219566   5.496   6.949   5.672
 6537TIP3   OH219567   4.069   1.454   0.056
 6537TIP3    H119568   4.123   1.519   0.010
 6537TIP3    H219569   4.042   1.498   0.136
 6538TIP3   OH219570   0.087   1.750   2.727
 6538TIP3    H119571   0.150   1.797   2.672
 6538TIP3    H219572   0.135   1.673   2.757
 6539TIP3   OH219573   6.887   6.823   4.600
 6539TIP3    H119574   6.841   6.878   4.537
 6539TIP3    H219575   6.978   6.825   4.572
 6540TIP3   OH219576   6.321   2.661   5.258
 6540TIP3    H119577   6.263   2.716   5.205
 6540TIP3    H219578   6.372   2.611   5.194
 6541TIP3   OH219579   2.126   0.850   0.233
 6541TIP3    H119580   2.049   0.903   0.249
 6541TIP3    H219581   2.125   0.835   0.138
 6542TIP3   OH219582   0.468   1.112   3.532
 6542TIP3    H119583   0.436   1.171   3.600
 6542TIP3    H219584   0.559   1.139   3.518
 6543TIP3   OH219585   5.351   5.197   0.731
 6543TIP3    H119586   5.314   5.131   0.673
 6543TIP3    H219587   5.402   5.146   0.795
 6544TIP3   OH219588   5.679   7.593   0.549
 6544TIP3    H119589   5.744   7.522   0.548
 6544TIP3    H219590   5.732   7.673   0.551
 6545TIP3   OH219591   5.942   5.281   2.180
 6545TIP3    H119592   5.964   5.192   2.206
 6545TIP3    H219593   5.907   5.321   2.260
 6546TIP3   OH219594   6.034   3.829   1.287
 6546TIP3    H119595   5.948   3.798   1.255
 6546TIP3    H219596   6.024   3.923   1.297
 6547TIP3   OH219597   8.022   0.873   3.793
 6547TIP3    H119598   8.086   0.813   3.757
 6547TIP3    H219599   7.985   0.827   3.869
 6548TIP3   OH219600   0.820   0.934   0.206
 6548TIP3    H119601   0.906   0.971   0.227
 6548TIP3    H219602   0.769   0.946   0.286
 6549TIP3   OH219603   7.321   1.267   5.970
 6549TIP3    H119604   7.410   1.287   5.999
 6549TIP3    H219605   7.288   1.349   5.933
 6550TIP3   OH219606   1.127   5.818   1.541
 6550TIP3    H119607   1.195   5.868   1.587
 6550TIP3    H219608   1.098   5.876   1.470
 6551TIP3   OH219609   0.675   7.341   3.542
 6551TIP3    H119610   0.602   7.370   3.488
 6551TIP3    H219611   0.738   7.306   3.479
 6552TIP3   OH219612   3.793   5.239   1.464
 6552TIP3    H119613   3.721   5.186   1.430
 6552TIP3    H219614   3.821   5.291   1.390
 6553TIP3   OH219615   7.560   3.750   5.205
 6553TIP3    H119616   7.480   3.703   5.183
 6553TIP3    H219617   7.551   3.771   5.298
 6554TIP3   OH219618   7.802   5.367   2.043
 6554TIP3    H119619   7.791   5.275   2.068
 6554TIP3    H219620   7.713   5.403   2.043
 6555TIP3   OH219621   3.994   6.400   4.795
 6555TIP3    H119622   3.930   6.344   4.753
 6555TIP3    H219623   4.075   6.348   4.797
 6556TIP3   OH219624   0.086   4.888   5.956
 6556TIP3    H119625   0.084   4.952   5.884
 6556TIP3    H219626   0.173   4.898   5.995
 6557TIP3   OH219627   8.097   2.086   6.683
 6557TIP3    H119628   8.037   2.022   6.645
 6557TIP3    H219629   8.081   2.166   6.633
 6558TIP3   OH219630   2.324   0.716   5.638
 6558TIP3    H119631   2.415   0.746   5.642
 6558TIP3    H219632   2.306   0.710   5.544
 6559TIP3   OH219633   6.032   5.235   3.932
 6559TIP3    H119634   5.970   5.198   3.870
 6559TIP3    H219635   5.978   5.269   4.004
 6560TIP3   OH219636   7.099   4.468   1.473
 6560TIP3    H119637   7.058   4.407   1.535
 6560TIP3    H219638   7.050   4.455   1.391
 6561TIP3   OH219639   4.193   6.712   0.959
 6561TIP3    H119640   4.136   6.668   1.021
 6561TIP3    H219641   4.280   6.704   0.996
 6562TIP3   OH219642   1.884   2.196   5.616
 6562TIP3    H119643   1.914   2.279   5.653
 6562TIP3    H219644   1.964   2.146   5.599
 6563TIP3   OH219645   7.216   0.432   4.389
 6563TIP3    H119646   7.261   0.349   4.407
 6563TIP3    H219647   7.192   0.465   4.475
 6564TIP3   OH219648   0.778   4.022   5.960
 6564TIP3    H119649   0.760   4.107   5.998
 6564TIP3    H219650   0.869   4.003   5.982
 6565TIP3   OH219651   0.208   0.109   5.312
 6565TIP3    H119652   0.226   0.121   5.219
 6565TIP3    H219653   0.265   0.036   5.338
 6566TIP3   OH219654   0.226   2.680   3.964
 6566TIP3    H119655   0.219   2.769   3.930
 6566TIP3    H219656   0.221   2.690   4.059
 6567TIP3   OH219657   1.095   7.789   2.736
 6567TIP3    H119658   1.040   7.712   2.727
 6567TIP3    H219659   1.069   7.846   2.663
 6568TIP3   OH219660   0.753   1.716   6.533
 6568TIP3    H119661   0.760   1.808   6.558
 6568TIP3    H219662   0.836   1.696   6.489
 6569TIP3   OH219663   3.823   2.204   5.565
 6569TIP3    H119664   3.768   2.266   5.517
 6569TIP3    H219665   3.913   2.232   5.546
 6570TIP3   OH219666   1.350   1.281   5.847
 6570TIP3    H119667   1.384   1.353   5.794
 6570TIP3    H219668   1.395   1.289   5.931
 6571TIP3   OH219669   4.288   0.153   1.792
 6571TIP3    H119670   4.279   0.244   1.762
 6571TIP3    H219671   4.366   0.154   1.848
 6572TIP3   OH219672   2.712   4.334   5.515
 6572TIP3    H119673   2.725   4.376   5.430
 6572TIP3    H219674   2.750   4.394   5.578
 6573TIP3   OH219675   0.590   2.017   5.123
 6573TIP3    H119676   0.679   2.041   5.150
 6573TIP3    H219677   0.546   1.993   5.205
 6574TIP3   OH219678   7.877   5.446   3.607
 6574TIP3    H119679   7.882   5.370   3.665
 6574TIP3    H219680   7.848   5.410   3.523
 6575TIP3   OH219681   3.346   7.361   2.123
 6575TIP3    H119682   3.321   7.384   2.033
 6575TIP3    H219683   3.408   7.289   2.112
 6576TIP3   OH219684   3.528   2.928   5.858
 6576TIP3    H119685   3.437   2.903   5.842
 6576TIP3    H219686   3.571   2.847   5.885
 6577TIP3   OH219687   6.165   4.118   2.666
 6577TIP3    H119688   6.138   4.089   2.753
 6577TIP3    H219689   6.232   4.185   2.684
 6578TIP3   OH219690   0.766   1.886   1.364
 6578TIP3    H119691   0.769   1.961   1.424
 6578TIP3    H219692   0.846   1.837   1.384
 6579TIP3   OH219693   5.927   2.017   6.595
 6579TIP3    H119694   5.943   2.026   6.689
 6579TIP3    H219695   5.832   2.030   6.586
 6580TIP3   OH219696   5.377   5.080   0.127
 6580TIP3    H119697   5.417   5.037   0.052
 6580TIP3    H219698   5.439   5.149   0.150
 6581TIP3   OH219699   6.211   7.575   1.504
 6581TIP3    H119700   6.199   7.642   1.571
 6581TIP3    H219701   6.240   7.497   1.552
 6582TIP3   OH219702   1.315   2.968   4.580
 6582TIP3    H119703   1.232   2.977   4.626
 6582TIP3    H219704   1.309   2.884   4.535
 6583TIP3   OH219705   3.062   2.511   3.421
 6583TIP3    H119706   3.048   2.498   3.515
 6583TIP3    H219707   2.999   2.452   3.380
 6584TIP3   OH219708   3.124   4.008   0.893
 6584TIP3    H119709   3.090   4.026   0.981
 6584TIP3    H219710   3.166   3.922   0.901
 6585TIP3   OH219711   4.028   5.936   4.558
 6585TIP3    H119712   4.047   6.029   4.558
 6585TIP3    H219713   4.112   5.894   4.536
 6586TIP3   OH219714   5.284   0.727   1.902
 6586TIP3    H119715   5.205   0.719   1.956
 6586TIP3    H219716   5.349   0.766   1.961
 6587TIP3   OH219717   5.527   0.490   4.728
 6587TIP3    H119718   5.597   0.534   4.679
 6587TIP3    H219719   5.567   0.468   4.812
 6588TIP3   OH219720   3.693   4.963   0.063
 6588TIP3    H119721   3.700   4.879   0.017
 6588TIP3    H219722   3.600   4.985   0.059
 6589TIP3   OH219723   1.821   3.910   1.877
 6589TIP3    H119724   1.827   3.971   1.803
 6589TIP3    H219725   1.739   3.864   1.864
 6590TIP3   OH219726   1.347   7.029   0.648
 6590TIP3    H119727   1.412   6.966   0.617
 6590TIP3    H219728   1.368   7.110   0.602
 6591TIP3   OH219729   5.898   6.069   2.314
 6591TIP3    H119730   5.895   6.042   2.222
 6591TIP3    H219731   5.939   5.996   2.360
 6592TIP3   OH219732   0.011   3.504   2.881
 6592TIP3    H119733   0.104   3.512   2.902
 6592TIP3    H219734  -0.008   3.581   2.827
 6593TIP3   OH219735   2.439   1.741   4.886
 6593TIP3    H119736   2.487   1.810   4.932
 6593TIP3    H219737   2.471   1.659   4.925
 6594TIP3   OH219738   2.086   3.833   1.562
 6594TIP3    H119739   2.089   3.926   1.584
 6594TIP3    H219740   2.122   3.828   1.474
 6595TIP3   OH219741   6.547   7.017   2.520
 6595TIP3    H119742   6.605   6.957   2.567
 6595TIP3    H219743   6.497   7.061   2.589
 6596TIP3   OH219744   3.651   4.937   6.088
 6596TIP3    H119745   3.586   4.903   6.026
 6596TIP3    H219746   3.619   5.024   6.111
 6597TIP3   OH219747   4.780   2.351   4.772
 6597TIP3    H119748   4.820   2.427   4.814
 6597TIP3    H219749   4.819   2.276   4.817
 6598TIP3   OH219750   7.915   1.646   4.973
 6598TIP3    H119751   7.902   1.722   5.029
 6598TIP3    H219752   8.011   1.637   4.967
 6599TIP3   OH219753   2.873   6.168   6.119
 6599TIP3    H119754   2.938   6.103   6.146
 6599TIP3    H219755   2.789   6.130   6.146
 6600TIP3   OH219756   5.152   4.315   5.824
 6600TIP3    H119757   5.074   4.264   5.848
 6600TIP3    H219758   5.139   4.335   5.732
 6601TIP3   OH219759   0.329   3.722   6.421
 6601TIP3    H119760   0.241   3.685   6.423
 6601TIP3    H219761   0.327   3.795   6.483
 6602TIP3   OH219762   5.583   6.265   5.440
 6602TIP3    H119763   5.634   6.203   5.388
 6602TIP3    H219764   5.621   6.351   5.419
 6603TIP3   OH219765   5.085   7.367   6.695
 6603TIP3    H119766   5.022   7.421   6.743
 6603TIP3    H219767   5.115   7.424   6.624
 6604TIP3   OH219768   5.292   0.607   3.445
 6604TIP3    H119769   5.364   0.560   3.489
 6604TIP3    H219770   5.332   0.641   3.365
 6605TIP3   OH219771   1.737   5.187   6.468
 6605TIP3    H119772   1.726   5.275   6.434
 6605TIP3    H219773   1.740   5.131   6.390
 6606TIP3   OH219774   0.063   7.089   3.309
 6606TIP3    H119775   0.069   7.085   3.213
 6606TIP3    H219776  -0.012   7.145   3.326
 6607TIP3   OH219777   2.854   0.638   2.090
 6607TIP3    H119778   2.768   0.655   2.051
 6607TIP3    H219779   2.887   0.563   2.042
 6608TIP3   OH219780   5.095   5.045   2.142
 6608TIP3    H119781   5.179   5.001   2.143
 6608TIP3    H219782   5.038   4.990   2.089
 6609TIP3   OH219783   0.581   0.309   6.602
 6609TIP3    H119784   0.593   0.215   6.611
 6609TIP3    H219785   0.535   0.320   6.519
 6610TIP3   OH219786   6.514   1.498   6.598
 6610TIP3    H119787   6.582   1.430   6.599
 6610TIP3    H219788   6.560   1.579   6.620
 6611TIP3   OH219789   5.442   1.812   5.584
 6611TIP3    H119790   5.440   1.815   5.679
 6611TIP3    H219791   5.530   1.779   5.563
 6612TIP3   OH219792   6.373   3.716   0.874
 6612TIP3    H119793   6.306   3.702   0.940
 6612TIP3    H219794   6.330   3.696   0.791
 6613TIP3   OH219795   7.796   7.604   3.196
 6613TIP3    H119796   7.831   7.643   3.276
 6613TIP3    H219797   7.826   7.662   3.126
 6614TIP3   OH219798   2.679   0.593   0.901
 6614TIP3    H119799   2.590   0.570   0.927
 6614TIP3    H219800   2.732   0.516   0.923
 6615TIP3   OH219801   5.706   6.332   0.292
 6615TIP3    H119802   5.738   6.413   0.254
 6615TIP3    H219803   5.693   6.274   0.216
 6616TIP3   OH219804   5.849   5.305   4.127
 6616TIP3    H119805   5.822   5.264   4.209
 6616TIP3    H219806   5.769   5.347   4.094
 6617TIP3   OH219807   4.591   4.752   5.729
 6617TIP3    H119808   4.533   4.795   5.666
 6617TIP3    H219809   4.533   4.727   5.802
 6618TIP3   OH219810   2.869   1.379   4.996
 6618TIP3    H119811   2.896   1.453   5.052
 6618TIP3    H219812   2.804   1.416   4.937
 6619TIP3   OH219813   0.570   4.029   2.374
 6619TIP3    H119814   0.618   3.983   2.305
 6619TIP3    H219815   0.620   4.011   2.454
 6620TIP3   OH219816   7.186   7.584   4.628
 6620TIP3    H119817   7.092   7.599   4.642
 6620TIP3    H219818   7.193   7.567   4.534
 6621TIP3   OH219819   4.843   6.305   6.079
 6621TIP3    H119820   4.748   6.304   6.082
 6621TIP3    H219821   4.869   6.382   6.129
 6622TIP3   OH219822   0.426   6.837   6.171
 6622TIP3    H119823   0.488   6.812   6.103
 6622TIP3    H219824   0.425   6.933   6.168
 6623TIP3   OH219825   2.597   3.244   4.710
 6623TIP3    H119826   2.613   3.301   4.635
 6623TIP3    H219827   2.605   3.155   4.674
 6624TIP3   OH219828   5.867   0.919   1.043
 6624TIP3    H119829   5.941   0.955   0.995
 6624TIP3    H219830   5.848   0.985   1.110
 6625TIP3   OH219831   1.253   5.707   3.833
 6625TIP3    H119832   1.163   5.725   3.857
 6625TIP3    H219833   1.259   5.611   3.830
 6626TIP3   OH219834   4.600   0.442   4.787
 6626TIP3    H119835   4.517   0.419   4.744
 6626TIP3    H219836   4.588   0.413   4.877
 6627TIP3   OH219837   1.721   6.662   2.117
 6627TIP3    H119838   1.783   6.590   2.131
 6627TIP3    H219839   1.680   6.675   2.203
 6628TIP3   OH219840   8.239   7.534   0.773
 6628TIP3    H119841   8.286   7.594   0.715
 6628TIP3    H219842   8.203   7.591   0.842
 6629TIP3   OH219843   7.299   1.277   5.659
 6629TIP3    H119844   7.272   1.261   5.749
 6629TIP3    H219845   7.317   1.189   5.624
 6630TIP3   OH219846   0.823   3.368   4.251
 6630TIP3    H119847   0.872   3.422   4.313
 6630TIP3    H219848   0.880   3.361   4.175
 6631TIP3   OH219849   1.885   4.631   2.635
 6631TIP3    H119850   1.934   4.707   2.668
 6631TIP3    H219851   1.906   4.628   2.541
 6632TIP3   OH219852   3.972   0.471   0.901
 6632TIP3    H119853   3.900   0.434   0.953
 6632TIP3    H219854   3.995   0.552   0.946
 6633TIP3   OH219855   6.559   2.837   5.674
 6633TIP3    H119856   6.478   2.887   5.679
 6633TIP3    H219857   6.554   2.790   5.590
 6634TIP3   OH219858   3.724   5.746   1.278
 6634TIP3    H119859   3.763   5.679   1.221
 6634TIP3    H219860   3.697   5.698   1.356
 6635TIP3   OH219861   4.653   7.447   2.420
 6635TIP3    H119862   4.570   7.492   2.399
 6635TIP3    H219863   4.677   7.404   2.338
 6636TIP3   OH219864   4.771   4.106   5.526
 6636TIP3    H119865   4.859   4.136   5.505
 6636TIP3    H219866   4.772   4.012   5.508
 6637TIP3   OH219867   4.413   6.027   4.674
 6637TIP3    H119868   4.413   6.085   4.751
 6637TIP3    H219869   4.496   6.044   4.631
 6638TIP3   OH219870   1.013   3.631   3.119
 6638TIP3    H119871   1.047   3.718   3.100
 6638TIP3    H219872   0.929   3.646   3.162
 6639TIP3   OH219873   2.444   0.413   5.465
 6639TIP3    H119874   2.354   0.426   5.433
 6639TIP3    H219875   2.452   0.318   5.476
 6640TIP3   OH219876   3.362   3.322   0.617
 6640TIP3    H119877   3.346   3.288   0.705
 6640TIP3    H219878   3.274   3.333   0.579
 6641TIP3   OH219879   2.073   1.209   0.398
 6641TIP3    H119880   2.118   1.288   0.365
 6641TIP3    H219881   2.095   1.206   0.491
 6642TIP3   OH219882   3.135   6.273   0.325
 6642TIP3    H119883   3.093   6.359   0.334
 6642TIP3    H219884   3.106   6.241   0.239
 6643TIP3   OH219885   5.007   0.149   5.160
 6643TIP3    H119886   4.915   0.120   5.159
 6643TIP3    H219887   5.003   0.238   5.195
 6644TIP3   OH219888   7.395   7.740   2.118
 6644TIP3    H119889   7.324   7.749   2.182
 6644TIP3    H219890   7.433   7.654   2.137
 6645TIP3   OH219891   6.595   2.443   0.163
 6645TIP3    H119892   6.602   2.497   0.242
 6645TIP3    H219893   6.501   2.436   0.147
 6646TIP3   OH219894   2.356   5.949   2.642
 6646TIP3    H119895   2.442   5.924   2.609
 6646TIP3    H219896   2.294   5.911   2.580
 6647TIP3   OH219897   2.868   4.090   0.084
 6647TIP3    H119898   2.938   4.155   0.094
 6647TIP3    H219899   2.799   4.135   0.036
 6648TIP3   OH219900   6.142   3.782   1.029
 6648TIP3    H119901   6.124   3.754   1.119
 6648TIP3    H219902   6.115   3.873   1.027
 6649TIP3   OH219903   2.695   1.636   3.894
 6649TIP3    H119904   2.664   1.726   3.904
 6649TIP3    H219905   2.616   1.584   3.887
 6650TIP3   OH219906   2.975   1.821   1.425
 6650TIP3    H119907   3.047   1.881   1.406
 6650TIP3    H219908   2.933   1.859   1.502
 6651TIP3   OH219909   4.252   4.432   4.835
 6651TIP3    H119910   4.330   4.467   4.878
 6651TIP3    H219911   4.181   4.450   4.897
 6652TIP3   OH219912   5.344   7.589   6.720
 6652TIP3    H119913   5.271   7.651   6.711
 6652TIP3    H219914   5.308   7.506   6.688
 6653TIP3   OH219915   1.162   4.925   0.370
 6653TIP3    H119916   1.143   4.832   0.383
 6653TIP3    H219917   1.239   4.942   0.425
 6654TIP3   OH219918   0.165   4.962   4.999
 6654TIP3    H119919   0.203   4.986   5.084
 6654TIP3    H219920   0.132   5.044   4.963
 6655TIP3   OH219921   1.550   0.917   1.809
 6655TIP3    H119922   1.577   0.996   1.763
 6655TIP3    H219923   1.461   0.901   1.780
 6656TIP3   OH219924   1.750   6.256   4.658
 6656TIP3    H119925   1.780   6.294   4.740
 6656TIP3    H219926   1.685   6.319   4.625
 6657TIP3   OH219927   3.914   5.786   6.076
 6657TIP3    H119928   3.901   5.804   5.983
 6657TIP3    H219929   3.826   5.768   6.110
 6658TIP3   OH219930   1.618   1.138   2.950
 6658TIP3    H119931   1.654   1.057   2.985
 6658TIP3    H219932   1.643   1.138   2.858
 6659TIP3   OH219933   5.024   1.324   0.919
 6659TIP3    H119934   5.049   1.250   0.864
 6659TIP3    H219935   5.084   1.395   0.892
 6660TIP3   OH219936   3.217   0.494   5.791
 6660TIP3    H119937   3.153   0.439   5.837
 6660TIP3    H219938   3.164   0.552   5.737
 6661TIP3   OH219939   2.430   6.601   6.235
 6661TIP3    H119940   2.418   6.563   6.148
 6661TIP3    H219941   2.524   6.622   6.239
 6662TIP3   OH219942   1.134   6.362   3.843
 6662TIP3    H119943   1.139   6.324   3.756
 6662TIP3    H219944   1.214   6.414   3.852
 6663TIP3   OH219945   0.652   1.494   0.443
 6663TIP3    H119946   0.616   1.439   0.512
 6663TIP3    H219947   0.633   1.446   0.362
 6664TIP3   OH219948   3.945   0.548   4.211
 6664TIP3    H119949   3.981   0.590   4.290
 6664TIP3    H219950   3.940   0.455   4.233
 6665TIP3   OH219951   7.734   4.662   3.269
 6665TIP3    H119952   7.795   4.676   3.197
 6665TIP3    H219953   7.683   4.742   3.272
 6666TIP3   OH219954   7.064   7.368   1.455
 6666TIP3    H119955   7.086   7.351   1.363
 6666TIP3    H219956   7.058   7.281   1.494
 6667TIP3   OH219957   2.408   7.581   2.985
 6667TIP3    H119958   2.389   7.541   2.900
 6667TIP3    H219959   2.375   7.670   2.978
 6668TIP3   OH219960   1.017   5.016   4.222
 6668TIP3    H119961   1.035   5.109   4.231
 6668TIP3    H219962   0.921   5.011   4.220
 6669TIP3   OH219963   1.716   5.364   0.203
 6669TIP3    H119964   1.641   5.404   0.247
 6669TIP3    H219965   1.682   5.340   0.116
 6670TIP3   OH219966   3.005   0.048   6.705
 6670TIP3    H119967   2.947   0.073   6.633
 6670TIP3    H219968   2.948   0.006   6.769
 6671TIP3   OH219969   4.967   1.216   3.456
 6671TIP3    H119970   4.931   1.201   3.543
 6671TIP3    H219971   4.988   1.129   3.423
 6672TIP3   OH219972   6.237   2.246   2.748
 6672TIP3    H119973   6.226   2.336   2.779
 6672TIP3    H219974   6.332   2.231   2.754
 6673TIP3   OH219975   6.858   1.869   0.646
 6673TIP3    H119976   6.907   1.919   0.581
 6673TIP3    H219977   6.767   1.880   0.620
 6674TIP3   OH219978   4.477   1.016   4.531
 6674TIP3    H119979   4.416   1.088   4.549
 6674TIP3    H219980   4.535   1.015   4.607
 6675TIP3   OH219981   7.083   4.033   3.776
 6675TIP3    H119982   7.061   4.060   3.865
 6675TIP3    H219983   7.078   4.114   3.724
 6676TIP3   OH219984   6.965   1.399   6.338
 6676TIP3    H119985   7.039   1.346   6.308
 6676TIP3    H219986   6.961   1.383   6.432
 6677TIP3   OH219987   7.853   4.631   3.989
 6677TIP3    H119988   7.818   4.585   4.066
 6677TIP3    H219989   7.947   4.638   4.006
 6678TIP3   OH219990   8.251   4.273   1.393
 6678TIP3    H119991   8.253   4.202   1.329
 6678TIP3    H219992   8.343   4.290   1.414
 6679TIP3   OH219993   3.912   2.059   1.901
 6679TIP3    H119994   3.927   1.965   1.892
 6679TIP3    H219995   3.817   2.067   1.907
 6680TIP3   OH219996   6.774   4.701   1.332
 6680TIP3    H119997   6.765   4.794   1.353
 6680TIP3    H219998   6.685   4.671   1.314
 6681TIP3   OH219999   4.900   6.582   0.916
 6681TIP3    H120000   4.976   6.573   0.973
 6681TIP3    H220001   4.833   6.529   0.957
 6682TIP3   OH220002   4.260   7.233   5.581
 6682TIP3    H120003   4.173   7.193   5.591
 6682TIP3    H220004   4.266   7.297   5.651
 6683TIP3   OH220005   4.609   7.094   1.469
 6683TIP3    H120006   4.570   7.128   1.388
 6683TIP3    H220007   4.559   7.136   1.539
 6684TIP3   OH220008   7.790   2.163   5.042
 6684TIP3    H120009   7.701   2.166   5.077
 6684TIP3    H220010   7.781   2.189   4.950
 6685TIP3   OH220011   8.204   6.906   2.104
 6685TIP3    H120012   8.299   6.902   2.097
 6685TIP3    H220013   8.188   6.940   2.192
 6686TIP3   OH220014   5.140   1.457   2.838
 6686TIP3    H120015   5.112   1.451   2.929
 6686TIP3    H220016   5.137   1.550   2.817
 6687TIP3   OH220017   3.217   4.963   2.782
 6687TIP3    H120018   3.265   4.959   2.865
 6687TIP3    H220019   3.150   5.030   2.796
 6688TIP3   OH220020   2.520   3.090   2.487
 6688TIP3    H120021   2.614   3.094   2.502
 6688TIP3    H220022   2.505   3.003   2.450
 6689TIP3   OH220023   5.975   6.797   1.146
 6689TIP3    H120024   6.007   6.798   1.236
 6689TIP3    H220025   5.890   6.754   1.151
 6690TIP3   OH220026   5.737   0.413   1.701
 6690TIP3    H120027   5.804   0.469   1.740
 6690TIP3    H220028   5.661   0.469   1.693
 6691TIP3   OH220029   5.707   3.644   2.489
 6691TIP3    H120030   5.639   3.697   2.447
 6691TIP3    H220031   5.756   3.606   2.416
 6692TIP3   OH220032   0.333   4.055   1.298
 6692TIP3    H120033   0.349   4.003   1.219
 6692TIP3    H220034   0.238   4.049   1.312
 6693TIP3   OH220035   2.905   2.331   0.036
 6693TIP3    H120036   2.917   2.251   0.087
 6693TIP3    H220037   2.814   2.356   0.052
 6694TIP3   OH220038   1.574   0.261   6.166
 6694TIP3    H120039   1.571   0.183   6.111
 6694TIP3    H220040   1.520   0.238   6.242
 6695TIP3   OH220041   7.009   4.712   3.034
 6695TIP3    H120042   6.938   4.650   3.053
 6695TIP3    H220043   7.087   4.672   3.073
 6696TIP3   OH220044   5.313   6.544   2.861
 6696TIP3    H120045   5.289   6.473   2.801
 6696TIP3    H220046   5.407   6.557   2.846
 6697TIP3   OH220047   7.858   6.015   6.681
 6697TIP3    H120048   7.789   5.949   6.680
 6697TIP3    H220049   7.888   6.017   6.772
 6698TIP3   OH220050   6.430   3.334   6.046
 6698TIP3    H120051   6.371   3.383   6.104
 6698TIP3    H220052   6.392   3.247   6.042
 6699TIP3   OH220053   2.378   0.050   0.918
 6699TIP3    H120054   2.314  -0.011   0.881
 6699TIP3    H220055   2.352   0.135   0.883
 6700TIP3   OH220056   2.976   0.379   0.344
 6700TIP3    H120057   3.071   0.389   0.333
 6700TIP3    H220058   2.949   0.461   0.386
 6701TIP3   OH220059   4.570   4.785   0.869
 6701TIP3    H120060   4.497   4.725   0.888
 6701TIP3    H220061   4.537   4.871   0.894
 6702TIP3   OH220062   8.154   2.366   5.293
 6702TIP3    H120063   8.189   2.290   5.247
 6702TIP3    H220064   8.201   2.368   5.376
 6703TIP3   OH220065   0.422   4.503   5.082
 6703TIP3    H120066   0.422   4.416   5.043
 6703TIP3    H220067   0.449   4.489   5.173
 6704TIP3   OH220068   6.177   0.666  -0.001
 6704TIP3    H120069   6.260   0.662  -0.049
 6704TIP3    H220070   6.203   0.661   0.092
 6705TIP3   OH220071   3.622   1.697   1.027
 6705TIP3    H120072   3.606   1.787   0.999
 6705TIP3    H220073   3.656   1.706   1.116
 6706TIP3   OH220074   7.776   5.409   6.427
 6706TIP3    H120075   7.705   5.412   6.492
 6706TIP3    H220076   7.773   5.320   6.393
 6707TIP3   OH220077   0.008   2.565   1.696
 6707TIP3    H120078  -0.002   2.656   1.722
 6707TIP3    H220079   0.085   2.534   1.744
 6708TIP3   OH220080   7.386   5.022   5.885
 6708TIP3    H120081   7.294   4.997   5.875
 6708TIP3    H220082   7.403   5.014   5.979
 6709TIP3   OH220083   2.567   0.939   6.631
 6709TIP3    H120084   2.489   0.909   6.677
 6709TIP3    H220085   2.587   0.869   6.569
 6710TIP3   OH220086   7.701   1.953   5.725
 6710TIP3    H120087   7.612   1.980   5.705
 6710TIP3    H220088   7.756   2.014   5.676
 6711TIP3   OH220089   4.066   3.801   5.772
 6711TIP3    H120090   4.153   3.762   5.762
 6711TIP3    H220091   4.006   3.734   5.740
 6712TIP3   OH220092   2.602   0.908   4.617
 6712TIP3    H120093   2.592   0.829   4.563
 6712TIP3    H220094   2.654   0.879   4.691
 6713TIP3   OH220095   3.345   1.215   2.163
 6713TIP3    H120096   3.293   1.193   2.086
 6713TIP3    H220097   3.331   1.309   2.175
 6714TIP3   OH220098   0.275   2.968   3.793
 6714TIP3    H120099   0.213   2.955   3.721
 6714TIP3    H220100   0.319   3.050   3.770
 6715TIP3   OH220101   4.039   4.604   4.448
 6715TIP3    H120102   3.965   4.634   4.501
 6715TIP3    H220103   4.007   4.607   4.358
 6716TIP3   OH220104   5.397   0.212   5.649
 6716TIP3    H120105   5.340   0.280   5.614
 6716TIP3    H220106   5.417   0.242   5.738
 6717TIP3   OH220107   1.573   5.927   5.079
 6717TIP3    H120108   1.616   5.855   5.125
 6717TIP3    H220109   1.579   6.001   5.140
 6718TIP3   OH220110   7.610   2.791   0.179
 6718TIP3    H120111   7.649   2.740   0.249
 6718TIP3    H220112   7.635   2.745   0.099
 6719TIP3   OH220113   2.809   3.300   2.005
 6719TIP3    H120114   2.878   3.353   1.966
 6719TIP3    H220115   2.821   3.213   1.966
 6720TIP3   OH220116   5.687   1.593   5.031
 6720TIP3    H120117   5.604   1.641   5.020
 6720TIP3    H220118   5.672   1.538   5.108
 6721TIP3   OH220119   4.648   7.451   0.687
 6721TIP3    H120120   4.695   7.465   0.605
 6721TIP3    H220121   4.673   7.525   0.742
 6722TIP3   OH220122   2.726   0.782   1.090
 6722TIP3    H120123   2.689   0.742   1.012
 6722TIP3    H220124   2.787   0.717   1.124
 6723TIP3   OH220125   2.526   5.931   1.919
 6723TIP3    H120126   2.522   5.976   2.004
 6723TIP3    H220127   2.498   5.997   1.856
 6724TIP3   OH220128   7.779   7.720   4.932
 6724TIP3    H120129   7.706   7.782   4.924
 6724TIP3    H220130   7.854   7.767   4.897
 6725TIP3   OH220131   7.894   2.221   0.599
 6725TIP3    H120132   7.858   2.148   0.549
 6725TIP3    H220133   7.972   2.186   0.642
 6726TIP3   OH220134   3.466   5.175   3.021
 6726TIP3    H120135   3.458   5.081   3.011
 6726TIP3    H220136   3.542   5.199   2.969
 6727TIP3   OH220137   1.293   7.025   3.766
 6727TIP3    H120138   1.270   6.987   3.850
 6727TIP3    H220139   1.376   7.070   3.782
 6728TIP3   OH220140   7.160   4.957   4.040
 6728TIP3    H120141   7.128   5.041   4.073
 6728TIP3    H220142   7.222   4.980   3.970
 6729TIP3   OH220143   1.673   0.907   3.111
 6729TIP3    H120144   1.740   0.853   3.068
 6729TIP3    H220145   1.590   0.868   3.083
 6730TIP3   OH220146   7.215   6.222   5.248
 6730TIP3    H120147   7.169   6.296   5.209
 6730TIP3    H220148   7.179   6.216   5.337
 6731TIP3   OH220149   3.396   0.261   6.503
 6731TIP3    H120150   3.338   0.187   6.485
 6731TIP3    H220151   3.419   0.295   6.416
 6732TIP3   OH220152   4.528   6.117   5.941
 6732TIP3    H120153   4.510   6.071   6.023
 6732TIP3    H220154   4.498   6.058   5.873
 6733TIP3   OH220155   3.668   0.069   5.008
 6733TIP3    H120156   3.683   0.028   4.923
 6733TIP3    H220157   3.645  -0.004   5.066
 6734TIP3   OH220158   4.076   4.688   1.578
 6734TIP3    H120159   4.003   4.727   1.627
 6734TIP3    H220160   4.151   4.698   1.637
 6735TIP3   OH220161   7.871   4.152   2.570
 6735TIP3    H120162   7.859   4.201   2.651
 6735TIP3    H220163   7.955   4.107   2.581
 6736TIP3   OH220164   5.761   4.658   1.250
 6736TIP3    H120165   5.696   4.695   1.189
 6736TIP3    H220166   5.793   4.734   1.299
 6737TIP3   OH220167   5.470   4.583   5.265
 6737TIP3    H120168   5.422   4.511   5.306
 6737TIP3    H220169   5.403   4.631   5.216
 6738TIP3   OH220170   3.046   5.004   0.192
 6738TIP3    H120171   3.097   4.928   0.218
 6738TIP3    H220172   2.970   4.967   0.147
 6739TIP3   OH220173   1.920   5.012   1.257
 6739TIP3    H120174   1.898   5.099   1.225
 6739TIP3    H220175   1.947   5.026   1.348
 6740TIP3   OH220176   0.990   5.413   2.202
 6740TIP3    H120177   0.999   5.321   2.228
 6740TIP3    H220178   0.968   5.409   2.109
 6741TIP3   OH220179   7.343   2.791   0.097
 6741TIP3    H120180   7.430   2.789   0.137
 6741TIP3    H220181   7.323   2.699   0.078
 6742TIP3   OH220182   1.868   2.043   2.369
 6742TIP3    H120183   1.794   2.059   2.427
 6742TIP3    H220184   1.934   2.000   2.425
 6743TIP3   OH220185   2.702   4.913   4.870
 6743TIP3    H120186   2.655   4.996   4.879
 6743TIP3    H220187   2.788   4.938   4.836
 6744TIP3   OH220188   8.065   2.245   4.986
 6744TIP3    H120189   8.110   2.169   4.949
 6744TIP3    H220190   8.003   2.209   5.049
 6745TIP3   OH220191   3.097   2.005   1.710
 6745TIP3    H120192   3.039   1.954   1.767
 6745TIP3    H220193   3.123   1.943   1.641
 6746TIP3   OH220194   1.487   3.930   3.017
 6746TIP3    H120195   1.531   3.975   3.089
 6746TIP3    H220196   1.451   4.001   2.964
 6747TIP3   OH220197   7.069   7.486   3.070
 6747TIP3    H120198   7.020   7.567   3.056
 6747TIP3    H220199   7.153   7.514   3.105
 6748TIP3   OH220200   5.315   7.609   0.194
 6748TIP3    H120201   5.258   7.678   0.159
 6748TIP3    H220202   5.346   7.562   0.116
 6749TIP3   OH220203   3.396   5.772   0.049
 6749TIP3    H120204   3.448   5.847   0.019
 6749TIP3    H220205   3.411   5.769   0.143
 6750TIP3   OH220206   4.182   1.164   5.608
 6750TIP3    H120207   4.177   1.236   5.671
 6750TIP3    H220208   4.241   1.196   5.540
 6751TIP3   OH220209   1.791   4.734   4.239
 6751TIP3    H120210   1.776   4.641   4.220
 6751TIP3    H220211   1.742   4.751   4.319
 6752TIP3   OH220212   0.449   2.265   0.492
 6752TIP3    H120213   0.394   2.194   0.459
 6752TIP3    H220214   0.408   2.345   0.458
 6753TIP3   OH220215   6.674   4.680   2.434
 6753TIP3    H120216   6.645   4.762   2.475
 6753TIP3    H220217   6.765   4.698   2.407
 6754TIP3   OH220218   2.963   6.880   1.007
 6754TIP3    H120219   2.964   6.952   0.945
 6754TIP3    H220220   3.011   6.809   0.964
 6755TIP3   OH220221   4.576   5.620   4.720
 6755TIP3    H120222   4.589   5.714   4.703
 6755TIP3    H220223   4.559   5.583   4.633
 6756TIP3   OH220224   2.379   2.694   4.432
 6756TIP3    H120225   2.314   2.624   4.433
 6756TIP3    H220226   2.392   2.718   4.524
 6757TIP3   OH220227   8.192   4.922   5.357
 6757TIP3    H120228   8.203   4.917   5.452
 6757TIP3    H220229   8.143   5.003   5.343
 6758TIP3   OH220230   4.697   3.959   0.305
 6758TIP3    H120231   4.719   3.955   0.212
 6758TIP3    H220232   4.693   4.053   0.324
 6759TIP3   OH220233   4.975   1.473   3.674
 6759TIP3    H120234   5.012   1.458   3.587
 6759TIP3    H220235   5.029   1.420   3.733
 6760TIP3   OH220236   5.720   5.848   5.045
 6760TIP3    H120237   5.793   5.874   4.989
 6760TIP3    H220238   5.741   5.759   5.072
 6761TIP3   OH220239   2.109   3.183   3.304
 6761TIP3    H120240   2.038   3.184   3.368
 6761TIP3    H220241   2.128   3.090   3.290
 6762TIP3   OH220242   2.340   1.850   3.013
 6762TIP3    H120243   2.258   1.828   3.058
 6762TIP3    H220244   2.313   1.910   2.943
 6763TIP3   OH220245   8.012   2.709   2.286
 6763TIP3    H120246   8.104   2.684   2.279
 6763TIP3    H220247   7.968   2.661   2.215
 6764TIP3   OH220248   2.211   2.875   3.711
 6764TIP3    H120249   2.164   2.827   3.642
 6764TIP3    H220250   2.142   2.918   3.762
 6765TIP3   OH220251   1.288   3.253   4.475
 6765TIP3    H120252   1.278   3.173   4.527
 6765TIP3    H220253   1.218   3.249   4.410
 6766TIP3   OH220254   6.395   1.788   5.566
 6766TIP3    H120255   6.394   1.767   5.659
 6766TIP3    H220256   6.303   1.801   5.543
 6767TIP3   OH220257   2.467   6.490   1.140
 6767TIP3    H120258   2.457   6.477   1.234
 6767TIP3    H220259   2.559   6.470   1.122
 6768TIP3   OH220260   1.187   6.286   3.579
 6768TIP3    H120261   1.122   6.267   3.512
 6768TIP3    H220262   1.241   6.355   3.541
 6769TIP3   OH220263   1.772   7.573   0.011
 6769TIP3    H120264   1.775   7.480   0.034
 6769TIP3    H220265   1.852   7.610   0.048
 6770TIP3   OH220266   2.089   3.810   3.938
 6770TIP3    H120267   2.148   3.805   4.014
 6770TIP3    H220268   2.003   3.786   3.973
 6771TIP3   OH220269   5.092   4.412   5.561
 6771TIP3    H120270   5.172   4.428   5.511
 6771TIP3    H220271   5.055   4.333   5.522
 6772TIP3   OH220272   2.924   6.284   1.641
 6772TIP3    H120273   2.829   6.274   1.633
 6772TIP3    H220274   2.960   6.209   1.593
 6773TIP3   OH220275   3.960   5.524   3.685
 6773TIP3    H120276   4.032   5.474   3.647
 6773TIP3    H220277   3.997   5.611   3.702
 6774TIP3   OH220278   2.087   0.574   6.260
 6774TIP3    H120279   2.070   0.609   6.348
 6774TIP3    H220280   2.145   0.499   6.275
 6775TIP3   OH220281   7.292   6.170   4.065
 6775TIP3    H120282   7.198   6.189   4.055
 6775TIP3    H220283   7.319   6.139   3.978
 6776TIP3   OH220284   5.659   0.830   1.663
 6776TIP3    H120285   5.564   0.818   1.673
 6776TIP3    H220286   5.688   0.859   1.749
 6777TIP3   OH220287   3.940   5.110   4.096
 6777TIP3    H120288   4.013   5.054   4.120
 6777TIP3    H220289   3.924   5.164   4.173
 6778TIP3   OH220290   5.966   2.344   1.478
 6778TIP3    H120291   5.873   2.322   1.483
 6778TIP3    H220292   5.970   2.437   1.497
 6779TIP3   OH220293   7.101   6.188   6.235
 6779TIP3    H120294   7.133   6.168   6.147
 6779TIP3    H220295   7.100   6.284   6.239
 6780TIP3   OH220296   1.546   6.702   2.744
 6780TIP3    H120297   1.560   6.693   2.838
 6780TIP3    H220298   1.469   6.759   2.736
 6781TIP3   OH220299   1.766   7.447   3.733
 6781TIP3    H120300   1.686   7.440   3.786
 6781TIP3    H220301   1.782   7.541   3.726
 6782TIP3   OH220302   0.403   1.942   5.323
 6782TIP3    H120303   0.369   1.896   5.246
 6782TIP3    H220304   0.325   1.974   5.368
 6783TIP3   OH220305   5.235   0.659   0.503
 6783TIP3    H120306   5.275   0.722   0.562
 6783TIP3    H220307   5.303   0.593   0.488
 6784TIP3   OH220308   6.784   6.816   0.934
 6784TIP3    H120309   6.740   6.898   0.957
 6784TIP3    H220310   6.738   6.785   0.856
 6785TIP3   OH220311   3.897   6.298   0.201
 6785TIP3    H120312   3.898   6.249   0.118
 6785TIP3    H220313   3.934   6.238   0.265
 6786TIP3   OH220314   0.477   5.607   1.843
 6786TIP3    H120315   0.480   5.695   1.806
 6786TIP3    H220316   0.470   5.549   1.767
 6787TIP3   OH220317   2.341   0.406   3.016
 6787TIP3    H120318   2.371   0.410   2.925
 6787TIP3    H220319   2.390   0.475   3.060
 6788TIP3   OH220320   1.837   4.359   5.618
 6788TIP3    H120321   1.876   4.334   5.535
 6788TIP3    H220322   1.903   4.338   5.683
 6789TIP3   OH220323   7.393   5.253   3.622
 6789TIP3    H120324   7.380   5.258   3.528
 6789TIP3    H220325   7.417   5.342   3.648
 6790TIP3   OH220326   7.128   3.093   3.101
 6790TIP3    H120327   7.174   3.016   3.068
 6790TIP3    H220328   7.141   3.160   3.034
 6791TIP3   OH220329   5.460   2.082   3.073
 6791TIP3    H120330   5.377   2.035   3.085
 6791TIP3    H220331   5.444   2.141   2.999
 6792TIP3   OH220332   1.734   3.867   6.399
 6792TIP3    H120333   1.673   3.916   6.344
 6792TIP3    H220334   1.816   3.867   6.350
 6793TIP3   OH220335   3.703   1.133   5.601
 6793TIP3    H120336   3.631   1.147   5.539
 6793TIP3    H220337   3.679   1.185   5.678
 6794TIP3   OH220338   5.599   6.614   4.880
 6794TIP3    H120339   5.640   6.651   4.958
 6794TIP3    H220340   5.635   6.666   4.808
 6795TIP3   OH220341   2.039   7.104   6.430
 6795TIP3    H120342   1.948   7.087   6.408
 6795TIP3    H220343   2.068   7.023   6.473
 6796TIP3   OH220344   3.349   4.993   2.201
 6796TIP3    H120345   3.300   5.011   2.282
 6796TIP3    H220346   3.330   4.901   2.183
 6797TIP3   OH220347   3.509   2.655   4.006
 6797TIP3    H120348   3.483   2.564   4.020
 6797TIP3    H220349   3.427   2.705   4.006
 6798TIP3   OH220350   7.614   0.547   2.500
 6798TIP3    H120351   7.556   0.566   2.573
 6798TIP3    H220352   7.591   0.612   2.433
 6799TIP3   OH220353   6.799   7.421   1.518
 6799TIP3    H120354   6.786   7.390   1.429
 6799TIP3    H220355   6.892   7.406   1.536
 6800TIP3   OH220356   3.756   2.433   5.461
 6800TIP3    H120357   3.843   2.474   5.456
 6800TIP3    H220358   3.724   2.456   5.548
 6801TIP3   OH220359   4.001   7.362   5.296
 6801TIP3    H120360   3.960   7.369   5.382
 6801TIP3    H220361   4.053   7.442   5.287
 6802TIP3   OH220362   0.934   4.433   5.415
 6802TIP3    H120363   0.878   4.449   5.340
 6802TIP3    H220364   1.011   4.388   5.379
 6803TIP3   OH220365   6.780   2.528   2.774
 6803TIP3    H120366   6.805   2.468   2.844
 6803TIP3    H220367   6.738   2.601   2.819
 6804TIP3   OH220368   2.086   6.967   4.269
 6804TIP3    H120369   2.012   6.914   4.239
 6804TIP3    H220370   2.071   6.979   4.363
 6805TIP3   OH220371   4.472   0.165   2.753
 6805TIP3    H120372   4.475   0.243   2.809
 6805TIP3    H220373   4.550   0.173   2.698
 6806TIP3   OH220374   6.487   3.874   2.975
 6806TIP3    H120375   6.557   3.859   3.038
 6806TIP3    H220376   6.449   3.959   3.000
 6807TIP3   OH220377   2.055   6.532   1.314
 6807TIP3    H120378   2.119   6.601   1.294
 6807TIP3    H220379   2.035   6.544   1.407
 6808TIP3   OH220380   3.623   0.585   3.021
 6808TIP3    H120381   3.580   0.658   3.067
 6808TIP3    H220382   3.595   0.594   2.930
 6809TIP3   OH220383   3.982   0.405   1.196
 6809TIP3    H120384   3.996   0.388   1.103
 6809TIP3    H220385   3.888   0.423   1.203
 6810TIP3   OH220386   7.743   5.932   1.002
 6810TIP3    H120387   7.748   5.879   1.081
 6810TIP3    H220388   7.712   6.017   1.032
 6811TIP3   OH220389   5.465   1.447   6.636
 6811TIP3    H120390   5.451   1.502   6.714
 6811TIP3    H220391   5.419   1.493   6.566
 6812TIP3   OH220392   1.391   0.135   3.697
 6812TIP3    H120393   1.370   0.123   3.790
 6812TIP3    H220394   1.336   0.071   3.652
 6813TIP3   OH220395   3.626   7.558   1.569
 6813TIP3    H120396   3.622   7.547   1.664
 6813TIP3    H220397   3.538   7.536   1.538
 6814TIP3   OH220398   5.571   1.471   4.670
 6814TIP3    H120399   5.534   1.386   4.649
 6814TIP3    H220400   5.497   1.531   4.666
 6815TIP3   OH220401   5.183   6.987   3.780
 6815TIP3    H120402   5.160   7.027   3.864
 6815TIP3    H220403   5.153   7.050   3.714
 6816TIP3   OH220404   1.017   2.690   6.316
 6816TIP3    H120405   1.011   2.784   6.336
 6816TIP3    H220406   0.950   2.650   6.370
 6817TIP3   OH220407   4.081   6.690   0.656
 6817TIP3    H120408   3.986   6.694   0.660
 6817TIP3    H220409   4.101   6.597   0.646
 6818TIP3   OH220410   4.537   1.102   5.585
 6818TIP3    H120411   4.500   1.025   5.543
 6818TIP3    H220412   4.486   1.175   5.552
 6819TIP3   OH220413   1.291   5.531   0.912
 6819TIP3    H120414   1.214   5.475   0.929
 6819TIP3    H220415   1.287   5.598   0.981
 6820TIP3   OH220416   2.716   7.148   1.309
 6820TIP3    H120417   2.800   7.156   1.265
 6820TIP3    H220418   2.680   7.237   1.309
 6821TIP3   OH220419   2.184   0.148   0.455
 6821TIP3    H120420   2.221   0.076   0.507
 6821TIP3    H220421   2.115   0.106   0.404
 6822TIP3   OH220422   1.260   3.929   3.296
 6822TIP3    H120423   1.258   4.011   3.247
 6822TIP3    H220424   1.190   3.938   3.361
 6823TIP3   OH220425   4.597   0.895   4.099
 6823TIP3    H120426   4.536   0.890   4.173
 6823TIP3    H220427   4.561   0.834   4.035
 6824TIP3   OH220428   5.019   7.261   3.031
 6824TIP3    H120429   5.086   7.322   2.998
 6824TIP3    H220430   5.065   7.177   3.038
 6825TIP3   OH220431   7.682   0.039   5.097
 6825TIP3    H120432   7.652  -0.038   5.146
 6825TIP3    H220433   7.655   0.021   5.007
 6826TIP3   OH220434   3.977   2.520   3.742
 6826TIP3    H120435   3.968   2.580   3.816
 6826TIP3    H220436   4.071   2.508   3.731
 6827TIP3   OH220437   6.910   2.450   4.557
 6827TIP3    H120438   6.938   2.381   4.496
 6827TIP3    H220439   6.847   2.406   4.614
 6828TIP3   OH220440   7.820   5.610   3.352
 6828TIP3    H120441   7.824   5.656   3.435
 6828TIP3    H220442   7.819   5.679   3.286
 6829TIP3   OH220443   5.938   0.717   1.208
 6829TIP3    H120444   5.938   0.798   1.156
 6829TIP3    H220445   5.866   0.730   1.271
 6830TIP3   OH220446   7.283   3.099   1.656
 6830TIP3    H120447   7.364   3.145   1.637
 6830TIP3    H220448   7.232   3.161   1.708
 6831TIP3   OH220449   6.387   5.104   2.192
 6831TIP3    H120450   6.343   5.032   2.148
 6831TIP3    H220451   6.328   5.178   2.183
 6832TIP3   OH220452   2.236   0.785   4.115
 6832TIP3    H120453   2.294   0.785   4.191
 6832TIP3    H220454   2.180   0.862   4.128
 6833TIP3   OH220455   0.484   6.795   6.557
 6833TIP3    H120456   0.405   6.799   6.503
 6833TIP3    H220457   0.470   6.863   6.623
 6834TIP3   OH220458   0.404   5.551   4.771
 6834TIP3    H120459   0.447   5.555   4.856
 6834TIP3    H220460   0.476   5.553   4.708
 6835TIP3   OH220461   7.124   4.425   0.802
 6835TIP3    H120462   7.084   4.440   0.716
 6835TIP3    H220463   7.138   4.330   0.806
 6836TIP3   OH220464   7.533   6.241   2.347
 6836TIP3    H120465   7.468   6.176   2.373
 6836TIP3    H220466   7.547   6.293   2.427
 6837TIP3   OH220467   5.848   3.383   4.517
 6837TIP3    H120468   5.760   3.367   4.482
 6837TIP3    H220469   5.893   3.432   4.448
 6838TIP3   OH220470   7.649   7.175   4.543
 6838TIP3    H120471   7.619   7.195   4.632
 6838TIP3    H220472   7.724   7.117   4.555
 6839TIP3   OH220473   2.991   7.219   5.461
 6839TIP3    H120474   3.024   7.148   5.516
 6839TIP3    H220475   3.063   7.236   5.399
 6840TIP3   OH220476   1.321   3.699   1.753
 6840TIP3    H120477   1.285   3.612   1.774
 6840TIP3    H220478   1.263   3.732   1.683
 6841TIP3   OH220479   0.036   5.723   0.449
 6841TIP3    H120480   0.083   5.792   0.497
 6841TIP3    H220481   0.094   5.647   0.454
 6842TIP3   OH220482   2.329   6.187   0.400
 6842TIP3    H120483   2.334   6.134   0.320
 6842TIP3    H220484   2.388   6.143   0.462
 6843TIP3   OH220485   0.798   2.070   2.210
 6843TIP3    H120486   0.806   2.145   2.269
 6843TIP3    H220487   0.704   2.054   2.204
 6844TIP3   OH220488   7.105   6.874   4.314
 6844TIP3    H120489   7.013   6.850   4.304
 6844TIP3    H220490   7.138   6.815   4.381
 6845TIP3   OH220491   6.786   1.703   6.436
 6845TIP3    H120492   6.751   1.635   6.378
 6845TIP3    H220493   6.728   1.778   6.422
 6846TIP3   OH220494   2.224   3.143   2.413
 6846TIP3    H120495   2.264   3.104   2.335
 6846TIP3    H220496   2.165   3.075   2.445
 6847TIP3   OH220497   4.711   1.329   0.923
 6847TIP3    H120498   4.648   1.354   0.991
 6847TIP3    H220499   4.769   1.266   0.965
 6848TIP3   OH220500   1.584   7.087   3.771
 6848TIP3    H120501   1.631   7.170   3.780
 6848TIP3    H220502   1.605   7.039   3.851
 6849TIP3   OH220503   6.321   3.062   1.419
 6849TIP3    H120504   6.365   3.098   1.496
 6849TIP3    H220505   6.351   2.971   1.414
 6850TIP3   OH220506   6.946   3.405   1.080
 6850TIP3    H120507   6.868   3.458   1.061
 6850TIP3    H220508   6.983   3.445   1.159
 6851TIP3   OH220509   5.616   2.036   4.236
 6851TIP3    H120510   5.589   1.978   4.165
 6851TIP3    H220511   5.534   2.074   4.269
 6852TIP3   OH220512   1.105   5.020   0.869
 6852TIP3    H120513   1.117   5.022   0.964
 6852TIP3    H220514   1.011   5.005   0.857
 6853TIP3   OH220515   7.042   5.697   0.164
 6853TIP3    H120516   7.094   5.775   0.146
 6853TIP3    H220517   7.062   5.676   0.255
 6854TIP3   OH220518   3.324   7.741   1.712
 6854TIP3    H120519   3.278   7.725   1.794
 6854TIP3    H220520   3.307   7.663   1.659
 6855TIP3   OH220521   4.855   1.223   4.393
 6855TIP3    H120522   4.874   1.313   4.367
 6855TIP3    H220523   4.785   1.195   4.334
 6856TIP3   OH220524   7.317   3.352   0.490
 6856TIP3    H120525   7.287   3.401   0.413
 6856TIP3    H220526   7.274   3.267   0.484
 6857TIP3   OH220527   7.967   1.979   4.112
 6857TIP3    H120528   7.945   2.072   4.120
 6857TIP3    H220529   7.885   1.937   4.084
 6858TIP3   OH220530   1.740   3.394   3.626
 6858TIP3    H120531   1.664   3.419   3.678
 6858TIP3    H220532   1.738   3.452   3.550
 6859TIP3   OH220533   7.250   4.600   5.680
 6859TIP3    H120534   7.290   4.623   5.596
 6859TIP3    H220535   7.325   4.580   5.737
 6860TIP3   OH220536   6.738   4.293   5.209
 6860TIP3    H120537   6.760   4.321   5.298
 6860TIP3    H220538   6.789   4.352   5.152
 6861TIP3   OH220539   5.656   1.480   3.650
 6861TIP3    H120540   5.684   1.536   3.577
 6861TIP3    H220541   5.707   1.511   3.725
 6862TIP3   OH220542   5.042   5.297   1.793
 6862TIP3    H120543   5.102   5.320   1.864
 6862TIP3    H220544   4.963   5.265   1.837
 6863TIP3   OH220545   1.082   5.273   4.154
 6863TIP3    H120546   1.149   5.339   4.169
 6863TIP3    H220547   1.122   5.210   4.094
 6864TIP3   OH220548   4.061   0.231   1.616
 6864TIP3    H120549   4.032   0.314   1.653
 6864TIP3    H220550   4.107   0.187   1.687
 6865TIP3   OH220551   3.695   6.218   6.633
 6865TIP3    H120552   3.685   6.293   6.693
 6865TIP3    H220553   3.726   6.257   6.552
 6866TIP3   OH220554   5.229   3.025   4.621
 6866TIP3    H120555   5.247   2.940   4.579
 6866TIP3    H220556   5.297   3.033   4.688
 6867TIP3   OH220557   7.535   3.805   2.131
 6867TIP3    H120558   7.517   3.750   2.055
 6867TIP3    H220559   7.458   3.862   2.138
 6868TIP3   OH220560   7.082   3.442   5.202
 6868TIP3    H120561   7.086   3.442   5.297
 6868TIP3    H220562   7.008   3.499   5.181
 6869TIP3   OH220563   2.331   2.380   2.895
 6869TIP3    H120564   2.408   2.402   2.842
 6869TIP3    H220565   2.326   2.450   2.960
 6870TIP3   OH220566   1.640   3.591   6.435
 6870TIP3    H120567   1.589   3.560   6.361
 6870TIP3    H220568   1.618   3.684   6.442
 6871TIP3   OH220569   6.449   4.859   0.850
 6871TIP3    H120570   6.524   4.800   0.847
 6871TIP3    H220571   6.485   4.944   0.872
 6872TIP3   OH220572   4.716   6.509   5.656
 6872TIP3    H120573   4.724   6.414   5.644
 6872TIP3    H220574   4.784   6.530   5.721
 6873TIP3   OH220575   3.132   6.935   3.968
 6873TIP3    H120576   3.036   6.942   3.975
 6873TIP3    H220577   3.149   6.947   3.874
 6874TIP3   OH220578   2.080   7.719   6.153
 6874TIP3    H120579   2.024   7.740   6.079
 6874TIP3    H220580   2.101   7.804   6.192
 6875TIP3   OH220581   5.424   4.467   3.510
 6875TIP3    H120582   5.468   4.448   3.593
 6875TIP3    H220583   5.406   4.561   3.513
 6876TIP3   OH220584   7.338   1.124   1.495
 6876TIP3    H120585   7.334   1.084   1.581
 6876TIP3    H220586   7.255   1.100   1.453
 6877TIP3   OH220587   2.128   5.560   1.981
 6877TIP3    H120588   2.098   5.615   2.054
 6877TIP3    H220589   2.157   5.623   1.915
 6878TIP3   OH220590   7.140   1.080   1.232
 6878TIP3    H120591   7.088   1.132   1.171
 6878TIP3    H220592   7.225   1.072   1.188
 6879TIP3   OH220593   1.013   3.744   2.509
 6879TIP3    H120594   0.969   3.765   2.592
 6879TIP3    H220595   0.991   3.818   2.451
 6880TIP3   OH220596   1.903   6.910   2.180
 6880TIP3    H120597   1.883   6.871   2.265
 6880TIP3    H220598   1.992   6.944   2.190
 6881TIP3   OH220599   6.302   5.608   5.682
 6881TIP3    H120600   6.322   5.640   5.770
 6881TIP3    H220601   6.232   5.667   5.652
 6882TIP3   OH220602   4.617   2.524   0.230
 6882TIP3    H120603   4.661   2.605   0.256
 6882TIP3    H220604   4.672   2.454   0.266
 6883TIP3   OH220605   0.603   3.329   2.393
 6883TIP3    H120606   0.546   3.256   2.419
 6883TIP3    H220607   0.658   3.344   2.470
 6884TIP3   OH220608   0.788   4.685   2.873
 6884TIP3    H120609   0.869   4.728   2.901
 6884TIP3    H220610   0.752   4.648   2.953
 6885TIP3   OH220611   5.310   6.663   1.234
 6885TIP3    H120612   5.241   6.619   1.184
 6885TIP3    H220613   5.367   6.701   1.167
 6886TIP3   OH220614   1.098   5.607   6.216
 6886TIP3    H120615   1.005   5.599   6.238
 6886TIP3    H220616   1.121   5.521   6.179
 6887TIP3   OH220617   2.819   2.942   0.616
 6887TIP3    H120618   2.854   2.868   0.664
 6887TIP3    H220619   2.738   2.909   0.576
 6888TIP3   OH220620   0.725   5.284   4.707
 6888TIP3    H120621   0.664   5.265   4.636
 6888TIP3    H220622   0.735   5.379   4.706
 6889TIP3   OH220623   4.277   1.178   4.622
 6889TIP3    H120624   4.221   1.238   4.671
 6889TIP3    H220625   4.237   1.173   4.536
 6890TIP3   OH220626   5.664   0.967   3.496
 6890TIP3    H120627   5.746   0.938   3.536
 6890TIP3    H220628   5.671   1.063   3.494
 6891TIP3   OH220629   0.185   4.950   1.464
 6891TIP3    H120630   0.111   4.972   1.520
 6891TIP3    H220631   0.157   4.977   1.376
 6892TIP3   OH220632   6.835   0.482   1.204
 6892TIP3    H120633   6.754   0.453   1.162
 6892TIP3    H220634   6.870   0.549   1.146
 6893TIP3   OH220635   6.000   1.105   4.755
 6893TIP3    H120636   5.944   1.173   4.718
 6893TIP3    H220637   5.940   1.049   4.805
 6894TIP3   OH220638   2.756   5.638   5.811
 6894TIP3    H120639   2.772   5.611   5.902
 6894TIP3    H220640   2.803   5.721   5.802
 6895TIP3   OH220641   6.977   2.521   0.395
 6895TIP3    H120642   7.037   2.594   0.381
 6895TIP3    H220643   7.032   2.443   0.389
 6896TIP3   OH220644   3.285   0.080   3.200
 6896TIP3    H120645   3.234   0.126   3.133
 6896TIP3    H220646   3.258   0.120   3.283
 6897TIP3   OH220647   4.775   5.555   5.517
 6897TIP3    H120648   4.787   5.539   5.610
 6897TIP3    H220649   4.768   5.468   5.478
 6898TIP3   OH220650   3.593   5.518   6.792
 6898TIP3    H120651   3.503   5.549   6.804
 6898TIP3    H220652   3.629   5.573   6.723
 6899TIP3   OH220653   1.117   2.871   0.076
 6899TIP3    H120654   1.024   2.856   0.060
 6899TIP3    H220655   1.129   2.965   0.066
 6900TIP3   OH220656   0.770   5.244   1.505
 6900TIP3    H120657   0.777   5.170   1.565
 6900TIP3    H220658   0.801   5.319   1.555
 6901TIP3   OH220659   4.295   5.323   6.624
 6901TIP3    H120660   4.378   5.282   6.601
 6901TIP3    H220661   4.274   5.380   6.551
 6902TIP3   OH220662   4.674   2.316   3.643
 6902TIP3    H120663   4.596   2.364   3.616
 6902TIP3    H220664   4.648   2.224   3.640
 6903TIP3   OH220665   5.540   2.055   1.026
 6903TIP3    H120666   5.448   2.032   1.035
 6903TIP3    H220667   5.578   2.039   1.113
 6904TIP3   OH220668   6.078   4.416   5.474
 6904TIP3    H120669   6.139   4.368   5.531
 6904TIP3    H220670   6.027   4.471   5.533
 6905TIP3   OH220671   7.119   3.774   0.510
 6905TIP3    H120672   7.141   3.686   0.540
 6905TIP3    H220673   7.034   3.764   0.467
 6906TIP3   OH220674   2.841   5.240   6.438
 6906TIP3    H120675   2.920   5.223   6.490
 6906TIP3    H220676   2.857   5.326   6.397
 6907TIP3   OH220677   8.167   2.557   1.063
 6907TIP3    H120678   8.132   2.624   1.004
 6907TIP3    H220679   8.106   2.557   1.137
 6908TIP3   OH220680   4.133   6.272   2.520
 6908TIP3    H120681   4.146   6.223   2.601
 6908TIP3    H220682   4.217   6.315   2.505
 6909TIP3   OH220683   1.128   2.774   0.647
 6909TIP3    H120684   1.149   2.752   0.738
 6909TIP3    H220685   1.043   2.733   0.632
 6910TIP3   OH220686   2.609   7.747   5.682
 6910TIP3    H120687   2.704   7.744   5.685
 6910TIP3    H220688   2.587   7.839   5.698
 6911TIP3   OH220689   0.435   5.513   1.594
 6911TIP3    H120690   0.341   5.520   1.577
 6911TIP3    H220691   0.473   5.585   1.544
 6912TIP3   OH220692   4.628   6.042   0.998
 6912TIP3    H120693   4.720   6.017   0.992
 6912TIP3    H220694   4.583   5.962   1.025
 6913TIP3   OH220695   2.821   5.178   5.761
 6913TIP3    H120696   2.861   5.130   5.689
 6913TIP3    H220697   2.838   5.270   5.741
 6914TIP3   OH220698   3.383   5.120   3.860
 6914TIP3    H120699   3.305   5.172   3.839
 6914TIP3    H220700   3.398   5.135   3.953
 6915TIP3   OH220701   2.224   7.156   0.843
 6915TIP3    H120702   2.182   7.073   0.865
 6915TIP3    H220703   2.168   7.194   0.776
 6916TIP3   OH220704   7.444   2.879   1.046
 6916TIP3    H120705   7.425   2.973   1.055
 6916TIP3    H220706   7.432   2.861   0.953
 6917TIP3   OH220707   2.352   0.879   0.963
 6917TIP3    H120708   2.275   0.922   0.925
 6917TIP3    H220709   2.396   0.838   0.888
 6918TIP3   OH220710   7.237   3.868   6.627
 6918TIP3    H120711   7.249   3.806   6.699
 6918TIP3    H220712   7.293   3.835   6.557
 6919TIP3   OH220713   5.311   6.093   0.754
 6919TIP3    H120714   5.363   6.130   0.682
 6919TIP3    H220715   5.354   6.126   0.833
 6920TIP3   OH220716   1.246   7.157   4.543
 6920TIP3    H120717   1.328   7.149   4.592
 6920TIP3    H220718   1.188   7.091   4.581
 6921TIP3   OH220719   0.982   7.701   4.480
 6921TIP3    H120720   1.042   7.643   4.527
 6921TIP3    H220721   1.031   7.728   4.403
 6922TIP3   OH220722   2.409   4.347   6.302
 6922TIP3    H120723   2.397   4.283   6.372
 6922TIP3    H220724   2.322   4.356   6.262
 6923TIP3   OH220725   5.578   5.593   3.198
 6923TIP3    H120726   5.582   5.680   3.237
 6923TIP3    H220727   5.488   5.563   3.216
 6924TIP3   OH220728   2.365   0.757   0.338
 6924TIP3    H120729   2.281   0.780   0.297
 6924TIP3    H220730   2.395   0.839   0.378
 6925TIP3   OH220731   0.205   5.581   4.111
 6925TIP3    H120732   0.123   5.550   4.150
 6925TIP3    H220733   0.199   5.676   4.115
 6926TIP3   OH220734   4.197   2.921   6.260
 6926TIP3    H120735   4.257   2.868   6.312
 6926TIP3    H220736   4.206   3.009   6.297
 6927TIP3   OH220737   3.288   3.796   6.726
 6927TIP3    H120738   3.342   3.717   6.720
 6927TIP3    H220739   3.233   3.793   6.647
 6928TIP3   OH220740   3.752   2.076   3.533
 6928TIP3    H120741   3.748   2.037   3.620
 6928TIP3    H220742   3.837   2.048   3.498
 6929TIP3   OH220743   7.244   3.679   1.965
 6929TIP3    H120744   7.252   3.766   2.006
 6929TIP3    H220745   7.274   3.693   1.875
 6930TIP3   OH220746   2.381   3.390   1.869
 6930TIP3    H120747   2.372   3.308   1.918
 6930TIP3    H220748   2.450   3.438   1.915
 6931TIP3   OH220749   4.584   0.003   2.953
 6931TIP3    H120750   4.503  -0.042   2.975
 6931TIP3    H220751   4.558   0.072   2.892
 6932TIP3   OH220752   3.147   6.407   6.531
 6932TIP3    H120753   3.190   6.492   6.528
 6932TIP3    H220754   3.068   6.418   6.478
 6933TIP3   OH220755   4.687   2.379   2.725
 6933TIP3    H120756   4.710   2.438   2.653
 6933TIP3    H220757   4.690   2.291   2.686
 6934TIP3   OH220758   1.098   2.358   2.189
 6934TIP3    H120759   1.031   2.407   2.237
 6934TIP3    H220760   1.094   2.394   2.100
 6935TIP3   OH220761   4.907   5.299   3.042
 6935TIP3    H120762   4.876   5.211   3.019
 6935TIP3    H220763   4.991   5.284   3.086
 6936TIP3   OH220764   6.752   6.725   3.919
 6936TIP3    H120765   6.743   6.778   3.998
 6936TIP3    H220766   6.834   6.677   3.930
 6937TIP3   OH220767   4.013   7.116   5.536
 6937TIP3    H120768   3.930   7.067   5.533
 6937TIP3    H220769   4.061   7.087   5.459
 6938TIP3   OH220770   3.444   7.605   0.193
 6938TIP3    H120771   3.532   7.640   0.204
 6938TIP3    H220772   3.399   7.669   0.138
 6939TIP3   OH220773   1.902   6.938   6.092
 6939TIP3    H120774   1.929   6.887   6.168
 6939TIP3    H220775   1.946   6.896   6.018
 6940TIP3   OH220776   3.556   0.390   2.490
 6940TIP3    H120777   3.470   0.357   2.466
 6940TIP3    H220778   3.578   0.454   2.423
 6941TIP3   OH220779   0.767   2.267   0.252
 6941TIP3    H120780   0.841   2.210   0.231
 6941TIP3    H220781   0.691   2.223   0.212
 6942TIP3   OH220782   5.423   4.840   2.762
 6942TIP3    H120783   5.334   4.844   2.728
 6942TIP3    H220784   5.416   4.794   2.846
 6943TIP3   OH220785   8.149   5.582   6.658
 6943TIP3    H120786   8.111   5.551   6.576
 6943TIP3    H220787   8.231   5.624   6.633
 6944TIP3   OH220788   4.201   6.790   1.973
 6944TIP3    H120789   4.207   6.811   1.880
 6944TIP3    H220790   4.174   6.698   1.975
 6945TIP3   OH220791   5.678   1.790   2.000
 6945TIP3    H120792   5.607   1.837   2.042
 6945TIP3    H220793   5.670   1.813   1.907
 6946TIP3   OH220794   1.652   6.061   0.317
 6946TIP3    H120795   1.597   6.010   0.377
 6946TIP3    H220796   1.623   6.152   0.331
 6947TIP3   OH220797   6.110   1.940   5.221
 6947TIP3    H120798   6.165   2.009   5.258
 6947TIP3    H220799   6.021   1.962   5.249
 6948TIP3   OH220800   5.744   3.770   4.660
 6948TIP3    H120801   5.755   3.685   4.703
 6948TIP3    H220802   5.661   3.803   4.693
 6949TIP3   OH220803   4.071   2.254   5.128
 6949TIP3    H120804   4.031   2.320   5.185
 6949TIP3    H220805   3.996   2.212   5.085
 6950TIP3   OH220806   4.608   5.327   2.095
 6950TIP3    H120807   4.560   5.267   2.152
 6950TIP3    H220808   4.541   5.377   2.049
 6951TIP3   OH220809   7.564   6.974   2.426
 6951TIP3    H120810   7.518   6.996   2.345
 6951TIP3    H220811   7.538   7.041   2.488
 6952TIP3   OH220812   5.038   1.416   0.593
 6952TIP3    H120813   5.012   1.450   0.508
 6952TIP3    H220814   4.990   1.333   0.602
 6953TIP3   OH220815   4.557   6.344   1.529
 6953TIP3    H120816   4.492   6.290   1.483
 6953TIP3    H220817   4.505   6.408   1.577
 6954TIP3   OH220818   1.626   7.272   6.437
 6954TIP3    H120819   1.550   7.329   6.442
 6954TIP3    H220820   1.692   7.325   6.391
 6955TIP3   OH220821   4.714   3.480   1.665
 6955TIP3    H120822   4.725   3.470   1.760
 6955TIP3    H220823   4.750   3.400   1.628
 6956TIP3   OH220824   2.702   3.438   5.490
 6956TIP3    H120825   2.708   3.345   5.508
 6956TIP3    H220826   2.772   3.477   5.542
 6957TIP3   OH220827   2.257   3.546   3.350
 6957TIP3    H120828   2.262   3.496   3.431
 6957TIP3    H220829   2.262   3.481   3.280
 6958TIP3   OH220830   3.865   4.496   3.292
 6958TIP3    H120831   3.809   4.499   3.370
 6958TIP3    H220832   3.915   4.415   3.301
 6959TIP3   OH220833   4.356   6.617   1.194
 6959TIP3    H120834   4.406   6.669   1.131
 6959TIP3    H220835   4.391   6.642   1.279
 6960TIP3   OH220836   7.458   2.435   2.730
 6960TIP3    H120837   7.525   2.453   2.796
 6960TIP3    H220838   7.469   2.342   2.709
 6961TIP3   OH220839   3.227   3.288   1.356
 6961TIP3    H120840   3.229   3.378   1.322
 6961TIP3    H220841   3.319   3.270   1.378
 6962TIP3   OH220842   4.023   3.357   3.360
 6962TIP3    H120843   4.020   3.452   3.343
 6962TIP3    H220844   3.946   3.323   3.315
 6963TIP3   OH220845   7.707   5.167   2.401
 6963TIP3    H120846   7.779   5.219   2.366
 6963TIP3    H220847   7.650   5.151   2.326
 6964TIP3   OH220848   4.615   1.837   5.786
 6964TIP3    H120849   4.677   1.771   5.816
 6964TIP3    H220850   4.633   1.846   5.693
 6965TIP3   OH220851   4.364   5.148   3.637
 6965TIP3    H120852   4.395   5.222   3.585
 6965TIP3    H220853   4.342   5.080   3.574
 6966TIP3   OH220854   5.819   6.042   0.516
 6966TIP3    H120855   5.742   6.087   0.482
 6966TIP3    H220856   5.836   5.973   0.453
 6967TIP3   OH220857   7.910   5.047   0.042
 6967TIP3    H120858   7.911   5.062   0.137
 6967TIP3    H220859   7.971   5.112   0.007
 6968TIP3   OH220860   2.383   6.636   3.783
 6968TIP3    H120861   2.406   6.543   3.783
 6968TIP3    H220862   2.452   6.678   3.731
 6969TIP3   OH220863   1.686   5.117   2.199
 6969TIP3    H120864   1.632   5.187   2.236
 6969TIP3    H220865   1.670   5.123   2.105
 6970TIP3   OH220866   1.217   6.212   4.232
 6970TIP3    H120867   1.300   6.257   4.248
 6970TIP3    H220868   1.221   6.188   4.139
 6971TIP3   OH220869   5.275   3.991   0.330
 6971TIP3    H120870   5.285   4.026   0.242
 6971TIP3    H220871   5.351   3.934   0.342
 6972TIP3   OH220872   5.093   0.584   6.370
 6972TIP3    H120873   5.185   0.559   6.373
 6972TIP3    H220874   5.079   0.619   6.283
 6973TIP3   OH220875   2.909   1.013   4.453
 6973TIP3    H120876   2.978   1.029   4.518
 6973TIP3    H220877   2.874   1.100   4.433
 6974TIP3   OH220878   5.169   4.548   2.218
 6974TIP3    H120879   5.083   4.572   2.183
 6974TIP3    H220880   5.185   4.613   2.287
 6975TIP3   OH220881   5.884   7.368   1.433
 6975TIP3    H120882   5.852   7.346   1.346
 6975TIP3    H220883   5.836   7.309   1.491
 6976TIP3   OH220884   7.939   0.650   1.838
 6976TIP3    H120885   7.992   0.675   1.914
 6976TIP3    H220886   7.868   0.714   1.837
 6977TIP3   OH220887   0.713   2.836   6.211
 6977TIP3    H120888   0.692   2.929   6.218
 6977TIP3    H220889   0.722   2.821   6.117
 6978TIP3   OH220890   2.718   0.115   1.465
 6978TIP3    H120891   2.728   0.201   1.424
 6978TIP3    H220892   2.738   0.052   1.396
 6979TIP3   OH220893   2.053   5.297   1.990
 6979TIP3    H120894   2.065   5.391   1.975
 6979TIP3    H220895   2.111   5.255   1.927
 6980TIP3   OH220896   0.551   6.441   6.619
 6980TIP3    H120897   0.463   6.470   6.643
 6980TIP3    H220898   0.559   6.463   6.526
 6981TIP3   OH220899   5.601   7.624   4.483
 6981TIP3    H120900   5.571   7.586   4.566
 6981TIP3    H220901   5.543   7.699   4.469
 6982TIP3   OH220902   5.607   2.820   5.224
 6982TIP3    H120903   5.525   2.779   5.249
 6982TIP3    H220904   5.588   2.866   5.142
 6983TIP3   OH220905   0.300   4.587   0.241
 6983TIP3    H120906   0.209   4.593   0.212
 6983TIP3    H220907   0.352   4.591   0.160
 6984TIP3   OH220908   0.976   7.535   3.823
 6984TIP3    H120909   1.029   7.493   3.756
 6984TIP3    H220910   1.038   7.559   3.892
 6985TIP3   OH220911   7.444   1.395   4.738
 6985TIP3    H120912   7.517   1.401   4.676
 6985TIP3    H220913   7.376   1.347   4.690
 6986TIP3   OH220914   3.561   6.253   3.249
 6986TIP3    H120915   3.502   6.323   3.222
 6986TIP3    H220916   3.584   6.208   3.167
 6987TIP3   OH220917   1.522   0.146   1.977
 6987TIP3    H120918   1.530   0.133   2.072
 6987TIP3    H220919   1.601   0.195   1.953
 6988TIP3   OH220920   3.725   1.952   5.765
 6988TIP3    H120921   3.635   1.974   5.739
 6988TIP3    H220922   3.777   1.969   5.686
 6989TIP3   OH220923   0.349   2.513   3.352
 6989TIP3    H120924   0.258   2.527   3.326
 6989TIP3    H220925   0.351   2.534   3.445
 6990TIP3   OH220926   0.309   1.213   0.619
 6990TIP3    H120927   0.381   1.200   0.681
 6990TIP3    H220928   0.231   1.183   0.666
 6991TIP3   OH220929   2.476   0.990   0.458
 6991TIP3    H120930   2.474   1.085   0.443
 6991TIP3    H220931   2.568   0.971   0.474
 6992TIP3   OH220932   0.927   0.841   6.635
 6992TIP3    H120933   0.984   0.840   6.558
 6992TIP3    H220934   0.979   0.804   6.705
 6993TIP3   OH220935   4.968   6.766   0.310
 6993TIP3    H120936   4.895   6.707   0.292
 6993TIP3    H220937   4.978   6.818   0.231
 6994TIP3   OH220938   3.770   3.351   1.609
 6994TIP3    H120939   3.768   3.408   1.532
 6994TIP3    H220940   3.801   3.267   1.576
 6995TIP3   OH220941   0.103   0.078   0.594
 6995TIP3    H120942   0.019   0.036   0.615
 6995TIP3    H220943   0.160   0.055   0.667
 6996TIP3   OH220944   1.526   2.176   6.318
 6996TIP3    H120945   1.596   2.235   6.346
 6996TIP3    H220946   1.472   2.228   6.259
 6997TIP3   OH220947   6.822   1.777   3.415
 6997TIP3    H120948   6.801   1.867   3.441
 6997TIP3    H220949   6.749   1.725   3.448
 6998TIP3   OH220950   1.318   1.928   5.650
 6998TIP3    H120951   1.405   1.928   5.688
 6998TIP3    H220952   1.305   1.839   5.618
 6999TIP3   OH220953   7.647   2.657   4.337
 6999TIP3    H120954   7.721   2.602   4.311
 6999TIP3    H220955   7.686   2.743   4.353
 7000TIP3   OH220956   3.954   5.699   2.536
 7000TIP3    H120957   4.033   5.666   2.580
 7000TIP3    H220958   3.899   5.622   2.524
 7001TIP3   OH220959   3.136   0.500   6.749
 7001TIP3    H120960   3.231   0.490   6.751
 7001TIP3    H220961   3.116   0.526   6.659
 7002TIP3   OH220962   2.914   1.471   0.704
 7002TIP3    H120963   3.007   1.486   0.687
 7002TIP3    H220964   2.883   1.552   0.743
 7003TIP3   OH220965   4.308   0.339   4.364
 7003TIP3    H120966   4.375   0.314   4.429
 7003TIP3    H220967   4.226   0.337   4.413
 7004TIP3   OH220968   0.976   4.848   2.961
 7004TIP3    H120969   1.029   4.826   3.038
 7004TIP3    H220970   1.034   4.900   2.906
 7005TIP3   OH220971   6.061   0.361   2.392
 7005TIP3    H120972   6.076   0.453   2.413
 7005TIP3    H220973   6.127   0.341   2.325
 7006TIP3   OH220974   1.734   3.520   5.729
 7006TIP3    H120975   1.640   3.512   5.744
 7006TIP3    H220976   1.744   3.603   5.682
 7007TIP3   OH220977   3.777   4.190   4.128
 7007TIP3    H120978   3.810   4.244   4.057
 7007TIP3    H220979   3.693   4.158   4.096
 7008TIP3   OH220980   5.343   6.912   6.776
 7008TIP3    H120981   5.304   6.994   6.746
 7008TIP3    H220982   5.396   6.882   6.703
 7009TIP3   OH220983   3.292   3.446   0.274
 7009TIP3    H120984   3.336   3.366   0.303
 7009TIP3    H220985   3.283   3.435   0.179
 7010TIP3   OH220986   1.686   2.323   2.612
 7010TIP3    H120987   1.780   2.318   2.629
 7010TIP3    H220988   1.668   2.249   2.554
 7011TIP3   OH220989   1.144   0.307   3.876
 7011TIP3    H120990   1.185   0.388   3.910
 7011TIP3    H220991   1.187   0.237   3.925
 7012TIP3   OH220992   4.418   7.012   3.373
 7012TIP3    H120993   4.369   7.048   3.299
 7012TIP3    H220994   4.397   7.071   3.446
 7013TIP3   OH220995   4.146   0.312   2.638
 7013TIP3    H120996   4.148   0.256   2.561
 7013TIP3    H220997   4.062   0.356   2.634
 7014TIP3   OH220998   7.669   7.510   3.958
 7014TIP3    H120999   7.685   7.511   3.864
 7014TIP3    H221000   7.678   7.601   3.985
 7015TIP3   OH221001   4.541   2.709   2.962
 7015TIP3    H121002   4.636   2.723   2.971
 7015TIP3    H221003   4.510   2.694   3.051
 7016TIP3   OH221004   4.417   2.189   0.055
 7016TIP3    H121005   4.453   2.182   0.143
 7016TIP3    H221006   4.463   2.263   0.016
 7017TIP3   OH221007   2.833   2.731   5.153
 7017TIP3    H121008   2.806   2.642   5.177
 7017TIP3    H221009   2.796   2.744   5.066
 7018TIP3   OH221010   3.055   2.513   6.105
 7018TIP3    H121011   2.986   2.580   6.097
 7018TIP3    H221012   3.017   2.436   6.064
 7019TIP3   OH221013   1.470   5.971   6.043
 7019TIP3    H121014   1.531   5.903   6.016
 7019TIP3    H221015   1.442   6.013   5.962
 7020TIP3   OH221016   7.117   5.046   2.642
 7020TIP3    H121017   7.107   4.952   2.658
 7020TIP3    H221018   7.126   5.084   2.729
 7021TIP3   OH221019   7.783   6.380   5.933
 7021TIP3    H121020   7.840   6.328   5.877
 7021TIP3    H221021   7.714   6.412   5.876
 7022TIP3   OH221022   1.753   4.731   4.873
 7022TIP3    H121023   1.661   4.751   4.853
 7022TIP3    H221024   1.771   4.651   4.825
 7023TIP3   OH221025   6.287   6.596   1.904
 7023TIP3    H121026   6.351   6.559   1.966
 7023TIP3    H221027   6.336   6.606   1.823
 7024TIP3   OH221028   4.770   2.378   2.271
 7024TIP3    H121029   4.802   2.312   2.333
 7024TIP3    H221030   4.735   2.327   2.198
 7025TIP3   OH221031   0.624   0.338   1.170
 7025TIP3    H121032   0.711   0.315   1.201
 7025TIP3    H221033   0.565   0.276   1.213
 7026TIP3   OH221034   6.655   1.076   1.662
 7026TIP3    H121035   6.574   1.032   1.635
 7026TIP3    H221036   6.680   1.127   1.585
 7027TIP3   OH221037   0.240   6.239   0.588
 7027TIP3    H121038   0.300   6.213   0.658
 7027TIP3    H221039   0.201   6.320   0.619
 7028TIP3   OH221040   2.228   6.154   2.782
 7028TIP3    H121041   2.225   6.245   2.750
 7028TIP3    H221042   2.148   6.114   2.749
 7029TIP3   OH221043   8.249   6.536   6.028
 7029TIP3    H121044   8.290   6.591   5.961
 7029TIP3    H221045   8.272   6.447   6.004
 7030TIP3   OH221046   8.124   1.054   4.988
 7030TIP3    H121047   8.170   0.971   5.004
 7030TIP3    H221048   8.057   1.057   5.057
 7031TIP3   OH221049   7.015   2.384   6.375
 7031TIP3    H121050   7.062   2.410   6.295
 7031TIP3    H221051   7.028   2.289   6.379
 7032TIP3   OH221052   4.502   0.393   5.523
 7032TIP3    H121053   4.509   0.482   5.556
 7032TIP3    H221054   4.408   0.378   5.513
 7033TIP3   OH221055   5.906   3.569   2.922
 7033TIP3    H121056   5.839   3.597   2.860
 7033TIP3    H221057   5.934   3.483   2.890
 7034TIP3   OH221058   4.308   5.521   0.666
 7034TIP3    H121059   4.376   5.501   0.601
 7034TIP3    H221060   4.227   5.489   0.625
 7035TIP3   OH221061   3.851   1.910   6.694
 7035TIP3    H121062   3.780   1.890   6.755
 7035TIP3    H221063   3.927   1.865   6.730
 7036TIP3   OH221064   6.411   0.004   6.587
 7036TIP3    H121065   6.397   0.016   6.681
 7036TIP3    H221066   6.334   0.043   6.546
 7037TIP3   OH221067   4.615   5.834   3.392
 7037TIP3    H121068   4.630   5.920   3.353
 7037TIP3    H221069   4.527   5.810   3.365
 7038TIP3   OH221070   6.137   5.163   2.568
 7038TIP3    H121071   6.193   5.085   2.569
 7038TIP3    H221072   6.117   5.177   2.475
 7039TIP3   OH221073   7.274   3.992   2.944
 7039TIP3    H121074   7.302   4.083   2.957
 7039TIP3    H221075   7.307   3.969   2.857
 7040TIP3   OH221076   4.851   4.753   6.656
 7040TIP3    H121077   4.828   4.836   6.695
 7040TIP3    H221078   4.798   4.748   6.576
 7041TIP3   OH221079   2.834   0.613   4.133
 7041TIP3    H121080   2.922   0.579   4.148
 7041TIP3    H221081   2.793   0.549   4.075
 7042TIP3   OH221082   6.042   0.788   4.341
 7042TIP3    H121083   6.056   0.851   4.270
 7042TIP3    H221084   6.063   0.837   4.421
 7043TIP3   OH221085   4.237   6.227   1.698
 7043TIP3    H121086   4.193   6.264   1.622
 7043TIP3    H221087   4.315   6.185   1.663
 7044TIP3   OH221088   6.618   2.381   3.772
 7044TIP3    H121089   6.616   2.443   3.845
 7044TIP3    H221090   6.661   2.429   3.701
 7045TIP3   OH221091   4.482   2.328   3.125
 7045TIP3    H121092   4.474   2.317   3.031
 7045TIP3    H221093   4.575   2.349   3.139
 7046TIP3   OH221094   5.592   0.622   2.137
 7046TIP3    H121095   5.547   0.705   2.126
 7046TIP3    H221096   5.679   0.637   2.101
 7047TIP3   OH221097   2.882   6.744   4.848
 7047TIP3    H121098   2.891   6.690   4.770
 7047TIP3    H221099   2.910   6.831   4.821
 7048TIP3   OH221100   2.037   4.848   1.081
 7048TIP3    H121101   2.015   4.893   1.163
 7048TIP3    H221102   2.124   4.880   1.059
 7049TIP3   OH221103   2.610   7.789   1.808
 7049TIP3    H121104   2.632   7.879   1.781
 7049TIP3    H221105   2.516   7.781   1.792
 7050TIP3   OH221106   5.868   1.286   2.025
 7050TIP3    H121107   5.807   1.356   2.000
 7050TIP3    H221108   5.945   1.333   2.058
 7051TIP3   OH221109   5.075   6.909   2.329
 7051TIP3    H121110   5.038   6.890   2.415
 7051TIP3    H221111   5.103   6.824   2.295
 7052TIP3   OH221112   4.780   4.215   2.348
 7052TIP3    H121113   4.752   4.263   2.425
 7052TIP3    H221114   4.762   4.123   2.370
 7053TIP3   OH221115   3.427   0.561   0.403
 7053TIP3    H121116   3.437   0.505   0.480
 7053TIP3    H221117   3.355   0.620   0.426
 7054TIP3   OH221118   3.542   6.195   0.195
 7054TIP3    H121119   3.530   6.182   0.101
 7054TIP3    H221120   3.504   6.281   0.213
 7055TIP3   OH221121   1.406   5.305   1.890
 7055TIP3    H121122   1.371   5.246   1.956
 7055TIP3    H221123   1.489   5.337   1.927
 7056TIP3   OH221124   6.446   0.330   3.169
 7056TIP3    H121125   6.513   0.363   3.109
 7056TIP3    H221126   6.398   0.407   3.196
 7057TIP3   OH221127   6.487   6.316   5.636
 7057TIP3    H121128   6.489   6.362   5.719
 7057TIP3    H221129   6.421   6.248   5.648
 7058TIP3   OH221130   1.986   2.202   0.142
 7058TIP3    H121131   1.928   2.272   0.173
 7058TIP3    H221132   1.957   2.124   0.190
 7059TIP3   OH221133   8.272   1.010   5.394
 7059TIP3    H121134   8.327   1.005   5.316
 7059TIP3    H221135   8.184   0.986   5.364
 7060TIP3   OH221136   3.514   7.615   1.039
 7060TIP3    H121137   3.608   7.628   1.030
 7060TIP3    H221138   3.506   7.533   1.087
 7061TIP3   OH221139   6.941   1.612   1.663
 7061TIP3    H121140   6.985   1.546   1.717
 7061TIP3    H221141   6.888   1.662   1.725
 7062TIP3   OH221142   4.549   5.342   3.505
 7062TIP3    H121143   4.604   5.307   3.576
 7062TIP3    H221144   4.572   5.435   3.502
 7063TIP3   OH221145   1.191   3.463   5.314
 7063TIP3    H121146   1.227   3.550   5.329
 7063TIP3    H221147   1.256   3.420   5.258
 7064TIP3   OH221148   6.365   2.663   4.302
 7064TIP3    H121149   6.433   2.657   4.369
 7064TIP3    H221150   6.324   2.748   4.317
 7065TIP3   OH221151   0.292   7.475   1.022
 7065TIP3    H121152   0.356   7.517   1.079
 7065TIP3    H221153   0.269   7.393   1.067
 7066TIP3   OH221154   0.858   2.718   4.674
 7066TIP3    H121155   0.929   2.655   4.685
 7066TIP3    H221156   0.828   2.735   4.763
 7067TIP3   OH221157   1.556   0.660   5.666
 7067TIP3    H121158   1.560   0.652   5.762
 7067TIP3    H221159   1.551   0.755   5.651
 7068TIP3   OH221160   6.987   3.758   1.719
 7068TIP3    H121161   6.957   3.790   1.634
 7068TIP3    H221162   7.078   3.786   1.724
 7069TIP3   OH221163   8.200   5.076   3.876
 7069TIP3    H121164   8.262   5.021   3.828
 7069TIP3    H221165   8.243   5.093   3.960
 7070TIP3   OH221166   1.941   5.815   6.296
 7070TIP3    H121167   1.867   5.786   6.349
 7070TIP3    H221168   1.983   5.734   6.267
 7071TIP3   OH221169   1.671   2.634   1.138
 7071TIP3    H121170   1.716   2.671   1.214
 7071TIP3    H221171   1.626   2.709   1.098
 7072TIP3   OH221172   1.753   5.789   6.512
 7072TIP3    H121173   1.661   5.765   6.502
 7072TIP3    H221174   1.752   5.873   6.557
 7073TIP3   OH221175   1.254   0.915   1.675
 7073TIP3    H121176   1.229   0.847   1.737
 7073TIP3    H221177   1.303   0.868   1.607
 7074TIP3   OH221178   5.651   7.429   2.947
 7074TIP3    H121179   5.711   7.359   2.973
 7074TIP3    H221180   5.572   7.414   2.998
 7075TIP3   OH221181   1.815   7.549   5.936
 7075TIP3    H121182   1.864   7.469   5.951
 7075TIP3    H221183   1.881   7.618   5.929
 7076TIP3   OH221184   8.061   1.414   3.798
 7076TIP3    H121185   8.063   1.325   3.832
 7076TIP3    H221186   8.053   1.403   3.703
 7077TIP3   OH221187   7.209   3.668   2.601
 7077TIP3    H121188   7.176   3.682   2.512
 7077TIP3    H221189   7.131   3.642   2.651
 7078TIP3   OH221190   4.484   0.660   6.719
 7078TIP3    H121191   4.530   0.684   6.638
 7078TIP3    H221192   4.392   0.678   6.699
 7079TIP3   OH221193   4.800   2.766   6.762
 7079TIP3    H121194   4.789   2.685   6.712
 7079TIP3    H221195   4.879   2.806   6.726
 7080TIP3   OH221196   6.166   5.670   6.561
 7080TIP3    H121197   6.237   5.697   6.618
 7080TIP3    H221198   6.193   5.697   6.473
 7081TIP3   OH221199   7.833   3.713   6.606
 7081TIP3    H121200   7.894   3.759   6.548
 7081TIP3    H221201   7.849   3.749   6.693
 7082TIP3   OH221202   5.378   0.866   1.651
 7082TIP3    H121203   5.361   0.959   1.669
 7082TIP3    H221204   5.355   0.822   1.733
 7083TIP3   OH221205   7.978   2.406   1.724
 7083TIP3    H121206   7.920   2.473   1.760
 7083TIP3    H221207   8.061   2.419   1.769
 7084TIP3   OH221208   2.477   1.382   2.285
 7084TIP3    H121209   2.398   1.435   2.274
 7084TIP3    H221210   2.451   1.315   2.349
 7085TIP3   OH221211   4.490   6.740   6.788
 7085TIP3    H121212   4.579   6.753   6.754
 7085TIP3    H221213   4.471   6.648   6.771
 7086TIP3   OH221214   2.987   6.709   1.971
 7086TIP3    H121215   2.934   6.750   1.902
 7086TIP3    H221216   2.992   6.617   1.946
 7087TIP3   OH221217   0.792   2.626   2.501
 7087TIP3    H121218   0.726   2.558   2.517
 7087TIP3    H221219   0.811   2.663   2.587
 7088TIP3   OH221220   6.810   0.358   0.178
 7088TIP3    H121221   6.805   0.434   0.236
 7088TIP3    H221222   6.882   0.305   0.213
 7089TIP3   OH221223   7.534   2.988   4.941
 7089TIP3    H121224   7.505   2.937   4.865
 7089TIP3    H221225   7.570   3.068   4.903
 7090TIP3   OH221226   8.217   7.245   3.030
 7090TIP3    H121227   8.216   7.298   3.110
 7090TIP3    H221228   8.139   7.189   3.037
 7091TIP3   OH221229   1.211   6.615   6.310
 7091TIP3    H121230   1.146   6.628   6.241
 7091TIP3    H221231   1.244   6.526   6.295
 7092TIP3   OH221232   2.643   7.233   2.250
 7092TIP3    H121233   2.696   7.273   2.181
 7092TIP3    H221234   2.553   7.259   2.231
 7093TIP3   OH221235   3.796   6.582   1.117
 7093TIP3    H121236   3.864   6.529   1.077
 7093TIP3    H221237   3.756   6.630   1.044
 7094TIP3   OH221238   0.466   0.062   4.094
 7094TIP3    H121239   0.477   0.006   4.018
 7094TIP3    H221240   0.446   0.148   4.057
 7095TIP3   OH221241   1.829   1.434   2.208
 7095TIP3    H121242   1.842   1.524   2.180
 7095TIP3    H221243   1.836   1.438   2.304
 7096TIP3   OH221244   3.472   0.529   5.679
 7096TIP3    H121245   3.402   0.501   5.738
 7096TIP3    H221246   3.482   0.622   5.696
 7097TIP3   OH221247   5.264   6.302   0.018
 7097TIP3    H121248   5.169   6.293   0.025
 7097TIP3    H221249   5.299   6.265   0.099
 7098TIP3   OH221250   7.894   0.978   2.703
 7098TIP3    H121251   7.800   0.964   2.716
 7098TIP3    H221252   7.911   1.064   2.741
 7099TIP3   OH221253   8.026   7.307   4.142
 7099TIP3    H121254   8.020   7.384   4.198
 7099TIP3    H221255   7.938   7.298   4.104
 7100TIP3   OH221256   7.991   7.431   0.741
 7100TIP3    H121257   8.076   7.464   0.772
 7100TIP3    H221258   7.965   7.494   0.673
 7101TIP3   OH221259   5.073   7.151   0.007
 7101TIP3    H121260   5.119   7.156   0.091
 7101TIP3    H221261   4.983   7.176   0.028
 7102TIP3   OH221262   0.301   4.387   2.680
 7102TIP3    H121263   0.393   4.379   2.653
 7102TIP3    H221264   0.304   4.446   2.756
 7103TIP3   OH221265   8.120   2.570   0.154
 7103TIP3    H121266   8.033   2.535   0.134
 7103TIP3    H221267   8.126   2.650   0.101
 7104TIP3   OH221268   1.263   0.453   6.178
 7104TIP3    H121269   1.300   0.368   6.202
 7104TIP3    H221270   1.234   0.442   6.088
 7105TIP3   OH221271   6.067   7.724   5.727
 7105TIP3    H121272   6.097   7.715   5.637
 7105TIP3    H221273   6.144   7.753   5.776
 7106TIP3   OH221274   4.159   0.474   2.295
 7106TIP3    H121275   4.100   0.456   2.368
 7106TIP3    H221276   4.237   0.421   2.312
 7107TIP3   OH221277   7.163   5.291   0.661
 7107TIP3    H121278   7.220   5.349   0.611
 7107TIP3    H221279   7.215   5.211   0.674
 7108TIP3   OH221280   4.699   1.521   5.084
 7108TIP3    H121281   4.621   1.502   5.032
 7108TIP3    H221282   4.727   1.608   5.054
 7109TIP3   OH221283   0.317   2.553   0.894
 7109TIP3    H121284   0.255   2.492   0.935
 7109TIP3    H221285   0.403   2.525   0.926
 7110TIP3   OH221286   4.225   7.192   3.490
 7110TIP3    H121287   4.145   7.140   3.492
 7110TIP3    H221288   4.197   7.280   3.465
 7111TIP3   OH221289   7.936   3.517   0.549
 7111TIP3    H121290   7.869   3.463   0.505
 7111TIP3    H221291   7.890   3.559   0.621
 7112TIP3   OH221292   2.924   5.569   2.473
 7112TIP3    H121293   2.891   5.597   2.558
 7112TIP3    H221294   2.866   5.498   2.446
 7113TIP3   OH221295   2.150   7.142   6.737
 7113TIP3    H121296   2.099   7.218   6.707
 7113TIP3    H221297   2.086   7.072   6.742
 7114TIP3   OH221298   5.674   1.208   5.334
 7114TIP3    H121299   5.702   1.241   5.419
 7114TIP3    H221300   5.613   1.137   5.354
 7115TIP3   OH221301   6.155   4.375   6.286
 7115TIP3    H121302   6.199   4.378   6.371
 7115TIP3    H221303   6.191   4.297   6.243
 7116TIP3   OH221304   3.261   1.827   4.743
 7116TIP3    H121305   3.183   1.847   4.691
 7116TIP3    H221306   3.299   1.913   4.764
 7117TIP3   OH221307   5.255   7.164   2.886
 7117TIP3    H121308   5.272   7.077   2.849
 7117TIP3    H221309   5.198   7.207   2.821
 7118TIP3   OH221310   7.792   5.763   3.830
 7118TIP3    H121311   7.878   5.791   3.862
 7118TIP3    H221312   7.750   5.723   3.906
 7119TIP3   OH221313   3.418   2.358   4.764
 7119TIP3    H121314   3.420   2.381   4.671
 7119TIP3    H221315   3.375   2.432   4.806
 7120TIP3   OH221316   1.506   4.409   1.448
 7120TIP3    H121317   1.508   4.474   1.518
 7120TIP3    H221318   1.474   4.457   1.372
 7121TIP3   OH221319   7.278   7.591   3.169
 7121TIP3    H121320   7.271   7.558   3.259
 7121TIP3    H221321   7.370   7.575   3.145
 7122TIP3   OH221322   7.562   5.854   2.433
 7122TIP3    H121323   7.517   5.774   2.407
 7122TIP3    H221324   7.579   5.900   2.351
 7123TIP3   OH221325   2.170   6.114   4.561
 7123TIP3    H121326   2.211   6.091   4.478
 7123TIP3    H221327   2.199   6.046   4.622
 7124TIP3   OH221328   8.140   2.842   1.677
 7124TIP3    H121329   8.075   2.851   1.746
 7124TIP3    H221330   8.224   2.845   1.723
 7125TIP3   OH221331   7.997   4.416   5.420
 7125TIP3    H121332   8.033   4.503   5.435
 7125TIP3    H221333   7.937   4.427   5.346
 7126TIP3   OH221334   0.585   5.864   1.253
 7126TIP3    H121335   0.623   5.936   1.303
 7126TIP3    H221336   0.593   5.788   1.311
 7127TIP3   OH221337   1.746   2.809   5.635
 7127TIP3    H121338   1.744   2.767   5.721
 7127TIP3    H221339   1.655   2.832   5.617
 7128TIP3   OH221340   7.396   1.882   2.466
 7128TIP3    H121341   7.308   1.898   2.501
 7128TIP3    H221342   7.385   1.808   2.407
 7129TIP3   OH221343   5.374   4.944   2.134
 7129TIP3    H121344   5.404   4.921   2.046
 7129TIP3    H221345   5.430   5.018   2.160
 7130TIP3   OH221346   1.628   7.634   3.279
 7130TIP3    H121347   1.604   7.578   3.353
 7130TIP3    H221348   1.573   7.712   3.289
 7131TIP3   OH221349   7.684   1.470   3.763
 7131TIP3    H121350   7.723   1.398   3.813
 7131TIP3    H221351   7.741   1.545   3.779
 7132TIP3   OH221352   1.151   0.462   4.320
 7132TIP3    H121353   1.163   0.457   4.415
 7132TIP3    H221354   1.238   0.486   4.287
 7133TIP3   OH221355   3.902   6.591   5.882
 7133TIP3    H121356   3.907   6.508   5.930
 7133TIP3    H221357   3.964   6.581   5.810
 7134TIP3   OH221358   2.258   3.686   4.622
 7134TIP3    H121359   2.179   3.632   4.619
 7134TIP3    H221360   2.308   3.652   4.695
 7135TIP3   OH221361   7.613   1.063   1.421
 7135TIP3    H121362   7.634   1.149   1.385
 7135TIP3    H221363   7.522   1.070   1.449
 7136TIP3   OH221364   2.904   7.343   5.080
 7136TIP3    H121365   2.998   7.359   5.074
 7136TIP3    H221366   2.867   7.423   5.117
 7137TIP3   OH221367   4.518   1.671   4.087
 7137TIP3    H121368   4.583   1.611   4.050
 7137TIP3    H221369   4.569   1.734   4.138
 7138TIP3   OH221370   4.681   2.735   1.701
 7138TIP3    H121371   4.748   2.797   1.673
 7138TIP3    H221372   4.716   2.649   1.674
 7139TIP3   OH221373   4.629   2.605   3.622
 7139TIP3    H121374   4.540   2.637   3.608
 7139TIP3    H221375   4.634   2.591   3.717
 7140TIP3   OH221376   1.534   2.929   5.363
 7140TIP3    H121377   1.461   2.983   5.332
 7140TIP3    H221378   1.509   2.903   5.451
 7141TIP3   OH221379   5.898   1.940   2.542
 7141TIP3    H121380   5.966   1.963   2.479
 7141TIP3    H221381   5.905   2.006   2.611
 7142TIP3   OH221382   4.278   1.840   5.048
 7142TIP3    H121383   4.239   1.866   5.132
 7142TIP3    H221384   4.221   1.771   5.015
 7143TIP3   OH221385   4.932   7.719   0.250
 7143TIP3    H121386   4.881   7.647   0.212
 7143TIP3    H221387   4.969   7.765   0.174
 7144TIP3   OH221388   1.489   4.758   4.398
 7144TIP3    H121389   1.467   4.684   4.341
 7144TIP3    H221390   1.407   4.807   4.407
 7145TIP3   OH221391   5.040   0.506   3.408
 7145TIP3    H121392   5.125   0.549   3.422
 7145TIP3    H221393   5.045   0.426   3.460
 7146TIP3   OH221394   7.371   7.179   2.534
 7146TIP3    H121395   7.290   7.174   2.585
 7146TIP3    H221396   7.343   7.197   2.445
 7147TIP3   OH221397   6.540   3.598   3.841
 7147TIP3    H121398   6.581   3.679   3.812
 7147TIP3    H221399   6.491   3.567   3.764
 7148TIP3   OH221400   6.806   7.388   3.991
 7148TIP3    H121401   6.782   7.375   4.083
 7148TIP3    H221402   6.897   7.356   3.986
 7149TIP3   OH221403   1.820   7.158   3.500
 7149TIP3    H121404   1.759   7.174   3.428
 7149TIP3    H221405   1.826   7.063   3.507
 7150TIP3   OH221406   6.531   0.829   2.293
 7150TIP3    H121407   6.574   0.770   2.232
 7150TIP3    H221408   6.545   0.790   2.379
 7151TIP3   OH221409   7.489   1.963   4.849
 7151TIP3    H121410   7.545   1.887   4.866
 7151TIP3    H221411   7.400   1.928   4.852
 7152TIP3   OH221412   5.475   4.128   4.705
 7152TIP3    H121413   5.567   4.149   4.686
 7152TIP3    H221414   5.447   4.195   4.767
 7153TIP3   OH221415   7.053   2.434   0.976
 7153TIP3    H121416   7.087   2.443   1.065
 7153TIP3    H221417   6.963   2.403   0.989
 7154TIP3   OH221418   6.248   4.063   4.591
 7154TIP3    H121419   6.248   3.996   4.659
 7154TIP3    H221420   6.170   4.116   4.611
 7155TIP3   OH221421   0.163   3.998   0.939
 7155TIP3    H121422   0.194   4.087   0.960
 7155TIP3    H221423   0.070   4.000   0.958
 7156TIP3   OH221424   6.174   2.211   4.606
 7156TIP3    H121425   6.244   2.231   4.668
 7156TIP3    H221426   6.095   2.244   4.647
 7157TIP3   OH221427   2.609   4.064   5.496
 7157TIP3    H121428   2.584   4.074   5.404
 7157TIP3    H221429   2.612   4.153   5.531
 7158TIP3   OH221430   3.879   0.488   6.582
 7158TIP3    H121431   3.916   0.536   6.508
 7158TIP3    H221432   3.901   0.542   6.659
 7159TIP3   OH221433   4.876   3.836   5.943
 7159TIP3    H121434   4.787   3.800   5.933
 7159TIP3    H221435   4.918   3.777   6.005
 7160TIP3   OH221436   6.375   2.365   4.302
 7160TIP3    H121437   6.377   2.460   4.298
 7160TIP3    H221438   6.282   2.343   4.313
 7161TIP3   OH221439   7.927   3.733   5.750
 7161TIP3    H121440   7.886   3.815   5.724
 7161TIP3    H221441   8.021   3.749   5.737
 7162TIP3   OH221442   0.717   4.767   6.568
 7162TIP3    H121443   0.675   4.812   6.642
 7162TIP3    H221444   0.645   4.726   6.520
 7163TIP3   OH221445   3.546   5.740   3.483
 7163TIP3    H121446   3.499   5.794   3.547
 7163TIP3    H221447   3.545   5.652   3.520
 7164TIP3   OH221448   2.125   0.973   1.877
 7164TIP3    H121449   2.115   0.961   1.972
 7164TIP3    H221450   2.048   1.024   1.852
 7165TIP3   OH221451   6.637   1.826   2.605
 7165TIP3    H121452   6.706   1.829   2.671
 7165TIP3    H221453   6.611   1.734   2.601
 7166TIP3   OH221454   3.737   3.996   6.666
 7166TIP3    H121455   3.707   3.973   6.754
 7166TIP3    H221456   3.767   3.914   6.628
 7167TIP3   OH221457   6.160   4.732   2.771
 7167TIP3    H121458   6.100   4.668   2.811
 7167TIP3    H221459   6.184   4.790   2.843
 7168TIP3   OH221460   7.687   6.586   4.538
 7168TIP3    H121461   7.605   6.629   4.516
 7168TIP3    H221462   7.709   6.534   4.461
 7169TIP3   OH221463   5.233   1.201   2.561
 7169TIP3    H121464   5.247   1.112   2.594
 7169TIP3    H221465   5.153   1.231   2.605
 7170TIP3   OH221466   5.168   5.469   5.615
 7170TIP3    H121467   5.255   5.465   5.577
 7170TIP3    H221468   5.136   5.557   5.593
 7171TIP3   OH221469   3.641   2.331   5.212
 7171TIP3    H121470   3.698   2.369   5.145
 7171TIP3    H221471   3.659   2.382   5.291
 7172TIP3   OH221472   3.300   1.301   6.550
 7172TIP3    H121473   3.379   1.253   6.575
 7172TIP3    H221474   3.253   1.314   6.632
 7173TIP3   OH221475   1.382   0.796   2.725
 7173TIP3    H121476   1.404   0.712   2.685
 7173TIP3    H221477   1.431   0.861   2.675
 7174TIP3   OH221478   2.985   0.676   3.508
 7174TIP3    H121479   2.900   0.708   3.538
 7174TIP3    H221480   3.048   0.738   3.543
 7175TIP3   OH221481   6.142   5.982   6.544
 7175TIP3    H121482   6.088   6.036   6.601
 7175TIP3    H221483   6.215   5.953   6.600
 7176TIP3   OH221484   1.654   4.088   6.101
 7176TIP3    H121485   1.661   4.116   6.010
 7176TIP3    H221486   1.591   4.148   6.140
 7177TIP3   OH221487   5.593   7.133   1.883
 7177TIP3    H121488   5.682   7.151   1.912
 7177TIP3    H221489   5.565   7.058   1.937
 7178TIP3   OH221490   3.353   5.980   5.628
 7178TIP3    H121491   3.347   5.962   5.534
 7178TIP3    H221492   3.286   6.046   5.644
 7179TIP3   OH221493   3.613   3.080   5.663
 7179TIP3    H121494   3.705   3.084   5.687
 7179TIP3    H221495   3.575   3.016   5.723
 7180TIP3   OH221496   3.111   7.784   2.558
 7180TIP3    H121497   3.116   7.813   2.649
 7180TIP3    H221498   3.023   7.748   2.549
 7181TIP3   OH221499   2.734   0.308   0.909
 7181TIP3    H121500   2.745   0.247   0.982
 7181TIP3    H221501   2.823   0.323   0.877
 7182TIP3   OH221502   7.946   1.305   2.479
 7182TIP3    H121503   7.932   1.321   2.573
 7182TIP3    H221504   7.945   1.393   2.440
 7183TIP3   OH221505   0.320   2.068   0.713
 7183TIP3    H121506   0.394   2.119   0.746
 7183TIP3    H221507   0.360   1.998   0.662
 7184TIP3   OH221508   4.753   0.654   4.791
 7184TIP3    H121509   4.708   0.571   4.777
 7184TIP3    H221510   4.789   0.676   4.705
 7185TIP3   OH221511   1.259   3.425   4.111
 7185TIP3    H121512   1.353   3.406   4.111
 7185TIP3    H221513   1.253   3.515   4.142
 7186TIP3   OH221514   3.409   5.628   1.211
 7186TIP3    H121515   3.439   5.537   1.213
 7186TIP3    H221516   3.485   5.678   1.180
 7187TIP3   OH221517   3.871   1.444   4.466
 7187TIP3    H121518   3.834   1.364   4.428
 7187TIP3    H221519   3.795   1.495   4.493
 7188TIP3   OH221520   2.077   6.997   2.622
 7188TIP3    H121521   2.124   6.999   2.539
 7188TIP3    H221522   1.985   7.007   2.598
 7189TIP3   OH221523   4.842   6.141   6.627
 7189TIP3    H121524   4.792   6.220   6.646
 7189TIP3    H221525   4.827   6.085   6.703
 7190TIP3   OH221526   4.342   1.406   1.331
 7190TIP3    H121527   4.315   1.355   1.255
 7190TIP3    H221528   4.289   1.485   1.326
 7191TIP3   OH221529   5.195   1.617   5.975
 7191TIP3    H121530   5.152   1.602   5.891
 7191TIP3    H221531   5.126   1.604   6.040
 7192TIP3   OH221532   2.035   6.478   1.029
 7192TIP3    H121533   2.121   6.458   0.992
 7192TIP3    H221534   2.050   6.486   1.123
 7193TIP3   OH221535   3.171   5.890   0.837
 7193TIP3    H121536   3.181   5.910   0.744
 7193TIP3    H221537   3.116   5.961   0.871
 7194TIP3   OH221538   5.776   6.396   6.283
 7194TIP3    H121539   5.778   6.347   6.365
 7194TIP3    H221540   5.772   6.329   6.215
 7195TIP3   OH221541   4.104   7.480   0.795
 7195TIP3    H121542   4.180   7.474   0.737
 7195TIP3    H221543   4.042   7.534   0.746
 7196TIP3   OH221544   5.134   7.194   3.973
 7196TIP3    H121545   5.144   7.252   3.898
 7196TIP3    H221546   5.148   7.250   4.049
 7197TIP3   OH221547   6.386   3.302   4.717
 7197TIP3    H121548   6.341   3.386   4.724
 7197TIP3    H221549   6.467   3.322   4.669
 7198TIP3   OH221550   6.034   0.690   0.304
 7198TIP3    H121551   6.046   0.643   0.387
 7198TIP3    H221552   5.942   0.714   0.303
 7199TIP3   OH221553   3.565   2.298   6.025
 7199TIP3    H121554   3.522   2.332   5.947
 7199TIP3    H221555   3.650   2.267   5.995
 7200TIP3   OH221556   5.254   2.081   2.397
 7200TIP3    H121557   5.239   1.996   2.438
 7200TIP3    H221558   5.273   2.060   2.305
 7201TIP3   OH221559   3.137   7.100   3.251
 7201TIP3    H121560   3.113   7.025   3.197
 7201TIP3    H221561   3.056   7.149   3.262
 7202TIP3   OH221562   5.450   6.523   6.222
 7202TIP3    H121563   5.409   6.549   6.140
 7202TIP3    H221564   5.522   6.585   6.234
 7203TIP3   OH221565   0.054   0.320   5.414
 7203TIP3    H121566  -0.041   0.320   5.407
 7203TIP3    H221567   0.083   0.252   5.353
 7204TIP3   OH221568   0.523   0.592   3.140
 7204TIP3    H121569   0.503   0.686   3.144
 7204TIP3    H221570   0.576   0.576   3.218
 7205TIP3   OH221571   5.598   1.536   5.716
 7205TIP3    H121572   5.553   1.579   5.789
 7205TIP3    H221573   5.529   1.487   5.671
 7206TIP3   OH221574   4.882   1.965   2.496
 7206TIP3    H121575   4.940   1.915   2.438
 7206TIP3    H221576   4.809   1.905   2.513
 7207TIP3   OH221577   6.206   6.806   2.717
 7207TIP3    H121578   6.256   6.791   2.637
 7207TIP3    H221579   6.162   6.890   2.702
 7208TIP3   OH221580   2.058   2.885   1.671
 7208TIP3    H121581   2.111   2.832   1.732
 7208TIP3    H221582   1.973   2.894   1.716
 7209TIP3   OH221583   7.784   6.154   0.355
 7209TIP3    H121584   7.775   6.231   0.300
 7209TIP3    H221585   7.758   6.183   0.442
 7210TIP3   OH221586   0.349   7.130   2.088
 7210TIP3    H121587   0.367   7.101   1.998
 7210TIP3    H221588   0.292   7.206   2.077
 7211TIP3   OH221589   5.129   3.061   1.633
 7211TIP3    H121590   5.121   3.024   1.545
 7211TIP3    H221591   5.188   3.136   1.622
 7212TIP3   OH221592   5.019   3.718   2.276
 7212TIP3    H121593   5.044   3.660   2.204
 7212TIP3    H221594   4.938   3.681   2.310
 7213TIP3   OH221595   8.158   7.035   6.659
 7213TIP3    H121596   8.245   6.995   6.670
 7213TIP3    H221597   8.145   7.037   6.564
 7214TIP3   OH221598   1.877   3.801   2.566
 7214TIP3    H121599   1.963   3.837   2.589
 7214TIP3    H221600   1.824   3.811   2.645
 7215TIP3   OH221601   4.976   0.589   5.580
 7215TIP3    H121602   4.932   0.663   5.540
 7215TIP3    H221603   4.968   0.518   5.516
 7216TIP3   OH221604   1.785   0.725   0.236
 7216TIP3    H121605   1.778   0.645   0.184
 7216TIP3    H221606   1.773   0.796   0.173
 7217TIP3   OH221607   2.187   3.987   0.806
 7217TIP3    H121608   2.193   4.022   0.717
 7217TIP3    H221609   2.268   3.937   0.817
 7218TIP3   OH221610   7.439   5.642   2.287
 7218TIP3    H121611   7.424   5.710   2.221
 7218TIP3    H221612   7.382   5.570   2.260
 7219TIP3   OH221613   4.519   4.020   5.323
 7219TIP3    H121614   4.591   3.984   5.272
 7219TIP3    H221615   4.440   4.003   5.271
 7220TIP3   OH221616   5.383   6.791   5.294
 7220TIP3    H121617   5.404   6.710   5.340
 7220TIP3    H221618   5.385   6.766   5.201
 7221TIP3   OH221619   1.567   2.294   6.760
 7221TIP3    H121620   1.537   2.217   6.808
 7221TIP3    H221621   1.660   2.278   6.744
 7222TIP3   OH221622   7.015   5.804   3.911
 7222TIP3    H121623   7.084   5.773   3.851
 7222TIP3    H221624   6.979   5.881   3.868
 7223TIP3   OH221625   5.695   1.034   0.205
 7223TIP3    H121626   5.721   1.121   0.175
 7223TIP3    H221627   5.722   1.031   0.297
 7224TIP3   OH221628   3.804   5.945   4.162
 7224TIP3    H121629   3.885   5.971   4.118
 7224TIP3    H221630   3.773   6.024   4.206
 7225TIP3   OH221631   1.042   1.125   3.528
 7225TIP3    H121632   1.062   1.090   3.441
 7225TIP3    H221633   1.091   1.207   3.532
 7226TIP3   OH221634   6.653   0.187   3.732
 7226TIP3    H121635   6.616   0.152   3.652
 7226TIP3    H221636   6.742   0.151   3.736
 7227TIP3   OH221637   2.659   1.625   1.683
 7227TIP3    H121638   2.608   1.585   1.754
 7227TIP3    H221639   2.730   1.563   1.666
 7228TIP3   OH221640   5.941   2.013   3.078
 7228TIP3    H121641   5.945   2.085   3.015
 7228TIP3    H221642   5.888   1.946   3.034
 7229TIP3   OH221643   5.957   3.301   1.038
 7229TIP3    H121644   5.954   3.376   1.097
 7229TIP3    H221645   5.992   3.230   1.091
 7230TIP3   OH221646   6.261   6.941   5.881
 7230TIP3    H121647   6.178   6.922   5.837
 7230TIP3    H221648   6.247   6.912   5.972
 7231TIP3   OH221649   0.483   4.600   3.878
 7231TIP3    H121650   0.411   4.592   3.941
 7231TIP3    H221651   0.514   4.690   3.888
 7232TIP3   OH221652   6.302   1.718   6.365
 7232TIP3    H121653   6.256   1.737   6.283
 7232TIP3    H221654   6.236   1.729   6.432
 7233TIP3   OH221655   5.373   0.003   3.537
 7233TIP3    H121656   5.392  -0.003   3.444
 7233TIP3    H221657   5.277   0.003   3.542
 7234TIP3   OH221658   4.816   7.013   1.265
 7234TIP3    H121659   4.825   7.093   1.213
 7234TIP3    H221660   4.753   7.037   1.334
 7235TIP3   OH221661   0.790   6.325   0.566
 7235TIP3    H121662   0.824   6.348   0.480
 7235TIP3    H221663   0.697   6.349   0.563
 7236TIP3   OH221664   2.395   3.839   3.088
 7236TIP3    H121665   2.341   3.804   3.159
 7236TIP3    H221666   2.341   3.909   3.049
 7237TIP3   OH221667   7.400   3.503   5.650
 7237TIP3    H121668   7.387   3.408   5.642
 7237TIP3    H221669   7.407   3.519   5.744
 7238TIP3   OH221670   8.055   5.776   3.110
 7238TIP3    H121671   8.071   5.691   3.070
 7238TIP3    H221672   7.965   5.770   3.143
 7239TIP3   OH221673   3.371   3.399   2.536
 7239TIP3    H121674   3.457   3.434   2.513
 7239TIP3    H221675   3.369   3.401   2.631
 7240TIP3   OH221676   4.939   2.526   6.139
 7240TIP3    H121677   4.858   2.537   6.089
 7240TIP3    H221678   5.009   2.549   6.077
 7241TIP3   OH221679   4.090   1.441   5.653
 7241TIP3    H121680   4.050   1.442   5.566
 7241TIP3    H221681   4.080   1.531   5.684
 7242TIP3   OH221682   5.591   5.011   0.753
 7242TIP3    H121683   5.519   4.958   0.786
 7242TIP3    H221684   5.662   4.997   0.817
 7243TIP3   OH221685   3.867   4.713   1.386
 7243TIP3    H121686   3.795   4.745   1.440
 7243TIP3    H221687   3.930   4.677   1.448
 7244TIP3   OH221688   7.920   5.037   3.479
 7244TIP3    H121689   7.993   5.070   3.531
 7244TIP3    H221690   7.960   4.979   3.414
 7245TIP3   OH221691   6.325   3.475   2.441
 7245TIP3    H121692   6.284   3.486   2.527
 7245TIP3    H221693   6.315   3.561   2.399
 7246TIP3   OH221694   4.707   3.206   2.381
 7246TIP3    H121695   4.745   3.130   2.424
 7246TIP3    H221696   4.615   3.205   2.408
 7247TIP3   OH221697   2.896   6.766   2.261
 7247TIP3    H121698   2.861   6.853   2.243
 7247TIP3    H221699   2.946   6.743   2.182
 7248TIP3   OH221700   7.464   4.471   6.496
 7248TIP3    H121701   7.386   4.505   6.539
 7248TIP3    H221702   7.433   4.395   6.447
 7249TIP3   OH221703   5.259   6.049   4.611
 7249TIP3    H121704   5.281   6.131   4.567
 7249TIP3    H221705   5.296   5.981   4.554
 7250TIP3   OH221706   6.225   0.863   0.389
 7250TIP3    H121707   6.171   0.842   0.313
 7250TIP3    H221708   6.164   0.858   0.463
 7251TIP3   OH221709   7.755   1.771   0.678
 7251TIP3    H121710   7.659   1.769   0.671
 7251TIP3    H221711   7.783   1.821   0.601
 7252TIP3   OH221712   6.012   6.856   5.798
 7252TIP3    H121713   5.933   6.889   5.840
 7252TIP3    H221714   5.990   6.767   5.771
 7253TIP3   OH221715   3.441   2.075   3.614
 7253TIP3    H121716   3.398   2.154   3.582
 7253TIP3    H221717   3.523   2.106   3.651
 7254TIP3   OH221718   7.419   0.594   5.743
 7254TIP3    H121719   7.472   0.623   5.816
 7254TIP3    H221720   7.475   0.531   5.696
 7255TIP3   OH221721   5.539   4.202   0.557
 7255TIP3    H121722   5.518   4.287   0.597
 7255TIP3    H221723   5.593   4.158   0.623
 7256TIP3   OH221724   7.813   7.786   0.619
 7256TIP3    H121725   7.889   7.741   0.583
 7256TIP3    H221726   7.783   7.730   0.691
 7257TIP3   OH221727   7.209   1.766   0.094
 7257TIP3    H121728   7.163   1.682   0.092
 7257TIP3    H221729   7.293   1.749   0.051
 7258TIP3   OH221730   5.107   0.329   2.384
 7258TIP3    H121731   5.046   0.286   2.443
 7258TIP3    H221732   5.190   0.331   2.431
 7259TIP3   OH221733   0.828   1.502   1.367
 7259TIP3    H121734   0.856   1.541   1.284
 7259TIP3    H221735   0.907   1.500   1.421
 7260TIP3   OH221736   4.995   4.202   1.222
 7260TIP3    H121737   4.953   4.169   1.142
 7260TIP3    H221738   5.027   4.288   1.197
 7261TIP3   OH221739   2.879   2.596   4.350
 7261TIP3    H121740   2.788   2.614   4.324
 7261TIP3    H221741   2.886   2.631   4.438
 7262TIP3   OH221742   0.300   1.742   0.849
 7262TIP3    H121743   0.371   1.805   0.862
 7262TIP3    H221744   0.331   1.662   0.889
 7263TIP3   OH221745   5.961   6.876   1.856
 7263TIP3    H121746   5.991   6.789   1.831
 7263TIP3    H221747   5.884   6.892   1.801
 7264TIP3   OH221748   1.383   3.918   2.630
 7264TIP3    H121749   1.440   3.983   2.589
 7264TIP3    H221750   1.319   3.969   2.679
 7265TIP3   OH221751   1.308   6.344   6.317
 7265TIP3    H121752   1.331   6.251   6.319
 7265TIP3    H221753   1.318   6.373   6.408
 7266TIP3   OH221754   4.279   5.739   0.167
 7266TIP3    H121755   4.335   5.676   0.213
 7266TIP3    H221756   4.297   5.823   0.209
 7267TIP3   OH221757   6.228   1.990   4.312
 7267TIP3    H121758   6.296   1.982   4.245
 7267TIP3    H221759   6.247   1.919   4.374
 7268TIP3   OH221760   7.613   2.669   4.633
 7268TIP3    H121761   7.700   2.704   4.655
 7268TIP3    H221762   7.625   2.630   4.546
 7269TIP3   OH221763   8.144   3.229   4.966
 7269TIP3    H121764   8.118   3.265   5.051
 7269TIP3    H221765   8.234   3.258   4.954
 7270TIP3   OH221766   7.173   2.578   6.509
 7270TIP3    H121767   7.105   2.512   6.498
 7270TIP3    H221768   7.254   2.535   6.482
 7271TIP3   OH221769   1.547   7.773   2.985
 7271TIP3    H121770   1.497   7.724   2.919
 7271TIP3    H221771   1.531   7.865   2.963
 7272TIP3   OH221772   3.097   2.189   6.205
 7272TIP3    H121773   3.024   2.248   6.185
 7272TIP3    H221774   3.055   2.105   6.222
 7273TIP3   OH221775   7.030   2.465   3.182
 7273TIP3    H121776   7.047   2.543   3.131
 7273TIP3    H221777   7.038   2.493   3.273
 7274TIP3   OH221778   3.964   4.979   5.854
 7274TIP3    H121779   3.951   4.944   5.942
 7274TIP3    H221780   4.043   4.935   5.823
 7275TIP3   OH221781   1.318   2.669   0.474
 7275TIP3    H121782   1.251   2.683   0.540
 7275TIP3    H221783   1.306   2.741   0.412
 7276TIP3   OH221784   4.268   3.763   4.784
 7276TIP3    H121785   4.341   3.812   4.821
 7276TIP3    H221786   4.306   3.712   4.713
 7277TIP3   OH221787   5.677   3.450   1.224
 7277TIP3    H121788   5.642   3.362   1.210
 7277TIP3    H221789   5.647   3.474   1.312
 7278TIP3   OH221790   1.684   3.792   4.465
 7278TIP3    H121791   1.741   3.716   4.461
 7278TIP3    H221792   1.731   3.854   4.520
 7279TIP3   OH221793   1.648   3.347   2.432
 7279TIP3    H121794   1.643   3.436   2.398
 7279TIP3    H221795   1.597   3.295   2.370
 7280TIP3   OH221796   1.655   1.363   5.454
 7280TIP3    H121797   1.647   1.286   5.397
 7280TIP3    H221798   1.565   1.392   5.468
 7281TIP3   OH221799   3.864   7.462   1.835
 7281TIP3    H121800   3.770   7.480   1.834
 7281TIP3    H221801   3.870   7.368   1.856
 7282TIP3   OH221802   3.985   2.844   0.663
 7282TIP3    H121803   3.989   2.934   0.695
 7282TIP3    H221804   3.899   2.813   0.689
 7283TIP3   OH221805   5.364   4.802   4.163
 7283TIP3    H121806   5.456   4.783   4.146
 7283TIP3    H221807   5.346   4.757   4.246
 7284TIP3   OH221808   6.837   7.444   2.045
 7284TIP3    H121809   6.754   7.412   2.083
 7284TIP3    H221810   6.830   7.539   2.050
 7285TIP3   OH221811   3.430   0.034   3.955
 7285TIP3    H121812   3.507   0.039   3.898
 7285TIP3    H221813   3.436  -0.052   3.997
 7286TIP3   OH221814   5.546   4.396   5.798
 7286TIP3    H121815   5.481   4.422   5.863
 7286TIP3    H221816   5.628   4.434   5.830
 7287TIP3   OH221817   0.850   6.855   4.562
 7287TIP3    H121818   0.758   6.837   4.543
 7287TIP3    H221819   0.887   6.770   4.586
 7288TIP3   OH221820   4.137   7.202   0.917
 7288TIP3    H121821   4.220   7.237   0.951
 7288TIP3    H221822   4.097   7.276   0.872
 7289TIP3   OH221823   8.244   6.380   3.182
 7289TIP3    H121824   8.233   6.296   3.226
 7289TIP3    H221825   8.209   6.444   3.244
 7290TIP3   OH221826   5.405   0.437   0.248
 7290TIP3    H121827   5.436   0.523   0.278
 7290TIP3    H221828   5.322   0.456   0.205
 7291TIP3   OH221829   4.552   1.033   2.452
 7291TIP3    H121830   4.615   1.046   2.381
 7291TIP3    H221831   4.599   1.057   2.531
 7292TIP3   OH221832   6.853   7.838   2.468
 7292TIP3    H121833   6.765   7.836   2.505
 7292TIP3    H221834   6.875   7.747   2.451
 7293TIP3   OH221835   4.952   1.043   4.137
 7293TIP3    H121836   4.905   0.960   4.138
 7293TIP3    H221837   5.005   1.042   4.217
 7294TIP3   OH221838   8.145   6.666   3.709
 7294TIP3    H121839   8.152   6.725   3.634
 7294TIP3    H221840   8.062   6.690   3.751
 7295TIP3   OH221841   6.427   3.748   5.854
 7295TIP3    H121842   6.436   3.675   5.791
 7295TIP3    H221843   6.507   3.799   5.841
 7296TIP3   OH221844   3.758   5.980   2.798
 7296TIP3    H121845   3.741   5.886   2.792
 7296TIP3    H221846   3.791   6.005   2.712
 7297TIP3   OH221847   2.512   3.990   3.863
 7297TIP3    H121848   2.595   4.028   3.835
 7297TIP3    H221849   2.474   4.056   3.921
 7298TIP3   OH221850   6.484   7.035   4.483
 7298TIP3    H121851   6.402   7.066   4.521
 7298TIP3    H221852   6.466   7.030   4.389
 7299TIP3   OH221853   3.894   4.049   1.716
 7299TIP3    H121854   3.974   4.061   1.767
 7299TIP3    H221855   3.880   3.954   1.717
 7300TIP3   OH221856   2.071   2.192   3.627
 7300TIP3    H121857   2.112   2.117   3.583
 7300TIP3    H221858   1.985   2.160   3.653
 7301TIP3   OH221859   2.158   3.476   6.606
 7301TIP3    H121860   2.156   3.410   6.537
 7301TIP3    H221861   2.248   3.508   6.607
 7302TIP3   OH221862   3.948   1.099   5.456
 7302TIP3    H121863   3.878   1.096   5.521
 7302TIP3    H221864   4.028   1.111   5.508
 7303TIP3   OH221865   0.372   5.409   3.663
 7303TIP3    H121866   0.458   5.385   3.630
 7303TIP3    H221867   0.365   5.365   3.748
 7304TIP3   OH221868   0.086   5.221   2.008
 7304TIP3    H121869   0.102   5.293   1.947
 7304TIP3    H221870   0.099   5.260   2.095
 7305TIP3   OH221871   3.090   5.016   3.712
 7305TIP3    H121872   3.053   4.979   3.792
 7305TIP3    H221873   3.071   5.110   3.718
 7306TIP3   OH221874   8.163   6.179   2.900
 7306TIP3    H121875   8.100   6.177   2.972
 7306TIP3    H221876   8.216   6.100   2.913
 7307TIP3   OH221877   4.382   2.888   6.485
 7307TIP3    H121878   4.408   2.810   6.534
 7307TIP3    H221879   4.421   2.961   6.533
 7308TIP3   OH221880   3.980   1.982   3.426
 7308TIP3    H121881   4.010   2.034   3.351
 7308TIP3    H221882   3.921   1.917   3.388
 7309TIP3   OH221883   4.965   2.790   5.969
 7309TIP3    H121884   5.044   2.746   5.999
 7309TIP3    H221885   4.897   2.723   5.971
 7310TIP3   OH221886   0.573   3.439   6.434
 7310TIP3    H121887   0.523   3.481   6.364
 7310TIP3    H221888   0.609   3.511   6.484
 7311TIP3   OH221889   3.221   0.795   2.884
 7311TIP3    H121890   3.274   0.819   2.960
 7311TIP3    H221891   3.139   0.843   2.895
 7312TIP3   OH221892   7.201   6.785   5.717
 7312TIP3    H121893   7.116   6.764   5.757
 7312TIP3    H221894   7.240   6.850   5.774
 7313TIP3   OH221895   3.728   2.271   1.493
 7313TIP3    H121896   3.728   2.192   1.547
 7313TIP3    H221897   3.637   2.299   1.489
 7314TIP3   OH221898   3.394   5.072   5.588
 7314TIP3    H121899   3.335   4.998   5.575
 7314TIP3    H221900   3.443   5.078   5.506
 7315TIP3   OH221901   5.567   0.341   5.854
 7315TIP3    H121902   5.636   0.349   5.920
 7315TIP3    H221903   5.585   0.412   5.791
 7316TIP3   OH221904   6.268   4.567   4.582
 7316TIP3    H121905   6.285   4.506   4.654
 7316TIP3    H221906   6.334   4.546   4.516
 7317TIP3   OH221907   1.627   5.367   1.425
 7317TIP3    H121908   1.701   5.341   1.372
 7317TIP3    H221909   1.554   5.375   1.363
 7318TIP3   OH221910   3.181   7.315   1.153
 7318TIP3    H121911   3.199   7.222   1.158
 7318TIP3    H221912   3.251   7.357   1.204
 7319TIP3   OH221913   6.696   7.648   2.747
 7319TIP3    H121914   6.644   7.612   2.675
 7319TIP3    H221915   6.783   7.609   2.736
 7320TIP3   OH221916   4.745   5.074   2.286
 7320TIP3    H121917   4.705   5.156   2.314
 7320TIP3    H221918   4.678   5.030   2.235
 7321TIP3   OH221919   7.639   4.876   5.421
 7321TIP3    H121920   7.615   4.969   5.422
 7321TIP3    H221921   7.694   4.866   5.343
 7322TIP3   OH221922   3.080   5.258   0.322
 7322TIP3    H121923   3.070   5.194   0.251
 7322TIP3    H221924   3.109   5.205   0.397
 7323TIP3   OH221925   4.856   4.779   2.217
 7323TIP3    H121926   4.884   4.789   2.308
 7323TIP3    H221927   4.845   4.869   2.186
 7324TIP3   OH221928   7.165   5.105   1.720
 7324TIP3    H121929   7.169   5.026   1.667
 7324TIP3    H221930   7.101   5.084   1.789
 7325TIP3   OH221931   2.940   7.172   4.209
 7325TIP3    H121932   2.862   7.153   4.261
 7325TIP3    H221933   3.013   7.150   4.266
 7326TIP3   OH221934   6.533   2.177   0.281
 7326TIP3    H121935   6.547   2.092   0.321
 7326TIP3    H221936   6.555   2.240   0.350
 7327TIP3   OH221937   7.319   1.982   6.194
 7327TIP3    H121938   7.318   1.989   6.290
 7327TIP3    H221939   7.393   2.037   6.167
 7328TIP3   OH221940   3.314   5.922   4.578
 7328TIP3    H121941   3.346   5.877   4.656
 7328TIP3    H221942   3.348   6.011   4.585
 7329TIP3   OH221943   5.674   3.710   2.783
 7329TIP3    H121944   5.686   3.670   2.697
 7329TIP3    H221945   5.582   3.740   2.783
 7330TIP3   OH221946   1.291   6.067   5.207
 7330TIP3    H121947   1.332   6.133   5.262
 7330TIP3    H221948   1.333   5.985   5.232
 7331TIP3   OH221949   5.097   1.094   0.764
 7331TIP3    H121950   5.116   1.008   0.801
 7331TIP3    H221951   5.154   1.100   0.687
 7332TIP3   OH221952   5.682   1.513   2.044
 7332TIP3    H121953   5.655   1.507   2.136
 7332TIP3    H221954   5.698   1.606   2.029
 7333TIP3   OH221955   8.139   4.631   4.093
 7333TIP3    H121956   8.117   4.692   4.163
 7333TIP3    H221957   8.170   4.687   4.021
 7334TIP3   OH221958   2.791   5.167   5.194
 7334TIP3    H121959   2.775   5.259   5.214
 7334TIP3    H221960   2.883   5.163   5.169
 7335TIP3   OH221961   2.720   3.016   0.263
 7335TIP3    H121962   2.655   2.982   0.203
 7335TIP3    H221963   2.686   2.995   0.350
 7336TIP3   OH221964   1.967   0.067   1.909
 7336TIP3    H121965   2.057   0.035   1.911
 7336TIP3    H221966   1.924   0.026   1.984
 7337TIP3   OH221967   7.952   4.748   0.054
 7337TIP3    H121968   7.949   4.731   0.148
 7337TIP3    H221969   7.929   4.840   0.046
 7338TIP3   OH221970   3.250   7.734   5.793
 7338TIP3    H121971   3.329   7.767   5.751
 7338TIP3    H221972   3.219   7.664   5.735
 7339TIP3   OH221973   7.132   1.263   4.477
 7339TIP3    H121974   7.158   1.262   4.569
 7339TIP3    H221975   7.128   1.171   4.451
 7340TIP3   OH221976   5.607   1.987   0.015
 7340TIP3    H121977   5.638   2.077   0.010
 7340TIP3    H221978   5.586   1.974   0.108
 7341TIP3   OH221979   0.972   5.349   6.378
 7341TIP3    H121980   0.993   5.389   6.462
 7341TIP3    H221981   0.918   5.414   6.333
 7342TIP3   OH221982   7.815   6.690   0.704
 7342TIP3    H121983   7.896   6.733   0.676
 7342TIP3    H221984   7.833   6.662   0.794
 7343TIP3   OH221985   7.205   2.885   0.813
 7343TIP3    H121986   7.199   2.886   0.909
 7343TIP3    H221987   7.215   2.792   0.791
 7344TIP3   OH221988   0.984   2.594   4.950
 7344TIP3    H121989   0.994   2.520   4.890
 7344TIP3    H221990   0.890   2.613   4.950
 7345TIP3   OH221991   5.665   4.709   4.921
 7345TIP3    H121992   5.579   4.671   4.904
 7345TIP3    H221993   5.649   4.778   4.985
 7346TIP3   OH221994   1.570   3.657   0.761
 7346TIP3    H121995   1.512   3.662   0.685
 7346TIP3    H221996   1.563   3.743   0.803
 7347TIP3   OH221997   1.499   1.797   6.501
 7347TIP3    H121998   1.451   1.743   6.438
 7347TIP3    H221999   1.443   1.874   6.513
 7348TIP3   OH222000   3.297   2.558   4.909
 7348TIP3    H122001   3.234   2.565   4.981
 7348TIP3    H222002   3.305   2.647   4.875
 7349TIP3   OH222003   4.414   3.537   6.206
 7349TIP3    H122004   4.406   3.504   6.117
 7349TIP3    H222005   4.363   3.618   6.206
 7350TIP3   OH222006   2.751   4.442   4.626
 7350TIP3    H122007   2.739   4.435   4.720
 7350TIP3    H222008   2.829   4.389   4.608
 7351TIP3   OH222009   7.056   1.666   3.436
 7351TIP3    H122010   6.969   1.702   3.454
 7351TIP3    H222011   7.082   1.625   3.518
 7352TIP3   OH222012   1.561   5.114   3.375
 7352TIP3    H122013   1.538   5.081   3.288
 7352TIP3    H222014   1.568   5.209   3.363
 7353TIP3   OH222015   2.336   5.660   5.946
 7353TIP3    H122016   2.321   5.576   5.902
 7353TIP3    H222017   2.277   5.659   6.021
 7354TIP3   OH222018   4.357   3.721   5.089
 7354TIP3    H122019   4.271   3.692   5.059
 7354TIP3    H222020   4.419   3.680   5.030
 7355TIP3   OH222021   7.075   2.812   2.358
 7355TIP3    H122022   7.088   2.888   2.302
 7355TIP3    H222023   7.015   2.756   2.310
 7356TIP3   OH222024   2.536   7.196   5.026
 7356TIP3    H122025   2.611   7.174   4.970
 7356TIP3    H222026   2.575   7.236   5.103
 7357TIP3   OH222027   3.537   6.903   1.968
 7357TIP3    H122028   3.573   6.893   2.056
 7357TIP3    H222029   3.468   6.969   1.978
 7358TIP3   OH222030   3.796   1.820   2.208
 7358TIP3    H122031   3.836   1.901   2.176
 7358TIP3    H222032   3.743   1.789   2.134
 7359TIP3   OH222033   3.977   5.308   2.821
 7359TIP3    H122034   4.001   5.218   2.841
 7359TIP3    H222035   3.955   5.346   2.906
 7360TIP3   OH222036   1.282   3.840   5.693
 7360TIP3    H122037   1.283   3.866   5.601
 7360TIP3    H222038   1.190   3.825   5.713
 7361TIP3   OH222039   3.429   4.652   1.877
 7361TIP3    H122040   3.513   4.696   1.863
 7361TIP3    H222041   3.410   4.609   1.794
 7362TIP3   OH222042   1.819   4.093   2.114
 7362TIP3    H122043   1.783   4.047   2.190
 7362TIP3    H222044   1.788   4.042   2.039
 7363TIP3   OH222045   5.609   4.387   2.326
 7363TIP3    H122046   5.645   4.443   2.395
 7363TIP3    H222047   5.637   4.429   2.244
 7364TIP3   OH222048   4.612   5.437   1.470
 7364TIP3    H122049   4.647   5.383   1.541
 7364TIP3    H222050   4.520   5.449   1.492
 7365TIP3   OH222051   2.859   6.684   3.924
 7365TIP3    H122052   2.870   6.616   3.858
 7365TIP3    H222053   2.901   6.648   4.002
 7366TIP3   OH222054   2.237   3.505   2.205
 7366TIP3    H122055   2.329   3.477   2.205
 7366TIP3    H222056   2.237   3.587   2.254
 7367TIP3   OH222057   3.512   4.094   4.036
 7367TIP3    H122058   3.421   4.113   4.058
 7367TIP3    H222059   3.514   3.999   4.021
 7368TIP3   OH222060   0.033   0.522   3.519
 7368TIP3    H122061   0.089   0.594   3.490
 7368TIP3    H222062   0.000   0.482   3.439
 7369TIP3   OH222063   8.187   3.284   2.077
 7369TIP3    H122064   8.115   3.221   2.073
 7369TIP3    H222065   8.159   3.348   2.143
 7370TIP3   OH222066   0.735   4.981   0.475
 7370TIP3    H122067   0.658   5.020   0.515
 7370TIP3    H222068   0.803   5.049   0.480
 7371TIP3   OH222069   2.278   0.156   3.308
 7371TIP3    H122070   2.188   0.148   3.277
 7371TIP3    H222071   2.307   0.066   3.322
 7372TIP3   OH222072   8.161   0.080   0.935
 7372TIP3    H122073   8.161   0.017   0.863
 7372TIP3    H222074   8.102   0.042   1.001
 7373TIP3   OH222075   1.259   0.107   3.364
 7373TIP3    H122076   1.247   0.053   3.442
 7373TIP3    H222077   1.253   0.045   3.291
 7374TIP3   OH222078   5.360   2.358   1.670
 7374TIP3    H122079   5.372   2.375   1.764
 7374TIP3    H222080   5.363   2.263   1.662
 7375TIP3   OH222081   7.146   2.479   5.074
 7375TIP3    H122082   7.189   2.493   4.990
 7375TIP3    H222083   7.054   2.502   5.059
 7376TIP3   OH222084   1.348   0.170   4.545
 7376TIP3    H122085   1.286   0.239   4.568
 7376TIP3    H222086   1.398   0.155   4.625
 7377TIP3   OH222087   8.283   3.120   0.806
 7377TIP3    H122088   8.237   3.198   0.774
 7377TIP3    H222089   8.281   3.059   0.733
 7378TIP3   OH222090   7.103   0.551   0.468
 7378TIP3    H122091   7.196   0.553   0.444
 7378TIP3    H222092   7.079   0.459   0.459
 7379TIP3   OH222093   8.211   5.522   5.154
 7379TIP3    H122094   8.160   5.514   5.074
 7379TIP3    H222095   8.302   5.523   5.124
 7380TIP3   OH222096   0.657   4.818   5.736
 7380TIP3    H122097   0.684   4.732   5.702
 7380TIP3    H222098   0.665   4.810   5.831
 7381TIP3   OH222099   3.178   4.211   2.543
 7381TIP3    H122100   3.160   4.160   2.464
 7381TIP3    H222101   3.258   4.258   2.523
 7382TIP3   OH222102   2.207   6.850   4.715
 7382TIP3    H122103   2.209   6.924   4.653
 7382TIP3    H222104   2.209   6.891   4.801
 7383TIP3   OH222105   0.572   0.631   6.406
 7383TIP3    H122106   0.601   0.680   6.483
 7383TIP3    H222107   0.565   0.697   6.337
 7384TIP3   OH222108   0.433   2.714   5.593
 7384TIP3    H122109   0.350   2.709   5.640
 7384TIP3    H222110   0.442   2.807   5.572
 7385TIP3   OH222111   1.670   6.000   4.755
 7385TIP3    H122112   1.685   6.088   4.721
 7385TIP3    H222113   1.746   5.950   4.725
 7386TIP3   OH222114   7.015   1.696   5.193
 7386TIP3    H122115   7.022   1.776   5.245
 7386TIP3    H222116   6.921   1.683   5.181
 7387TIP3   OH222117   5.601   7.037   2.891
 7387TIP3    H122118   5.665   7.093   2.847
 7387TIP3    H222119   5.529   7.030   2.829
 7388TIP3   OH222120   6.565   6.710   5.698
 7388TIP3    H122121   6.564   6.677   5.788
 7388TIP3    H222122   6.579   6.805   5.708
 7389TIP3   OH222123   3.596   1.011   0.191
 7389TIP3    H122124   3.628   1.080   0.134
 7389TIP3    H222125   3.558   0.946   0.132
 7390TIP3   OH222126   2.476   2.750   1.188
 7390TIP3    H122127   2.564   2.732   1.221
 7390TIP3    H222128   2.439   2.813   1.250
 7391TIP3   OH222129   0.847   5.052   1.710
 7391TIP3    H122130   0.839   5.033   1.804
 7391TIP3    H222131   0.903   4.982   1.676
 7392TIP3   OH222132   0.289   0.970   0.316
 7392TIP3    H122133   0.277   0.997   0.225
 7392TIP3    H222134   0.270   1.049   0.367
 7393TIP3   OH222135   3.385   0.900   0.987
 7393TIP3    H122136   3.426   0.932   0.906
 7393TIP3    H222137   3.325   0.832   0.958
 7394TIP3   OH222138   0.069   6.287   5.960
 7394TIP3    H122139   0.074   6.286   6.056
 7394TIP3    H222140  -0.008   6.234   5.940
 7395TIP3   OH222141   0.392   2.176   4.318
 7395TIP3    H122142   0.480   2.173   4.356
 7395TIP3    H222143   0.360   2.264   4.338
 7396TIP3   OH222144   5.019   2.633   1.726
 7396TIP3    H122145   5.046   2.724   1.736
 7396TIP3    H222146   5.021   2.617   1.631
 7397TIP3   OH222147   1.604   7.719   5.845
 7397TIP3    H122148   1.646   7.768   5.775
 7397TIP3    H222149   1.663   7.645   5.862
 7398TIP3   OH222150   1.879   3.519   5.406
 7398TIP3    H122151   1.849   3.432   5.381
 7398TIP3    H222152   1.974   3.514   5.401
 7399TIP3   OH222153   2.798   2.373   2.890
 7399TIP3    H122154   2.738   2.400   2.821
 7399TIP3    H222155   2.850   2.452   2.908
 7400TIP3   OH222156   2.126   0.743   6.023
 7400TIP3    H122157   2.125   0.678   6.093
 7400TIP3    H222158   2.115   0.693   5.943
 7401TIP3   OH222159   4.604   2.745   4.013
 7401TIP3    H122160   4.549   2.776   3.940
 7401TIP3    H222161   4.636   2.660   3.984
 7402TIP3   OH222162   4.268   6.306   4.727
 7402TIP3    H122163   4.268   6.335   4.818
 7402TIP3    H222164   4.351   6.339   4.691
 7403TIP3   OH222165   2.996   0.305   5.504
 7403TIP3    H122166   2.915   0.350   5.528
 7403TIP3    H222167   2.970   0.214   5.492
 7404TIP3   OH222168   3.201   1.973   1.417
 7404TIP3    H122169   3.293   1.981   1.444
 7404TIP3    H222170   3.181   2.058   1.378
 7405TIP3   OH222171   1.939   4.866   4.042
 7405TIP3    H122172   1.882   4.821   4.105
 7405TIP3    H222173   1.879   4.916   3.987
 7406TIP3   OH222174   6.790   0.162   0.861
 7406TIP3    H122175   6.854   0.114   0.809
 7406TIP3    H222176   6.757   0.097   0.924
 7407TIP3   OH222177   6.175   4.956   0.516
 7407TIP3    H122178   6.184   4.952   0.420
 7407TIP3    H222179   6.263   4.938   0.549
 7408TIP3   OH222180   7.517   0.150   1.227
 7408TIP3    H122181   7.599   0.102   1.242
 7408TIP3    H222182   7.505   0.202   1.307
 7409TIP3   OH222183   6.912   6.433   1.605
 7409TIP3    H122184   6.955   6.459   1.686
 7409TIP3    H222185   6.930   6.340   1.596
 7410TIP3   OH222186   4.127   3.659   2.193
 7410TIP3    H122187   4.174   3.728   2.240
 7410TIP3    H222188   4.132   3.583   2.251
 7411TIP3   OH222189   2.689   2.777   3.739
 7411TIP3    H122190   2.632   2.854   3.746
 7411TIP3    H222191   2.775   2.813   3.718
 7412TIP3   OH222192   0.858   4.063   6.671
 7412TIP3    H122193   0.920   4.061   6.598
 7412TIP3    H222194   0.909   4.092   6.746
 7413TIP3   OH222195   1.460   4.392   1.979
 7413TIP3    H122196   1.423   4.331   2.043
 7413TIP3    H222197   1.552   4.402   2.007
 7414TIP3   OH222198   0.993   0.348   0.957
 7414TIP3    H122199   1.069   0.331   1.013
 7414TIP3    H222200   0.983   0.269   0.905
 7415TIP3   OH222201   0.734   5.316   3.439
 7415TIP3    H122202   0.775   5.401   3.423
 7415TIP3    H222203   0.806   5.257   3.456
 7416TIP3   OH222204   5.307   1.977   1.184
 7416TIP3    H122205   5.317   1.959   1.277
 7416TIP3    H222206   5.262   2.061   1.179
 7417TIP3   OH222207   6.944   3.416   0.617
 7417TIP3    H122208   6.887   3.403   0.693
 7417TIP3    H222209   6.940   3.333   0.569
 7418TIP3   OH222210   0.084   2.433   1.429
 7418TIP3    H122211   0.041   2.509   1.467
 7418TIP3    H222212   0.093   2.371   1.502
 7419TIP3   OH222213   6.901   0.047   5.645
 7419TIP3    H122214   6.846   0.048   5.567
 7419TIP3    H222215   6.933  -0.043   5.650
 7420TIP3   OH222216   4.931   0.623   0.739
 7420TIP3    H122217   4.908   0.647   0.649
 7420TIP3    H222218   5.014   0.667   0.756
 7421TIP3   OH222219   8.171   5.322   1.640
 7421TIP3    H122220   8.164   5.416   1.621
 7421TIP3    H222221   8.110   5.308   1.713
 7422TIP3   OH222222   6.899   0.360   4.934
 7422TIP3    H122223   6.812   0.370   4.973
 7422TIP3    H222224   6.896   0.414   4.855
 7423TIP3   OH222225   4.382   1.958   4.798
 7423TIP3    H122226   4.298   1.944   4.755
 7423TIP3    H222227   4.374   1.915   4.883
 7424TIP3   OH222228   2.426   0.122   1.433
 7424TIP3    H122229   2.520   0.104   1.442
 7424TIP3    H222230   2.385   0.036   1.428
 7425TIP3   OH222231   6.241   7.426   1.858
 7425TIP3    H122232   6.311   7.463   1.913
 7425TIP3    H222233   6.203   7.357   1.912
 7426TIP3   OH222234   2.831   1.696   0.823
 7426TIP3    H122235   2.765   1.731   0.882
 7426TIP3    H222236   2.824   1.751   0.744
 7427TIP3   OH222237   7.568   1.214   1.694
 7427TIP3    H122238   7.517   1.264   1.631
 7427TIP3    H222239   7.649   1.263   1.705
 7428TIP3   OH222240   8.138   7.827   3.129
 7428TIP3    H122241   8.146   7.749   3.184
 7428TIP3    H222242   8.053   7.818   3.086
 7429TIP3   OH222243   1.775   7.029   6.442
 7429TIP3    H122244   1.713   7.101   6.433
 7429TIP3    H222245   1.754   6.990   6.526
 7430TIP3   OH222246   0.132   5.300   1.477
 7430TIP3    H122247   0.041   5.323   1.495
 7430TIP3    H222248   0.173   5.381   1.446
 7431TIP3   OH222249   6.942   3.938   0.303
 7431TIP3    H122250   6.980   4.023   0.324
 7431TIP3    H222251   7.009   3.894   0.250
 7432TIP3   OH222252   6.238   2.476   2.916
 7432TIP3    H122253   6.186   2.465   2.995
 7432TIP3    H222254   6.325   2.499   2.948
 7433TIP3   OH222255   0.354   2.050   1.508
 7433TIP3    H122256   0.300   2.016   1.437
 7433TIP3    H222257   0.382   1.972   1.556
 7434TIP3   OH222258   0.070   0.609   2.105
 7434TIP3    H122259   0.110   0.528   2.136
 7434TIP3    H222260   0.001   0.628   2.169
 7435TIP3   OH222261   6.671   1.327   2.077
 7435TIP3    H122262   6.629   1.273   2.145
 7435TIP3    H222263   6.634   1.414   2.089
 7436TIP3   OH222264   5.879   0.166   2.320
 7436TIP3    H122265   5.823   0.141   2.393
 7436TIP3    H222266   5.947   0.221   2.360
 7437TIP3   OH222267   1.840   3.336   5.021
 7437TIP3    H122268   1.819   3.423   5.053
 7437TIP3    H222269   1.859   3.285   5.100
 7438TIP3   OH222270   0.219   4.851   2.059
 7438TIP3    H122271   0.124   4.851   2.066
 7438TIP3    H222272   0.246   4.765   2.092
 7439TIP3   OH222273   0.915   7.258   0.120
 7439TIP3    H122274   0.978   7.186   0.115
 7439TIP3    H222275   0.967   7.337   0.109
 7440TIP3   OH222276   0.030   0.347   3.287
 7440TIP3    H122277   0.117   0.307   3.273
 7440TIP3    H222278  -0.010   0.292   3.355
 7441TIP3   OH222279   0.191   5.679   1.942
 7441TIP3    H122280   0.244   5.619   1.994
 7441TIP3    H222281   0.122   5.708   2.002
 7442TIP3   OH222282   5.239   6.015   1.627
 7442TIP3    H122283   5.320   6.040   1.584
 7442TIP3    H222284   5.184   6.093   1.624
 7443TIP3   OH222285   3.661   6.840   0.340
 7443TIP3    H122286   3.606   6.891   0.399
 7443TIP3    H222287   3.669   6.895   0.262
 7444TIP3   OH222288   4.463   4.469   2.820
 7444TIP3    H122289   4.442   4.409   2.892
 7444TIP3    H222290   4.558   4.476   2.823
 7445TIP3   OH222291   0.820   1.756   2.454
 7445TIP3    H122292   0.880   1.761   2.379
 7445TIP3    H222293   0.878   1.744   2.530
 7446TIP3   OH222294   0.645   2.137   2.838
 7446TIP3    H122295   0.605   2.144   2.751
 7446TIP3    H222296   0.738   2.150   2.822
 7447TIP3   OH222297   0.703   7.713   0.588
 7447TIP3    H122298   0.642   7.644   0.612
 7447TIP3    H222299   0.687   7.728   0.495
 7448TIP3   OH222300   2.395   7.168   6.590
 7448TIP3    H122301   2.419   7.084   6.629
 7448TIP3    H222302   2.312   7.191   6.633
 7449TIP3   OH222303   3.064   7.228   4.525
 7449TIP3    H122304   3.006   7.298   4.493
 7449TIP3    H222305   3.094   7.184   4.445
 7450TIP3   OH222306   7.471   1.916   4.520
 7450TIP3    H122307   7.451   2.009   4.505
 7450TIP3    H222308   7.466   1.905   4.615
 7451TIP3   OH222309   1.460   1.405   0.716
 7451TIP3    H122310   1.415   1.454   0.648
 7451TIP3    H222311   1.413   1.427   0.796
 7452TIP3   OH222312   7.408   3.640   3.532
 7452TIP3    H122313   7.365   3.654   3.617
 7452TIP3    H222314   7.346   3.675   3.468
 7453TIP3   OH222315   4.450   2.203   1.409
 7453TIP3    H122316   4.544   2.201   1.391
 7453TIP3    H222317   4.424   2.293   1.388
 7454TIP3   OH222318   3.039   7.118   6.291
 7454TIP3    H122319   2.963   7.060   6.299
 7454TIP3    H222320   3.005   7.205   6.311
 7455TIP3   OH222321   5.044   3.055   6.429
 7455TIP3    H122322   5.135   3.047   6.402
 7455TIP3    H222323   4.997   3.076   6.349
 7456TIP3   OH222324   2.540   4.822   5.084
 7456TIP3    H122325   2.610   4.821   5.018
 7456TIP3    H222326   2.499   4.908   5.074
 7457TIP3   OH222327   1.784   2.108   4.719
 7457TIP3    H122328   1.765   2.198   4.744
 7457TIP3    H222329   1.814   2.066   4.800
 7458TIP3   OH222330   0.673   5.837   0.782
 7458TIP3    H122331   0.683   5.846   0.688
 7458TIP3    H222332   0.649   5.925   0.812
 7459TIP3   OH222333   0.652   7.366   1.830
 7459TIP3    H122334   0.577   7.359   1.888
 7459TIP3    H222335   0.676   7.458   1.832
 7460TIP3   OH222336   4.624   6.501   6.116
 7460TIP3    H122337   4.654   6.564   6.050
 7460TIP3    H222338   4.529   6.499   6.105
 7461TIP3   OH222339   2.440   7.088   4.363
 7461TIP3    H122340   2.391   7.016   4.322
 7461TIP3    H222341   2.396   7.167   4.332
 7462TIP3   OH222342   0.807   1.617   1.120
 7462TIP3    H122343   0.722   1.611   1.163
 7462TIP3    H222344   0.811   1.539   1.065
 7463TIP3   OH222345   5.206   7.213   0.268
 7463TIP3    H122346   5.187   7.177   0.354
 7463TIP3    H222347   5.302   7.211   0.261
 7464TIP3   OH222348   3.204   1.415   4.032
 7464TIP3    H122349   3.222   1.385   3.943
 7464TIP3    H222350   3.192   1.510   4.023
 7465TIP3   OH222351   7.734   4.143   0.975
 7465TIP3    H122352   7.758   4.077   0.910
 7465TIP3    H222353   7.786   4.220   0.952
 7466TIP3   OH222354   3.398   1.555   0.971
 7466TIP3    H122355   3.487   1.572   1.001
 7466TIP3    H222356   3.354   1.516   1.047
 7467TIP3   OH222357   7.462   5.747   0.433
 7467TIP3    H122358   7.439   5.722   0.343
 7467TIP3    H222359   7.511   5.828   0.422
 7468TIP3   OH222360   1.171   5.348   6.144
 7468TIP3    H122361   1.115   5.316   6.214
 7468TIP3    H222362   1.251   5.297   6.152
 7469TIP3   OH222363   7.526   1.062   2.112
 7469TIP3    H122364   7.596   1.022   2.162
 7469TIP3    H222365   7.454   1.000   2.117
 7470TIP3   OH222366   5.710   0.780   4.344
 7470TIP3    H122367   5.732   0.869   4.318
 7470TIP3    H222368   5.739   0.726   4.270
 7471TIP3   OH222369   3.786   2.204   6.659
 7471TIP3    H122370   3.814   2.113   6.674
 7471TIP3    H222371   3.695   2.196   6.631
 7472TIP3   OH222372   7.717   1.755   2.346
 7472TIP3    H122373   7.725   1.815   2.421
 7472TIP3    H222374   7.627   1.722   2.352
 7473TIP3   OH222375   6.664   3.126   5.514
 7473TIP3    H122376   6.675   3.185   5.439
 7473TIP3    H222377   6.696   3.041   5.482
 7474TIP3   OH222378   0.117   6.438   2.317
 7474TIP3    H122379   0.205   6.405   2.329
 7474TIP3    H222380   0.093   6.411   2.228
 7475TIP3   OH222381   0.314   2.689   2.997
 7475TIP3    H122382   0.373   2.625   3.036
 7475TIP3    H222383   0.366   2.730   2.927
 7476TIP3   OH222384   2.248   3.824   6.537
 7476TIP3    H122385   2.194   3.750   6.508
 7476TIP3    H222386   2.338   3.790   6.537
 7477TIP3   OH222387   1.465  -0.007   5.006
 7477TIP3    H122388   1.510   0.074   5.029
 7477TIP3    H222389   1.461  -0.056   5.088
 7478TIP3   OH222390   6.214   5.303   2.130
 7478TIP3    H122391   6.232   5.348   2.047
 7478TIP3    H222392   6.119   5.299   2.135
 7479TIP3   OH222393   2.116   0.263   4.309
 7479TIP3    H122394   2.195   0.295   4.265
 7479TIP3    H222395   2.086   0.337   4.361
 7480TIP3   OH222396   0.659   7.457   0.871
 7480TIP3    H122397   0.565   7.466   0.887
 7480TIP3    H222398   0.700   7.488   0.951
 7481TIP3   OH222399   3.032   6.751   3.010
 7481TIP3    H122400   3.099   6.814   2.985
 7481TIP3    H222401   2.949   6.796   2.990
 7482TIP3   OH222402   2.016   7.249   1.447
 7482TIP3    H122403   1.997   7.289   1.532
 7482TIP3    H222404   2.107   7.221   1.454
 7483TIP3   OH222405   0.827   7.514   4.728
 7483TIP3    H122406   0.807   7.488   4.818
 7483TIP3    H222407   0.835   7.431   4.681
 7484TIP3   OH222408   7.284   2.966   2.644
 7484TIP3    H122409   7.360   2.910   2.631
 7484TIP3    H222410   7.299   3.008   2.729
 7485TIP3   OH222411   7.940   0.138   3.592
 7485TIP3    H122412   7.935   0.073   3.523
 7485TIP3    H222413   7.898   0.096   3.668
 7486TIP3   OH222414   2.794   3.630   6.545
 7486TIP3    H122415   2.787   3.539   6.573
 7486TIP3    H222416   2.786   3.681   6.625
 7487TIP3   OH222417   3.109   4.253   1.105
 7487TIP3    H122418   3.027   4.290   1.073
 7487TIP3    H222419   3.125   4.298   1.188
 7488TIP3   OH222420   7.428   3.132   4.490
 7488TIP3    H122421   7.438   3.187   4.568
 7488TIP3    H222422   7.364   3.179   4.436
 7489TIP3   OH222423   3.678   2.060   0.252
 7489TIP3    H122424   3.644   2.076   0.340
 7489TIP3    H222425   3.774   2.062   0.262
 7490TIP3   OH222426   4.817   2.254   3.380
 7490TIP3    H122427   4.824   2.284   3.471
 7490TIP3    H222428   4.854   2.166   3.381
 7491TIP3   OH222429   0.897   3.555   4.919
 7491TIP3    H122430   0.988   3.550   4.890
 7491TIP3    H222431   0.902   3.575   5.012
 7492TIP3   OH222432   5.653   4.143   1.423
 7492TIP3    H122433   5.571   4.129   1.375
 7492TIP3    H222434   5.684   4.227   1.392
 7493TIP3   OH222435   6.537   3.612   1.126
 7493TIP3    H122436   6.509   3.663   1.202
 7493TIP3    H222437   6.583   3.674   1.070
 7494TIP3   OH222438   3.234   5.880   0.572
 7494TIP3    H122439   3.171   5.946   0.544
 7494TIP3    H222440   3.274   5.850   0.490
 7495TIP3   OH222441   0.861   6.882   4.203
 7495TIP3    H122442   0.890   6.797   4.234
 7495TIP3    H222443   0.857   6.873   4.107
 7496TIP3   OH222444   4.401   0.640   1.415
 7496TIP3    H122445   4.452   0.640   1.496
 7496TIP3    H222446   4.384   0.733   1.398
 7497TIP3   OH222447   0.469   7.380   2.036
 7497TIP3    H122448   0.391   7.414   2.081
 7497TIP3    H222449   0.495   7.304   2.088
 7498TIP3   OH222450   0.476   6.222   0.760
 7498TIP3    H122451   0.501   6.174   0.681
 7498TIP3    H222452   0.530   6.185   0.830
 7499TIP3   OH222453   3.646   6.611   4.649
 7499TIP3    H122454   3.688   6.618   4.563
 7499TIP3    H222455   3.718   6.591   4.709
 7500TIP3   OH222456   2.500   1.784   5.642
 7500TIP3    H122457   2.583   1.737   5.629
 7500TIP3    H222458   2.433   1.722   5.612
 7501TIP3   OH222459   5.129   5.459   5.903
 7501TIP3    H122460   5.139   5.477   5.810
 7501TIP3    H222461   5.160   5.369   5.914
 7502TIP3   OH222462   7.239   4.006   0.420
 7502TIP3    H122463   7.156   4.053   0.428
 7502TIP3    H222464   7.217   3.915   0.438
 7503TIP3   OH222465   5.819   6.980   3.482
 7503TIP3    H122466   5.824   6.951   3.391
 7503TIP3    H222467   5.747   6.930   3.519
 7504TIP3   OH222468   3.209   7.655   4.682
 7504TIP3    H122469   3.142   7.606   4.729
 7504TIP3    H222470   3.161   7.696   4.609
 7505TIP3   OH222471   3.494   5.876   2.721
 7505TIP3    H122472   3.507   5.782   2.731
 7505TIP3    H222473   3.468   5.906   2.808
 7506TIP3   OH222474   2.684   4.233   3.137
 7506TIP3    H122475   2.683   4.328   3.138
 7506TIP3    H222476   2.613   4.207   3.195
 7507TIP3   OH222477   7.833   3.360   4.306
 7507TIP3    H122478   7.786   3.283   4.275
 7507TIP3    H222479   7.918   3.327   4.335
 7508TIP3   OH222480   7.628   3.176   3.657
 7508TIP3    H122481   7.616   3.245   3.592
 7508TIP3    H222482   7.675   3.107   3.611
 7509TIP3   OH222483   4.578   4.297   5.382
 7509TIP3    H122484   4.531   4.299   5.465
 7509TIP3    H222485   4.561   4.209   5.347
 7510TIP3   OH222486   7.298   4.101   6.106
 7510TIP3    H122487   7.299   4.016   6.149
 7510TIP3    H222488   7.386   4.135   6.116
 7511TIP3   OH222489   2.420   3.736   1.527
 7511TIP3    H122490   2.491   3.673   1.524
 7511TIP3    H222491   2.341   3.686   1.506
 7512TIP3   OH222492   3.127   1.100   6.082
 7512TIP3    H122493   3.031   1.101   6.081
 7512TIP3    H222494   3.151   1.121   6.172
 7513TIP3   OH222495   3.466   0.530   5.414
 7513TIP3    H122496   3.493   0.520   5.505
 7513TIP3    H222497   3.390   0.472   5.406
 7514TIP3   OH222498   1.213   5.151   1.745
 7514TIP3    H122499   1.184   5.207   1.673
 7514TIP3    H222500   1.288   5.196   1.782
 7515TIP3   OH222501   4.715   6.811   5.184
 7515TIP3    H122502   4.752   6.899   5.180
 7515TIP3    H222503   4.718   6.787   5.276
 7516TIP3   OH222504   0.176   7.752   3.013
 7516TIP3    H122505   0.257   7.754   3.065
 7516TIP3    H222506   0.163   7.843   2.987
 7517TIP3   OH222507   1.997   7.710   3.477
 7517TIP3    H122508   1.964   7.620   3.477
 7517TIP3    H222509   1.918   7.764   3.488
 7518TIP3   OH222510   2.560   4.449   3.716
 7518TIP3    H122511   2.496   4.514   3.688
 7518TIP3    H222512   2.523   4.365   3.688
 7519TIP3   OH222513   0.469   3.143   6.547
 7519TIP3    H122514   0.447   3.231   6.517
 7519TIP3    H222515   0.416   3.130   6.625
 7520TIP3   OH222516   4.666   4.488   5.645
 7520TIP3    H122517   4.729   4.498   5.573
 7520TIP3    H222518   4.656   4.577   5.679
 7521TIP3   OH222519   3.472   5.436   2.990
 7521TIP3    H122520   3.474   5.358   3.045
 7521TIP3    H222521   3.386   5.434   2.948
 7522TIP3   OH222522   7.990   2.923   4.034
 7522TIP3    H122523   7.977   2.956   3.945
 7522TIP3    H222524   7.914   2.867   4.050
 7523TIP3   OH222525   7.826   2.649   1.853
 7523TIP3    H122526   7.892   2.717   1.864
 7523TIP3    H222527   7.744   2.691   1.879
 7524TIP3   OH222528   1.881   6.224   1.847
 7524TIP3    H122529   1.848   6.192   1.763
 7524TIP3    H222530   1.807   6.215   1.907
 7525TIP3   OH222531   5.154   6.298   2.998
 7525TIP3    H122532   5.215   6.342   2.940
 7525TIP3    H222533   5.207   6.229   3.039
 7526TIP3   OH222534   0.270   0.052   5.022
 7526TIP3    H122535   0.326  -0.018   4.988
 7526TIP3    H222536   0.278   0.122   4.957
 7527TIP3   OH222537   4.268   3.957   5.215
 7527TIP3    H122538   4.174   3.959   5.234
 7527TIP3    H222539   4.281   3.875   5.168
 7528TIP3   OH222540   5.823   3.562   5.717
 7528TIP3    H122541   5.789   3.472   5.725
 7528TIP3    H222542   5.866   3.578   5.801
 7529TIP3   OH222543   0.161   2.701   5.734
 7529TIP3    H122544   0.169   2.718   5.828
 7529TIP3    H222545   0.067   2.708   5.717
 7530TIP3   OH222546   5.184   2.451   2.676
 7530TIP3    H122547   5.114   2.387   2.688
 7530TIP3    H222548   5.247   2.408   2.619
 7531TIP3   OH222549   2.702   7.601   5.446
 7531TIP3    H122550   2.650   7.599   5.366
 7531TIP3    H222551   2.648   7.650   5.509
 7532TIP3   OH222552   2.489   2.306   0.858
 7532TIP3    H122553   2.525   2.391   0.836
 7532TIP3    H222554   2.439   2.280   0.781
 7533TIP3   OH222555   7.690   4.634   5.525
 7533TIP3    H122556   7.640   4.712   5.502
 7533TIP3    H222557   7.688   4.579   5.446
 7534TIP3   OH222558   0.375   3.208   2.489
 7534TIP3    H122559   0.331   3.223   2.573
 7534TIP3    H222560   0.305   3.218   2.424
 7535TIP3   OH222561   5.341   5.073   3.061
 7535TIP3    H122562   5.400   5.009   3.021
 7535TIP3    H222563   5.400   5.133   3.107
 7536TIP3   OH222564   6.920   6.708   4.901
 7536TIP3    H122565   6.842   6.696   4.846
 7536TIP3    H222566   6.885   6.739   4.985
 7537TIP3   OH222567   2.192   5.768   3.245
 7537TIP3    H122568   2.206   5.740   3.155
 7537TIP3    H222569   2.113   5.823   3.241
 7538TIP3   OH222570   1.933   5.122   4.547
 7538TIP3    H122571   1.853   5.072   4.533
 7538TIP3    H222572   1.980   5.117   4.463
 7539TIP3   OH222573   6.647   3.577   2.497
 7539TIP3    H122574   6.675   3.659   2.456
 7539TIP3    H222575   6.623   3.521   2.423
 7540TIP3   OH222576   5.545   3.509   1.467
 7540TIP3    H122577   5.570   3.532   1.557
 7540TIP3    H222578   5.451   3.522   1.464
 7541TIP3   OH222579   4.445   1.701   2.549
 7541TIP3    H122580   4.366   1.704   2.494
 7541TIP3    H222581   4.453   1.609   2.574
 7542TIP3   OH222582   2.280   4.038   1.869
 7542TIP3    H122583   2.207   4.051   1.809
 7542TIP3    H222584   2.241   4.041   1.956
 7543TIP3   OH222585   4.987   4.769   2.460
 7543TIP3    H122586   4.988   4.733   2.549
 7543TIP3    H222587   5.006   4.862   2.472
 7544TIP3   OH222588   6.035   4.751   4.477
 7544TIP3    H122589   5.972   4.762   4.549
 7544TIP3    H222590   6.060   4.659   4.480
 7545TIP3   OH222591   2.087   4.114   1.595
 7545TIP3    H122592   2.067   4.192   1.646
 7545TIP3    H222593   2.107   4.148   1.507
 7546TIP3   OH222594   5.662   1.851   3.091
 7546TIP3    H122595   5.622   1.928   3.050
 7546TIP3    H222596   5.599   1.823   3.158
 7547TIP3   OH222597   7.257   2.677   2.925
 7547TIP3    H122598   7.169   2.676   2.962
 7547TIP3    H222599   7.282   2.585   2.920
 7548TIP3   OH222600   5.657   4.952   3.404
 7548TIP3    H122601   5.681   4.897   3.330
 7548TIP3    H222602   5.741   4.987   3.436
 7549TIP3   OH222603   0.173   4.211   4.998
 7549TIP3    H122604   0.131   4.132   4.964
 7549TIP3    H222605   0.266   4.200   4.975
 7550TIP3   OH222606   4.070   2.292   6.199
 7550TIP3    H122607   4.149   2.345   6.205
 7550TIP3    H222608   4.062   2.270   6.107
 7551TIP3   OH222609   7.016   4.535   4.706
 7551TIP3    H122610   7.028   4.441   4.719
 7551TIP3    H222611   6.926   4.552   4.736
 7552TIP3   OH222612   3.212   5.013   1.598
 7552TIP3    H122613   3.306   5.016   1.578
 7552TIP3    H222614   3.187   5.104   1.608
 7553TIP3   OH222615   2.362   3.993   4.639
 7553TIP3    H122616   2.406   3.949   4.711
 7553TIP3    H222617   2.410   4.075   4.627
 7554TIP3   OH222618   7.473   7.669   5.944
 7554TIP3    H122619   7.548   7.729   5.939
 7554TIP3    H222620   7.502   7.590   5.898
 7555TIP3   OH222621   2.636   1.966   2.029
 7555TIP3    H122622   2.629   1.871   2.019
 7555TIP3    H222623   2.634   2.000   1.940
 7556TIP3   OH222624   4.197   4.545   2.718
 7556TIP3    H122625   4.287   4.513   2.725
 7556TIP3    H222626   4.142   4.469   2.735
 7557TIP3   OH222627   3.153   2.141   3.067
 7557TIP3    H122628   3.214   2.123   2.996
 7557TIP3    H222629   3.067   2.125   3.030
 7558TIP3   OH222630   5.841   1.343   4.522
 7558TIP3    H122631   5.798   1.328   4.606
 7558TIP3    H222632   5.807   1.427   4.491
 7559TIP3   OH222633   4.983   2.056   3.907
 7559TIP3    H122634   5.078   2.051   3.907
 7559TIP3    H222635   4.962   2.123   3.843
 7560TIP3   OH222636   4.649   2.771   4.846
 7560TIP3    H122637   4.572   2.766   4.903
 7560TIP3    H222638   4.615   2.759   4.758
 7561TIP3   OH222639   5.727   1.208   5.049
 7561TIP3    H122640   5.655   1.149   5.028
 7561TIP3    H222641   5.719   1.223   5.144
 7562TIP3   OH222642   0.893   5.499   4.093
 7562TIP3    H122643   0.924   5.414   4.124
 7562TIP3    H222644   0.804   5.483   4.063
 7563TIP3   OH222645   6.667   5.558   2.580
 7563TIP3    H122646   6.702   5.470   2.579
 7563TIP3    H222647   6.649   5.578   2.488
 7564TIP3   OH222648   7.428   2.680   1.260
 7564TIP3    H122649   7.345   2.701   1.303
 7564TIP3    H222650   7.438   2.746   1.191
 7565TIP3   OH222651   3.765   3.247   3.261
 7565TIP3    H122652   3.693   3.224   3.203
 7565TIP3    H222653   3.750   3.196   3.340
 7566TIP3   OH222654   3.273   5.606   0.449
 7566TIP3    H122655   3.183   5.634   0.466
 7566TIP3    H222656   3.295   5.551   0.524
 7567TIP3   OH222657   3.506   6.042   4.777
 7567TIP3    H122658   3.513   6.121   4.724
 7567TIP3    H222659   3.458   6.070   4.855
 7568TIP3   OH222660   7.644   6.692   5.154
 7568TIP3    H122661   7.680   6.671   5.068
 7568TIP3    H222662   7.714   6.667   5.216
 7569TIP3   OH222663   7.574   4.049   3.092
 7569TIP3    H122664   7.642   4.026   3.029
 7569TIP3    H222665   7.586   4.143   3.108
 7570TIP3   OH222666   5.542   1.447   5.235
 7570TIP3    H122667   5.556   1.364   5.280
 7570TIP3    H222668   5.453   1.442   5.200
 7571TIP3   OH222669   4.266   4.968   3.458
 7571TIP3    H122670   4.178   4.991   3.427
 7571TIP3    H222671   4.319   4.965   3.378
 7572TIP3   OH222672   7.161   6.148   1.809
 7572TIP3    H122673   7.156   6.052   1.806
 7572TIP3    H222674   7.133   6.176   1.722
 7573TIP3   OH222675   6.847   5.657   1.740
 7573TIP3    H122676   6.808   5.571   1.726
 7573TIP3    H222677   6.778   5.719   1.719
 7574TIP3   OH222678   7.200   4.599   1.252
 7574TIP3    H122679   7.142   4.557   1.188
 7574TIP3    H222680   7.197   4.542   1.328
 7575TIP3   OH222681   7.684   3.770   0.309
 7575TIP3    H122682   7.730   3.693   0.343
 7575TIP3    H222683   7.653   3.744   0.223
 7576TIP3   OH222684   3.310   5.538   3.198
 7576TIP3    H122685   3.242   5.504   3.141
 7576TIP3    H222686   3.391   5.501   3.163
 7577TIP3   OH222687   7.185   7.496   4.306
 7577TIP3    H122688   7.176   7.548   4.227
 7577TIP3    H222689   7.237   7.421   4.280
 7578TIP3   OH222690   3.458   1.303   0.845
 7578TIP3    H122691   3.428   1.377   0.897
 7578TIP3    H222692   3.551   1.294   0.865
 7579TIP3   OH222693   0.078   7.161   4.335
 7579TIP3    H122694   0.069   7.066   4.328
 7579TIP3    H222695   0.170   7.175   4.356
 7580TIP3   OH222696   2.651   1.192   3.812
 7580TIP3    H122697   2.617   1.276   3.781
 7580TIP3    H222698   2.573   1.138   3.826
 7581TIP3   OH222699   5.962   2.945   3.007
 7581TIP3    H122700   6.035   2.883   3.007
 7581TIP3    H222701   5.948   2.966   3.099
 7582TIP3   OH222702   6.556   6.014   2.199
 7582TIP3    H122703   6.603   6.058   2.128
 7582TIP3    H222704   6.565   5.921   2.179
 7583TIP3   OH222705   2.955   4.230   1.676
 7583TIP3    H122706   2.983   4.284   1.749
 7583TIP3    H222707   2.859   4.227   1.682
 7584TIP3   OH222708   3.730   1.535   5.982
 7584TIP3    H122709   3.776   1.617   5.995
 7584TIP3    H222710   3.639   1.554   6.004
 7585TIP3   OH222711   5.415   3.192   2.891
 7585TIP3    H122712   5.365   3.152   2.820
 7585TIP3    H222713   5.377   3.155   2.971
 7586TIP3   OH222714   1.713   5.451   3.511
 7586TIP3    H122715   1.743   5.508   3.582
 7586TIP3    H222716   1.790   5.438   3.456
 7587TIP3   OH222717   1.232   7.155   5.092
 7587TIP3    H122718   1.145   7.195   5.103
 7587TIP3    H222719   1.271   7.204   5.020
 7588TIP3   OH222720   6.080   1.507   4.595
 7588TIP3    H122721   5.991   1.474   4.611
 7588TIP3    H222722   6.097   1.484   4.504
 7589TIP3   OH222723   2.809   1.816   4.943
 7589TIP3    H122724   2.827   1.894   4.995
 7589TIP3    H222725   2.892   1.769   4.940
 7590TIP3   OH222726   0.275   4.272   0.027
 7590TIP3    H122727   0.192   4.319   0.024
 7590TIP3    H222728   0.340   4.339   0.049
 7591TIP3   OH222729   4.869   5.441   4.308
 7591TIP3    H122730   4.795   5.437   4.247
 7591TIP3    H222731   4.850   5.517   4.362
 7592TIP3   OH222732   2.628   5.180   4.946
 7592TIP3    H122733   2.569   5.248   4.914
 7592TIP3    H222734   2.634   5.195   5.040
 7593TIP3   OH222735   6.341   5.191   6.797
 7593TIP3    H122736   6.435   5.196   6.780
 7593TIP3    H222737   6.301   5.210   6.712
 7594TIP3   OH222738   2.042   4.124   3.564
 7594TIP3    H122739   2.123   4.075   3.581
 7594TIP3    H222740   2.072   4.204   3.520
 7595TIP3   OH222741   3.484   1.835   2.730
 7595TIP3    H122742   3.506   1.805   2.819
 7595TIP3    H222743   3.497   1.930   2.733
 7596TIP3   OH222744   3.888   0.581   1.469
 7596TIP3    H122745   3.839   0.570   1.551
 7596TIP3    H222746   3.831   0.544   1.402
 7597TIP3   OH222747   3.701   5.936   6.615
 7597TIP3    H122748   3.687   5.888   6.697
 7597TIP3    H222749   3.690   6.028   6.639
 7598TIP3   OH222750   6.120   6.221   4.680
 7598TIP3    H122751   6.099   6.133   4.648
 7598TIP3    H222752   6.050   6.276   4.646
 7599TIP3   OH222753   7.798   4.279   2.847
 7599TIP3    H122754   7.757   4.365   2.853
 7599TIP3    H222755   7.870   4.282   2.910
 7600TIP3   OH222756   5.861   5.886   3.589
 7600TIP3    H122757   5.814   5.802   3.591
 7600TIP3    H222758   5.861   5.916   3.679
 7601TIP3   OH222759   7.384   1.451   3.774
 7601TIP3    H122760   7.455   1.442   3.710
 7601TIP3    H222761   7.410   1.395   3.847
 7602TIP3   OH222762   1.113   4.806   3.509
 7602TIP3    H122763   1.096   4.748   3.584
 7602TIP3    H222764   1.190   4.856   3.535
 7603TIP3   OH222765   1.071   3.247   1.985
 7603TIP3    H122766   1.166   3.243   1.999
 7603TIP3    H222767   1.055   3.337   1.957
 7604TIP3   OH222768   6.444   6.694   3.975
 7604TIP3    H122769   6.508   6.635   4.015
 7604TIP3    H222770   6.440   6.769   4.035
 7605TIP3   OH222771   4.428   3.707   3.630
 7605TIP3    H122772   4.349   3.662   3.660
 7605TIP3    H222773   4.493   3.690   3.698
 7606TIP3   OH222774   2.825   7.596   1.842
 7606TIP3    H122775   2.755   7.534   1.822
 7606TIP3    H222776   2.787   7.682   1.823
 7607TIP3   OH222777   4.396   3.168   3.553
 7607TIP3    H122778   4.351   3.238   3.599
 7607TIP3    H222779   4.399   3.197   3.462
 7608TIP3   OH222780   7.535   5.279   1.275
 7608TIP3    H122781   7.543   5.197   1.323
 7608TIP3    H222782   7.477   5.333   1.329
 7609TIP3   OH222783   5.505   3.777   3.679
 7609TIP3    H122784   5.449   3.745   3.750
 7609TIP3    H222785   5.445   3.806   3.611
 7610TIP3   OH222786   2.049   3.647   4.852
 7610TIP3    H122787   1.960   3.657   4.885
 7610TIP3    H222788   2.073   3.558   4.874
 7611TIP3   OH222789   6.156   3.372   2.247
 7611TIP3    H122790   6.114   3.448   2.208
 7611TIP3    H222791   6.230   3.408   2.296
 7612TIP3   OH222792   5.442   6.993   1.451
 7612TIP3    H122793   5.489   7.077   1.452
 7612TIP3    H222794   5.491   6.940   1.388
 7613TIP3   OH222795   1.677   4.863   5.919
 7613TIP3    H122796   1.665   4.810   5.840
 7613TIP3    H222797   1.664   4.953   5.889
 7614TIP3   OH222798   1.340   0.343   5.337
 7614TIP3    H122799   1.405   0.360   5.405
 7614TIP3    H222800   1.340   0.423   5.284
 7615TIP3   OH222801   3.796   5.064   0.304
 7615TIP3    H122802   3.761   5.042   0.217
 7615TIP3    H222803   3.845   4.986   0.330
 7616TIP3   OH222804   0.540   7.146   3.683
 7616TIP3    H122805   0.453   7.178   3.659
 7616TIP3    H222806   0.601   7.201   3.633
 7617TIP3   OH222807   2.232   2.417   0.380
 7617TIP3    H122808   2.263   2.365   0.454
 7617TIP3    H222809   2.238   2.358   0.305
 7618TIP3   OH222810   0.242   2.992   4.088
 7618TIP3    H122811   0.163   3.046   4.081
 7618TIP3    H222812   0.273   2.984   3.998
 7619TIP3   OH222813   1.219   0.154   1.648
 7619TIP3    H122814   1.202   0.235   1.697
 7619TIP3    H222815   1.309   0.163   1.618
 7620TIP3   OH222816   4.308   4.967   6.711
 7620TIP3    H122817   4.322   5.003   6.623
 7620TIP3    H222818   4.212   4.964   6.720
 7621TIP3   OH222819   0.065   3.091   5.534
 7621TIP3    H122820   0.072   3.088   5.629
 7621TIP3    H222821  -0.029   3.099   5.518
 7622TIP3   OH222822   7.981   2.104   0.112
 7622TIP3    H122823   8.069   2.119   0.147
 7622TIP3    H222824   7.991   2.118   0.017
 7623TIP3   OH222825   2.977   6.229   2.331
 7623TIP3    H122826   3.033   6.303   2.310
 7623TIP3    H222827   2.963   6.184   2.248
 7624TIP3   OH222828   5.434   4.584   5.566
 7624TIP3    H122829   5.395   4.664   5.530
 7624TIP3    H222830   5.525   4.607   5.582
 7625TIP3   OH222831   5.817   6.723   2.674
 7625TIP3    H122832   5.824   6.628   2.683
 7625TIP3    H222833   5.870   6.744   2.597
 7626TIP3   OH222834   3.649   5.507   3.302
 7626TIP3    H122835   3.622   5.577   3.241
 7626TIP3    H222836   3.610   5.532   3.386
 7627TIP3   OH222837   1.023   7.162   0.936
 7627TIP3    H122838   0.993   7.124   1.018
 7627TIP3    H222839   1.005   7.256   0.945
 7628TIP3   OH222840   8.030   5.159   6.537
 7628TIP3    H122841   8.045   5.252   6.519
 7628TIP3    H222842   8.061   5.147   6.627
 7629TIP3   OH222843   3.519   3.958   0.444
 7629TIP3    H122844   3.477   3.957   0.530
 7629TIP3    H222845   3.494   3.875   0.404
 7630TIP3   OH222846   3.589   1.162   6.304
 7630TIP3    H122847   3.587   1.103   6.229
 7630TIP3    H222848   3.592   1.104   6.380
 7631TIP3   OH222849   1.369   7.474   5.190
 7631TIP3    H122850   1.429   7.399   5.187
 7631TIP3    H222851   1.351   7.494   5.098
 7632TIP3   OH222852   1.333   2.955   4.111
 7632TIP3    H122853   1.374   3.023   4.164
 7632TIP3    H222854   1.271   2.913   4.171
 7633TIP3   OH222855   4.705   7.617   6.703
 7633TIP3    H122856   4.617   7.645   6.731
 7633TIP3    H222857   4.689   7.549   6.638
 7634TIP3   OH222858   3.637   2.716   6.596
 7634TIP3    H122859   3.711   2.709   6.657
 7634TIP3    H222860   3.631   2.630   6.556
 7635TIP3   OH222861   3.575   7.571   2.667
 7635TIP3    H122862   3.601   7.660   2.689
 7635TIP3    H222863   3.551   7.532   2.751
 7636TIP3   OH222864   6.610   2.150   3.201
 7636TIP3    H122865   6.559   2.126   3.124
 7636TIP3    H222866   6.694   2.106   3.189
 7637TIP3   OH222867   3.205   5.864   1.706
 7637TIP3    H122868   3.130   5.837   1.654
 7637TIP3    H222869   3.190   5.825   1.792
 7638TIP3   OH222870   4.473   4.968   3.274
 7638TIP3    H122871   4.556   5.013   3.288
 7638TIP3    H222872   4.467   4.956   3.179
 7639TIP3   OH222873   3.403   2.866   6.627
 7639TIP3    H122874   3.345   2.794   6.601
 7639TIP3    H222875   3.491   2.829   6.620
 7640TIP3   OH222876   7.870   5.540   1.760
 7640TIP3    H122877   7.949   5.593   1.773
 7640TIP3    H222878   7.800   5.591   1.801
 7641TIP3   OH222879   6.303   0.396   0.124
 7641TIP3    H122880   6.385   0.345   0.125
 7641TIP3    H222881   6.327   0.481   0.161
 7642TIP3   OH222882   1.505   3.215   5.439
 7642TIP3    H122883   1.445   3.225   5.513
 7642TIP3    H222884   1.592   3.230   5.475
 7643TIP3   OH222885   2.576   1.105   4.824
 7643TIP3    H122886   2.580   1.042   4.752
 7643TIP3    H222887   2.610   1.186   4.787
 7644TIP3   OH222888   4.314   0.877   2.526
 7644TIP3    H122889   4.386   0.923   2.482
 7644TIP3    H222890   4.353   0.845   2.608
 7645TIP3   OH222891   6.986   4.210   0.915
 7645TIP3    H122892   7.070   4.169   0.932
 7645TIP3    H222893   6.931   4.138   0.882
 7646TIP3   OH222894   2.730   6.284   0.060
 7646TIP3    H122895   2.743   6.376   0.085
 7646TIP3    H222896   2.805   6.238   0.098
 7647TIP3   OH222897   3.891   2.772   5.595
 7647TIP3    H122898   3.900   2.834   5.667
 7647TIP3    H222899   3.798   2.772   5.574
 7648TIP3   OH222900   5.832   6.016   2.039
 7648TIP3    H122901   5.808   5.930   2.075
 7648TIP3    H222902   5.857   5.997   1.949
 7649TIP3   OH222903   5.684   4.655   5.601
 7649TIP3    H122904   5.719   4.597   5.534
 7649TIP3    H222905   5.744   4.730   5.603
 7650TIP3   OH222906   0.987   4.728   6.556
 7650TIP3    H122907   0.892   4.723   6.561
 7650TIP3    H222908   1.006   4.820   6.540
 7651TIP3   OH222909   1.677   5.735   0.451
 7651TIP3    H122910   1.623   5.788   0.509
 7651TIP3    H222911   1.638   5.748   0.364
 7652TIP3   OH222912   6.846   1.741   6.024
 7652TIP3    H122913   6.881   1.720   6.110
 7652TIP3    H222914   6.903   1.811   5.991
 7653TIP3   OH222915   3.320   2.846   4.960
 7653TIP3    H122916   3.315   2.852   5.055
 7653TIP3    H222917   3.245   2.897   4.928
 7654TIP3   OH222918   7.758   7.655   1.549
 7654TIP3    H122919   7.720   7.568   1.539
 7654TIP3    H222920   7.739   7.679   1.640
 7655TIP3   OH222921   6.826   7.540   0.954
 7655TIP3    H122922   6.868   7.559   1.037
 7655TIP3    H222923   6.883   7.579   0.888
 7656TIP3   OH222924   3.837   6.032   6.390
 7656TIP3    H122925   3.744   6.028   6.371
 7656TIP3    H222926   3.846   5.993   6.477
 7657TIP3   OH222927   0.673   3.844   0.576
 7657TIP3    H122928   0.602   3.908   0.574
 7657TIP3    H222929   0.732   3.875   0.645
 7658TIP3   OH222930   0.219   2.460   3.053
 7658TIP3    H122931   0.124   2.470   3.060
 7658TIP3    H222932   0.251   2.549   3.039
 7659TIP3   OH222933   0.847   3.492   0.021
 7659TIP3    H122934   0.756   3.476   0.047
 7659TIP3    H222935   0.897   3.422   0.064
 7660TIP3   OH222936   4.840   5.121   0.578
 7660TIP3    H122937   4.899   5.195   0.562
 7660TIP3    H222938   4.758   5.162   0.607
 7661TIP3   OH222939   7.110   3.391   4.008
 7661TIP3    H122940   7.034   3.444   4.034
 7661TIP3    H222941   7.081   3.347   3.928
 7662TIP3   OH222942   5.226   0.026   4.288
 7662TIP3    H122943   5.263   0.071   4.212
 7662TIP3    H222944   5.193   0.096   4.343
 7663TIP3   OH222945   8.015   0.175   4.382
 7663TIP3    H122946   7.996   0.268   4.372
 7663TIP3    H222947   7.931   0.132   4.364
 7664TIP3   OH222948   0.613   0.086   3.504
 7664TIP3    H122949   0.579   0.001   3.533
 7664TIP3    H222950   0.706   0.083   3.526
 7665TIP3   OH222951   2.859   6.050   0.916
 7665TIP3    H122952   2.947   6.077   0.942
 7665TIP3    H222953   2.858   6.056   0.821
 7666TIP3   OH222954   2.206   2.876   4.893
 7666TIP3    H122955   2.129   2.907   4.940
 7666TIP3    H222956   2.275   2.938   4.916
 7667TIP3   OH222957   1.806   6.083   0.623
 7667TIP3    H122958   1.763   6.161   0.658
 7667TIP3    H222959   1.872   6.061   0.688
 7668TIP3   OH222960   0.402   6.158   1.657
 7668TIP3    H122961   0.491   6.177   1.687
 7668TIP3    H222962   0.401   6.186   1.565
 7669TIP3   OH222963   6.778   4.856   4.031
 7669TIP3    H122964   6.769   4.925   4.096
 7669TIP3    H222965   6.809   4.780   4.080
 7670TIP3   OH222966   3.916   0.848   0.946
 7670TIP3    H122967   3.993   0.810   0.987
 7670TIP3    H222968   3.930   0.836   0.852
 7671TIP3   OH222969   6.018   0.038   3.301
 7671TIP3    H122970   5.999  -0.053   3.324
 7671TIP3    H222971   5.936   0.071   3.263
 7672TIP3   OH222972   1.871   4.391   4.486
 7672TIP3    H122973   1.892   4.399   4.393
 7672TIP3    H222974   1.775   4.393   4.489
 7673TIP3   OH222975   4.450   4.342   3.055
 7673TIP3    H122976   4.432   4.372   3.144
 7673TIP3    H222977   4.540   4.310   3.058
 7674TIP3   OH222978   7.500   0.513   2.745
 7674TIP3    H122979   7.459   0.429   2.763
 7674TIP3    H222980   7.568   0.522   2.812
 7675TIP3   OH222981   7.402   2.250   1.295
 7675TIP3    H122982   7.385   2.201   1.375
 7675TIP3    H222983   7.431   2.336   1.326
 7676TIP3   OH222984   6.033   5.911   4.337
 7676TIP3    H122985   6.034   5.820   4.307
 7676TIP3    H222986   6.084   5.958   4.271
 7677TIP3   OH222987   2.364   2.743   3.890
 7677TIP3    H122988   2.330   2.782   3.810
 7677TIP3    H222989   2.399   2.817   3.940
 7678TIP3   OH222990   8.269   0.514   2.326
 7678TIP3    H122991   8.284   0.421   2.341
 7678TIP3    H222992   8.181   0.518   2.289
 7679TIP3   OH222993   1.894   0.345   0.149
 7679TIP3    H122994   1.980   0.338   0.189
 7679TIP3    H222995   1.898   0.286   0.073
 7680TIP3   OH222996   3.084   4.861   0.523
 7680TIP3    H122997   3.070   4.820   0.438
 7680TIP3    H222998   3.120   4.948   0.503
 7681TIP3   OH222999   2.268   3.032   1.552
 7681TIP3    H123000   2.195   3.009   1.608
 7681TIP3    H223001   2.242   3.115   1.511
 7682TIP3   OH223002   7.388   4.109   5.011
 7682TIP3    H123003   7.408   4.138   4.922
 7682TIP3    H223004   7.471   4.075   5.044
 7683TIP3   OH223005   5.447   6.712   1.984
 7683TIP3    H123006   5.479   6.791   1.940
 7683TIP3    H223007   5.403   6.743   2.062
 7684TIP3   OH223008   5.185   7.098   0.979
 7684TIP3    H123009   5.180   7.120   0.886
 7684TIP3    H223010   5.186   7.002   0.980
 7685TIP3   OH223011   5.199   2.608   2.217
 7685TIP3    H123012   5.131   2.602   2.149
 7685TIP3    H223013   5.273   2.648   2.172
 7686TIP3   OH223014   4.673   4.777   0.342
 7686TIP3    H123015   4.643   4.764   0.432
 7686TIP3    H223016   4.738   4.847   0.349
 7687TIP3   OH223017   4.050   5.545   3.291
 7687TIP3    H123018   4.034   5.549   3.196
 7687TIP3    H223019   4.013   5.627   3.324
 7688TIP3   OH223020   5.620   6.584   4.017
 7688TIP3    H123021   5.626   6.560   4.109
 7688TIP3    H223022   5.709   6.575   3.983
 7689TIP3   OH223023   5.455   2.590   6.305
 7689TIP3    H123024   5.457   2.537   6.384
 7689TIP3    H223025   5.389   2.657   6.322
 7690TIP3   OH223026   2.186   7.486   6.093
 7690TIP3    H123027   2.158   7.567   6.137
 7690TIP3    H223028   2.215   7.515   6.006
 7691TIP3   OH223029   2.015   2.346   6.541
 7691TIP3    H123030   2.011   2.442   6.548
 7691TIP3    H223031   1.930   2.321   6.507
 7692TIP3   OH223032   3.896   2.956   1.968
 7692TIP3    H123033   3.982   2.949   1.926
 7692TIP3    H223034   3.907   3.027   2.032
 7693TIP3   OH223035   5.432   4.558   1.052
 7693TIP3    H123036   5.502   4.616   1.021
 7693TIP3    H223037   5.371   4.616   1.097
 7694TIP3   OH223038   7.309   4.818   0.941
 7694TIP3    H123039   7.395   4.782   0.919
 7694TIP3    H223040   7.254   4.795   0.866
 7695TIP3   OH223041   1.656   1.270   3.689
 7695TIP3    H123042   1.629   1.178   3.699
 7695TIP3    H223043   1.661   1.303   3.778
 7696TIP3   OH223044   0.335   5.161   5.828
 7696TIP3    H123045   0.404   5.197   5.884
 7696TIP3    H223046   0.324   5.227   5.759
 7697TIP3   OH223047   6.453   4.420   2.009
 7697TIP3    H123048   6.435   4.402   2.101
 7697TIP3    H223049   6.472   4.514   2.006
 7698TIP3   OH223050   2.677   5.131   2.021
 7698TIP3    H123051   2.757   5.183   2.018
 7698TIP3    H223052   2.625   5.170   2.091
 7699TIP3   OH223053   6.522   0.806   5.098
 7699TIP3    H123054   6.512   0.826   5.191
 7699TIP3    H223055   6.443   0.757   5.075
 7700TIP3   OH223056   5.836   7.250   3.151
 7700TIP3    H123057   5.904   7.187   3.175
 7700TIP3    H223058   5.754   7.201   3.156
 7701TIP3   OH223059   5.241   6.052   2.132
 7701TIP3    H123060   5.308   6.034   2.067
 7701TIP3    H223061   5.159   6.054   2.083
 7702TIP3   OH223062   7.728   3.693   6.321
 7702TIP3    H123063   7.813   3.678   6.279
 7702TIP3    H223064   7.740   3.664   6.411
 7703TIP3   OH223065   1.348   2.128   1.181
 7703TIP3    H123066   1.339   2.211   1.134
 7703TIP3    H223067   1.393   2.151   1.262
 7704TIP3   OH223068   0.833   5.116   0.848
 7704TIP3    H123069   0.856   5.194   0.797
 7704TIP3    H223070   0.763   5.145   0.906
 7705TIP3   OH223071   2.174   6.427   2.728
 7705TIP3    H123072   2.232   6.491   2.686
 7705TIP3    H223073   2.090   6.472   2.733
 7706TIP3   OH223074   4.885   4.502   3.395
 7706TIP3    H123075   4.807   4.484   3.447
 7706TIP3    H223076   4.940   4.556   3.452
 7707TIP3   OH223077   6.901   1.566   3.961
 7707TIP3    H123078   6.825   1.597   3.913
 7707TIP3    H223079   6.876   1.480   3.993
 7708TIP3   OH223080   6.415   2.325   5.264
 7708TIP3    H123081   6.473   2.360   5.331
 7708TIP3    H223082   6.430   2.380   5.188
 7709TIP3   OH223083   6.940   4.685   4.174
 7709TIP3    H123084   6.937   4.589   4.171
 7709TIP3    H223085   7.029   4.705   4.204
 7710TIP3   OH223086   7.443   1.578   4.062
 7710TIP3    H123087   7.357   1.572   4.019
 7710TIP3    H223088   7.506   1.558   3.993
 7711TIP3   OH223089   7.490   2.776   2.604
 7711TIP3    H123090   7.437   2.711   2.557
 7711TIP3    H223091   7.562   2.725   2.641
 7712TIP3   OH223092   6.977   6.035   4.864
 7712TIP3    H123093   7.067   6.026   4.832
 7712TIP3    H223094   6.954   6.126   4.845
 7713TIP3   OH223095   5.008   2.620   3.407
 7713TIP3    H123096   5.063   2.609   3.330
 7713TIP3    H223097   4.937   2.677   3.379
 7714TIP3   OH223098   5.893   0.688   5.810
 7714TIP3    H123099   5.813   0.653   5.849
 7714TIP3    H223100   5.964   0.650   5.862
 7715TIP3   OH223101   3.692   1.088   1.627
 7715TIP3    H123102   3.744   1.015   1.593
 7715TIP3    H223103   3.675   1.143   1.551
 7716TIP3   OH223104   2.551   1.930   6.662
 7716TIP3    H123105   2.567   1.952   6.571
 7716TIP3    H223106   2.459   1.951   6.677
 7717TIP3   OH223107   5.899   0.462   0.135
 7717TIP3    H123108   5.912   0.456   0.040
 7717TIP3    H223109   5.962   0.529   0.163
 7718TIP3   OH223110   6.594   2.083   1.339
 7718TIP3    H123111   6.558   2.014   1.283
 7718TIP3    H223112   6.526   2.098   1.405
 7719TIP3   OH223113   3.714   3.707   0.815
 7719TIP3    H123114   3.729   3.643   0.746
 7719TIP3    H223115   3.727   3.792   0.772
 7720TIP3   OH223116   2.723   7.616   5.944
 7720TIP3    H123117   2.754   7.706   5.958
 7720TIP3    H223118   2.659   7.623   5.873
 7721TIP3   OH223119   7.408   6.551   5.967
 7721TIP3    H123120   7.492   6.527   6.006
 7721TIP3    H223121   7.388   6.637   6.004
 7722TIP3   OH223122   5.934   4.902   2.589
 7722TIP3    H123123   5.955   4.814   2.557
 7722TIP3    H223124   5.931   4.892   2.685
 7723TIP3   OH223125   1.812   5.364   4.802
 7723TIP3    H123126   1.741   5.305   4.824
 7723TIP3    H223127   1.800   5.439   4.861
 7724TIP3   OH223128   6.193   3.309   5.819
 7724TIP3    H123129   6.176   3.397   5.785
 7724TIP3    H223130   6.137   3.252   5.765
 7725TIP3   OH223131   3.081   3.729   2.637
 7725TIP3    H123132   3.134   3.717   2.716
 7725TIP3    H223133   3.010   3.787   2.666
 7726TIP3   OH223134   6.567   3.192   4.905
 7726TIP3    H123135   6.483   3.212   4.865
 7726TIP3    H223136   6.546   3.173   4.997
 7727TIP3   OH223137   3.405   6.885   1.011
 7727TIP3    H123138   3.467   6.921   0.948
 7727TIP3    H223139   3.407   6.790   0.996
 7728TIP3   OH223140   1.686   5.084   4.202
 7728TIP3    H123141   1.647   5.172   4.203
 7728TIP3    H223142   1.633   5.035   4.140
 7729TIP3   OH223143   0.284   3.283   2.733
 7729TIP3    H123144   0.192   3.276   2.757
 7729TIP3    H223145   0.295   3.375   2.707
 7730TIP3   OH223146   8.259   0.426   4.227
 7730TIP3    H123147   8.282   0.334   4.242
 7730TIP3    H223148   8.284   0.471   4.307
 7731TIP3   OH223149   6.073   0.015   1.005
 7731TIP3    H123150   6.050   0.075   0.934
 7731TIP3    H223151   6.037  -0.069   0.977
 7732TIP3   OH223152   8.056   4.039   2.757
 7732TIP3    H123153   8.015   4.074   2.836
 7732TIP3    H223154   8.142   4.080   2.755
 7733TIP3   OH223155   4.053   5.567   0.206
 7733TIP3    H123156   3.996   5.621   0.261
 7733TIP3    H223157   4.132   5.621   0.195
 7734TIP3   OH223158   1.751   2.186   6.075
 7734TIP3    H123159   1.766   2.128   6.001
 7734TIP3    H223160   1.777   2.134   6.152
 7735TIP3   OH223161   7.891   4.020   1.192
 7735TIP3    H123162   7.903   3.927   1.211
 7735TIP3    H223163   7.826   4.022   1.122
 7736TIP3   OH223164   7.154   6.503   0.125
 7736TIP3    H123165   7.210   6.463   0.192
 7736TIP3    H223166   7.137   6.432   0.063
 7737TIP3   OH223167   0.689   2.664   2.234
 7737TIP3    H123168   0.763   2.662   2.295
 7737TIP3    H223169   0.644   2.580   2.249
 7738TIP3   OH223170   7.974   1.269   3.083
 7738TIP3    H123171   7.953   1.340   3.022
 7738TIP3    H223172   7.920   1.287   3.160
 7739TIP3   OH223173   3.965   2.325   2.459
 7739TIP3    H123174   3.916   2.365   2.387
 7739TIP3    H223175   3.946   2.380   2.535
 7740TIP3   OH223176   1.932   1.809   5.369
 7740TIP3    H123177   1.985   1.783   5.445
 7740TIP3    H223178   1.912   1.726   5.325
 7741TIP3   OH223179   5.771   0.136   1.793
 7741TIP3    H123180   5.740   0.226   1.783
 7741TIP3    H223181   5.798   0.130   1.885
 7742TIP3   OH223182   6.586   3.296   4.478
 7742TIP3    H123183   6.498   3.276   4.447
 7742TIP3    H223184   6.634   3.213   4.468
 7743TIP3   OH223185   7.029   0.026   0.341
 7743TIP3    H123186   7.113   0.018   0.298
 7743TIP3    H223187   7.031  -0.041   0.410
 7744TIP3   OH223188   7.316   0.534   1.093
 7744TIP3    H123189   7.270   0.610   1.127
 7744TIP3    H223190   7.258   0.460   1.111
 7745TIP3   OH223191   8.302   6.373   1.653
 7745TIP3    H123192   8.239   6.386   1.724
 7745TIP3    H223193   8.292   6.281   1.628
 7746TIP3   OH223194   5.034   2.606   3.122
 7746TIP3    H123195   5.042   2.514   3.146
 7746TIP3    H223196   5.091   2.617   3.046
 7747TIP3   OH223197   1.588   6.505   0.880
 7747TIP3    H123198   1.662   6.502   0.941
 7747TIP3    H223199   1.551   6.593   0.892
 7748TIP3   OH223200   2.240   1.229   4.791
 7748TIP3    H123201   2.287   1.239   4.708
 7748TIP3    H223202   2.304   1.190   4.851
 7749TIP3   OH223203   0.730   6.949   6.496
 7749TIP3    H123204   0.795   6.903   6.443
 7749TIP3    H223205   0.661   6.883   6.512
 7750TIP3   OH223206   2.120   2.303   1.263
 7750TIP3    H123207   2.113   2.217   1.303
 7750TIP3    H223208   2.125   2.286   1.169
 7751TIP3   OH223209   7.081   7.468   3.640
 7751TIP3    H123210   7.124   7.504   3.563
 7751TIP3    H223211   7.127   7.508   3.714
 7752TIP3   OH223212   8.132   7.578   1.195
 7752TIP3    H123213   8.167   7.581   1.284
 7752TIP3    H223214   8.068   7.507   1.197
 7753TIP3   OH223215   4.387   1.577   4.324
 7753TIP3    H123216   4.416   1.485   4.327
 7753TIP3    H223217   4.402   1.604   4.234
 7754TIP3   OH223218   5.001   1.239   4.635
 7754TIP3    H123219   4.936   1.246   4.565
 7754TIP3    H223220   5.013   1.328   4.667
 7755TIP3   OH223221   3.008   2.136   0.224
 7755TIP3    H123222   3.101   2.121   0.206
 7755TIP3    H223223   3.008   2.202   0.293
 7756TIP3   OH223224   0.779   2.765   0.603
 7756TIP3    H123225   0.763   2.750   0.696
 7756TIP3    H223226   0.695   2.795   0.568
 7757TIP3   OH223227   1.045   5.439   3.294
 7757TIP3    H123228   0.991   5.391   3.231
 7757TIP3    H223229   1.128   5.392   3.296
 7758TIP3   OH223230   6.863   2.957   3.241
 7758TIP3    H123231   6.830   3.018   3.308
 7758TIP3    H223232   6.951   2.936   3.270
 7759TIP3   OH223233   0.392   3.167   2.084
 7759TIP3    H123234   0.389   3.079   2.046
 7759TIP3    H223235   0.317   3.169   2.145
 7760TIP3   OH223236   0.197   1.229   5.683
 7760TIP3    H123237   0.223   1.155   5.628
 7760TIP3    H223238   0.279   1.268   5.711
 7761TIP3   OH223239   5.413   4.438   3.963
 7761TIP3    H123240   5.446   4.458   4.051
 7761TIP3    H223241   5.319   4.458   3.967
 7762TIP3   OH223242   4.788   3.653   4.003
 7762TIP3    H123243   4.747   3.571   3.975
 7762TIP3    H223244   4.744   3.674   4.086
 7763TIP3   OH223245   5.807   4.988   1.236
 7763TIP3    H123246   5.753   5.019   1.309
 7763TIP3    H223247   5.847   5.067   1.200
 7764TIP3   OH223248   2.078   0.666   4.977
 7764TIP3    H123249   2.050   0.754   5.001
 7764TIP3    H223250   2.168   0.660   5.010
 7765TIP3   OH223251   5.121   6.611   1.946
 7765TIP3    H123252   5.136   6.519   1.968
 7765TIP3    H223253   5.143   6.617   1.853
 7766TIP3   OH223254   4.727   1.104   1.595
 7766TIP3    H123255   4.673   1.121   1.672
 7766TIP3    H223256   4.784   1.181   1.588
 7767TIP3   OH223257   7.566   6.809   4.745
 7767TIP3    H123258   7.577   6.770   4.659
 7767TIP3    H223259   7.507   6.749   4.791
 7768TIP3   OH223260   1.752   5.984   6.709
 7768TIP3    H123261   1.709   6.065   6.680
 7768TIP3    H223262   1.696   5.950   6.778
 7769TIP3   OH223263   3.361   7.437   0.465
 7769TIP3    H123264   3.439   7.489   0.442
 7769TIP3    H223265   3.288   7.492   0.438
 7770TIP3   OH223266   4.904   1.299   5.389
 7770TIP3    H123267   4.870   1.365   5.448
 7770TIP3    H223268   4.927   1.347   5.309
 7771TIP3   OH223269   2.318   1.952  -0.033
 7771TIP3    H123270   2.371   2.021   0.008
 7771TIP3    H223271   2.314   1.882   0.032
 7772TIP3   OH223272   6.226   5.722   0.635
 7772TIP3    H123273   6.188   5.809   0.634
 7772TIP3    H223274   6.320   5.736   0.632
 7773TIP3   OH223275   3.627   1.385   5.740
 7773TIP3    H123276   3.621   1.304   5.792
 7773TIP3    H223277   3.660   1.450   5.802
 7774TIP3   OH223278   1.907   6.813   0.725
 7774TIP3    H123279   1.902   6.882   0.659
 7774TIP3    H223280   1.990   6.769   0.707
 7775TIP3   OH223281   5.749   0.096   0.302
 7775TIP3    H123282   5.703   0.158   0.246
 7775TIP3    H223283   5.828   0.142   0.330
 7776TIP3   OH223284   3.292   4.523   3.144
 7776TIP3    H123285   3.330   4.552   3.227
 7776TIP3    H223286   3.349   4.451   3.116
 7777TIP3   OH223287   3.511   4.239   4.576
 7777TIP3    H123288   3.477   4.294   4.505
 7777TIP3    H223289   3.486   4.285   4.656
 7778TIP3   OH223290   5.133   1.454   4.462
 7778TIP3    H123291   5.126   1.363   4.435
 7778TIP3    H223292   5.091   1.504   4.393
 7779TIP3   OH223293   3.497   1.537   2.860
 7779TIP3    H123294   3.404   1.519   2.874
 7779TIP3    H223295   3.529   1.566   2.946
 7780TIP3   OH223296   4.782   3.273   3.113
 7780TIP3    H123297   4.749   3.250   3.026
 7780TIP3    H223298   4.811   3.189   3.149
 7781TIP3   OH223299   6.216   7.637   5.090
 7781TIP3    H123300   6.280   7.696   5.132
 7781TIP3    H223301   6.211   7.562   5.149
 7782TIP3   OH223302   5.263   6.793   0.204
 7782TIP3    H123303   5.238   6.704   0.227
 7782TIP3    H223304   5.195   6.822   0.143
 7783TIP3   OH223305   2.365   0.920   5.975
 7783TIP3    H123306   2.391   0.860   6.045
 7783TIP3    H223307   2.302   0.870   5.923
 7784TIP3   OH223308   2.035   1.053   3.595
 7784TIP3    H123309   1.999   1.125   3.646
 7784TIP3    H223310   2.038   0.979   3.656
 7785TIP3   OH223311   3.878   7.810   1.003
 7785TIP3    H123312   3.890   7.719   1.030
 7785TIP3    H223313   3.783   7.821   0.997
 7786TIP3   OH223314   5.258   7.185   3.471
 7786TIP3    H123315   5.289   7.155   3.385
 7786TIP3    H223316   5.338   7.207   3.518
 7787TIP3   OH223317   0.745   0.662   2.050
 7787TIP3    H123318   0.750   0.636   2.142
 7787TIP3    H223319   0.657   0.698   2.040
 7788TIP3   OH223320   0.294   6.147   6.656
 7788TIP3    H123321   0.295   6.207   6.581
 7788TIP3    H223322   0.226   6.181   6.713
 7789TIP3   OH223323   0.697   2.070   3.121
 7789TIP3    H123324   0.636   2.075   3.047
 7789TIP3    H223325   0.696   2.157   3.159
 7790TIP3   OH223326   1.738   0.961   1.516
 7790TIP3    H123327   1.798   0.914   1.575
 7790TIP3    H223328   1.702   1.032   1.570
 7791TIP3   OH223329   7.702   3.606   0.794
 7791TIP3    H123330   7.650   3.680   0.761
 7791TIP3    H223331   7.654   3.528   0.764
 7792TIP3   OH223332   5.214   6.670   3.109
 7792TIP3    H123333   5.143   6.726   3.077
 7792TIP3    H223334   5.247   6.627   3.030
 7793TIP3   OH223335   3.313   5.075   1.937
 7793TIP3    H123336   3.219   5.077   1.952
 7793TIP3    H223337   3.351   5.077   2.025
 7794TIP3   OH223338   5.852   5.578   4.824
 7794TIP3    H123339   5.846   5.653   4.765
 7794TIP3    H223340   5.917   5.605   4.890
 7795TIP3   OH223341   7.681   1.398   1.436
 7795TIP3    H123342   7.765   1.414   1.478
 7795TIP3    H223343   7.653   1.484   1.404
 7796TIP3   OH223344   2.473   6.635   5.938
 7796TIP3    H123345   2.487   6.552   5.893
 7796TIP3    H223346   2.432   6.691   5.873
 7797TIP3   OH223347   4.916   0.944   1.767
 7797TIP3    H123348   4.828   0.951   1.730
 7797TIP3    H223349   4.927   0.851   1.784
 7798TIP3   OH223350   2.676   5.898   6.578
 7798TIP3    H123351   2.737   5.960   6.538
 7798TIP3    H223352   2.602   5.952   6.607
 7799TIP3   OH223353   7.542   5.603   2.790
 7799TIP3    H123354   7.456   5.639   2.814
 7799TIP3    H223355   7.583   5.672   2.738
 7800TIP3   OH223356   3.303   4.301   0.943
 7800TIP3    H123357   3.258   4.264   1.019
 7800TIP3    H223358   3.312   4.228   0.882
 7801TIP3   OH223359   0.285   7.666   4.106
 7801TIP3    H123360   0.314   7.580   4.077
 7801TIP3    H223361   0.208   7.649   4.160
 7802TIP3   OH223362   5.502   0.037   4.608
 7802TIP3    H123363   5.414   0.074   4.611
 7802TIP3    H223364   5.549   0.081   4.679
 7803TIP3   OH223365   6.595   3.934   1.342
 7803TIP3    H123366   6.666   3.979   1.296
 7803TIP3    H223367   6.523   3.997   1.342
 7804TIP3   OH223368   3.056   5.351   5.588
 7804TIP3    H123369   3.075   5.357   5.495
 7804TIP3    H223370   2.968   5.389   5.598
 7805TIP3   OH223371   0.426   1.884   4.779
 7805TIP3    H123372   0.482   1.845   4.846
 7805TIP3    H223373   0.354   1.923   4.829
 7806TIP3   OH223374   3.059   0.951   3.066
 7806TIP3    H123375   3.060   0.918   3.156
 7806TIP3    H223376   3.078   1.044   3.075
 7807TIP3   OH223377   1.407   4.329   5.593
 7807TIP3    H123378   1.338   4.317   5.528
 7807TIP3    H223379   1.390   4.260   5.658
 7808TIP3   OH223380   5.044   0.679   2.672
 7808TIP3    H123381   5.011   0.590   2.674
 7808TIP3    H223382   5.091   0.689   2.755
 7809TIP3   OH223383   0.692   7.557   2.099
 7809TIP3    H123384   0.610   7.602   2.078
 7809TIP3    H223385   0.671   7.464   2.095
 7810TIP3   OH223386   1.395   5.374   1.259
 7810TIP3    H123387   1.443   5.436   1.204
 7810TIP3    H223388   1.315   5.421   1.283
 7811TIP3   OH223389   5.945   3.711   1.916
 7811TIP3    H123390   5.971   3.626   1.881
 7811TIP3    H223391   5.852   3.719   1.894
 7812TIP3   OH223392   4.286   3.691   1.606
 7812TIP3    H123393   4.311   3.665   1.695
 7812TIP3    H223394   4.228   3.621   1.576
 7813TIP3   OH223395   0.613   6.496   6.365
 7813TIP3    H123396   0.670   6.544   6.305
 7813TIP3    H223397   0.526   6.534   6.352
 7814TIP3   OH223398   7.592   6.356   1.871
 7814TIP3    H123399   7.516   6.408   1.899
 7814TIP3    H223400   7.655   6.366   1.942
 7815TIP3   OH223401   2.514   2.391   2.160
 7815TIP3    H123402   2.595   2.354   2.194
 7815TIP3    H223403   2.541   2.443   2.085
 7816TIP3   OH223404   1.738   0.924   2.019
 7816TIP3    H123405   1.671   0.941   1.953
 7816TIP3    H223406   1.815   0.896   1.970
 7817TIP3   OH223407   7.063   7.103   1.532
 7817TIP3    H123408   6.971   7.095   1.505
 7817TIP3    H223409   7.111   7.047   1.471
 7818TIP3   OH223410   0.979   6.738   0.711
 7818TIP3    H123411   0.985   6.831   0.688
 7818TIP3    H223412   0.986   6.737   0.806
 7819TIP3   OH223413   1.913   6.081   4.506
 7819TIP3    H123414   2.006   6.079   4.530
 7819TIP3    H223415   1.873   6.142   4.568
 7820TIP3   OH223416   2.393   7.364   6.221
 7820TIP3    H123417   2.321   7.417   6.187
 7820TIP3    H223418   2.407   7.397   6.310
 7821TIP3   OH223419   1.779   7.155   3.999
 7821TIP3    H123420   1.774   7.250   4.010
 7821TIP3    H223421   1.860   7.141   3.950
 7822TIP3   OH223422   2.149   7.420   0.889
 7822TIP3    H123423   2.197   7.338   0.898
 7822TIP3    H223424   2.191   7.465   0.816
 7823TIP3   OH223425   4.744   1.231   5.697
 7823TIP3    H123426   4.734   1.315   5.653
 7823TIP3    H223427   4.667   1.180   5.670
 7824TIP3   OH223428   1.032  -0.001   4.670
 7824TIP3    H123429   1.083   0.077   4.692
 7824TIP3    H223430   0.982   0.024   4.593
 7825TIP3   OH223431   2.245   7.045   1.980
 7825TIP3    H123432   2.286   7.114   1.929
 7825TIP3    H223433   2.316   6.985   2.002
 7826TIP3   OH223434   1.100   6.695   3.128
 7826TIP3    H123435   1.174   6.634   3.121
 7826TIP3    H223436   1.023   6.639   3.122
 7827TIP3   OH223437   7.764   5.005   0.789
 7827TIP3    H123438   7.764   5.056   0.870
 7827TIP3    H223439   7.782   5.069   0.720
 7828TIP3   OH223440   3.944   3.913   4.264
 7828TIP3    H123441   4.039   3.921   4.260
 7828TIP3    H223442   3.915   3.930   4.175
 7829TIP3   OH223443   1.165   1.807   2.510
 7829TIP3    H123444   1.161   1.886   2.565
 7829TIP3    H223445   1.108   1.744   2.554
 7830TIP3   OH223446   2.631   6.754   0.573
 7830TIP3    H123447   2.631   6.789   0.484
 7830TIP3    H223448   2.666   6.825   0.627
 7831TIP3   OH223449   1.440   0.814   6.632
 7831TIP3    H123450   1.499   0.888   6.648
 7831TIP3    H223451   1.491   0.755   6.576
 7832TIP3   OH223452   6.135   6.482   5.699
 7832TIP3    H123453   6.174   6.406   5.743
 7832TIP3    H223454   6.061   6.507   5.755
 7833TIP3   OH223455   3.714   1.859   2.978
 7833TIP3    H123456   3.756   1.803   2.912
 7833TIP3    H223457   3.752   1.946   2.964
 7834TIP3   OH223458   1.660   3.101   3.798
 7834TIP3    H123459   1.594   3.134   3.737
 7834TIP3    H223460   1.613   3.039   3.853
 7835TIP3   OH223461   7.009   1.349   0.124
 7835TIP3    H123462   7.098   1.382   0.126
 7835TIP3    H223463   7.018   1.254   0.132
 7836TIP3   OH223464   3.026   7.651   0.915
 7836TIP3    H123465   3.025   7.565   0.872
 7836TIP3    H223466   3.003   7.632   1.006
 7837TIP3   OH223467   3.231   5.009   2.454
 7837TIP3    H123468   3.299   4.957   2.496
 7837TIP3    H223469   3.150   4.980   2.496
 7838TIP3   OH223470   7.356   0.245   2.685
 7838TIP3    H123471   7.283   0.184   2.675
 7838TIP3    H223472   7.410   0.231   2.607
 7839TIP3   OH223473   5.434   7.535   6.023
 7839TIP3    H123474   5.434   7.512   5.930
 7839TIP3    H223475   5.488   7.613   6.028
 7840TIP3   OH223476   6.795   6.071   0.167
 7840TIP3    H123477   6.823   6.054   0.077
 7840TIP3    H223478   6.863   6.032   0.222
 7841TIP3   OH223479   8.112   6.024   3.534
 7841TIP3    H123480   8.060   5.952   3.569
 7841TIP3    H223481   8.176   6.043   3.603
 7842TIP3   OH223482   1.955   3.254   0.889
 7842TIP3    H123483   1.968   3.347   0.870
 7842TIP3    H223484   2.002   3.209   0.819
 7843TIP3   OH223485   0.085   3.633   1.129
 7843TIP3    H123486   0.023   3.574   1.087
 7843TIP3    H223487   0.084   3.609   1.221
 7844TIP3   OH223488   4.019   1.561   4.660
 7844TIP3    H123489   4.001   1.523   4.573
 7844TIP3    H223490   4.004   1.655   4.648
 7845TIP3   OH223491   1.363   1.755   3.714
 7845TIP3    H123492   1.439   1.745   3.772
 7845TIP3    H223493   1.318   1.832   3.747
 7846TIP3   OH223494   1.072   2.553   4.300
 7846TIP3    H123495   1.097   2.643   4.281
 7846TIP3    H223496   0.990   2.540   4.251
 7847TIP3   OH223497   2.090   3.584   6.023
 7847TIP3    H123498   2.021   3.624   6.075
 7847TIP3    H223499   2.114   3.652   5.960
 7848TIP3   OH223500   1.646   3.155   2.662
 7848TIP3    H123501   1.691   3.220   2.608
 7848TIP3    H223502   1.673   3.070   2.626
 7849TIP3   OH223503   6.913   4.963   4.819
 7849TIP3    H123504   6.848   5.007   4.875
 7849TIP3    H223505   6.965   4.910   4.879
 7850TIP3   OH223506   6.954   2.912   0.714
 7850TIP3    H123507   7.047   2.908   0.734
 7850TIP3    H223508   6.928   3.000   0.742
 7851TIP3   OH223509   0.635   6.627   2.223
 7851TIP3    H123510   0.684   6.702   2.187
 7851TIP3    H223511   0.548   6.662   2.241
 7852TIP3   OH223512   0.478   3.642   0.292
 7852TIP3    H123513   0.464   3.736   0.296
 7852TIP3    H223514   0.390   3.605   0.286
 7853TIP3   OH223515   1.549   5.850   3.042
 7853TIP3    H123516   1.549   5.940   3.074
 7853TIP3    H223517   1.568   5.859   2.948
 7854TIP3   OH223518   3.808   2.862   2.267
 7854TIP3    H123519   3.879   2.829   2.213
 7854TIP3    H223520   3.801   2.798   2.338
 7855TIP3   OH223521   0.238   4.652   3.301
 7855TIP3    H123522   0.314   4.684   3.350
 7855TIP3    H223523   0.166   4.708   3.328
 7856TIP3   OH223524   4.252   4.812   0.704
 7856TIP3    H123525   4.296   4.889   0.669
 7856TIP3    H223526   4.269   4.744   0.639
 7857TIP3   OH223527   4.922   6.403   0.342
 7857TIP3    H123528   5.001   6.355   0.367
 7857TIP3    H223529   4.866   6.399   0.419
 7858TIP3   OH223530   3.416   4.558   6.003
 7858TIP3    H123531   3.332   4.512   6.007
 7858TIP3    H223532   3.474   4.496   5.958
 7859TIP3   OH223533   7.540   6.036   5.097
 7859TIP3    H123534   7.578   5.950   5.075
 7859TIP3    H223535   7.591   6.098   5.044
 7860TIP3   OH223536   7.931   6.131   2.607
 7860TIP3    H123537   7.911   6.221   2.583
 7860TIP3    H223538   7.942   6.133   2.702
 7861TIP3   OH223539   5.944   2.642   4.108
 7861TIP3    H123540   5.871   2.704   4.106
 7861TIP3    H223541   5.974   2.636   4.018
 7862TIP3   OH223542   1.914   2.927   2.000
 7862TIP3    H123543   1.897   2.844   1.955
 7862TIP3    H223544   2.002   2.952   1.972
 7863TIP3   OH223545   6.710   4.023   6.393
 7863TIP3    H123546   6.777   4.055   6.333
 7863TIP3    H223547   6.747   4.036   6.480
 7864TIP3   OH223548   5.121   7.852   0.750
 7864TIP3    H123549   5.159   7.772   0.787
 7864TIP3    H223550   5.102   7.829   0.659
 7865TIP3   OH223551   8.006   4.523   5.973
 7865TIP3    H123552   8.056   4.511   5.892
 7865TIP3    H223553   7.981   4.615   5.972
 7866TIP3   OH223554   2.556   7.155   5.652
 7866TIP3    H123555   2.609   7.114   5.721
 7866TIP3    H223556   2.620   7.192   5.592
 7867TIP3   OH223557   2.921   1.109   1.384
 7867TIP3    H123558   2.926   1.081   1.293
 7867TIP3    H223559   2.882   1.197   1.379
 7868TIP3   OH223560   2.053   1.296   3.419
 7868TIP3    H123561   2.144   1.325   3.423
 7868TIP3    H223562   2.053   1.213   3.466
 7869TIP3   OH223563   4.946   6.151   2.323
 7869TIP3    H123564   4.991   6.129   2.242
 7869TIP3    H223565   5.012   6.135   2.391
 7870TIP3   OH223566   7.935   1.769   5.409
 7870TIP3    H123567   7.985   1.776   5.490
 7870TIP3    H223568   7.907   1.677   5.405
 7871TIP3   OH223569   1.904   5.515   0.531
 7871TIP3    H123570   1.991   5.537   0.496
 7871TIP3    H223571   1.922   5.453   0.602
 7872TIP3   OH223572   6.436   2.032   2.631
 7872TIP3    H123573   6.511   1.973   2.623
 7872TIP3    H223574   6.450   2.097   2.562
 7873TIP3   OH223575   1.298   6.332   1.382
 7873TIP3    H123576   1.353   6.263   1.419
 7873TIP3    H223577   1.314   6.328   1.288
 7874TIP3   OH223578   0.660   4.411   0.907
 7874TIP3    H123579   0.671   4.376   0.995
 7874TIP3    H223580   0.647   4.334   0.852
 7875TIP3   OH223581   1.156   2.431   5.395
 7875TIP3    H123582   1.181   2.365   5.459
 7875TIP3    H223583   1.192   2.513   5.429
 7876TIP3   OH223584   7.037   5.949   5.770
 7876TIP3    H123585   6.994   5.956   5.685
 7876TIP3    H223586   6.989   5.879   5.815
 7877TIP3   OH223587   4.092   6.301   3.970
 7877TIP3    H123588   4.139   6.250   3.904
 7877TIP3    H223589   4.079   6.240   4.043
 7878TIP3   OH223590   7.525   5.732   3.723
 7878TIP3    H123591   7.529   5.651   3.672
 7878TIP3    H223592   7.617   5.750   3.746
 7879TIP3   OH223593   5.292   6.180   3.903
 7879TIP3    H123594   5.217   6.180   3.844
 7879TIP3    H223595   5.313   6.273   3.915
 7880TIP3   OH223596   6.980   5.788   4.734
 7880TIP3    H123597   6.976   5.722   4.804
 7880TIP3    H223598   6.983   5.871   4.781
 7881TIP3   OH223599   4.663   4.191   5.828
 7881TIP3    H123600   4.663   4.287   5.829
 7881TIP3    H223601   4.709   4.167   5.747
 7882TIP3   OH223602   4.112   6.404   1.475
 7882TIP3    H123603   4.033   6.349   1.474
 7882TIP3    H223604   4.165   6.372   1.402
 7883TIP3   OH223605   6.836   1.509   4.379
 7883TIP3    H123606   6.926   1.543   4.373
 7883TIP3    H223607   6.843   1.434   4.437
 7884TIP3   OH223608   0.518   1.515   2.987
 7884TIP3    H123609   0.452   1.449   3.010
 7884TIP3    H223610   0.556   1.541   3.070
 7885TIP3   OH223611   0.012   6.026   6.296
 7885TIP3    H123612   0.037   5.942   6.258
 7885TIP3    H223613  -0.004   6.006   6.389
 7886TIP3   OH223614   5.425   1.732   1.161
 7886TIP3    H123615   5.506   1.735   1.212
 7886TIP3    H223616   5.384   1.817   1.177
 7887TIP3   OH223617   4.494   3.103   0.833
 7887TIP3    H123618   4.571   3.080   0.781
 7887TIP3    H223619   4.464   3.186   0.797
 7888TIP3   OH223620   6.819   7.091   2.962
 7888TIP3    H123621   6.892   7.139   3.002
 7888TIP3    H223622   6.854   7.002   2.950
 7889TIP3   OH223623   8.003   5.953   0.365
 7889TIP3    H123624   8.061   6.023   0.336
 7889TIP3    H223625   7.915   5.989   0.351
 7890TIP3   OH223626   8.185   0.588   6.182
 7890TIP3    H123627   8.122   0.654   6.152
 7890TIP3    H223628   8.171   0.515   6.122
 7891TIP3   OH223629   3.381   2.442   5.463
 7891TIP3    H123630   3.373   2.352   5.433
 7891TIP3    H223631   3.383   2.435   5.559
 7892TIP3   OH223632   5.716   1.193   1.791
 7892TIP3    H123633   5.626   1.207   1.820
 7892TIP3    H223634   5.763   1.167   1.870
 7893TIP3   OH223635   5.298   2.512   1.068
 7893TIP3    H123636   5.328   2.564   0.994
 7893TIP3    H223637   5.202   2.516   1.062
 7894TIP3   OH223638   4.739   1.695   1.432
 7894TIP3    H123639   4.766   1.785   1.414
 7894TIP3    H223640   4.812   1.657   1.479
 7895TIP3   OH223641   7.695   7.529   5.496
 7895TIP3    H123642   7.660   7.567   5.416
 7895TIP3    H223643   7.725   7.604   5.548
 7896TIP3   OH223644   6.726   4.600   1.828
 7896TIP3    H123645   6.639   4.634   1.848
 7896TIP3    H223646   6.762   4.574   1.912
 7897TIP3   OH223647   2.349   7.688   3.658
 7897TIP3    H123648   2.380   7.636   3.732
 7897TIP3    H223649   2.319   7.623   3.594
 7898TIP3   OH223650   4.003   1.932   5.797
 7898TIP3    H123651   3.917   1.937   5.840
 7898TIP3    H223652   4.064   1.969   5.862
 7899TIP3   OH223653   4.624   1.918   0.177
 7899TIP3    H123654   4.701   1.901   0.231
 7899TIP3    H223655   4.590   2.001   0.210
 7900TIP3   OH223656   1.111   6.473   6.683
 7900TIP3    H123657   1.129   6.436   6.770
 7900TIP3    H223658   1.198   6.483   6.644
 7901TIP3   OH223659   7.629   3.671   1.212
 7901TIP3    H123660   7.575   3.702   1.284
 7901TIP3    H223661   7.589   3.589   1.185
 7902TIP3   OH223662   1.799   4.283   0.141
 7902TIP3    H123663   1.728   4.329   0.095
 7902TIP3    H223664   1.770   4.192   0.144
 7903TIP3   OH223665   7.989   4.918   4.550
 7903TIP3    H123666   8.008   4.896   4.642
 7903TIP3    H223667   7.926   4.989   4.554
 7904TIP3   OH223668   3.419   4.799   2.655
 7904TIP3    H123669   3.376   4.716   2.677
 7904TIP3    H223670   3.358   4.867   2.684
 7905TIP3   OH223671   4.558   1.138   0.048
 7905TIP3    H123672   4.537   1.208  -0.014
 7905TIP3    H223673   4.478   1.085   0.051
 7906TIP3   OH223674   5.163   3.702   1.363
 7906TIP3    H123675   5.167   3.794   1.338
 7906TIP3    H223676   5.116   3.660   1.290
 7907TIP3   OH223677   6.324   0.729   2.673
 7907TIP3    H123678   6.392   0.772   2.621
 7907TIP3    H223679   6.278   0.800   2.716
 7908TIP3   OH223680   5.985   3.955   0.686
 7908TIP3    H123681   6.073   3.953   0.725
 7908TIP3    H223682   5.990   3.891   0.615
 7909TIP3   OH223683   7.849   3.944   4.004
 7909TIP3    H123684   7.866   4.023   3.953
 7909TIP3    H223685   7.843   3.874   3.939
 7910TIP3   OH223686   2.259   6.743   0.169
 7910TIP3    H123687   2.300   6.668   0.212
 7910TIP3    H223688   2.192   6.705   0.113
 7911TIP3   OH223689   4.135   7.404   4.431
 7911TIP3    H123690   4.112   7.417   4.339
 7911TIP3    H223691   4.101   7.317   4.452
 7912TIP3   OH223692   3.684   3.416   0.882
 7912TIP3    H123693   3.779   3.417   0.894
 7912TIP3    H223694   3.656   3.506   0.901
 7913TIP3   OH223695   4.861   7.810   4.841
 7913TIP3    H123696   4.845   7.717   4.853
 7913TIP3    H223697   4.895   7.818   4.751
 7914TIP3   OH223698   6.414   6.120   5.322
 7914TIP3    H123699   6.400   6.138   5.229
 7914TIP3    H223700   6.327   6.097   5.355
 7915TIP3   OH223701   0.434   4.891   4.110
 7915TIP3    H123702   0.413   4.845   4.191
 7915TIP3    H223703   0.416   4.983   4.129
 7916TIP3   OH223704   6.615   0.041   2.404
 7916TIP3    H123705   6.657   0.033   2.318
 7916TIP3    H223706   6.612  -0.049   2.438
 7917TIP3   OH223707   7.839   1.273   3.325
 7917TIP3    H123708   7.915   1.241   3.374
 7917TIP3    H223709   7.764   1.230   3.366
 7918TIP3   OH223710   3.003   1.402   1.577
 7918TIP3    H123711   3.054   1.460   1.634
 7918TIP3    H223712   3.048   1.406   1.492
 7919TIP3   OH223713   2.015   5.522   1.279
 7919TIP3    H123714   2.049   5.587   1.217
 7919TIP3    H223715   2.076   5.525   1.353
 7920TIP3   OH223716   4.078   1.790   6.758
 7920TIP3    H123717   4.155   1.776   6.812
 7920TIP3    H223718   4.109   1.842   6.684
 7921TIP3   OH223719   2.163   2.108   0.407
 7921TIP3    H123720   2.079   2.116   0.453
 7921TIP3    H223721   2.175   2.014   0.395
 7922TIP3   OH223722   5.094   1.451   4.064
 7922TIP3    H123723   5.119   1.505   3.989
 7922TIP3    H223724   5.099   1.361   4.032
 7923TIP3   OH223725   0.177   0.705   3.366
 7923TIP3    H123726   0.251   0.766   3.372
 7923TIP3    H223727   0.120   0.745   3.300
 7924TIP3   OH223728   2.842   1.849   1.684
 7924TIP3    H123729   2.781   1.921   1.668
 7924TIP3    H223730   2.786   1.776   1.712
 7925TIP3   OH223731   1.883   6.967   0.501
 7925TIP3    H123732   1.931   6.893   0.464
 7925TIP3    H223733   1.881   7.032   0.431
 7926TIP3   OH223734   5.511   1.239   3.078
 7926TIP3    H123735   5.461   1.257   2.999
 7926TIP3    H223736   5.516   1.323   3.124
 7927TIP3   OH223737   0.598   4.928   6.740
 7927TIP3    H123738   0.684   4.952   6.775
 7927TIP3    H223739   0.538   4.993   6.776
 7928TIP3   OH223740   5.953   5.285   3.045
 7928TIP3    H123741   5.971   5.286   2.951
 7928TIP3    H223742   5.866   5.325   3.053
 7929TIP3   OH223743   2.471   5.740   4.568
 7929TIP3    H123744   2.481   5.650   4.537
 7929TIP3    H223745   2.559   5.777   4.564
 7930TIP3   OH223746   3.595   1.867   5.983
 7930TIP3    H123747   3.662   1.886   5.917
 7930TIP3    H223748   3.518   1.914   5.953
 7931TIP3   OH223749   3.042   4.696   3.346
 7931TIP3    H123750   3.012   4.760   3.410
 7931TIP3    H223751   3.137   4.691   3.359
 7932TIP3   OH223752   6.003   1.439   6.412
 7932TIP3    H123753   6.078   1.465   6.466
 7932TIP3    H223754   5.993   1.346   6.428
 7933TIP3   OH223755   1.324   7.826   6.070
 7933TIP3    H123756   1.318   7.774   5.990
 7933TIP3    H223757   1.412   7.862   6.069
 7934TIP3   OH223758   1.498   1.143   2.145
 7934TIP3    H123759   1.506   1.173   2.055
 7934TIP3    H223760   1.440   1.067   2.140
 7935TIP3   OH223761   2.912   0.908   5.509
 7935TIP3    H123762   2.894   0.846   5.437
 7935TIP3    H223763   2.889   0.859   5.588
 7936TIP3   OH223764   5.318   0.558   5.083
 7936TIP3    H123765   5.350   0.475   5.048
 7936TIP3    H223766   5.359   0.624   5.028
 7937TIP3   OH223767   4.332   3.827   2.314
 7937TIP3    H123768   4.287   3.794   2.392
 7937TIP3    H223769   4.280   3.901   2.285
 7938TIP3   OH223770   5.086   6.682   5.584
 7938TIP3    H123771   5.022   6.651   5.648
 7938TIP3    H223772   5.165   6.699   5.636
 7939TIP3   OH223773   1.757   2.433   1.383
 7939TIP3    H123774   1.845   2.468   1.372
 7939TIP3    H223775   1.705   2.480   1.317
 7940TIP3   OH223776   2.176   3.591   0.522
 7940TIP3    H123777   2.192   3.676   0.482
 7940TIP3    H223778   2.085   3.570   0.499
 7941TIP3   OH223779   2.066   1.437   0.134
 7941TIP3    H123780   2.067   1.531   0.153
 7941TIP3    H223781   2.137   1.425   0.071
 7942TIP3   OH223782   4.916   3.998   3.661
 7942TIP3    H123783   4.992   4.048   3.691
 7942TIP3    H223784   4.910   4.018   3.568
 7943TIP3   OH223785   1.382   5.083   2.048
 7943TIP3    H123786   1.469   5.061   2.015
 7943TIP3    H223787   1.322   5.037   1.991
 7944TIP3   OH223788   4.243   4.109   5.702
 7944TIP3    H123789   4.260   4.056   5.780
 7944TIP3    H223790   4.298   4.070   5.634
 7945TIP3   OH223791   7.348   2.511   0.086
 7945TIP3    H123792   7.360   2.512  -0.009
 7945TIP3    H223793   7.400   2.437   0.116
 7946TIP3   OH223794   2.887   3.022   1.949
 7946TIP3    H123795   2.962   2.982   1.905
 7946TIP3    H223796   2.882   2.978   2.034
 7947TIP3   OH223797   5.264   2.001   3.926
 7947TIP3    H123798   5.292   1.923   3.878
 7947TIP3    H223799   5.284   1.981   4.017
 7948TIP3   OH223800   6.588   3.449   2.785
 7948TIP3    H123801   6.591   3.449   2.689
 7948TIP3    H223802   6.494   3.450   2.806
 7949TIP3   OH223803   6.735   1.072   3.617
 7949TIP3    H123804   6.739   1.016   3.695
 7949TIP3    H223805   6.644   1.066   3.587
 7950TIP3   OH223806   4.851   2.885   2.387
 7950TIP3    H123807   4.807   2.895   2.471
 7950TIP3    H223808   4.900   2.803   2.395
 7951TIP3   OH223809   1.985   1.867   1.795
 7951TIP3    H123810   1.983   1.954   1.835
 7951TIP3    H223811   2.067   1.866   1.745
 7952TIP3   OH223812   0.098   6.737   5.539
 7952TIP3    H123813   0.159   6.688   5.484
 7952TIP3    H223814   0.012   6.725   5.497
 7953TIP3   OH223815   2.340   3.200   3.783
 7953TIP3    H123816   2.256   3.165   3.812
 7953TIP3    H223817   2.370   3.256   3.855
 7954TIP3   OH223818   6.085   7.239   0.801
 7954TIP3    H123819   6.033   7.317   0.822
 7954TIP3    H223820   6.095   7.194   0.884
 7955TIP3   OH223821   4.715   2.592   3.358
 7955TIP3    H123822   4.762   2.509   3.369
 7955TIP3    H223823   4.690   2.617   3.447
 7956TIP3   OH223824   7.213   0.268   1.157
 7956TIP3    H123825   7.141   0.264   1.093
 7956TIP3    H223826   7.291   0.254   1.104
 7957TIP3   OH223827   7.533   4.557   0.847
 7957TIP3    H123828   7.490   4.539   0.930
 7957TIP3    H223829   7.575   4.642   0.859
 7958TIP3   OH223830   3.109   4.486   3.757
 7958TIP3    H123831   3.185   4.530   3.796
 7958TIP3    H223832   3.044   4.484   3.827
 7959TIP3   OH223833   8.159   0.262   3.475
 7959TIP3    H123834   8.147   0.290   3.565
 7959TIP3    H223835   8.146   0.167   3.477
 7960TIP3   OH223836   8.137   5.838   1.182
 7960TIP3    H123837   8.181   5.768   1.133
 7960TIP3    H223838   8.113   5.902   1.115
 7961TIP3   OH223839   1.196   6.911   1.628
 7961TIP3    H123840   1.291   6.909   1.617
 7961TIP3    H223841   1.170   6.819   1.638
 7962TIP3   OH223842   7.683   7.390   1.537
 7962TIP3    H123843   7.665   7.352   1.451
 7962TIP3    H223844   7.694   7.314   1.595
 7963TIP3   OH223845   1.612   5.399   2.015
 7963TIP3    H123846   1.561   5.388   2.095
 7963TIP3    H223847   1.700   5.420   2.044
 7964TIP3   OH223848   4.087   4.623   3.986
 7964TIP3    H123849   4.102   4.566   4.062
 7964TIP3    H223850   4.000   4.659   4.000
 7965TIP3   OH223851   7.331   0.895   1.101
 7965TIP3    H123852   7.426   0.898   1.115
 7965TIP3    H223853   7.297   0.847   1.177
 7966TIP3   OH223854   2.417   7.129   3.489
 7966TIP3    H123855   2.395   7.042   3.523
 7966TIP3    H223856   2.414   7.119   3.394
 7967TIP3   OH223857   6.783   5.794   4.107
 7967TIP3    H123858   6.847   5.845   4.057
 7967TIP3    H223859   6.786   5.707   4.066
 7968TIP3   OH223860   1.785   4.865   1.721
 7968TIP3    H123861   1.756   4.927   1.654
 7968TIP3    H223862   1.704   4.833   1.760
 7969TIP3   OH223863   1.847   6.562   0.587
 7969TIP3    H123864   1.831   6.650   0.621
 7969TIP3    H223865   1.940   6.546   0.605
 7970TIP3   OH223866   3.904   1.739   6.040
 7970TIP3    H123867   3.877   1.829   6.058
 7970TIP3    H223868   3.978   1.748   5.981
 7971TIP3   OH223869   5.433   4.926   3.702
 7971TIP3    H123870   5.414   4.892   3.614
 7971TIP3    H223871   5.472   4.852   3.748
 7972TIP3   OH223872   2.974   4.694   6.745
 7972TIP3    H123873   3.061   4.707   6.708
 7972TIP3    H223874   2.979   4.610   6.790
 7973TIP3   OH223875   1.802   4.235   3.457
 7973TIP3    H123876   1.865   4.208   3.524
 7973TIP3    H223877   1.836   4.199   3.375
 7974TIP3   OH223878   0.801   0.531   3.767
 7974TIP3    H123879   0.707   0.542   3.777
 7974TIP3    H223880   0.830   0.496   3.852
 7975TIP3   OH223881   0.665   3.613   0.719
 7975TIP3    H123882   0.597   3.552   0.688
 7975TIP3    H223883   0.664   3.683   0.654
 7976TIP3   OH223884   3.408   6.172   2.232
 7976TIP3    H123885   3.503   6.166   2.238
 7976TIP3    H223886   3.389   6.165   2.138
 7977TIP3   OH223887   6.240   7.435   2.735
 7977TIP3    H123888   6.261   7.527   2.723
 7977TIP3    H223889   6.236   7.423   2.830
 7978TIP3   OH223890   4.043   4.632   0.343
 7978TIP3    H123891   3.957   4.672   0.353
 7978TIP3    H223892   4.082   4.675   0.267
 7979TIP3   OH223893   5.391   3.098   4.850
 7979TIP3    H123894   5.484   3.123   4.851
 7979TIP3    H223895   5.388   3.017   4.900
 7980TIP3   OH223896   7.446   2.564   0.914
 7980TIP3    H123897   7.447   2.487   0.856
 7980TIP3    H223898   7.353   2.574   0.938
 7981TIP3   OH223899   7.783   6.415   2.919
 7981TIP3    H123900   7.749   6.503   2.902
 7981TIP3    H223901   7.878   6.424   2.913
 7982TIP3   OH223902   3.638   5.941   1.591
 7982TIP3    H123903   3.720   5.915   1.549
 7982TIP3    H223904   3.578   5.869   1.571
 7983TIP3   OH223905   0.784   6.724   1.810
 7983TIP3    H123906   0.839   6.733   1.888
 7983TIP3    H223907   0.695   6.733   1.843
 7984TIP3   OH223908   5.912   2.176   1.726
 7984TIP3    H123909   5.907   2.229   1.647
 7984TIP3    H223910   5.863   2.226   1.792
 7985TIP3   OH223911   1.612   5.833   1.451
 7985TIP3    H123912   1.660   5.888   1.512
 7985TIP3    H223913   1.598   5.751   1.498
 7986TIP3   OH223914   1.023   1.169   5.115
 7986TIP3    H123915   1.033   1.262   5.132
 7986TIP3    H223916   0.935   1.148   5.145
 7987TIP3   OH223917   1.148   4.962   1.903
 7987TIP3    H123918   1.154   5.024   1.830
 7987TIP3    H223919   1.055   4.952   1.919
 7988TIP3   OH223920   4.553   2.126   0.756
 7988TIP3    H123921   4.531   2.126   0.849
 7988TIP3    H223922   4.642   2.090   0.753
 7989TIP3   OH223923   7.896   7.351   1.960
 7989TIP3    H123924   7.822   7.301   1.927
 7989TIP3    H223925   7.863   7.394   2.040
 7990TIP3   OH223926   7.892   0.606   5.468
 7990TIP3    H123927   7.918   0.536   5.528
 7990TIP3    H223928   7.820   0.569   5.417
 7991TIP3   OH223929   0.422   0.331   3.994
 7991TIP3    H123930   0.461   0.401   4.046
 7991TIP3    H223931   0.484   0.315   3.924
 7992TIP3   OH223932   7.420   5.929   4.530
 7992TIP3    H123933   7.479   5.866   4.571
 7992TIP3    H223934   7.431   5.913   4.436
 7993TIP3   OH223935   1.539   6.810   5.165
 7993TIP3    H123936   1.524   6.743   5.232
 7993TIP3    H223937   1.452   6.848   5.149
 7994TIP3   OH223938   8.143   7.707   0.948
 7994TIP3    H123939   8.133   7.655   1.027
 7994TIP3    H223940   8.095   7.788   0.967
 7995TIP3   OH223941   5.782   5.192   0.041
 7995TIP3    H123942   5.866   5.175   0.085
 7995TIP3    H223943   5.790   5.282   0.010
 7996TIP3   OH223944   2.119   4.288   4.620
 7996TIP3    H123945   2.070   4.251   4.694
 7996TIP3    H223946   2.059   4.281   4.546
 7997TIP3   OH223947   4.666   2.355   1.128
 7997TIP3    H123948   4.584   2.394   1.159
 7997TIP3    H223949   4.734   2.394   1.181
 7998TIP3   OH223950   0.388   7.670   4.593
 7998TIP3    H123951   0.472   7.670   4.639
 7998TIP3    H223952   0.384   7.756   4.551
 7999TIP3   OH223953   3.928   7.527   3.823
 7999TIP3    H123954   3.864   7.538   3.753
 7999TIP3    H223955   3.960   7.437   3.813
 8000TIP3   OH223956   7.291   4.138   5.814
 8000TIP3    H123957   7.302   4.234   5.813
 8000TIP3    H223958   7.244   4.121   5.896
 8001TIP3   OH223959   7.311   4.065   3.568
 8001TIP3    H123960   7.252   4.030   3.636
 8001TIP3    H223961   7.399   4.050   3.603
 8002TIP3   OH223962   5.159   3.596   5.535
 8002TIP3    H123963   5.065   3.579   5.533
 8002TIP3    H223964   5.167   3.685   5.568
 8003TIP3   OH223965   0.095   5.670   6.580
 8003TIP3    H123966   0.127   5.749   6.623
 8003TIP3    H223967   0.148   5.662   6.501
 8004TIP3   OH223968   1.870   0.166   4.221
 8004TIP3    H123969   1.884   0.100   4.289
 8004TIP3    H223970   1.941   0.229   4.232
 8005TIP3   OH223971   7.032   5.716   5.301
 8005TIP3    H123972   6.947   5.673   5.290
 8005TIP3    H223973   7.020   5.803   5.262
 8006TIP3   OH223974   0.210   3.924   0.132
 8006TIP3    H123975   0.224   3.854   0.068
 8006TIP3    H223976   0.297   3.941   0.167
 8007TIP3   OH223977   8.119   3.807   4.029
 8007TIP3    H123978   8.080   3.844   4.108
 8007TIP3    H223979   8.109   3.875   3.963
 8008TIP3   OH223980   5.585   4.164   6.562
 8008TIP3    H123981   5.519   4.105   6.525
 8008TIP3    H223982   5.655   4.107   6.593
 8009TIP3   OH223983   0.727   5.265   0.477
 8009TIP3    H123984   0.807   5.223   0.508
 8009TIP3    H223985   0.753   5.354   0.455
 8010TIP3   OH223986   4.094   4.582   6.068
 8010TIP3    H123987   4.007   4.622   6.056
 8010TIP3    H223988   4.106   4.528   5.990
 8011TIP3   OH223989   0.863   2.494   4.118
 8011TIP3    H123990   0.807   2.436   4.169
 8011TIP3    H223991   0.860   2.458   4.029
 8012TIP3   OH223992   0.071   4.456   2.312
 8012TIP3    H123993   0.092   4.407   2.392
 8012TIP3    H223994   0.077   4.392   2.242
 8013TIP3   OH223995   6.747   2.830   4.279
 8013TIP3    H123996   6.812   2.766   4.306
 8013TIP3    H223997   6.777   2.862   4.194
 8014TIP3   OH223998   1.575   0.622   1.694
 8014TIP3    H123999   1.559   0.705   1.651
 8014TIP3    H224000   1.662   0.631   1.732
 8015TIP3   OH224001   5.281   6.967   2.689
 8015TIP3    H124002   5.277   7.030   2.618
 8015TIP3    H224003   5.357   6.913   2.668
 8016TIP3   OH224004   5.077   3.800   3.769
 8016TIP3    H124005   4.998   3.846   3.739
 8016TIP3    H224006   5.135   3.870   3.800
 8017TIP3   OH224007   1.453   2.542   3.782
 8017TIP3    H124008   1.481   2.477   3.846
 8017TIP3    H224009   1.383   2.590   3.826
 8018TIP3   OH224010   3.435   3.776   0.870
 8018TIP3    H124011   3.505   3.720   0.835
 8018TIP3    H224012   3.354   3.733   0.844
 8019TIP3   OH224013   6.221   6.206   0.126
 8019TIP3    H124014   6.127   6.209   0.108
 8019TIP3    H224015   6.253   6.131   0.074
 8020TIP3   OH224016   3.200   1.930   3.216
 8020TIP3    H124017   3.287   1.890   3.223
 8020TIP3    H224018   3.215   2.013   3.171
 8021TIP3   OH224019   4.706   3.740   1.620
 8021TIP3    H124020   4.760   3.787   1.556
 8021TIP3    H224021   4.740   3.651   1.618
 8022TIP3   OH224022   3.102   3.243   2.494
 8022TIP3    H124023   3.137   3.267   2.408
 8022TIP3    H224024   3.146   3.161   2.515
 8023TIP3   OH224025   5.481   1.893   3.571
 8023TIP3    H124026   5.570   1.867   3.595
 8023TIP3    H224027   5.478   1.987   3.589
 8024TIP3   OH224028   5.786   0.307   6.029
 8024TIP3    H124029   5.774   0.232   6.087
 8024TIP3    H224030   5.840   0.274   5.957
 8025TIP3   OH224031   3.440   0.752   1.887
 8025TIP3    H124032   3.434   0.846   1.907
 8025TIP3    H224033   3.351   0.726   1.865
 8026TIP3   OH224034   3.154   5.656   3.625
 8026TIP3    H124035   3.218   5.618   3.686
 8026TIP3    H224036   3.169   5.609   3.543
 8027TIP3   OH224037   0.802   1.934   0.053
 8027TIP3    H124038   0.755   1.867   0.003
 8027TIP3    H224039   0.734   1.996   0.079
 8028TIP3   OH224040   6.345   6.731   2.490
 8028TIP3    H124041   6.312   6.757   2.404
 8028TIP3    H224042   6.297   6.650   2.510
 8029TIP3   OH224043   7.544   2.750   1.893
 8029TIP3    H124044   7.528   2.657   1.910
 8029TIP3    H224045   7.526   2.760   1.799
 8030TIP3   OH224046   4.607   6.904   1.848
 8030TIP3    H124047   4.575   6.814   1.849
 8030TIP3    H224048   4.662   6.908   1.770
 8031TIP3   OH224049   0.151   7.183   6.661
 8031TIP3    H124050   0.158   7.091   6.686
 8031TIP3    H224051   0.113   7.181   6.573
 8032TIP3   OH224052   7.339   1.016   5.564
 8032TIP3    H124053   7.285   0.938   5.577
 8032TIP3    H224054   7.429   0.984   5.570
 8033TIP3   OH224055   7.869   2.286   4.629
 8033TIP3    H124056   7.927   2.210   4.629
 8033TIP3    H224057   7.795   2.259   4.683
 8034TIP3   OH224058   5.245   0.905   3.211
 8034TIP3    H124059   5.151   0.907   3.192
 8034TIP3    H224060   5.287   0.926   3.128
 8035TIP3   OH224061   2.588   4.239   2.508
 8035TIP3    H124062   2.657   4.177   2.531
 8035TIP3    H224063   2.635   4.320   2.487
 8036TIP3   OH224064   0.282   3.554   2.967
 8036TIP3    H124065   0.254   3.609   3.040
 8036TIP3    H224066   0.366   3.592   2.939
 8037TIP3   OH224067   7.644   3.139   6.202
 8037TIP3    H124068   7.661   3.212   6.143
 8037TIP3    H224069   7.699   3.156   6.279
 8038TIP3   OH224070   2.450   2.739   1.932
 8038TIP3    H124071   2.525   2.797   1.921
 8038TIP3    H224072   2.489   2.655   1.956
 8039TIP3   OH224073   3.015   4.218   4.113
 8039TIP3    H124074   3.049   4.291   4.061
 8039TIP3    H224075   2.952   4.258   4.172
 8040TIP3   OH224076   5.034   5.708   2.312
 8040TIP3    H124077   5.022   5.673   2.401
 8040TIP3    H224078   4.953   5.757   2.295
 8041TIP3   OH224079   6.034   5.049   2.295
 8041TIP3    H124080   5.951   5.004   2.278
 8041TIP3    H224081   6.099   4.979   2.301
 8042TIP3   OH224082   4.038   1.023   1.375
 8042TIP3    H124083   4.130   1.015   1.350
 8042TIP3    H224084   4.019   0.942   1.423
 8043TIP3   OH224085   0.844   0.417   0.205
 8043TIP3    H124086   0.759   0.460   0.201
 8043TIP3    H224087   0.868   0.418   0.298
 8044TIP3   OH224088   1.323   4.588   1.267
 8044TIP3    H124089   1.274   4.520   1.219
 8044TIP3    H224090   1.284   4.586   1.355
 8045TIP3   OH224091   0.763   6.389   2.337
 8045TIP3    H124092   0.709   6.465   2.314
 8045TIP3    H224093   0.845   6.402   2.290
 8046TIP3   OH224094   5.700   6.447   5.663
 8046TIP3    H124095   5.757   6.417   5.592
 8046TIP3    H224096   5.617   6.404   5.646
 8047TIP3   OH224097   4.321   4.917   5.092
 8047TIP3    H124098   4.319   4.966   5.010
 8047TIP3    H224099   4.298   4.982   5.159
 8048TIP3   OH224100   0.143   5.873   4.728
 8048TIP3    H124101   0.224   5.858   4.680
 8048TIP3    H224102   0.170   5.920   4.806
 8049TIP3   OH224103   5.545   3.201   1.161
 8049TIP3    H124104   5.462   3.204   1.207
 8049TIP3    H224105   5.563   3.108   1.148
 8050TIP3   OH224106   1.152   5.759   4.258
 8050TIP3    H124107   1.212   5.702   4.211
 8050TIP3    H224108   1.207   5.830   4.291
 8051TIP3   OH224109   5.879   6.723   4.706
 8051TIP3    H124110   5.931   6.803   4.699
 8051TIP3    H224111   5.791   6.754   4.727
 8052TIP3   OH224112   7.219   6.878   0.194
 8052TIP3    H124113   7.225   6.810   0.260
 8052TIP3    H224114   7.310   6.900   0.173
 8053TIP3   OH224115   8.046   6.543   5.740
 8053TIP3    H124116   8.112   6.493   5.693
 8053TIP3    H224117   7.963   6.513   5.704
 8054TIP3   OH224118   1.398   6.790   6.661
 8054TIP3    H124119   1.434   6.821   6.578
 8054TIP3    H224120   1.448   6.838   6.728
 8055TIP3   OH224121   5.966   2.166   5.419
 8055TIP3    H124122   5.963   2.222   5.497
 8055TIP3    H224123   6.056   2.175   5.386
 8056TIP3   OH224124   7.568   0.524   4.021
 8056TIP3    H124125   7.588   0.440   4.062
 8056TIP3    H224126   7.484   0.510   3.979
 8057TIP3   OH224127   3.495   7.594   6.250
 8057TIP3    H124128   3.466   7.577   6.340
 8057TIP3    H224129   3.503   7.689   6.245
 8058TIP3   OH224130   1.415   0.274   2.603
 8058TIP3    H124131   1.466   0.252   2.681
 8058TIP3    H224132   1.432   0.202   2.542
 8059TIP3   OH224133   0.301   2.044   0.380
 8059TIP3    H124134   0.379   1.993   0.403
 8059TIP3    H224135   0.228   1.984   0.393
 8060TIP3   OH224136   3.874   4.185   0.521
 8060TIP3    H124137   3.929   4.239   0.578
 8060TIP3    H224138   3.787   4.189   0.562
 8061TIP3   OH224139   2.480   3.979   0.877
 8061TIP3    H124140   2.557   3.990   0.822
 8061TIP3    H224141   2.514   3.945   0.960
 8062TIP3   OH224142   6.245   4.056   0.226
 8062TIP3    H124143   6.200   4.097   0.300
 8062TIP3    H224144   6.176   4.043   0.161
 8063TIP3   OH224145   4.432   5.452   0.153
 8063TIP3    H124146   4.412   5.498   0.071
 8063TIP3    H224147   4.527   5.439   0.150
 8064TIP3   OH224148   7.405   2.628   5.099
 8064TIP3    H124149   7.425   2.636   5.005
 8064TIP3    H224150   7.342   2.556   5.104
 8065TIP3   OH224151   4.038   2.289   5.908
 8065TIP3    H124152   4.122   2.286   5.863
 8065TIP3    H224153   4.019   2.382   5.917
 8066TIP3   OH224154   1.752   3.874   5.118
 8066TIP3    H124155   1.741   3.868   5.023
 8066TIP3    H224156   1.672   3.837   5.154
 8067TIP3   OH224157   5.267   2.882   2.565
 8067TIP3    H124158   5.350   2.917   2.597
 8067TIP3    H224159   5.250   2.929   2.484
 8068TIP3   OH224160   7.515   0.892   6.446
 8068TIP3    H124161   7.558   0.873   6.530
 8068TIP3    H224162   7.437   0.943   6.470
 8069TIP3   OH224163   1.654   1.520   4.407
 8069TIP3    H124164   1.691   1.560   4.486
 8069TIP3    H224165   1.720   1.456   4.380
 8070TIP3   OH224166   6.441   1.216   1.465
 8070TIP3    H124167   6.426   1.202   1.372
 8070TIP3    H224168   6.452   1.311   1.474
 8071TIP3   OH224169   1.259   0.557   0.944
 8071TIP3    H124170   1.231   0.618   0.876
 8071TIP3    H224171   1.298   0.484   0.896
 8072TIP3   OH224172   6.929   0.870   2.547
 8072TIP3    H124173   6.863   0.838   2.607
 8072TIP3    H224174   6.971   0.942   2.594
 8073TIP3   OH224175   7.639   4.839   0.589
 8073TIP3    H124176   7.707   4.775   0.570
 8073TIP3    H224177   7.671   4.886   0.666
 8074TIP3   OH224178   0.791   7.020   5.671
 8074TIP3    H124179   0.863   7.005   5.609
 8074TIP3    H224180   0.803   7.111   5.699
 8075TIP3   OH224181   0.870   4.633   1.665
 8075TIP3    H124182   0.877   4.724   1.637
 8075TIP3    H224183   0.782   4.624   1.700
 8076TIP3   OH224184   3.899   5.664   0.476
 8076TIP3    H124185   3.818   5.622   0.505
 8076TIP3    H224186   3.909   5.740   0.533
 8077TIP3   OH224187   8.109   6.325   3.585
 8077TIP3    H124188   8.133   6.327   3.678
 8077TIP3    H224189   8.087   6.233   3.568
 8078TIP3   OH224190   2.530   3.868   2.853
 8078TIP3    H124191   2.490   3.953   2.836
 8078TIP3    H224192   2.523   3.857   2.948
 8079TIP3   OH224193   2.061   1.337   6.726
 8079TIP3    H124194   2.016   1.338   6.811
 8079TIP3    H224195   2.099   1.249   6.721
 8080TIP3   OH224196   0.054   6.047   2.028
 8080TIP3    H124197   0.102   5.978   2.073
 8080TIP3    H224198   0.111   6.072   1.955
 8081TIP3   OH224199   6.712   4.044   1.749
 8081TIP3    H124200   6.679   3.955   1.760
 8081TIP3    H224201   6.662   4.080   1.676
 8082TIP3   OH224202   1.169   1.936   0.877
 8082TIP3    H124203   1.100   1.883   0.918
 8082TIP3    H224204   1.251   1.896   0.906
 8083TIP3   OH224205   2.191   2.077   6.154
 8083TIP3    H124206   2.241   2.082   6.073
 8083TIP3    H224207   2.192   1.985   6.178
 8084TIP3   OH224208   7.661   2.868   5.392
 8084TIP3    H124209   7.621   2.793   5.437
 8084TIP3    H224210   7.664   2.842   5.300
 8085TIP3   OH224211   0.909  -0.009   4.415
 8085TIP3    H124212   0.823   0.022   4.385
 8085TIP3    H224213   0.971   0.028   4.351
 8086TIP3   OH224214   0.987   3.309   6.088
 8086TIP3    H124215   1.069   3.348   6.057
 8086TIP3    H224216   0.936   3.383   6.120
 8087TIP3   OH224217   1.074   1.637   3.787
 8087TIP3    H124218   1.169   1.649   3.798
 8087TIP3    H224219   1.047   1.707   3.728
 8088TIP3   OH224220   4.810   7.738   1.774
 8088TIP3    H124221   4.750   7.812   1.782
 8088TIP3    H224222   4.783   7.678   1.843
 8089TIP3   OH224223   0.904   4.492   4.341
 8089TIP3    H124224   0.894   4.586   4.329
 8089TIP3    H224225   0.996   4.481   4.366
 8090TIP3   OH224226   8.127   0.147   2.787
 8090TIP3    H124227   8.140   0.145   2.882
 8090TIP3    H224228   8.196   0.204   2.754
 8091TIP3   OH224229   2.812   5.136   0.560
 8091TIP3    H124230   2.818   5.201   0.489
 8091TIP3    H224231   2.739   5.079   0.533
 8092TIP3   OH224232   6.109   7.623   2.452
 8092TIP3    H124233   6.154   7.555   2.403
 8092TIP3    H224234   6.020   7.591   2.461
 8093TIP3   OH224235   2.523   3.432   0.354
 8093TIP3    H124236   2.500   3.522   0.329
 8093TIP3    H224237   2.524   3.434   0.450
 8094TIP3   OH224238   0.645   2.544   5.604
 8094TIP3    H124239   0.628   2.455   5.573
 8094TIP3    H224240   0.560   2.586   5.602
 8095TIP3   OH224241   2.671   1.967   2.912
 8095TIP3    H124242   2.658   1.985   2.819
 8095TIP3    H224243   2.702   1.877   2.915
 8096TIP3   OH224244   0.997   3.616   0.534
 8096TIP3    H124245   0.980   3.679   0.604
 8096TIP3    H224246   0.938   3.643   0.464
 8097TIP3   OH224247   5.285   5.812   2.314
 8097TIP3    H124248   5.272   5.888   2.256
 8097TIP3    H224249   5.200   5.770   2.316
 8098TIP3   OH224250   8.226   1.611   0.774
 8098TIP3    H124251   8.150   1.670   0.770
 8098TIP3    H224252   8.282   1.640   0.702
 8099TIP3   OH224253   6.959   0.863   3.627
 8099TIP3    H124254   6.905   0.844   3.550
 8099TIP3    H224255   6.998   0.949   3.607
 8100TIP3   OH224256   7.948   1.573   1.055
 8100TIP3    H124257   7.964   1.511   1.126
 8100TIP3    H224258   7.980   1.656   1.088
 8101TIP3   OH224259   1.994   6.327   6.220
 8101TIP3    H124260   1.992   6.400   6.159
 8101TIP3    H224261   1.936   6.261   6.181
 8102TIP3   OH224262   2.042   7.195   2.124
 8102TIP3    H124263   2.038   7.144   2.205
 8102TIP3    H224264   2.092   7.141   2.063
 8103TIP3   OH224265   4.537   6.354   3.933
 8103TIP3    H124266   4.630   6.331   3.939
 8103TIP3    H224267   4.536   6.439   3.890
 8104TIP3   OH224268   5.503   6.224   0.598
 8104TIP3    H124269   5.566   6.185   0.658
 8104TIP3    H224270   5.527   6.317   0.594
 8105TIP3   OH224271   7.059   1.129   3.538
 8105TIP3    H124272   7.066   1.098   3.448
 8105TIP3    H224273   7.145   1.113   3.576
 8106TIP3   OH224274   0.516   3.018   4.062
 8106TIP3    H124275   0.531   3.112   4.047
 8106TIP3    H224276   0.443   3.015   4.124
 8107TIP3   OH224277   3.800   0.334   3.897
 8107TIP3    H124278   3.757   0.392   3.959
 8107TIP3    H224279   3.743   0.335   3.820
 8108TIP3   OH224280   1.354   5.473   1.629
 8108TIP3    H124281   1.378   5.446   1.717
 8108TIP3    H224282   1.424   5.533   1.602
 8109TIP3   OH224283   4.624   7.513   1.961
 8109TIP3    H124284   4.549   7.569   1.944
 8109TIP3    H224285   4.600   7.429   1.922
 8110TIP3   OH224286   7.718   2.003   2.168
 8110TIP3    H124287   7.738   1.960   2.251
 8110TIP3    H224288   7.777   1.963   2.105
 8111TIP3   OH224289   3.126   0.963   3.346
 8111TIP3    H124290   3.188   0.944   3.417
 8111TIP3    H224291   3.061   1.020   3.385
 8112TIP3   OH224292   3.434   0.776   4.835
 8112TIP3    H124293   3.523   0.756   4.863
 8112TIP3    H224294   3.421   0.724   4.756
 8113TIP3   OH224295   2.144   1.159   4.457
 8113TIP3    H124296   2.207   1.174   4.527
 8113TIP3    H224297   2.198   1.145   4.379
 8114TIP3   OH224298   3.086   3.417   3.226
 8114TIP3    H124299   2.990   3.416   3.218
 8114TIP3    H224300   3.115   3.474   3.154
 8115TIP3   OH224301   1.548   2.885   1.081
 8115TIP3    H124302   1.471   2.906   1.134
 8115TIP3    H224303   1.540   2.941   1.004
 8116TIP3   OH224304   8.058   3.966   2.064
 8116TIP3    H124305   8.077   3.926   1.979
 8116TIP3    H224306   8.099   3.907   2.128
 8117TIP3   OH224307   3.060   7.388   6.764
 8117TIP3    H124308   2.995   7.359   6.700
 8117TIP3    H224309   3.026   7.358   6.848
 8118TIP3   OH224310   4.748   7.797   4.414
 8118TIP3    H124311   4.700   7.717   4.396
 8118TIP3    H224312   4.683   7.856   4.452
 8119TIP3   OH224313   4.813   7.340   5.520
 8119TIP3    H124314   4.786   7.391   5.443
 8119TIP3    H224315   4.906   7.361   5.530
 8120TIP3   OH224316   1.093   2.509   3.621
 8120TIP3    H124317   1.041   2.430   3.636
 8120TIP3    H224318   1.030   2.574   3.590
 8121TIP3   OH224319   1.359   0.942   0.998
 8121TIP3    H124320   1.381   0.996   0.922
 8121TIP3    H224321   1.437   0.887   1.010
 8122TIP3   OH224322   1.837   1.886   4.526
 8122TIP3    H124323   1.833   1.804   4.575
 8122TIP3    H224324   1.812   1.953   4.590
 8123TIP3   OH224325   2.781   3.990   0.757
 8123TIP3    H124326   2.760   4.005   0.665
 8123TIP3    H224327   2.830   3.908   0.758
 8124TIP3   OH224328   1.539   4.590   1.684
 8124TIP3    H124329   1.528   4.672   1.636
 8124TIP3    H224330   1.488   4.602   1.764
 8125TIP3   OH224331   1.233   4.837   2.272
 8125TIP3    H124332   1.314   4.882   2.296
 8125TIP3    H224333   1.262   4.758   2.227
 8126TIP3   OH224334   8.171   0.987   0.246
 8126TIP3    H124335   8.079   0.987   0.222
 8126TIP3    H224336   8.214   1.039   0.178
 8127TIP3   OH224337   5.480   3.420   0.598
 8127TIP3    H124338   5.493   3.334   0.558
 8127TIP3    H224339   5.547   3.475   0.559
 8128TIP3   OH224340   2.746   5.814   6.059
 8128TIP3    H124341   2.657   5.779   6.060
 8128TIP3    H224342   2.741   5.892   6.004
 8129TIP3   OH224343   1.622   4.172   5.824
 8129TIP3    H124344   1.624   4.137   5.735
 8129TIP3    H224345   1.666   4.257   5.817
 8130TIP3   OH224346   4.494   2.891   3.791
 8130TIP3    H124347   4.508   2.984   3.812
 8130TIP3    H224348   4.402   2.876   3.811
 8131TIP3   OH224349   1.683   0.142   2.403
 8131TIP3    H124350   1.686   0.102   2.490
 8131TIP3    H224351   1.717   0.230   2.415
 8132TIP3   OH224352   4.037   4.840   6.594
 8132TIP3    H124353   4.078   4.901   6.533
 8132TIP3    H224354   4.019   4.762   6.542
 8133TIP3   OH224355   0.554   3.773   1.786
 8133TIP3    H124356   0.606   3.759   1.707
 8133TIP3    H224357   0.612   3.745   1.858
 8134TIP3   OH224358   5.969   3.288   3.007
 8134TIP3    H124359   6.050   3.336   2.995
 8134TIP3    H224360   5.963   3.231   2.930
 8135TIP3   OH224361   5.515   3.455   4.998
 8135TIP3    H124362   5.523   3.359   4.990
 8135TIP3    H224363   5.588   3.481   5.053
 8136TIP3   OH224364   4.416   5.891   0.743
 8136TIP3    H124365   4.374   5.942   0.673
 8136TIP3    H224366   4.490   5.847   0.700
 8137TIP3   OH224367   2.718   4.996   3.259
 8137TIP3    H124368   2.728   5.049   3.339
 8137TIP3    H224369   2.640   5.031   3.217
 8138TIP3   OH224370   7.407   4.815   2.464
 8138TIP3    H124371   7.353   4.795   2.541
 8138TIP3    H224372   7.496   4.822   2.498
 8139TIP3   OH224373   5.193   3.086   1.130
 8139TIP3    H124374   5.111   3.077   1.081
 8139TIP3    H224375   5.227   3.172   1.104
 8140TIP3   OH224376   2.226   1.309   5.653
 8140TIP3    H124377   2.244   1.340   5.742
 8140TIP3    H224378   2.132   1.322   5.642
 8141TIP3   OH224379   3.051   0.592   5.573
 8141TIP3    H124380   3.073   0.504   5.541
 8141TIP3    H224381   3.109   0.651   5.524
 8142TIP3   OH224382   3.835   3.426   4.942
 8142TIP3    H124383   3.772   3.415   4.871
 8142TIP3    H224384   3.921   3.424   4.898
 8143TIP3   OH224385   6.123   7.237   2.013
 8143TIP3    H124386   6.172   7.155   2.015
 8143TIP3    H224387   6.064   7.233   2.088
 8144TIP3   OH224388   3.177   2.966   4.684
 8144TIP3    H124389   3.173   3.019   4.603
 8144TIP3    H224390   3.270   2.956   4.702
 8145TIP3   OH224391   0.611   3.400   1.735
 8145TIP3    H124392   0.522   3.383   1.705
 8145TIP3    H224393   0.608   3.384   1.829
 8146TIP3   OH224394   5.617   5.250   4.806
 8146TIP3    H124395   5.672   5.287   4.737
 8146TIP3    H224396   5.530   5.245   4.767
 8147TIP3   OH224397   1.137   4.535   1.757
 8147TIP3    H124398   1.046   4.555   1.734
 8147TIP3    H224399   1.187   4.558   1.679
 8148TIP3   OH224400   4.006   4.146   6.346
 8148TIP3    H124401   4.010   4.133   6.441
 8148TIP3    H224402   4.073   4.088   6.311
 8149TIP3   OH224403   5.511   4.316   5.548
 8149TIP3    H124404   5.555   4.343   5.628
 8149TIP3    H224405   5.465   4.395   5.518
 8150TIP3   OH224406   0.085   3.352   6.072
 8150TIP3    H124407   0.101   3.385   6.160
 8150TIP3    H224408  -0.010   3.354   6.061
 8151TIP3   OH224409   2.757   5.853   1.411
 8151TIP3    H124410   2.770   5.764   1.379
 8151TIP3    H224411   2.723   5.842   1.500
 8152TIP3   OH224412   5.274   6.264   2.332
 8152TIP3    H124413   5.304   6.188   2.281
 8152TIP3    H224414   5.211   6.228   2.394
 8153TIP3   OH224415   4.156   2.158   1.309
 8153TIP3    H124416   4.097   2.224   1.347
 8153TIP3    H224417   4.244   2.192   1.328
 8154TIP3   OH224418   4.397   4.210   2.558
 8154TIP3    H124419   4.450   4.144   2.601
 8154TIP3    H224420   4.427   4.210   2.467
 8155TIP3   OH224421   4.629   6.158   0.319
 8155TIP3    H124422   4.630   6.223   0.389
 8155TIP3    H224423   4.569   6.090   0.351
 8156TIP3   OH224424   0.746   2.281   0.531
 8156TIP3    H124425   0.778   2.265   0.442
 8156TIP3    H224426   0.652   2.262   0.526
 8157TIP3   OH224427   0.444   0.379   0.089
 8157TIP3    H124428   0.484   0.309   0.037
 8157TIP3    H224429   0.354   0.351   0.102
 8158TIP3   OH224430   6.679   3.120   0.981
 8158TIP3    H124431   6.750   3.138   0.920
 8158TIP3    H224432   6.603   3.104   0.925
 8159TIP3   OH224433   5.580   7.748   4.132
 8159TIP3    H124434   5.607   7.826   4.085
 8159TIP3    H224435   5.582   7.678   4.066
 8160TIP3   OH224436   2.476   3.012   4.869
 8160TIP3    H124437   2.558   2.964   4.880
 8160TIP3    H224438   2.481   3.082   4.934
 8161TIP3   OH224439   2.063   4.358   0.186
 8161TIP3    H124440   2.130   4.392   0.127
 8161TIP3    H224441   1.986   4.346   0.131
 8162TIP3   OH224442   0.841   0.767   0.006
 8162TIP3    H124443   0.769   0.704   0.007
 8162TIP3    H224444   0.834   0.814   0.089
 8163TIP3   OH224445   6.009   5.133   0.199
 8163TIP3    H124446   6.031   5.056   0.251
 8163TIP3    H224447   6.065   5.202   0.233
 8164TIP3   OH224448   7.599   7.438   2.487
 8164TIP3    H124449   7.529   7.400   2.540
 8164TIP3    H224450   7.602   7.384   2.408
 8165TIP3   OH224451   3.517   2.106   5.669
 8165TIP3    H124452   3.516   2.127   5.575
 8165TIP3    H224453   3.497   2.189   5.712
 8166TIP3   OH224454   7.616   4.305   4.944
 8166TIP3    H124455   7.547   4.359   4.983
 8166TIP3    H224456   7.647   4.249   5.015
 8167TIP3   OH224457   5.848   6.277   1.476
 8167TIP3    H124458   5.843   6.182   1.482
 8167TIP3    H224459   5.942   6.297   1.484
 8168TIP3   OH224460   6.206   3.101   4.592
 8168TIP3    H124461   6.202   3.154   4.512
 8168TIP3    H224462   6.275   3.141   4.644
 8169TIP3   OH224463   1.868   5.734   2.523
 8169TIP3    H124464   1.805   5.780   2.468
 8169TIP3    H224465   1.814   5.684   2.585
 8170TIP3   OH224466   3.685   2.918   1.146
 8170TIP3    H124467   3.663   2.931   1.054
 8170TIP3    H224468   3.713   2.827   1.151
 8171TIP3   OH224469   6.119   4.822   3.090
 8171TIP3    H124470   6.178   4.893   3.116
 8171TIP3    H224471   6.062   4.809   3.166
 8172TIP3   OH224472   3.494   1.394   4.345
 8172TIP3    H124473   3.418   1.400   4.403
 8172TIP3    H224474   3.510   1.300   4.336
 8173TIP3   OH224475   3.687   7.450   6.031
 8173TIP3    H124476   3.677   7.529   5.978
 8173TIP3    H224477   3.755   7.400   5.986
 8174TIP3   OH224478   5.664   4.203   1.045
 8174TIP3    H124479   5.671   4.109   1.032
 8174TIP3    H224480   5.724   4.241   0.981
 8175TIP3   OH224481   3.830   2.761   3.532
 8175TIP3    H124482   3.755   2.759   3.591
 8175TIP3    H224483   3.903   2.793   3.586
 8176TIP3   OH224484   0.022   5.414   3.811
 8176TIP3    H124485  -0.060   5.367   3.827
 8176TIP3    H224486   0.085   5.371   3.868
 8177TIP3   OH224487   0.311   5.276   0.375
 8177TIP3    H124488   0.318   5.182   0.392
 8177TIP3    H224489   0.389   5.314   0.417
 8178TIP3   OH224490   1.837   1.393   0.398
 8178TIP3    H124491   1.908   1.330   0.388
 8178TIP3    H224492   1.757   1.340   0.395
 8179TIP3   OH224493   4.717   3.041   5.685
 8179TIP3    H124494   4.792   2.988   5.711
 8179TIP3    H224495   4.668   2.986   5.625
 8180TIP3   OH224496   1.694   5.160   5.896
 8180TIP3    H124497   1.610   5.205   5.904
 8180TIP3    H224498   1.750   5.223   5.850
 8181TIP3   OH224499   4.474   0.241   4.569
 8181TIP3    H124500   4.426   0.195   4.638
 8181TIP3    H224501   4.566   0.219   4.586
 8182TIP3   OH224502   0.689   5.644   6.525
 8182TIP3    H124503   0.634   5.575   6.563
 8182TIP3    H224504   0.632   5.687   6.461
 8183TIP3   OH224505   2.273   3.642   4.211
 8183TIP3    H124506   2.363   3.610   4.206
 8183TIP3    H224507   2.221   3.571   4.173
 8184TIP3   OH224508   6.670   1.270   1.134
 8184TIP3    H124509   6.650   1.351   1.086
 8184TIP3    H224510   6.589   1.247   1.178
 8185TIP3   OH224511   5.791   3.990   2.156
 8185TIP3    H124512   5.753   4.010   2.242
 8185TIP3    H224513   5.882   3.966   2.176
 8186TIP3   OH224514   5.766   3.304   0.820
 8186TIP3    H124515   5.727   3.217   0.829
 8186TIP3    H224516   5.833   3.307   0.888
 8187TIP3   OH224517   7.300   4.056   1.383
 8187TIP3    H124518   7.325   4.013   1.302
 8187TIP3    H224519   7.206   4.073   1.373
 8188TIP3   OH224520   1.340   5.022   5.496
 8188TIP3    H124521   1.423   5.071   5.498
 8188TIP3    H224522   1.312   5.026   5.405
 8189TIP3   OH224523   3.614   1.661   5.467
 8189TIP3    H124524   3.588   1.657   5.559
 8189TIP3    H224525   3.689   1.721   5.467
 8190TIP3   OH224526   1.381   6.516   5.613
 8190TIP3    H124527   1.320   6.488   5.681
 8190TIP3    H224528   1.379   6.446   5.548
 8191TIP3   OH224529   4.121   7.327   3.733
 8191TIP3    H124530   4.193   7.284   3.778
 8191TIP3    H224531   4.068   7.255   3.697
 8192TIP3   OH224532   7.565   7.024   3.518
 8192TIP3    H124533   7.484   7.057   3.480
 8192TIP3    H224534   7.564   6.930   3.500
 8193TIP3   OH224535   2.327   7.564   5.871
 8193TIP3    H124536   2.368   7.490   5.826
 8193TIP3    H224537   2.400   7.620   5.897
 8194TIP3   OH224538   5.228   4.136   6.519
 8194TIP3    H124539   5.299   4.195   6.543
 8194TIP3    H224540   5.151   4.192   6.512
 8195TIP3   OH224541   6.240   2.670   4.825
 8195TIP3    H124542   6.335   2.680   4.810
 8195TIP3    H224543   6.206   2.760   4.820
 8196TIP3   OH224544   5.442   3.568   2.128
 8196TIP3    H124545   5.439   3.536   2.218
 8196TIP3    H224546   5.501   3.644   2.131
 8197TIP3   OH224547   6.762   0.750   5.690
 8197TIP3    H124548   6.746   0.759   5.596
 8197TIP3    H224549   6.684   0.704   5.723
 8198TIP3   OH224550   1.369   7.502   4.207
 8198TIP3    H124551   1.448   7.448   4.215
 8198TIP3    H224552   1.311   7.469   4.275
 8199TIP3   OH224553   7.517   3.375   5.943
 8199TIP3    H124554   7.524   3.463   5.980
 8199TIP3    H224555   7.582   3.374   5.872
 8200TIP3   OH224556   3.373   7.101   1.971
 8200TIP3    H124557   3.299   7.044   1.992
 8200TIP3    H224558   3.335   7.172   1.920
 8201TIP3   OH224559   1.958   1.053   6.508
 8201TIP3    H124560   2.026   0.985   6.518
 8201TIP3    H224561   1.910   1.051   6.591
 8202TIP3   OH224562   3.925   7.207   2.092
 8202TIP3    H124563   3.922   7.164   2.007
 8202TIP3    H224564   3.978   7.149   2.146
 8203TIP3   OH224565   2.598   3.203   4.146
 8203TIP3    H124566   2.684   3.237   4.173
 8203TIP3    H224567   2.617   3.148   4.071
 8204TIP3   OH224568   6.018   4.882   3.804
 8204TIP3    H124569   5.962   4.960   3.805
 8204TIP3    H224570   6.030   4.861   3.896
 8205TIP3   OH224571   3.874   1.776   4.490
 8205TIP3    H124572   3.849   1.771   4.398
 8205TIP3    H224573   3.806   1.727   4.536
 8206TIP3   OH224574   5.704   5.610   2.534
 8206TIP3    H124575   5.746   5.537   2.487
 8206TIP3    H224576   5.636   5.641   2.474
 8207TIP3   OH224577   1.749   5.131   2.769
 8207TIP3    H124578   1.750   5.109   2.676
 8207TIP3    H224579   1.757   5.047   2.814
 8208TIP3   OH224580   4.230   5.093   2.771
 8208TIP3    H124581   4.220   5.009   2.727
 8208TIP3    H224582   4.154   5.099   2.830
 8209TIP3   OH224583   2.060   4.992   3.705
 8209TIP3    H124584   2.070   5.085   3.689
 8209TIP3    H224585   1.966   4.980   3.718
 8210TIP3   OH224586   3.373   1.033   5.976
 8210TIP3    H124587   3.333   1.026   5.889
 8210TIP3    H224588   3.301   1.058   6.034
 8211TIP3   OH224589   4.663   5.302   5.474
 8211TIP3    H124590   4.572   5.300   5.503
 8211TIP3    H224591   4.705   5.229   5.520
 8212TIP3   OH224592   7.834   0.169   5.298
 8212TIP3    H124593   7.922   0.192   5.268
 8212TIP3    H224594   7.781   0.166   5.218
 8213TIP3   OH224595   5.846   1.229   5.565
 8213TIP3    H124596   5.793   1.210   5.643
 8213TIP3    H224597   5.839   1.324   5.554
 8214TIP3   OH224598   4.557   6.942   0.533
 8214TIP3    H124599   4.626   6.955   0.598
 8214TIP3    H224600   4.586   6.993   0.457
 8215TIP3   OH224601   1.815   7.026   1.953
 8215TIP3    H124602   1.889   6.988   1.906
 8215TIP3    H224603   1.817   6.985   2.039
 8216TIP3   OH224604   3.393   2.483   6.423
 8216TIP3    H124605   3.318   2.499   6.479
 8216TIP3    H224606   3.390   2.554   6.358
 8217TIP3   OH224607   1.700   5.621   4.264
 8217TIP3    H124608   1.760   5.681   4.308
 8217TIP3    H224609   1.754   5.545   4.242
 8218TIP3   OH224610   6.388   4.446   3.134
 8218TIP3    H124611   6.335   4.489   3.201
 8218TIP3    H224612   6.388   4.353   3.159
 8219TIP3   OH224613   4.965   1.621   1.854
 8219TIP3    H124614   5.014   1.595   1.776
 8219TIP3    H224615   4.965   1.717   1.851
 8220TIP3   OH224616   3.557   6.363   2.930
 8220TIP3    H124617   3.590   6.281   2.967
 8220TIP3    H224618   3.571   6.353   2.835
 8221TIP3   OH224619   2.339   5.305   4.841
 8221TIP3    H124620   2.333   5.213   4.865
 8221TIP3    H224621   2.274   5.317   4.772
 8222TIP3   OH224622   5.984   7.249   4.849
 8222TIP3    H124623   6.041   7.250   4.927
 8222TIP3    H224624   5.974   7.342   4.826
 8223TIP3   OH224625   7.944   7.565   5.371
 8223TIP3    H124626   7.883   7.543   5.441
 8223TIP3    H224627   7.994   7.484   5.356
 8224TIP3   OH224628   0.972   7.783   0.617
 8224TIP3    H124629   0.888   7.737   0.612
 8224TIP3    H224630   0.950   7.871   0.649
 8225TIP3   OH224631   1.923   6.566   2.768
 8225TIP3    H124632   1.896   6.604   2.684
 8225TIP3    H224633   1.962   6.639   2.815
 8226TIP3   OH224634   7.597   0.215   5.495
 8226TIP3    H124635   7.556   0.185   5.414
 8226TIP3    H224636   7.691   0.209   5.478
 8227TIP3   OH224637   7.156   5.857   3.531
 8227TIP3    H124638   7.210   5.792   3.486
 8227TIP3    H224639   7.183   5.850   3.623
 8228TIP3   OH224640   3.979   0.192   3.600
 8228TIP3    H124641   3.995   0.134   3.674
 8228TIP3    H224642   3.909   0.150   3.551
 8229TIP3   OH224643   1.826   0.478   2.038
 8229TIP3    H124644   1.806   0.404   1.981
 8229TIP3    H224645   1.794   0.451   2.124
 8230TIP3   OH224646   5.131   3.935   1.145
 8230TIP3    H124647   5.187   4.010   1.164
 8230TIP3    H224648   5.062   3.970   1.089
 8231TIP3   OH224649   7.726   6.683   2.872
 8231TIP3    H124650   7.661   6.693   2.942
 8231TIP3    H224651   7.684   6.722   2.795
 8232TIP3   OH224652   5.727   0.260   0.995
 8232TIP3    H124653   5.750   0.180   1.042
 8232TIP3    H224654   5.775   0.329   1.041
 8233TIP3   OH224655   3.440   1.826   1.892
 8233TIP3    H124656   3.364   1.882   1.910
 8233TIP3    H224657   3.426   1.795   1.802
 8234TIP3   OH224658   7.007   2.852   6.606
 8234TIP3    H124659   6.985   2.781   6.667
 8234TIP3    H224660   6.997   2.813   6.520
 8235TIP3   OH224661   2.814   5.618   0.026
 8235TIP3    H124662   2.870   5.634  -0.050
 8235TIP3    H224663   2.873   5.579   0.091
 8236TIP3   OH224664   7.407   0.716   4.605
 8236TIP3    H124665   7.332   0.720   4.664
 8236TIP3    H224666   7.425   0.622   4.594
 8237TIP3   OH224667   6.827   2.060   0.274
 8237TIP3    H124668   6.822   2.155   0.262
 8237TIP3    H224669   6.896   2.048   0.339
 8238TIP3   OH224670   4.432   6.705   1.469
 8238TIP3    H124671   4.434   6.675   1.560
 8238TIP3    H224672   4.341   6.731   1.455
 8239TIP3   OH224673   3.583   5.389   5.512
 8239TIP3    H124674   3.661   5.442   5.528
 8239TIP3    H224675   3.602   5.343   5.430
 8240TIP3   OH224676   4.294   4.311   1.439
 8240TIP3    H124677   4.338   4.257   1.505
 8240TIP3    H224678   4.347   4.300   1.360
 8241TIP3   OH224679   4.355   4.747   1.142
 8241TIP3    H124680   4.296   4.706   1.206
 8241TIP3    H224681   4.333   4.704   1.059
 8242TIP3   OH224682   0.186   3.588   1.955
 8242TIP3    H124683   0.236   3.507   1.970
 8242TIP3    H224684   0.238   3.638   1.892
 8243TIP3   OH224685   3.605   7.237   1.957
 8243TIP3    H124686   3.662   7.171   1.920
 8243TIP3    H224687   3.519   7.196   1.960
 8244TIP3   OH224688   0.523   6.194   3.763
 8244TIP3    H124689   0.457   6.143   3.809
 8244TIP3    H224690   0.589   6.215   3.830
 8245TIP3   OH224691   5.062   7.410   5.472
 8245TIP3    H124692   5.093   7.335   5.422
 8245TIP3    H224693   5.066   7.483   5.410
 8246TIP3   OH224694   2.708   6.992   5.792
 8246TIP3    H124695   2.789   7.035   5.819
 8246TIP3    H224696   2.725   6.961   5.703
 8247TIP3   OH224697   3.495   3.332   1.933
 8247TIP3    H124698   3.492   3.336   2.029
 8247TIP3    H224699   3.578   3.290   1.913
 8248TIP3   OH224700   5.267   7.344   4.424
 8248TIP3    H124701   5.251   7.319   4.515
 8248TIP3    H224702   5.347   7.297   4.400
 8249TIP3   OH224703   4.015   6.842   4.542
 8249TIP3    H124704   3.947   6.854   4.608
 8249TIP3    H224705   4.075   6.777   4.580
 8250TIP3   OH224706   7.060   7.619   4.082
 8250TIP3    H124707   7.085   7.711   4.079
 8250TIP3    H224708   7.085   7.584   3.997
 8251TIP3   OH224709   4.184   0.888   5.130
 8251TIP3    H124710   4.276   0.873   5.151
 8251TIP3    H224711   4.182   0.898   5.035
 8252TIP3   OH224712   2.918   4.469   0.263
 8252TIP3    H124713   3.013   4.479   0.252
 8252TIP3    H224714   2.882   4.487   0.177
 8253TIP3   OH224715   1.391   1.104   5.461
 8253TIP3    H124716   1.342   1.077   5.383
 8253TIP3    H224717   1.448   1.030   5.481
 8254TIP3   OH224718   0.855   4.355   5.152
 8254TIP3    H124719   0.914   4.301   5.099
 8254TIP3    H224720   0.776   4.365   5.099
 8255TIP3   OH224721   3.108   7.702   2.278
 8255TIP3    H124722   3.126   7.678   2.369
 8255TIP3    H224723   3.136   7.794   2.271
 8256TIP3   OH224724   7.495   4.487   3.270
 8256TIP3    H124725   7.572   4.544   3.276
 8256TIP3    H224726   7.474   4.466   3.360
 8257TIP3   OH224727   3.868   3.281   2.806
 8257TIP3    H124728   3.879   3.320   2.719
 8257TIP3    H224729   3.857   3.355   2.865
 8258TIP3   OH224730   0.551   0.915   2.740
 8258TIP3    H124731   0.506   0.987   2.694
 8258TIP3    H224732   0.481   0.865   2.780
 8259TIP3   OH224733   2.960   3.125   4.080
 8259TIP3    H124734   2.963   3.036   4.045
 8259TIP3    H224735   2.999   3.179   4.011
 8260TIP3   OH224736   2.828   0.770   6.722
 8260TIP3    H124737   2.798   0.820   6.646
 8260TIP3    H224738   2.763   0.701   6.733
 8261TIP3   OH224739   2.653   3.369   2.961
 8261TIP3    H124740   2.593   3.440   2.941
 8261TIP3    H224741   2.599   3.305   3.008
 8262TIP3   OH224742   8.107   3.713   1.878
 8262TIP3    H124743   8.144   3.625   1.886
 8262TIP3    H224744   8.064   3.713   1.793
 8263TIP3   OH224745   0.597   1.137   3.866
 8263TIP3    H124746   0.553   1.104   3.944
 8263TIP3    H224747   0.646   1.062   3.832
 8264TIP3   OH224748   7.023   0.103   5.181
 8264TIP3    H124749   7.057   0.124   5.268
 8264TIP3    H224750   6.929   0.123   5.187
 8265TIP3   OH224751   5.912   7.805   3.030
 8265TIP3    H124752   5.929   7.834   3.120
 8265TIP3    H224753   5.990   7.830   2.981
 8266TIP3   OH224754   7.206   2.171   4.944
 8266TIP3    H124755   7.158   2.089   4.937
 8266TIP3    H224756   7.238   2.189   4.855
 8267TIP3   OH224757   5.799   2.952   1.043
 8267TIP3    H124758   5.723   2.900   1.071
 8267TIP3    H224759   5.857   2.952   1.119
 8268TIP3   OH224760   3.199   6.649   1.165
 8268TIP3    H124761   3.170   6.712   1.098
 8268TIP3    H224762   3.149   6.570   1.146
 8269TIP3   OH224763   0.337   3.976   4.625
 8269TIP3    H124764   0.273   3.968   4.695
 8269TIP3    H224765   0.415   4.012   4.667
 8270TIP3   OH224766   8.082   5.135   5.008
 8270TIP3    H124767   8.092   5.145   5.103
 8270TIP3    H224768   8.018   5.203   4.984
 8271TIP3   OH224769   1.376   7.356   2.137
 8271TIP3    H124770   1.294   7.378   2.093
 8271TIP3    H224771   1.393   7.266   2.111
 8272TIP3   OH224772   1.664   5.859   5.897
 8272TIP3    H124773   1.695   5.942   5.859
 8272TIP3    H224774   1.623   5.813   5.823
 8273TIP3   OH224775   5.644   6.838   4.141
 8273TIP3    H124776   5.551   6.860   4.153
 8273TIP3    H224777   5.643   6.754   4.094
 8274TIP3   OH224778   2.218   0.912   4.771
 8274TIP3    H124779   2.292   0.854   4.754
 8274TIP3    H224780   2.250   0.972   4.839
 8275TIP3   OH224781   1.803   2.462   6.143
 8275TIP3    H124782   1.890   2.449   6.107
 8275TIP3    H224783   1.747   2.404   6.091
 8276TIP3   OH224784   4.387   3.017   2.851
 8276TIP3    H124785   4.439   2.937   2.862
 8276TIP3    H224786   4.317   3.009   2.915
 8277TIP3   OH224787   4.800   1.851   3.658
 8277TIP3    H124788   4.796   1.889   3.570
 8277TIP3    H224789   4.727   1.891   3.705
 8278TIP3   OH224790   2.536   5.874   2.888
 8278TIP3    H124791   2.490   5.792   2.902
 8278TIP3    H224792   2.615   5.850   2.840
 8279TIP3   OH224793   4.329   0.310   1.581
 8279TIP3    H124794   4.423   0.324   1.593
 8279TIP3    H224795   4.295   0.397   1.561
 8280TIP3   OH224796   1.460   5.719   4.133
 8280TIP3    H124797   1.475   5.814   4.134
 8280TIP3    H224798   1.519   5.685   4.199
 8281TIP3   OH224799   1.212   1.225   3.932
 8281TIP3    H124800   1.300   1.216   3.969
 8281TIP3    H224801   1.170   1.141   3.949
 8282TIP3   OH224802   4.466   5.549   4.485
 8282TIP3    H124803   4.460   5.593   4.400
 8282TIP3    H224804   4.484   5.458   4.464
 8283TIP3   OH224805   8.300   0.302   0.969
 8283TIP3    H124806   8.273   0.300   1.060
 8283TIP3    H224807   8.243   0.239   0.925
 8284TIP3   OH224808   6.098   0.235   6.162
 8284TIP3    H124809   6.134   0.303   6.220
 8284TIP3    H224810   6.125   0.262   6.074
 8285TIP3   OH224811   0.313   2.644   0.229
 8285TIP3    H124812   0.248   2.649   0.159
 8285TIP3    H224813   0.263   2.661   0.309
 8286TIP3   OH224814   0.981   2.248   3.587
 8286TIP3    H124815   1.038   2.216   3.517
 8286TIP3    H224816   0.951   2.169   3.632
 8287TIP3   OH224817   4.064   5.439   0.552
 8287TIP3    H124818   4.020   5.354   0.551
 8287TIP3    H224819   4.013   5.493   0.491
 8288TIP3   OH224820   7.899   7.482   4.997
 8288TIP3    H124821   7.853   7.436   5.067
 8288TIP3    H224822   7.857   7.568   4.992
 8289TIP3   OH224823   0.479   1.076   2.521
 8289TIP3    H124824   0.429   1.058   2.441
 8289TIP3    H224825   0.565   1.103   2.490
 8290TIP3   OH224826   3.652   5.384   4.339
 8290TIP3    H124827   3.690   5.452   4.395
 8290TIP3    H224828   3.598   5.432   4.276
 8291TIP3   OH224829   4.735   6.700   6.254
 8291TIP3    H124830   4.687   6.636   6.202
 8291TIP3    H224831   4.684   6.709   6.335
 8292TIP3   OH224832   0.943   3.239   2.419
 8292TIP3    H124833   0.988   3.310   2.465
 8292TIP3    H224834   0.913   3.180   2.488
 8293TIP3   OH224835   8.141   7.194   4.809
 8293TIP3    H124836   8.213   7.168   4.865
 8293TIP3    H224837   8.175   7.184   4.720
 8294TIP3   OH224838   7.791   6.776   4.916
 8294TIP3    H124839   7.710   6.774   4.864
 8294TIP3    H224840   7.860   6.794   4.853
 8295TIP3   OH224841   0.581   2.131   0.074
 8295TIP3    H124842   0.551   2.218   0.102
 8295TIP3    H224843   0.501   2.085   0.050
 8296TIP3   OH224844   4.342   0.611   4.318
 8296TIP3    H124845   4.308   0.613   4.228
 8296TIP3    H224846   4.335   0.520   4.344
 8297TIP3   OH224847   6.932   4.855   3.361
 8297TIP3    H124848   7.016   4.809   3.360
 8297TIP3    H224849   6.895   4.835   3.447
 8298TIP3   OH224850   2.980   0.470   6.393
 8298TIP3    H124851   3.052   0.499   6.449
 8298TIP3    H224852   2.935   0.551   6.369
 8299TIP3   OH224853   7.780   5.262   0.933
 8299TIP3    H124854   7.780   5.286   0.840
 8299TIP3    H224855   7.803   5.342   0.979
 8300TIP3   OH224856   5.618   7.057   5.563
 8300TIP3    H124857   5.641   7.041   5.472
 8300TIP3    H224858   5.598   7.151   5.567
 8301TIP3   OH224859   1.493   7.169   1.145
 8301TIP3    H124860   1.521   7.145   1.057
 8301TIP3    H224861   1.554   7.237   1.172
 8302TIP3   OH224862   3.182   5.877   3.816
 8302TIP3    H124863   3.177   5.810   3.747
 8302TIP3    H224864   3.091   5.897   3.837
 8303TIP3   OH224865   5.957   0.900   3.185
 8303TIP3    H124866   5.928   0.987   3.213
 8303TIP3    H224867   5.980   0.911   3.093
 8304TIP3   OH224868   0.920   2.017   5.671
 8304TIP3    H124869   0.947   2.019   5.579
 8304TIP3    H224870   0.980   2.078   5.714
 8305TIP3   OH224871   5.725   0.151   5.544
 8305TIP3    H124872   5.670   0.222   5.575
 8305TIP3    H224873   5.793   0.195   5.491
 8306TIP3   OH224874   6.074   7.067   1.035
 8306TIP3    H124875   6.042   7.146   1.077
 8306TIP3    H224876   6.034   6.995   1.083
 8307TIP3   OH224877   4.405   6.203   6.256
 8307TIP3    H124878   4.407   6.107   6.252
 8307TIP3    H224879   4.379   6.230   6.168
 8308TIP3   OH224880   6.399   0.919   4.471
 8308TIP3    H124881   6.374   0.879   4.387
 8308TIP3    H224882   6.452   0.995   4.446
 8309TIP3   OH224883   2.526   3.482   6.306
 8309TIP3    H124884   2.448   3.528   6.273
 8309TIP3    H224885   2.588   3.485   6.234
 8310TIP3   OH224886   5.402   4.092   0.092
 8310TIP3    H124887   5.492   4.066   0.069
 8310TIP3    H224888   5.364   4.121   0.009
 8311TIP3   OH224889   0.136   5.743   3.129
 8311TIP3    H124890   0.086   5.787   3.199
 8311TIP3    H224891   0.133   5.650   3.153
 8312TIP3   OH224892   2.456   5.434   2.618
 8312TIP3    H124893   2.495   5.450   2.704
 8312TIP3    H224894   2.380   5.493   2.615
 8313TIP3   OH224895   7.442   7.801   5.645
 8313TIP3    H124896   7.414   7.833   5.731
 8313TIP3    H224897   7.394   7.719   5.634
 8314TIP3   OH224898   8.207   7.590   4.097
 8314TIP3    H124899   8.259   7.540   4.159
 8314TIP3    H224900   8.202   7.535   4.019
 8315TIP3   OH224901   4.613   6.081   1.775
 8315TIP3    H124902   4.681   6.128   1.823
 8315TIP3    H224903   4.608   6.127   1.691
 8316TIP3   OH224904   7.578   1.712   3.388
 8316TIP3    H124905   7.602   1.775   3.456
 8316TIP3    H224906   7.633   1.635   3.407
 8317TIP3   OH224907   7.981   6.971   1.247
 8317TIP3    H124908   7.888   6.947   1.246
 8317TIP3    H224909   7.994   7.015   1.163
 8318TIP3   OH224910   6.373   6.700   6.288
 8318TIP3    H124911   6.384   6.605   6.282
 8318TIP3    H224912   6.343   6.716   6.377
 8319TIP3   OH224913   0.971   7.121   3.976
 8319TIP3    H124914   1.006   7.145   3.890
 8319TIP3    H224915   0.898   7.061   3.956
 8320TIP3   OH224916   2.347   4.659  -0.008
 8320TIP3    H124917   2.322   4.749   0.008
 8320TIP3    H224918   2.331   4.613   0.074
 8321TIP3   OH224919   3.381   0.102   1.907
 8321TIP3    H124920   3.443   0.151   1.960
 8321TIP3    H224921   3.361   0.161   1.834
 8322TIP3   OH224922   1.180   4.142   1.950
 8322TIP3    H124923   1.264   4.097   1.941
 8322TIP3    H224924   1.143   4.142   1.862
 8323TIP3   OH224925   4.605   3.062   2.010
 8323TIP3    H124926   4.577   3.120   2.081
 8323TIP3    H224927   4.576   3.106   1.930
 8324TIP3   OH224928   5.730   2.580   3.866
 8324TIP3    H124929   5.811   2.622   3.837
 8324TIP3    H224930   5.760   2.506   3.920
 8325TIP3   OH224931   1.358   7.183   5.877
 8325TIP3    H124932   1.436   7.177   5.821
 8325TIP3    H224933   1.387   7.151   5.962
 8326TIP3   OH224934   7.157   1.649   0.978
 8326TIP3    H124935   7.114   1.594   1.044
 8326TIP3    H224936   7.084   1.683   0.925
 8327TIP3   OH224937   4.946   2.275   5.972
 8327TIP3    H124938   4.885   2.307   5.905
 8327TIP3    H224939   4.947   2.344   6.038
 8328TIP3   OH224940   6.642   3.351   6.203
 8328TIP3    H124941   6.577   3.363   6.134
 8328TIP3    H224942   6.623   3.265   6.240
 8329TIP3   OH224943   3.913   5.102   3.435
 8329TIP3    H124944   3.826   5.140   3.447
 8329TIP3    H224945   3.972   5.177   3.437
 8330TIP3   OH224946   5.892   6.484   2.417
 8330TIP3    H124947   5.894   6.542   2.340
 8330TIP3    H224948   5.813   6.431   2.405
 8331TIP3   OH224949   5.297   5.104   1.481
 8331TIP3    H124950   5.383   5.091   1.441
 8331TIP3    H224951   5.315   5.115   1.574
 8332TIP3   OH224952   8.292   0.615   5.461
 8332TIP3    H124953   8.229   0.594   5.392
 8332TIP3    H224954   8.308   0.531   5.504
 8333TIP3   OH224955   0.113   5.053   5.717
 8333TIP3    H124956   0.075   5.137   5.691
 8333TIP3    H224957   0.197   5.075   5.756
 8334TIP3   OH224958   7.756   1.693   4.318
 8334TIP3    H124959   7.739   1.698   4.412
 8334TIP3    H224960   7.802   1.610   4.307
 8335TIP3   OH224961   6.539   1.855   6.388
 8335TIP3    H124962   6.527   1.894   6.302
 8335TIP3    H224963   6.470   1.788   6.394
 8336TIP3   OH224964   5.995   0.812   3.526
 8336TIP3    H124965   5.952   0.747   3.582
 8336TIP3    H224966   5.963   0.896   3.558
 8337TIP3   OH224967   5.669   7.545   1.534
 8337TIP3    H124968   5.696   7.563   1.444
 8337TIP3    H224969   5.744   7.500   1.573
 8338TIP3   OH224970   2.536   2.667   5.364
 8338TIP3    H124971   2.460   2.653   5.308
 8338TIP3    H224972   2.607   2.619   5.320
 8339TIP3   OH224973   7.009   0.040   0.738
 8339TIP3    H124974   7.015  -0.021   0.665
 8339TIP3    H224975   7.099   0.072   0.750
 8340TIP3   OH224976   2.939   7.114   1.155
 8340TIP3    H124977   3.014   7.133   1.212
 8340TIP3    H224978   2.964   7.033   1.110
 8341TIP3   OH224979   1.676   3.310   0.961
 8341TIP3    H124980   1.725   3.391   0.953
 8341TIP3    H224981   1.725   3.247   0.908
 8342TIP3   OH224982   5.789   7.270   5.389
 8342TIP3    H124983   5.795   7.365   5.380
 8342TIP3    H224984   5.869   7.245   5.435
 8343TIP3   OH224985   1.061   0.085   0.388
 8343TIP3    H124986   1.002   0.077   0.313
 8343TIP3    H224987   1.030   0.162   0.434
 8344TIP3   OH224988   1.053   5.047   0.153
 8344TIP3    H124989   1.082   4.974   0.207
 8344TIP3    H224990   1.057   5.123   0.210
 8345TIP3   OH224991   4.720   3.514   0.075
 8345TIP3    H124992   4.624   3.516   0.084
 8345TIP3    H224993   4.752   3.540   0.162
 8346TIP3   OH224994   1.968   2.595   1.295
 8346TIP3    H124995   1.988   2.673   1.346
 8346TIP3    H224996   2.050   2.572   1.251
 8347TIP3   OH224997   3.724   1.014   0.427
 8347TIP3    H124998   3.695   0.975   0.344
 8347TIP3    H224999   3.813   1.046   0.408
 8348TIP3   OH225000   4.777   1.471   5.549
 8348TIP3    H125001   4.689   1.482   5.511
 8348TIP3    H225002   4.821   1.555   5.532
 8349TIP3   OH225003   5.292   3.470   1.374
 8349TIP3    H125004   5.297   3.451   1.280
 8349TIP3    H225005   5.241   3.552   1.378
 8350TIP3   OH225006   7.940   7.780   0.272
 8350TIP3    H125007   7.873   7.844   0.295
 8350TIP3    H225008   7.975   7.811   0.189
 8351TIP3   OH225009   3.678   0.075   4.154
 8351TIP3    H125010   3.635   0.158   4.175
 8351TIP3    H225011   3.606   0.013   4.144
 8352TIP3   OH225012   7.923   7.404   1.147
 8352TIP3    H125013   7.925   7.388   1.241
 8352TIP3    H225014   7.867   7.481   1.137
 8353TIP3   OH225015   4.099   4.268   2.894
 8353TIP3    H125016   4.147   4.208   2.952
 8353TIP3    H225017   4.096   4.223   2.809
 8354TIP3   OH225018   0.909   2.284   2.751
 8354TIP3    H125019   0.843   2.344   2.787
 8354TIP3    H225020   0.951   2.334   2.681
 8355TIP3   OH225021   0.492   0.199   4.517
 8355TIP3    H125022   0.425   0.148   4.472
 8355TIP3    H225023   0.541   0.134   4.568
 8356TIP3   OH225024   4.173   5.046   2.246
 8356TIP3    H125025   4.144   4.955   2.244
 8356TIP3    H225026   4.112   5.090   2.306
 8357TIP3   OH225027   0.777   7.122   2.880
 8357TIP3    H125028   0.798   7.160   2.965
 8357TIP3    H225029   0.705   7.062   2.898
 8358TIP3   OH225030   5.748   1.502   6.478
 8358TIP3    H125031   5.826   1.482   6.425
 8358TIP3    H225032   5.736   1.425   6.533
 8359TIP3   OH225033   1.386   7.735   2.755
 8359TIP3    H125034   1.405   7.714   2.664
 8359TIP3    H225035   1.298   7.772   2.754
 8360TIP3   OH225036   2.476   0.171   6.637
 8360TIP3    H125037   2.493   0.144   6.547
 8360TIP3    H225038   2.424   0.101   6.674
 8361TIP3   OH225039   2.648   7.309   3.270
 8361TIP3    H125040   2.666   7.397   3.239
 8361TIP3    H225041   2.557   7.293   3.246
 8362TIP3   OH225042  -0.002   7.297   2.746
 8362TIP3    H125043   0.001   7.296   2.841
 8362TIP3    H225044   0.075   7.248   2.719
 8363TIP3   OH225045   2.476   3.676   0.256
 8363TIP3    H125046   2.514   3.732   0.188
 8363TIP3    H225047   2.404   3.728   0.293
 8364TIP3   OH225048   7.339   5.809   1.870
 8364TIP3    H125049   7.354   5.874   1.802
 8364TIP3    H225050   7.323   5.728   1.823
 8365TIP3   OH225051   0.959   5.398   5.681
 8365TIP3    H125052   1.032   5.423   5.738
 8365TIP3    H225053   0.899   5.352   5.739
 8366TIP3   OH225054   6.160   2.991   0.104
 8366TIP3    H125055   6.193   2.922   0.047
 8366TIP3    H225056   6.217   3.065   0.088
 8367TIP3   OH225057   6.812   5.389   4.788
 8367TIP3    H125058   6.802   5.314   4.847
 8367TIP3    H225059   6.764   5.460   4.831
 8368TIP3   OH225060   4.241   6.649   5.865
 8368TIP3    H125061   4.281   6.713   5.805
 8368TIP3    H225062   4.153   6.683   5.880
 8369TIP3   OH225063   1.222   2.258   4.265
 8369TIP3    H125064   1.175   2.272   4.183
 8369TIP3    H225065   1.293   2.323   4.263
 8370TIP3   OH225066   0.700   3.036   2.168
 8370TIP3    H125067   0.767   3.085   2.215
 8370TIP3    H225068   0.714   3.059   2.076
 8371TIP3   OH225069   4.500   4.066   4.638
 8371TIP3    H125070   4.438   4.137   4.621
 8371TIP3    H225071   4.506   4.061   4.733
 8372TIP3   OH225072   3.628   3.744   5.225
 8372TIP3    H125073   3.626   3.794   5.143
 8372TIP3    H225074   3.635   3.652   5.196
 8373TIP3   OH225075   3.135   6.769   0.356
 8373TIP3    H125076   3.226   6.746   0.377
 8373TIP3    H225077   3.143   6.845   0.297
 8374TIP3   OH225078   2.900   1.231   2.988
 8374TIP3    H125079   2.965   1.278   3.040
 8374TIP3    H225080   2.935   1.142   2.980
 8375TIP3   OH225081   6.744   3.702   2.857
 8375TIP3    H125082   6.713   3.729   2.944
 8375TIP3    H225083   6.713   3.611   2.848
 8376TIP3   OH225084   1.434   5.182   0.985
 8376TIP3    H125085   1.491   5.253   1.012
 8376TIP3    H225086   1.352   5.198   1.031
 8377TIP3   OH225087   1.295   4.891   1.644
 8377TIP3    H125088   1.209   4.885   1.601
 8377TIP3    H225089   1.296   4.978   1.684
 8378TIP3   OH225090   6.783   4.022   1.168
 8378TIP3    H125091   6.724   4.041   1.095
 8378TIP3    H225092   6.798   4.107   1.210
 8379TIP3   OH225093   5.906   3.684   3.703
 8379TIP3    H125094   5.881   3.602   3.744
 8379TIP3    H225095   6.002   3.683   3.703
 8380TIP3   OH225096   1.979   0.587   0.386
 8380TIP3    H125097   2.033   0.528   0.334
 8380TIP3    H225098   1.948   0.653   0.323
 8381TIP3   OH225099   3.429   3.543   6.691
 8381TIP3    H125100   3.484   3.576   6.762
 8381TIP3    H225101   3.468   3.579   6.611
 8382TIP3   OH225102   1.943   3.157   5.298
 8382TIP3    H125103   2.013   3.223   5.290
 8382TIP3    H225104   1.942   3.135   5.391
 8383TIP3   OH225105   2.698   6.323   3.345
 8383TIP3    H125106   2.736   6.244   3.383
 8383TIP3    H225107   2.730   6.394   3.401
 8384TIP3   OH225108   4.549   6.461   2.172
 8384TIP3    H125109   4.634   6.432   2.207
 8384TIP3    H225110   4.491   6.386   2.186
 8385TIP3   OH225111   3.515   6.813   4.803
 8385TIP3    H125112   3.449   6.765   4.853
 8385TIP3    H225113   3.569   6.745   4.762
 8386TIP3   OH225114   5.523   0.529   3.216
 8386TIP3    H125115   5.614   0.503   3.204
 8386TIP3    H225116   5.527   0.618   3.252
 8387TIP3   OH225117   3.927   1.033   5.064
 8387TIP3    H125118   4.009   1.007   5.106
 8387TIP3    H225119   3.931   0.993   4.977
 8388TIP3   OH225120   1.122   7.420   3.633
 8388TIP3    H125121   1.063   7.403   3.560
 8388TIP3    H225122   1.195   7.469   3.595
 8389TIP3   OH225123   5.442   4.698   2.984
 8389TIP3    H125124   5.367   4.716   3.040
 8389TIP3    H225125   5.518   4.704   3.043
 8390TIP3   OH225126   5.642   3.064   0.837
 8390TIP3    H125127   5.566   3.048   0.893
 8390TIP3    H225128   5.714   3.016   0.879
 8391TIP3   OH225129   7.102   4.976   2.933
 8391TIP3    H125130   7.076   4.892   2.894
 8391TIP3    H225131   7.109   4.957   3.027
 8392TIP3   OH225132   6.940   6.755   5.844
 8392TIP3    H125133   6.896   6.794   5.920
 8392TIP3    H225134   6.948   6.662   5.866
 8393TIP3   OH225135   4.029   1.411   6.470
 8393TIP3    H125136   4.090   1.465   6.420
 8393TIP3    H225137   4.061   1.416   6.560
 8394TIP3   OH225138   3.347   7.467   4.559
 8394TIP3    H125139   3.354   7.405   4.632
 8394TIP3    H225140   3.323   7.550   4.600
 8395TIP3   OH225141   6.665   3.327   3.733
 8395TIP3    H125142   6.711   3.384   3.671
 8395TIP3    H225143   6.679   3.369   3.818
 8396TIP3   OH225144   3.053   6.449   1.056
 8396TIP3    H125145   3.060   6.354   1.048
 8396TIP3    H225146   3.045   6.480   0.965
 8397TIP3   OH225147   5.761   3.804   6.190
 8397TIP3    H125148   5.722   3.858   6.122
 8397TIP3    H225149   5.795   3.727   6.145
 8398TIP3   OH225150   4.616   5.852   4.112
 8398TIP3    H125151   4.688   5.856   4.050
 8398TIP3    H225152   4.538   5.870   4.060
 8399TIP3   OH225153   5.981   2.588   0.309
 8399TIP3    H125154   5.979   2.518   0.243
 8399TIP3    H225155   5.977   2.669   0.258
 8400TIP3   OH225156   5.992   6.631   4.967
 8400TIP3    H125157   5.914   6.668   4.926
 8400TIP3    H225158   6.037   6.706   5.005
 8401TIP3   OH225159   6.063   5.760   4.090
 8401TIP3    H125160   6.135   5.720   4.138
 8401TIP3    H225161   6.075   5.731   3.999
 8402TIP3   OH225162   2.123   1.895   2.159
 8402TIP3    H125163   2.136   1.833   2.087
 8402TIP3    H225164   2.030   1.920   2.153
 8403TIP3   OH225165   3.257   1.507   1.764
 8403TIP3    H125166   3.331   1.470   1.812
 8403TIP3    H225167   3.180   1.470   1.807
 8404TIP3   OH225168   0.268   4.993   0.477
 8404TIP3    H125169   0.175   5.015   0.476
 8404TIP3    H225170   0.273   4.906   0.437
 8405TIP3   OH225171   5.700   2.267   4.622
 8405TIP3    H125172   5.650   2.186   4.633
 8405TIP3    H225173   5.787   2.246   4.655
 8406TIP3   OH225174   1.030   5.681   2.835
 8406TIP3    H125175   1.108   5.652   2.883
 8406TIP3    H225176   0.964   5.614   2.855
 8407TIP3   OH225177   0.389   6.374   6.031
 8407TIP3    H125178   0.343   6.355   6.113
 8407TIP3    H225179   0.330   6.431   5.982
 8408TIP3   OH225180   8.050   1.882   4.345
 8408TIP3    H125181   8.050   1.944   4.273
 8408TIP3    H225182   7.965   1.837   4.338
 8409TIP3   OH225183   2.866   1.781   2.240
 8409TIP3    H125184   2.772   1.795   2.248
 8409TIP3    H225185   2.877   1.687   2.258
 8410TIP3   OH225186   0.933   7.130   1.641
 8410TIP3    H125187   0.850   7.176   1.628
 8410TIP3    H225188   0.950   7.087   1.557
 8411TIP3   OH225189   8.256   2.567   4.065
 8411TIP3    H125190   8.328   2.524   4.111
 8411TIP3    H225191   8.289   2.655   4.047
 8412TIP3   OH225192   8.023   3.265   1.282
 8412TIP3    H125193   8.043   3.230   1.195
 8412TIP3    H225194   8.082   3.216   1.341
 8413TIP3   OH225195   0.937   7.020   1.154
 8413TIP3    H125196   0.990   7.063   1.221
 8413TIP3    H225197   0.851   7.009   1.194
 8414TIP3   OH225198   4.411   7.422   6.098
 8414TIP3    H125199   4.475   7.355   6.073
 8414TIP3    H225200   4.394   7.471   6.018
 8415TIP3   OH225201   3.711   4.839   5.620
 8415TIP3    H125202   3.738   4.825   5.711
 8415TIP3    H225203   3.622   4.805   5.615
 8416TIP3   OH225204   0.220   4.760   2.719
 8416TIP3    H125205   0.189   4.746   2.629
 8416TIP3    H225206   0.315   4.762   2.711
 8417TIP3   OH225207   4.671   6.038   3.191
 8417TIP3    H125208   4.750   6.081   3.160
 8417TIP3    H225209   4.630   6.002   3.113
 8418TIP3   OH225210   1.878   4.833   6.121
 8418TIP3    H125211   1.818   4.828   6.047
 8418TIP3    H225212   1.963   4.853   6.082
 8419TIP3   OH225213   2.220   5.255   1.753
 8419TIP3    H125214   2.229   5.169   1.793
 8419TIP3    H225215   2.248   5.243   1.662
 8420TIP3   OH225216   2.102   1.072   1.293
 8420TIP3    H125217   2.035   1.113   1.346
 8420TIP3    H225218   2.171   1.138   1.285
 8421TIP3   OH225219   2.902   0.150   2.882
 8421TIP3    H125220   2.880   0.118   2.794
 8421TIP3    H225221   2.889   0.244   2.877
 8422TIP3   OH225222   6.356   4.132   4.040
 8422TIP3    H125223   6.431   4.164   4.090
 8422TIP3    H225224   6.281   4.144   4.098
 8423TIP3   OH225225   3.289   2.121   4.527
 8423TIP3    H125226   3.211   2.106   4.474
 8423TIP3    H225227   3.322   2.033   4.546
 8424TIP3   OH225228   0.221   7.747   5.206
 8424TIP3    H125229   0.189   7.783   5.289
 8424TIP3    H225230   0.315   7.738   5.219
 8425TIP3   OH225231   1.933   5.984   1.076
 8425TIP3    H125232   1.861   5.929   1.045
 8425TIP3    H225233   1.932   6.060   1.017
 8426TIP3   OH225234   0.372   7.400   2.427
 8426TIP3    H125235   0.363   7.313   2.387
 8426TIP3    H225236   0.451   7.394   2.479
 8427TIP3   OH225237   4.351   5.316   2.666
 8427TIP3    H125238   4.399   5.388   2.707
 8427TIP3    H225239   4.337   5.253   2.737
 8428TIP3   OH225240   5.067   4.917   6.056
 8428TIP3    H125241   5.066   5.002   6.012
 8428TIP3    H225242   5.141   4.922   6.117
 8429TIP3   OH225243   5.361   6.638   0.487
 8429TIP3    H125244   5.276   6.679   0.472
 8429TIP3    H225245   5.348   6.585   0.566
 8430TIP3   OH225246   7.419   5.661   4.224
 8430TIP3    H125247   7.326   5.674   4.202
 8430TIP3    H225248   7.417   5.596   4.295
 8431TIP3   OH225249   8.246   4.417   6.598
 8431TIP3    H125250   8.178   4.351   6.612
 8431TIP3    H225251   8.293   4.422   6.681
 8432TIP3   OH225252   5.057   3.411   0.168
 8432TIP3    H125253   5.112   3.489   0.167
 8432TIP3    H225254   5.049   3.386   0.076
 8433TIP3   OH225255   3.734   5.571   3.877
 8433TIP3    H125256   3.763   5.488   3.915
 8433TIP3    H225257   3.773   5.572   3.790
 8434TIP3   OH225258   2.122   0.103   3.716
 8434TIP3    H125259   2.180   0.179   3.709
 8434TIP3    H225260   2.181   0.029   3.729
 8435TIP3   OH225261   7.156   3.302   1.830
 8435TIP3    H125262   7.199   3.380   1.796
 8435TIP3    H225263   7.070   3.333   1.860
 8436TIP3   OH225264   6.744   2.258   4.681
 8436TIP3    H125265   6.749   2.179   4.735
 8436TIP3    H225266   6.656   2.257   4.645
 8437TIP3   OH225267   5.609   5.289   2.418
 8437TIP3    H125268   5.668   5.346   2.370
 8437TIP3    H225269   5.665   5.238   2.475
 8438TIP3   OH225270   4.925   0.209   5.769
 8438TIP3    H125271   4.940   0.117   5.789
 8438TIP3    H225272   5.007   0.252   5.792
 8439TIP3   OH225273   1.803   3.578   4.039
 8439TIP3    H125274   1.756   3.495   4.038
 8439TIP3    H225275   1.849   3.580   4.123
 8440TIP3   OH225276   6.217   6.553   6.611
 8440TIP3    H125277   6.240   6.579   6.700
 8440TIP3    H225278   6.134   6.507   6.620
 8441TIP3   OH225279   0.592   2.492   1.426
 8441TIP3    H125280   0.601   2.399   1.406
 8441TIP3    H225281   0.513   2.518   1.379
 8442TIP3   OH225282   8.098   5.750   1.766
 8442TIP3    H125283   8.041   5.812   1.812
 8442TIP3    H225284   8.180   5.798   1.753
 8443TIP3   OH225285   5.121   0.795   0.846
 8443TIP3    H125286   5.159   0.846   0.918
 8443TIP3    H225287   5.185   0.727   0.828
 8444TIP3   OH225288   2.509   1.399   1.070
 8444TIP3    H125289   2.584   1.409   1.128
 8444TIP3    H225290   2.546   1.390   0.982
 8445TIP3   OH225291   3.067   4.587   5.758
 8445TIP3    H125292   3.072   4.681   5.771
 8445TIP3    H225293   3.153   4.563   5.722
 8446TIP3   OH225294   4.979   5.909   5.790
 8446TIP3    H125295   4.884   5.894   5.796
 8446TIP3    H225296   5.017   5.849   5.854
 8447TIP3   OH225297   2.303   0.373   4.161
 8447TIP3    H125298   2.383   0.355   4.112
 8447TIP3    H225299   2.255   0.436   4.107
 8448TIP3   OH225300   0.213   2.479   6.647
 8448TIP3    H125301   0.262   2.561   6.634
 8448TIP3    H225302   0.130   2.507   6.685
 8449TIP3   OH225303   8.112   3.372   3.364
 8449TIP3    H125304   8.129   3.428   3.289
 8449TIP3    H225305   8.178   3.303   3.359
 8450TIP3   OH225306   5.753   6.332   3.894
 8450TIP3    H125307   5.820   6.389   3.933
 8450TIP3    H225308   5.765   6.342   3.799
 8451TIP3   OH225309   4.892   6.886   6.486
 8451TIP3    H125310   4.926   6.957   6.540
 8451TIP3    H225311   4.936   6.896   6.402
 8452TIP3   OH225312   1.048   4.551   3.390
 8452TIP3    H125313   1.113   4.482   3.375
 8452TIP3    H225314   1.094   4.615   3.445
 8453TIP3   OH225315   8.055   5.536   4.932
 8453TIP3    H125316   8.012   5.508   4.851
 8453TIP3    H225317   8.136   5.579   4.902
 8454TIP3   OH225318   3.464   4.014   2.459
 8454TIP3    H125319   3.514   3.945   2.415
 8454TIP3    H225320   3.374   4.002   2.427
 8455TIP3   OH225321   0.864   2.324   1.127
 8455TIP3    H125322   0.947   2.373   1.125
 8455TIP3    H225323   0.888   2.237   1.159
 8456TIP3   OH225324   0.120   2.607   0.439
 8456TIP3    H125325   0.186   2.597   0.508
 8456TIP3    H225326   0.075   2.522   0.437
 8457TIP3   OH225327   0.509   2.992   5.587
 8457TIP3    H125328   0.530   2.963   5.498
 8457TIP3    H225329   0.580   3.051   5.610
 8458TIP3   OH225330   6.635   1.151   0.355
 8458TIP3    H125331   6.631   1.246   0.348
 8458TIP3    H225332   6.719   1.127   0.316
 8459TIP3   OH225333   4.070   2.474   0.709
 8459TIP3    H125334   4.012   2.459   0.784
 8459TIP3    H225335   4.136   2.406   0.715
 8460TIP3   OH225336   3.816   7.327   2.615
 8460TIP3    H125337   3.764   7.299   2.540
 8460TIP3    H225338   3.893   7.270   2.614
 8461TIP3   OH225339   8.194   4.900   0.069
 8461TIP3    H125340   8.105   4.866   0.068
 8461TIP3    H225341   8.183   4.994   0.084
 8462TIP3   OH225342   5.852   6.984   6.731
 8462TIP3    H125343   5.825   6.934   6.808
 8462TIP3    H225344   5.778   7.041   6.712
 8463TIP3   OH225345   1.687   5.874   3.792
 8463TIP3    H125346   1.716   5.962   3.765
 8463TIP3    H225347   1.759   5.841   3.845
 8464TIP3   OH225348   7.748   0.586   5.824
 8464TIP3    H125349   7.766   0.502   5.865
 8464TIP3    H225350   7.732   0.565   5.732
 8465TIP3   OH225351   3.894   6.611   5.378
 8465TIP3    H125352   3.822   6.556   5.409
 8465TIP3    H225353   3.852   6.691   5.347
 8466TIP3   OH225354   6.550   1.641   5.374
 8466TIP3    H125355   6.478   1.681   5.422
 8466TIP3    H225356   6.510   1.574   5.320
 8467TIP3   OH225357   6.291   6.909   4.914
 8467TIP3    H125358   6.284   6.833   4.857
 8467TIP3    H225359   6.385   6.916   4.933
 8468TIP3   OH225360   5.813   6.589   0.766
 8468TIP3    H125361   5.752   6.659   0.792
 8468TIP3    H225362   5.892   6.608   0.816
 8469TIP3   OH225363   5.233   7.020   6.116
 8469TIP3    H125364   5.143   7.003   6.088
 8469TIP3    H225365   5.228   7.025   6.211
 8470TIP3   OH225366   3.698   1.991   4.077
 8470TIP3    H125367   3.726   1.981   3.986
 8470TIP3    H225368   3.701   2.085   4.093
 8471TIP3   OH225369   4.255   5.408   6.353
 8471TIP3    H125370   4.223   5.494   6.325
 8471TIP3    H225371   4.298   5.372   6.275
 8472TIP3   OH225372   8.215   5.485   1.411
 8472TIP3    H125373   8.240   5.439   1.331
 8472TIP3    H225374   8.131   5.525   1.390
 8473TIP3   OH225375   5.952   3.964   0.381
 8473TIP3    H125376   5.897   4.038   0.406
 8473TIP3    H225377   5.956   3.968   0.286
 8474TIP3   OH225378   4.927   3.077   6.158
 8474TIP3    H125379   5.012   3.060   6.116
 8474TIP3    H225380   4.876   3.121   6.090
 8475TIP3   OH225381   0.902   3.616   1.063
 8475TIP3    H125382   0.824   3.672   1.054
 8475TIP3    H225383   0.869   3.535   1.100
 8476TIP3   OH225384   7.718   2.616   2.679
 8476TIP3    H125385   7.730   2.628   2.585
 8476TIP3    H225386   7.758   2.531   2.697
 8477TIP3   OH225387   5.052   5.287   0.298
 8477TIP3    H125388   5.026   5.311   0.387
 8477TIP3    H225389   5.110   5.358   0.271
 8478TIP3   OH225390   3.895   7.577   0.624
 8478TIP3    H125391   3.845   7.507   0.664
 8478TIP3    H225392   3.905   7.551   0.532
 8479TIP3   OH225393   6.605   4.290   5.940
 8479TIP3    H125394   6.575   4.335   5.862
 8479TIP3    H225395   6.691   4.256   5.916
 8480TIP3   OH225396   1.910   0.741   3.908
 8480TIP3    H125397   1.949   0.828   3.919
 8480TIP3    H225398   1.933   0.715   3.819
 8481TIP3   OH225399   4.452   3.887   0.372
 8481TIP3    H125400   4.408   3.970   0.358
 8481TIP3    H225401   4.545   3.909   0.372
 8482TIP3   OH225402   8.159   6.120   3.304
 8482TIP3    H125403   8.091   6.083   3.248
 8482TIP3    H225404   8.127   6.106   3.394
 8483TIP3   OH225405   0.592   7.489   5.734
 8483TIP3    H125406   0.634   7.545   5.799
 8483TIP3    H225407   0.521   7.543   5.698
 8484TIP3   OH225408   7.350   1.546   3.471
 8484TIP3    H125409   7.272   1.569   3.419
 8484TIP3    H225410   7.421   1.595   3.431
 8485TIP3   OH225411   0.662   7.498   4.255
 8485TIP3    H125412   0.635   7.583   4.220
 8485TIP3    H225413   0.651   7.506   4.350
 8486TIP3   OH225414   7.377   4.383   5.411
 8486TIP3    H125415   7.388   4.469   5.370
 8486TIP3    H225416   7.373   4.401   5.505
 8487TIP3   OH225417   3.292   6.570   4.125
 8487TIP3    H125418   3.314   6.591   4.035
 8487TIP3    H225419   3.373   6.534   4.162
 8488TIP3   OH225420   6.253   2.026   3.936
 8488TIP3    H125421   6.216   2.098   3.988
 8488TIP3    H225422   6.330   2.064   3.894
 8489TIP3   OH225423   0.469   6.063   2.287
 8489TIP3    H125424   0.486   6.002   2.360
 8489TIP3    H225425   0.457   6.006   2.211
 8490TIP3   OH225426   1.198   6.926   3.466
 8490TIP3    H125427   1.202   6.832   3.485
 8490TIP3    H225428   1.259   6.965   3.528
 8491TIP3   OH225429   2.533   4.968   6.010
 8491TIP3    H125430   2.613   4.920   5.991
 8491TIP3    H225431   2.554   5.059   5.989
 8492TIP3   OH225432   6.463   7.714   3.306
 8492TIP3    H125433   6.430   7.770   3.376
 8492TIP3    H225434   6.391   7.709   3.243
 8493TIP3   OH225435   5.418   6.319   1.680
 8493TIP3    H125436   5.447   6.374   1.753
 8493TIP3    H225437   5.323   6.324   1.682
 8494TIP3   OH225438   0.110   6.312   3.914
 8494TIP3    H125439   0.091   6.359   3.833
 8494TIP3    H225440   0.133   6.381   3.977
 8495TIP3   OH225441   3.622   7.514   2.938
 8495TIP3    H125442   3.584   7.572   3.005
 8495TIP3    H225443   3.595   7.426   2.964
 8496TIP3   OH225444   5.517   5.088   2.702
 8496TIP3    H125445   5.498   4.998   2.676
 8496TIP3    H225446   5.533   5.084   2.796
 8497TIP3   OH225447   7.546   7.549   3.270
 8497TIP3    H125448   7.622   7.581   3.222
 8497TIP3    H225449   7.581   7.522   3.355
 8498TIP3   OH225450   7.056   5.662   4.955
 8498TIP3    H125451   7.021   5.577   4.984
 8498TIP3    H225452   7.028   5.724   5.022
 8499TIP3   OH225453   4.663   5.287   1.729
 8499TIP3    H125454   4.579   5.248   1.707
 8499TIP3    H225455   4.717   5.214   1.760
 8500TIP3   OH225456   8.238   4.777   2.848
 8500TIP3    H125457   8.244   4.682   2.839
 8500TIP3    H225458   8.327   4.805   2.870
 8501TIP3   OH225459   5.977   4.250   6.684
 8501TIP3    H125460   5.973   4.236   6.590
 8501TIP3    H225461   6.020   4.171   6.718
 8502TIP3   OH225462   4.899   0.317   1.067
 8502TIP3    H125463   4.839   0.343   0.998
 8502TIP3    H225464   4.963   0.388   1.073
 8503TIP3   OH225465   3.628   5.821   5.462
 8503TIP3    H125466   3.630   5.838   5.557
 8503TIP3    H225467   3.657   5.731   5.453
 8504TIP3   OH225468   2.495   6.361   6.629
 8504TIP3    H125469   2.459   6.333   6.713
 8504TIP3    H225470   2.440   6.317   6.564
 8505TIP3   OH225471   0.871   3.765   6.638
 8505TIP3    H125472   0.883   3.859   6.650
 8505TIP3    H225473   0.911   3.726   6.716
 8506TIP3   OH225474   7.600   1.304   1.006
 8506TIP3    H125475   7.655   1.261   1.072
 8506TIP3    H225476   7.555   1.233   0.962
 8507TIP3   OH225477   2.637   1.228   3.454
 8507TIP3    H125478   2.585   1.159   3.494
 8507TIP3    H225479   2.632   1.211   3.360
 8508TIP3   OH225480   5.334   1.706   6.248
 8508TIP3    H125481   5.312   1.683   6.157
 8508TIP3    H225482   5.294   1.792   6.261
 8509TIP3   OH225483   5.644   5.420   0.926
 8509TIP3    H125484   5.711   5.480   0.893
 8509TIP3    H225485   5.689   5.336   0.934
 8510TIP3   OH225486   1.112   6.239   1.088
 8510TIP3    H125487   1.164   6.318   1.082
 8510TIP3    H225488   1.040   6.252   1.025
 8511TIP3   OH225489   6.457   5.722   1.862
 8511TIP3    H125490   6.434   5.695   1.773
 8511TIP3    H225491   6.441   5.817   1.863
 8512TIP3   OH225492   8.031   2.842   5.907
 8512TIP3    H125493   7.957   2.797   5.947
 8512TIP3    H225494   7.996   2.879   5.826
 8513TIP3   OH225495   4.766   0.228   2.255
 8513TIP3    H125496   4.718   0.256   2.333
 8513TIP3    H225497   4.817   0.152   2.284
 8514TIP3   OH225498   5.932   2.737   1.971
 8514TIP3    H125499   5.890   2.685   2.039
 8514TIP3    H225500   6.018   2.697   1.959
 8515TIP3   OH225501   0.586   2.987   1.369
 8515TIP3    H125502   0.549   2.902   1.391
 8515TIP3    H225503   0.650   3.004   1.438
 8516TIP3   OH225504   1.475   1.518   2.752
 8516TIP3    H125505   1.447   1.469   2.674
 8516TIP3    H225506   1.454   1.609   2.732
 8517TIP3   OH225507   1.560   2.983   5.874
 8517TIP3    H125508   1.591   2.893   5.874
 8517TIP3    H225509   1.536   3.000   5.783
 8518TIP3   OH225510   3.826   6.706   6.200
 8518TIP3    H125511   3.882   6.726   6.125
 8518TIP3    H225512   3.738   6.707   6.164
 8519TIP3   OH225513   5.238   0.919   4.567
 8519TIP3    H125514   5.269   0.978   4.637
 8519TIP3    H225515   5.225   0.835   4.610
 8520TIP3   OH225516   7.757   0.619   2.909
 8520TIP3    H125517   7.805   0.581   2.983
 8520TIP3    H225518   7.801   0.583   2.831
 8521TIP3   OH225519   6.244   1.221   6.265
 8521TIP3    H125520   6.228   1.308   6.229
 8521TIP3    H225521   6.321   1.232   6.321
 8522TIP3   OH225522   2.897   6.593   3.186
 8522TIP3    H125523   2.927   6.510   3.149
 8522TIP3    H225524   2.947   6.660   3.139
 8523TIP3   OH225525   2.578   3.106   0.719
 8523TIP3    H125526   2.663   3.075   0.689
 8523TIP3    H225527   2.530   3.127   0.639
 8524TIP3   OH225528   3.013   1.402   2.189
 8524TIP3    H125529   3.001   1.333   2.254
 8524TIP3    H225530   3.106   1.424   2.195
 8525TIP3   OH225531   5.946   4.168   5.431
 8525TIP3    H125532   6.005   4.238   5.459
 8525TIP3    H225533   5.913   4.130   5.513
 8526TIP3   OH225534   6.066   3.971   2.462
 8526TIP3    H125535   6.061   4.044   2.400
 8526TIP3    H225536   6.097   4.012   2.544
 8527TIP3   OH225537   6.461   5.424   3.529
 8527TIP3    H125538   6.473   5.401   3.621
 8527TIP3    H225539   6.536   5.478   3.507
 8528TIP3   OH225540   7.851   3.326   6.720
 8528TIP3    H125541   7.904   3.281   6.655
 8528TIP3    H225542   7.911   3.386   6.764
 8529TIP3   OH225543   2.387   5.034   5.411
 8529TIP3    H125544   2.428   5.049   5.325
 8529TIP3    H225545   2.297   5.067   5.400
 8530TIP3   OH225546   3.069   7.493   1.872
 8530TIP3    H125547   2.982   7.532   1.881
 8530TIP3    H225548   3.129   7.566   1.889
 8531TIP3   OH225549   3.500   6.351   1.303
 8531TIP3    H125550   3.588   6.323   1.281
 8531TIP3    H225551   3.462   6.379   1.220
 8532TIP3   OH225552   7.181   6.341   2.022
 8532TIP3    H125553   7.176   6.274   1.953
 8532TIP3    H225554   7.158   6.293   2.102
 8533TIP3   OH225555   0.331   3.362   0.927
 8533TIP3    H125556   0.271   3.335   0.996
 8533TIP3    H225557   0.276   3.369   0.849
 8534TIP3   OH225558   5.221   1.999   3.497
 8534TIP3    H125559   5.300   2.008   3.549
 8534TIP3    H225560   5.196   1.907   3.507
 8535TIP3   OH225561   2.044   5.380   4.946
 8535TIP3    H125562   1.973   5.350   4.889
 8535TIP3    H225563   2.091   5.445   4.894
 8536TIP3   OH225564   6.153   7.821   4.642
 8536TIP3    H125565   6.202   7.780   4.713
 8536TIP3    H225566   6.111   7.748   4.596
 8537TIP3   OH225567   6.723   3.946   4.421
 8537TIP3    H125568   6.727   3.853   4.399
 8537TIP3    H225569   6.795   3.959   4.483
 8538TIP3   OH225570   2.881   4.863   4.497
 8538TIP3    H125571   2.962   4.816   4.513
 8538TIP3    H225572   2.812   4.804   4.526
 8539TIP3   OH225573   2.573   2.501   1.884
 8539TIP3    H125574   2.662   2.471   1.866
 8539TIP3    H225575   2.520   2.459   1.816
 8540TIP3   OH225576   1.429   2.855   5.610
 8540TIP3    H125577   1.427   2.826   5.701
 8540TIP3    H225578   1.356   2.917   5.604
 8541TIP3   OH225579   6.642   2.571   0.431
 8541TIP3    H125580   6.613   2.662   0.444
 8541TIP3    H225581   6.730   2.568   0.469
 8542TIP3   OH225582   7.662   6.786   2.622
 8542TIP3    H125583   7.726   6.853   2.645
 8542TIP3    H225584   7.598   6.832   2.569
 8543TIP3   OH225585   3.755   1.621   0.796
 8543TIP3    H125586   3.747   1.697   0.739
 8543TIP3    H225587   3.716   1.649   0.879
 8544TIP3   OH225588   8.222   2.065   4.843
 8544TIP3    H125589   8.287   2.072   4.772
 8544TIP3    H225590   8.188   1.976   4.836
 8545TIP3   OH225591   2.721   3.500   3.937
 8545TIP3    H125592   2.791   3.521   4.000
 8545TIP3    H225593   2.690   3.585   3.906
 8546TIP3   OH225594   0.692   2.438   2.845
 8546TIP3    H125595   0.673   2.498   2.774
 8546TIP3    H225596   0.607   2.423   2.887
 8547TIP3   OH225597   3.190   4.458   4.096
 8547TIP3    H125598   3.252   4.525   4.126
 8547TIP3    H225599   3.117   4.508   4.060
 8548TIP3   OH225600   0.749   3.400   2.608
 8548TIP3    H125601   0.836   3.418   2.573
 8548TIP3    H225602   0.757   3.416   2.702
 8549TIP3   OH225603   2.728   1.451   3.054
 8549TIP3    H125604   2.639   1.424   3.076
 8549TIP3    H225605   2.764   1.376   3.005
 8550TIP3   OH225606   5.740   2.821   4.102
 8550TIP3    H125607   5.710   2.864   4.021
 8550TIP3    H225608   5.764   2.894   4.160
 8551TIP3   OH225609   4.573   2.282   5.570
 8551TIP3    H125610   4.529   2.291   5.486
 8551TIP3    H225611   4.509   2.238   5.626
 8552TIP3   OH225612   4.245   2.933   4.163
 8552TIP3    H125613   4.322   2.961   4.213
 8552TIP3    H225614   4.250   2.838   4.164
 8553TIP3   OH225615   3.401   6.879   6.384
 8553TIP3    H125616   3.484   6.924   6.367
 8553TIP3    H225617   3.414   6.835   6.468
 8554TIP3   OH225618   1.920   6.618   5.479
 8554TIP3    H125619   1.988   6.686   5.474
 8554TIP3    H225620   1.903   6.609   5.573
 8555TIP3   OH225621   2.778   1.781   4.162
 8555TIP3    H125622   2.810   1.807   4.076
 8555TIP3    H225623   2.740   1.694   4.147
 8556TIP3   OH225624   1.551   4.085   2.446
 8556TIP3    H125625   1.486   4.134   2.395
 8556TIP3    H225626   1.599   4.034   2.382
 8557TIP3   OH225627   2.936   5.904   5.259
 8557TIP3    H125628   2.906   5.861   5.339
 8557TIP3    H225629   2.916   5.842   5.189
 8558TIP3   OH225630   8.266   7.343   0.412
 8558TIP3    H125631   8.306   7.424   0.379
 8558TIP3    H225632   8.174   7.349   0.385
 8559TIP3   OH225633   5.231   7.619   2.745
 8559TIP3    H125634   5.281   7.666   2.677
 8559TIP3    H225635   5.220   7.684   2.814
 8560TIP3   OH225636   0.600   4.494   2.613
 8560TIP3    H125637   0.686   4.536   2.620
 8560TIP3    H225638   0.550   4.529   2.686
 8561TIP3   OH225639   4.193   5.152   0.402
 8561TIP3    H125640   4.163   5.204   0.327
 8561TIP3    H225641   4.115   5.138   0.455
 8562TIP3   OH225642   7.643   4.895   4.664
 8562TIP3    H125643   7.673   4.804   4.669
 8562TIP3    H225644   7.563   4.896   4.717
 8563TIP3   OH225645   5.564   1.149   4.370
 8563TIP3    H125646   5.566   1.095   4.449
 8563TIP3    H225647   5.624   1.105   4.310
 8564TIP3   OH225648   8.291   7.179   1.963
 8564TIP3    H125649   8.211   7.163   2.013
 8564TIP3    H225650   8.284   7.270   1.934
 8565TIP3   OH225651   7.736   6.067   2.998
 8565TIP3    H125652   7.704   6.147   2.956
 8565TIP3    H225653   7.663   6.005   2.990
 8566TIP3   OH225654   0.519   5.649   5.931
 8566TIP3    H125655   0.554   5.672   6.017
 8566TIP3    H225656   0.591   5.669   5.870
 8567TIP3   OH225657   4.065   2.700   1.601
 8567TIP3    H125658   4.104   2.621   1.638
 8567TIP3    H225659   3.987   2.670   1.556
 8568TIP3   OH225660   0.862   0.117   6.375
 8568TIP3    H125661   0.772   0.110   6.343
 8568TIP3    H225662   0.904   0.178   6.314
 8569TIP3   OH225663   1.057   6.324   4.489
 8569TIP3    H125664   1.027   6.368   4.410
 8569TIP3    H225665   1.045   6.231   4.470
 8570TIP3   OH225666   0.679   5.017   2.319
 8570TIP3    H125667   0.728   5.045   2.242
 8570TIP3    H225668   0.653   4.927   2.301
 8571TIP3   OH225669   6.720   4.950   1.699
 8571TIP3    H125670   6.702   4.988   1.613
 8571TIP3    H225671   6.774   4.872   1.680
 8572TIP3   OH225672   2.346   0.699   6.634
 8572TIP3    H125673   2.288   0.728   6.564
 8572TIP3    H225674   2.395   0.626   6.595
 8573TIP3   OH225675   4.103   7.350   5.913
 8573TIP3    H125676   4.170   7.297   5.956
 8573TIP3    H225677   4.146   7.435   5.898
 8574TIP3   OH225678   6.820   5.890   3.317
 8574TIP3    H125679   6.868   5.840   3.251
 8574TIP3    H225680   6.837   5.981   3.295
 8575TIP3   OH225681   3.633   1.568   4.506
 8575TIP3    H125682   3.592   1.498   4.455
 8575TIP3    H225683   3.562   1.603   4.560
 8576TIP3   OH225684   2.407   3.602   3.693
 8576TIP3    H125685   2.444   3.588   3.606
 8576TIP3    H225686   2.319   3.635   3.676
 8577TIP3   OH225687   3.868   1.380   2.043
 8577TIP3    H125688   3.800   1.323   2.080
 8577TIP3    H225689   3.879   1.349   1.954
 8578TIP3   OH225690   3.385   2.355   2.678
 8578TIP3    H125691   3.470   2.395   2.664
 8578TIP3    H225692   3.405   2.263   2.697
 8579TIP3   OH225693   5.298   1.529   6.450
 8579TIP3    H125694   5.333   1.544   6.362
 8579TIP3    H225695   5.224   1.469   6.436
 8580TIP3   OH225696   0.904   7.020   6.273
 8580TIP3    H125697   0.837   7.012   6.204
 8580TIP3    H225698   0.929   6.929   6.292
 8581TIP3   OH225699   7.766   4.676   1.997
 8581TIP3    H125700   7.830   4.697   2.064
 8581TIP3    H225701   7.708   4.752   1.993
 8582TIP3   OH225702   0.323   5.029   2.543
 8582TIP3    H125703   0.321   5.026   2.448
 8582TIP3    H225704   0.232   5.013   2.569
 8583TIP3   OH225705   0.723   3.981   4.084
 8583TIP3    H125706   0.707   3.888   4.068
 8583TIP3    H225707   0.657   4.007   4.148
 8584TIP3   OH225708   1.510   4.706   5.431
 8584TIP3    H125709   1.479   4.688   5.342
 8584TIP3    H225710   1.601   4.731   5.420
 8585TIP3   OH225711   7.991   1.152   5.772
 8585TIP3    H125712   8.070   1.170   5.721
 8585TIP3    H225713   7.954   1.074   5.731
 8586TIP3   OH225714   5.710   3.636   3.226
 8586TIP3    H125715   5.738   3.653   3.316
 8586TIP3    H225716   5.752   3.553   3.203
 8587TIP3   OH225717   2.206   3.128   0.185
 8587TIP3    H125718   2.185   3.222   0.190
 8587TIP3    H225719   2.123   3.084   0.200
 8588TIP3   OH225720   7.666   7.295   6.176
 8588TIP3    H125721   7.735   7.229   6.187
 8588TIP3    H225722   7.653   7.330   6.264
 8589TIP3   OH225723   0.101   2.204   0.999
 8589TIP3    H125724   0.100   2.271   1.067
 8589TIP3    H225725   0.194   2.181   0.990
 8590TIP3   OH225726   0.311   0.835   4.004
 8590TIP3    H125727   0.258   0.772   4.052
 8590TIP3    H225728   0.253   0.869   3.936
 8591TIP3   OH225729   0.871   0.044   3.514
 8591TIP3    H125730   0.888  -0.010   3.592
 8591TIP3    H225731   0.935   0.115   3.521
 8592TIP3   OH225732   5.247   2.284   5.941
 8592TIP3    H125733   5.165   2.253   5.903
 8592TIP3    H225734   5.247   2.249   6.030
 8593TIP3   OH225735   6.985   0.445   6.641
 8593TIP3    H125736   6.930   0.410   6.571
 8593TIP3    H225737   6.962   0.393   6.718
 8594TIP3   OH225738   4.323   2.830   3.225
 8594TIP3    H125739   4.349   2.738   3.221
 8594TIP3    H225740   4.363   2.863   3.305
 8595TIP3   OH225741   7.691   5.507   4.571
 8595TIP3    H125742   7.721   5.478   4.485
 8595TIP3    H225743   7.633   5.437   4.601
 8596TIP3   OH225744   0.388   3.074   1.193
 8596TIP3    H125745   0.468   3.066   1.245
 8596TIP3    H225746   0.409   3.028   1.111
 8597TIP3   OH225747   5.569   4.647   3.226
 8597TIP3    H125748   5.560   4.554   3.205
 8597TIP3    H225749   5.664   4.660   3.233
 8598TIP3   OH225750   3.689   0.849   0.657
 8598TIP3    H125751   3.698   0.911   0.585
 8598TIP3    H225752   3.608   0.875   0.702
 8599TIP3   OH225753   3.261   3.154   0.835
 8599TIP3    H125754   3.174   3.121   0.813
 8599TIP3    H225755   3.256   3.175   0.928
 8600TIP3   OH225756   1.342   7.476   6.382
 8600TIP3    H125757   1.296   7.449   6.303
 8600TIP3    H225758   1.290   7.440   6.454
 8601TIP3   OH225759   1.994   0.161   6.124
 8601TIP3    H125760   1.943   0.234   6.157
 8601TIP3    H225761   2.015   0.109   6.202
 8602TIP3   OH225762   6.783   0.801   1.622
 8602TIP3    H125763   6.780   0.885   1.669
 8602TIP3    H225764   6.756   0.823   1.533
 8603TIP3   OH225765   4.053   1.226   6.163
 8603TIP3    H125766   4.141   1.199   6.138
 8603TIP3    H225767   4.028   1.290   6.096
 8604TIP3   OH225768   7.715   6.433   6.649
 8604TIP3    H125769   7.661   6.499   6.692
 8604TIP3    H225770   7.720   6.461   6.558
 8605TIP3   OH225771   2.029   3.481   2.029
 8605TIP3    H125772   2.074   3.479   2.113
 8605TIP3    H225773   2.003   3.573   2.018
 8606TIP3   OH225774   0.520   1.632   5.921
 8606TIP3    H125775   0.482   1.713   5.956
 8606TIP3    H225776   0.602   1.659   5.881
 8607TIP3   OH225777   3.623   4.745   3.751
 8607TIP3    H125778   3.701   4.781   3.792
 8607TIP3    H225779   3.650   4.658   3.721
 8608TIP3   OH225780   6.391   7.215   4.857
 8608TIP3    H125781   6.473   7.186   4.817
 8608TIP3    H225782   6.383   7.160   4.935
 8609TIP3   OH225783   7.549   7.099   5.178
 8609TIP3    H125784   7.601   7.036   5.128
 8609TIP3    H225785   7.526   7.053   5.259
 8610TIP3   OH225786   5.977   3.304   5.023
 8610TIP3    H125787   5.921   3.304   4.946
 8610TIP3    H225788   5.944   3.377   5.076
 8611TIP3   OH225789   5.458   0.835   3.697
 8611TIP3    H125790   5.385   0.870   3.645
 8611TIP3    H225791   5.499   0.912   3.736
 8612TIP3   OH225792   6.182   2.882   2.272
 8612TIP3    H125793   6.116   2.890   2.340
 8612TIP3    H225794   6.161   2.951   2.209
 8613TIP3   OH225795   6.737   2.113   4.429
 8613TIP3    H125796   6.655   2.159   4.448
 8613TIP3    H225797   6.734   2.035   4.485
 8614TIP3   OH225798   4.996   4.518   5.226
 8614TIP3    H125799   4.942   4.439   5.221
 8614TIP3    H225800   4.970   4.559   5.308
 8615TIP3   OH225801   4.067   1.478   2.484
 8615TIP3    H125802   3.973   1.462   2.468
 8615TIP3    H225803   4.071   1.505   2.575
 8616TIP3   OH225804   4.312   0.477   3.987
 8616TIP3    H125805   4.383   0.423   3.953
 8616TIP3    H225806   4.238   0.458   3.930
 8617TIP3   OH225807   5.180   0.711   3.666
 8617TIP3    H125808   5.215   0.655   3.597
 8617TIP3    H225809   5.254   0.728   3.724
 8618TIP3   OH225810   1.907   5.997   0.390
 8618TIP3    H125811   1.907   6.012   0.485
 8618TIP3    H225812   1.814   5.985   0.369
 8619TIP3   OH225813   1.722   0.194   3.952
 8619TIP3    H125814   1.663   0.161   4.019
 8619TIP3    H225815   1.805   0.149   3.969
 8620TIP3   OH225816   7.686   1.115   6.665
 8620TIP3    H125817   7.762   1.063   6.692
 8620TIP3    H225818   7.624   1.107   6.738
 8621TIP3   OH225819   5.272   5.732   0.442
 8621TIP3    H125820   5.302   5.733   0.352
 8621TIP3    H225821   5.342   5.774   0.492
 8622TIP3   OH225822   1.079   0.315   3.332
 8622TIP3    H125823   1.024   0.333   3.408
 8622TIP3    H225824   1.127   0.236   3.354
 8623TIP3   OH225825   6.221   5.137   4.101
 8623TIP3    H125826   6.258   5.215   4.141
 8623TIP3    H225827   6.168   5.170   4.028
 8624TIP3   OH225828   0.602   2.802   3.951
 8624TIP3    H125829   0.696   2.794   3.969
 8624TIP3    H225830   0.579   2.888   3.986
 8625TIP3   OH225831   4.766   1.172   0.232
 8625TIP3    H125832   4.776   1.267   0.223
 8625TIP3    H225833   4.742   1.142   0.144
 8626TIP3   OH225834   1.606   6.530   3.150
 8626TIP3    H125835   1.593   6.442   3.185
 8626TIP3    H225836   1.679   6.519   3.088
 8627TIP3   OH225837   3.566   5.838   2.178
 8627TIP3    H125838   3.616   5.903   2.127
 8627TIP3    H225839   3.593   5.853   2.268
 8628TIP3   OH225840   4.085   6.479   6.443
 8628TIP3    H125841   4.035   6.550   6.483
 8628TIP3    H225842   4.063   6.401   6.495
 8629TIP3   OH225843   1.228   3.227   3.288
 8629TIP3    H125844   1.288   3.296   3.317
 8629TIP3    H225845   1.148   3.274   3.266
 8630TIP3   OH225846   3.559   5.241   2.402
 8630TIP3    H125847   3.477   5.287   2.381
 8630TIP3    H225848   3.542   5.200   2.487
 8631TIP3   OH225849   0.809   2.123   5.963
 8631TIP3    H125850   0.879   2.076   5.918
 8631TIP3    H225851   0.744   2.141   5.895
 8632TIP3   OH225852   5.578   0.914   5.842
 8632TIP3    H125853   5.627   0.832   5.850
 8632TIP3    H225854   5.487   0.886   5.832
 8633TIP3   OH225855   8.072   6.149   5.173
 8633TIP3    H125856   7.995   6.093   5.188
 8633TIP3    H225857   8.142   6.087   5.151
 8634TIP3   OH225858   5.643   1.600   1.036
 8634TIP3    H125859   5.638   1.544   0.958
 8634TIP3    H225860   5.552   1.615   1.061
 8635TIP3   OH225861   8.076   6.845   3.229
 8635TIP3    H125862   8.086   6.781   3.157
 8635TIP3    H225863   7.985   6.872   3.224
 8636TIP3   OH225864   3.631   3.222   4.555
 8636TIP3    H125865   3.718   3.227   4.514
 8636TIP3    H225866   3.633   3.288   4.624
 8637TIP3   OH225867   4.989   6.098   2.036
 8637TIP3    H125868   5.005   6.050   1.955
 8637TIP3    H225869   4.899   6.131   2.027
 8638TIP3   OH225870   7.764   2.290   0.812
 8638TIP3    H125871   7.752   2.202   0.846
 8638TIP3    H225872   7.813   2.277   0.730
 8639TIP3   OH225873   3.292   2.642   2.500
 8639TIP3    H125874   3.287   2.655   2.594
 8639TIP3    H225875   3.201   2.643   2.470
 8640TIP3   OH225876   0.899   1.641   0.306
 8640TIP3    H125877   0.955   1.572   0.341
 8640TIP3    H225878   0.857   1.602   0.229
 8641TIP3   OH225879   0.334   2.911   2.014
 8641TIP3    H125880   0.416   2.861   2.014
 8641TIP3    H225881   0.272   2.853   2.058
 8642TIP3   OH225882   4.905   7.514   1.128
 8642TIP3    H125883   4.822   7.522   1.175
 8642TIP3    H225884   4.954   7.593   1.152
 8643TIP3   OH225885   6.465   6.552   3.565
 8643TIP3    H125886   6.484   6.474   3.512
 8643TIP3    H225887   6.374   6.540   3.593
 8644TIP3   OH225888   2.086   5.682   2.236
 8644TIP3    H125889   2.150   5.747   2.207
 8644TIP3    H225890   2.006   5.732   2.250
 8645TIP3   OH225891   8.217   1.608   3.897
 8645TIP3    H125892   8.168   1.531   3.868
 8645TIP3    H225893   8.229   1.594   3.991
 8646TIP3   OH225894   1.014   2.894   4.506
 8646TIP3    H125895   1.008   2.978   4.551
 8646TIP3    H225896   0.960   2.834   4.558
 8647TIP3   OH225897   7.500   0.327   0.995
 8647TIP3    H125898   7.571   0.305   1.056
 8647TIP3    H225899   7.461   0.406   1.032
 8648TIP3   OH225900   2.591   0.537   4.652
 8648TIP3    H125901   2.670   0.591   4.649
 8648TIP3    H225902   2.619   0.455   4.690
 8649TIP3   OH225903   3.278   2.798   3.127
 8649TIP3    H125904   3.197   2.789   3.077
 8649TIP3    H225905   3.343   2.828   3.063
 8650TIP3   OH225906   5.370   4.868   0.817
 8650TIP3    H125907   5.285   4.885   0.858
 8650TIP3    H225908   5.360   4.782   0.776
 8651TIP3   OH225909   1.632   5.077   1.913
 8651TIP3    H125910   1.637   4.986   1.882
 8651TIP3    H225911   1.622   5.129   1.834
 8652TIP3   OH225912   2.349   6.360   4.315
 8652TIP3    H125913   2.272   6.378   4.368
 8652TIP3    H225914   2.317   6.360   4.225
 8653TIP3   OH225915   2.216   5.699   6.216
 8653TIP3    H125916   2.259   5.766   6.268
 8653TIP3    H225917   2.193   5.631   6.279
 8654TIP3   OH225918   7.693   2.160   2.734
 8654TIP3    H125919   7.741   2.098   2.789
 8654TIP3    H225920   7.601   2.138   2.748
 8655TIP3   OH225921   1.524   2.742   5.090
 8655TIP3    H125922   1.526   2.810   5.157
 8655TIP3    H225923   1.559   2.665   5.133
 8656TIP3   OH225924   1.117   0.332   1.406
 8656TIP3    H125925   1.133   0.248   1.363
 8656TIP3    H225926   1.201   0.378   1.403
 8657TIP3   OH225927   7.833   5.538   2.614
 8657TIP3    H125928   7.874   5.589   2.544
 8657TIP3    H225929   7.746   5.516   2.579
 8658TIP3   OH225930   8.032   3.546   4.022
 8658TIP3    H125931   8.071   3.633   4.034
 8658TIP3    H225932   7.992   3.551   3.935
 8659TIP3   OH225933   3.357   4.654   2.921
 8659TIP3    H125934   3.280   4.605   2.892
 8659TIP3    H225935   3.375   4.621   3.009
 8660TIP3   OH225936   4.646   7.483   1.277
 8660TIP3    H125937   4.686   7.549   1.333
 8660TIP3    H225938   4.562   7.464   1.319
 8661TIP3   OH225939   4.957   1.451   5.168
 8661TIP3    H125940   4.987   1.412   5.086
 8661TIP3    H225941   4.874   1.493   5.145
 8662TIP3   OH225942   7.538   0.973   0.404
 8662TIP3    H125943   7.601   1.044   0.413
 8662TIP3    H225944   7.564   0.928   0.324
 8663TIP3   OH225945   7.278   0.635   6.268
 8663TIP3    H125946   7.266   0.726   6.240
 8663TIP3    H225947   7.288   0.587   6.186
 8664TIP3   OH225948   2.518   1.437   3.578
 8664TIP3    H125949   2.581   1.382   3.529
 8664TIP3    H225950   2.551   1.526   3.568
 8665TIP3   OH225951   6.579   2.476   5.436
 8665TIP3    H125952   6.666   2.438   5.447
 8665TIP3    H225953   6.540   2.473   5.523
 8666TIP3   OH225954   5.717   4.449   5.059
 8666TIP3    H125955   5.810   4.462   5.039
 8666TIP3    H225956   5.680   4.537   5.060
 8667TIP3   OH225957   6.168   3.667   3.666
 8667TIP3    H125958   6.260   3.690   3.652
 8667TIP3    H225959   6.164   3.573   3.650
 8668TIP3   OH225960   2.844   1.031   1.127
 8668TIP3    H125961   2.809   0.944   1.110
 8668TIP3    H225962   2.769   1.082   1.156
 8669TIP3   OH225963   4.350   7.397   3.155
 8669TIP3    H125964   4.438   7.430   3.168
 8669TIP3    H225965   4.309   7.460   3.095
 8670TIP3   OH225966   2.252   6.091   6.009
 8670TIP3    H125967   2.231   6.090   5.916
 8670TIP3    H225968   2.232   6.180   6.037
 8671TIP3   OH225969   6.700   0.040   5.912
 8671TIP3    H125970   6.761   0.084   5.853
 8671TIP3    H225971   6.675  -0.040   5.865
 8672TIP3   OH225972   3.518   3.696   4.921
 8672TIP3    H125973   3.547   3.768   4.977
 8672TIP3    H225974   3.579   3.698   4.847
 8673TIP3   OH225975   6.840   5.426   6.055
 8673TIP3    H125976   6.846   5.332   6.037
 8673TIP3    H225977   6.906   5.441   6.123
 8674TIP3   OH225978   7.324   2.275   0.973
 8674TIP3    H125979   7.350   2.297   0.883
 8674TIP3    H225980   7.229   2.268   0.969
 8675TIP3   OH225981   5.107   1.997   0.577
 8675TIP3    H125982   5.187   1.944   0.573
 8675TIP3    H225983   5.085   2.000   0.670
 8676TIP3   OH225984   0.380   5.782   0.520
 8676TIP3    H125985   0.310   5.796   0.584
 8676TIP3    H225986   0.447   5.733   0.567
 8677TIP3   OH225987   2.444   5.122   2.695
 8677TIP3    H125988   2.454   5.217   2.695
 8677TIP3    H225989   2.491   5.093   2.774
 8678TIP3   OH225990   3.572   5.514   0.031
 8678TIP3    H125991   3.500   5.499   0.092
 8678TIP3    H225992   3.530   5.550  -0.047
 8679TIP3   OH225993   1.543   2.901   3.456
 8679TIP3    H125994   1.489   2.865   3.386
 8679TIP3    H225995   1.571   2.987   3.425
 8680TIP3   OH225996   2.219   3.263   5.824
 8680TIP3    H125997   2.240   3.282   5.915
 8680TIP3    H225998   2.144   3.319   5.804
 8681TIP3   OH225999   0.882   7.284   4.563
 8681TIP3    H126000   0.889   7.199   4.518
 8681TIP3    H226001   0.914   7.347   4.499
 8682TIP3   OH226002   7.825   3.164   2.642
 8682TIP3    H126003   7.854   3.254   2.626
 8682TIP3    H226004   7.736   3.161   2.609
 8683TIP3   OH226005   0.586   3.003   2.595
 8683TIP3    H126006   0.562   2.974   2.507
 8683TIP3    H226007   0.678   3.029   2.587
 8684TIP3   OH226008   7.522   3.563   4.780
 8684TIP3    H126009   7.582   3.559   4.855
 8684TIP3    H226010   7.538   3.649   4.741
 8685TIP3   OH226011   0.518   2.786   0.109
 8685TIP3    H126012   0.609   2.757   0.111
 8685TIP3    H226013   0.473   2.728   0.171
 8686TIP3   OH226014   3.405   1.103   0.413
 8686TIP3    H126015   3.367   1.022   0.380
 8686TIP3    H226016   3.495   1.103   0.380
 8687TIP3   OH226017   0.898   5.309   3.091
 8687TIP3    H126018   0.937   5.222   3.100
 8687TIP3    H226019   0.915   5.333   2.999
 8688TIP3   OH226020   5.529   4.498   0.638
 8688TIP3    H126021   5.440   4.516   0.668
 8688TIP3    H226022   5.581   4.498   0.719
 8689TIP3   OH226023   1.911   2.290   0.808
 8689TIP3    H126024   1.870   2.350   0.871
 8689TIP3    H226025   1.884   2.324   0.723
 8690TIP3   OH226026   3.780   6.007   2.069
 8690TIP3    H126027   3.864   5.971   2.098
 8690TIP3    H226028   3.792   6.023   1.975
 8691TIP3   OH226029   2.707   7.642   1.119
 8691TIP3    H126030   2.645   7.670   1.050
 8691TIP3    H226031   2.663   7.665   1.201
 8692TIP3   OH226032   2.625   1.001   2.265
 8692TIP3    H126033   2.638   1.072   2.328
 8692TIP3    H226034   2.606   0.925   2.319
 8693TIP3   OH226035   6.289   7.489   4.591
 8693TIP3    H126036   6.366   7.450   4.552
 8693TIP3    H226037   6.309   7.494   4.685
 8694TIP3   OH226038   1.760   6.519   1.093
 8694TIP3    H126039   1.835   6.516   1.033
 8694TIP3    H226040   1.767   6.606   1.134
 8695TIP3   OH226041   6.609   0.452   2.613
 8695TIP3    H126042   6.549   0.395   2.564
 8695TIP3    H226043   6.696   0.418   2.593
 8696TIP3   OH226044   7.119   7.328   0.375
 8696TIP3    H126045   7.165   7.340   0.458
 8696TIP3    H226046   7.178   7.367   0.310
 8697TIP3   OH226047   1.259   4.397   2.565
 8697TIP3    H126048   1.257   4.475   2.620
 8697TIP3    H226049   1.211   4.423   2.486
 8698TIP3   OH226050   2.420   3.938   1.341
 8698TIP3    H126051   2.459   3.871   1.398
 8698TIP3    H226052   2.332   3.906   1.323
 8699TIP3   OH226053   4.416   3.943   6.474
 8699TIP3    H126054   4.351   3.943   6.544
 8699TIP3    H226055   4.456   3.856   6.479
 8700TIP3   OH226056   5.006   6.415   6.309
 8700TIP3    H126057   5.022   6.323   6.288
 8700TIP3    H226058   5.073   6.437   6.373
 8701TIP3   OH226059   7.350   7.696   0.313
 8701TIP3    H126060   7.311   7.626   0.261
 8701TIP3    H226061   7.278   7.726   0.370
 8702TIP3   OH226062   1.719   6.551   4.131
 8702TIP3    H126063   1.655   6.489   4.097
 8702TIP3    H226064   1.791   6.550   4.067
 8703TIP3   OH226065   4.331   2.677   4.178
 8703TIP3    H126066   4.315   2.628   4.258
 8703TIP3    H226067   4.408   2.635   4.139
 8704TIP3   OH226068   1.548   3.529   4.664
 8704TIP3    H126069   1.547   3.621   4.688
 8704TIP3    H226070   1.623   3.492   4.711
 8705TIP3   OH226071   7.842   7.264   5.185
 8705TIP3    H126072   7.827   7.247   5.278
 8705TIP3    H226073   7.766   7.226   5.141
 8706TIP3   OH226074   4.681   1.808   5.516
 8706TIP3    H126075   4.707   1.868   5.447
 8706TIP3    H226076   4.653   1.729   5.470
 8707TIP3   OH226077   4.607   6.936   2.757
 8707TIP3    H126078   4.552   7.000   2.803
 8707TIP3    H226079   4.691   6.939   2.803
 8708TIP3   OH226080   1.723   6.381   6.092
 8708TIP3    H126081   1.669   6.355   6.166
 8708TIP3    H226082   1.775   6.454   6.126
 8709TIP3   OH226083   5.620   2.950   1.716
 8709TIP3    H126084   5.531   2.980   1.730
 8709TIP3    H226085   5.640   2.975   1.626
 8710TIP3   OH226086   3.050   7.752   3.870
 8710TIP3    H126087   2.984   7.786   3.809
 8710TIP3    H226088   3.036   7.657   3.870
 8711TIP3   OH226089   2.889   1.510   1.103
 8711TIP3    H126090   2.962   1.557   1.142
 8711TIP3    H226091   2.903   1.519   1.008
 8712TIP3   OH226092   6.134   1.825   5.528
 8712TIP3    H126093   6.135   1.910   5.572
 8712TIP3    H226094   6.097   1.765   5.592
 8713TIP3   OH226095   7.015   6.438   4.802
 8713TIP3    H126096   6.981   6.438   4.891
 8713TIP3    H226097   7.029   6.530   4.781
 8714TIP3   OH226098   0.555   6.823   5.242
 8714TIP3    H126099   0.565   6.834   5.148
 8714TIP3    H226100   0.501   6.897   5.270
 8715TIP3   OH226101   4.963   6.547   0.062
 8715TIP3    H126102   5.031   6.500   0.109
 8715TIP3    H226103   4.996   6.636   0.053
 8716TIP3   OH226104   2.581   1.678   6.545
 8716TIP3    H126105   2.543   1.750   6.595
 8716TIP3    H226106   2.528   1.602   6.568
 8717TIP3   OH226107   1.645   5.017   0.986
 8717TIP3    H126108   1.713   5.084   0.980
 8717TIP3    H226109   1.563   5.066   0.979
 8718TIP3   OH226110   4.622   1.917   1.197
 8718TIP3    H126111   4.629   1.860   1.121
 8718TIP3    H226112   4.709   1.914   1.237
 8719TIP3   OH226113   2.817   4.440   2.778
 8719TIP3    H126114   2.825   4.477   2.866
 8719TIP3    H226115   2.898   4.391   2.765
 8720TIP3   OH226116   3.287   1.509   1.218
 8720TIP3    H126117   3.266   1.423   1.254
 8720TIP3    H226118   3.208   1.561   1.233
 8721TIP3   OH226119   7.536   2.179   6.203
 8721TIP3    H126120   7.580   2.159   6.285
 8721TIP3    H226121   7.605   2.213   6.146
 8722TIP3   OH226122   2.640   1.964   1.473
 8722TIP3    H126123   2.713   1.955   1.413
 8722TIP3    H226124   2.562   1.958   1.418
 8723TIP3   OH226125   6.908   3.167   0.821
 8723TIP3    H126126   6.863   3.246   0.850
 8723TIP3    H226127   7.001   3.189   0.824
 8724TIP3   OH226128   7.416   5.595   4.838
 8724TIP3    H126129   7.489   5.634   4.790
 8724TIP3    H226130   7.340   5.648   4.814
 8725TIP3   OH226131   8.255   2.848   4.031
 8725TIP3    H126132   8.276   2.827   3.940
 8725TIP3    H226133   8.162   2.825   4.040
 8726TIP3   OH226134   7.748   6.140   4.127
 8726TIP3    H126135   7.657   6.116   4.108
 8726TIP3    H226136   7.769   6.092   4.207
 8727TIP3   OH226137   4.479   3.613   2.213
 8727TIP3    H126138   4.448   3.670   2.283
 8727TIP3    H226139   4.574   3.624   2.213
 8728TIP3   OH226140   6.734   0.963   5.486
 8728TIP3    H126141   6.806   1.002   5.438
 8728TIP3    H226142   6.734   1.008   5.570
 8729TIP3   OH226143   2.010   0.731   3.393
 8729TIP3    H126144   2.104   0.736   3.410
 8729TIP3    H226145   1.983   0.821   3.377
 8730TIP3   OH226146   3.251   2.249   6.005
 8730TIP3    H126147   3.181   2.232   6.068
 8730TIP3    H226148   3.330   2.217   6.048
 8731TIP3   OH226149   3.537   4.065   5.412
 8731TIP3    H126150   3.464   4.007   5.432
 8731TIP3    H226151   3.569   4.093   5.498
 8732TIP3   OH226152   4.722   5.865   5.822
 8732TIP3    H126153   4.662   5.819   5.763
 8732TIP3    H226154   4.723   5.811   5.901
 8733TIP3   OH226155   2.031   5.943   0.677
 8733TIP3    H126156   2.099   5.985   0.730
 8733TIP3    H226157   2.077   5.908   0.601
 8734TIP3   OH226158   7.550   7.523   4.314
 8734TIP3    H126159   7.588   7.437   4.299
 8734TIP3    H226160   7.509   7.546   4.231
 8735TIP3   OH226161   2.435   1.566   3.921
 8735TIP3    H126162   2.401   1.478   3.904
 8735TIP3    H226163   2.374   1.624   3.878
 8736TIP3   OH226164   0.126   0.120   5.610
 8736TIP3    H126165   0.083   0.161   5.685
 8736TIP3    H226166   0.107   0.179   5.536
 8737TIP3   OH226167   8.065   1.464   2.260
 8737TIP3    H126168   8.023   1.533   2.208
 8737TIP3    H226169   8.090   1.398   2.196
 8738TIP3   OH226170   7.710   5.365   3.395
 8738TIP3    H126171   7.681   5.299   3.332
 8738TIP3    H226172   7.730   5.442   3.342
 8739TIP3   OH226173   3.267   7.264   3.984
 8739TIP3    H126174   3.189   7.303   4.024
 8739TIP3    H226175   3.333   7.267   4.053
 8740TIP3   OH226176   1.344   1.031   3.506
 8740TIP3    H126177   1.271   0.989   3.550
 8740TIP3    H226178   1.345   1.120   3.542
 8741TIP3   OH226179   3.794   3.510   1.868
 8741TIP3    H126180   3.791   3.432   1.812
 8741TIP3    H226181   3.794   3.583   1.806
 8742TIP3   OH226182   4.816   4.836   6.094
 8742TIP3    H126183   4.910   4.833   6.075
 8742TIP3    H226184   4.783   4.906   6.039
 8743TIP3   OH226185   7.507   3.898   2.430
 8743TIP3    H126186   7.548   3.874   2.347
 8743TIP3    H226187   7.435   3.956   2.405
 8744TIP3   OH226188   0.076   5.033   1.218
 8744TIP3    H126189   0.004   4.970   1.217
 8744TIP3    H226190   0.108   5.034   1.127
 8745TIP3   OH226191   6.774   0.729   2.746
 8745TIP3    H126192   6.816   0.741   2.832
 8745TIP3    H226193   6.781   0.635   2.729
 8746TIP3   OH226194   0.614   1.562   4.268
 8746TIP3    H126195   0.638   1.479   4.228
 8746TIP3    H226196   0.692   1.591   4.315
 8747TIP3   OH226197   3.698   5.986   3.569
 8747TIP3    H126198   3.663   5.897   3.560
 8747TIP3    H226199   3.704   6.001   3.663
 8748TIP3   OH226200   3.498   1.206   1.794
 8748TIP3    H126201   3.590   1.189   1.772
 8748TIP3    H226202   3.494   1.299   1.814
 8749TIP3   OH226203   6.867   1.078   4.160
 8749TIP3    H126204   6.912   1.162   4.147
 8749TIP3    H226205   6.817   1.090   4.240
 8750TIP3   OH226206   1.489   1.845   0.183
 8750TIP3    H126207   1.556   1.778   0.193
 8750TIP3    H226208   1.535   1.928   0.196
 8751TIP3   OH226209   7.473   4.637   4.731
 8751TIP3    H126210   7.470   4.606   4.822
 8751TIP3    H226211   7.384   4.668   4.714
 8752TIP3   OH226212   4.962   3.131   4.134
 8752TIP3    H126213   4.908   3.088   4.067
 8752TIP3    H226214   4.899   3.154   4.204
 8753TIP3   OH226215   0.303   3.506   2.272
 8753TIP3    H126216   0.247   3.432   2.295
 8753TIP3    H226217   0.391   3.468   2.263
 8754TIP3   OH226218   6.817   0.214   1.888
 8754TIP3    H126219   6.760   0.138   1.875
 8754TIP3    H226220   6.886   0.204   1.822
 8755TIP3   OH226221   5.423   2.639   0.339
 8755TIP3    H126222   5.413   2.633   0.245
 8755TIP3    H226223   5.381   2.722   0.363
 8756TIP3   OH226224   2.286   6.433   5.483
 8756TIP3    H126225   2.337   6.356   5.460
 8756TIP3    H226226   2.283   6.484   5.402
 8757TIP3   OH226227   2.848   1.890   5.421
 8757TIP3    H126228   2.920   1.839   5.385
 8757TIP3    H226229   2.868   1.981   5.397
 8758TIP3   OH226230   6.627   0.546   6.695
 8758TIP3    H126231   6.616   0.524   6.788
 8758TIP3    H226232   6.560   0.612   6.677
 8759TIP3   OH226233   2.425   0.460   2.386
 8759TIP3    H126234   2.458   0.405   2.314
 8759TIP3    H226235   2.330   0.456   2.377
 8760TIP3   OH226236   2.971   4.066   2.007
 8760TIP3    H126237   3.054   4.097   1.970
 8760TIP3    H226238   2.929   4.020   1.935
 8761TIP3   OH226239   5.207   4.736   0.103
 8761TIP3    H126240   5.148   4.712   0.031
 8761TIP3    H226241   5.148   4.762   0.174
 8762TIP3   OH226242   7.661   1.652   0.253
 8762TIP3    H126243   7.578   1.608   0.235
 8762TIP3    H226244   7.636   1.739   0.286
 8763TIP3   OH226245   0.638   7.293   0.598
 8763TIP3    H126246   0.633   7.303   0.503
 8763TIP3    H226247   0.558   7.334   0.631
 8764TIP3   OH226248   2.884   7.702   1.556
 8764TIP3    H126249   2.965   7.751   1.548
 8764TIP3    H226250   2.896   7.648   1.634
 8765TIP3   OH226251   1.901   3.515   3.214
 8765TIP3    H126252   1.883   3.431   3.172
 8765TIP3    H226253   1.913   3.576   3.141
 8766TIP3   OH226254   7.209   3.570   1.362
 8766TIP3    H126255   7.117   3.577   1.389
 8766TIP3    H226256   7.208   3.588   1.268
 8767TIP3   OH226257   1.491   5.686   2.229
 8767TIP3    H126258   1.458   5.644   2.149
 8767TIP3    H226259   1.453   5.635   2.300
 8768TIP3   OH226260   3.596   3.910   2.709
 8768TIP3    H126261   3.676   3.953   2.679
 8768TIP3    H226262   3.561   3.968   2.777
 8769TIP3   OH226263   1.482   5.079   3.878
 8769TIP3    H126264   1.530   5.095   3.797
 8769TIP3    H226265   1.524   5.001   3.916
 8770TIP3   OH226266   1.749   3.562   0.160
 8770TIP3    H126267   1.735   3.490   0.099
 8770TIP3    H226268   1.751   3.641   0.105
 8771TIP3   OH226269   5.331   0.344   2.803
 8771TIP3    H126270   5.423   0.316   2.799
 8771TIP3    H226271   5.322   0.405   2.730
 8772TIP3   OH226272   4.351   1.004   6.318
 8772TIP3    H126273   4.371   0.913   6.297
 8772TIP3    H226274   4.349   1.007   6.413
 8773TIP3   OH226275   1.001   5.533   1.908
 8773TIP3    H126276   0.950   5.592   1.964
 8773TIP3    H226277   1.092   5.547   1.936
 8774TIP3   OH226278   1.699   5.641   2.707
 8774TIP3    H126279   1.630   5.575   2.710
 8774TIP3    H226280   1.759   5.615   2.777
 8775TIP3   OH226281   6.129   5.626   1.634
 8775TIP3    H126282   6.204   5.679   1.611
 8775TIP3    H226283   6.099   5.589   1.551
 8776TIP3   OH226284   3.128   2.271   2.186
 8776TIP3    H126285   3.080   2.191   2.209
 8776TIP3    H226286   3.216   2.240   2.164
 8777TIP3   OH226287   4.862   3.505   1.323
 8777TIP3    H126288   4.894   3.449   1.394
 8777TIP3    H226289   4.865   3.449   1.246
 8778TIP3   OH226290   1.653   4.265   0.429
 8778TIP3    H126291   1.633   4.197   0.365
 8778TIP3    H226292   1.614   4.234   0.510
 8779TIP3   OH226293   6.004   4.654   1.127
 8779TIP3    H126294   5.912   4.631   1.137
 8779TIP3    H226295   6.051   4.588   1.177
 8780TIP3   OH226296   1.356   0.175   0.406
 8780TIP3    H126297   1.282   0.114   0.402
 8780TIP3    H226298   1.319   0.255   0.444
 8781TIP3   OH226299   5.494   1.482   0.043
 8781TIP3    H126300   5.433   1.543   0.002
 8781TIP3    H226301   5.480   1.400  -0.004
 8782TIP3   OH226302   6.869   7.220   4.327
 8782TIP3    H126303   6.943   7.171   4.292
 8782TIP3    H226304   6.806   7.153   4.353
 8783TIP3   OH226305   7.709   2.416   3.041
 8783TIP3    H126306   7.692   2.475   2.968
 8783TIP3    H226307   7.752   2.471   3.107
 8784TIP3   OH226308   6.755   6.160   4.712
 8784TIP3    H126309   6.828   6.143   4.653
 8784TIP3    H226310   6.687   6.098   4.684
 8785TIP3   OH226311   6.584   7.030   0.223
 8785TIP3    H126312   6.586   7.126   0.221
 8785TIP3    H226313   6.516   7.006   0.160
 8786TIP3   OH226314   7.224   5.524   3.622
 8786TIP3    H126315   7.149   5.472   3.592
 8786TIP3    H226316   7.257   5.567   3.544
 8787TIP3   OH226317   5.360   2.992   0.495
 8787TIP3    H126318   5.425   3.047   0.450
 8787TIP3    H226319   5.276   3.030   0.470
 8788TIP3   OH226320   7.743   4.028   6.778
 8788TIP3    H126321   7.691   4.089   6.831
 8788TIP3    H226322   7.772   4.080   6.703
 8789TIP3   OH226323   4.089   7.751   6.299
 8789TIP3    H126324   4.009   7.726   6.345
 8789TIP3    H226325   4.069   7.838   6.264
 8790TIP3   OH226326   6.354   0.853   4.173
 8790TIP3    H126327   6.267   0.892   4.167
 8790TIP3    H226328   6.397   0.876   4.091
 8791TIP3   OH226329   6.744   2.835   3.797
 8791TIP3    H126330   6.715   2.752   3.759
 8791TIP3    H226331   6.663   2.882   3.817
 8792TIP3   OH226332   3.275   7.242   5.405
 8792TIP3    H126333   3.319   7.249   5.490
 8792TIP3    H226334   3.339   7.200   5.348
 8793TIP3   OH226335   8.043   5.281   3.802
 8793TIP3    H126336   8.099   5.209   3.830
 8793TIP3    H226337   7.955   5.243   3.801
 8794TIP3   OH226338   1.033   6.390   2.292
 8794TIP3    H126339   1.072   6.341   2.364
 8794TIP3    H226340   1.042   6.332   2.216
 8795TIP3   OH226341   0.761   2.626   4.455
 8795TIP3    H126342   0.802   2.673   4.527
 8795TIP3    H226343   0.737   2.694   4.392
 8796TIP3   OH226344   4.769   6.353   2.314
 8796TIP3    H126345   4.842   6.296   2.291
 8796TIP3    H226346   4.786   6.378   2.405
 8797TIP3   OH226347   1.094   0.187   4.293
 8797TIP3    H126348   1.176   0.147   4.322
 8797TIP3    H226349   1.092   0.272   4.337
 8798TIP3   OH226350   7.683   2.703   1.123
 8798TIP3    H126351   7.595   2.736   1.108
 8798TIP3    H226352   7.698   2.643   1.050
 8799TIP3   OH226353   7.461   6.614   3.008
 8799TIP3    H126354   7.482   6.553   3.079
 8799TIP3    H226355   7.374   6.586   2.978
 8800TIP3   OH226356   0.181   0.314   3.689
 8800TIP3    H126357   0.118   0.349   3.626
 8800TIP3    H226358   0.214   0.391   3.735
 8801TIP3   OH226359   7.026   1.152   2.788
 8801TIP3    H126360   7.120   1.144   2.804
 8801TIP3    H226361   7.018   1.155   2.693
 8802TIP3   OH226362   5.201   3.456   5.821
 8802TIP3    H126363   5.220   3.501   5.904
 8802TIP3    H226364   5.130   3.507   5.782
 8803TIP3   OH226365   0.013   3.976   0.395
 8803TIP3    H126366   0.082   3.976   0.328
 8803TIP3    H226367  -0.061   4.020   0.354
 8804TIP3   OH226368   0.418   4.350   5.899
 8804TIP3    H126369   0.373   4.292   5.837
 8804TIP3    H226370   0.500   4.372   5.855
 8805TIP3   OH226371   1.280   3.632   6.321
 8805TIP3    H126372   1.324   3.547   6.325
 8805TIP3    H226373   1.190   3.614   6.346
 8806TIP3   OH226374   0.476   1.270   2.035
 8806TIP3    H126375   0.420   1.246   1.962
 8806TIP3    H226376   0.552   1.311   1.994
 8807TIP3   OH226377   5.186   0.512   5.331
 8807TIP3    H126378   5.204   0.517   5.237
 8807TIP3    H226379   5.155   0.600   5.353
 8808TIP3   OH226380   1.207   6.554   1.509
 8808TIP3    H126381   1.253   6.480   1.469
 8808TIP3    H226382   1.187   6.612   1.435
 8809TIP3   OH226383   2.518   5.463   4.973
 8809TIP3    H126384   2.552   5.550   4.953
 8809TIP3    H226385   2.438   5.457   4.921
 8810TIP3   OH226386   2.634   7.266   6.142
 8810TIP3    H126387   2.571   7.335   6.161
 8810TIP3    H226388   2.580   7.187   6.132
 8811TIP3   OH226389   3.136   7.073   2.616
 8811TIP3    H126390   3.147   7.036   2.528
 8811TIP3    H226391   3.082   7.009   2.662
 8812TIP3   OH226392   7.179   5.746   6.386
 8812TIP3    H126393   7.274   5.742   6.386
 8812TIP3    H226394   7.155   5.758   6.294
 8813TIP3   OH226395   7.615   1.481   5.220
 8813TIP3    H126396   7.641   1.541   5.290
 8813TIP3    H226397   7.686   1.416   5.217
 8814TIP3   OH226398   6.855   2.212   3.894
 8814TIP3    H126399   6.799   2.266   3.837
 8814TIP3    H226400   6.843   2.123   3.862
 8815TIP3   OH226401   0.787   3.691   0.332
 8815TIP3    H126402   0.752   3.748   0.400
 8815TIP3    H226403   0.719   3.624   0.320
 8816TIP3   OH226404   2.561   4.952   4.050
 8816TIP3    H126405   2.506   4.882   4.014
 8816TIP3    H226406   2.524   4.970   4.136
 8817TIP3   OH226407   6.941   3.447   6.199
 8817TIP3    H126408   6.900   3.361   6.195
 8817TIP3    H226409   6.954   3.472   6.107
 8818TIP3   OH226410   2.073   4.713   6.321
 8818TIP3    H126411   2.006   4.723   6.253
 8818TIP3    H226412   2.156   4.720   6.273
 8819TIP3   OH226413   1.457   3.645   0.495
 8819TIP3    H126414   1.539   3.596   0.484
 8819TIP3    H226415   1.389   3.582   0.472
 8820TIP3   OH226416   5.177   1.937   5.879
 8820TIP3    H126417   5.247   1.982   5.832
 8820TIP3    H226418   5.107   1.927   5.815
 8821TIP3   OH226419   3.916   7.372   5.560
 8821TIP3    H126420   3.836   7.359   5.612
 8821TIP3    H226421   3.980   7.312   5.599
 8822TIP3   OH226422   0.714   2.364   4.875
 8822TIP3    H126423   0.683   2.417   4.802
 8822TIP3    H226424   0.788   2.314   4.838
 8823TIP3   OH226425   0.744   2.824   0.316
 8823TIP3    H126426   0.654   2.801   0.341
 8823TIP3    H226427   0.772   2.887   0.383
 8824TIP3   OH226428   5.932   3.901   2.775
 8824TIP3    H126429   5.889   3.836   2.830
 8824TIP3    H226430   5.978   3.850   2.709
 8825TIP3   OH226431   5.315   5.610   3.569
 8825TIP3    H126432   5.303   5.532   3.623
 8825TIP3    H226433   5.394   5.591   3.518
 8826TIP3   OH226434   2.704   1.648   3.447
 8826TIP3    H126435   2.761   1.606   3.382
 8826TIP3    H226436   2.683   1.734   3.409
 8827TIP3   OH226437   1.742   6.705   0.204
 8827TIP3    H126438   1.719   6.662   0.287
 8827TIP3    H226439   1.835   6.725   0.212
 8828TIP3   OH226440   4.187   6.152   3.779
 8828TIP3    H126441   4.102   6.125   3.744
 8828TIP3    H226442   4.243   6.162   3.702
 8829TIP3   OH226443   8.196   7.101   0.531
 8829TIP3    H126444   8.116   7.125   0.577
 8829TIP3    H226445   8.215   7.175   0.474
 8830TIP3   OH226446   2.597   4.768   2.842
 8830TIP3    H126447   2.577   4.757   2.749
 8830TIP3    H226448   2.651   4.847   2.845
 8831TIP3   OH226449   7.153   5.230   4.127
 8831TIP3    H126450   7.242   5.265   4.125
 8831TIP3    H226451   7.111   5.276   4.200
 8832TIP3   OH226452   8.005   5.528   3.973
 8832TIP3    H126453   8.028   5.459   4.034
 8832TIP3    H226454   8.010   5.487   3.886
 8833TIP3   OH226455   0.705   2.732   3.272
 8833TIP3    H126456   0.727   2.823   3.294
 8833TIP3    H226457   0.785   2.696   3.234
 8834TIP3   OH226458   5.907   4.876   4.249
 8834TIP3    H126459   5.938   4.837   4.331
 8834TIP3    H226460   5.818   4.905   4.268
 8835TIP3   OH226461   4.260   3.607   5.686
 8835TIP3    H126462   4.319   3.658   5.631
 8835TIP3    H226463   4.235   3.532   5.632
 8836TIP3   OH226464   2.759   2.177   6.515
 8836TIP3    H126465   2.812   2.219   6.447
 8836TIP3    H226466   2.700   2.119   6.467
 8837TIP3   OH226467   2.687   4.482   5.277
 8837TIP3    H126468   2.661   4.571   5.301
 8837TIP3    H226469   2.758   4.494   5.214
 8838TIP3   OH226470   6.979   5.904   4.323
 8838TIP3    H126471   7.030   5.824   4.309
 8838TIP3    H226472   7.043   5.971   4.344
 8839TIP3   OH226473   4.358   2.680   3.612
 8839TIP3    H126474   4.372   2.586   3.606
 8839TIP3    H226475   4.264   2.691   3.596
 8840TIP3   OH226476   7.072   7.615   5.181
 8840TIP3    H126477   7.100   7.582   5.267
 8840TIP3    H226478   7.003   7.556   5.154
 8841TIP3   OH226479   5.087   1.761   3.533
 8841TIP3    H126480   5.011   1.792   3.582
 8841TIP3    H226481   5.103   1.673   3.567
 8842TIP3   OH226482   3.375   6.975   0.212
 8842TIP3    H126483   3.399   6.892   0.254
 8842TIP3    H226484   3.452   6.999   0.161
 8843TIP3   OH226485   6.909   2.844   6.248
 8843TIP3    H126486   6.822   2.817   6.276
 8843TIP3    H226487   6.924   2.796   6.166
 8844TIP3   OH226488   7.170   6.436   5.803
 8844TIP3    H126489   7.261   6.451   5.829
 8844TIP3    H226490   7.119   6.471   5.876
 8845TIP3   OH226491   2.533   0.095   6.161
 8845TIP3    H126492   2.566   0.085   6.250
 8845TIP3    H226493   2.455   0.150   6.171
 8846TIP3   OH226494   4.953   4.372   4.272
 8846TIP3    H126495   4.993   4.368   4.185
 8846TIP3    H226496   5.023   4.400   4.330
 8847TIP3   OH226497   2.979   2.475   3.681
 8847TIP3    H126498   3.035   2.417   3.733
 8847TIP3    H226499   2.893   2.471   3.723
 8848TIP3   OH226500   1.037   2.293   3.188
 8848TIP3    H126501   1.116   2.345   3.173
 8848TIP3    H226502   0.988   2.344   3.252
 8849TIP3   OH226503   5.847   6.308   0.696
 8849TIP3    H126504   5.851   6.402   0.708
 8849TIP3    H226505   5.866   6.295   0.603
 8850TIP3   OH226506   1.953   3.739   2.065
 8850TIP3    H126507   2.028   3.797   2.053
 8850TIP3    H226508   1.882   3.781   2.015
 8851TIP3   OH226509   3.845   2.169   2.660
 8851TIP3    H126510   3.927   2.183   2.612
 8851TIP3    H226511   3.794   2.109   2.606
 8852TIP3   OH226512   4.452   2.479   0.019
 8852TIP3    H126513   4.514   2.493   0.091
 8852TIP3    H226514   4.376   2.438   0.060
 8853TIP3   OH226515   5.085   7.703   5.286
 8853TIP3    H126516   5.082   7.798   5.273
 8853TIP3    H226517   5.090   7.667   5.197
 8854TIP3   OH226518   5.141   4.711   3.444
 8854TIP3    H126519   5.169   4.635   3.393
 8854TIP3    H226520   5.092   4.674   3.518
 8855TIP3   OH226521   0.135   5.087   4.061
 8855TIP3    H126522   0.205   5.149   4.082
 8855TIP3    H226523   0.174   5.001   4.081
 8856TIP3   OH226524   1.963   3.157   4.801
 8856TIP3    H126525   1.915   3.102   4.863
 8856TIP3    H226526   1.954   3.113   4.717
 8857TIP3   OH226527   0.094   0.868   6.051
 8857TIP3    H126528   0.050   0.811   5.988
 8857TIP3    H226529   0.169   0.903   6.002
 8858TIP3   OH226530   4.658   6.612   3.070
 8858TIP3    H126531   4.592   6.555   3.109
 8858TIP3    H226532   4.609   6.673   3.015
 8859TIP3   OH226533   0.755   5.961   4.678
 8859TIP3    H126534   0.732   5.976   4.770
 8859TIP3    H226535   0.849   5.978   4.674
 8860TIP3   OH226536   3.518   0.812   4.230
 8860TIP3    H126537   3.589   0.866   4.194
 8860TIP3    H226538   3.462   0.792   4.155
 8861TIP3   OH226539   6.459   6.761   3.376
 8861TIP3    H126540   6.448   6.688   3.437
 8861TIP3    H226541   6.518   6.821   3.420
 8862TIP3   OH226542   8.300   6.305   2.104
 8862TIP3    H126543   8.219   6.307   2.154
 8862TIP3    H226544   8.299   6.220   2.060
 8863TIP3   OH226545   1.110   7.075   1.419
 8863TIP3    H126546   1.138   7.016   1.489
 8863TIP3    H226547   1.155   7.157   1.438
 8864TIP3   OH226548   6.391   3.085   4.046
 8864TIP3    H126549   6.462   3.149   4.049
 8864TIP3    H226550   6.334   3.116   3.976
 8865TIP3   OH226551   4.655   5.176   3.288
 8865TIP3    H126552   4.606   5.227   3.353
 8865TIP3    H226553   4.688   5.241   3.227
 8866TIP3   OH226554   6.069   0.601   2.155
 8866TIP3    H126555   6.128   0.626   2.225
 8866TIP3    H226556   6.127   0.571   2.085
 8867TIP3   OH226557   2.698   0.576   2.974
 8867TIP3    H126558   2.686   0.488   3.011
 8867TIP3    H226559   2.615   0.620   2.990
 8868TIP3   OH226560   6.014   3.107   2.803
 8868TIP3    H126561   5.973   3.043   2.862
 8868TIP3    H226562   6.064   3.053   2.741
 8869TIP3   OH226563   3.320   1.818   3.785
 8869TIP3    H126564   3.353   1.902   3.755
 8869TIP3    H226565   3.241   1.803   3.733
 8870TIP3   OH226566   7.535   3.831   4.687
 8870TIP3    H126567   7.554   3.815   4.595
 8870TIP3    H226568   7.556   3.923   4.700
 8871TIP3   OH226569   6.992   0.415   3.203
 8871TIP3    H126570   6.987   0.485   3.268
 8871TIP3    H226571   6.910   0.367   3.215
 8872TIP3   OH226572   3.429   6.256   6.162
 8872TIP3    H126573   3.427   6.202   6.083
 8872TIP3    H226574   3.341   6.290   6.170
 8873TIP3   OH226575   0.053   1.131   3.744
 8873TIP3    H126576  -0.005   1.189   3.793
 8873TIP3    H226577   0.141   1.165   3.761
 8874TIP3   OH226578   7.002   0.296   2.171
 8874TIP3    H126579   7.093   0.296   2.141
 8874TIP3    H226580   6.952   0.332   2.097
 8875TIP3   OH226581   2.740   0.738   5.978
 8875TIP3    H126582   2.751   0.822   6.021
 8875TIP3    H226583   2.660   0.748   5.925
 8876TIP3   OH226584   7.563   5.275   3.056
 8876TIP3    H126585   7.618   5.208   3.098
 8876TIP3    H226586   7.485   5.227   3.028
 8877TIP3   OH226587   0.669   6.580   3.589
 8877TIP3    H126588   0.618   6.538   3.520
 8877TIP3    H226589   0.664   6.673   3.569
 8878TIP3   OH226590   1.556   6.549   1.677
 8878TIP3    H126591   1.501   6.616   1.635
 8878TIP3    H226592   1.611   6.515   1.606
 8879TIP3   OH226593   1.780   2.574   6.516
 8879TIP3    H126594   1.735   2.623   6.447
 8879TIP3    H226595   1.865   2.616   6.524
 8880TIP3   OH226596   7.510   3.504   3.238
 8880TIP3    H126597   7.477   3.470   3.321
 8880TIP3    H226598   7.475   3.592   3.233
 8881TIP3   OH226599   0.236   0.852   1.365
 8881TIP3    H126600   0.187   0.825   1.442
 8881TIP3    H226601   0.328   0.843   1.390
 8882TIP3   OH226602   4.281   3.768   6.290
 8882TIP3    H126603   4.298   3.772   6.384
 8882TIP3    H226604   4.269   3.859   6.264
 8883TIP3   OH226605   6.807   7.126   1.423
 8883TIP3    H126606   6.784   7.034   1.413
 8883TIP3    H226607   6.755   7.171   1.357
 8884TIP3   OH226608   3.489   7.550   3.767
 8884TIP3    H126609   3.421   7.580   3.828
 8884TIP3    H226610   3.559   7.517   3.823
 8885TIP3   OH226611   2.051   5.843   2.689
 8885TIP3    H126612   2.020   5.830   2.778
 8885TIP3    H226613   2.003   5.778   2.637
 8886TIP3   OH226614   3.211   4.598   2.393
 8886TIP3    H126615   3.181   4.535   2.328
 8886TIP3    H226616   3.276   4.651   2.348
 8887TIP3   OH226617   6.691   7.434   4.238
 8887TIP3    H126618   6.757   7.385   4.287
 8887TIP3    H226619   6.642   7.482   4.305
 8888TIP3   OH226620   7.824   0.442   4.314
 8888TIP3    H126621   7.824   0.536   4.331
 8888TIP3    H226622   7.735   0.413   4.335
 8889TIP3   OH226623   8.169   2.301   4.322
 8889TIP3    H126624   8.077   2.280   4.307
 8889TIP3    H226625   8.217   2.240   4.267
 8890TIP3   OH226626   2.990   4.405   6.761
 8890TIP3    H126627   3.071   4.446   6.732
 8890TIP3    H226628   2.996   4.314   6.731
 8891TIP3   OH226629   5.038   3.547   3.697
 8891TIP3    H126630   4.974   3.523   3.764
 8891TIP3    H226631   5.049   3.642   3.707
 8892TIP3   OH226632   0.710   0.326   4.261
 8892TIP3    H126633   0.640   0.371   4.213
 8892TIP3    H226634   0.776   0.394   4.275
 8893TIP3   OH226635   8.104   6.330   3.882
 8893TIP3    H126636   8.136   6.372   3.961
 8893TIP3    H226637   8.032   6.386   3.853
 8894TIP3   OH226638   8.209   6.818   3.477
 8894TIP3    H126639   8.297   6.853   3.459
 8894TIP3    H226640   8.164   6.820   3.392
 8895TIP3   OH226641   1.894   3.602   5.083
 8895TIP3    H126642   1.856   3.689   5.087
 8895TIP3    H226643   1.976   3.609   5.131
 8896TIP3   OH226644   3.354   2.847   5.216
 8896TIP3    H126645   3.353   2.873   5.308
 8896TIP3    H226646   3.409   2.769   5.214
 8897TIP3   OH226647   2.552   4.744   2.114
 8897TIP3    H126648   2.613   4.797   2.165
 8897TIP3    H226649   2.546   4.661   2.162
 8898TIP3   OH226650   2.775   7.675   6.481
 8898TIP3    H126651   2.701   7.724   6.518
 8898TIP3    H226652   2.734   7.608   6.426
 8899TIP3   OH226653   1.584   3.254   4.587
 8899TIP3    H126654   1.543   3.178   4.631
 8899TIP3    H226655   1.544   3.330   4.630
 8900TIP3   OH226656   2.501   5.139   2.267
 8900TIP3    H126657   2.534   5.049   2.273
 8900TIP3    H226658   2.406   5.129   2.260
 8901TIP3   OH226659   7.674   4.392   1.486
 8901TIP3    H126660   7.719   4.464   1.530
 8901TIP3    H226661   7.739   4.321   1.485
 8902TIP3   OH226662   6.092   7.316   2.535
 8902TIP3    H126663   6.151   7.339   2.607
 8902TIP3    H226664   6.007   7.352   2.561
 8903TIP3   OH226665   5.955   5.568   5.518
 8903TIP3    H126666   6.007   5.562   5.439
 8903TIP3    H226667   5.964   5.482   5.560
 8904TIP3   OH226668   6.724   5.303   1.200
 8904TIP3    H126669   6.750   5.210   1.203
 8904TIP3    H226670   6.653   5.309   1.264
 8905TIP3   OH226671   6.525   6.940   1.298
 8905TIP3    H126672   6.505   7.010   1.237
 8905TIP3    H226673   6.539   6.863   1.243
 8906TIP3   OH226674   3.839   5.876   3.161
 8906TIP3    H126675   3.814   5.903   3.250
 8906TIP3    H226676   3.855   5.782   3.168
 8907TIP3   OH226677   0.664   6.599   4.265
 8907TIP3    H126678   0.642   6.513   4.300
 8907TIP3    H226679   0.736   6.583   4.204
 8908TIP3   OH226680   5.429   3.286   6.179
 8908TIP3    H126681   5.503   3.225   6.185
 8908TIP3    H226682   5.462   3.358   6.125
 8909TIP3   OH226683   6.695   5.138   6.220
 8909TIP3    H126684   6.633   5.100   6.283
 8909TIP3    H226685   6.640   5.183   6.156
 8910TIP3   OH226686   1.614   5.582   1.616
 8910TIP3    H126687   1.636   5.494   1.586
 8910TIP3    H226688   1.656   5.589   1.702
 8911TIP3   OH226689   3.689   0.139   2.558
 8911TIP3    H126690   3.677   0.091   2.476
 8911TIP3    H226691   3.659   0.228   2.538
 8912TIP3   OH226692   6.305   0.217   4.085
 8912TIP3    H126693   6.391   0.191   4.052
 8912TIP3    H226694   6.323   0.258   4.170
 8913TIP3   OH226695   4.711   2.137   1.406
 8913TIP3    H126696   4.764   2.135   1.486
 8913TIP3    H226697   4.730   2.053   1.364
 8914TIP3   OH226698   0.461   3.946   0.254
 8914TIP3    H126699   0.452   3.951   0.349
 8914TIP3    H226700   0.481   4.036   0.227
 8915TIP3   OH226701   0.696   7.094   0.220
 8915TIP3    H126702   0.626   7.107   0.156
 8915TIP3    H226703   0.764   7.156   0.194
 8916TIP3   OH226704   4.917   5.477   1.254
 8916TIP3    H126705   4.891   5.431   1.174
 8916TIP3    H226706   4.839   5.525   1.281
 8917TIP3   OH226707   4.097   5.821   1.133
 8917TIP3    H126708   4.115   5.909   1.100
 8917TIP3    H226709   4.131   5.763   1.065
 8918TIP3   OH226710   6.671   2.385   3.398
 8918TIP3    H126711   6.651   2.316   3.335
 8918TIP3    H226712   6.669   2.466   3.347
 8919TIP3   OH226713   3.317   3.734   2.788
 8919TIP3    H126714   3.361   3.720   2.703
 8919TIP3    H226715   3.384   3.712   2.853
 8920TIP3   OH226716   0.631   1.400   1.076
 8920TIP3    H126717   0.608   1.408   1.168
 8920TIP3    H226718   0.701   1.335   1.074
 8921TIP3   OH226719   2.882   4.828   3.116
 8921TIP3    H126720   2.945   4.796   3.181
 8921TIP3    H226721   2.827   4.890   3.164
 8922TIP3   OH226722   7.356   6.795   5.166
 8922TIP3    H126723   7.396   6.744   5.095
 8922TIP3    H226724   7.429   6.814   5.225
 8923TIP3   OH226725   0.273   5.261   2.388
 8923TIP3    H126726   0.342   5.279   2.452
 8923TIP3    H226727   0.304   5.185   2.340
 8924TIP3   OH226728   7.437   4.391   3.531
 8924TIP3    H126729   7.384   4.459   3.571
 8924TIP3    H226730   7.465   4.335   3.604
 8925TIP3   OH226731   0.860   2.667   1.791
 8925TIP3    H126732   0.822   2.579   1.792
 8925TIP3    H226733   0.813   2.714   1.860
 8926TIP3   OH226734   2.915   3.056   5.627
 8926TIP3    H126735   2.840   3.055   5.568
 8926TIP3    H226736   2.991   3.042   5.571
 8927TIP3   OH226737   1.893   1.342   4.482
 8927TIP3    H126738   1.857   1.257   4.509
 8927TIP3    H226739   1.957   1.363   4.551
 8928TIP3   OH226740   5.743   3.307   5.735
 8928TIP3    H126741   5.651   3.308   5.762
 8928TIP3    H226742   5.775   3.221   5.761
 8929TIP3   OH226743   2.438   3.285   5.654
 8929TIP3    H126744   2.399   3.339   5.586
 8929TIP3    H226745   2.364   3.256   5.708
 8930TIP3   OH226746   7.096   1.563   4.384
 8930TIP3    H126747   7.116   1.478   4.422
 8930TIP3    H226748   7.182   1.605   4.374
 8931TIP3   OH226749   7.171   2.660   1.661
 8931TIP3    H126750   7.172   2.747   1.621
 8931TIP3    H226751   7.123   2.672   1.743
 8932TIP3   OH226752   1.659   2.903   6.529
 8932TIP3    H126753   1.736   2.916   6.474
 8932TIP3    H226754   1.613   2.830   6.488
 8933TIP3   OH226755   4.556   4.491   4.160
 8933TIP3    H126756   4.515   4.528   4.082
 8933TIP3    H226757   4.486   4.444   4.205
 8934TIP3   OH226758   0.490   0.542   3.752
 8934TIP3    H126759   0.513   0.458   3.713
 8934TIP3    H226760   0.395   0.538   3.764
 8935TIP3   OH226761   6.702   6.775   3.659
 8935TIP3    H126762   6.712   6.781   3.754
 8935TIP3    H226763   6.773   6.718   3.631
 8936TIP3   OH226764   0.155   4.577   5.671
 8936TIP3    H126765   0.134   4.619   5.588
 8936TIP3    H226766   0.245   4.603   5.689
 8937TIP3   OH226767   6.242   3.658   0.661
 8937TIP3    H126768   6.191   3.588   0.703
 8937TIP3    H226769   6.217   3.653   0.569
 8938TIP3   OH226770   5.429   3.772   5.979
 8938TIP3    H126771   5.509   3.823   5.991
 8938TIP3    H226772   5.359   3.837   5.977
 8939TIP3   OH226773   7.794   3.717   3.859
 8939TIP3    H126774   7.774   3.644   3.918
 8939TIP3    H226775   7.775   3.683   3.772
 8940TIP3   OH226776   1.406   0.199   4.259
 8940TIP3    H126777   1.428   0.284   4.223
 8940TIP3    H226778   1.407   0.212   4.354
 8941TIP3   OH226779   5.873   2.499   5.156
 8941TIP3    H126780   5.903   2.470   5.070
 8941TIP3    H226781   5.946   2.550   5.191
 8942TIP3   OH226782   4.213   5.314   5.202
 8942TIP3    H126783   4.124   5.293   5.175
 8942TIP3    H226784   4.261   5.321   5.119
 8943TIP3   OH226785   1.494   4.182   4.596
 8943TIP3    H126786   1.444   4.102   4.577
 8943TIP3    H226787   1.487   4.193   4.691
 8944TIP3   OH226788   3.561   1.515   1.396
 8944TIP3    H126789   3.487   1.462   1.425
 8944TIP3    H226790   3.577   1.487   1.306
 8945TIP3   OH226791   6.637   3.968   5.826
 8945TIP3    H126792   6.712   4.028   5.830
 8945TIP3    H226793   6.670   3.892   5.777
 8946TIP3   OH226794   5.894   5.343   4.682
 8946TIP3    H126795   5.944   5.386   4.613
 8946TIP3    H226796   5.870   5.414   4.742
 8947TIP3   OH226797   5.173   1.393   0.191
 8947TIP3    H126798   5.263   1.360   0.186
 8947TIP3    H226799   5.176   1.476   0.144
 8948TIP3   OH226800   5.047   0.452   4.933
 8948TIP3    H126801   5.135   0.429   4.964
 8948TIP3    H226802   5.058   0.537   4.892
 8949TIP3   OH226803   3.646   4.492   6.270
 8949TIP3    H126804   3.639   4.525   6.181
 8949TIP3    H226805   3.711   4.422   6.265
 8950TIP3   OH226806   6.679   0.090   5.031
 8950TIP3    H126807   6.652   0.126   4.946
 8950TIP3    H226808   6.714   0.165   5.078
 8951TIP3   OH226809   2.839   4.074   6.118
 8951TIP3    H126810   2.833   4.166   6.142
 8951TIP3    H226811   2.766   4.061   6.056
 8952TIP3   OH226812   4.731   1.672   0.046
 8952TIP3    H126813   4.662   1.607   0.034
 8952TIP3    H226814   4.685   1.751   0.075
 8953TIP3   OH226815   4.015   4.004   0.868
 8953TIP3    H126816   4.043   3.941   0.801
 8953TIP3    H226817   4.043   3.965   0.951
 8954TIP3   OH226818   5.576   2.515   1.077
 8954TIP3    H126819   5.592   2.531   0.984
 8954TIP3    H226820   5.484   2.536   1.089
 8955TIP3   OH226821   3.660   3.460   4.121
 8955TIP3    H126822   3.611   3.378   4.128
 8955TIP3    H226823   3.628   3.501   4.040
 8956TIP3   OH226824   5.650   2.342   2.451
 8956TIP3    H126825   5.653   2.290   2.370
 8956TIP3    H226826   5.731   2.393   2.449
 8957TIP3   OH226827   6.817   5.535   1.372
 8957TIP3    H126828   6.890   5.488   1.332
 8957TIP3    H226829   6.772   5.469   1.425
 8958TIP3   OH226830   4.627   3.619   0.605
 8958TIP3    H126831   4.675   3.647   0.528
 8958TIP3    H226832   4.628   3.695   0.663
 8959TIP3   OH226833   6.872   1.999   3.743
 8959TIP3    H126834   6.965   1.997   3.719
 8959TIP3    H226835   6.826   2.003   3.659
 8960TIP3   OH226836   4.321   7.693   3.470
 8960TIP3    H126837   4.274   7.698   3.386
 8960TIP3    H226838   4.265   7.639   3.525
 8961TIP3   OH226839   5.319   7.639   4.207
 8961TIP3    H126840   5.409   7.669   4.209
 8961TIP3    H226841   5.272   7.703   4.154
 8962TIP3   OH226842   5.424   0.790   4.374
 8962TIP3    H126843   5.400   0.833   4.457
 8962TIP3    H226844   5.519   0.796   4.371
 8963TIP3   OH226845   2.750   2.684   1.340
 8963TIP3    H126846   2.719   2.730   1.418
 8963TIP3    H226847   2.798   2.751   1.290
 8964TIP3   OH226848   1.033   1.943   5.969
 8964TIP3    H126849   1.105   1.996   5.935
 8964TIP3    H226850   1.060   1.922   6.059
 8965TIP3   OH226851   3.698   4.913   6.626
 8965TIP3    H126852   3.677   4.856   6.700
 8965TIP3    H226853   3.734   4.853   6.560
 8966TIP3   OH226854   5.440   3.206   3.995
 8966TIP3    H126855   5.391   3.197   3.913
 8966TIP3    H226856   5.521   3.157   3.980
 8967TIP3   OH226857   2.881   5.657   3.625
 8967TIP3    H126858   2.976   5.649   3.633
 8967TIP3    H226859   2.847   5.628   3.710
 8968TIP3   OH226860   4.066   5.675   1.355
 8968TIP3    H126861   4.065   5.719   1.270
 8968TIP3    H226862   4.131   5.725   1.406
 8969TIP3   OH226863   1.994   1.564   0.804
 8969TIP3    H126864   1.967   1.637   0.749
 8969TIP3    H226865   1.971   1.486   0.754
 8970TIP3   OH226866   5.682   2.669   4.383
 8970TIP3    H126867   5.668   2.701   4.293
 8970TIP3    H226868   5.767   2.625   4.379
 8971TIP3   OH226869   6.873   0.463   2.949
 8971TIP3    H126870   6.897   0.401   3.018
 8971TIP3    H226871   6.939   0.449   2.881
 8972TIP3   OH226872   2.697   2.217   0.606
 8972TIP3    H126873   2.633   2.148   0.621
 8972TIP3    H226874   2.668   2.289   0.662
 8973TIP3   OH226875   7.110   5.077   6.266
 8973TIP3    H126876   7.146   5.150   6.217
 8973TIP3    H226877   7.113   5.105   6.357
 8974TIP3   OH226878   7.144   6.127   0.218
 8974TIP3    H126879   7.113   6.215   0.239
 8974TIP3    H226880   7.103   6.071   0.284
 8975TIP3   OH226881   4.086   1.742   0.987
 8975TIP3    H126882   4.156   1.708   0.931
 8975TIP3    H226883   4.036   1.665   1.012
 8976TIP3   OH226884   3.524   2.121   3.047
 8976TIP3    H126885   3.537   2.114   3.141
 8976TIP3    H226886   3.612   2.107   3.010
 8977TIP3   OH226887   5.785   5.995   6.267
 8977TIP3    H126888   5.775   5.902   6.287
 8977TIP3    H226889   5.809   6.036   6.350
 8978TIP3   OH226890   4.687   1.057   2.734
 8978TIP3    H126891   4.603   1.030   2.770
 8978TIP3    H226892   4.712   1.133   2.787
 8979TIP3   OH226893   0.545   5.771   0.184
 8979TIP3    H126894   0.455   5.742   0.198
 8979TIP3    H226895   0.537   5.856   0.139
 8980TIP3   OH226896   4.163   0.685   3.349
 8980TIP3    H126897   4.188   0.676   3.257
 8980TIP3    H226898   4.126   0.600   3.373
 8981TIP3   OH226899   5.288   1.217   4.333
 8981TIP3    H126900   5.377   1.182   4.330
 8981TIP3    H226901   5.300   1.312   4.336
 8982TIP3   OH226902   3.871   6.338   2.030
 8982TIP3    H126903   3.855   6.291   2.112
 8982TIP3    H226904   3.785   6.347   1.990
 8983TIP3   OH226905   6.359   2.047   1.498
 8983TIP3    H126906   6.311   1.973   1.460
 8983TIP3    H226907   6.409   2.008   1.570
 8984TIP3   OH226908   7.726   0.950   2.279
 8984TIP3    H126909   7.791   1.020   2.281
 8984TIP3    H226910   7.771   0.875   2.319
 8985TIP3   OH226911   7.528   4.031   6.530
 8985TIP3    H126912   7.442   4.056   6.497
 8985TIP3    H226913   7.538   4.080   6.611
 8986TIP3   OH226914   7.446   6.089   3.858
 8986TIP3    H126915   7.526   6.104   3.807
 8986TIP3    H226916   7.445   5.994   3.874
 8987TIP3   OH226917   7.789   6.491   2.055
 8987TIP3    H126918   7.759   6.415   2.106
 8987TIP3    H226919   7.884   6.482   2.050
 8988TIP3   OH226920   4.793   4.697   5.081
 8988TIP3    H126921   4.764   4.638   5.011
 8988TIP3    H226922   4.837   4.640   5.144
 8989TIP3   OH226923   0.796   5.403   4.393
 8989TIP3    H126924   0.854   5.478   4.377
 8989TIP3    H226925   0.855   5.330   4.409
 8990TIP3   OH226926   3.380   0.789   5.133
 8990TIP3    H126927   3.397   0.815   5.042
 8990TIP3    H226928   3.403   0.696   5.136
 8991TIP3   OH226929   7.205   5.852   6.711
 8991TIP3    H126930   7.256   5.799   6.773
 8991TIP3    H226931   7.202   5.939   6.751
 8992TIP3   OH226932   6.218   4.301   3.594
 8992TIP3    H126933   6.184   4.389   3.610
 8992TIP3    H226934   6.185   4.279   3.507
 8993TIP3   OH226935   7.610   0.726   4.184
 8993TIP3    H126936   7.527   0.773   4.175
 8993TIP3    H226937   7.600   0.648   4.131
 8994TIP3   OH226938   6.079   7.693   3.874
 8994TIP3    H126939   6.082   7.598   3.883
 8994TIP3    H226940   6.027   7.708   3.795
 8995TIP3   OH226941   2.452   6.046   6.592
 8995TIP3    H126942   2.373   5.993   6.597
 8995TIP3    H226943   2.439   6.104   6.517
 8996TIP3   OH226944   7.000   5.226   4.511
 8996TIP3    H126945   6.943   5.166   4.560
 8996TIP3    H226946   7.087   5.185   4.515
 8997TIP3   OH226947   0.574   5.006   6.394
 8997TIP3    H126948   0.667   5.021   6.379
 8997TIP3    H226949   0.571   4.931   6.454
 8998TIP3   OH226950   3.417   1.730   1.354
 8998TIP3    H126951   3.458   1.649   1.383
 8998TIP3    H226952   3.395   1.714   1.262
 8999TIP3   OH226953   2.310   0.297   6.121
 8999TIP3    H126954   2.274   0.343   6.197
 8999TIP3    H226955   2.241   0.302   6.055
 9000TIP3   OH226956   2.298   2.699   3.360
 9000TIP3    H126957   2.330   2.703   3.450
 9000TIP3    H226958   2.361   2.644   3.314
 9001TIP3   OH226959   3.505   5.523   1.701
 9001TIP3    H126960   3.477   5.450   1.755
 9001TIP3    H226961   3.537   5.588   1.763
 9002TIP3   OH226962   2.857   6.328   3.957
 9002TIP3    H126963   2.839   6.259   3.894
 9002TIP3    H226964   2.791   6.316   4.026
 9003TIP3   OH226965   0.177   0.460   0.320
 9003TIP3    H126966   0.128   0.421   0.248
 9003TIP3    H226967   0.179   0.554   0.300
 9004TIP3   OH226968   4.736   1.946   5.300
 9004TIP3    H126969   4.808   2.000   5.267
 9004TIP3    H226970   4.659   2.003   5.294
 9005TIP3   OH226971   3.168   4.746   5.213
 9005TIP3    H126972   3.096   4.762   5.151
 9005TIP3    H226973   3.143   4.795   5.292
 9006TIP3   OH226974   5.741   2.693   1.745
 9006TIP3    H126975   5.804   2.724   1.810
 9006TIP3    H226976   5.673   2.761   1.744
 9007TIP3   OH226977   7.350   2.626   3.876
 9007TIP3    H126978   7.437   2.616   3.836
 9007TIP3    H226979   7.356   2.576   3.957
 9008TIP3   OH226980   7.560   6.366   0.459
 9008TIP3    H126981   7.644   6.394   0.495
 9008TIP3    H226982   7.546   6.279   0.496
 9009TIP3   OH226983   4.346   5.372   4.966
 9009TIP3    H126984   4.290   5.388   4.891
 9009TIP3    H226985   4.408   5.306   4.936
 9010TIP3   OH226986   4.737   0.417   4.467
 9010TIP3    H126987   4.709   0.404   4.558
 9010TIP3    H226988   4.699   0.343   4.419
 9011TIP3   OH226989   8.000   6.004   0.937
 9011TIP3    H126990   7.994   5.946   0.861
 9011TIP3    H226991   7.910   6.020   0.963
 9012TIP3   OH226992   0.398   6.593   5.471
 9012TIP3    H126993   0.395   6.588   5.376
 9012TIP3    H226994   0.369   6.507   5.501
 9013TIP3   OH226995   3.716   4.632   2.889
 9013TIP3    H126996   3.663   4.622   2.968
 9013TIP3    H226997   3.769   4.552   2.885
 9014TIP3   OH226998   6.586   4.334   6.216
 9014TIP3    H126999   6.598   4.239   6.211
 9014TIP3    H227000   6.575   4.361   6.124
 9015TIP3   OH227001   5.580   2.737   4.923
 9015TIP3    H127002   5.558   2.727   4.830
 9015TIP3    H227003   5.595   2.647   4.954
 9016TIP3   OH227004   1.950   2.997   2.771
 9016TIP3    H127005   1.929   2.922   2.715
 9016TIP3    H227006   1.920   2.969   2.858
 9017TIP3   OH227007   5.335   1.361   5.954
 9017TIP3    H127008   5.264   1.425   5.949
 9017TIP3    H227009   5.331   1.329   6.044
 9018TIP3   OH227010   5.986   5.870   2.511
 9018TIP3    H127011   6.013   5.793   2.562
 9018TIP3    H227012   6.032   5.943   2.552
 9019TIP3   OH227013   6.031   2.752   3.479
 9019TIP3    H127014   6.004   2.669   3.440
 9019TIP3    H227015   6.015   2.742   3.572
 9020TIP3   OH227016   7.606   4.883   0.219
 9020TIP3    H127017   7.672   4.816   0.202
 9020TIP3    H227018   7.656   4.964   0.228
 9021TIP3   OH227019   7.678   3.332   5.088
 9021TIP3    H127020   7.633   3.297   5.165
 9021TIP3    H227021   7.689   3.256   5.030
 9022TIP3   OH227022   4.219   5.762   4.285
 9022TIP3    H127023   4.304   5.790   4.320
 9022TIP3    H227024   4.161   5.763   4.361
 9023TIP3   OH227025   3.079   2.969   3.303
 9023TIP3    H127026   3.152   2.912   3.328
 9023TIP3    H227027   3.001   2.913   3.310
 9024TIP3   OH227028   2.928   3.955   3.939
 9024TIP3    H127029   2.869   3.900   3.991
 9024TIP3    H227030   2.961   4.020   4.001
 9025TIP3   OH227031   6.237   7.286   3.569
 9025TIP3    H127032   6.258   7.193   3.562
 9025TIP3    H227033   6.287   7.328   3.499
 9026TIP3   OH227034   5.856   0.983   3.685
 9026TIP3    H127035   5.777   1.033   3.702
 9026TIP3    H227036   5.924   1.026   3.737
 9027TIP3   OH227037   7.940   4.458   3.010
 9027TIP3    H127038   7.956   4.524   2.942
 9027TIP3    H227039   7.978   4.495   3.089
 9028TIP3   OH227040   5.120   0.794   2.137
 9028TIP3    H127041   5.058   0.783   2.209
 9028TIP3    H227042   5.188   0.728   2.153
 9029TIP3   OH227043   3.157   5.375   2.988
 9029TIP3    H127044   3.119   5.427   2.917
 9029TIP3    H227045   3.128   5.286   2.971
 9030TIP3   OH227046   5.822   3.366   6.674
 9030TIP3    H127047   5.849   3.454   6.699
 9030TIP3    H227048   5.728   3.373   6.660
 9031TIP3   OH227049   6.957   4.163   4.339
 9031TIP3    H127050   6.921   4.233   4.393
 9031TIP3    H227051   7.040   4.141   4.381
 9032TIP3   OH227052   2.355   5.008   1.324
 9032TIP3    H127053   2.326   5.012   1.233
 9032TIP3    H227054   2.326   4.921   1.354
 9033TIP3   OH227055   0.454   0.104   0.716
 9033TIP3    H127056   0.369   0.114   0.760
 9033TIP3    H227057   0.510   0.170   0.757
 9034TIP3   OH227058   4.130   0.171   6.330
 9034TIP3    H127059   4.129   0.118   6.410
 9034TIP3    H227060   4.147   0.108   6.260
 9035TIP3   OH227061   3.073   3.628   6.009
 9035TIP3    H127062   3.034   3.673   5.934
 9035TIP3    H227063   3.010   3.641   6.081
 9036TIP3   OH227064   8.214   2.713   1.415
 9036TIP3    H127065   8.147   2.667   1.363
 9036TIP3    H227066   8.171   2.734   1.497
 9037TIP3   OH227067   3.681   5.235   1.721
 9037TIP3    H127068   3.721   5.255   1.637
 9037TIP3    H227069   3.732   5.285   1.785
 9038TIP3   OH227070   0.193   2.558   1.928
 9038TIP3    H127071   0.145   2.475   1.926
 9038TIP3    H227072   0.254   2.549   2.001
 9039TIP3   OH227073   6.442   6.968   2.265
 9039TIP3    H127074   6.357   6.928   2.279
 9039TIP3    H227075   6.473   6.991   2.353
 9040TIP3   OH227076   2.344   5.462   5.438
 9040TIP3    H127077   2.358   5.384   5.385
 9040TIP3    H227078   2.397   5.448   5.516
 9041TIP3   OH227079   1.235   3.216   5.051
 9041TIP3    H127080   1.152   3.263   5.040
 9041TIP3    H227081   1.209   3.126   5.069
 9042TIP3   OH227082   2.895   3.234   1.730
 9042TIP3    H127083   2.942   3.205   1.651
 9042TIP3    H227084   2.820   3.283   1.696
 9043TIP3   OH227085   2.250   0.371   6.372
 9043TIP3    H127086   2.318   0.414   6.425
 9043TIP3    H227087   2.236   0.286   6.414
 9044TIP3   OH227088   4.542   6.598   2.741
 9044TIP3    H127089   4.507   6.654   2.810
 9044TIP3    H227090   4.566   6.658   2.670
 9045TIP3   OH227091   1.596   5.496   0.611
 9045TIP3    H127092   1.653   5.508   0.535
 9045TIP3    H227093   1.653   5.455   0.676
 9046TIP3   OH227094   5.354   1.251   5.330
 9046TIP3    H127095   5.395   1.167   5.309
 9046TIP3    H227096   5.261   1.236   5.316
 9047TIP3   OH227097   7.271   0.605   4.189
 9047TIP3    H127098   7.253   0.555   4.269
 9047TIP3    H227099   7.196   0.587   4.133
 9048TIP3   OH227100  -0.002   6.672   4.984
 9048TIP3    H127101   0.018   6.663   5.077
 9048TIP3    H227102   0.076   6.712   4.946
 9049TIP3   OH227103   0.104   3.405   5.568
 9049TIP3    H127104   0.010   3.422   5.564
 9049TIP3    H227105   0.114   3.319   5.527
 9050TIP3   OH227106   6.500   5.683   0.712
 9050TIP3    H127107   6.505   5.777   0.725
 9050TIP3    H227108   6.591   5.653   0.714
 9051TIP3   OH227109   8.273   5.815   2.509
 9051TIP3    H127110   8.190   5.776   2.535
 9051TIP3    H227111   8.252   5.866   2.431
 9052TIP3   OH227112   2.936   5.318   3.436
 9052TIP3    H127113   2.886   5.273   3.505
 9052TIP3    H227114   2.984   5.248   3.391
 9053TIP3   OH227115   7.088   7.832   6.767
 9053TIP3    H127116   6.999   7.865   6.756
 9053TIP3    H227117   7.077   7.737   6.779
 9054TIP3   OH227118   1.754   2.305   6.407
 9054TIP3    H127119   1.738   2.361   6.483
 9054TIP3    H227120   1.766   2.366   6.335
 9055TIP3   OH227121   2.033   4.652   4.367
 9055TIP3    H127122   1.958   4.689   4.321
 9055TIP3    H227123   2.043   4.564   4.332
 9056TIP3   OH227124   1.058   4.648   3.717
 9056TIP3    H127125   1.007   4.571   3.741
 9056TIP3    H227126   1.144   4.614   3.693
 9057TIP3   OH227127   6.431   4.173   1.345
 9057TIP3    H127128   6.446   4.202   1.255
 9057TIP3    H227129   6.336   4.158   1.350
 9058TIP3   OH227130   7.814   3.771   2.971
 9058TIP3    H127131   7.910   3.768   2.962
 9058TIP3    H227132   7.789   3.852   2.927
 9059TIP3   OH227133   4.812   7.290   6.274
 9059TIP3    H127134   4.811   7.313   6.181
 9059TIP3    H227135   4.888   7.233   6.284
 9060TIP3   OH227136   6.515   1.535   5.055
 9060TIP3    H127137   6.536   1.459   5.110
 9060TIP3    H227138   6.445   1.503   4.998
 9061TIP3   OH227139   6.340   1.084   6.043
 9061TIP3    H127140   6.312   1.126   6.124
 9061TIP3    H227141   6.263   1.036   6.012
 9062TIP3   OH227142   5.777   2.937   4.956
 9062TIP3    H127143   5.849   2.919   4.895
 9062TIP3    H227144   5.712   2.869   4.938
 9063TIP3   OH227145   4.173   3.309   0.303
 9063TIP3    H127146   4.200   3.218   0.294
 9063TIP3    H227147   4.224   3.356   0.238
 9064TIP3   OH227148   2.233   4.534   2.022
 9064TIP3    H127149   2.221   4.445   2.057
 9064TIP3    H227150   2.327   4.546   2.020
 9065TIP3   OH227151   1.855   3.537   2.894
 9065TIP3    H127152   1.780   3.543   2.836
 9065TIP3    H227153   1.846   3.452   2.937
 9066TIP3   OH227154   4.475   3.201   5.589
 9066TIP3    H127155   4.540   3.188   5.658
 9066TIP3    H227156   4.392   3.213   5.635
 9067TIP3   OH227157   2.676   4.712   3.456
 9067TIP3    H127158   2.725   4.708   3.538
 9067TIP3    H227159   2.716   4.785   3.408
 9068TIP3   OH227160   6.880   5.729   3.542
 9068TIP3    H127161   6.963   5.775   3.531
 9068TIP3    H227162   6.833   5.746   3.460
 9069TIP3   OH227163   0.062   1.253   4.072
 9069TIP3    H127164   0.104   1.331   4.038
 9069TIP3    H227165   0.094   1.245   4.161
 9070TIP3   OH227166   6.498   3.906   4.815
 9070TIP3    H127167   6.500   3.814   4.842
 9070TIP3    H227168   6.564   3.912   4.746
 9071TIP3   OH227169   2.474   7.004   2.285
 9071TIP3    H127170   2.428   7.076   2.327
 9071TIP3    H227171   2.456   7.016   2.191
 9072TIP3   OH227172   6.348   4.969   2.443
 9072TIP3    H127173   6.339   5.015   2.360
 9072TIP3    H227174   6.413   5.019   2.492
 9073TIP3   OH227175   1.931   0.638   6.486
 9073TIP3    H127176   1.944   0.545   6.507
 9073TIP3    H227177   1.870   0.669   6.554
 9074TIP3   OH227178   1.750   0.827   1.267
 9074TIP3    H127179   1.728   0.892   1.333
 9074TIP3    H227180   1.731   0.743   1.308
 9075TIP3   OH227181   1.083   7.337   4.180
 9075TIP3    H127182   1.040   7.277   4.119
 9075TIP3    H227183   1.012   7.385   4.222
 9076TIP3   OH227184   0.974   6.707   2.326
 9076TIP3    H127185   0.970   6.761   2.405
 9076TIP3    H227186   1.023   6.629   2.354
 9077TIP3   OH227187   0.699   3.648   1.619
 9077TIP3    H127188   0.693   3.561   1.659
 9077TIP3    H227189   0.660   3.637   1.532
 9078TIP3   OH227190   4.664   6.075   2.286
 9078TIP3    H127191   4.728   6.144   2.307
 9078TIP3    H227192   4.585   6.101   2.333
 9079TIP3   OH227193   2.117   2.043   4.720
 9079TIP3    H127194   2.143   2.007   4.805
 9079TIP3    H227195   2.022   2.053   4.725
 9080TIP3   OH227196   5.781   3.425   0.095
 9080TIP3    H127197   5.834   3.366   0.149
 9080TIP3    H227198   5.760   3.374   0.017
 9081TIP3   OH227199   2.370   2.337   3.400
 9081TIP3    H127200   2.365   2.259   3.345
 9081TIP3    H227201   2.407   2.306   3.483
 9082TIP3   OH227202   3.142   3.624   3.033
 9082TIP3    H127203   3.154   3.682   3.108
 9082TIP3    H227204   3.077   3.667   2.979
 9083TIP3   OH227205   0.851   7.815   2.316
 9083TIP3    H127206   0.878   7.824   2.224
 9083TIP3    H227207   0.779   7.752   2.314
 9084TIP3   OH227208   6.563   6.500   3.193
 9084TIP3    H127209   6.629   6.447   3.146
 9084TIP3    H227210   6.484   6.445   3.192
 9085TIP3   OH227211   4.020   7.444   4.915
 9085TIP3    H127212   4.082   7.516   4.901
 9085TIP3    H227213   3.965   7.472   4.988
 9086TIP3   OH227214   1.428   6.079   5.775
 9086TIP3    H127215   1.430   6.042   5.687
 9086TIP3    H227216   1.520   6.092   5.798
 9087TIP3   OH227217   0.953   6.713   6.665
 9087TIP3    H127218   0.981   6.622   6.677
 9087TIP3    H227219   1.022   6.765   6.707
 9088TIP3   OH227220   5.065   5.977   5.114
 9088TIP3    H127221   5.108   6.040   5.172
 9088TIP3    H227222   5.101   5.996   5.027
 9089TIP3   OH227223   7.444   2.256   0.241
 9089TIP3    H127224   7.405   2.173   0.212
 9089TIP3    H227225   7.521   2.230   0.291
 9090TIP3   OH227226   6.887   4.288   4.581
 9090TIP3    H127227   6.965   4.268   4.633
 9090TIP3    H227228   6.818   4.234   4.619
 9091TIP3   OH227229   7.375   3.731   0.889
 9091TIP3    H127230   7.320   3.808   0.873
 9091TIP3    H227231   7.459   3.767   0.918
 9092TIP3   OH227232   1.495   3.631   4.979
 9092TIP3    H127233   1.467   3.543   4.954
 9092TIP3    H227234   1.587   3.635   4.951
 9093TIP3   OH227235   4.285   1.155   6.070
 9093TIP3    H127236   4.337   1.124   6.144
 9093TIP3    H227237   4.273   1.077   6.015
 9094TIP3   OH227238   0.027   4.169   2.728
 9094TIP3    H127239   0.087   4.137   2.796
 9094TIP3    H227240   0.047   4.114   2.652
 9095TIP3   OH227241   1.139   5.831   0.274
 9095TIP3    H127242   1.087   5.861   0.200
 9095TIP3    H227243   1.161   5.911   0.322
 9096TIP3   OH227244   2.958   2.284   1.042
 9096TIP3    H127245   2.988   2.374   1.031
 9096TIP3    H227246   2.940   2.276   1.136
 9097TIP3   OH227247   7.306   6.121   2.411
 9097TIP3    H127248   7.222   6.168   2.404
 9097TIP3    H227249   7.282   6.028   2.406
 9098TIP3   OH227250   4.227   6.635   6.261
 9098TIP3    H127251   4.199   6.588   6.340
 9098TIP3    H227252   4.240   6.566   6.196
 9099TIP3   OH227253   0.603   0.058   6.697
 9099TIP3    H127254   0.674   0.071   6.761
 9099TIP3    H227255   0.530   0.024   6.749
 9100TIP3   OH227256   7.573   6.621   3.983
 9100TIP3    H127257   7.586   6.661   3.897
 9100TIP3    H227258   7.479   6.606   3.988
 9101TIP3   OH227259   3.693   7.379   3.930
 9101TIP3    H127260   3.641   7.381   4.011
 9101TIP3    H227261   3.776   7.338   3.956
 9102TIP3   OH227262   7.959   3.844   5.478
 9102TIP3    H127263   8.046   3.812   5.500
 9102TIP3    H227264   7.901   3.769   5.490
 9103TIP3   OH227265   2.043   3.768   0.906
 9103TIP3    H127266   2.080   3.840   0.856
 9103TIP3    H227267   1.964   3.743   0.857
 9104TIP3   OH227268   6.519   3.693   1.406
 9104TIP3    H127269   6.560   3.777   1.385
 9104TIP3    H227270   6.425   3.711   1.407
 9105TIP3   OH227271   3.236   0.859   0.189
 9105TIP3    H127272   3.219   0.817   0.273
 9105TIP3    H227273   3.161   0.836   0.135
 9106TIP3   OH227274   3.450   5.372   3.990
 9106TIP3    H127275   3.441   5.289   4.037
 9106TIP3    H227276   3.472   5.436   4.057
 9107TIP3   OH227277   5.901   2.185   3.317
 9107TIP3    H127278   5.889   2.128   3.241
 9107TIP3    H227279   5.834   2.156   3.379
 9108TIP3   OH227280   3.118   4.041   6.364
 9108TIP3    H127281   3.024   4.034   6.381
 9108TIP3    H227282   3.125   4.038   6.268
 9109TIP3   OH227283   3.963   3.486   4.390
 9109TIP3    H127284   3.911   3.407   4.410
 9109TIP3    H227285   3.934   3.512   4.303
 9110TIP3   OH227286   8.205   2.078   3.008
 9110TIP3    H127287   8.265   2.006   3.024
 9110TIP3    H227288   8.245   2.153   3.052
 9111TIP3   OH227289   0.532   1.480   0.121
 9111TIP3    H127290   0.606   1.430   0.157
 9111TIP3    H227291   0.467   1.414   0.099
 9112TIP3   OH227292   1.762   2.733   1.551
 9112TIP3    H127293   1.828   2.759   1.487
 9112TIP3    H227294   1.765   2.801   1.618
 9113TIP3   OH227295   6.679   5.481   3.362
 9113TIP3    H127296   6.703   5.571   3.386
 9113TIP3    H227297   6.654   5.487   3.270
 9114TIP3   OH227298   8.057   0.567   1.247
 9114TIP3    H127299   8.065   0.556   1.152
 9114TIP3    H227300   8.146   0.553   1.280
 9115TIP3   OH227301   7.604   0.012   6.325
 9115TIP3    H127302   7.514  -0.019   6.327
 9115TIP3    H227303   7.623   0.026   6.232
 9116TIP3   OH227304   6.305   5.657   6.187
 9116TIP3    H127305   6.235   5.717   6.213
 9116TIP3    H227306   6.360   5.647   6.264
 9117TIP3   OH227307   4.704   0.991   3.504
 9117TIP3    H127308   4.761   1.041   3.562
 9117TIP3    H227309   4.762   0.962   3.434
 9118TIP3   OH227310   2.840   7.681   2.523
 9118TIP3    H127311   2.769   7.731   2.482
 9118TIP3    H227312   2.825   7.691   2.617
 9119TIP3   OH227313   0.783   7.642   2.832
 9119TIP3    H127314   0.855   7.618   2.773
 9119TIP3    H227315   0.827   7.675   2.910
 9120TIP3   OH227316   1.330   4.740   5.617
 9120TIP3    H127317   1.372   4.693   5.545
 9120TIP3    H227318   1.274   4.675   5.659
 9121TIP3   OH227319   5.213   2.000   2.728
 9121TIP3    H127320   5.157   2.078   2.729
 9121TIP3    H227321   5.301   2.035   2.745
 9122TIP3   OH227322   2.527   6.924   1.255
 9122TIP3    H127323   2.553   6.910   1.164
 9122TIP3    H227324   2.566   7.008   1.279
 9123TIP3   OH227325   4.311   2.713   5.776
 9123TIP3    H127326   4.380   2.727   5.841
 9123TIP3    H227327   4.317   2.619   5.756
 9124TIP3   OH227328   2.883   7.337   2.105
 9124TIP3    H127329   2.951   7.350   2.039
 9124TIP3    H227330   2.892   7.412   2.164
 9125TIP3   OH227331   3.848   5.257   2.604
 9125TIP3    H127332   3.889   5.294   2.682
 9125TIP3    H227333   3.760   5.232   2.633
 9126TIP3   OH227334   5.990   4.772   3.547
 9126TIP3    H127335   6.008   4.800   3.637
 9126TIP3    H227336   6.076   4.748   3.512
 9127TIP3   OH227337   3.899   1.567   5.495
 9127TIP3    H127338   3.819   1.532   5.534
 9127TIP3    H227339   3.886   1.661   5.492
 9128TIP3   OH227340   7.443   7.483   2.982
 9128TIP3    H127341   7.441   7.401   2.932
 9128TIP3    H227342   7.519   7.530   2.948
 9129TIP3   OH227343   2.202   2.287   3.106
 9129TIP3    H127344   2.285   2.239   3.109
 9129TIP3    H227345   2.137   2.224   3.136
 9130TIP3   OH227346   3.456   4.383   4.801
 9130TIP3    H127347   3.419   4.465   4.768
 9130TIP3    H227348   3.501   4.407   4.882
 9131TIP3   OH227349   0.380   2.315   6.073
 9131TIP3    H127350   0.374   2.295   6.166
 9131TIP3    H227351   0.365   2.231   6.029
 9132TIP3   OH227352   4.464   6.144   2.448
 9132TIP3    H127353   4.443   6.236   2.432
 9132TIP3    H227354   4.461   6.136   2.543
 9133TIP3   OH227355   7.014   6.660   3.989
 9133TIP3    H127356   7.038   6.739   3.939
 9133TIP3    H227357   7.003   6.691   4.079
 9134TIP3   OH227358   1.677   4.284   6.491
 9134TIP3    H127359   1.732   4.301   6.414
 9134TIP3    H227360   1.598   4.244   6.455
 9135TIP3   OH227361   5.404   7.440   3.422
 9135TIP3    H127362   5.329   7.485   3.461
 9135TIP3    H227363   5.381   7.430   3.330
 9136TIP3   OH227364   1.157   0.891   3.025
 9136TIP3    H127365   1.206   0.972   3.015
 9136TIP3    H227366   1.134   0.866   2.935
 9137TIP3   OH227367   0.565   4.801   2.007
 9137TIP3    H127368   0.536   4.891   2.023
 9137TIP3    H227369   0.501   4.766   1.946
 9138TIP3   OH227370   0.142   2.832   1.857
 9138TIP3    H127371   0.136   2.748   1.902
 9138TIP3    H227372   0.216   2.876   1.898
 9139TIP3   OH227373   6.060   0.658   4.586
 9139TIP3    H127374   6.003   0.647   4.510
 9139TIP3    H227375   6.093   0.748   4.578
 9140TIP3   OH227376   3.140   0.904   5.208
 9140TIP3    H127377   3.073   0.842   5.178
 9140TIP3    H227378   3.223   0.866   5.177
 9141TIP3   OH227379   1.277   0.117   1.339
 9141TIP3    H127380   1.245   0.028   1.358
 9141TIP3    H227381   1.330   0.140   1.415
 9142TIP3   OH227382   0.798   7.068   4.398
 9142TIP3    H127383   0.828   7.004   4.462
 9142TIP3    H227384   0.838   7.040   4.316
 9143TIP3   OH227385   6.820   4.470   5.909
 9143TIP3    H127386   6.729   4.493   5.891
 9143TIP3    H227387   6.825   4.469   6.005
 9144TIP3   OH227388   2.044   1.009   3.891
 9144TIP3    H127389   2.052   1.101   3.866
 9144TIP3    H227390   2.065   1.009   3.985
 9145TIP3   OH227391   1.416   3.914   4.424
 9145TIP3    H127392   1.329   3.923   4.463
 9145TIP3    H227393   1.432   3.820   4.421
 9146TIP3   OH227394   5.908   4.135   3.259
 9146TIP3    H127395   5.864   4.199   3.316
 9146TIP3    H227396   5.837   4.089   3.214
 9147TIP3   OH227397   6.611   5.907   6.360
 9147TIP3    H127398   6.597   5.918   6.454
 9147TIP3    H227399   6.680   5.841   6.354
 9148TIP3   OH227400   3.945   2.935   3.349
 9148TIP3    H127401   3.940   2.860   3.289
 9148TIP3    H227402   3.869   2.925   3.406
 9149TIP3   OH227403   0.163   0.351   5.102
 9149TIP3    H127404   0.086   0.407   5.086
 9149TIP3    H227405   0.237   0.406   5.077
 9150TIP3   OH227406   4.287   0.181   5.424
 9150TIP3    H127407   4.200   0.143   5.413
 9150TIP3    H227408   4.272   0.268   5.461
 9151TIP3   OH227409   4.592   2.814   0.126
 9151TIP3    H127410   4.497   2.802   0.124
 9151TIP3    H227411   4.606   2.901   0.088
 9152TIP3   OH227412   6.609   0.416   1.089
 9152TIP3    H127413   6.631   0.426   0.997
 9152TIP3    H227414   6.514   0.425   1.092
 9153TIP3   OH227415   4.638   1.890   2.714
 9153TIP3    H127416   4.629   1.804   2.671
 9153TIP3    H227417   4.638   1.870   2.807
 9154TIP3   OH227418   2.402   2.568   3.097
 9154TIP3    H127419   2.448   2.485   3.109
 9154TIP3    H227420   2.472   2.632   3.085
 9155TIP3   OH227421   0.157   1.005   5.084
 9155TIP3    H127422   0.219   1.055   5.032
 9155TIP3    H227423   0.189   0.915   5.079
 9156TIP3   OH227424   1.761   4.176   2.623
 9156TIP3    H127425   1.709   4.107   2.581
 9156TIP3    H227426   1.786   4.235   2.552
 9157TIP3   OH227427   7.578   4.012   4.397
 9157TIP3    H127428   7.634   3.944   4.433
 9157TIP3    H227429   7.585   4.002   4.303
 9158TIP3   OH227430   2.925   1.102   3.500
 9158TIP3    H127431   2.909   1.032   3.564
 9158TIP3    H227432   2.841   1.148   3.495
 9159TIP3   OH227433   7.550   2.879   2.372
 9159TIP3    H127434   7.532   2.950   2.433
 9159TIP3    H227435   7.567   2.803   2.428
 9160TIP3   OH227436   7.915   1.568   3.227
 9160TIP3    H127437   7.996   1.593   3.271
 9160TIP3    H227438   7.856   1.643   3.240
 9161TIP3   OH227439   0.613   0.146   4.969
 9161TIP3    H127440   0.670   0.084   4.923
 9161TIP3    H227441   0.598   0.216   4.905
 9162TIP3   OH227442   6.508   3.540   1.676
 9162TIP3    H127443   6.583   3.485   1.701
 9162TIP3    H227444   6.524   3.563   1.585
 9163TIP3   OH227445   1.313   4.117   1.592
 9163TIP3    H127446   1.354   4.050   1.647
 9163TIP3    H227447   1.327   4.199   1.639
 9164TIP3   OH227448   0.155   4.408   6.417
 9164TIP3    H127449   0.179   4.317   6.400
 9164TIP3    H227450   0.076   4.403   6.470
 9165TIP3   OH227451   2.625   6.432   2.028
 9165TIP3    H127452   2.571   6.358   2.053
 9165TIP3    H227453   2.684   6.445   2.102
 9166TIP3   OH227454   6.342   3.579   4.531
 9166TIP3    H127455   6.324   3.585   4.437
 9166TIP3    H227456   6.437   3.584   4.537
 9167TIP3   OH227457   0.296   3.286   5.090
 9167TIP3    H127458   0.347   3.308   5.168
 9167TIP3    H227459   0.208   3.270   5.123
 9168TIP3   OH227460   0.036   3.235   0.486
 9168TIP3    H127461   0.023   3.146   0.519
 9168TIP3    H227462  -0.026   3.289   0.537
 9169TIP3   OH227463   2.283   0.779   3.501
 9169TIP3    H127464   2.318   0.731   3.575
 9169TIP3    H227465   2.358   0.794   3.444
 9170TIP3   OH227466   0.885   5.440   1.669
 9170TIP3    H127467   0.880   5.526   1.626
 9170TIP3    H227468   0.929   5.458   1.752
 9171TIP3   OH227469   6.169   3.892   5.715
 9171TIP3    H127470   6.246   3.948   5.703
 9171TIP3    H227471   6.161   3.882   5.810
 9172TIP3   OH227472   1.029   5.995   4.679
 9172TIP3    H127473   1.066   6.072   4.723
 9172TIP3    H227474   1.014   6.024   4.589
 9173TIP3   OH227475   2.482   3.623   5.590
 9173TIP3    H127476   2.563   3.585   5.557
 9173TIP3    H227477   2.478   3.710   5.550
 9174TIP3   OH227478   0.887   3.330   0.530
 9174TIP3    H127479   0.955   3.291   0.584
 9174TIP3    H227480   0.916   3.420   0.515
 9175TIP3   OH227481   7.368   2.714   6.705
 9175TIP3    H127482   7.316   2.769   6.763
 9175TIP3    H227483   7.311   2.699   6.629
 9176TIP3   OH227484   8.010   2.469   4.004
 9176TIP3    H127485   8.103   2.486   4.019
 9176TIP3    H227486   7.993   2.387   4.051
 9177TIP3   OH227487   3.086   5.063   1.176
 9177TIP3    H127488   3.077   5.087   1.084
 9177TIP3    H227489   3.119   5.142   1.219
 9178TIP3   OH227490   1.145   7.758   2.359
 9178TIP3    H127491   1.052   7.742   2.376
 9178TIP3    H227492   1.189   7.678   2.387
 9179TIP3   OH227493   2.103   0.909   1.572
 9179TIP3    H127494   2.175   0.846   1.570
 9179TIP3    H227495   2.143   0.992   1.545
 9180TIP3   OH227496   3.919   4.332   5.316
 9180TIP3    H127497   3.991   4.346   5.376
 9180TIP3    H227498   3.877   4.251   5.345
 9181TIP3   OH227499   5.446   5.253   5.725
 9181TIP3    H127500   5.364   5.238   5.772
 9181TIP3    H227501   5.494   5.170   5.734
 9182TIP3   OH227502   4.363   6.485   5.384
 9182TIP3    H127503   4.370   6.422   5.455
 9182TIP3    H227504   4.440   6.468   5.330
 9183TIP3   OH227505   2.607   0.394   1.994
 9183TIP3    H127506   2.644   0.343   2.067
 9183TIP3    H227507   2.684   0.432   1.951
 9184TIP3   OH227508   6.106   0.293   6.617
 9184TIP3    H127509   6.105   0.206   6.576
 9184TIP3    H227510   6.100   0.274   6.711
 9185TIP3   OH227511   2.940   4.960   6.179
 9185TIP3    H127512   3.018   5.010   6.201
 9185TIP3    H227513   2.871   4.998   6.232
 9186TIP3   OH227514   3.314   5.233   5.238
 9186TIP3    H127515   3.362   5.165   5.285
 9186TIP3    H227516   3.316   5.205   5.146
 9187TIP3   OH227517   6.340   6.967   0.978
 9187TIP3    H127518   6.303   6.967   0.890
 9187TIP3    H227519   6.264   6.976   1.036
 9188TIP3   OH227520   5.235   0.498   2.114
 9188TIP3    H127521   5.204   0.452   2.036
 9188TIP3    H227522   5.170   0.476   2.181
 9189TIP3   OH227523   2.427   0.431   2.767
 9189TIP3    H127524   2.384   0.376   2.701
 9189TIP3    H227525   2.498   0.474   2.720
 9190TIP3   OH227526   2.737   1.866   3.233
 9190TIP3    H127527   2.703   1.937   3.177
 9190TIP3    H227528   2.827   1.854   3.205
 9191TIP3   OH227529   7.772   2.217   3.765
 9191TIP3    H127530   7.758   2.182   3.853
 9191TIP3    H227531   7.691   2.265   3.744
 9192TIP3   OH227532   4.015   3.371   6.078
 9192TIP3    H127533   4.093   3.331   6.117
 9192TIP3    H227534   4.023   3.464   6.099
 9193TIP3   OH227535   4.485   5.829   4.366
 9193TIP3    H127536   4.507   5.816   4.274
 9193TIP3    H227537   4.546   5.896   4.396
 9194TIP3   OH227538   4.314   6.035   1.248
 9194TIP3    H127539   4.328   6.071   1.160
 9194TIP3    H227540   4.366   5.955   1.250
 9195TIP3   OH227541   0.086   5.898   5.294
 9195TIP3    H127542   0.160   5.839   5.311
 9195TIP3    H227543   0.031   5.889   5.372
 9196TIP3   OH227544   1.359   6.565   3.292
 9196TIP3    H127545   1.454   6.574   3.302
 9196TIP3    H227546   1.347   6.515   3.211
 9197TIP3   OH227547   2.055   4.403   5.806
 9197TIP3    H127548   2.122   4.470   5.793
 9197TIP3    H227549   2.104   4.321   5.813
 9198TIP3   OH227550   5.575   6.502   0.590
 9198TIP3    H127551   5.517   6.552   0.533
 9198TIP3    H227552   5.659   6.547   0.584
 9199TIP3   OH227553   6.106   4.021   3.730
 9199TIP3    H127554   6.018   3.990   3.709
 9199TIP3    H227555   6.149   4.028   3.645
 9200TIP3   OH227556   0.398   1.606   6.227
 9200TIP3    H127557   0.345   1.590   6.149
 9200TIP3    H227558   0.355   1.553   6.295
 9201TIP3   OH227559   3.888   2.629   6.122
 9201TIP3    H127560   3.804   2.615   6.167
 9201TIP3    H227561   3.942   2.676   6.186
 9202TIP3   OH227562   5.619   4.348   6.333
 9202TIP3    H127563   5.633   4.297   6.413
 9202TIP3    H227564   5.702   4.343   6.286
 9203TIP3   OH227565   5.361   3.203   3.694
 9203TIP3    H127566   5.335   3.114   3.672
 9203TIP3    H227567   5.456   3.205   3.679
 9204TIP3   OH227568   1.114   5.042   5.944
 9204TIP3    H127569   1.047   5.109   5.932
 9204TIP3    H227570   1.082   4.988   6.016
 9205TIP3   OH227571   7.362   2.864   3.531
 9205TIP3    H127572   7.355   2.947   3.483
 9205TIP3    H227573   7.323   2.883   3.617
 9206TIP3   OH227574   7.420   5.336   2.290
 9206TIP3    H127575   7.436   5.246   2.261
 9206TIP3    H227576   7.354   5.369   2.229
 9207TIP3   OH227577   1.353   4.783   5.970
 9207TIP3    H127578   1.369   4.692   5.945
 9207TIP3    H227579   1.258   4.793   5.962
 9208TIP3   OH227580   5.417   3.395   0.053
 9208TIP3    H127581   5.482   3.345   0.004
 9208TIP3    H227582   5.341   3.399  -0.004
 9209TIP3   OH227583   7.554   6.824   6.565
 9209TIP3    H127584   7.531   6.737   6.598
 9209TIP3    H227585   7.469   6.866   6.551
 9210TIP3   OH227586   1.727   4.361   4.188
 9210TIP3    H127587   1.768   4.281   4.221
 9210TIP3    H227588   1.791   4.397   4.126
 9211TIP3   OH227589   0.964   7.607   2.079
 9211TIP3    H127590   0.965   7.702   2.071
 9211TIP3    H227591   0.879   7.581   2.043
 9212TIP3   OH227592   7.200   0.277   3.607
 9212TIP3    H127593   7.117   0.254   3.563
 9212TIP3    H227594   7.194   0.372   3.620
 9213TIP3   OH227595   5.688   3.278   1.643
 9213TIP3    H127596   5.645   3.346   1.694
 9213TIP3    H227597   5.749   3.325   1.586
 9214TIP3   OH227598   4.548   7.174   0.336
 9214TIP3    H127599   4.601   7.133   0.268
 9214TIP3    H227600   4.524   7.259   0.300
 9215TIP3   OH227601   2.560   0.869   1.768
 9215TIP3    H127602   2.583   0.821   1.848
 9215TIP3    H227603   2.624   0.940   1.764
 9216TIP3   OH227604   3.554   5.576   2.723
 9216TIP3    H127605   3.463   5.563   2.696
 9216TIP3    H227606   3.579   5.492   2.763
 9217TIP3   OH227607   0.552   2.885   6.468
 9217TIP3    H127608   0.519   2.909   6.382
 9217TIP3    H227609   0.533   2.961   6.524
 9218TIP3   OH227610   6.656   2.728   0.148
 9218TIP3    H127611   6.671   2.818   0.118
 9218TIP3    H227612   6.650   2.735   0.243
 9219TIP3   OH227613   7.606   6.658   3.722
 9219TIP3    H127614   7.539   6.664   3.655
 9219TIP3    H227615   7.662   6.586   3.693
 9220TIP3   OH227616   2.477   2.165   5.394
 9220TIP3    H127617   2.444   2.244   5.437
 9220TIP3    H227618   2.533   2.124   5.460
 9221TIP3   OH227619   7.903   7.800   2.990
 9221TIP3    H127620   7.828   7.752   2.955
 9221TIP3    H227621   7.918   7.871   2.927
 9222TIP3   OH227622   4.705   2.122   4.387
 9222TIP3    H127623   4.726   2.072   4.466
 9222TIP3    H227624   4.780   2.108   4.329
 9223TIP3   OH227625   6.043   7.099   4.231
 9223TIP3    H127626   6.028   7.189   4.258
 9223TIP3    H227627   5.964   7.075   4.182
 9224TIP3   OH227628   5.311   4.631   4.435
 9224TIP3    H127629   5.251   4.557   4.441
 9224TIP3    H227630   5.273   4.697   4.495
 9225TIP3   OH227631   5.341   0.974   2.973
 9225TIP3    H127632   5.313   0.966   2.882
 9225TIP3    H227633   5.435   0.989   2.968
 9226TIP3   OH227634   2.328   2.804   0.702
 9226TIP3    H127635   2.244   2.760   0.715
 9226TIP3    H227636   2.313   2.894   0.730
 9227TIP3   OH227637   5.034   3.767   0.301
 9227TIP3    H127638   5.088   3.836   0.339
 9227TIP3    H227639   5.087   3.729   0.231
 9228TIP3   OH227640   1.107   4.215   4.445
 9228TIP3    H127641   1.054   4.211   4.366
 9228TIP3    H227642   1.197   4.221   4.414
 9229TIP3   OH227643   0.364   4.320   2.974
 9229TIP3    H127644   0.454   4.317   2.943
 9229TIP3    H227645   0.350   4.410   3.003
 9230TIP3   OH227646   2.774   4.434   4.887
 9230TIP3    H127647   2.801   4.343   4.895
 9230TIP3    H227648   2.688   4.438   4.931
 9231TIP3   OH227649   7.579   6.800   0.578
 9231TIP3    H127650   7.616   6.839   0.499
 9231TIP3    H227651   7.641   6.731   0.603
 9232TIP3   OH227652   3.462   2.960   6.346
 9232TIP3    H127653   3.416   2.978   6.427
 9232TIP3    H227654   3.442   3.034   6.289
 9233TIP3   OH227655   0.260   1.553   6.607
 9233TIP3    H127656   0.347   1.592   6.597
 9233TIP3    H227657   0.208   1.589   6.535
 9234TIP3   OH227658   2.177   5.276   5.965
 9234TIP3    H127659   2.122   5.237   5.897
 9234TIP3    H227660   2.135   5.360   5.984
 9235TIP3   OH227661   6.531   2.983   3.785
 9235TIP3    H127662   6.450   2.933   3.777
 9235TIP3    H227663   6.513   3.066   3.741
 9236TIP3   OH227664   3.274   6.013   1.146
 9236TIP3    H127665   3.365   5.986   1.136
 9236TIP3    H227666   3.233   5.942   1.195
 9237TIP3   OH227667   4.903   4.966   1.941
 9237TIP3    H127668   4.862   5.053   1.948
 9237TIP3    H227669   4.829   4.906   1.931
 9238TIP3   OH227670   2.156   6.714   5.354
 9238TIP3    H127671   2.110   6.649   5.301
 9238TIP3    H227672   2.243   6.721   5.314
 9239TIP3   OH227673   0.477   5.885   2.498
 9239TIP3    H127674   0.544   5.818   2.514
 9239TIP3    H227675   0.398   5.849   2.539
 9240TIP3   OH227676   4.723   0.529   1.108
 9240TIP3    H127677   4.817   0.546   1.098
 9240TIP3    H227678   4.717   0.468   1.181
 9241TIP3   OH227679   4.825   3.309   5.721
 9241TIP3    H127680   4.766   3.244   5.684
 9241TIP3    H227681   4.808   3.306   5.815
 9242TIP3   OH227682   0.434   6.901   1.186
 9242TIP3    H127683   0.410   6.878   1.276
 9242TIP3    H227684   0.368   6.856   1.133
 9243TIP3   OH227685   5.770   4.931   2.279
 9243TIP3    H127686   5.690   4.961   2.235
 9243TIP3    H227687   5.739   4.891   2.360
 9244TIP3   OH227688   6.244   1.099   4.893
 9244TIP3    H127689   6.160   1.091   4.848
 9244TIP3    H227690   6.234   1.174   4.950
 9245TIP3   OH227691   7.422   5.500   6.318
 9245TIP3    H127692   7.500   5.551   6.295
 9245TIP3    H227693   7.430   5.484   6.412
 9246TIP3   OH227694   4.019   4.614   5.079
 9246TIP3    H127695   3.940   4.626   5.132
 9246TIP3    H227696   3.996   4.646   4.992
 9247TIP3   OH227697   7.695   1.419   6.756
 9247TIP3    H127698   7.640   1.464   6.821
 9247TIP3    H227699   7.645   1.342   6.731
 9248TIP3   OH227700   1.943   1.479   3.031
 9248TIP3    H127701   1.880   1.472   3.103
 9248TIP3    H227702   2.017   1.425   3.059
 9249TIP3   OH227703   5.021   6.468   0.669
 9249TIP3    H127704   4.965   6.474   0.747
 9249TIP3    H227705   5.045   6.376   0.664
 9250TIP3   OH227706   4.508   4.664   6.000
 9250TIP3    H127707   4.453   4.673   6.078
 9250TIP3    H227708   4.583   4.612   6.030
 9251TIP3   OH227709   3.322   0.624   3.588
 9251TIP3    H127710   3.400   0.620   3.642
 9251TIP3    H227711   3.306   0.533   3.562
 9252TIP3   OH227712   7.017   4.063   1.412
 9252TIP3    H127713   6.999   4.084   1.504
 9252TIP3    H227714   6.953   4.115   1.363
 9253TIP3   OH227715   7.042   0.409   2.711
 9253TIP3    H127716   7.109   0.346   2.740
 9253TIP3    H227717   7.050   0.409   2.616
 9254TIP3   OH227718   4.803   0.824   4.603
 9254TIP3    H127719   4.801   0.869   4.687
 9254TIP3    H227720   4.850   0.884   4.545
 9255TIP3   OH227721   4.739   5.401   4.052
 9255TIP3    H127722   4.808   5.434   3.994
 9255TIP3    H227723   4.711   5.319   4.012
 9256TIP3   OH227724   7.965   0.798   0.519
 9256TIP3    H127725   8.030   0.784   0.450
 9256TIP3    H227726   7.902   0.727   0.506
 9257TIP3   OH227727   4.322   1.871   5.726
 9257TIP3    H127728   4.359   1.956   5.703
 9257TIP3    H227729   4.384   1.834   5.788
 9258TIP3   OH227730   3.086   7.028   2.955
 9258TIP3    H127731   3.127   7.103   2.998
 9258TIP3    H227732   2.996   7.056   2.937
 9259TIP3   OH227733   1.243   3.051   3.481
 9259TIP3    H127734   1.268   3.111   3.411
 9259TIP3    H227735   1.237   2.965   3.438
 9260TIP3   OH227736   1.598   1.878   4.161
 9260TIP3    H127737   1.553   1.802   4.199
 9260TIP3    H227738   1.679   1.886   4.212
 9261TIP3   OH227739   2.689   1.225  -0.004
 9261TIP3    H127740   2.667   1.307   0.040
 9261TIP3    H227741   2.778   1.206   0.024
 9262TIP3   OH227742   8.155   4.148   5.125
 9262TIP3    H127743   8.149   4.198   5.044
 9262TIP3    H227744   8.230   4.186   5.171
 9263TIP3   OH227745   0.391   5.829   5.058
 9263TIP3    H127746   0.373   5.819   5.152
 9263TIP3    H227747   0.479   5.865   5.055
 9264TIP3   OH227748   4.236   3.362   4.409
 9264TIP3    H127749   4.194   3.356   4.324
 9264TIP3    H227750   4.171   3.405   4.465
 9265TIP3   OH227751   7.553   2.170   3.179
 9265TIP3    H127752   7.647   2.152   3.176
 9265TIP3    H227753   7.513   2.085   3.199
 9266TIP3   OH227754   5.700   2.292   1.535
 9266TIP3    H127755   5.685   2.302   1.629
 9266TIP3    H227756   5.645   2.359   1.495
 9267TIP3   OH227757   4.023   6.057   1.778
 9267TIP3    H127758   4.075   6.120   1.728
 9267TIP3    H227759   4.076   6.039   1.856
 9268TIP3   OH227760   1.919   1.126   1.825
 9268TIP3    H127761   1.888   1.162   1.742
 9268TIP3    H227762   1.937   1.202   1.880
 9269TIP3   OH227763   1.438   7.604   6.796
 9269TIP3    H127764   1.506   7.666   6.823
 9269TIP3    H227765   1.456   7.588   6.703
 9270TIP3   OH227766   3.868   4.432   0.191
 9270TIP3    H127767   3.928   4.464   0.259
 9270TIP3    H227768   3.855   4.508   0.133
 9271TIP3   OH227769   6.783   5.570   2.032
 9271TIP3    H127770   6.814   5.557   1.942
 9271TIP3    H227771   6.809   5.490   2.078
 9272TIP3   OH227772   3.248   2.998   0.561
 9272TIP3    H127773   3.202   3.058   0.620
 9272TIP3    H227774   3.184   2.977   0.493
 9273TIP3   OH227775   7.333   6.425   4.458
 9273TIP3    H127776   7.388   6.503   4.464
 9273TIP3    H227777   7.354   6.375   4.537
 9274TIP3   OH227778   6.752   1.104   2.305
 9274TIP3    H127779   6.664   1.113   2.267
 9274TIP3    H227780   6.736   1.078   2.396
 9275TIP3   OH227781   0.677   0.776   2.560
 9275TIP3    H127782   0.760   0.822   2.574
 9275TIP3    H227783   0.615   0.818   2.619
 9276TIP3   OH227784   5.249   6.363   2.674
 9276TIP3    H127785   5.191   6.286   2.679
 9276TIP3    H227786   5.325   6.332   2.625
 9277TIP3   OH227787   6.588   6.869   5.427
 9277TIP3    H127788   6.615   6.948   5.474
 9277TIP3    H227789   6.667   6.817   5.419
 9278TIP3   OH227790   5.449   2.179   6.740
 9278TIP3    H127791   5.465   2.092   6.775
 9278TIP3    H227792   5.523   2.196   6.682
 9279TIP3   OH227793   0.513   5.975   3.514
 9279TIP3    H127794   0.485   5.962   3.604
 9279TIP3    H227795   0.438   5.946   3.462
 9280TIP3   OH227796   4.228   3.511   1.324
 9280TIP3    H127797   4.315   3.503   1.365
 9280TIP3    H227798   4.239   3.579   1.258
 9281TIP3   OH227799   5.400   2.099   1.713
 9281TIP3    H127800   5.447   2.146   1.782
 9281TIP3    H227801   5.441   2.013   1.712
 9282TIP3   OH227802   2.731   6.888   0.325
 9282TIP3    H127803   2.807   6.940   0.353
 9282TIP3    H227804   2.764   6.833   0.254
 9283TIP3   OH227805   0.723   2.113   0.891
 9283TIP3    H127806   0.772   2.137   0.970
 9283TIP3    H227807   0.790   2.108   0.822
 9284TIP3   OH227808   6.676   4.148   4.774
 9284TIP3    H127809   6.650   4.114   4.860
 9284TIP3    H227810   6.743   4.086   4.744
 9285TIP3   OH227811   3.154   7.255   2.315
 9285TIP3    H127812   3.128   7.306   2.392
 9285TIP3    H227813   3.229   7.303   2.278
 9286TIP3   OH227814   2.373   6.633   4.625
 9286TIP3    H127815   2.371   6.675   4.539
 9286TIP3    H227816   2.328   6.695   4.683
 9287TIP3   OH227817   3.408   0.788   3.101
 9287TIP3    H127818   3.446   0.874   3.085
 9287TIP3    H227819   3.374   0.793   3.191
 9288TIP3   OH227820   6.200   2.110   1.800
 9288TIP3    H127821   6.278   2.159   1.776
 9288TIP3    H227822   6.127   2.168   1.778
 9289TIP3   OH227823   6.369   7.603   0.969
 9289TIP3    H127824   6.289   7.565   1.005
 9289TIP3    H227825   6.439   7.545   1.000
 9290TIP3   OH227826   6.250   4.933   5.974
 9290TIP3    H127827   6.262   4.989   6.051
 9290TIP3    H227828   6.337   4.896   5.957
 9291TIP3   OH227829   4.103   4.056   2.266
 9291TIP3    H127830   4.080   4.050   2.359
 9291TIP3    H227831   4.084   4.147   2.243
 9292TIP3   OH227832   7.561   1.092   4.713
 9292TIP3    H127833   7.500   1.098   4.787
 9292TIP3    H227834   7.524   1.152   4.648
 9293TIP3   OH227835   3.097   6.550   2.644
 9293TIP3    H127836   3.165   6.586   2.587
 9293TIP3    H227837   3.016   6.588   2.611
 9294TIP3   OH227838   1.545   1.972   1.052
 9294TIP3    H127839   1.480   2.030   1.093
 9294TIP3    H227840   1.606   1.952   1.123
 9295TIP3   OH227841   4.273   6.893   1.269
 9295TIP3    H127842   4.246   6.833   1.200
 9295TIP3    H227843   4.192   6.921   1.311
 9296TIP3   OH227844   0.503   0.848   6.283
 9296TIP3    H127845   0.496   0.826   6.190
 9296TIP3    H227846   0.559   0.925   6.286
 9297TIP3   OH227847   1.921   4.729   4.618
 9297TIP3    H127848   1.881   4.645   4.639
 9297TIP3    H227849   1.986   4.709   4.550
 9298TIP3   OH227850   0.497   6.420   5.755
 9298TIP3    H127851   0.462   6.421   5.844
 9298TIP3    H227852   0.460   6.497   5.713
 9299TIP3   OH227853   1.227   2.769   2.398
 9299TIP3    H127854   1.220   2.698   2.334
 9299TIP3    H227855   1.242   2.724   2.482
 9300TIP3   OH227856   8.089   1.270   2.045
 9300TIP3    H127857   8.088   1.331   1.972
 9300TIP3    H227858   8.181   1.245   2.054
 9301TIP3   OH227859   3.555   3.208   4.151
 9301TIP3    H127860   3.647   3.188   4.138
 9301TIP3    H227861   3.525   3.143   4.216
 9302TIP3   OH227862   6.447   4.028   0.007
 9302TIP3    H127863   6.505   3.975   0.062
 9302TIP3    H227864   6.385   4.067   0.068
 9303TIP3   OH227865   3.264   2.105   0.946
 9303TIP3    H127866   3.299   2.191   0.923
 9303TIP3    H227867   3.329   2.043   0.914
 9304TIP3   OH227868   8.311   7.548   5.757
 9304TIP3    H127869   8.252   7.506   5.819
 9304TIP3    H227870   8.314   7.640   5.784
 9305TIP3   OH227871   8.105   3.127   1.817
 9305TIP3    H127872   8.038   3.160   1.877
 9305TIP3    H227873   8.086   3.170   1.734
 9306TIP3   OH227874   1.162   5.319   1.519
 9306TIP3    H127875   1.220   5.370   1.575
 9306TIP3    H227876   1.173   5.357   1.432
 9307TIP3   OH227877   4.140   7.476   6.232
 9307TIP3    H127878   4.117   7.568   6.250
 9307TIP3    H227879   4.229   7.480   6.200
 9308TIP3   OH227880   6.547   5.920   0.923
 9308TIP3    H127881   6.455   5.893   0.917
 9308TIP3    H227882   6.550   6.004   0.878
 9309TIP3   OH227883   2.505   6.209   2.339
 9309TIP3    H127884   2.588   6.239   2.376
 9309TIP3    H227885   2.529   6.136   2.282
 9310TIP3   OH227886   5.925   7.542   0.758
 9310TIP3    H127887   5.916   7.612   0.822
 9310TIP3    H227888   5.923   7.586   0.673
 9311TIP3   OH227889   1.828   1.904   2.134
 9311TIP3    H127890   1.802   1.978   2.080
 9311TIP3    H227891   1.806   1.932   2.224
 9312TIP3   OH227892   7.868   0.299   6.269
 9312TIP3    H127893   7.894   0.391   6.266
 9312TIP3    H227894   7.834   0.286   6.357
 9313TIP3   OH227895   2.361   7.615   2.646
 9313TIP3    H127896   2.364   7.522   2.668
 9313TIP3    H227897   2.367   7.660   2.730
 9314TIP3   OH227898   6.910   5.152   6.004
 9314TIP3    H127899   6.853   5.118   5.935
 9314TIP3    H227900   6.879   5.109   6.084
 9315TIP3   OH227901   6.930   6.885   0.621
 9315TIP3    H127902   6.839   6.868   0.643
 9315TIP3    H227903   6.965   6.799   0.596
 9316TIP3   OH227904   8.149   0.516   1.990
 9316TIP3    H127905   8.240   0.538   2.011
 9316TIP3    H227906   8.100   0.540   2.068
 9317TIP3   OH227907   1.559   0.965   0.333
 9317TIP3    H127908   1.486   0.940   0.276
 9317TIP3    H227909   1.632   0.910   0.304
 9318TIP3   OH227910   7.709   2.321   6.075
 9318TIP3    H127911   7.725   2.411   6.046
 9318TIP3    H227912   7.791   2.275   6.058
 9319TIP3   OH227913   2.967   5.250   6.063
 9319TIP3    H127914   2.872   5.247   6.052
 9319TIP3    H227915   2.987   5.344   6.062
 9320TIP3   OH227916   4.347   6.602   0.248
 9320TIP3    H127917   4.296   6.578   0.171
 9320TIP3    H227918   4.379   6.520   0.283
 9321TIP3   OH227919   6.500   4.834   6.185
 9321TIP3    H127920   6.553   4.755   6.178
 9321TIP3    H227921   6.410   4.804   6.183
 9322TIP3   OH227922   0.243   3.409   1.362
 9322TIP3    H127923   0.191   3.478   1.403
 9322TIP3    H227924   0.239   3.336   1.423
 9323TIP3   OH227925   7.580   7.407   0.642
 9323TIP3    H127926   7.613   7.482   0.593
 9323TIP3    H227927   7.629   7.409   0.724
 9324TIP3   OH227928   1.328   3.047   3.099
 9324TIP3    H127929   1.395   3.088   3.044
 9324TIP3    H227930   1.294   3.118   3.153
 9325TIP3   OH227931   5.965   0.548   1.789
 9325TIP3    H127932   6.039   0.542   1.850
 9325TIP3    H227933   5.996   0.604   1.718
 9326TIP3   OH227934   1.346   2.637   5.384
 9326TIP3    H127935   1.393   2.645   5.467
 9326TIP3    H227936   1.407   2.592   5.326
 9327TIP3   OH227937   7.020   1.041   5.403
 9327TIP3    H127938   7.057   1.077   5.483
 9327TIP3    H227939   7.089   1.052   5.338
 9328TIP3   OH227940   3.886   1.660   6.308
 9328TIP3    H127941   3.902   1.678   6.216
 9328TIP3    H227942   3.839   1.577   6.309
 9329TIP3   OH227943   4.697   4.111   1.104
 9329TIP3    H127944   4.678   4.201   1.076
 9329TIP3    H227945   4.676   4.110   1.197
 9330TIP3   OH227946   2.272   5.222   1.473
 9330TIP3    H127947   2.284   5.270   1.391
 9330TIP3    H227948   2.304   5.134   1.454
 9331TIP3   OH227949   5.913   3.794   5.914
 9331TIP3    H127950   5.955   3.871   5.952
 9331TIP3    H227951   5.983   3.751   5.865
 9332TIP3   OH227952   0.934   0.834   6.274
 9332TIP3    H127953   1.009   0.880   6.313
 9332TIP3    H227954   0.946   0.743   6.302
 9333TIP3   OH227955   1.016   1.686   3.327
 9333TIP3    H127956   1.074   1.617   3.358
 9333TIP3    H227957   1.006   1.745   3.402
 9334TIP3   OH227958   7.616   2.194   4.336
 9334TIP3    H127959   7.706   2.226   4.327
 9334TIP3    H227960   7.620   2.103   4.307
 9335TIP3   OH227961   3.033   2.368   4.135
 9335TIP3    H127962   2.938   2.377   4.132
 9335TIP3    H227963   3.051   2.286   4.088
 9336TIP3   OH227964   2.430   0.140   4.492
 9336TIP3    H127965   2.447   0.218   4.439
 9336TIP3    H227966   2.517   0.105   4.512
 9337TIP3   OH227967   1.778   3.822   6.669
 9337TIP3    H127968   1.759   3.836   6.577
 9337TIP3    H227969   1.828   3.740   6.670
 9338TIP3   OH227970   7.487   2.037   0.708
 9338TIP3    H127971   7.468   1.983   0.631
 9338TIP3    H227972   7.454   1.985   0.782
 9339TIP3   OH227973   6.375   3.391   6.540
 9339TIP3    H127974   6.457   3.418   6.582
 9339TIP3    H227975   6.308   3.447   6.580
 9340TIP3   OH227976   7.800   1.938   1.149
 9340TIP3    H127977   7.726   1.925   1.209
 9340TIP3    H227978   7.853   2.006   1.190
 9341TIP3   OH227979   6.605   3.302   5.274
 9341TIP3    H127980   6.617   3.341   5.187
 9341TIP3    H227981   6.581   3.211   5.257
 9342TIP3   OH227982   2.181   1.475   1.393
 9342TIP3    H127983   2.275   1.478   1.410
 9342TIP3    H227984   2.173   1.436   1.306
 9343TIP3   OH227985   3.966   6.103   3.638
 9343TIP3    H127986   3.939   6.189   3.606
 9343TIP3    H227987   3.961   6.046   3.561
 9344TIP3   OH227988   5.441   0.176   5.357
 9344TIP3    H127989   5.416   0.144   5.443
 9344TIP3    H227990   5.364   0.225   5.326
 9345TIP3   OH227991   2.556   3.872   4.798
 9345TIP3    H127992   2.537   3.956   4.840
 9345TIP3    H227993   2.575   3.812   4.870
 9346TIP3   OH227994   8.262   4.754   0.873
 9346TIP3    H127995   8.196   4.797   0.926
 9346TIP3    H227996   8.333   4.734   0.935
 9347TIP3   OH227997   6.554   7.076   6.152
 9347TIP3    H127998   6.473   7.122   6.175
 9347TIP3    H227999   6.553   6.996   6.204
 9348TIP3   OH228000   7.949   1.896   1.992
 9348TIP3    H128001   7.925   1.977   1.946
 9348TIP3    H228002   8.040   1.909   2.018
 9349TIP3   OH228003   5.029   0.252   3.540
 9349TIP3    H128004   5.107   0.253   3.596
 9349TIP3    H228005   4.973   0.185   3.578
 9350TIP3   OH228006   7.109   7.039   5.470
 9350TIP3    H128007   7.046   7.006   5.405
 9350TIP3    H228008   7.080   7.001   5.553
 9351TIP3   OH228009   5.432   6.432   3.780
 9351TIP3    H128010   5.458   6.404   3.867
 9351TIP3    H228011   5.393   6.519   3.793
 9352TIP3   OH228012   7.612   7.258   2.274
 9352TIP3    H128013   7.517   7.255   2.264
 9352TIP3    H228014   7.645   7.274   2.186
 9353TIP3   OH228015   1.298   1.635   4.985
 9353TIP3    H128016   1.301   1.692   4.908
 9353TIP3    H228017   1.327   1.691   5.057
 9354TIP3   OH228018   0.517   3.424   3.985
 9354TIP3    H128019   0.531   3.367   4.061
 9354TIP3    H228020   0.597   3.417   3.934
 9355TIP3   OH228021   1.858   1.536   5.289
 9355TIP3    H128022   1.846   1.491   5.205
 9355TIP3    H228023   1.794   1.497   5.348
 9356TIP3   OH228024   4.944   4.582   2.043
 9356TIP3    H128025   4.937   4.581   1.947
 9356TIP3    H228026   4.885   4.651   2.071
 9357TIP3   OH228027   3.576   4.776   5.880
 9357TIP3    H128028   3.511   4.708   5.898
 9357TIP3    H228029   3.660   4.732   5.893
 9358TIP3   OH228030   3.022   5.534   4.290
 9358TIP3    H128031   3.002   5.452   4.246
 9358TIP3    H228032   3.078   5.582   4.228
 9359TIP3   OH228033   7.634   7.692   4.590
 9359TIP3    H128034   7.636   7.723   4.499
 9359TIP3    H228035   7.548   7.718   4.622
 9360TIP3   OH228036   2.851   4.043   5.653
 9360TIP3    H128037   2.832   4.132   5.684
 9360TIP3    H228038   2.783   4.025   5.589
 9361TIP3   OH228039   3.491   5.369   4.747
 9361TIP3    H128040   3.497   5.418   4.829
 9361TIP3    H228041   3.403   5.388   4.713
 9362TIP3   OH228042   3.718   3.478   0.246
 9362TIP3    H128043   3.689   3.427   0.322
 9362TIP3    H228044   3.807   3.447   0.229
 9363TIP3   OH228045   6.211   7.604   3.422
 9363TIP3    H128046   6.141   7.606   3.488
 9363TIP3    H228047   6.199   7.520   3.377
 9364TIP3   OH228048   5.791   3.047   5.870
 9364TIP3    H128049   5.747   3.072   5.952
 9364TIP3    H228050   5.883   3.041   5.893
 9365TIP3   OH228051   0.073   3.627   6.576
 9365TIP3    H128052   0.002   3.660   6.630
 9365TIP3    H228053   0.124   3.572   6.635
 9366TIP3   OH228054   4.245   0.815   1.949
 9366TIP3    H128055   4.318   0.869   1.980
 9366TIP3    H228056   4.187   0.808   2.025
 9367TIP3   OH228057   4.402   4.728   2.948
 9367TIP3    H128058   4.392   4.647   2.897
 9367TIP3    H228059   4.328   4.727   3.009
 9368TIP3   OH228060   5.816   4.146   2.764
 9368TIP3    H128061   5.856   4.059   2.773
 9368TIP3    H228062   5.824   4.167   2.671
 9369TIP3   OH228063   4.026   6.813   0.336
 9369TIP3    H128064   4.000   6.721   0.343
 9369TIP3    H228065   4.117   6.814   0.365
 9370TIP3   OH228066   5.534   2.591   4.076
 9370TIP3    H128067   5.578   2.511   4.104
 9370TIP3    H228068   5.592   2.627   4.008
 9371TIP3   OH228069   2.209   6.755   2.416
 9371TIP3    H128070   2.229   6.743   2.509
 9371TIP3    H228071   2.265   6.692   2.371
 9372TIP3   OH228072   7.034   1.797   2.889
 9372TIP3    H128073   7.117   1.751   2.878
 9372TIP3    H228074   7.010   1.782   2.980
 9373TIP3   OH228075   1.963   5.075   5.977
 9373TIP3    H128076   2.003   5.055   5.892
 9373TIP3    H228077   1.877   5.110   5.955
 9374TIP3   OH228078   2.929   0.055   6.407
 9374TIP3    H128079   2.963  -0.033   6.388
 9374TIP3    H228080   2.985   0.114   6.357
 9375TIP3   OH228081   4.568   4.050   2.021
 9375TIP3    H128082   4.584   4.128   2.074
 9375TIP3    H228083   4.648   4.039   1.968
 9376TIP3   OH228084   1.244   7.611   3.014
 9376TIP3    H128085   1.215   7.590   2.925
 9376TIP3    H228086   1.310   7.545   3.034
 9377TIP3   OH228087   6.026   4.651   5.658
 9377TIP3    H128088   6.023   4.628   5.751
 9377TIP3    H228089   6.071   4.736   5.656
 9378TIP3   OH228090   1.510   2.388   4.015
 9378TIP3    H128091   1.601   2.379   3.989
 9378TIP3    H228092   1.499   2.330   4.090
 9379TIP3   OH228093   8.082   4.090   0.327
 9379TIP3    H128094   8.002   4.142   0.326
 9379TIP3    H228095   8.055   4.006   0.289
 9380TIP3   OH228096   3.699   0.867   5.097
 9380TIP3    H128097   3.669   0.810   5.168
 9380TIP3    H228098   3.781   0.904   5.129
 9381TIP3   OH228099   6.990   5.382   4.303
 9381TIP3    H128100   6.950   5.461   4.338
 9381TIP3    H228101   6.999   5.324   4.379
 9382TIP3   OH228102   2.738   0.496   5.829
 9382TIP3    H128103   2.776   0.552   5.896
 9382TIP3    H228104   2.675   0.441   5.876
 9383TIP3   OH228105   1.624   2.484   5.538
 9383TIP3    H128106   1.658   2.485   5.628
 9383TIP3    H228107   1.639   2.395   5.508
 9384TIP3   OH228108   7.576   3.268   0.233
 9384TIP3    H128109   7.614   3.211   0.166
 9384TIP3    H228110   7.507   3.215   0.272
 9385TIP3   OH228111   7.434   0.970   3.490
 9385TIP3    H128112   7.469   0.918   3.563
 9385TIP3    H228113   7.372   1.030   3.532
 9386TIP3   OH228114   7.810   2.254   3.383
 9386TIP3    H128115   7.858   2.272   3.464
 9386TIP3    H228116   7.729   2.304   3.391
 9387TIP3   OH228117   6.515   1.202   4.447
 9387TIP3    H128118   6.602   1.164   4.434
 9387TIP3    H228119   6.501   1.256   4.370
 9388TIP3   OH228120   3.076   7.445   4.110
 9388TIP3    H128121   3.010   7.378   4.126
 9388TIP3    H228122   3.051   7.517   4.168
 9389TIP3   OH228123   4.958   3.547   5.734
 9389TIP3    H128124   4.899   3.479   5.701
 9389TIP3    H228125   4.935   3.556   5.826
 9390TIP3   OH228126   5.474   1.753   4.971
 9390TIP3    H128127   5.435   1.792   5.049
 9390TIP3    H228128   5.400   1.728   4.916
 9391TIP3   OH228129   5.402   5.236   6.507
 9391TIP3    H128130   5.307   5.249   6.514
 9391TIP3    H228131   5.422   5.169   6.572
 9392TIP3   OH228132   4.558   0.315   3.590
 9392TIP3    H128133   4.566   0.348   3.680
 9392TIP3    H228134   4.488   0.369   3.552
 9393TIP3   OH228135   5.626   5.038   2.972
 9393TIP3    H128136   5.598   5.090   3.047
 9393TIP3    H228137   5.677   4.966   3.009
 9394TIP3   OH228138   3.655   2.903   1.424
 9394TIP3    H128139   3.668   2.913   1.329
 9394TIP3    H228140   3.595   2.973   1.448
 9395TIP3   OH228141   3.498   6.665   2.343
 9395TIP3    H128142   3.562   6.682   2.411
 9395TIP3    H228143   3.508   6.738   2.281
 9396TIP3   OH228144  -0.019   4.104   3.068
 9396TIP3    H128145   0.061   4.094   3.017
 9396TIP3    H228146   0.009   4.100   3.159
 9397TIP3   OH228147   7.747   4.388   3.486
 9397TIP3    H128148   7.667   4.389   3.538
 9397TIP3    H228149   7.744   4.304   3.440
 9398TIP3   OH228150   1.988   5.953   0.119
 9398TIP3    H128151   1.991   6.037   0.165
 9398TIP3    H228152   1.978   5.888   0.189
 9399TIP3   OH228153   7.862   5.097   5.457
 9399TIP3    H128154   7.890   5.132   5.542
 9399TIP3    H228155   7.858   5.002   5.470
 9400TIP3   OH228156   5.396   2.855   4.058
 9400TIP3    H128157   5.439   2.904   3.989
 9400TIP3    H228158   5.461   2.790   4.086
 9401TIP3   OH228159   6.879   4.728   1.625
 9401TIP3    H128160   6.840   4.676   1.695
 9401TIP3    H228161   6.851   4.685   1.545
 9402TIP3   OH228162   2.255   7.102   5.928
 9402TIP3    H128163   2.264   7.180   5.874
 9402TIP3    H228164   2.225   7.134   6.013
 9403TIP3   OH228165   4.755   6.663   1.225
 9403TIP3    H128166   4.683   6.725   1.213
 9403TIP3    H228167   4.834   6.717   1.215
 9404TIP3   OH228168   6.751   7.500   6.068
 9404TIP3    H128169   6.674   7.446   6.053
 9404TIP3    H228170   6.816   7.468   6.006
 9405TIP3   OH228171   0.651   1.680   2.164
 9405TIP3    H128172   0.606   1.620   2.223
 9405TIP3    H228173   0.744   1.657   2.173
 9406TIP3   OH228174   2.983   4.976   2.143
 9406TIP3    H128175   2.917   4.911   2.166
 9406TIP3    H228176   2.954   5.010   2.058
 9407TIP3   OH228177   6.508   0.527   5.689
 9407TIP3    H128178   6.482   0.562   5.604
 9407TIP3    H228179   6.478   0.592   5.752
 9408TIP3   OH228180   6.228   0.690   5.265
 9408TIP3    H128181   6.249   0.661   5.176
 9408TIP3    H228182   6.209   0.783   5.257
 9409TIP3   OH228183   7.114   3.318   3.483
 9409TIP3    H128184   7.104   3.413   3.483
 9409TIP3    H228185   7.039   3.286   3.433
 9410TIP3   OH228186   4.416   3.206   1.565
 9410TIP3    H128187   4.455   3.162   1.489
 9410TIP3    H228188   4.386   3.290   1.531
 9411TIP3   OH228189   5.285   3.224   1.963
 9411TIP3    H128190   5.370   3.190   1.937
 9411TIP3    H228191   5.292   3.236   2.058
 9412TIP3   OH228192   1.846   3.072   1.467
 9412TIP3    H128193   1.859   3.167   1.465
 9412TIP3    H228194   1.851   3.049   1.559
 9413TIP3   OH228195   3.385   2.176   6.468
 9413TIP3    H128196   3.411   2.154   6.378
 9413TIP3    H228197   3.388   2.272   6.471
 9414TIP3   OH228198   0.974   3.285   4.970
 9414TIP3    H128199   0.948   3.376   4.957
 9414TIP3    H228200   0.931   3.260   5.052
 9415TIP3   OH228201   8.268   0.821   6.343
 9415TIP3    H128202   8.363   0.817   6.339
 9415TIP3    H228203   8.239   0.757   6.277
 9416TIP3   OH228204   6.272   1.508   5.894
 9416TIP3    H128205   6.316   1.590   5.875
 9416TIP3    H228206   6.327   1.441   5.854
 9417TIP3   OH228207   6.747   7.647   3.908
 9417TIP3    H128208   6.821   7.650   3.847
 9417TIP3    H228209   6.765   7.572   3.964
 9418TIP3   OH228210   3.630   7.054   6.403
 9418TIP3    H128211   3.720   7.024   6.404
 9418TIP3    H228212   3.595   7.028   6.488
 9419TIP3   OH228213   2.126   6.513   4.915
 9419TIP3    H128214   2.127   6.453   4.841
 9419TIP3    H228215   2.039   6.552   4.914
 9420TIP3   OH228216   7.294   1.957   6.752
 9420TIP3    H128217   7.375   1.987   6.795
 9420TIP3    H228218   7.242   2.037   6.741
 9421TIP3   OH228219   0.018   5.194   0.783
 9421TIP3    H128220   0.080   5.126   0.807
 9421TIP3    H228221  -0.040   5.202   0.859
 9422TIP3   OH228222   8.098   2.599   6.591
 9422TIP3    H128223   8.098   2.637   6.679
 9422TIP3    H228224   8.177   2.633   6.549
 9423TIP3   OH228225   2.950   3.804   2.376
 9423TIP3    H128226   2.976   3.713   2.363
 9423TIP3    H228227   2.885   3.820   2.307
 9424TIP3   OH228228   5.724   7.401   3.705
 9424TIP3    H128229   5.806   7.449   3.695
 9424TIP3    H228230   5.749   7.318   3.746
 9425TIP3   OH228231   5.507   5.412   3.484
 9425TIP3    H128232   5.491   5.322   3.511
 9425TIP3    H228233   5.594   5.411   3.444
 9426TIP3   OH228234   7.510   0.439   1.359
 9426TIP3    H128235   7.575   0.493   1.315
 9426TIP3    H228236   7.427   0.461   1.317
 9427TIP3   OH228237   7.185   3.461   6.307
 9427TIP3    H128238   7.226   3.410   6.237
 9427TIP3    H228239   7.092   3.462   6.285
 9428TIP3   OH228240   3.158   2.262   1.368
 9428TIP3    H128241   3.221   2.310   1.314
 9428TIP3    H228242   3.161   2.306   1.453
 9429TIP3   OH228243   3.349   1.719   6.444
 9429TIP3    H128244   3.421   1.749   6.499
 9429TIP3    H228245   3.373   1.746   6.356
 9430TIP3   OH228246   7.085   2.083   3.995
 9430TIP3    H128247   7.119   2.152   3.938
 9430TIP3    H228248   6.990   2.083   3.979
 9431TIP3   OH228249   0.282   5.356   5.649
 9431TIP3    H128250   0.209   5.417   5.635
 9431TIP3    H228251   0.360   5.411   5.644
 9432TIP3   OH228252   7.620   0.023   3.347
 9432TIP3    H128253   7.562  -0.037   3.395
 9432TIP3    H228254   7.569   0.104   3.340
 9433TIP3   OH228255   6.380   3.651   2.843
 9433TIP3    H128256   6.463   3.666   2.889
 9433TIP3    H228257   6.378   3.719   2.775
 9434TIP3   OH228258   2.146   4.144   5.101
 9434TIP3    H128259   2.163   4.178   5.188
 9434TIP3    H228260   2.082   4.074   5.114
 9435TIP3   OH228261   4.196   3.380   3.613
 9435TIP3    H128262   4.164   3.453   3.667
 9435TIP3    H228263   4.244   3.422   3.542
 9436TIP3   OH228264   5.761   3.268   0.538
 9436TIP3    H128265   5.833   3.325   0.512
 9436TIP3    H228266   5.762   3.270   0.634
 9437TIP3   OH228267   7.008   4.178   0.414
 9437TIP3    H128268   7.072   4.243   0.443
 9437TIP3    H228269   6.928   4.201   0.461
 9438TIP3   OH228270   1.372   3.009   6.095
 9438TIP3    H128271   1.379   2.943   6.164
 9438TIP3    H228272   1.374   2.959   6.014
 9439TIP3   OH228273   0.908   7.548   1.726
 9439TIP3    H128274   0.984   7.603   1.743
 9439TIP3    H228275   0.836   7.590   1.773
 9440TIP3   OH228276   0.365   1.579   5.168
 9440TIP3    H128277   0.331   1.664   5.140
 9440TIP3    H228278   0.340   1.573   5.260
 9441TIP3   OH228279   1.851   1.512   3.421
 9441TIP3    H128280   1.904   1.435   3.441
 9441TIP3    H228281   1.794   1.484   3.350
 9442TIP3   OH228282   4.178   3.869   3.246
 9442TIP3    H128283   4.176   3.891   3.339
 9442TIP3    H228284   4.264   3.829   3.233
 9443TIP3   OH228285   5.848   2.532   1.141
 9443TIP3    H128286   5.753   2.523   1.128
 9443TIP3    H228287   5.858   2.613   1.190
 9444TIP3   OH228288   2.614   2.494   0.697
 9444TIP3    H128289   2.567   2.505   0.615
 9444TIP3    H228290   2.682   2.562   0.695
 9445TIP3   OH228291   6.864   3.902   2.641
 9445TIP3    H128292   6.820   3.965   2.697
 9445TIP3    H228293   6.853   3.818   2.685
 9446TIP3   OH228294   3.408   3.268   2.274
 9446TIP3    H128295   3.480   3.215   2.240
 9446TIP3    H228296   3.403   3.245   2.367
 9447TIP3   OH228297   3.824   0.888   6.270
 9447TIP3    H128298   3.771   0.865   6.346
 9447TIP3    H228299   3.875   0.964   6.299
 9448TIP3   OH228300   7.540   6.101   0.061
 9448TIP3    H128301   7.459   6.151   0.066
 9448TIP3    H228302   7.515   6.019   0.019
 9449TIP3   OH228303   5.966   7.231   5.773
 9449TIP3    H128304   5.909   7.177   5.828
 9449TIP3    H228305   5.983   7.309   5.826
 9450TIP3   OH228306   5.845   4.998   6.572
 9450TIP3    H128307   5.892   4.915   6.576
 9450TIP3    H228308   5.776   4.984   6.508
 9451TIP3   OH228309   7.469   6.131   1.327
 9451TIP3    H128310   7.457   6.042   1.295
 9451TIP3    H228311   7.383   6.172   1.320
 9452TIP3   OH228312   1.361   5.651   5.048
 9452TIP3    H128313   1.354   5.701   5.130
 9452TIP3    H228314   1.357   5.560   5.076
 9453TIP3   OH228315   2.001   0.528   3.177
 9453TIP3    H128316   2.010   0.618   3.206
 9453TIP3    H228317   2.023   0.530   3.083
 9454TIP3   OH228318   4.577   1.217   5.282
 9454TIP3    H128319   4.484   1.203   5.267
 9454TIP3    H228320   4.582   1.245   5.374
 9455TIP3   OH228321   7.958   1.195   4.810
 9455TIP3    H128322   7.878   1.215   4.859
 9455TIP3    H228323   8.017   1.157   4.875
 9456TIP3   OH228324   4.555   1.658   2.231
 9456TIP3    H128325   4.604   1.578   2.214
 9456TIP3    H228326   4.468   1.642   2.195
 9457TIP3   OH228327   5.339   4.611   5.809
 9457TIP3    H128328   5.373   4.568   5.731
 9457TIP3    H228329   5.291   4.687   5.776
 9458TIP3   OH228330   5.233   5.587   6.652
 9458TIP3    H128331   5.211   5.596   6.745
 9458TIP3    H228332   5.287   5.664   6.633
 9459TIP3   OH228333   4.391   7.771   3.717
 9459TIP3    H128334   4.382   7.783   3.623
 9459TIP3    H228335   4.475   7.811   3.738
 9460TIP3   OH228336   4.941   3.238   2.271
 9460TIP3    H128337   4.953   3.175   2.200
 9460TIP3    H228338   4.846   3.245   2.282
 9461TIP3   OH228339   3.412   3.617   3.393
 9461TIP3    H128340   3.502   3.587   3.389
 9461TIP3    H228341   3.360   3.537   3.404
 9462TIP3   OH228342   1.502   5.353   2.242
 9462TIP3    H128343   1.425   5.323   2.291
 9462TIP3    H228344   1.547   5.412   2.302
 9463TIP3   OH228345   6.873   2.276   4.266
 9463TIP3    H128346   6.964   2.247   4.273
 9463TIP3    H228347   6.832   2.249   4.348
 9464TIP3   OH228348   0.430   4.467   6.651
 9464TIP3    H128349   0.505   4.512   6.690
 9464TIP3    H228350   0.468   4.388   6.611
 9465TIP3   OH228351   3.630   3.217   3.752
 9465TIP3    H128352   3.705   3.274   3.766
 9465TIP3    H228353   3.632   3.156   3.825
 9466TIP3   OH228354   5.892   6.911   0.172
 9466TIP3    H128355   5.868   6.861   0.094
 9466TIP3    H228356   5.883   7.003   0.146
 9467TIP3   OH228357   6.610   6.497   4.926
 9467TIP3    H128358   6.599   6.518   5.018
 9467TIP3    H228359   6.654   6.411   4.926
 9468TIP3   OH228360   4.332   7.723   6.489
 9468TIP3    H128361   4.305   7.664   6.419
 9468TIP3    H228362   4.249   7.753   6.528
 9469TIP3   OH228363   2.797   4.925   5.374
 9469TIP3    H128364   2.750   4.926   5.457
 9469TIP3    H228365   2.804   5.018   5.350
 9470TIP3   OH228366   6.164   0.337   0.370
 9470TIP3    H128367   6.202   0.271   0.429
 9470TIP3    H228368   6.227   0.344   0.299
 9471TIP3   OH228369   2.261   0.055   4.687
 9471TIP3    H128370   2.317   0.102   4.625
 9471TIP3    H228371   2.214  -0.008   4.633
 9472TIP3   OH228372   0.691   6.178   1.657
 9472TIP3    H128373   0.753   6.170   1.729
 9472TIP3    H228374   0.720   6.254   1.608
 9473TIP3   OH228375   8.143   5.077   4.262
 9473TIP3    H128376   8.236   5.090   4.282
 9473TIP3    H228377   8.129   4.983   4.274
 9474TIP3   OH228378   8.070   6.094   2.010
 9474TIP3    H128379   8.010   6.022   1.989
 9474TIP3    H228380   8.156   6.062   1.985
 9475TIP3   OH228381   2.512   5.484   4.441
 9475TIP3    H128382   2.441   5.508   4.381
 9475TIP3    H228383   2.590   5.482   4.386
 9476TIP3   OH228384   5.123   3.260   4.476
 9476TIP3    H128385   5.147   3.179   4.521
 9476TIP3    H228386   5.160   3.330   4.530
 9477TIP3   OH228387   6.720   0.160   2.837
 9477TIP3    H128388   6.633   0.142   2.873
 9477TIP3    H228389   6.760   0.074   2.825
 9478TIP3   OH228390   8.136   1.874   3.897
 9478TIP3    H128391   8.175   1.790   3.922
 9478TIP3    H228392   8.076   1.896   3.968
 9479TIP3   OH228393   7.183   2.619   4.240
 9479TIP3    H128394   7.219   2.557   4.176
 9479TIP3    H228395   7.252   2.683   4.253
 9480TIP3   OH228396   4.171   3.464   0.555
 9480TIP3    H128397   4.161   3.401   0.483
 9480TIP3    H228398   4.263   3.491   0.549
 9481TIP3   OH228399   7.678   1.609   0.922
 9481TIP3    H128400   7.748   1.641   0.979
 9481TIP3    H228401   7.712   1.622   0.833
 9482TIP3   OH228402   5.578   2.253   0.156
 9482TIP3    H128403   5.608   2.274   0.245
 9482TIP3    H228404   5.567   2.339   0.114
 9483TIP3   OH228405   5.952   0.339   2.052
 9483TIP3    H128406   5.928   0.337   2.145
 9483TIP3    H228407   5.894   0.405   2.014
 9484TIP3   OH228408   2.207   7.298   3.473
 9484TIP3    H128409   2.281   7.241   3.493
 9484TIP3    H228410   2.240   7.387   3.483
 9485TIP3   OH228411   3.256   2.524  -0.004
 9485TIP3    H128412   3.290   2.509   0.084
 9485TIP3    H228413   3.161   2.517   0.004
 9486TIP3   OH228414   0.390   6.860   3.621
 9486TIP3    H128415   0.475   6.883   3.583
 9486TIP3    H228416   0.375   6.771   3.592
 9487TIP3   OH228417   3.716   5.513   6.313
 9487TIP3    H128418   3.736   5.556   6.396
 9487TIP3    H228419   3.715   5.419   6.334
 9488TIP3   OH228420   6.454   1.680   3.171
 9488TIP3    H128421   6.480   1.732   3.247
 9488TIP3    H228422   6.392   1.616   3.206
 9489TIP3   OH228423   0.991   1.060   6.008
 9489TIP3    H128424   0.959   0.970   6.015
 9489TIP3    H228425   0.916   1.114   6.036
 9490TIP3   OH228426   5.918   6.403   4.673
 9490TIP3    H128427   5.909   6.495   4.698
 9490TIP3    H228428   5.847   6.359   4.720
 9491TIP3   OH228429   8.005   5.745   5.808
 9491TIP3    H128430   8.011   5.659   5.767
 9491TIP3    H228431   7.987   5.727   5.900
 9492TIP3   OH228432   0.459   6.833   0.201
 9492TIP3    H128433   0.388   6.890   0.228
 9492TIP3    H228434   0.519   6.890   0.153
 9493TIP3   OH228435   1.423   7.023   1.375
 9493TIP3    H128436   1.491   7.039   1.310
 9493TIP3    H228437   1.344   7.061   1.336
 9494TIP3   OH228438   4.004   3.473   6.449
 9494TIP3    H128439   3.919   3.473   6.406
 9494TIP3    H228440   4.009   3.388   6.493
 9495TIP3   OH228441   1.125   1.970   1.189
 9495TIP3    H128442   1.155   1.895   1.138
 9495TIP3    H228443   1.205   2.018   1.210
 9496TIP3   OH228444   2.114   3.914   1.255
 9496TIP3    H128445   2.086   4.004   1.269
 9496TIP3    H228446   2.065   3.885   1.178
 9497TIP3   OH228447   7.245   5.734   4.668
 9497TIP3    H128448   7.153   5.738   4.693
 9497TIP3    H228449   7.251   5.784   4.587
 9498TIP3   OH228450   2.054   1.878   5.709
 9498TIP3    H128451   2.092   1.809   5.654
 9498TIP3    H228452   2.126   1.906   5.765
 9499TIP3   OH228453   6.747   5.013   0.121
 9499TIP3    H128454   6.722   5.104   0.134
 9499TIP3    H228455   6.825   5.017   0.066
 9500TIP3   OH228456   2.819   6.128   0.663
 9500TIP3    H128457   2.758   6.192   0.628
 9500TIP3    H228458   2.818   6.056   0.600
 9501TIP3   OH228459   8.127   4.931   1.328
 9501TIP3    H128460   8.131   4.860   1.393
 9501TIP3    H228461   8.119   5.011   1.380
 9502TIP3   OH228462   5.551   4.967   5.780
 9502TIP3    H128463   5.571   4.877   5.804
 9502TIP3    H228464   5.596   5.020   5.847
 9503TIP3   OH228465   4.753   5.084   1.520
 9503TIP3    H128466   4.834   5.125   1.549
 9503TIP3    H228467   4.733   5.126   1.436
 9504TIP3   OH228468   5.442   2.804   3.344
 9504TIP3    H128469   5.516   2.762   3.387
 9504TIP3    H228470   5.420   2.746   3.272
 9505TIP3   OH228471   0.451   4.081   1.541
 9505TIP3    H128472   0.412   4.063   1.455
 9505TIP3    H228473   0.376   4.085   1.601
 9506TIP3   OH228474   1.052   3.582   5.579
 9506TIP3    H128475   1.098   3.598   5.497
 9506TIP3    H228476   1.029   3.670   5.611
 9507TIP3   OH228477   8.018   4.488   6.377
 9507TIP3    H128478   8.073   4.473   6.300
 9507TIP3    H228479   8.054   4.567   6.417
 9508TIP3   OH228480   5.696   3.037   5.568
 9508TIP3    H128481   5.618   3.093   5.568
 9508TIP3    H228482   5.662   2.948   5.569
 9509TIP3   OH228483   3.437   2.847   0.690
 9509TIP3    H128484   3.361   2.897   0.660
 9509TIP3    H228485   3.417   2.757   0.668
 9510TIP3   OH228486   6.613   7.274   6.504
 9510TIP3    H128487   6.682   7.285   6.439
 9510TIP3    H228488   6.549   7.216   6.461
 9511TIP3   OH228489   4.215   5.252   1.289
 9511TIP3    H128490   4.131   5.297   1.285
 9511TIP3    H228491   4.195   5.165   1.324
 9512TIP3   OH228492   6.959   0.006   4.412
 9512TIP3    H128493   6.874  -0.025   4.441
 9512TIP3    H228494   6.960   0.099   4.436
 9513TIP3   OH228495   2.030   1.422   4.717
 9513TIP3    H128496   1.945   1.404   4.758
 9513TIP3    H228497   2.088   1.354   4.750
 9514TIP3   OH228498   2.393   5.181   0.060
 9514TIP3    H128499   2.405   5.095   0.099
 9514TIP3    H228500   2.302   5.204   0.078
 9515TIP3   OH228501   7.689   1.107   6.174
 9515TIP3    H128502   7.751   1.155   6.229
 9515TIP3    H228503   7.704   1.015   6.196
 9516TIP3   OH228504   5.031   1.275   4.970
 9516TIP3    H128505   4.985   1.285   4.887
 9516TIP3    H228506   5.122   1.262   4.946
 9517TIP3   OH228507   0.420   3.945   6.004
 9517TIP3    H128508   0.454   4.015   6.059
 9517TIP3    H228509   0.431   3.865   6.056
 9518TIP3   OH228510   7.165   2.750   3.695
 9518TIP3    H128511   7.117   2.683   3.646
 9518TIP3    H228512   7.225   2.700   3.750
 9519TIP3   OH228513   3.403   7.306   6.092
 9519TIP3    H128514   3.370   7.227   6.133
 9519TIP3    H228515   3.326   7.348   6.053
 9520TIP3   OH228516   8.316   5.627   2.765
 9520TIP3    H128517   8.225   5.628   2.796
 9520TIP3    H228518   8.332   5.716   2.735
 9521TIP3   OH228519   2.727   3.656   1.470
 9521TIP3    H128520   2.710   3.581   1.528
 9521TIP3    H228521   2.781   3.715   1.522
 9522TIP3   OH228522   7.004   0.608   0.214
 9522TIP3    H128523   7.043   0.573   0.294
 9522TIP3    H228524   7.018   0.539   0.148
 9523TIP3   OH228525   2.521   4.935   1.916
 9523TIP3    H128526   2.537   4.856   1.968
 9523TIP3    H228527   2.581   5.000   1.952
 9524TIP3   OH228528   8.198   4.013   1.612
 9524TIP3    H128529   8.247   4.004   1.694
 9524TIP3    H228530   8.218   4.101   1.582
 9525TIP3   OH228531   7.043   6.114   6.514
 9525TIP3    H128532   7.077   6.112   6.425
 9525TIP3    H228533   7.031   6.021   6.537
 9526TIP3   OH228534   5.040   5.995   6.220
 9526TIP3    H128535   4.947   6.015   6.208
 9526TIP3    H228536   5.041   5.934   6.294
 9527TIP3   OH228537   1.652   2.662   5.864
 9527TIP3    H128538   1.745   2.660   5.886
 9527TIP3    H228539   1.611   2.607   5.932
 9528TIP3   OH228540   7.300   2.295   6.230
 9528TIP3    H128541   7.386   2.258   6.212
 9528TIP3    H228542   7.313   2.352   6.305
 9529TIP3   OH228543   5.295   2.766   5.361
 9529TIP3    H128544   5.324   2.685   5.319
 9529TIP3    H228545   5.203   2.749   5.383
 9530TIP3   OH228546   4.734   0.172   4.642
 9530TIP3    H128547   4.782   0.188   4.723
 9530TIP3    H228548   4.686   0.091   4.657
 9531TIP3   OH228549   0.125   2.998   5.101
 9531TIP3    H128550   0.157   3.000   5.191
 9531TIP3    H228551   0.053   2.935   5.102
 9532TIP3   OH228552   4.806   1.420   1.393
 9532TIP3    H128553   4.859   1.393   1.468
 9532TIP3    H228554   4.716   1.410   1.422
 9533TIP3   OH228555   4.086   5.230   0.971
 9533TIP3    H128556   4.025   5.240   1.045
 9533TIP3    H228557   4.139   5.154   0.994
 9534TIP3   OH228558   6.680   5.313   4.324
 9534TIP3    H128559   6.638   5.245   4.376
 9534TIP3    H228560   6.729   5.365   4.388
 9535TIP3   OH228561   7.715   4.998   5.774
 9535TIP3    H128562   7.779   5.069   5.764
 9535TIP3    H228563   7.712   4.982   5.869
 9536TIP3   OH228564   1.605   0.048   5.492
 9536TIP3    H128565   1.622  -0.043   5.517
 9536TIP3    H228566   1.631   0.099   5.569
 9537TIP3   OH228567   6.778   4.498   4.843
 9537TIP3    H128568   6.723   4.566   4.882
 9537TIP3    H228569   6.717   4.427   4.823
 9538TIP3   OH228570   7.821   0.308   0.742
 9538TIP3    H128571   7.897   0.363   0.728
 9538TIP3    H228572   7.856   0.225   0.775
 9539TIP3   OH228573   7.230   6.315   3.710
 9539TIP3    H128574   7.307   6.282   3.756
 9539TIP3    H228575   7.179   6.360   3.778
 9540TIP3   OH228576   7.212   1.336   6.247
 9540TIP3    H128577   7.236   1.249   6.277
 9540TIP3    H228578   7.295   1.377   6.223
 9541TIP3   OH228579   0.077   4.669   0.511
 9541TIP3    H128580   0.137   4.661   0.585
 9541TIP3    H228581   0.082   4.584   0.467
 9542TIP3   OH228582   4.649   7.273   5.294
 9542TIP3    H128583   4.560   7.302   5.313
 9542TIP3    H228584   4.676   7.226   5.373
 9543TIP3   OH228585   3.061   7.263   4.789
 9543TIP3    H128586   3.004   7.336   4.812
 9543TIP3    H228587   3.062   7.262   4.694
 9544TIP3   OH228588   6.676   0.264   1.551
 9544TIP3    H128589   6.641   0.203   1.616
 9544TIP3    H228590   6.771   0.257   1.560
 9545TIP3   OH228591   7.822   4.748   5.729
 9545TIP3    H128592   7.796   4.839   5.738
 9545TIP3    H228593   7.780   4.718   5.648
 9546TIP3   OH228594   8.233   6.895   6.010
 9546TIP3    H128595   8.280   6.826   5.962
 9546TIP3    H228596   8.145   6.860   6.022
 9547TIP3   OH228597   8.049   2.304   5.640
 9547TIP3    H128598   8.107   2.378   5.621
 9547TIP3    H228599   8.108   2.232   5.660
 9548TIP3   OH228600   3.851   1.793   4.203
 9548TIP3    H128601   3.938   1.829   4.217
 9548TIP3    H228602   3.831   1.814   4.111
 9549TIP3   OH228603   7.780   5.261   4.917
 9549TIP3    H128604   7.803   5.298   4.832
 9549TIP3    H228605   7.690   5.289   4.932
 9550TIP3   OH228606   7.729   4.191   5.814
 9550TIP3    H128607   7.732   4.272   5.763
 9550TIP3    H228608   7.659   4.206   5.879
 9551TIP3   OH228609   4.263   4.610   0.511
 9551TIP3    H128610   4.176   4.633   0.479
 9551TIP3    H228611   4.261   4.515   0.522
 9552TIP3   OH228612   7.716   1.422   4.698
 9552TIP3    H128613   7.758   1.433   4.783
 9552TIP3    H228614   7.789   1.410   4.637
 9553TIP3   OH228615   5.815   5.714   6.305
 9553TIP3    H128616   5.842   5.647   6.367
 9553TIP3    H228617   5.803   5.668   6.223
 9554TIP3   OH228618   1.966   2.074   4.362
 9554TIP3    H128619   1.929   2.005   4.416
 9554TIP3    H228620   1.982   2.033   4.277
 9555TIP3   OH228621   2.750   4.240   2.093
 9555TIP3    H128622   2.685   4.170   2.101
 9555TIP3    H228623   2.829   4.197   2.063
 9556TIP3   OH228624   7.106   1.823   4.537
 9556TIP3    H128625   7.142   1.744   4.577
 9556TIP3    H228626   7.015   1.826   4.567
 9557TIP3   OH228627   7.847   4.349   4.111
 9557TIP3    H128628   7.854   4.318   4.201
 9557TIP3    H228629   7.928   4.318   4.069
 9558TIP3   OH228630   8.043   4.528   3.240
 9558TIP3    H128631   8.078   4.451   3.284
 9558TIP3    H228632   7.966   4.552   3.290
 9559TIP3   OH228633   5.949   3.262   1.943
 9559TIP3    H128634   5.908   3.180   1.914
 9559TIP3    H228635   6.035   3.262   1.903
 9560TIP3   OH228636   8.256   7.628   2.913
 9560TIP3    H128637   8.238   7.665   2.999
 9560TIP3    H228638   8.349   7.646   2.897
 9561TIP3   OH228639   7.245   4.495   0.204
 9561TIP3    H128640   7.276   4.527   0.120
 9561TIP3    H228641   7.179   4.429   0.183
 9562TIP3   OH228642   6.213   6.514   1.139
 9562TIP3    H128643   6.148   6.454   1.175
 9562TIP3    H228644   6.285   6.457   1.110
 9563TIP3   OH228645   5.422   5.947   1.118
 9563TIP3    H128646   5.417   6.032   1.162
 9563TIP3    H228647   5.342   5.902   1.144
 9564TIP3   OH228648   3.149   6.719   0.877
 9564TIP3    H128649   3.119   6.721   0.786
 9564TIP3    H228650   3.229   6.666   0.874
 9565TIP3   OH228651   4.117   4.225   3.589
 9565TIP3    H128652   4.109   4.259   3.678
 9565TIP3    H228653   4.152   4.298   3.539
 9566TIP3   OH228654   3.771   6.033   2.524
 9566TIP3    H128655   3.713   5.969   2.484
 9566TIP3    H228656   3.742   6.118   2.490
 9567TIP3   OH228657   6.359   3.069   1.794
 9567TIP3    H128658   6.414   3.085   1.717
 9567TIP3    H228659   6.294   3.140   1.793
 9568TIP3   OH228660   2.337   1.472   5.866
 9568TIP3    H128661   2.424   1.508   5.878
 9568TIP3    H228662   2.301   1.465   5.955
 9569TIP3   OH228663   8.262   1.739   4.477
 9569TIP3    H128664   8.173   1.772   4.467
 9569TIP3    H228665   8.257   1.648   4.449
 9570TIP3   OH228666   2.693   1.578   4.853
 9570TIP3    H128667   2.687   1.595   4.759
 9570TIP3    H228668   2.734   1.657   4.889
 9571TIP3   OH228669   3.147   6.136   1.471
 9571TIP3    H128670   3.196   6.217   1.456
 9571TIP3    H228671   3.213   6.072   1.495
 9572TIP3   OH228672   4.327   5.933   2.179
 9572TIP3    H128673   4.330   5.854   2.233
 9572TIP3    H228674   4.413   5.936   2.136
 9573TIP3   OH228675   2.316   3.422   0.715
 9573TIP3    H128676   2.263   3.478   0.658
 9573TIP3    H228677   2.276   3.335   0.707
 9574TIP3   OH228678   8.243   2.367   3.087
 9574TIP3    H128679   8.181   2.398   3.153
 9574TIP3    H228680   8.192   2.367   3.005
 9575TIP3   OH228681   6.547   0.671   0.452
 9575TIP3    H128682   6.463   0.691   0.494
 9575TIP3    H228683   6.556   0.736   0.383
 9576TIP3   OH228684   4.032   0.063   5.556
 9576TIP3    H128685   4.052   0.122   5.629
 9576TIP3    H228686   3.947   0.027   5.577
 9577TIP3   OH228687   5.842   3.699   0.061
 9577TIP3    H128688   5.770   3.761   0.072
 9577TIP3    H228689   5.801   3.613   0.073
 9578TIP3   OH228690   2.967   4.925   6.528
 9578TIP3    H128691   2.990   4.986   6.598
 9578TIP3    H228692   2.877   4.947   6.504
 9579TIP3   OH228693   6.347   4.718   1.120
 9579TIP3    H128694   6.328   4.655   1.051
 9579TIP3    H228695   6.276   4.783   1.114
 9580TIP3   OH228696   7.559   0.730   0.543
 9580TIP3    H128697   7.536   0.739   0.636
 9580TIP3    H228698   7.548   0.818   0.507
 9581TIP3   OH228699   4.465   0.727   3.933
 9581TIP3    H128700   4.495   0.698   3.847
 9581TIP3    H228701   4.407   0.656   3.963
 9582TIP3   OH228702   3.166   6.042   2.180
 9582TIP3    H128703   3.143   6.069   2.091
 9582TIP3    H228704   3.202   6.121   2.220
 9583TIP3   OH228705   5.321   3.787   3.491
 9583TIP3    H128706   5.266   3.842   3.436
 9583TIP3    H228707   5.290   3.697   3.475
 9584TIP3   OH228708   5.014   5.758   0.373
 9584TIP3    H128709   5.030   5.716   0.288
 9584TIP3    H228710   5.092   5.739   0.425
 9585TIP3   OH228711   2.369   0.617   3.801
 9585TIP3    H128712   2.440   0.641   3.860
 9585TIP3    H228713   2.291   0.615   3.856
 9586TIP3   OH228714   5.176   5.614   6.338
 9586TIP3    H128715   5.211   5.618   6.249
 9586TIP3    H228716   5.232   5.674   6.388
 9587TIP3   OH228717   1.910   5.401   4.295
 9587TIP3    H128718   1.922   5.308   4.279
 9587TIP3    H228719   1.978   5.444   4.242
 9588TIP3   OH228720   7.752   6.237   3.435
 9588TIP3    H128721   7.765   6.146   3.410
 9588TIP3    H228722   7.764   6.286   3.354
 9589TIP3   OH228723   7.231   0.987   2.208
 9589TIP3    H128724   7.185   1.066   2.235
 9589TIP3    H228725   7.256   0.944   2.289
 9590TIP3   OH228726   4.217   3.161   6.376
 9590TIP3    H128727   4.137   3.196   6.414
 9590TIP3    H228728   4.288   3.210   6.419
 9591TIP3   OH228729   2.596   7.132   1.559
 9591TIP3    H128730   2.630   7.118   1.471
 9591TIP3    H228731   2.630   7.218   1.584
 9592TIP3   OH228732   5.953   7.329   6.793
 9592TIP3    H128733   5.922   7.389   6.724
 9592TIP3    H228734   5.899   7.251   6.783
 9593TIP3   OH228735   5.558   4.932   5.101
 9593TIP3    H128736   5.626   4.898   5.159
 9593TIP3    H228737   5.477   4.925   5.153
 9594TIP3   OH228738   0.896   0.415   3.549
 9594TIP3    H128739   0.808   0.386   3.525
 9594TIP3    H228740   0.886   0.450   3.638
 9595TIP3   OH228741   5.523   7.713  -0.033
 9595TIP3    H128742   5.594   7.714   0.031
 9595TIP3    H228743   5.448   7.750   0.013
 9596TIP3   OH228744   2.872   1.364   5.841
 9596TIP3    H128745   2.919   1.447   5.829
 9596TIP3    H228746   2.940   1.300   5.858
 9597TIP3   OH228747   7.894   1.475   4.195
 9597TIP3    H128748   7.968   1.422   4.164
 9597TIP3    H228749   7.821   1.414   4.200
 9598TIP3   OH228750   2.332   5.728   5.452
 9598TIP3    H128751   2.282   5.754   5.529
 9598TIP3    H228752   2.325   5.633   5.449
 9599TIP3   OH228753   3.014   4.880   3.942
 9599TIP3    H128754   2.980   4.862   4.029
 9599TIP3    H228755   3.047   4.796   3.911
 9600TIP3   OH228756   1.295   4.255   4.824
 9600TIP3    H128757   1.272   4.192   4.756
 9600TIP3    H228758   1.213   4.271   4.870
 9601TIP3   OH228759   2.571   2.664   4.824
 9601TIP3    H128760   2.611   2.744   4.860
 9601TIP3    H228761   2.634   2.595   4.845
 9602TIP3   OH228762   4.752   4.369   1.314
 9602TIP3    H128763   4.742   4.343   1.405
 9602TIP3    H228764   4.843   4.395   1.306
 9603TIP3   OH228765   6.997   5.691   0.751
 9603TIP3    H128766   7.081   5.703   0.796
 9603TIP3    H228767   6.982   5.773   0.705
 9604TIP3   OH228768   4.813   4.282   0.740
 9604TIP3    H128769   4.788   4.367   0.777
 9604TIP3    H228770   4.890   4.301   0.687
 9605TIP3   OH228771   7.633   0.270   3.103
 9605TIP3    H128772   7.674   0.204   3.159
 9605TIP3    H228773   7.703   0.299   3.044
 9606TIP3   OH228774   1.759   0.116   6.635
 9606TIP3    H128775   1.700   0.110   6.711
 9606TIP3    H228776   1.756   0.029   6.596
 9607TIP3   OH228777   5.391   2.460   3.661
 9607TIP3    H128778   5.341   2.422   3.733
 9607TIP3    H228779   5.483   2.442   3.682
 9608TIP3   OH228780   8.074   1.714   5.718
 9608TIP3    H128781   7.980   1.695   5.724
 9608TIP3    H228782   8.111   1.676   5.798
 9609TIP3   OH228783   5.587   5.998   4.818
 9609TIP3    H128784   5.579   5.910   4.855
 9609TIP3    H228785   5.623   6.051   4.889
 9610TIP3   OH228786   0.911   1.061   1.308
 9610TIP3    H128787   0.826   1.100   1.285
 9610TIP3    H228788   0.888   0.988   1.366
 9611TIP3   OH228789   7.346   2.724   0.512
 9611TIP3    H128790   7.307   2.680   0.587
 9611TIP3    H228791   7.434   2.686   0.504
 9612TIP3   OH228792   5.162   6.288   0.391
 9612TIP3    H128793   5.116   6.222   0.443
 9612TIP3    H228794   5.249   6.250   0.377
 9613TIP3   OH228795   6.582   0.186   4.790
 9613TIP3    H128796   6.546   0.274   4.784
 9613TIP3    H228797   6.620   0.169   4.704
 9614TIP3   OH228798   7.808   7.252   5.446
 9614TIP3    H128799   7.779   7.338   5.477
 9614TIP3    H228800   7.770   7.191   5.509
 9615TIP3   OH228801   3.006   0.315   0.851
 9615TIP3    H128802   2.987   0.230   0.811
 9615TIP3    H228803   3.056   0.363   0.785
 9616TIP3   OH228804   0.473   1.618   1.224
 9616TIP3    H128805   0.496   1.545   1.280
 9616TIP3    H228806   0.443   1.578   1.143
 9617TIP3   OH228807   5.021   6.748   4.070
 9617TIP3    H128808   4.995   6.833   4.036
 9617TIP3    H228809   5.050   6.766   4.160
 9618TIP3   OH228810   1.694   5.812   3.529
 9618TIP3    H128811   1.600   5.819   3.508
 9618TIP3    H228812   1.697   5.812   3.625
 9619TIP3   OH228813   7.834   0.308   5.880
 9619TIP3    H128814   7.753   0.283   5.925
 9619TIP3    H228815   7.853   0.234   5.822
 9620TIP3   OH228816   0.682   5.289   5.796
 9620TIP3    H128817   0.689   5.381   5.770
 9620TIP3    H228818   0.609   5.288   5.859
 9621TIP3   OH228819   1.223   7.016   6.250
 9621TIP3    H128820   1.171   6.996   6.328
 9621TIP3    H228821   1.188   6.958   6.182
 9622TIP3   OH228822   6.049   6.544   3.267
 9622TIP3    H128823   6.006   6.563   3.183
 9622TIP3    H228824   5.987   6.489   3.314
 9623TIP3   OH228825   3.740   1.236   2.987
 9623TIP3    H128826   3.650   1.205   2.977
 9623TIP3    H228827   3.741   1.280   3.071
 9624TIP3   OH228828   4.281   0.957   1.299
 9624TIP3    H128829   4.286   0.968   1.204
 9624TIP3    H228830   4.357   1.004   1.333
 9625TIP3   OH228831   8.157   4.205   2.447
 9625TIP3    H128832   8.180   4.112   2.446
 9625TIP3    H228833   8.238   4.250   2.472
 9626TIP3   OH228834   3.967   3.849   5.023
 9626TIP3    H128835   3.995   3.889   4.940
 9626TIP3    H228836   3.995   3.911   5.090
 9627TIP3   OH228837   0.287   2.187   3.178
 9627TIP3    H128838   0.309   2.154   3.091
 9627TIP3    H228839   0.235   2.266   3.161
 9628TIP3   OH228840   6.618   3.368   0.146
 9628TIP3    H128841   6.604   3.455   0.110
 9628TIP3    H228842   6.677   3.382   0.221
 9629TIP3   OH228843   6.986   2.146   2.708
 9629TIP3    H128844   7.006   2.192   2.789
 9629TIP3    H228845   6.901   2.104   2.724
 9630TIP3   OH228846   4.155   6.097   4.138
 9630TIP3    H128847   4.160   6.010   4.098
 9630TIP3    H228848   4.245   6.131   4.132
 9631TIP3   OH228849   6.121   4.498   6.688
 9631TIP3    H128850   6.201   4.482   6.637
 9631TIP3    H228851   6.078   4.413   6.691
 9632TIP3   OH228852   2.405   4.701   4.415
 9632TIP3    H128853   2.497   4.682   4.431
 9632TIP3    H228854   2.375   4.630   4.358
 9633TIP3   OH228855   2.735   4.832   6.681
 9633TIP3    H128856   2.679   4.793   6.748
 9633TIP3    H228857   2.817   4.783   6.687
 9634TIP3   OH228858   2.924   2.504   2.521
 9634TIP3    H128859   2.912   2.552   2.604
 9634TIP3    H228860   3.002   2.450   2.535
 9635TIP3   OH228861   4.138   7.751   1.998
 9635TIP3    H128862   4.048   7.773   1.975
 9635TIP3    H228863   4.191   7.798   1.934
 9636TIP3   OH228864   3.841   5.352   3.185
 9636TIP3    H128865   3.913   5.415   3.182
 9636TIP3    H228866   3.765   5.404   3.211
 9637TIP3   OH228867   5.436   7.529   0.451
 9637TIP3    H128868   5.529   7.555   0.451
 9637TIP3    H228869   5.403   7.559   0.367
 9638TIP3   OH228870   4.304   0.038   4.200
 9638TIP3    H128871   4.347  -0.039   4.162
 9638TIP3    H228872   4.374   0.083   4.247
 9639TIP3   OH228873   6.301   3.558   0.146
 9639TIP3    H128874   6.394   3.540   0.132
 9639TIP3    H228875   6.280   3.628   0.084
 9640TIP3   OH228876   1.777   0.267   1.881
 9640TIP3    H128877   1.751   0.262   1.789
 9640TIP3    H228878   1.848   0.203   1.889
 9641TIP3   OH228879   7.584   5.055   1.428
 9641TIP3    H128880   7.652   5.036   1.492
 9641TIP3    H228881   7.521   4.983   1.438
 9642TIP3   OH228882   5.449   4.403   1.753
 9642TIP3    H128883   5.492   4.319   1.768
 9642TIP3    H228884   5.517   4.458   1.712
 9643TIP3   OH228885   2.689   0.333   4.808
 9643TIP3    H128886   2.660   0.288   4.887
 9643TIP3    H228887   2.765   0.284   4.778
 9644TIP3   OH228888   2.448   6.022   1.647
 9644TIP3    H128889   2.366   5.994   1.606
 9644TIP3    H228890   2.423   6.097   1.702
 9645TIP3   OH228891   4.365   2.070   2.431
 9645TIP3    H128892   4.400   2.039   2.347
 9645TIP3    H228893   4.333   2.159   2.411
 9646TIP3   OH228894   4.415   0.999   1.032
 9646TIP3    H128895   4.401   0.938   0.959
 9646TIP3    H228896   4.510   1.011   1.035
 9647TIP3   OH228897   3.538   5.968   6.022
 9647TIP3    H128898   3.569   5.878   6.034
 9647TIP3    H228899   3.480   5.983   6.097
 9648TIP3   OH228900   7.583   5.510   0.695
 9648TIP3    H128901   7.509   5.451   0.680
 9648TIP3    H228902   7.660   5.457   0.675
 9649TIP3   OH228903   6.821   7.504   5.211
 9649TIP3    H128904   6.794   7.412   5.215
 9649TIP3    H228905   6.807   7.529   5.120
 9650TIP3   OH228906   6.204   3.832   3.960
 9650TIP3    H128907   6.201   3.839   3.865
 9650TIP3    H228908   6.145   3.900   3.991
 9651TIP3   OH228909   6.813   1.036   1.933
 9651TIP3    H128910   6.895   1.081   1.913
 9651TIP3    H228911   6.756   1.053   1.858
 9652TIP3   OH228912   0.269   0.476   5.487
 9652TIP3    H128913   0.201   0.427   5.439
 9652TIP3    H228914   0.309   0.411   5.545
 9653TIP3   OH228915   0.859   0.824   4.374
 9653TIP3    H128916   0.834   0.886   4.305
 9653TIP3    H228917   0.777   0.801   4.417
 9654TIP3   OH228918   3.836   3.478   2.306
 9654TIP3    H128919   3.857   3.566   2.275
 9654TIP3    H228920   3.820   3.428   2.226
 9655TIP3   OH228921   7.214   0.388   3.008
 9655TIP3    H128922   7.302   0.425   3.018
 9655TIP3    H228923   7.173   0.401   3.094
 9656TIP3   OH228924   4.808   7.353   1.654
 9656TIP3    H128925   4.738   7.344   1.589
 9656TIP3    H228926   4.775   7.308   1.731
 9657TIP3   OH228927   2.100   4.160   4.179
 9657TIP3    H128928   2.143   4.169   4.094
 9657TIP3    H228929   2.170   4.173   4.243
 9658TIP3   OH228930   8.210   0.562   1.664
 9658TIP3    H128931   8.206   0.478   1.620
 9658TIP3    H228932   8.150   0.553   1.738
 9659TIP3   OH228933   3.614   1.744   6.564
 9659TIP3    H128934   3.600   1.653   6.589
 9659TIP3    H228935   3.684   1.774   6.622
 9660TIP3   OH228936   5.960   2.572   4.444
 9660TIP3    H128937   5.965   2.582   4.539
 9660TIP3    H228938   5.985   2.658   4.409
 9661TIP3   OH228939   1.403   7.656   5.483
 9661TIP3    H128940   1.368   7.743   5.503
 9661TIP3    H228941   1.326   7.601   5.469
 9662TIP3   OH228942   4.168   0.070   1.161
 9662TIP3    H128943   4.177   0.160   1.192
 9662TIP3    H228944   4.211   0.017   1.228
 9663TIP3   OH228945   0.692   4.398   4.177
 9663TIP3    H128946   0.740   4.436   4.250
 9663TIP3    H228947   0.741   4.424   4.099
 9664TIP3   OH228948   3.404   3.730   4.225
 9664TIP3    H128949   3.332   3.778   4.185
 9664TIP3    H228950   3.470   3.723   4.155
 9665TIP3   OH228951   2.166   2.266   0.977
 9665TIP3    H128952   2.083   2.246   0.932
 9665TIP3    H228953   2.168   2.362   0.980
 9666TIP3   OH228954   4.987   4.287   6.441
 9666TIP3    H128955   4.949   4.299   6.354
 9666TIP3    H228956   4.931   4.338   6.499
 9667TIP3   OH228957   1.302   4.004   3.790
 9667TIP3    H128958   1.361   4.020   3.864
 9667TIP3    H228959   1.328   3.918   3.757
 9668TIP3   OH228960   2.443   6.025   0.756
 9668TIP3    H128961   2.486   6.088   0.814
 9668TIP3    H228962   2.350   6.043   0.765
 9669TIP3   OH228963   5.039   4.967   2.884
 9669TIP3    H128964   4.952   5.006   2.881
 9669TIP3    H228965   5.084   5.005   2.808
 9670TIP3   OH228966   2.548   1.012   0.138
 9670TIP3    H128967   2.551   0.917   0.125
 9670TIP3    H228968   2.631   1.044   0.103
 9671TIP3   OH228969   0.343   7.289   4.326
 9671TIP3    H128970   0.392   7.215   4.291
 9671TIP3    H228971   0.389   7.315   4.405
 9672TIP3   OH228972   6.501   3.110   0.694
 9672TIP3    H128973   6.414   3.070   0.696
 9672TIP3    H228974   6.562   3.036   0.687
 9673TIP3   OH228975   5.445   2.485   6.549
 9673TIP3    H128976   5.506   2.474   6.622
 9673TIP3    H228977   5.375   2.421   6.568
 9674TIP3   OH228978   7.048   6.929   6.146
 9674TIP3    H128979   7.070   7.020   6.166
 9674TIP3    H228980   6.973   6.935   6.086
 9675TIP3   OH228981   2.804   7.471   2.866
 9675TIP3    H128982   2.717   7.493   2.899
 9675TIP3    H228983   2.791   7.456   2.772
 9676TIP3   OH228984   5.098   5.155   6.515
 9676TIP3    H128985   5.108   5.063   6.537
 9676TIP3    H228986   5.029   5.157   6.449
 9677TIP3   OH228987   5.915   7.726   0.528
 9677TIP3    H128988   5.951   7.772   0.453
 9677TIP3    H228989   5.930   7.785   0.602
 9678TIP3   OH228990   8.171   4.467   5.182
 9678TIP3    H128991   8.156   4.537   5.118
 9678TIP3    H228992   8.083   4.440   5.208
 9679TIP3   OH228993   7.911   2.603   4.673
 9679TIP3    H128994   7.893   2.514   4.644
 9679TIP3    H228995   7.937   2.595   4.765
 9680TIP3   OH228996   6.141   4.320   0.904
 9680TIP3    H128997   6.157   4.277   0.820
 9680TIP3    H228998   6.185   4.404   0.897
 9681TIP3   OH228999   6.663   6.764   3.133
 9681TIP3    H129000   6.616   6.681   3.124
 9681TIP3    H229001   6.594   6.830   3.142
 9682TIP3   OH229002   3.948   6.961   0.128
 9682TIP3    H129003   3.970   6.898   0.196
 9682TIP3    H229004   4.029   7.010   0.114
 9683TIP3   OH229005   3.461   2.129   1.264
 9683TIP3    H129006   3.481   2.053   1.318
 9683TIP3    H229007   3.369   2.117   1.239
 9684TIP3   OH229008   6.249   1.941   2.793
 9684TIP3    H129009   6.177   1.970   2.737
 9684TIP3    H229010   6.327   1.977   2.751
 9685TIP3   OH229011   0.209   3.529   5.908
 9685TIP3    H129012   0.160   3.464   5.958
 9685TIP3    H229013   0.278   3.479   5.864
 9686TIP3   OH229014   4.809   5.006   0.335
 9686TIP3    H129015   4.823   5.030   0.427
 9686TIP3    H229016   4.779   5.088   0.295
 9687TIP3   OH229017   5.053   2.679   2.603
 9687TIP3    H129018   5.098   2.762   2.586
 9687TIP3    H229019   5.124   2.615   2.612
 9688TIP3   OH229020   3.682   0.876   6.505
 9688TIP3    H129021   3.621   0.828   6.561
 9688TIP3    H229022   3.758   0.894   6.562
 9689TIP3   OH229023   6.928   7.639   3.340
 9689TIP3    H129024   6.936   7.675   3.251
 9689TIP3    H229025   6.861   7.571   3.332
 9690TIP3   OH229026   6.804   6.671   6.362
 9690TIP3    H129027   6.747   6.611   6.411
 9690TIP3    H229028   6.882   6.620   6.342
 9691TIP3   OH229029   8.277   5.772   2.117
 9691TIP3    H129030   8.350   5.802   2.171
 9691TIP3    H229031   8.208   5.837   2.131
 9692TIP3   OH229032   2.565   7.458   4.331
 9692TIP3    H129033   2.471   7.442   4.320
 9692TIP3    H229034   2.606   7.414   4.256
 9693TIP3   OH229035   3.239   5.084   0.495
 9693TIP3    H129036   3.267   5.096   0.586
 9693TIP3    H229037   3.321   5.074   0.446
 9694TIP3   OH229038   4.018   5.597   0.789
 9694TIP3    H129039   4.049   5.538   0.858
 9694TIP3    H229040   4.026   5.546   0.708
 9695TIP3   OH229041   2.094   2.888   4.472
 9695TIP3    H129042   2.145   2.950   4.420
 9695TIP3    H229043   2.022   2.941   4.507
 9696TIP3   OH229044   2.163   5.194   5.382
 9696TIP3    H129045   2.115   5.227   5.306
 9696TIP3    H229046   2.095   5.157   5.439
 9697TIP3   OH229047   4.545   5.575   4.193
 9697TIP3    H129048   4.594   5.497   4.165
 9697TIP3    H229049   4.606   5.647   4.180
 9698TIP3   OH229050   3.698   0.495   1.633
 9698TIP3    H129051   3.660   0.419   1.588
 9698TIP3    H229052   3.718   0.463   1.721
 9699TIP3   OH229053   5.868   6.404   5.448
 9699TIP3    H129054   5.902   6.478   5.397
 9699TIP3    H229055   5.941   6.376   5.503
 9700TIP3   OH229056   6.693   1.683   0.809
 9700TIP3    H129057   6.753   1.728   0.749
 9700TIP3    H229058   6.727   1.594   0.813
 9701TIP3   OH229059   1.593   6.675   2.375
 9701TIP3    H129060   1.548   6.599   2.413
 9701TIP3    H229061   1.530   6.747   2.382
 9702TIP3   OH229062   0.337   4.365   1.646
 9702TIP3    H129063   0.274   4.372   1.717
 9702TIP3    H229064   0.284   4.342   1.569
 9703TIP3   OH229065   4.238   3.939   4.261
 9703TIP3    H129066   4.318   3.993   4.261
 9703TIP3    H229067   4.270   3.849   4.254
 9704TIP3   OH229068   7.787   3.262   0.539
 9704TIP3    H129069   7.707   3.211   0.527
 9704TIP3    H229070   7.778   3.300   0.627
 9705TIP3   OH229071   1.226   1.345   4.364
 9705TIP3    H129072   1.150   1.395   4.396
 9705TIP3    H229073   1.235   1.273   4.426
 9706TIP3   OH229074   4.052   7.294   0.488
 9706TIP3    H129075   4.034   7.313   0.396
 9706TIP3    H229076   3.968   7.261   0.522
 9707TIP3   OH229077   7.335   5.073   0.729
 9707TIP3    H129078   7.373   5.075   0.817
 9707TIP3    H229079   7.408   5.094   0.671
 9708TIP3   OH229080   1.617   7.067   0.403
 9708TIP3    H129081   1.572   7.151   0.393
 9708TIP3    H229082   1.607   7.025   0.318
 9709TIP3   OH229083   0.509   0.103   2.669
 9709TIP3    H129084   0.545   0.095   2.757
 9709TIP3    H229085   0.453   0.026   2.660
 9710TIP3   OH229086   4.923   1.293   6.004
 9710TIP3    H129087   4.878   1.212   5.981
 9710TIP3    H229088   4.871   1.328   6.077
 9711TIP3   OH229089   6.810   4.294   0.568
 9711TIP3    H129090   6.821   4.355   0.641
 9711TIP3    H229091   6.740   4.235   0.595
 9712TIP3   OH229092   6.948   3.866   4.141
 9712TIP3    H129093   6.908   3.949   4.113
 9712TIP3    H229094   7.041   3.876   4.121
 9713TIP3   OH229095   1.935   5.606   6.699
 9713TIP3    H129096   2.023   5.625   6.733
 9713TIP3    H229097   1.934   5.644   6.611
 9714TIP3   OH229098   5.284   1.970   1.445
 9714TIP3    H129099   5.325   2.025   1.512
 9714TIP3    H229100   5.217   1.921   1.493
 9715TIP3   OH229101   5.642   2.637   2.097
 9715TIP3    H129102   5.653   2.542   2.103
 9715TIP3    H229103   5.642   2.667   2.188
 9716TIP3   OH229104   2.708   4.455   6.725
 9716TIP3    H129105   2.708   4.469   6.630
 9716TIP3    H229106   2.800   4.458   6.750
 9717TIP3   OH229107   5.937   5.946   1.801
 9717TIP3    H129108   5.918   5.871   1.745
 9717TIP3    H229109   6.002   5.996   1.752
 9718TIP3   OH229110   1.990   5.857   6.789
 9718TIP3    H129111   1.899   5.878   6.767
 9718TIP3    H229112   2.039   5.878   6.710
 9719TIP3   OH229113   8.016   4.906   6.111
 9719TIP3    H129114   8.047   4.912   6.202
 9719TIP3    H229115   8.071   4.838   6.071
 9720TIP3   OH229116   3.741   7.435   2.150
 9720TIP3    H129117   3.826   7.392   2.145
 9720TIP3    H229118   3.678   7.366   2.127
 9721TIP3   OH229119   8.273   6.715   1.772
 9721TIP3    H129120   8.180   6.711   1.791
 9721TIP3    H229121   8.310   6.636   1.812
 9722TIP3   OH229122   5.858   5.858   5.428
 9722TIP3    H129123   5.796   5.903   5.371
 9722TIP3    H229124   5.808   5.841   5.508
 9723TIP3   OH229125   6.407   7.781   5.223
 9723TIP3    H129126   6.498   7.757   5.235
 9723TIP3    H229127   6.388   7.840   5.296
 9724TIP3   OH229128   0.255   5.347   3.953
 9724TIP3    H129129   0.250   5.421   4.014
 9724TIP3    H229130   0.303   5.279   4.001
 9725TIP3   OH229131   3.127   5.306   4.608
 9725TIP3    H129132   3.055   5.322   4.546
 9725TIP3    H229133   3.159   5.394   4.630
 9726TIP3   OH229134   5.954   5.038   1.666
 9726TIP3    H129135   5.950   5.120   1.616
 9726TIP3    H229136   6.034   5.046   1.718
 9727TIP3   OH229137   0.761   3.590   6.124
 9727TIP3    H129138   0.701   3.634   6.184
 9727TIP3    H229139   0.723   3.503   6.110
 9728TIP3   OH229140   3.270   7.648   2.948
 9728TIP3    H129141   3.203   7.583   2.967
 9728TIP3    H229142   3.265   7.661   2.853
 9729TIP3   OH229143   1.168   4.140   3.563
 9729TIP3    H129144   1.195   4.082   3.634
 9729TIP3    H229145   1.076   4.159   3.582
 9730TIP3   OH229146   0.468   0.830   6.008
 9730TIP3    H129147   0.516   0.755   5.974
 9730TIP3    H229148   0.445   0.881   5.930
 9731TIP3   OH229149   6.182   0.451   3.642
 9731TIP3    H129150   6.203   0.358   3.634
 9731TIP3    H229151   6.111   0.454   3.707
 9732TIP3   OH229152   0.908   3.407   3.426
 9732TIP3    H129153   0.820   3.446   3.420
 9732TIP3    H229154   0.925   3.374   3.338
 9733TIP3   OH229155   0.253   2.865   2.440
 9733TIP3    H129156   0.345   2.892   2.435
 9733TIP3    H229157   0.215   2.924   2.505
 9734TIP3   OH229158   4.727   1.553   2.015
 9734TIP3    H129159   4.811   1.527   1.979
 9734TIP3    H229160   4.734   1.648   2.028
 9735TIP3   OH229161   2.149   1.649   5.565
 9735TIP3    H129162   2.226   1.604   5.531
 9735TIP3    H229163   2.095   1.580   5.603
 9736TIP3   OH229164   2.346   3.300   4.163
 9736TIP3    H129165   2.361   3.380   4.113
 9736TIP3    H229166   2.432   3.257   4.166
 9737TIP3   OH229167   7.754   6.884   6.328
 9737TIP3    H129168   7.841   6.878   6.368
 9737TIP3    H229169   7.706   6.809   6.362
 9738TIP3   OH229170   6.591   1.679   6.015
 9738TIP3    H129171   6.674   1.724   6.036
 9738TIP3    H229172   6.555   1.656   6.100
 9739TIP3   OH229173   1.550   7.683   4.740
 9739TIP3    H129174   1.529   7.655   4.830
 9739TIP3    H229175   1.468   7.721   4.708
 9740TIP3   OH229176   7.811   6.691   5.390
 9740TIP3    H129177   7.812   6.607   5.436
 9740TIP3    H229178   7.903   6.712   5.376
 9741TIP3   OH229179   2.870   5.531   1.348
 9741TIP3    H129180   2.820   5.450   1.341
 9741TIP3    H229181   2.874   5.565   1.259
 9742TIP3   OH229182   2.445   3.586   2.957
 9742TIP3    H129183   2.471   3.667   2.913
 9742TIP3    H229184   2.355   3.571   2.929
 9743TIP3   OH229185   8.175   7.595   3.272
 9743TIP3    H129186   8.266   7.572   3.286
 9743TIP3    H229187   8.130   7.512   3.258
 9744TIP3   OH229188   6.937   5.480   5.119
 9744TIP3    H129189   6.858   5.473   5.173
 9744TIP3    H229190   7.007   5.442   5.173
 9745TIP3   OH229191   7.306   5.509   1.002
 9745TIP3    H129192   7.383   5.458   0.979
 9745TIP3    H229193   7.232   5.451   0.986
 9746TIP3   OH229194   1.901   0.859   2.379
 9746TIP3    H129195   1.987   0.818   2.386
 9746TIP3    H229196   1.848   0.817   2.447
 9747TIP3   OH229197   2.073   7.629   2.159
 9747TIP3    H129198   2.133   7.617   2.085
 9747TIP3    H229199   2.088   7.718   2.189
 9748TIP3   OH229200   7.262   1.184   3.239
 9748TIP3    H129201   7.276   1.186   3.333
 9748TIP3    H229202   7.182   1.132   3.228
 9749TIP3   OH229203   1.627   7.240   5.512
 9749TIP3    H129204   1.630   7.330   5.481
 9749TIP3    H229205   1.691   7.193   5.457
 9750TIP3   OH229206   7.980   1.617   1.429
 9750TIP3    H129207   8.073   1.638   1.438
 9750TIP3    H229208   7.947   1.612   1.519
 9751TIP3   OH229209   7.481   7.375   5.202
 9751TIP3    H129210   7.497   7.281   5.196
 9751TIP3    H229211   7.554   7.416   5.155
 9752TIP3   OH229212   3.084   3.521   2.005
 9752TIP3    H129213   3.171   3.547   1.975
 9752TIP3    H229214   3.101   3.465   2.080
 9753TIP3   OH229215   2.453   1.554   6.328
 9753TIP3    H129216   2.410   1.637   6.309
 9753TIP3    H229217   2.544   1.578   6.347
 9754TIP3   OH229218   4.814   6.691   1.950
 9754TIP3    H129219   4.905   6.662   1.946
 9754TIP3    H229220   4.817   6.772   2.000
 9755TIP3   OH229221   5.155   6.386   1.713
 9755TIP3    H129222   5.087   6.338   1.666
 9755TIP3    H229223   5.152   6.475   1.677
 9756TIP3   OH229224   2.391   6.149   5.336
 9756TIP3    H129225   2.434   6.113   5.413
 9756TIP3    H229226   2.444   6.120   5.262
 9757TIP3   OH229227   0.851   5.489   1.160
 9757TIP3    H129228   0.882   5.450   1.078
 9757TIP3    H229229   0.905   5.567   1.172
 9758TIP3   OH229230   6.904   3.804   6.653
 9758TIP3    H129231   6.878   3.766   6.569
 9758TIP3    H229232   6.997   3.825   6.641
 9759TIP3   OH229233   0.719   6.271   5.713
 9759TIP3    H129234   0.754   6.297   5.628
 9759TIP3    H229235   0.640   6.324   5.723
 9760TIP3   OH229236   4.774   6.052   0.617
 9760TIP3    H129237   4.731   5.976   0.578
 9760TIP3    H229238   4.703   6.111   0.641
 9761TIP3   OH229239   1.003   0.781   4.125
 9761TIP3    H129240   0.908   0.786   4.137
 9761TIP3    H229241   1.039   0.800   4.212
 9762TIP3   OH229242   0.764   5.483   5.496
 9762TIP3    H129243   0.823   5.431   5.551
 9762TIP3    H229244   0.821   5.527   5.433
 9763TIP3   OH229245   0.621   3.783   3.892
 9763TIP3    H129246   0.673   3.708   3.862
 9763TIP3    H229247   0.554   3.745   3.949
 9764TIP3   OH229248   6.629   3.830   0.935
 9764TIP3    H129249   6.633   3.919   0.901
 9764TIP3    H229250   6.536   3.810   0.941
 9765TIP3   OH229251   4.492   4.943   1.557
 9765TIP3    H129252   4.486   4.921   1.464
 9765TIP3    H229253   4.567   5.003   1.563
 9766TIP3   OH229254   1.763   6.891   2.947
 9766TIP3    H129255   1.720   6.823   2.999
 9766TIP3    H229256   1.693   6.932   2.898
 9767TIP3   OH229257   4.747   4.527   2.838
 9767TIP3    H129258   4.793   4.445   2.858
 9767TIP3    H229259   4.815   4.587   2.809
 9768TIP3   OH229260   4.216   0.887   5.985
 9768TIP3    H129261   4.160   0.831   6.039
 9768TIP3    H229262   4.184   0.875   5.896
 9769TIP3   OH229263   7.128   7.302   1.189
 9769TIP3    H129264   7.157   7.325   1.101
 9769TIP3    H229265   7.207   7.273   1.235
 9770TIP3   OH229266   6.746   2.841   2.639
 9770TIP3    H129267   6.711   2.830   2.727
 9770TIP3    H229268   6.839   2.855   2.652
 9771TIP3   OH229269   4.829   0.783   5.488
 9771TIP3    H129270   4.802   0.867   5.450
 9771TIP3    H229271   4.787   0.717   5.433
 9772TIP3   OH229272   2.655   5.150   3.497
 9772TIP3    H129273   2.564   5.173   3.475
 9772TIP3    H229274   2.669   5.190   3.583
 9773TIP3   OH229275   4.363   5.819   3.288
 9773TIP3    H129276   4.348   5.728   3.266
 9773TIP3    H229277   4.313   5.869   3.223
 9774TIP3   OH229278   7.286   3.349   4.197
 9774TIP3    H129279   7.229   3.381   4.127
 9774TIP3    H229280   7.315   3.263   4.167
 9775TIP3   OH229281   1.564   2.897   0.230
 9775TIP3    H129282   1.480   2.869   0.267
 9775TIP3    H229283   1.573   2.846   0.150
 9776TIP3   OH229284   3.349   7.040   4.782
 9776TIP3    H129285   3.401   6.971   4.823
 9776TIP3    H229286   3.334   7.103   4.853
 9777TIP3   OH229287   3.640   7.160   5.800
 9777TIP3    H129288   3.602   7.095   5.859
 9777TIP3    H229289   3.714   7.197   5.848
 9778TIP3   OH229290   3.299   3.321   1.738
 9778TIP3    H129291   3.350   3.310   1.657
 9778TIP3    H229292   3.365   3.318   1.807
 9779TIP3   OH229293   7.359   5.250   3.358
 9779TIP3    H129294   7.291   5.273   3.294
 9779TIP3    H229295   7.377   5.157   3.342
 9780TIP3   OH229296   7.747   4.476   6.256
 9780TIP3    H129297   7.729   4.461   6.348
 9780TIP3    H229298   7.843   4.485   6.251
 9781TIP3   OH229299   2.805   0.903   0.018
 9781TIP3    H129300   2.742   0.918  -0.053
 9781TIP3    H229301   2.767   0.832   0.069
 9782TIP3   OH229302   6.879   7.024   1.861
 9782TIP3    H129303   6.844   6.939   1.888
 9782TIP3    H229304   6.963   7.031   1.907
 9783TIP3   OH229305   4.310   1.816   5.413
 9783TIP3    H129306   4.363   1.887   5.447
 9783TIP3    H229307   4.234   1.813   5.471
 9784TIP3   OH229308   1.713   2.273   1.622
 9784TIP3    H129309   1.660   2.331   1.676
 9784TIP3    H229310   1.741   2.327   1.549
 9785TIP3   OH229311   6.757   1.802   1.891
 9785TIP3    H129312   6.682   1.850   1.926
 9785TIP3    H229313   6.787   1.856   1.817
 9786TIP3   OH229314   7.366   4.980   2.855
 9786TIP3    H129315   7.285   4.935   2.830
 9786TIP3    H229316   7.408   5.002   2.772
 9787TIP3   OH229317   6.638   4.600   0.569
 9787TIP3    H129318   6.727   4.588   0.536
 9787TIP3    H229319   6.636   4.689   0.604
 9788TIP3   OH229320   8.225   1.912   0.543
 9788TIP3    H129321   8.303   1.865   0.574
 9788TIP3    H229322   8.243   2.004   0.563
 9789TIP3   OH229323   1.200   3.068   0.581
 9789TIP3    H129324   1.209   2.975   0.600
 9789TIP3    H229325   1.268   3.110   0.634
 9790TIP3   OH229326   6.741   4.479   2.187
 9790TIP3    H129327   6.651   4.453   2.167
 9790TIP3    H229328   6.733   4.562   2.233
 9791TIP3   OH229329   7.536   3.017   2.877
 9791TIP3    H129330   7.585   3.041   2.956
 9791TIP3    H229331   7.541   3.094   2.821
 9792TIP3   OH229332   1.240   5.278   2.873
 9792TIP3    H129333   1.241   5.182   2.878
 9792TIP3    H229334   1.293   5.306   2.948
 9793TIP3   OH229335   8.076   3.782   0.918
 9793TIP3    H129336   8.048   3.712   0.860
 9793TIP3    H229337   8.003   3.793   0.979
 9794TIP3   OH229338   0.804   5.977   4.162
 9794TIP3    H129339   0.773   5.887   4.165
 9794TIP3    H229340   0.895   5.970   4.131
 9795TIP3   OH229341   0.135   1.102   2.727
 9795TIP3    H129342   0.094   1.164   2.787
 9795TIP3    H229343   0.103   1.016   2.755
 9796TIP3   OH229344   0.855   5.092   6.391
 9796TIP3    H129345   0.897   5.167   6.348
 9796TIP3    H229346   0.904   5.081   6.472
 9797TIP3   OH229347   3.515   0.304   6.212
 9797TIP3    H129348   3.491   0.212   6.208
 9797TIP3    H229349   3.610   0.303   6.225
 9798TIP3   OH229350   2.172   4.360   1.088
 9798TIP3    H129351   2.225   4.346   1.010
 9798TIP3    H229352   2.103   4.421   1.060
 9799TIP3   OH229353   3.717   1.940   6.305
 9799TIP3    H129354   3.713   1.866   6.365
 9799TIP3    H229355   3.778   2.001   6.347
 9800TIP3   OH229356   5.382   1.038   6.381
 9800TIP3    H129357   5.422   1.021   6.466
 9800TIP3    H229358   5.439   1.103   6.340
 9801TIP3   OH229359   0.662   7.243   1.179
 9801TIP3    H129360   0.590   7.246   1.116
 9801TIP3    H229361   0.687   7.151   1.183
 9802TIP3   OH229362   7.819   5.769   4.220
 9802TIP3    H129363   7.856   5.853   4.248
 9802TIP3    H229364   7.865   5.704   4.273
 9803TIP3   OH229365   6.650   0.565   1.550
 9803TIP3    H129366   6.692   0.480   1.564
 9803TIP3    H229367   6.707   0.628   1.594
 9804TIP3   OH229368   3.460   1.354   0.293
 9804TIP3    H129369   3.429   1.268   0.323
 9804TIP3    H229370   3.496   1.337   0.206
 9805TIP3   OH229371   5.681   3.920   0.969
 9805TIP3    H129372   5.630   3.847   1.004
 9805TIP3    H229373   5.763   3.881   0.940
 9806TIP3   OH229374   2.713   2.483   5.263
 9806TIP3    H129375   2.706   2.409   5.202
 9806TIP3    H229376   2.785   2.459   5.321
 9807TIP3   OH229377   1.433   6.423   2.783
 9807TIP3    H129378   1.447   6.496   2.722
 9807TIP3    H229379   1.521   6.397   2.810
 9808TIP3   OH229380   0.434   7.703   5.949
 9808TIP3    H129381   0.525   7.729   5.963
 9808TIP3    H229382   0.420   7.714   5.855
 9809TIP3   OH229383   7.615   0.888   1.192
 9809TIP3    H129384   7.700   0.846   1.178
 9809TIP3    H229385   7.628   0.943   1.270
 9810TIP3   OH229386   4.495   3.377   5.354
 9810TIP3    H129387   4.447   3.327   5.420
 9810TIP3    H229388   4.545   3.311   5.306
 9811TIP3   OH229389   1.304   4.323   1.113
 9811TIP3    H129390   1.251   4.298   1.037
 9811TIP3    H229391   1.273   4.266   1.183
 9812TIP3   OH229392   7.556   1.385   5.625
 9812TIP3    H129393   7.638   1.379   5.674
 9812TIP3    H229394   7.488   1.381   5.691
 9813TIP3   OH229395   0.187   2.319   5.798
 9813TIP3    H129396   0.134   2.362   5.865
 9813TIP3    H229397   0.203   2.232   5.833
 9814TIP3   OH229398   2.333   2.073   2.251
 9814TIP3    H129399   2.259   2.020   2.221
 9814TIP3    H229400   2.292   2.144   2.300
 9815TIP3   OH229401   1.160   6.544   2.583
 9815TIP3    H129402   1.239   6.508   2.543
 9815TIP3    H229403   1.115   6.467   2.620
 9816TIP3   OH229404   0.403   6.543   1.323
 9816TIP3    H129405   0.491   6.560   1.289
 9816TIP3    H229406   0.352   6.519   1.245
 9817TIP3   OH229407   6.477   0.557   4.084
 9817TIP3    H129408   6.397   0.608   4.090
 9817TIP3    H229409   6.491   0.544   3.991
 9818TIP3   OH229410   4.372   7.704   4.984
 9818TIP3    H129411   4.295   7.667   4.941
 9818TIP3    H229412   4.338   7.750   5.060
 9819TIP3   OH229413   4.405   4.246   6.195
 9819TIP3    H129414   4.322   4.294   6.192
 9819TIP3    H229415   4.405   4.193   6.116
 9820TIP3   OH229416   8.051   7.766   1.677
 9820TIP3    H129417   8.024   7.675   1.687
 9820TIP3    H229418   8.123   7.764   1.614
 9821TIP3   OH229419   4.541   2.139   0.304
 9821TIP3    H129420   4.604   2.208   0.323
 9821TIP3    H229421   4.492   2.129   0.386
 9822TIP3   OH229422   8.150   3.982   3.821
 9822TIP3    H129423   8.224   3.957   3.765
 9822TIP3    H229424   8.190   4.032   3.892
 9823TIP3   OH229425   2.781   5.223   1.766
 9823TIP3    H129426   2.751   5.161   1.832
 9823TIP3    H229427   2.702   5.246   1.717
 9824TIP3   OH229428   4.421   7.018   5.282
 9824TIP3    H129429   4.400   6.947   5.342
 9824TIP3    H229430   4.461   7.085   5.337
 9825TIP3   OH229431   5.086   2.502   3.638
 9825TIP3    H129432   5.072   2.559   3.562
 9825TIP3    H229433   5.181   2.496   3.647
 9826TIP3   OH229434   7.341   3.203   2.013
 9826TIP3    H129435   7.264   3.232   1.963
 9826TIP3    H229436   7.351   3.111   1.991
 9827TIP3   OH229437   3.226   2.134   5.640
 9827TIP3    H129438   3.145   2.089   5.614
 9827TIP3    H229439   3.295   2.069   5.622
 9828TIP3   OH229440   1.786   4.965   3.824
 9828TIP3    H129441   1.786   5.057   3.797
 9828TIP3    H229442   1.723   4.923   3.765
 9829TIP3   OH229443   7.101   1.421   2.750
 9829TIP3    H129444   7.181   1.438   2.799
 9829TIP3    H229445   7.048   1.367   2.809
 9830TIP3   OH229446   5.360   7.270   1.833
 9830TIP3    H129447   5.411   7.189   1.828
 9830TIP3    H229448   5.378   7.314   1.749
 9831TIP3   OH229449   1.232   1.738   0.207
 9831TIP3    H129450   1.160   1.778   0.255
 9831TIP3    H229451   1.303   1.801   0.213
 9832TIP3   OH229452   4.672   1.176   4.209
 9832TIP3    H129453   4.659   1.212   4.122
 9832TIP3    H229454   4.657   1.082   4.199
 9833TIP3   OH229455   4.274   2.195   4.027
 9833TIP3    H129456   4.341   2.154   4.080
 9833TIP3    H229457   4.192   2.177   4.074
 9834TIP3   OH229458   7.679   3.747   4.411
 9834TIP3    H129459   7.663   3.748   4.317
 9834TIP3    H229460   7.671   3.655   4.436
 9835TIP3   OH229461   2.170   0.171   6.580
 9835TIP3    H129462   2.108   0.244   6.586
 9835TIP3    H229463   2.210   0.166   6.666
 9836TIP3   OH229464   2.740   3.963   1.845
 9836TIP3    H129465   2.775   3.876   1.828
 9836TIP3    H229466   2.659   3.966   1.795
 9837TIP3   OH229467   5.479   3.391   5.803
 9837TIP3    H129468   5.387   3.393   5.777
 9837TIP3    H229469   5.482   3.441   5.884
 9838TIP3   OH229470   5.839   1.732   4.309
 9838TIP3    H129471   5.872   1.813   4.348
 9838TIP3    H229472   5.787   1.691   4.378
 9839TIP3   OH229473   4.525  -0.004   5.648
 9839TIP3    H129474   4.502  -0.024   5.557
 9839TIP3    H229475   4.560   0.085   5.645
 9840TIP3   OH229476   7.950   3.167   3.682
 9840TIP3    H129477   8.020   3.229   3.699
 9840TIP3    H229478   7.919   3.188   3.595
 9841TIP3   OH229479   4.291   5.074   5.316
 9841TIP3    H129480   4.208   5.043   5.353
 9841TIP3    H229481   4.277   5.167   5.300
 9842TIP3   OH229482   6.865   6.582   0.035
 9842TIP3    H129483   6.949   6.544   0.010
 9842TIP3    H229484   6.874   6.602   0.128
 9843TIP3   OH229485   7.357   6.027   0.493
 9843TIP3    H129486   7.271   5.985   0.484
 9843TIP3    H229487   7.398   6.015   0.408
 9844TIP3   OH229488   8.033   5.502   0.886
 9844TIP3    H129489   7.941   5.517   0.911
 9844TIP3    H229490   8.029   5.482   0.793
 9845TIP3   OH229491   1.263   1.255   3.668
 9845TIP3    H129492   1.243   1.232   3.759
 9845TIP3    H229493   1.307   1.339   3.673
 9846TIP3   OH229494   0.076   3.946   5.186
 9846TIP3    H129495   0.059   3.925   5.094
 9846TIP3    H229496   0.003   4.002   5.212
 9847TIP3   OH229497   6.319   6.289   5.070
 9847TIP3    H129498   6.365   6.369   5.096
 9847TIP3    H229499   6.244   6.320   5.019
 9848TIP3   OH229500   2.532   4.052   5.228
 9848TIP3    H129501   2.491   4.112   5.165
 9848TIP3    H229502   2.615   4.028   5.187
 9849TIP3   OH229503   2.026   1.187   5.084
 9849TIP3    H129504   2.093   1.233   5.033
 9849TIP3    H229505   2.042   1.216   5.174
 9850TIP3   OH229506   6.942   1.855   5.548
 9850TIP3    H129507   6.996   1.813   5.615
 9850TIP3    H229508   6.866   1.797   5.539
 9851TIP3   OH229509   1.730   2.159   5.182
 9851TIP3    H129510   1.770   2.238   5.147
 9851TIP3    H229511   1.706   2.181   5.272
 9852TIP3   OH229512   5.392   4.512   0.031
 9852TIP3    H129513   5.393   4.418   0.019
 9852TIP3    H229514   5.300   4.534   0.046
 9853TIP3   OH229515   1.766   2.729   5.382
 9853TIP3    H129516   1.759   2.768   5.469
 9853TIP3    H229517   1.720   2.790   5.325
 9854TIP3   OH229518   3.641   6.771   3.529
 9854TIP3    H129519   3.572   6.813   3.478
 9854TIP3    H229520   3.598   6.741   3.608
 9855TIP3   OH229521   0.987   2.748   3.558
 9855TIP3    H129522   0.944   2.833   3.554
 9855TIP3    H229523   1.073   2.762   3.517
 9856TIP3   OH229524   2.154   3.606   0.088
 9856TIP3    H129525   2.170   3.672   0.155
 9856TIP3    H229526   2.091   3.646   0.028
 9857TIP3   OH229527   5.238   1.980   1.952
 9857TIP3    H129528   5.172   1.933   1.900
 9857TIP3    H229529   5.241   2.068   1.914
 9858TIP3   OH229530   3.839   6.955   3.467
 9858TIP3    H129531   3.807   6.970   3.378
 9858TIP3    H229532   3.784   6.885   3.501
 9859TIP3   OH229533   3.404   0.565   2.095
 9859TIP3    H129534   3.421   0.617   2.017
 9859TIP3    H229535   3.315   0.590   2.121
 9860TIP3   OH229536   7.375   1.490   0.868
 9860TIP3    H129537   7.299   1.547   0.884
 9860TIP3    H229538   7.353   1.445   0.786
 9861TIP3   OH229539   7.229   7.620   1.135
 9861TIP3    H129540   7.220   7.702   1.085
 9861TIP3    H229541   7.256   7.555   1.070
 9862TIP3   OH229542   5.876   5.910   0.289
 9862TIP3    H129543   5.860   5.907   0.195
 9862TIP3    H229544   5.840   5.828   0.323
 9863TIP3   OH229545   1.932   5.258   2.918
 9863TIP3    H129546   1.857   5.202   2.898
 9863TIP3    H229547   1.991   5.202   2.969
 9864TIP3   OH229548   4.005   5.953   5.021
 9864TIP3    H129549   3.980   5.984   4.934
 9864TIP3    H229550   3.936   5.986   5.079
 9865TIP3   OH229551   4.423   1.438   5.038
 9865TIP3    H129552   4.352   1.466   4.981
 9865TIP3    H229553   4.384   1.431   5.124
 9866TIP3   OH229554   3.749   2.034   0.954
 9866TIP3    H129555   3.746   2.085   1.035
 9866TIP3    H229556   3.842   2.019   0.938
 9867TIP3   OH229557   0.739   1.052   5.163
 9867TIP3    H129558   0.763   1.062   5.255
 9867TIP3    H229559   0.695   0.967   5.158
 9868TIP3   OH229560   4.782   6.535   1.500
 9868TIP3    H129561   4.701   6.485   1.496
 9868TIP3    H229562   4.780   6.590   1.421
 9869TIP3   OH229563   2.256   7.131   4.136
 9869TIP3    H129564   2.196   7.070   4.179
 9869TIP3    H229565   2.310   7.075   4.080
 9870TIP3   OH229566   4.530   6.696   6.418
 9870TIP3    H129567   4.475   6.772   6.399
 9870TIP3    H229568   4.470   6.621   6.413
 9871TIP3   OH229569   0.947   2.879   2.437
 9871TIP3    H129570   0.889   2.807   2.413
 9871TIP3    H229571   1.033   2.851   2.406
 9872TIP3   OH229572   6.417   6.292   3.452
 9872TIP3    H129573   6.485   6.225   3.445
 9872TIP3    H229574   6.335   6.243   3.462
 9873TIP3   OH229575   4.293   2.458   2.580
 9873TIP3    H129576   4.256   2.501   2.503
 9873TIP3    H229577   4.287   2.524   2.649
 9874TIP3   OH229578   3.136   3.436   6.744
 9874TIP3    H129579   3.216   3.436   6.692
 9874TIP3    H229580   3.072   3.390   6.689
 9875TIP3   OH229581   2.556   4.042   2.161
 9875TIP3    H129582   2.492   3.976   2.136
 9875TIP3    H229583   2.528   4.072   2.247
 9876TIP3   OH229584   6.877   2.932   2.970
 9876TIP3    H129585   6.888   2.943   3.064
 9876TIP3    H229586   6.896   3.018   2.933
 9877TIP3   OH229587   2.256   7.750   5.693
 9877TIP3    H129588   2.351   7.765   5.694
 9877TIP3    H229589   2.241   7.687   5.763
 9878TIP3   OH229590   1.162   5.860   5.810
 9878TIP3    H129591   1.180   5.951   5.831
 9878TIP3    H229592   1.069   5.849   5.829
 9879TIP3   OH229593   2.702   5.292   6.737
 9879TIP3    H129594   2.721   5.311   6.645
 9879TIP3    H229595   2.624   5.344   6.756
 9880TIP3   OH229596   3.405   5.834   6.229
 9880TIP3    H129597   3.316   5.817   6.197
 9880TIP3    H229598   3.409   5.789   6.313
 9881TIP3   OH229599   1.177   5.513   1.333
 9881TIP3    H129600   1.111   5.521   1.263
 9881TIP3    H229601   1.164   5.591   1.387
 9882TIP3   OH229602   0.497   7.285   6.675
 9882TIP3    H129603   0.568   7.249   6.729
 9882TIP3    H229604   0.539   7.352   6.622
 9883TIP3   OH229605   8.091   2.757   0.900
 9883TIP3    H129606   8.185   2.770   0.888
 9883TIP3    H229607   8.051   2.814   0.835
 9884TIP3   OH229608   7.984   6.815   6.440
 9884TIP3    H129609   8.036   6.746   6.398
 9884TIP3    H229610   7.967   6.780   6.528
 9885TIP3   OH229611   6.878   7.307   3.625
 9885TIP3    H129612   6.828   7.315   3.706
 9885TIP3    H229613   6.951   7.367   3.635
 9886TIP3   OH229614   2.246   3.344   3.547
 9886TIP3    H129615   2.186   3.281   3.506
 9886TIP3    H229616   2.291   3.293   3.615
 9887TIP3   OH229617   3.032   1.452   1.907
 9887TIP3    H129618   2.972   1.386   1.940
 9887TIP3    H229619   2.999   1.535   1.943
 9888TIP3   OH229620   8.027   0.501   4.114
 9888TIP3    H129621   7.959   0.449   4.158
 9888TIP3    H229622   8.109   0.469   4.153
 9889TIP3   OH229623   6.281   6.508   5.476
 9889TIP3    H129624   6.355   6.448   5.486
 9889TIP3    H229625   6.229   6.495   5.556
 9890TIP3   OH229626   2.544   0.225   3.622
 9890TIP3    H129627   2.568   0.190   3.536
 9890TIP3    H229628   2.501   0.308   3.604
 9891TIP3   OH229629   4.872   3.366   0.371
 9891TIP3    H129630   4.905   3.417   0.296
 9891TIP3    H229631   4.948   3.315   0.400
 9892TIP3   OH229632   7.237   1.849   4.933
 9892TIP3    H129633   7.234   1.879   5.024
 9892TIP3    H229634   7.242   1.753   4.940
 9893TIP3   OH229635   7.146   0.243   4.962
 9893TIP3    H129636   7.076   0.306   4.944
 9893TIP3    H229637   7.132   0.217   5.053
 9894TIP3   OH229638   7.395   4.342   2.463
 9894TIP3    H129639   7.448   4.380   2.393
 9894TIP3    H229640   7.443   4.361   2.543
 9895TIP3   OH229641   6.163   3.055   6.514
 9895TIP3    H129642   6.135   3.142   6.486
 9895TIP3    H229643   6.177   3.064   6.608
 9896TIP3   OH229644   7.522   3.662   6.579
 9896TIP3    H129645   7.539   3.580   6.626
 9896TIP3    H229646   7.585   3.724   6.616
 9897TIP3   OH229647   5.717   5.788   2.118
 9897TIP3    H129648   5.681   5.737   2.046
 9897TIP3    H229649   5.660   5.769   2.192
 9898TIP3   OH229650   7.463   4.376   5.756
 9898TIP3    H129651   7.551   4.407   5.734
 9898TIP3    H229652   7.464   4.284   5.732
 9899TIP3   OH229653   0.516   0.323   0.331
 9899TIP3    H129654   0.482   0.363   0.251
 9899TIP3    H229655   0.446   0.332   0.395
 9900TIP3   OH229656   3.875   0.515   3.069
 9900TIP3    H129657   3.847   0.430   3.103
 9900TIP3    H229658   3.794   0.558   3.041
 9901TIP3   OH229659   2.682   4.619   4.427
 9901TIP3    H129660   2.681   4.563   4.505
 9901TIP3    H229661   2.733   4.570   4.363
 9902TIP3   OH229662   5.176   6.394   5.795
 9902TIP3    H129663   5.130   6.319   5.832
 9902TIP3    H229664   5.268   6.368   5.793
 9903TIP3   OH229665   0.497   0.591   5.029
 9903TIP3    H129666   0.466   0.524   5.090
 9903TIP3    H229667   0.524   0.542   4.951
 9904TIP3   OH229668   3.122   2.615   4.210
 9904TIP3    H129669   3.121   2.525   4.180
 9904TIP3    H229670   3.043   2.624   4.263
 9905TIP3   OH229671   5.403   5.365   4.306
 9905TIP3    H129672   5.366   5.447   4.337
 9905TIP3    H229673   5.327   5.309   4.291
 9906TIP3   OH229674   3.590   0.905   6.082
 9906TIP3    H129675   3.568   0.907   6.175
 9906TIP3    H229676   3.516   0.948   6.039
 9907TIP3   OH229677   2.757   2.285   2.217
 9907TIP3    H129678   2.782   2.285   2.124
 9907TIP3    H229679   2.766   2.193   2.243
 9908TIP3   OH229680   0.232   0.610   2.418
 9908TIP3    H129681   0.147   0.619   2.375
 9908TIP3    H229682   0.219   0.645   2.506
 9909TIP3   OH229683   6.851   0.568   0.662
 9909TIP3    H129684   6.912   0.642   0.652
 9909TIP3    H229685   6.823   0.549   0.573
 9910TIP3   OH229686   7.492   2.329   0.751
 9910TIP3    H129687   7.484   2.245   0.708
 9910TIP3    H229688   7.582   2.331   0.784
 9911TIP3   OH229689   1.721   0.281   0.885
 9911TIP3    H129690   1.694   0.256   0.797
 9911TIP3    H229691   1.791   0.345   0.871
 9912TIP3   OH229692   7.636   6.397   1.583
 9912TIP3    H129693   7.547   6.403   1.618
 9912TIP3    H229694   7.692   6.406   1.660
 9913TIP3   OH229695   5.239   1.499   5.203
 9913TIP3    H129696   5.150   1.465   5.202
 9913TIP3    H229697   5.228   1.594   5.211
 9914TIP3   OH229698   1.419   3.512   4.435
 9914TIP3    H129699   1.382   3.423   4.437
 9914TIP3    H229700   1.466   3.521   4.518
 9915TIP3   OH229701   4.411   7.418   6.492
 9915TIP3    H129702   4.370   7.365   6.424
 9915TIP3    H229703   4.505   7.404   6.480
 9916TIP3   OH229704   1.882   0.817   1.699
 9916TIP3    H129705   1.967   0.832   1.657
 9916TIP3    H229706   1.873   0.722   1.700
 9917TIP3   OH229707   1.041   3.554   2.270
 9917TIP3    H129708   0.978   3.513   2.211
 9917TIP3    H229709   0.996   3.633   2.302
 9918TIP3   OH229710   7.333   3.727   1.713
 9918TIP3    H129711   7.419   3.689   1.734
 9918TIP3    H229712   7.350   3.820   1.699
 9919TIP3   OH229713   0.880   6.306   0.817
 9919TIP3    H129714   0.839   6.325   0.733
 9919TIP3    H229715   0.875   6.388   0.866
 9920TIP3   OH229716   2.122   4.419   1.454
 9920TIP3    H129717   2.112   4.505   1.494
 9920TIP3    H229718   2.039   4.403   1.410
 9921TIP3   OH229719   0.111   2.158   2.284
 9921TIP3    H129720   0.149   2.074   2.308
 9921TIP3    H229721   0.020   2.153   2.312
 9922TIP3   OH229722   0.740   0.227   0.420
 9922TIP3    H129723   0.764   0.304   0.471
 9922TIP3    H229724   0.654   0.246   0.385
 9923TIP3   OH229725   2.775   5.384   2.861
 9923TIP3    H129726   2.755   5.385   2.955
 9923TIP3    H229727   2.811   5.471   2.843
 9924TIP3   OH229728   0.497   1.275   5.247
 9924TIP3    H129729   0.552   1.347   5.279
 9924TIP3    H229730   0.410   1.314   5.236
 9925TIP3   OH229731   3.971   4.267   1.427
 9925TIP3    H129732   3.941   4.334   1.488
 9925TIP3    H229733   4.015   4.202   1.482
 9926TIP3   OH229734   2.055   3.939   4.593
 9926TIP3    H129735   1.963   3.941   4.567
 9926TIP3    H229736   2.063   4.003   4.664
 9927TIP3   OH229737   8.117   0.270   0.501
 9927TIP3    H129738   8.203   0.305   0.525
 9927TIP3    H229739   8.136   0.182   0.469
 9928TIP3   OH229740   2.684   2.017   5.881
 9928TIP3    H129741   2.636   2.065   5.949
 9928TIP3    H229742   2.689   1.927   5.914
 9929TIP3   OH229743   1.443   6.222   2.561
 9929TIP3    H129744   1.369   6.185   2.610
 9929TIP3    H229745   1.505   6.248   2.628
 9930TIP3   OH229746   1.957   0.330   5.723
 9930TIP3    H129747   1.866   0.301   5.738
 9930TIP3    H229748   1.982   0.289   5.640
 9931TIP3   OH229749   3.161   5.474   1.677
 9931TIP3    H129750   3.090   5.424   1.636
 9931TIP3    H229751   3.223   5.408   1.708
 9932TIP3   OH229752   1.941   0.167   2.640
 9932TIP3    H129753   1.930   0.262   2.633
 9932TIP3    H229754   1.982   0.141   2.557
 9933TIP3   OH229755   5.443   6.837   3.719
 9933TIP3    H129756   5.373   6.901   3.729
 9933TIP3    H229757   5.431   6.777   3.792
 9934TIP3   OH229758   4.627   3.116   2.736
 9934TIP3    H129759   4.661   3.029   2.716
 9934TIP3    H229760   4.537   3.101   2.762
 9935TIP3   OH229761   1.428   4.040   1.939
 9935TIP3    H129762   1.504   4.089   1.907
 9935TIP3    H229763   1.458   3.950   1.946
 9936TIP3   OH229764   5.489   2.843   0.716
 9936TIP3    H129765   5.418   2.875   0.661
 9936TIP3    H229766   5.565   2.838   0.657
 9937TIP3   OH229767   0.297   4.063   4.212
 9937TIP3    H129768   0.385   4.085   4.181
 9937TIP3    H229769   0.301   3.969   4.231
 9938TIP3   OH229770   8.061   3.074   4.242
 9938TIP3    H129771   8.026   2.995   4.201
 9938TIP3    H229772   8.046   3.143   4.177
 9939TIP3   OH229773   6.990   2.732   5.364
 9939TIP3    H129774   7.079   2.740   5.329
 9939TIP3    H229775   6.941   2.687   5.295
 9940TIP3   OH229776   1.571   3.553   2.089
 9940TIP3    H129777   1.521   3.508   2.021
 9940TIP3    H229778   1.507   3.568   2.159
 9941TIP3   OH229779   1.935   1.640   1.402
 9941TIP3    H129780   2.023   1.604   1.410
 9941TIP3    H229781   1.949   1.733   1.385
 9942TIP3   OH229782   3.959   0.435   5.897
 9942TIP3    H129783   3.969   0.477   5.812
 9942TIP3    H229784   3.939   0.344   5.876
 9943TIP3   OH229785   4.862   1.729   5.179
 9943TIP3    H129786   4.799   1.774   5.235
 9943TIP3    H229787   4.915   1.678   5.240
 9944TIP3   OH229788   1.530   0.399   5.536
 9944TIP3    H129789   1.522   0.488   5.569
 9944TIP3    H229790   1.624   0.382   5.535
 9945TIP3   OH229791   2.848   2.318   4.426
 9945TIP3    H129792   2.890   2.392   4.383
 9945TIP3    H229793   2.762   2.311   4.385
 9946TIP3   OH229794   1.734   6.465   3.748
 9946TIP3    H129795   1.660   6.525   3.746
 9946TIP3    H229796   1.807   6.516   3.711
 9947TIP3   OH229797   6.473   3.569   5.624
 9947TIP3    H129798   6.420   3.575   5.545
 9947TIP3    H229799   6.473   3.475   5.645
 9948TIP3   OH229800   1.502   0.532   1.109
 9948TIP3    H129801   1.530   0.618   1.078
 9948TIP3    H229802   1.426   0.510   1.055
 9949TIP3   OH229803   3.042   1.212   4.158
 9949TIP3    H129804   3.082   1.293   4.127
 9949TIP3    H229805   2.995   1.177   4.083
 9950TIP3   OH229806   2.364   0.854   5.220
 9950TIP3    H129807   2.387   0.762   5.229
 9950TIP3    H229808   2.297   0.868   5.288
 9951TIP3   OH229809   4.195   0.726   0.664
 9951TIP3    H129810   4.123   0.788   0.672
 9951TIP3    H229811   4.214   0.701   0.755
 9952TIP3   OH229812   1.802   2.102   3.744
 9952TIP3    H129813   1.862   2.042   3.788
 9952TIP3    H229814   1.782   2.169   3.809
 9953TIP3   OH229815   3.047   2.623   1.389
 9953TIP3    H129816   2.977   2.571   1.431
 9953TIP3    H229817   3.044   2.598   1.297
 9954TIP3   OH229818   7.670   6.380   5.214
 9954TIP3    H129819   7.664   6.311   5.281
 9954TIP3    H229820   7.593   6.435   5.231
 9955TIP3   OH229821   6.213   2.943   2.675
 9955TIP3    H129822   6.179   2.982   2.594
 9955TIP3    H229823   6.290   2.893   2.647
 9956TIP3   OH229824   4.205   5.018   6.169
 9956TIP3    H129825   4.218   5.107   6.136
 9956TIP3    H229826   4.143   4.980   6.107
 9957TIP3   OH229827   6.242   4.726   1.861
 9957TIP3    H129828   6.274   4.768   1.781
 9957TIP3    H229829   6.161   4.684   1.834
 9958TIP3   OH229830   3.160   5.726   3.038
 9958TIP3    H129831   3.233   5.764   2.990
 9958TIP3    H229832   3.200   5.686   3.116
 9959TIP3   OH229833   4.837   0.088   6.344
 9959TIP3    H129834   4.746   0.101   6.318
 9959TIP3    H229835   4.879   0.173   6.327
 9960TIP3   OH229836   8.118   1.983   5.681
 9960TIP3    H129837   8.114   1.887   5.674
 9960TIP3    H229838   8.026   2.010   5.684
 9961TIP3   OH229839   3.349   0.165   3.667
 9961TIP3    H129840   3.358   0.149   3.573
 9961TIP3    H229841   3.288   0.098   3.697
 9962TIP3   OH229842   3.986   6.890   2.583
 9962TIP3    H129843   3.920   6.899   2.652
 9962TIP3    H229844   4.040   6.816   2.611
 9963TIP3   OH229845   5.330   7.065   3.245
 9963TIP3    H129846   5.329   6.983   3.294
 9963TIP3    H229847   5.423   7.079   3.223
 9964TIP3   OH229848   7.682   5.807   5.687
 9964TIP3    H129849   7.736   5.793   5.609
 9964TIP3    H229850   7.673   5.720   5.726
 9965TIP3   OH229851   7.627   2.277   1.059
 9965TIP3    H129852   7.679   2.295   1.137
 9965TIP3    H229853   7.668   2.328   0.990
 9966TIP3   OH229854   4.963   5.836   1.126
 9966TIP3    H129855   5.004   5.880   1.052
 9966TIP3    H229856   4.887   5.792   1.088
 9967TIP3   OH229857   5.130   6.858   5.354
 9967TIP3    H129858   5.106   6.817   5.438
 9967TIP3    H229859   5.225   6.848   5.349
 9968TIP3   OH229860   1.565   2.083   2.907
 9968TIP3    H129861   1.575   2.015   2.973
 9968TIP3    H229862   1.574   2.037   2.824
 9969TIP3   OH229863   3.301   1.910   0.236
 9969TIP3    H129864   3.360   1.851   0.282
 9969TIP3    H229865   3.305   1.883   0.145
 9970TIP3   OH229866   2.645   4.361   5.920
 9970TIP3    H129867   2.574   4.422   5.904
 9970TIP3    H229868   2.683   4.390   6.003
 9971TIP3   OH229869   5.075   4.099   4.603
 9971TIP3    H129870   4.987   4.134   4.618
 9971TIP3    H229871   5.134   4.160   4.647
 9972TIP3   OH229872   8.162   6.103   5.948
 9972TIP3    H129873   8.121   6.052   6.018
 9972TIP3    H229874   8.093   6.162   5.918
 9973TIP3   OH229875   2.059   4.054   0.069
 9973TIP3    H129876   1.970   4.033   0.097
 9973TIP3    H229877   2.057   4.043  -0.026
 9974TIP3   OH229878   6.320   4.565   6.213
 9974TIP3    H129879   6.397   4.524   6.252
 9974TIP3    H229880   6.249   4.503   6.228
 9975TIP3   OH229881   3.741   2.023   1.654
 9975TIP3    H129882   3.715   1.932   1.665
 9975TIP3    H229883   3.836   2.022   1.659
 9976TIP3   OH229884   5.384   0.432   1.118
 9976TIP3    H129885   5.398   0.410   1.210
 9976TIP3    H229886   5.380   0.347   1.074
 9977TIP3   OH229887   4.465   5.274   4.491
 9977TIP3    H129888   4.513   5.226   4.424
 9977TIP3    H229889   4.504   5.246   4.573
 9978TIP3   OH229890   0.137   5.367   5.967
 9978TIP3    H129891   0.180   5.314   5.899
 9978TIP3    H229892   0.162   5.457   5.946
 9979TIP3   OH229893   1.849   1.583   4.907
 9979TIP3    H129894   1.805   1.668   4.905
 9979TIP3    H229895   1.942   1.604   4.905
 9980TIP3   OH229896   0.580   1.166   0.723
 9980TIP3    H129897   0.559   1.259   0.711
 9980TIP3    H229898   0.645   1.165   0.794
 9981TIP3   OH229899   7.817   6.452   0.228
 9981TIP3    H129900   7.784   6.430   0.315
 9981TIP3    H229901   7.782   6.540   0.211
 9982TIP3   OH229902   6.616   7.090   3.130
 9982TIP3    H129903   6.658   7.103   3.045
 9982TIP3    H229904   6.686   7.059   3.188
 9983TIP3   OH229905   0.459   7.171   3.959
 9983TIP3    H129906   0.540   7.216   3.982
 9983TIP3    H229907   0.483   7.115   3.885
 9984TIP3   OH229908   6.878   3.975   3.533
 9984TIP3    H129909   6.893   4.069   3.518
 9984TIP3    H229910   6.928   3.955   3.613
 9985TIP3   OH229911   3.617   0.274   3.701
 9985TIP3    H129912   3.664   0.200   3.663
 9985TIP3    H229913   3.526   0.244   3.708
 9986TIP3   OH229914   0.745   6.950   2.499
 9986TIP3    H129915   0.836   6.927   2.484
 9986TIP3    H229916   0.713   6.884   2.561
 9987TIP3   OH229917   0.629   5.146   5.238
 9987TIP3    H129918   0.684   5.220   5.212
 9987TIP3    H229919   0.579   5.179   5.312
 9988TIP3   OH229920   6.715   1.602   4.807
 9988TIP3    H129921   6.725   1.530   4.869
 9988TIP3    H229922   6.642   1.575   4.751
 9989TIP3   OH229923   6.974   6.118   3.624
 9989TIP3    H129924   6.966   6.211   3.602
 9989TIP3    H229925   7.056   6.091   3.584
 9990TIP3   OH229926   3.036   4.434   0.756
 9990TIP3    H129927   3.103   4.393   0.701
 9990TIP3    H229928   2.980   4.361   0.783
 9991TIP3   OH229929   1.399   5.376   5.118
 9991TIP3    H129930   1.449   5.369   5.199
 9991TIP3    H229931   1.396   5.286   5.084
 9992TIP3   OH229932   3.858   3.814   3.493
 9992TIP3    H129933   3.823   3.809   3.404
 9992TIP3    H229934   3.833   3.902   3.523
 9993TIP3   OH229935   5.368   1.209   0.026
 9993TIP3    H129936   5.373   1.113   0.025
 9993TIP3    H229937   5.389   1.233   0.116
 9994TIP3   OH229938   0.318   1.396   0.416
 9994TIP3    H129939   0.315   1.331   0.486
 9994TIP3    H229940   0.261   1.360   0.348
 9995TIP3   OH229941   6.476   4.687   1.981
 9995TIP3    H129942   6.433   4.691   2.066
 9995TIP3    H229943   6.416   4.731   1.921
 9996TIP3   OH229944   8.122   2.602   4.345
 9996TIP3    H129945   8.039   2.562   4.372
 9996TIP3    H229946   8.128   2.584   4.251
 9997TIP3   OH229947   7.460   0.513   3.057
 9997TIP3    H129948   7.511   0.587   3.091
 9997TIP3    H229949   7.507   0.436   3.088
 9998TIP3   OH229950   2.420   6.410   2.919
 9998TIP3    H129951   2.337   6.383   2.958
 9998TIP3    H229952   2.487   6.367   2.972
 9999TIP3   OH229953   7.764   3.004   3.508
 9999TIP3    H129954   7.718   3.033   3.430
 9999TIP3    H229955   7.851   2.980   3.478
10000TIP3   OH229956   1.573   4.794   1.870
10000TIP3    H129957   1.626   4.729   1.915
10000TIP3    H229958   1.483   4.768   1.888
10001TIP3   OH229959   2.626   7.590   2.123
10001TIP3    H129960   2.642   7.652   2.051
10001TIP3    H229961   2.713   7.576   2.161
10002TIP3   OH229962   2.419   2.417   5.554
10002TIP3    H129963   2.437   2.508   5.529
10002TIP3    H229964   2.480   2.399   5.626
10003TIP3   OH229965   0.946   5.994   2.148
10003TIP3    H129966   1.009   6.066   2.160
10003TIP3    H229967   0.865   6.026   2.187
10004TIP3   OH229968   3.516   6.998   3.074
10004TIP3    H129969   3.469   7.010   2.992
10004TIP3    H229970   3.568   7.078   3.084
10005TIP3   OH229971   6.000   4.969   5.039
10005TIP3    H129972   5.966   4.954   5.127
10005TIP3    H229973   6.059   4.895   5.022
10006TIP3   OH229974   4.109   6.960   0.778
10006TIP3    H129975   4.122   7.034   0.838
10006TIP3    H229976   4.131   6.996   0.691
10007TIP3   OH229977   2.976   0.038   5.930
10007TIP3    H129978   2.919   0.022   6.005
10007TIP3    H229979   3.043  -0.030   5.936
10008TIP3   OH229980   4.524   0.075   1.915
10008TIP3    H129981   4.500  -0.004   1.963
10008TIP3    H229982   4.619   0.083   1.927
10009TIP3   OH229983   5.049   2.969   2.134
10009TIP3    H129984   5.055   2.987   2.040
10009TIP3    H229985   4.969   2.916   2.142
10010TIP3   OH229986   7.375   6.529   3.514
10010TIP3    H129987   7.408   6.485   3.435
10010TIP3    H229988   7.338   6.458   3.567
10011TIP3   OH229989   6.652   3.218   2.173
10011TIP3    H129990   6.729   3.258   2.132
10011TIP3    H229991   6.688   3.153   2.233
10012TIP3   OH229992   4.915   3.685   4.833
10012TIP3    H129993   4.846   3.634   4.875
10012TIP3    H229994   4.904   3.773   4.868
10013TIP3   OH229995   2.082   7.262   0.628
10013TIP3    H129996   2.047   7.213   0.554
10013TIP3    H229997   2.123   7.338   0.589
10014TIP3   OH229998   5.498   4.055   5.604
10014TIP3    H129999   5.496   4.151   5.595
10014TIP3    H230000   5.480   4.022   5.516
10015TIP3   OH230001   0.346   4.888   1.222
10015TIP3    H130002   0.298   4.857   1.299
10015TIP3    H230003   0.409   4.951   1.256
10016TIP3   OH230004   5.256   0.622   5.608
10016TIP3    H130005   5.161   0.619   5.594
10016TIP3    H230006   5.275   0.548   5.664
10017TIP3   OH230007   1.818   7.152   4.557
10017TIP3    H130008   1.793   7.103   4.635
10017TIP3    H230009   1.871   7.090   4.506
10018TIP3   OH230010   0.876   0.251   5.690
10018TIP3    H130011   0.876   0.344   5.712
10018TIP3    H230012   0.962   0.220   5.718
10019TIP3   OH230013   6.249   7.102   0.274
10019TIP3    H130014   6.296   7.141   0.348
10019TIP3    H230015   6.203   7.175   0.233
10020TIP3   OH230016   2.847   3.176   6.764
10020TIP3    H130017   2.923   3.166   6.706
10020TIP3    H230018   2.802   3.092   6.759
10021TIP3   OH230019   0.758   6.005   5.661
10021TIP3    H130020   0.723   6.092   5.681
10021TIP3    H230021   0.808   6.016   5.580
10022TIP3   OH230022   6.309   2.582   2.665
10022TIP3    H130023   6.234   2.622   2.619
10022TIP3    H230024   6.271   2.546   2.745
10023TIP3   OH230025   2.582   2.752   3.010
10023TIP3    H130026   2.638   2.721   2.938
10023TIP3    H230027   2.634   2.820   3.053
10024TIP3   OH230028   6.584   5.563   2.287
10024TIP3    H130029   6.559   5.500   2.219
10024TIP3    H230030   6.576   5.648   2.245
10025TIP3   OH230031   1.355   0.947   3.251
10025TIP3    H130032   1.327   0.991   3.331
10025TIP3    H230033   1.412   0.876   3.281
10026TIP3   OH230034   0.888   2.729   5.166
10026TIP3    H130035   0.832   2.726   5.088
10026TIP3    H230036   0.892   2.639   5.196
10027TIP3   OH230037   7.924   2.234   3.050
10027TIP3    H130038   7.840   2.278   3.050
10027TIP3    H230039   7.987   2.301   3.074
10028TIP3   OH230040   8.251   1.553   2.483
10028TIP3    H130041   8.194   1.557   2.405
10028TIP3    H230042   8.328   1.504   2.454
10029TIP3   OH230043   7.634   7.164   1.716
10029TIP3    H130044   7.546   7.129   1.701
10029TIP3    H230045   7.693   7.092   1.696
10030TIP3   OH230046   6.452   0.684   1.359
10030TIP3    H130047   6.492   0.604   1.394
10030TIP3    H230048   6.362   0.658   1.338
10031TIP3   OH230049   3.151   1.170   1.969
10031TIP3    H130050   3.123   1.245   1.916
10031TIP3    H230051   3.070   1.127   1.995
10032TIP3   OH230052   5.582   1.680   5.376
10032TIP3    H130053   5.667   1.664   5.417
10032TIP3    H230054   5.558   1.596   5.337
10033TIP3   OH230055   1.005   0.331   4.754
10033TIP3    H130056   1.062   0.273   4.804
10033TIP3    H230057   0.980   0.399   4.816
10034TIP3   OH230058   2.015   7.262   5.045
10034TIP3    H130059   1.971   7.263   5.129
10034TIP3    H230060   2.105   7.234   5.064
10035TIP3   OH230061   0.132   6.409   2.905
10035TIP3    H130062   0.107   6.458   2.826
10035TIP3    H230063   0.072   6.335   2.906
10036TIP3   OH230064   3.615   6.187   5.583
10036TIP3    H130065   3.558   6.187   5.507
10036TIP3    H230066   3.561   6.219   5.655
10037TIP3   OH230067   5.553   6.891   3.494
10037TIP3    H130068   5.501   6.839   3.433
10037TIP3    H230069   5.518   6.870   3.580
10038TIP3   OH230070   5.220   4.854   4.570
10038TIP3    H130071   5.178   4.918   4.626
10038TIP3    H230072   5.152   4.824   4.511
10039TIP3   OH230073   5.509   1.505   3.182
10039TIP3    H130074   5.510   1.586   3.233
10039TIP3    H230075   5.601   1.480   3.174
10040TIP3   OH230076   3.177   2.625   1.112
10040TIP3    H130077   3.150   2.604   1.022
10040TIP3    H230078   3.271   2.641   1.106
10041TIP3   OH230079   6.105   2.233   5.774
10041TIP3    H130080   6.145   2.268   5.854
10041TIP3    H230081   6.171   2.173   5.739
10042TIP3   OH230082   6.166   2.229   4.069
10042TIP3    H130083   6.171   2.324   4.077
10042TIP3    H230084   6.142   2.199   4.157
10043TIP3   OH230085   8.005   1.809   0.806
10043TIP3    H130086   7.921   1.791   0.764
10043TIP3    H230087   8.019   1.903   0.792
10044TIP3   OH230088   5.609   2.228   5.044
10044TIP3    H130089   5.594   2.304   5.099
10044TIP3    H230090   5.686   2.185   5.082
10045TIP3   OH230091   4.166   6.367   5.031
10045TIP3    H130092   4.071   6.376   5.029
10045TIP3    H230093   4.188   6.363   5.125
10046TIP3   OH230094   7.666   0.601   1.200
10046TIP3    H130095   7.631   0.687   1.222
10046TIP3    H230096   7.708   0.613   1.114
10047TIP3   OH230097   7.572   2.629   5.500
10047TIP3    H130098   7.494   2.574   5.501
10047TIP3    H230099   7.645   2.567   5.489
10048TIP3   OH230100   4.005   2.085   3.171
10048TIP3    H130101   3.946   2.061   3.100
10048TIP3    H230102   4.019   2.179   3.160
10049TIP3   OH230103   7.683   6.086   4.769
10049TIP3    H130104   7.722   6.119   4.850
10049TIP3    H230105   7.697   5.992   4.772
10050TIP3   OH230106   5.764   6.105   3.022
10050TIP3    H130107   5.807   6.175   3.071
10050TIP3    H230108   5.782   6.026   3.072
10051TIP3   OH230109   5.672   6.192   6.105
10051TIP3    H130110   5.579   6.187   6.126
10051TIP3    H230111   5.712   6.119   6.153
10052TIP3   OH230112   3.294   1.122   1.596
10052TIP3    H130113   3.352   1.135   1.521
10052TIP3    H230114   3.349   1.142   1.672
10053TIP3   OH230115   3.028   2.028   1.112
10053TIP3    H130116   3.014   2.094   1.044
10053TIP3    H230117   3.123   2.019   1.118
10054TIP3   OH230118   6.735   4.894   3.156
10054TIP3    H130119   6.814   4.877   3.207
10054TIP3    H230120   6.703   4.807   3.131
10055TIP3   OH230121   0.766   1.389   1.982
10055TIP3    H130122   0.801   1.453   2.044
10055TIP3    H230123   0.830   1.317   1.984
10056TIP3   OH230124   6.972   7.330   3.293
10056TIP3    H130125   6.999   7.403   3.236
10056TIP3    H230126   6.884   7.309   3.265
10057TIP3   OH230127   7.595   7.565   2.763
10057TIP3    H130128   7.575   7.472   2.753
10057TIP3    H230129   7.689   7.571   2.749
10058TIP3   OH230130   6.475   1.386   5.299
10058TIP3    H130131   6.519   1.343   5.372
10058TIP3    H230132   6.395   1.422   5.336
10059TIP3   OH230133   4.025   7.139   2.464
10059TIP3    H130134   3.949   7.163   2.411
10059TIP3    H230135   4.017   7.044   2.476
10060TIP3   OH230136   8.029   6.338   5.359
10060TIP3    H130137   7.959   6.284   5.396
10060TIP3    H230138   8.056   6.291   5.280
10061TIP3   OH230139   7.137   4.095   6.403
10061TIP3    H130140   7.097   4.008   6.415
10061TIP3    H230141   7.174   4.116   6.489
10062TIP3   OH230142   8.009   4.966   2.383
10062TIP3    H130143   8.006   5.039   2.444
10062TIP3    H230144   8.045   5.004   2.302
10063TIP3   OH230145   6.604   6.231   4.154
10063TIP3    H130146   6.672   6.204   4.216
10063TIP3    H230147   6.530   6.173   4.174
10064TIP3   OH230148   5.943   5.401   6.354
10064TIP3    H130149   5.938   5.345   6.277
10064TIP3    H230150   6.033   5.433   6.354
10065TIP3   OH230151   7.285   3.135   3.314
10065TIP3    H130152   7.242   3.195   3.376
10065TIP3    H230153   7.220   3.122   3.245
10066TIP3   OH230154   4.225   4.651   1.815
10066TIP3    H130155   4.261   4.740   1.807
10066TIP3    H230156   4.301   4.596   1.832
10067TIP3   OH230157   2.788   2.205   6.191
10067TIP3    H130158   2.746   2.280   6.233
10067TIP3    H230159   2.738   2.129   6.219
10068TIP3   OH230160   2.373   1.263   6.752
10068TIP3    H130161   2.402   1.224   6.835
10068TIP3    H230162   2.324   1.193   6.709
10069TIP3   OH230163   7.015   7.667   6.119
10069TIP3    H130164   6.997   7.598   6.055
10069TIP3    H230165   7.007   7.624   6.204
10070TIP3   OH230166   6.473   1.160   2.270
10070TIP3    H130167   6.441   1.093   2.330
10070TIP3    H230168   6.474   1.117   2.184
10071TIP3   OH230169   1.723   6.310   2.173
10071TIP3    H130170   1.682   6.292   2.089
10071TIP3    H230171   1.690   6.241   2.231
10072TIP3   OH230172   2.738   7.442   1.297
10072TIP3    H130173   2.819   7.470   1.255
10072TIP3    H230174   2.680   7.419   1.224
10073TIP3   OH230175   5.174   0.819   6.129
10073TIP3    H130176   5.247   0.878   6.109
10073TIP3    H230177   5.098   0.862   6.092
10074TIP3   OH230178   3.039   2.781   2.995
10074TIP3    H130179   2.999   2.700   3.028
10074TIP3    H230180   3.014   2.784   2.903
10075TIP3   OH230181   0.401   5.742   0.914
10075TIP3    H130182   0.329   5.724   0.854
10075TIP3    H230183   0.364   5.727   1.001
10076TIP3   OH230184   7.647   4.325   0.700
10076TIP3    H130185   7.701   4.378   0.642
10076TIP3    H230186   7.617   4.387   0.767
10077TIP3   OH230187   3.768   7.686   5.528
10077TIP3    H130188   3.725   7.701   5.443
10077TIP3    H230189   3.795   7.595   5.525
10078TIP3   OH230190   0.693   5.890   1.718
10078TIP3    H130191   0.699   5.984   1.736
10078TIP3    H230192   0.608   5.879   1.676
10079TIP3   OH230193   1.426   4.312   1.712
10079TIP3    H130194   1.412   4.359   1.793
10079TIP3    H230195   1.466   4.376   1.653
10080TIP3   OH230196   2.809   5.571   4.787
10080TIP3    H130197   2.859   5.492   4.809
10080TIP3    H230198   2.837   5.592   4.697
10081TIP3   OH230199   1.950   5.551   3.146
10081TIP3    H130200   1.868   5.580   3.186
10081TIP3    H230201   1.938   5.457   3.134
10082TIP3   OH230202   6.059   4.764   0.073
10082TIP3    H130203   5.967   4.781   0.093
10082TIP3    H230204   6.082   4.687   0.126
10083TIP3   OH230205   6.421   1.842   5.132
10083TIP3    H130206   6.438   1.753   5.102
10083TIP3    H230207   6.336   1.838   5.174
10084TIP3   OH230208   0.013   2.134   6.261
10084TIP3    H130209   0.105   2.112   6.248
10084TIP3    H230210   0.011   2.177   6.346
10085TIP3   OH230211   7.751   5.944   0.727
10085TIP3    H130212   7.700   6.019   0.698
10085TIP3    H230213   7.738   5.940   0.821
10086TIP3   OH230214   2.264   6.815   6.146
10086TIP3    H130215   2.297   6.905   6.155
10086TIP3    H230216   2.326   6.761   6.194
10087TIP3   OH230217   8.176   0.987   4.052
10087TIP3    H130218   8.118   0.945   4.115
10087TIP3    H230219   8.253   1.012   4.103
10088TIP3   OH230220   1.300   0.113   4.003
10088TIP3    H130221   1.324   0.125   4.095
10088TIP3    H230222   1.243   0.036   4.003
10089TIP3   OH230223   1.449   7.644   2.213
10089TIP3    H130224   1.415   7.557   2.196
10089TIP3    H230225   1.527   7.651   2.157
10090TIP3   OH230226   6.174   1.685   5.136
10090TIP3    H130227   6.117   1.619   5.096
10090TIP3    H230228   6.120   1.764   5.142
10091TIP3   OH230229   3.568   3.543   3.858
10091TIP3    H130230   3.655   3.505   3.846
10091TIP3    H230231   3.510   3.484   3.811
10092TIP3   OH230232   8.018   4.988   2.796
10092TIP3    H130233   8.000   5.020   2.708
10092TIP3    H230234   8.091   4.927   2.785
10093TIP3   OH230235   2.661   1.845   5.223
10093TIP3    H130236   2.661   1.752   5.245
10093TIP3    H230237   2.710   1.886   5.294
10094TIP3   OH230238   0.808   1.431   2.522
10094TIP3    H130239   0.752   1.452   2.596
10094TIP3    H230240   0.778   1.488   2.452
10095TIP3   OH230241   2.678   1.872   1.028
10095TIP3    H130242   2.723   1.946   0.987
10095TIP3    H230243   2.586   1.885   1.007
10096TIP3   OH230244   3.273   5.990   0.290
10096TIP3    H130245   3.364   5.961   0.301
10096TIP3    H230246   3.274   6.083   0.313
10097TIP3   OH230247   4.583   1.390   2.470
10097TIP3    H130248   4.539   1.455   2.416
10097TIP3    H230249   4.512   1.343   2.514
10098TIP3   OH230250   3.260   1.617   3.041
10098TIP3    H130251   3.171   1.649   3.053
10098TIP3    H230252   3.315   1.689   3.073
10099TIP3   OH230253   1.956   1.731   3.580
10099TIP3    H130254   1.931   1.684   3.500
10099TIP3    H230255   1.876   1.735   3.632
10100TIP3   OH230256   8.085   5.334   2.145
10100TIP3    H130257   8.129   5.412   2.111
10100TIP3    H230258   8.022   5.311   2.078
10101TIP3   OH230259   2.506   0.159   2.820
10101TIP3    H130260   2.450   0.227   2.782
10101TIP3    H230261   2.565   0.206   2.879
10102TIP3   OH230262   4.151   7.517   6.638
10102TIP3    H130263   4.124   7.609   6.633
10102TIP3    H230264   4.243   7.518   6.609
10103TIP3   OH230265   3.543   5.068   5.367
10103TIP3    H130266   3.568   4.976   5.367
10103TIP3    H230267   3.616   5.112   5.324
10104TIP3   OH230268   1.004   7.199   3.096
10104TIP3    H130269   1.010   7.121   3.151
10104TIP3    H230270   1.086   7.201   3.048
10105TIP3   OH230271   2.964   6.019   6.444
10105TIP3    H130272   2.887   6.062   6.480
10105TIP3    H230273   2.931   5.971   6.368
10106TIP3   OH230274   3.805   7.517   0.292
10106TIP3    H130275   3.861   7.560   0.228
10106TIP3    H230276   3.819   7.424   0.278
10107TIP3   OH230277   4.186   0.141   0.239
10107TIP3    H130278   4.148   0.157   0.325
10107TIP3    H230279   4.225   0.054   0.246
10108TIP3   OH230280   6.612   3.770   2.071
10108TIP3    H130281   6.705   3.777   2.092
10108TIP3    H230282   6.608   3.780   1.976
10109TIP3   OH230283   8.097   1.366   3.539
10109TIP3    H130284   8.091   1.426   3.465
10109TIP3    H230285   8.098   1.279   3.499
10110TIP3   OH230286   3.555   0.741   2.576
10110TIP3    H130287   3.520   0.708   2.659
10110TIP3    H230288   3.489   0.718   2.511
10111TIP3   OH230289   2.779   4.038   2.514
10111TIP3    H130290   2.808   3.984   2.588
10111TIP3    H230291   2.834   4.009   2.441
10112TIP3   OH230292   6.301   4.725   0.630
10112TIP3    H130293   6.360   4.734   0.556
10112TIP3    H230294   6.353   4.755   0.705
10113TIP3   OH230295   5.076   6.788   2.783
10113TIP3    H130296   5.111   6.847   2.716
10113TIP3    H230297   5.153   6.752   2.826
10114TIP3   OH230298   4.320   2.610   0.391
10114TIP3    H130299   4.351   2.666   0.462
10114TIP3    H230300   4.326   2.665   0.313
10115TIP3   OH230301   7.002   5.115   3.335
10115TIP3    H130302   6.974   5.023   3.338
10115TIP3    H230303   7.018   5.138   3.426
10116TIP3   OH230304   1.115   6.244   5.475
10116TIP3    H130305   1.192   6.253   5.420
10116TIP3    H230306   1.146   6.265   5.563
10117TIP3   OH230307   2.795   2.505   4.911
10117TIP3    H130308   2.852   2.478   4.839
10117TIP3    H230309   2.837   2.469   4.989
10118TIP3   OH230310   2.624   5.690   5.222
10118TIP3    H130311   2.592   5.772   5.261
10118TIP3    H230312   2.624   5.707   5.128
10119TIP3   OH230313   4.802   5.816   1.962
10119TIP3    H130314   4.743   5.881   2.002
10119TIP3    H230315   4.784   5.736   2.010
10120TIP3   OH230316   6.518   4.599   3.962
10120TIP3    H130317   6.437   4.565   3.924
10120TIP3    H230318   6.491   4.643   4.043
10121TIP3   OH230319   7.082   1.715   5.752
10121TIP3    H130320   7.135   1.664   5.691
10121TIP3    H230321   7.134   1.718   5.832
10122TIP3   OH230322   1.163   1.257   2.873
10122TIP3    H130323   1.163   1.224   2.784
10122TIP3    H230324   1.219   1.197   2.922
10123TIP3   OH230325   5.397   0.303   3.325
10123TIP3    H130326   5.426   0.371   3.265
10123TIP3    H230327   5.452   0.314   3.402
10124TIP3   OH230328   5.423   0.471   0.705
10124TIP3    H130329   5.477   0.411   0.654
10124TIP3    H230330   5.480   0.544   0.727
10125TIP3   OH230331   5.769   4.489   2.080
10125TIP3    H130332   5.862   4.493   2.105
10125TIP3    H230333   5.762   4.408   2.030
10126TIP3   OH230334   6.722   1.016   4.386
10126TIP3    H130335   6.683   0.935   4.355
10126TIP3    H230336   6.802   0.989   4.432
10127TIP3   OH230337   4.434   4.405   3.304
10127TIP3    H130338   4.515   4.383   3.351
10127TIP3    H230339   4.370   4.421   3.373
10128TIP3   OH230340   8.170   3.573   2.539
10128TIP3    H130341   8.256   3.605   2.510
10128TIP3    H230342   8.115   3.652   2.541
10129TIP3   OH230343   5.484   6.881   0.765
10129TIP3    H130344   5.527   6.839   0.691
10129TIP3    H230345   5.488   6.975   0.746
10130TIP3   OH230346   2.602   4.294   2.887
10130TIP3    H130347   2.651   4.249   2.956
10130TIP3    H230348   2.668   4.343   2.839
10131TIP3   OH230349   8.164   4.967   6.374
10131TIP3    H130350   8.247   5.009   6.397
10131TIP3    H230351   8.098   5.036   6.387
10132TIP3   OH230352   5.907   0.835   2.318
10132TIP3    H130353   5.900   0.814   2.225
10132TIP3    H230354   5.987   0.887   2.325
10133TIP3   OH230355   2.776   7.072   6.680
10133TIP3    H130356   2.723   7.133   6.731
10133TIP3    H230357   2.778   7.108   6.592
10134TIP3   OH230358   2.701   6.784   6.522
10134TIP3    H130359   2.697   6.716   6.455
10134TIP3    H230360   2.791   6.782   6.554
10135TIP3   OH230361   6.222   2.156   5.341
10135TIP3    H130362   6.294   2.219   5.334
10135TIP3    H230363   6.247   2.100   5.415
10136TIP3   OH230364   7.295   1.015   0.574
10136TIP3    H130365   7.370   1.020   0.515
10136TIP3    H230366   7.327   0.967   0.650
10137TIP3   OH230367   5.495   2.112   5.494
10137TIP3    H130368   5.454   2.094   5.410
10137TIP3    H230369   5.585   2.080   5.485
10138TIP3   OH230370   6.193   1.295   1.971
10138TIP3    H130371   6.190   1.343   2.054
10138TIP3    H230372   6.201   1.203   1.997
10139TIP3   OH230373   1.209   4.193   1.330
10139TIP3    H130374   1.254   4.132   1.389
10139TIP3    H230375   1.116   4.182   1.350
10140TIP3   OH230376   1.016   2.131   5.360
10140TIP3    H130377   1.003   2.215   5.406
10140TIP3    H230378   0.983   2.147   5.272
10141TIP3   OH230379   3.666   0.888   2.170
10141TIP3    H130380   3.571   0.887   2.184
10141TIP3    H230381   3.681   0.818   2.106
10142TIP3   OH230382   5.901   6.552   3.936
10142TIP3    H130383   5.965   6.592   3.994
10142TIP3    H230384   5.910   6.599   3.853
10143TIP3   OH230385   2.886   4.574   5.118
10143TIP3    H130386   2.916   4.665   5.115
10143TIP3    H230387   2.893   4.545   5.027
10144TIP3   OH230388   4.076   6.827   5.193
10144TIP3    H130389   4.095   6.878   5.272
10144TIP3    H230390   3.983   6.808   5.198
10145TIP3   OH230391   2.553   0.665   4.032
10145TIP3    H130392   2.641   0.682   4.001
10145TIP3    H230393   2.553   0.571   4.052
10146TIP3   OH230394   3.044   0.721   0.050
10146TIP3    H130395   2.963   0.767   0.027
10146TIP3    H230396   3.020   0.629   0.049
10147TIP3   OH230397   1.260   5.377   2.370
10147TIP3    H130398   1.166   5.384   2.353
10147TIP3    H230399   1.289   5.467   2.385
10148TIP3   OH230400   0.759   0.033   5.830
10148TIP3    H130401   0.767   0.119   5.789
10148TIP3    H230402   0.840  -0.012   5.808
10149TIP3   OH230403   0.064   6.967   2.380
10149TIP3    H130404   0.075   7.062   2.385
10149TIP3    H230405   0.102   6.943   2.295
10150TIP3   OH230406   8.140   3.302   5.920
10150TIP3    H130407   8.055   3.268   5.889
10150TIP3    H230408   8.157   3.378   5.865
10151TIP3   OH230409   2.161   2.755   3.020
10151TIP3    H130410   2.109   2.692   2.969
10151TIP3    H230411   2.230   2.702   3.059
10152TIP3   OH230412   2.100   6.210   0.264
10152TIP3    H130413   2.168   6.214   0.332
10152TIP3    H230414   2.020   6.190   0.312
10153TIP3   OH230415   7.607   5.172   5.451
10153TIP3    H130416   7.576   5.235   5.516
10153TIP3    H230417   7.702   5.167   5.466
10154TIP3   OH230418   5.714   6.879   1.707
10154TIP3    H130419   5.641   6.912   1.758
10154TIP3    H230420   5.710   6.784   1.718
10155TIP3   OH230421   2.831   0.854   0.367
10155TIP3    H130422   2.831   0.932   0.423
10155TIP3    H230423   2.787   0.882   0.287
10156TIP3   OH230424   4.947   6.992   4.023
10156TIP3    H130425   5.020   7.053   4.008
10156TIP3    H230426   4.906   7.024   4.103
10157TIP3   OH230427   7.653   1.831   1.770
10157TIP3    H130428   7.719   1.762   1.779
10157TIP3    H230429   7.574   1.785   1.745
10158TIP3   OH230430   2.503   6.007   0.509
10158TIP3    H130431   2.475   6.003   0.600
10158TIP3    H230432   2.546   5.923   0.493
10159TIP3   OH230433   0.194   1.344   4.573
10159TIP3    H130434   0.206   1.328   4.667
10159TIP3    H230435   0.254   1.415   4.553
10160TIP3   OH230436   4.827   5.244   1.971
10160TIP3    H130437   4.738   5.268   1.996
10160TIP3    H230438   4.881   5.273   2.045
10161TIP3   OH230439   5.159   6.147   5.333
10161TIP3    H130440   5.199   6.221   5.378
10161TIP3    H230441   5.111   6.101   5.401
10162TIP3   OH230442   7.359   1.231   3.930
10162TIP3    H130443   7.394   1.202   4.015
10162TIP3    H230444   7.265   1.240   3.946
10163TIP3   OH230445   2.432   3.409   1.063
10163TIP3    H130446   2.337   3.418   1.059
10163TIP3    H230447   2.455   3.432   1.152
10164TIP3   OH230448   2.552   2.033   0.340
10164TIP3    H130449   2.529   1.948   0.377
10164TIP3    H230450   2.644   2.024   0.315
10165TIP3   OH230451   1.962   4.604   1.833
10165TIP3    H130452   2.051   4.623   1.862
10165TIP3    H230453   1.914   4.686   1.844
10166TIP3   OH230454   0.906   2.190   1.955
10166TIP3    H130455   0.907   2.157   2.045
10166TIP3    H230456   0.835   2.142   1.913
10167TIP3   OH230457   3.919   0.972   6.599
10167TIP3    H130458   3.968   1.015   6.529
10167TIP3    H230459   3.986   0.936   6.656
10168TIP3   OH230460   5.283   1.525   4.895
10168TIP3    H130461   5.226   1.527   4.972
10168TIP3    H230462   5.329   1.441   4.901
10169TIP3   OH230463   6.078   4.219   2.354
10169TIP3    H130464   6.170   4.193   2.348
10169TIP3    H230465   6.064   4.276   2.279
10170TIP3   OH230466   6.269   1.587   5.363
10170TIP3    H130467   6.245   1.598   5.271
10170TIP3    H230468   6.211   1.647   5.410
10171TIP3   OH230469   2.123   4.306   2.208
10171TIP3    H130470   2.075   4.241   2.260
10171TIP3    H230471   2.130   4.267   2.121
10172TIP3   OH230472  -0.020   2.619   2.282
10172TIP3    H130473   0.069   2.653   2.273
10172TIP3    H230474  -0.008   2.534   2.324
10173TIP3   OH230475   3.975   6.268   5.907
10173TIP3    H130476   3.945   6.268   5.816
10173TIP3    H230477   3.905   6.224   5.955
10174TIP3   OH230478   4.522   5.064   0.862
10174TIP3    H130479   4.550   5.040   0.773
10174TIP3    H230480   4.482   5.150   0.851
10175TIP3   OH230481   3.728   7.346   0.685
10175TIP3    H130482   3.784   7.270   0.702
10175TIP3    H230483   3.653   7.311   0.637
10176TIP3   OH230484   5.095   4.947   0.902
10176TIP3    H130485   5.106   4.969   0.809
10176TIP3    H230486   5.001   4.931   0.912
10177TIP3   OH230487   7.074   6.757   1.152
10177TIP3    H130488   7.152   6.804   1.121
10177TIP3    H230489   7.001   6.802   1.109
10178TIP3   OH230490   5.091   7.386   2.791
10178TIP3    H130491   5.156   7.453   2.767
10178TIP3    H230492   5.023   7.395   2.724
10179TIP3   OH230493   3.059   1.678   1.224
10179TIP3    H130494   3.093   1.750   1.170
10179TIP3    H230495   3.034   1.721   1.306
10180TIP3   OH230496   6.402   5.986   1.806
10180TIP3    H130497   6.426   5.941   1.725
10180TIP3    H230498   6.433   6.076   1.793
10181TIP3   OH230499   1.589   4.867   4.040
10181TIP3    H130500   1.665   4.834   4.087
10181TIP3    H230501   1.530   4.792   4.034
10182TIP3   OH230502   3.605   5.273   3.748
10182TIP3    H130503   3.690   5.252   3.785
10182TIP3    H230504   3.544   5.267   3.821
10183TIP3   OH230505   4.708   2.967   6.550
10183TIP3    H130506   4.731   2.927   6.466
10183TIP3    H230507   4.753   3.051   6.549
10184TIP3   OH230508   8.157   4.034   0.894
10184TIP3    H130509   8.128   3.944   0.879
10184TIP3    H230510   8.149   4.076   0.809
10185TIP3   OH230511   4.030   2.757   2.936
10185TIP3    H130512   3.948   2.793   2.970
10185TIP3    H230513   4.011   2.665   2.919
10186TIP3   OH230514   1.652   6.291   5.548
10186TIP3    H130515   1.670   6.376   5.588
10186TIP3    H230516   1.567   6.303   5.506
10187TIP3   OH230517   0.553   6.457   0.617
10187TIP3    H130518   0.518   6.400   0.685
10187TIP3    H230519   0.629   6.498   0.658
10188TIP3   OH230520   7.441   0.560   0.802
10188TIP3    H130521   7.439   0.517   0.887
10188TIP3    H230522   7.371   0.518   0.751
10189TIP3   OH230523   7.392   3.184   6.683
10189TIP3    H130524   7.300   3.176   6.657
10189TIP3    H230525   7.440   3.159   6.604
10190TIP3   OH230526   1.828   3.892   2.306
10190TIP3    H130527   1.873   3.840   2.240
10190TIP3    H230528   1.830   3.838   2.385
10191TIP3   OH230529   2.284   1.439   6.143
10191TIP3    H130530   2.209   1.493   6.169
10191TIP3    H230531   2.354   1.465   6.203
10192TIP3   OH230532   0.449   2.957   3.328
10192TIP3    H130533   0.388   2.935   3.257
10192TIP3    H230534   0.425   3.046   3.353
10193TIP3   OH230535   6.444   6.233   4.466
10193TIP3    H130536   6.468   6.326   4.477
10193TIP3    H230537   6.438   6.221   4.371
10194TIP3   OH230538   8.028   4.921   4.861
10194TIP3    H130539   7.934   4.913   4.878
10194TIP3    H230540   8.056   4.993   4.917
10195TIP3   OH230541   1.436   6.026   5.506
10195TIP3    H130542   1.530   6.045   5.511
10195TIP3    H230543   1.394   6.112   5.506
10196TIP3   OH230544   6.351   2.539   3.870
10196TIP3    H130545   6.301   2.529   3.951
10196TIP3    H230546   6.441   2.553   3.899
10197TIP3   OH230547   0.652   4.877   3.200
10197TIP3    H130548   0.717   4.811   3.177
10197TIP3    H230549   0.701   4.945   3.246
10198TIP3   OH230550   7.619   6.631   0.234
10198TIP3    H130551   7.535   6.605   0.271
10198TIP3    H230552   7.600   6.655   0.143
10199TIP3   OH230553   7.160   4.776   2.753
10199TIP3    H130554   7.184   4.705   2.813
10199TIP3    H230555   7.116   4.732   2.680
10200TIP3   OH230556   1.826   4.315   6.254
10200TIP3    H130557   1.880   4.252   6.207
10200TIP3    H230558   1.737   4.299   6.223
10201TIP3   OH230559   5.932   5.634   2.171
10201TIP3    H130560   5.873   5.708   2.184
10201TIP3    H230561   5.972   5.650   2.086
10202TIP3   OH230562   0.695   2.202   6.431
10202TIP3    H130563   0.603   2.225   6.443
10202TIP3    H230564   0.743   2.284   6.445
10203TIP3   OH230565   7.419   7.140   6.049
10203TIP3    H130566   7.485   7.117   5.983
10203TIP3    H230567   7.460   7.116   6.133
10204TIP3   OH230568   6.246   1.200   4.530
10204TIP3    H130569   6.340   1.202   4.513
10204TIP3    H230570   6.235   1.256   4.607
10205TIP3   OH230571   3.844   1.577   3.918
10205TIP3    H130572   3.830   1.651   3.860
10205TIP3    H230573   3.771   1.580   3.980
10206TIP3   OH230574   5.400   0.028   3.254
10206TIP3    H130575   5.430   0.019   3.164
10206TIP3    H230576   5.424   0.117   3.279
10207TIP3   OH230577   3.715   2.416   3.278
10207TIP3    H130578   3.625   2.422   3.310
10207TIP3    H230579   3.769   2.439   3.354
10208TIP3   OH230580   3.788   2.366   0.321
10208TIP3    H130581   3.761   2.407   0.239
10208TIP3    H230582   3.834   2.287   0.294
10209TIP3   OH230583   3.853   2.503   1.783
10209TIP3    H130584   3.826   2.595   1.774
10209TIP3    H230585   3.784   2.454   1.738
10210TIP3   OH230586   0.372   2.684   4.624
10210TIP3    H130587   0.325   2.601   4.610
10210TIP3    H230588   0.422   2.670   4.705
10211TIP3   OH230589   6.013   4.795   1.471
10211TIP3    H130590   6.048   4.755   1.391
10211TIP3    H230591   5.987   4.883   1.444
10212TIP3   OH230592   2.920   3.317   4.531
10212TIP3    H130593   3.014   3.310   4.517
10212TIP3    H230594   2.909   3.400   4.579
10213TIP3   OH230595   5.116   0.384   0.583
10213TIP3    H130596   5.189   0.325   0.565
10213TIP3    H230597   5.156   0.459   0.626
10214TIP3   OH230598   3.539   4.189   6.607
10214TIP3    H130599   3.604   4.121   6.592
10214TIP3    H230600   3.584   4.254   6.661
10215TIP3   OH230601   6.336   6.088   2.348
10215TIP3    H130602   6.278   6.016   2.323
10215TIP3    H230603   6.417   6.071   2.300
10216TIP3   OH230604   1.345   6.815   1.907
10216TIP3    H130605   1.342   6.885   1.842
10216TIP3    H230606   1.320   6.736   1.857
10217TIP3   OH230607   5.897   3.288   6.233
10217TIP3    H130608   5.882   3.209   6.285
10217TIP3    H230609   5.978   3.271   6.186
10218TIP3   OH230610   7.266   2.929   6.383
10218TIP3    H130611   7.226   2.971   6.307
10218TIP3    H230612   7.197   2.930   6.450
10219TIP3   OH230613   0.617   1.766   4.951
10219TIP3    H130614   0.671   1.713   5.009
10219TIP3    H230615   0.589   1.840   5.006
10220TIP3   OH230616   7.276   3.993   0.825
10220TIP3    H130617   7.320   4.042   0.893
10220TIP3    H230618   7.273   4.052   0.750
10221TIP3   OH230619   6.370   5.960   3.165
10221TIP3    H130620   6.412   5.973   3.250
10221TIP3    H230621   6.408   5.878   3.132
10222TIP3   OH230622   1.207   0.453   4.591
10222TIP3    H130623   1.141   0.422   4.654
10222TIP3    H230624   1.206   0.549   4.601
10223TIP3   OH230625   1.092   2.728   1.677
10223TIP3    H130626   1.015   2.680   1.706
10223TIP3    H230627   1.090   2.722   1.581
10224TIP3   OH230628   3.717   2.478   6.780
10224TIP3    H130629   3.782   2.410   6.794
10224TIP3    H230630   3.683   2.461   6.692
10225TIP3   OH230631   6.349   1.467   0.452
10225TIP3    H130632   6.396   1.385   0.436
10225TIP3    H230633   6.348   1.511   0.368
10226TIP3   OH230634   4.682   1.134   5.952
10226TIP3    H130635   4.692   1.162   5.861
10226TIP3    H230636   4.600   1.175   5.980
10227TIP3   OH230637   1.476   6.713   3.986
10227TIP3    H130638   1.455   6.668   4.068
10227TIP3    H230639   1.483   6.805   4.010
10228TIP3   OH230640   4.313   2.178   6.052
10228TIP3    H130641   4.307   2.178   5.956
10228TIP3    H230642   4.342   2.266   6.074
10229TIP3   OH230643   7.399   0.952   4.946
10229TIP3    H130644   7.335   1.023   4.936
10229TIP3    H230645   7.456   0.980   5.017
10230TIP3   OH230646   1.807   4.130   4.322
10230TIP3    H130647   1.823   4.069   4.250
10230TIP3    H230648   1.869   4.105   4.390
10231TIP3   OH230649   7.679   6.868   1.644
10231TIP3    H130650   7.730   6.827   1.574
10231TIP3    H230651   7.621   6.799   1.675
10232TIP3   OH230652   4.394   7.317   5.345
10232TIP3    H130653   4.331   7.370   5.296
10232TIP3    H230654   4.343   7.279   5.417
10233TIP3   OH230655   0.197   6.508   3.157
10233TIP3    H130656   0.116   6.459   3.170
10233TIP3    H230657   0.213   6.502   3.063
10234TIP3   OH230658   1.195   4.561   3.115
10234TIP3    H130659   1.219   4.568   3.023
10234TIP3    H230660   1.119   4.503   3.116
10235TIP3   OH230661   5.367   3.248   5.116
10235TIP3    H130662   5.335   3.336   5.095
10235TIP3    H230663   5.372   3.204   5.031
10236TIP3   OH230664   7.354   7.300   2.188
10236TIP3    H130665   7.284   7.240   2.214
10236TIP3    H230666   7.312   7.359   2.124
10237TIP3   OH230667   0.918   7.000   0.745
10237TIP3    H130668   0.987   7.042   0.797
10237TIP3    H230669   0.836   7.030   0.786
10238TIP3   OH230670   2.430   2.453   5.074
10238TIP3    H130671   2.368   2.526   5.079
10238TIP3    H230672   2.399   2.400   5.001
10239TIP3   OH230673   0.965   4.356   6.476
10239TIP3    H130674   1.007   4.270   6.477
10239TIP3    H230675   0.979   4.391   6.565
10240TIP3   OH230676   3.085   1.738   0.639
10240TIP3    H130677   3.098   1.646   0.615
10240TIP3    H230678   2.990   1.749   0.641
10241TIP3   OH230679   3.418   6.911   0.548
10241TIP3    H130680   3.414   6.821   0.581
10241TIP3    H230681   3.326   6.938   0.543
10242TIP3   OH230682   3.824   5.012   0.716
10242TIP3    H130683   3.736   4.995   0.750
10242TIP3    H230684   3.883   4.976   0.782
10243TIP3   OH230685   1.431   0.134   0.722
10243TIP3    H130686   1.390   0.141   0.636
10243TIP3    H230687   1.416   0.219   0.763
10244TIP3   OH230688   4.414   7.296   0.949
10244TIP3    H130689   4.444   7.238   0.879
10244TIP3    H230690   4.488   7.356   0.963
10245TIP3   OH230691   1.660   7.663   2.012
10245TIP3    H130692   1.724   7.599   1.980
10245TIP3    H230693   1.592   7.664   1.945
10246TIP3   OH230694   1.920   5.523   2.825
10246TIP3    H130695   1.895   5.445   2.876
10246TIP3    H230696   1.994   5.494   2.772
10247TIP3   OH230697   7.349   0.334   0.491
10247TIP3    H130698   7.435   0.361   0.524
10247TIP3    H230699   7.287   0.376   0.551
10248TIP3   OH230700   5.153   6.666   2.209
10248TIP3    H130701   5.225   6.610   2.239
10248TIP3    H230702   5.163   6.668   2.114
10249TIP3   OH230703   6.831   2.213   1.281
10249TIP3    H130704   6.759   2.176   1.332
10249TIP3    H230705   6.877   2.137   1.246
10250TIP3   OH230706   4.251   1.148   1.575
10250TIP3    H130707   4.261   1.067   1.624
10250TIP3    H230708   4.329   1.152   1.519
10251TIP3   OH230709   7.773   5.815   3.196
10251TIP3    H130710   7.678   5.822   3.200
10251TIP3    H230711   7.803   5.906   3.198
10252TIP3   OH230712   3.576   7.617   0.491
10252TIP3    H130713   3.665   7.616   0.527
10252TIP3    H230714   3.587   7.642   0.399
10253TIP3   OH230715   1.918   7.191   6.159
10253TIP3    H130716   1.908   7.101   6.127
10253TIP3    H230717   1.945   7.180   6.251
10254TIP3   OH230718   0.972   4.085   6.138
10254TIP3    H130719   1.059   4.045   6.140
10254TIP3    H230720   0.987   4.177   6.161
10255TIP3   OH230721   3.309   6.703   3.532
10255TIP3    H130722   3.222   6.699   3.491
10255TIP3    H230723   3.353   6.775   3.488
10256TIP3   OH230724   3.485   6.306   5.773
10256TIP3    H130725   3.513   6.323   5.863
10256TIP3    H230726   3.395   6.337   5.770
10257TIP3   OH230727   6.535   2.751   5.425
10257TIP3    H130728   6.445   2.760   5.395
10257TIP3    H230729   6.548   2.657   5.434
10258TIP3   OH230730   6.898   3.373   4.615
10258TIP3    H130731   6.989   3.366   4.642
10258TIP3    H230732   6.855   3.298   4.656
10259TIP3   OH230733   5.991   6.752   2.456
10259TIP3    H130734   6.021   6.778   2.369
10259TIP3    H230735   5.985   6.656   2.452
10260TIP3   OH230736   5.361   3.756   0.983
10260TIP3    H130737   5.312   3.696   0.926
10260TIP3    H230738   5.293   3.808   1.026
10261TIP3   OH230739   6.545   0.146   3.998
10261TIP3    H130740   6.564   0.170   3.908
10261TIP3    H230741   6.554   0.051   4.000
10262TIP3   OH230742   3.386   0.071   1.599
10262TIP3    H130743   3.416   0.136   1.536
10262TIP3    H230744   3.307   0.034   1.560
10263TIP3   OH230745   0.894   3.836   4.594
10263TIP3    H130746   0.815   3.782   4.601
10263TIP3    H230747   0.886   3.898   4.666
10264TIP3   OH230748   0.561   1.627   2.646
10264TIP3    H130749   0.571   1.542   2.688
10264TIP3    H230750   0.587   1.690   2.713
10265TIP3   OH230751   5.868   0.565   3.621
10265TIP3    H130752   5.783   0.608   3.606
10265TIP3    H230753   5.863   0.485   3.569
10266TIP3   OH230754   4.621   6.167   4.555
10266TIP3    H130755   4.582   6.252   4.574
10266TIP3    H230756   4.608   6.155   4.461
10267TIP3   OH230757   0.429   1.194   3.012
10267TIP3    H130758   0.405   1.221   2.923
10267TIP3    H230759   0.359   1.137   3.040
10268TIP3   OH230760   5.303   0.489   1.551
10268TIP3    H130761   5.335   0.577   1.530
10268TIP3    H230762   5.336   0.434   1.480
10269TIP3   OH230763   7.424   5.990   0.969
10269TIP3    H130764   7.437   5.977   1.063
10269TIP3    H230765   7.482   5.926   0.928
10270TIP3   OH230766   6.188   6.684   2.179
10270TIP3    H130767   6.096   6.678   2.203
10270TIP3    H230768   6.190   6.663   2.086
10271TIP3   OH230769   6.033   4.155   5.180
10271TIP3    H130770   6.010   4.171   5.271
10271TIP3    H230771   5.974   4.212   5.130
10272TIP3   OH230772   7.464   4.565   1.112
10272TIP3    H130773   7.385   4.575   1.166
10272TIP3    H230774   7.531   4.535   1.173
10273TIP3   OH230775   0.574   7.218   3.271
10273TIP3    H130776   0.652   7.272   3.275
10273TIP3    H230777   0.606   7.130   3.253
10274TIP3   OH230778   7.384   1.730   5.586
10274TIP3    H130779   7.474   1.714   5.558
10274TIP3    H230780   7.348   1.643   5.602
10275TIP3   OH230781   3.058   1.290   3.364
10275TIP3    H130782   3.128   1.288   3.430
10275TIP3    H230783   2.995   1.224   3.394
10276TIP3   OH230784   3.021   6.514   0.392
10276TIP3    H130785   3.058   6.597   0.362
10276TIP3    H230786   2.927   6.525   0.386
10277TIP3   OH230787   1.743   1.935   1.253
10277TIP3    H130788   1.752   2.027   1.229
10277TIP3    H230789   1.794   1.925   1.332
10278TIP3   OH230790   4.503   3.236   1.829
10278TIP3    H130791   4.443   3.217   1.757
10278TIP3    H230792   4.519   3.330   1.824
10279TIP3   OH230793   5.608   6.721   5.965
10279TIP3    H130794   5.633   6.745   5.875
10279TIP3    H230795   5.542   6.653   5.954
10280TIP3   OH230796   0.605   4.793   4.623
10280TIP3    H130797   0.526   4.811   4.674
10280TIP3    H230798   0.674   4.786   4.689
10281TIP3   OH230799   5.733   3.789   1.290
10281TIP3    H130800   5.674   3.822   1.357
10281TIP3    H230801   5.675   3.758   1.220
10282TIP3   OH230802   0.622   2.086   4.449
10282TIP3    H130803   0.588   1.999   4.467
10282TIP3    H230804   0.642   2.122   4.535
10283TIP3   OH230805   6.635   5.121   1.508
10283TIP3    H130806   6.725   5.104   1.479
10283TIP3    H230807   6.643   5.197   1.566
10284TIP3   OH230808   1.227   1.128   6.097
10284TIP3    H130809   1.275   1.098   6.020
10284TIP3    H230810   1.137   1.098   6.084
10285TIP3   OH230811   0.880   5.094   2.143
10285TIP3    H130812   0.894   5.135   2.058
10285TIP3    H230813   0.968   5.079   2.177
10286TIP3   OH230814   5.478   4.965   4.446
10286TIP3    H130815   5.419   4.910   4.496
10286TIP3    H230816   5.540   4.999   4.510
10287TIP3   OH230817   4.682   5.560   2.585
10287TIP3    H130818   4.738   5.620   2.632
10287TIP3    H230819   4.625   5.616   2.532
10288TIP3   OH230820   7.356   4.694   3.577
10288TIP3    H130821   7.293   4.754   3.617
10288TIP3    H230822   7.416   4.671   3.648
10289TIP3   OH230823   3.581   0.434   0.217
10289TIP3    H130824   3.521   0.482   0.274
10289TIP3    H230825   3.666   0.443   0.259
10290TIP3   OH230826   4.636   4.722   3.418
10290TIP3    H130827   4.681   4.805   3.435
10290TIP3    H230828   4.602   4.732   3.329
10291TIP3   OH230829   4.902   4.158   3.947
10291TIP3    H130830   4.961   4.233   3.953
10291TIP3    H230831   4.958   4.082   3.963
10292TIP3   OH230832   1.966   4.090   5.785
10292TIP3    H130833   2.046   4.056   5.745
10292TIP3    H230834   1.901   4.087   5.714
10293TIP3   OH230835   7.912   5.359   2.364
10293TIP3    H130836   7.976   5.329   2.300
10293TIP3    H230837   7.900   5.452   2.345
10294TIP3   OH230838   7.372   5.780   6.106
10294TIP3    H130839   7.350   5.691   6.134
10294TIP3    H230840   7.465   5.774   6.082
10295TIP3   OH230841   0.217   1.284   4.853
10295TIP3    H130842   0.218   1.376   4.881
10295TIP3    H230843   0.307   1.265   4.827
10296TIP3   OH230844   5.369   0.593   6.084
10296TIP3    H130845   5.300   0.654   6.060
10296TIP3    H230846   5.384   0.607   6.177
10297TIP3   OH230847   5.534   1.214   2.615
10297TIP3    H130848   5.608   1.174   2.568
10297TIP3    H230849   5.544   1.308   2.599
10298TIP3   OH230850   7.883   2.059   3.586
10298TIP3    H130851   7.857   2.108   3.509
10298TIP3    H230852   7.840   2.103   3.659
10299TIP3   OH230853   3.897   3.366   2.546
10299TIP3    H130854   3.864   3.411   2.468
10299TIP3    H230855   3.879   3.273   2.530
10300TIP3   OH230856   0.232   0.514   3.867
10300TIP3    H130857   0.281   0.478   3.942
10300TIP3    H230858   0.152   0.549   3.906
10301TIP3   OH230859   0.061   2.720   4.852
10301TIP3    H130860   0.052   2.708   4.947
10301TIP3    H230861   0.011   2.647   4.815
10302TIP3   OH230862   3.795   6.108   3.348
10302TIP3    H130863   3.708   6.141   3.326
10302TIP3    H230864   3.782   6.059   3.429
10303TIP3   OH230865   5.792   2.043   1.406
10303TIP3    H130866   5.780   2.129   1.447
10303TIP3    H230867   5.810   2.063   1.315
10304TIP3   OH230868   2.376   7.143   3.220
10304TIP3    H130869   2.295   7.194   3.210
10304TIP3    H230870   2.422   7.154   3.137
10305TIP3   OH230871   2.327   1.732   4.629
10305TIP3    H130872   2.308   1.824   4.611
10305TIP3    H230873   2.378   1.733   4.710
10306TIP3   OH230874   2.024   5.423   3.422
10306TIP3    H130875   1.948   5.404   3.366
10306TIP3    H230876   2.059   5.505   3.388
10307TIP3   OH230877   1.384   1.638   2.478
10307TIP3    H130878   1.357   1.549   2.497
10307TIP3    H230879   1.313   1.693   2.511
10308TIP3   OH230880   5.670   4.478   4.380
10308TIP3    H130881   5.625   4.394   4.373
10308TIP3    H230882   5.649   4.509   4.469
10309TIP3   OH230883   6.887   0.255   5.836
10309TIP3    H130884   6.832   0.305   5.775
10309TIP3    H230885   6.932   0.191   5.782
10310TIP3   OH230886   0.459   0.034   0.301
10310TIP3    H130887   0.396   0.024   0.230
10310TIP3    H230888   0.471   0.128   0.310
10311TIP3   OH230889   2.218   6.325   4.721
10311TIP3    H130890   2.297   6.358   4.678
10311TIP3    H230891   2.187   6.255   4.664
10312TIP3   OH230892   6.995   1.462   1.116
10312TIP3    H130893   6.994   1.438   1.209
10312TIP3    H230894   7.010   1.379   1.070
10313TIP3   OH230895   0.305   5.717   5.340
10313TIP3    H130896   0.283   5.627   5.363
10313TIP3    H230897   0.395   5.728   5.371
10314TIP3   OH230898   5.568   1.442   0.823
10314TIP3    H130899   5.503   1.389   0.777
10314TIP3    H230900   5.609   1.494   0.754
10315TIP3   OH230901   5.175   2.418   5.076
10315TIP3    H130902   5.103   2.480   5.082
10315TIP3    H230903   5.201   2.420   4.984
10316TIP3   OH230904   2.429   5.300   5.802
10316TIP3    H130905   2.456   5.226   5.748
10316TIP3    H230906   2.376   5.260   5.871
10317TIP3   OH230907   7.795   5.572   0.275
10317TIP3    H130908   7.721   5.523   0.309
10317TIP3    H230909   7.807   5.645   0.336
10318TIP3   OH230910   1.260   1.613   6.070
10318TIP3    H130911   1.218   1.527   6.063
10318TIP3    H230912   1.336   1.608   6.011
10319TIP3   OH230913   2.486   6.648   5.627
10319TIP3    H130914   2.552   6.586   5.598
10319TIP3    H230915   2.402   6.606   5.607
10320TIP3   OH230916   4.826   3.852   2.706
10320TIP3    H130917   4.879   3.774   2.724
10320TIP3    H230918   4.881   3.925   2.735
10321TIP3   OH230919   7.032   6.178   1.560
10321TIP3    H130920   7.064   6.207   1.475
10321TIP3    H230921   6.993   6.092   1.543
10322TIP3   OH230922   1.364   1.331   5.227
10322TIP3    H130923   1.380   1.260   5.289
10322TIP3    H230924   1.301   1.388   5.271
10323TIP3   OH230925   4.387   5.107   4.064
10323TIP3    H130926   4.352   5.186   4.024
10323TIP3    H230927   4.446   5.070   3.998
10324TIP3   OH230928   6.026   2.025   3.567
10324TIP3    H130929   5.973   2.057   3.494
10324TIP3    H230930   6.076   2.102   3.596
10325TIP3   OH230931   3.362   6.851   4.582
10325TIP3    H130932   3.370   6.944   4.604
10325TIP3    H230933   3.426   6.808   4.638
10326TIP3   OH230934   1.574   1.288   0.098
10326TIP3    H130935   1.548   1.352   0.032
10326TIP3    H230936   1.560   1.203   0.057
10327TIP3   OH230937   4.143   7.638   2.520
10327TIP3    H130938   4.115   7.647   2.429
10327TIP3    H230939   4.151   7.543   2.534
10328TIP3   OH230940   6.171   0.598   5.509
10328TIP3    H130941   6.155   0.665   5.576
10328TIP3    H230942   6.191   0.647   5.430
10329TIP3   OH230943   5.758   1.515   0.612
10329TIP3    H130944   5.778   1.597   0.657
10329TIP3    H230945   5.812   1.449   0.657
10330TIP3   OH230946   0.245   6.776   4.897
10330TIP3    H130947   0.299   6.698   4.882
10330TIP3    H230948   0.228   6.811   4.809
10331TIP3   OH230949   3.795   0.466   0.378
10331TIP3    H130950   3.763   0.531   0.441
10331TIP3    H230951   3.851   0.408   0.430
10332TIP3   OH230952   4.886   1.654   3.840
10332TIP3    H130953   4.903   1.596   3.765
10332TIP3    H230954   4.852   1.735   3.800
10333TIP3   OH230955   1.871   6.165   2.926
10333TIP3    H130956   1.954   6.140   2.965
10333TIP3    H230957   1.878   6.137   2.835
10334TIP3   OH230958   5.144   5.410   2.572
10334TIP3    H130959   5.089   5.358   2.631
10334TIP3    H230960   5.220   5.354   2.555
10335TIP3   OH230961   0.400   3.236   4.457
10335TIP3    H130962   0.375   3.182   4.532
10335TIP3    H230963   0.386   3.326   4.487
10336TIP3   OH230964   0.294   7.476   3.634
10336TIP3    H130965   0.258   7.535   3.568
10336TIP3    H230966   0.356   7.421   3.586
10337TIP3   OH230967   1.898   6.175   5.346
10337TIP3    H130968   1.983   6.159   5.306
10337TIP3    H230969   1.916   6.242   5.412
10338TIP3   OH230970   0.672   0.952   6.574
10338TIP3    H130971   0.744   0.889   6.585
10338TIP3    H230972   0.706   1.016   6.511
10339TIP3   OH230973   0.738   3.239   1.951
10339TIP3    H130974   0.736   3.311   2.015
10339TIP3    H230975   0.828   3.208   1.952
10340TIP3   OH230976   5.231   7.015   2.108
10340TIP3    H130977   5.156   6.990   2.161
10340TIP3    H230978   5.207   6.991   2.019
10341TIP3   OH230979   1.020   4.099   1.703
10341TIP3    H130980   1.084   4.095   1.632
10341TIP3    H230981   0.960   4.170   1.677
10342TIP3   OH230982   6.194   3.896   5.436
10342TIP3    H130983   6.227   3.807   5.433
10342TIP3    H230984   6.162   3.907   5.526
10343TIP3   OH230985   3.816   4.066   2.393
10343TIP3    H130986   3.742   4.009   2.412
10343TIP3    H230987   3.787   4.118   2.318
10344TIP3   OH230988   4.649   3.723   6.520
10344TIP3    H130989   4.698   3.762   6.448
10344TIP3    H230990   4.634   3.632   6.493
10345TIP3   OH230991   5.747   3.842   5.314
10345TIP3    H130992   5.746   3.863   5.408
10345TIP3    H230993   5.840   3.844   5.290
10346TIP3   OH230994   7.327   1.536   5.867
10346TIP3    H130995   7.267   1.611   5.875
10346TIP3    H230996   7.397   1.555   5.929
10347TIP3   OH230997   5.581   4.732   3.822
10347TIP3    H130998   5.622   4.705   3.740
10347TIP3    H230999   5.650   4.724   3.887
10348TIP3   OH231000   3.203   5.055   6.321
10348TIP3    H131001   3.157   5.042   6.403
10348TIP3    H231002   3.289   5.014   6.334
10349TIP3   OH231003   2.435   4.166   6.098
10349TIP3    H131004   2.425   4.090   6.156
10349TIP3    H231005   2.435   4.241   6.157
10350TIP3   OH231006   4.402   5.322   0.848
10350TIP3    H131007   4.307   5.317   0.855
10350TIP3    H231008   4.420   5.412   0.821
10351TIP3   OH231009   4.267   0.868   1.646
10351TIP3    H131010   4.187   0.868   1.592
10351TIP3    H231011   4.251   0.799   1.711
10352TIP3   OH231012   5.594   6.725   1.445
10352TIP3    H131013   5.663   6.667   1.476
10352TIP3    H231014   5.513   6.684   1.475
10353TIP3   OH231015   6.501   3.338   5.770
10353TIP3    H131016   6.472   3.333   5.861
10353TIP3    H231017   6.587   3.381   5.775
10354TIP3   OH231018   3.522   2.517   2.477
10354TIP3    H131019   3.433   2.544   2.498
10354TIP3    H231020   3.512   2.438   2.424
10355TIP3   OH231021   6.862   0.150   3.098
10355TIP3    H131022   6.819   0.139   3.182
10355TIP3    H231023   6.791   0.171   3.037
10356TIP3   OH231024   7.718   1.885   3.932
10356TIP3    H131025   7.667   1.811   3.963
10356TIP3    H231026   7.804   1.849   3.912
10357TIP3   OH231027   0.087   2.532   4.492
10357TIP3    H131028   0.009   2.541   4.438
10357TIP3    H231029   0.061   2.472   4.562
10358TIP3   OH231030   1.585   1.227   4.348
10358TIP3    H131031   1.527   1.303   4.356
10358TIP3    H231032   1.615   1.211   4.437
10359TIP3   OH231033   7.017   3.604   5.953
10359TIP3    H131034   7.089   3.666   5.958
10359TIP3    H231035   6.941   3.654   5.984
10360TIP3   OH231036   7.593   7.611   0.439
10360TIP3    H131037   7.522   7.647   0.385
10360TIP3    H231038   7.603   7.674   0.511
10361TIP3   OH231039   6.465   5.951   0.565
10361TIP3    H131040   6.444   5.989   0.480
10361TIP3    H231041   6.469   6.027   0.624
10362TIP3   OH231042   0.508   7.555   1.172
10362TIP3    H131043   0.508   7.556   1.268
10362TIP3    H231044   0.600   7.561   1.148
10363TIP3   OH231045   2.758   5.494   0.623
10363TIP3    H131046   2.676   5.506   0.573
10363TIP3    H231047   2.729   5.464   0.709
10364TIP3   OH231048   6.111   1.365   2.226
10364TIP3    H131049   6.173   1.428   2.263
10364TIP3    H231050   6.042   1.357   2.292
10365TIP3   OH231051   1.664   6.918   4.741
10365TIP3    H131052   1.703   6.830   4.739
10365TIP3    H231053   1.724   6.970   4.793
10366TIP3   OH231054   3.164   6.947   3.681
10366TIP3    H131055   3.095   6.978   3.621
10366TIP3    H231056   3.179   6.857   3.655
10367TIP3   OH231057   3.382   4.574   5.315
10367TIP3    H131058   3.390   4.501   5.253
10367TIP3    H231059   3.307   4.624   5.285
10368TIP3   OH231060   3.474   2.618   5.256
10368TIP3    H131061   3.423   2.564   5.316
10368TIP3    H231062   3.492   2.561   5.181
10369TIP3   OH231063   3.919   2.478   3.465
10369TIP3    H131064   3.968   2.418   3.522
10369TIP3    H231065   3.941   2.565   3.498
10370TIP3   OH231066   2.601   7.342   2.725
10370TIP3    H131067   2.511   7.327   2.755
10370TIP3    H231068   2.611   7.285   2.649
10371TIP3   OH231069   3.924   1.145   0.619
10371TIP3    H131070   3.898   1.219   0.673
10371TIP3    H231071   3.931   1.182   0.530
10372TIP3   OH231072   7.990   6.777   5.184
10372TIP3    H131073   7.995   6.702   5.124
10372TIP3    H231074   7.976   6.852   5.126
10373TIP3   OH231075   0.912   1.162   4.750
10373TIP3    H131076   0.849   1.090   4.759
10373TIP3    H231077   0.991   1.129   4.792
10374TIP3   OH231078   3.050   1.199   1.120
10374TIP3    H131079   2.996   1.120   1.113
10374TIP3    H231080   3.049   1.236   1.032
10375TIP3   OH231081   4.698   1.575   5.844
10375TIP3    H131082   4.751   1.639   5.892
10375TIP3    H231083   4.760   1.531   5.786
10376TIP3   OH231084   4.706   2.371   5.304
10376TIP3    H131085   4.662   2.298   5.261
10376TIP3    H231086   4.757   2.330   5.374
10377TIP3   OH231087   4.540   3.133   6.077
10377TIP3    H131088   4.532   3.057   6.136
10377TIP3    H231089   4.540   3.095   5.989
10378TIP3   OH231090   1.249   1.120   4.535
10378TIP3    H131091   1.310   1.106   4.607
10378TIP3    H231092   1.175   1.062   4.555
10379TIP3   OH231093   5.944   1.202   2.380
10379TIP3    H131094   6.010   1.149   2.336
10379TIP3    H231095   5.872   1.141   2.397
10380TIP3   OH231096   0.642   1.334   4.150
10380TIP3    H131097   0.564   1.283   4.129
10380TIP3    H231098   0.672   1.297   4.233
10381TIP3   OH231099   2.644   2.236   4.867
10381TIP3    H131100   2.628   2.197   4.953
10381TIP3    H231101   2.659   2.328   4.885
10382TIP3   OH231102   0.862   5.858   5.060
10382TIP3    H131103   0.948   5.893   5.085
10382TIP3    H231104   0.881   5.800   4.986
10383TIP3   OH231105   0.661   6.505   3.895
10383TIP3    H131106   0.686   6.554   3.817
10383TIP3    H231107   0.723   6.431   3.897
10384TIP3   OH231108   7.199   0.955   0.875
10384TIP3    H131109   7.182   1.044   0.904
10384TIP3    H231110   7.245   0.914   0.948
10385TIP3   OH231111   7.367   6.415   0.262
10385TIP3    H131112   7.436   6.406   0.328
10385TIP3    H231113   7.384   6.344   0.200
10386TIP3   OH231114   0.902   6.352   0.296
10386TIP3    H131115   0.995   6.339   0.317
10386TIP3    H231116   0.885   6.443   0.318
10387TIP3   OH231117   3.859   6.912   0.986
10387TIP3    H131118   3.864   7.005   1.009
10387TIP3    H231119   3.920   6.869   1.047
10388TIP3   OH231120   4.482   5.928   6.188
10388TIP3    H131121   4.577   5.914   6.183
10388TIP3    H231122   4.452   5.871   6.258
10389TIP3   OH231123   0.171   1.507   4.080
10389TIP3    H131124   0.246   1.566   4.066
10389TIP3    H231125   0.102   1.564   4.114
10390TIP3   OH231126   3.948   2.071   0.614
10390TIP3    H131127   3.920   2.162   0.614
10390TIP3    H231128   3.990   2.058   0.699
10391TIP3   OH231129   4.003   2.897   3.705
10391TIP3    H131130   4.070   2.875   3.770
10391TIP3    H231131   4.009   2.992   3.697
10392TIP3   OH231132   2.570   0.234   3.314
10392TIP3    H131133   2.477   0.253   3.302
10392TIP3    H231134   2.586   0.158   3.259
10393TIP3   OH231135   5.428   0.087   5.920
10393TIP3    H131136   5.497   0.151   5.905
10393TIP3    H231137   5.439   0.061   6.012
10394TIP3   OH231138   8.077   1.957   3.332
10394TIP3    H131139   8.100   2.026   3.270
10394TIP3    H231140   8.068   2.001   3.416
10395TIP3   OH231141   6.811   6.385   2.609
10395TIP3    H131142   6.728   6.337   2.610
10395TIP3    H231143   6.811   6.431   2.525
10396TIP3   OH231144   4.927   7.033   5.332
10396TIP3    H131145   4.890   7.018   5.419
10396TIP3    H231146   4.998   6.970   5.325
10397TIP3   OH231147   1.873   4.642   5.819
10397TIP3    H131148   1.871   4.559   5.868
10397TIP3    H231149   1.965   4.666   5.816
10398TIP3   OH231150   2.099   4.735   2.192
10398TIP3    H131151   2.040   4.761   2.122
10398TIP3    H231152   2.139   4.653   2.161
10399TIP3   OH231153   8.233   4.480   5.814
10399TIP3    H131154   8.287   4.415   5.859
10399TIP3    H231155   8.297   4.543   5.779
10400TIP3   OH231156   6.431   6.404   0.726
10400TIP3    H131157   6.340   6.435   0.731
10400TIP3    H231158   6.455   6.417   0.634
10401TIP3   OH231159   3.536   1.790   0.409
10401TIP3    H131160   3.602   1.734   0.370
10401TIP3    H231161   3.546   1.874   0.364
10402TIP3   OH231162   1.081   7.374   5.777
10402TIP3    H131163   1.086   7.394   5.683
10402TIP3    H231164   1.003   7.320   5.786
10403TIP3   OH231165   8.133   7.292   3.284
10403TIP3    H131166   8.040   7.280   3.268
10403TIP3    H231167   8.138   7.335   3.369
10404TIP3   OH231168   5.509   4.546   6.047
10404TIP3    H131169   5.593   4.576   6.012
10404TIP3    H231170   5.445   4.607   6.012
10405TIP3   OH231171   4.868   5.767   1.461
10405TIP3    H131172   4.962   5.763   1.441
10405TIP3    H231173   4.860   5.725   1.547
10406TIP3   OH231174   7.444   7.101   0.717
10406TIP3    H131175   7.477   7.167   0.657
10406TIP3    H231176   7.468   7.017   0.676
10407TIP3   OH231177   2.813   3.816   0.026
10407TIP3    H131178   2.748   3.746   0.033
10407TIP3    H231179   2.771   3.892   0.067
10408TIP3   OH231180   7.998   3.350   5.171
10408TIP3    H131181   7.953   3.321   5.251
10408TIP3    H231182   7.985   3.444   5.169
10409TIP3   OH231183   7.727   1.263   5.407
10409TIP3    H131184   7.715   1.168   5.410
10409TIP3    H231185   7.688   1.296   5.488
10410TIP3   OH231186   1.498   0.227   1.056
10410TIP3    H131187   1.578   0.263   1.018
10410TIP3    H231188   1.519   0.215   1.148
10411TIP3   OH231189   4.188   5.087   5.682
10411TIP3    H131190   4.094   5.073   5.667
10411TIP3    H231191   4.192   5.129   5.768
10412TIP3   OH231192   7.081   0.538   4.614
10412TIP3    H131193   7.111   0.627   4.598
10412TIP3    H231194   6.993   0.548   4.651
10413TIP3   OH231195   4.125   0.628   3.791
10413TIP3    H131196   4.108   0.536   3.813
10413TIP3    H231197   4.073   0.677   3.854
10414TIP3   OH231198   3.369   3.489   4.735
10414TIP3    H131199   3.397   3.559   4.676
10414TIP3    H231200   3.322   3.534   4.805
10415TIP3   OH231201   1.663   1.980   3.533
10415TIP3    H131202   1.705   2.003   3.616
10415TIP3    H231203   1.611   2.057   3.510
10416TIP3   OH231204   6.423   5.244   6.458
10416TIP3    H131205   6.333   5.211   6.451
10416TIP3    H231206   6.478   5.166   6.448
10417TIP3   OH231207   0.396   7.051   1.816
10417TIP3    H131208   0.447   7.109   1.760
10417TIP3    H231209   0.314   7.036   1.768
10418TIP3   OH231210   2.593   4.732   5.331
10418TIP3    H131211   2.660   4.789   5.367
10418TIP3    H231212   2.574   4.769   5.244
10419TIP3   OH231213   2.892   4.796   0.048
10419TIP3    H131214   2.961   4.731   0.041
10419TIP3    H231215   2.833   4.761   0.115
10420TIP3   OH231216   5.551   0.190   0.142
10420TIP3    H131217   5.489   0.263   0.141
10420TIP3    H231218   5.620   0.216   0.080
10421TIP3   OH231219   5.255   4.294   2.230
10421TIP3    H131220   5.245   4.389   2.226
10421TIP3    H231221   5.174   4.260   2.190
10422TIP3   OH231222   7.367   4.342   4.345
10422TIP3    H131223   7.344   4.249   4.342
10422TIP3    H231224   7.299   4.381   4.402
10423TIP3   OH231225   6.490   5.094   0.978
10423TIP3    H131226   6.502   5.187   0.959
10423TIP3    H231227   6.397   5.086   1.000
10424TIP3   OH231228   5.596   5.848   5.974
10424TIP3    H131229   5.627   5.760   5.994
10424TIP3    H231230   5.542   5.872   6.049
10425TIP3   OH231231   1.828   3.910   3.237
10425TIP3    H131232   1.853   3.857   3.161
10425TIP3    H231233   1.769   3.854   3.287
10426TIP3   OH231234   3.011   1.083   1.641
10426TIP3    H131235   3.105   1.094   1.627
10426TIP3    H231236   2.975   1.073   1.553
10427TIP3   OH231237   2.406   5.518   2.035
10427TIP3    H131238   2.331   5.486   1.985
10427TIP3    H231239   2.373   5.532   2.124
10428TIP3   OH231240   7.885   6.307   0.969
10428TIP3    H131241   7.960   6.262   1.008
10428TIP3    H231242   7.811   6.281   1.023
10429TIP3   OH231243   3.592   3.326   3.016
10429TIP3    H131244   3.531   3.391   2.981
10429TIP3    H231245   3.536   3.259   3.056
10430TIP3   OH231246   5.754   7.552   3.191
10430TIP3    H131247   5.705   7.587   3.118
10430TIP3    H231248   5.817   7.492   3.152
10431TIP3   OH231249   8.195   1.661   0.256
10431TIP3    H131250   8.153   1.624   0.179
10431TIP3    H231251   8.133   1.725   0.289
10432TIP3   OH231252   3.152   3.880   1.738
10432TIP3    H131253   3.242   3.913   1.745
10432TIP3    H231254   3.159   3.787   1.756
10433TIP3   OH231255   5.258   0.978   5.531
10433TIP3    H131256   5.317   0.979   5.455
10433TIP3    H231257   5.290   1.048   5.587
10434TIP3   OH231258   0.501   4.225   5.086
10434TIP3    H131259   0.587   4.200   5.051
10434TIP3    H231260   0.507   4.209   5.180
10435TIP3   OH231261   6.349   2.337   3.620
10435TIP3    H131262   6.265   2.381   3.639
10435TIP3    H231263   6.415   2.393   3.661
10436TIP3   OH231264   6.116   5.611   0.372
10436TIP3    H131265   6.113   5.675   0.443
10436TIP3    H231266   6.103   5.663   0.293
10437TIP3   OH231267   2.115   1.582   1.057
10437TIP3    H131268   2.098   1.672   1.086
10437TIP3    H231269   2.066   1.574   0.975
10438TIP3   OH231270   6.336   6.285   0.987
10438TIP3    H131271   6.393   6.338   0.932
10438TIP3    H231272   6.261   6.264   0.931
10439TIP3   OH231273   7.303   2.284   3.813
10439TIP3    H131274   7.280   2.314   3.900
10439TIP3    H231275   7.270   2.352   3.754
10440TIP3   OH231276   7.314   4.246   3.082
10440TIP3    H131277   7.339   4.338   3.073
10440TIP3    H231278   7.325   4.226   3.175
10441TIP3   OH231279   8.032   2.316   6.524
10441TIP3    H131280   8.055   2.395   6.573
10441TIP3    H231281   7.986   2.348   6.447
10442TIP3   OH231282   2.256   0.658   2.654
10442TIP3    H131283   2.310   0.602   2.710
10442TIP3    H231284   2.169   0.619   2.657
10443TIP3   OH231285   7.201   1.599   5.045
10443TIP3    H131286   7.139   1.545   4.997
10443TIP3    H231287   7.149   1.643   5.112
10444TIP3   OH231288   3.918   2.183   3.846
10444TIP3    H131289   3.921   2.089   3.825
10444TIP3    H231290   3.831   2.211   3.818
10445TIP3   OH231291   3.182   1.547   5.350
10445TIP3    H131292   3.259   1.524   5.298
10445TIP3    H231293   3.138   1.463   5.366
10446TIP3   OH231294   4.484   2.202   2.876
10446TIP3    H131295   4.559   2.210   2.817
10446TIP3    H231296   4.408   2.212   2.820
10447TIP3   OH231297   8.181   0.587   2.806
10447TIP3    H131298   8.228   0.606   2.888
10447TIP3    H231299   8.226   0.510   2.770
10448TIP3   OH231300   7.073   3.016   2.025
10448TIP3    H131301   7.165   3.037   2.011
10448TIP3    H231302   7.066   2.923   2.003
10449TIP3   OH231303   6.009   1.748   3.484
10449TIP3    H131304   6.002   1.795   3.400
10449TIP3    H231305   6.034   1.816   3.547
10450TIP3   OH231306   3.763   2.483   4.577
10450TIP3    H131307   3.778   2.388   4.575
10450TIP3    H231308   3.848   2.521   4.559
10451TIP3   OH231309   4.594   7.220   3.258
10451TIP3    H131310   4.565   7.210   3.167
10451TIP3    H231311   4.588   7.132   3.295
10452TIP3   OH231312   4.010   4.364   1.772
10452TIP3    H131313   3.971   4.391   1.689
10452TIP3    H231314   4.101   4.342   1.751
10453TIP3   OH231315   0.191   0.183   2.673
10453TIP3    H131316   0.149   0.143   2.597
10453TIP3    H231317   0.283   0.193   2.648
10454TIP3   OH231318   7.449   0.007   0.554
10454TIP3    H131319   7.382   0.025   0.488
10454TIP3    H231320   7.461   0.090   0.599
10455TIP3   OH231321   0.598   3.724   6.280
10455TIP3    H131322   0.528   3.697   6.338
10455TIP3    H231323   0.593   3.820   6.280
10456TIP3   OH231324   0.705   4.625   5.220
10456TIP3    H131325   0.655   4.587   5.293
10456TIP3    H231326   0.653   4.700   5.192
10457TIP3   OH231327   3.432   3.192   6.225
10457TIP3    H131328   3.418   3.278   6.266
10457TIP3    H231329   3.375   3.193   6.148
10458TIP3   OH231330   3.658   2.751   3.735
10458TIP3    H131331   3.567   2.783   3.733
10458TIP3    H231332   3.651   2.658   3.757
10459TIP3   OH231333   3.164   3.397   5.891
10459TIP3    H131334   3.075   3.365   5.880
10459TIP3    H231335   3.154   3.481   5.936
10460TIP3   OH231336   0.442   2.775   4.301
10460TIP3    H131337   0.451   2.687   4.338
10460TIP3    H231338   0.356   2.774   4.259
10461TIP3   OH231339   0.666   3.420   5.279
10461TIP3    H131340   0.719   3.377   5.212
10461TIP3    H231341   0.723   3.424   5.356
10462TIP3   OH231342   2.090   6.233   2.066
10462TIP3    H131343   2.076   6.218   1.973
10462TIP3    H231344   2.078   6.328   2.077
10463TIP3   OH231345   1.831   4.608   0.227
10463TIP3    H131346   1.832   4.554   0.306
10463TIP3    H231347   1.835   4.544   0.155
10464TIP3   OH231348   0.103   6.241   5.463
10464TIP3    H131349   0.181   6.290   5.491
10464TIP3    H231350   0.138   6.160   5.427
10465TIP3   OH231351   3.932   0.928   4.803
10465TIP3    H131352   4.020   0.893   4.790
10465TIP3    H231353   3.875   0.865   4.760
10466TIP3   OH231354   4.895   2.176   4.981
10466TIP3    H131355   4.893   2.176   5.077
10466TIP3    H231356   4.855   2.093   4.956
10467TIP3   OH231357   4.047   3.620   1.937
10467TIP3    H131358   4.080   3.625   2.026
10467TIP3    H231359   3.952   3.625   1.946
10468TIP3   OH231360   5.263   1.843   4.696
10468TIP3    H131361   5.277   1.748   4.696
10468TIP3    H231362   5.289   1.871   4.608
10469TIP3   OH231363   1.475   0.906   5.151
10469TIP3    H131364   1.451   0.874   5.064
10469TIP3    H231365   1.492   0.827   5.202
10470TIP3   OH231366   0.020   3.908   2.191
10470TIP3    H131367   0.033   3.967   2.266
10470TIP3    H231368   0.108   3.898   2.153
10471TIP3   OH231369   0.585   4.133   3.377
10471TIP3    H131370   0.530   4.210   3.364
10471TIP3    H231371   0.526   4.059   3.362
10472TIP3   OH231372   3.359   1.394   3.168
10472TIP3    H131373   3.337   1.487   3.163
10472TIP3    H231374   3.454   1.393   3.182
10473TIP3   OH231375   3.026   4.142   0.364
10473TIP3    H131376   2.959   4.077   0.344
10473TIP3    H231377   3.083   4.100   0.428
10474TIP3   OH231378   5.662   3.139   6.116
10474TIP3    H131379   5.690   3.076   6.182
10474TIP3    H231380   5.731   3.206   6.118
10475TIP3   OH231381   3.025   5.160   6.651
10475TIP3    H131382   3.004   5.108   6.729
10475TIP3    H231383   3.119   5.176   6.658
10476TIP3   OH231384   3.231   5.634   4.127
10476TIP3    H131385   3.309   5.607   4.175
10476TIP3    H231386   3.251   5.722   4.096
10477TIP3   OH231387   0.809   6.261   4.772
10477TIP3    H131388   0.745   6.193   4.793
10477TIP3    H231389   0.785   6.290   4.684
10478TIP3   OH231390   7.506   1.492   4.399
10478TIP3    H131391   7.586   1.523   4.441
10478TIP3    H231392   7.460   1.572   4.373
10479TIP3   OH231393   6.839   0.686   3.111
10479TIP3    H131394   6.930   0.702   3.136
10479TIP3    H231395   6.841   0.602   3.066
10480TIP3   OH231396   7.518   6.219   6.147
10480TIP3    H131397   7.552   6.277   6.215
10480TIP3    H231398   7.423   6.224   6.157
10481TIP3   OH231399   7.429   5.223   6.429
10481TIP3    H131400   7.342   5.246   6.460
10481TIP3    H231401   7.489   5.265   6.492
10482TIP3   OH231402   3.455   5.002   6.749
10482TIP3    H131403   3.539   5.032   6.715
10482TIP3    H231404   3.478   4.955   6.830
10483TIP3   OH231405   3.699   0.660   1.051
10483TIP3    H131406   3.609   0.664   1.017
10483TIP3    H231407   3.730   0.750   1.047
10484TIP3   OH231408   6.418   7.252   1.262
10484TIP3    H131409   6.350   7.203   1.309
10484TIP3    H231410   6.389   7.343   1.267
10485TIP3   OH231411   6.568   1.579   2.667
10485TIP3    H131412   6.627   1.507   2.688
10485TIP3    H231413   6.491   1.564   2.722
10486TIP3   OH231414   7.999   4.318   5.704
10486TIP3    H131415   8.068   4.358   5.757
10486TIP3    H231416   7.920   4.365   5.728
10487TIP3   OH231417   7.410   7.164   0.982
10487TIP3    H131418   7.418   7.151   0.887
10487TIP3    H231419   7.427   7.078   1.020
10488TIP3   OH231420   0.455   6.016   4.303
10488TIP3    H131421   0.520   6.061   4.358
10488TIP3    H231422   0.379   6.006   4.360
10489TIP3   OH231423   7.570   2.770   5.983
10489TIP3    H131424   7.543   2.860   6.000
10489TIP3    H231425   7.514   2.742   5.911
10490TIP3   OH231426   4.570   1.370   3.407
10490TIP3    H131427   4.501   1.308   3.382
10490TIP3    H231428   4.543   1.402   3.493
10491TIP3   OH231429   2.237   0.724   1.875
10491TIP3    H131430   2.186   0.805   1.872
10491TIP3    H231431   2.300   0.738   1.945
10492TIP3   OH231432   2.624   2.371   3.087
10492TIP3    H131433   2.673   2.344   3.165
10492TIP3    H231434   2.682   2.351   3.014
10493TIP3   OH231435   6.270   0.690   4.988
10493TIP3    H131436   6.230   0.753   4.928
10493TIP3    H231437   6.251   0.605   4.951
10494TIP3   OH231438   1.962   1.490   4.249
10494TIP3    H131439   1.958   1.460   4.339
10494TIP3    H231440   2.043   1.541   4.244
10495TIP3   OH231441   3.657   2.674   5.918
10495TIP3    H131442   3.611   2.606   5.968
10495TIP3    H231443   3.742   2.683   5.961
10496TIP3   OH231444   7.432   7.817   1.643
10496TIP3    H131445   7.455   7.813   1.736
10496TIP3    H231446   7.392   7.732   1.625
10497TIP3   OH231447   1.599   4.605   3.904
10497TIP3    H131448   1.606   4.686   3.854
10497TIP3    H231449   1.505   4.590   3.913
10498TIP3   OH231450   7.313   7.572   1.587
10498TIP3    H131451   7.257   7.579   1.664
10498TIP3    H231452   7.253   7.557   1.515
10499TIP3   OH231453   5.022   5.156   1.557
10499TIP3    H131454   5.051   5.200   1.638
10499TIP3    H231455   5.102   5.124   1.517
10500TIP3   OH231456   2.839   7.623   5.137
10500TIP3    H131457   2.843   7.706   5.185
10500TIP3    H231458   2.785   7.642   5.060
10501TIP3   OH231459   6.819   4.467   6.206
10501TIP3    H131460   6.891   4.428   6.257
10501TIP3    H231461   6.742   4.417   6.230
10502TIP3   OH231462   4.350   7.191   4.394
10502TIP3    H131463   4.355   7.126   4.464
10502TIP3    H231464   4.256   7.205   4.381
10503TIP3   OH231465   6.789   5.475   4.512
10503TIP3    H131466   6.813   5.568   4.507
10503TIP3    H231467   6.840   5.441   4.585
10504TIP3   OH231468   1.130   1.403   5.753
10504TIP3    H131469   1.197   1.334   5.759
10504TIP3    H231470   1.087   1.402   5.839
10505TIP3   OH231471   1.466   3.132   4.249
10505TIP3    H131472   1.440   3.165   4.335
10505TIP3    H231473   1.482   3.210   4.197
10506TIP3   OH231474   5.461   0.587   3.873
10506TIP3    H131475   5.405   0.535   3.931
10506TIP3    H231476   5.455   0.676   3.906
10507TIP3   OH231477   1.469   2.527   3.027
10507TIP3    H131478   1.519   2.466   2.974
10507TIP3    H231479   1.514   2.529   3.112
10508TIP3   OH231480   0.361   5.120   6.281
10508TIP3    H131481   0.290   5.087   6.335
10508TIP3    H231482   0.441   5.085   6.321
10509TIP3   OH231483   1.432   3.547   5.737
10509TIP3    H131484   1.428   3.598   5.818
10509TIP3    H231485   1.370   3.590   5.678
10510TIP3   OH231486   5.579   3.143   3.517
10510TIP3    H131487   5.577   3.126   3.423
10510TIP3    H231488   5.616   3.064   3.555
10511TIP3   OH231489   5.612   3.498   3.938
10511TIP3    H131490   5.667   3.475   3.862
10511TIP3    H231491   5.551   3.424   3.947
10512TIP3   OH231492   5.291   2.265   1.217
10512TIP3    H131493   5.381   2.249   1.247
10512TIP3    H231494   5.299   2.336   1.153
10513TIP3   OH231495   4.781   0.615   2.406
10513TIP3    H131496   4.704   0.658   2.369
10513TIP3    H231497   4.825   0.576   2.331
10514TIP3   OH231498   2.154   4.670   4.919
10514TIP3    H131499   2.159   4.581   4.954
10514TIP3    H231500   2.168   4.660   4.825
10515TIP3   OH231501   7.996   7.502   5.649
10515TIP3    H131502   8.045   7.448   5.587
10515TIP3    H231503   8.003   7.455   5.732
10516TIP3   OH231504   4.346   1.745   5.977
10516TIP3    H131505   4.293   1.824   5.981
10516TIP3    H231506   4.366   1.724   6.068
10517TIP3   OH231507   2.604   3.832   0.467
10517TIP3    H131508   2.593   3.837   0.372
10517TIP3    H231509   2.666   3.760   0.480
10518TIP3   OH231510   7.751   6.552   6.139
10518TIP3    H131511   7.758   6.494   6.063
10518TIP3    H231512   7.819   6.618   6.124
10519TIP3   OH231513   4.240   5.138   3.172
10519TIP3    H131514   4.334   5.138   3.155
10519TIP3    H231515   4.200   5.126   3.086
10520TIP3   OH231516   0.983   0.306   0.541
10520TIP3    H131517   0.911   0.361   0.572
10520TIP3    H231518   1.012   0.258   0.619
10521TIP3   OH231519   4.168   5.300   2.431
10521TIP3    H131520   4.095   5.238   2.434
10521TIP3    H231521   4.217   5.283   2.511
10522TIP3   OH231522   2.332   7.327   5.713
10522TIP3    H131523   2.278   7.359   5.641
10522TIP3    H231524   2.407   7.286   5.671
10523TIP3   OH231525   7.774   2.522   5.788
10523TIP3    H131526   7.685   2.492   5.807
10523TIP3    H231527   7.830   2.446   5.808
10524TIP3   OH231528   6.751   2.788   4.596
10524TIP3    H131529   6.799   2.787   4.513
10524TIP3    H231530   6.807   2.840   4.655
10525TIP3   OH231531   0.529   4.843   0.306
10525TIP3    H131532   0.576   4.762   0.285
10525TIP3    H231533   0.587   4.888   0.367
10526TIP3   OH231534   4.894   3.771   3.008
10526TIP3    H131535   4.942   3.725   3.078
10526TIP3    H231536   4.962   3.794   2.945
10527TIP3   OH231537   7.925   6.898   4.006
10527TIP3    H131538   7.922   6.811   4.045
10527TIP3    H231539   7.902   6.883   3.914
10528TIP3   OH231540   1.224   0.361   2.447
10528TIP3    H131541   1.290   0.338   2.512
10528TIP3    H231542   1.186   0.278   2.421
10529TIP3   OH231543   6.348   3.453   5.239
10529TIP3    H131544   6.316   3.403   5.164
10529TIP3    H231545   6.378   3.386   5.301
10530TIP3   OH231546   3.031   6.029   1.909
10530TIP3    H131547   2.996   5.971   1.842
10530TIP3    H231548   3.068   6.102   1.860
10531TIP3   OH231549   6.700   5.650   5.493
10531TIP3    H131550   6.710   5.622   5.401
10531TIP3    H231551   6.621   5.703   5.494
10532TIP3   OH231552   0.404   1.776   3.065
10532TIP3    H131553   0.468   1.801   3.131
10532TIP3    H231554   0.401   1.680   3.069
10533TIP3   OH231555   7.858   6.866   3.734
10533TIP3    H131556   7.781   6.818   3.705
10533TIP3    H231557   7.860   6.945   3.679
10534TIP3   OH231558   3.028   1.939   5.661
10534TIP3    H131559   3.048   1.846   5.662
10534TIP3    H231560   2.935   1.944   5.635
10535TIP3   OH231561   1.664   2.963   6.198
10535TIP3    H131562   1.687   2.942   6.107
10535TIP3    H231563   1.631   2.880   6.233
10536TIP3   OH231564   5.498   5.992   0.396
10536TIP3    H131565   5.520   5.912   0.443
10536TIP3    H231566   5.471   6.054   0.464
10537TIP3   OH231567   1.597   1.420   6.554
10537TIP3    H131568   1.581   1.392   6.644
10537TIP3    H231569   1.690   1.440   6.550
10538TIP3   OH231570   3.227   6.465   1.763
10538TIP3    H131571   3.319   6.460   1.787
10538TIP3    H231572   3.223   6.536   1.698
10539TIP3   OH231573   1.756   4.429   5.957
10539TIP3    H131574   1.697   4.470   5.893
10539TIP3    H231575   1.702   4.416   6.034
10540TIP3   OH231576   6.994   7.111   6.625
10540TIP3    H131577   6.977   7.053   6.550
10540TIP3    H231578   6.984   7.199   6.589
10541TIP3   OH231579   2.099   4.593   0.718
10541TIP3    H131580   2.166   4.525   0.716
10541TIP3    H231581   2.082   4.606   0.811
10542TIP3   OH231582   3.182   0.557   5.020
10542TIP3    H131583   3.132   0.499   4.963
10542TIP3    H231584   3.269   0.517   5.026
10543TIP3   OH231585   6.363   5.391   6.209
10543TIP3    H131586   6.406   5.392   6.294
10543TIP3    H231587   6.347   5.483   6.188
10544TIP3   OH231588   0.749   0.051   1.015
10544TIP3    H131589   0.705   0.025   1.096
10544TIP3    H231590   0.772  -0.031   0.972
10545TIP3   OH231591   0.194   4.692   5.130
10545TIP3    H131592   0.232   4.612   5.095
10545TIP3    H231593   0.218   4.760   5.067
10546TIP3   OH231594   6.987   5.850   6.538
10546TIP3    H131595   7.048   5.832   6.610
10546TIP3    H231596   7.039   5.836   6.459
10547TIP3   OH231597   4.966   6.456   4.083
10547TIP3    H131598   5.015   6.421   4.157
10547TIP3    H231599   4.988   6.549   4.081
10548TIP3   OH231600   1.201   7.317   2.715
10548TIP3    H131601   1.122   7.367   2.739
10548TIP3    H231602   1.235   7.284   2.798
10549TIP3   OH231603   3.548   7.252   3.390
10549TIP3    H131604   3.476   7.243   3.453
10549TIP3    H231605   3.626   7.266   3.444
10550TIP3   OH231606   0.968   0.765   6.013
10550TIP3    H131607   1.056   0.728   6.024
10550TIP3    H231608   0.932   0.768   6.102
10551TIP3   OH231609   0.355   1.510   0.993
10551TIP3    H131610   0.426   1.446   0.997
10551TIP3    H231611   0.277   1.461   1.017
10552TIP3   OH231612   3.494   5.036   3.599
10552TIP3    H131613   3.486   5.059   3.692
10552TIP3    H231614   3.556   5.100   3.564
10553TIP3   OH231615   7.225   5.644   5.503
10553TIP3    H131616   7.157   5.652   5.436
10553TIP3    H231617   7.181   5.671   5.585
10554TIP3   OH231618   7.993   7.302   0.337
10554TIP3    H131619   7.933   7.241   0.379
10554TIP3    H231620   7.937   7.371   0.302
10555TIP3   OH231621   0.551   1.491   3.491
10555TIP3    H131622   0.466   1.519   3.457
10555TIP3    H231623   0.534   1.465   3.581
10556TIP3   OH231624   2.870   0.720   5.700
10556TIP3    H131625   2.929   0.668   5.647
10556TIP3    H231626   2.808   0.657   5.737
10557TIP3   OH231627   0.759   0.950   1.761
10557TIP3    H131628   0.768   1.001   1.680
10557TIP3    H231629   0.823   0.880   1.753
10558TIP3   OH231630   4.636   3.645   1.310
10558TIP3    H131631   4.623   3.676   1.220
10558TIP3    H231632   4.721   3.602   1.308
10559TIP3   OH231633   4.823   5.525   1.850
10559TIP3    H131634   4.806   5.431   1.850
10559TIP3    H231635   4.811   5.551   1.942
10560TIP3   OH231636   3.090   2.100   4.324
10560TIP3    H131637   3.011   2.149   4.301
10560TIP3    H231638   3.059   2.011   4.342
10561TIP3   OH231639   4.546   6.580   4.852
10561TIP3    H131640   4.557   6.524   4.929
10561TIP3    H231641   4.460   6.620   4.863
10562TIP3   OH231642   1.971   1.437   5.681
10562TIP3    H131643   1.949   1.400   5.766
10562TIP3    H231644   1.897   1.495   5.660
10563TIP3   OH231645   5.358   2.121   4.965
10563TIP3    H131646   5.343   2.194   4.905
10563TIP3    H231647   5.448   2.134   4.996
10564TIP3   OH231648   6.149   0.604   2.508
10564TIP3    H131649   6.207   0.625   2.582
10564TIP3    H231650   6.185   0.653   2.434
10565TIP3   OH231651   2.483   5.857   4.240
10565TIP3    H131652   2.549   5.869   4.309
10565TIP3    H231653   2.422   5.929   4.252
10566TIP3   OH231654   4.309   5.463   1.571
10566TIP3    H131655   4.218   5.434   1.568
10566TIP3    H231656   4.309   5.534   1.636
10567TIP3   OH231657   2.177   3.787   3.646
10567TIP3    H131658   2.197   3.881   3.649
10567TIP3    H231659   2.130   3.770   3.727
10568TIP3   OH231660   4.799   0.945   3.912
10568TIP3    H131661   4.838   0.860   3.893
10568TIP3    H231662   4.730   0.926   3.977
10569TIP3   OH231663   2.030   2.529   2.048
10569TIP3    H131664   2.053   2.601   2.107
10569TIP3    H231665   2.109   2.476   2.042
10570TIP3   OH231666   3.282   4.016   1.316
10570TIP3    H131667   3.235   4.076   1.373
10570TIP3    H231668   3.227   4.010   1.237
10571TIP3   OH231669   2.054   6.904   1.794
10571TIP3    H131670   2.126   6.946   1.841
10571TIP3    H231671   2.094   6.871   1.714
10572TIP3   OH231672   1.632   0.044   4.167
10572TIP3    H131673   1.579   0.081   4.238
10572TIP3    H231674   1.721   0.074   4.184
10573TIP3   OH231675   7.205   4.474   5.165
10573TIP3    H131676   7.184   4.384   5.139
10573TIP3    H231677   7.301   4.476   5.165
10574TIP3   OH231678   5.044   1.890   0.340
10574TIP3    H131679   5.062   1.931   0.425
10574TIP3    H231680   4.989   1.953   0.294
10575TIP3   OH231681   2.981   7.478   3.773
10575TIP3    H131682   3.067   7.470   3.731
10575TIP3    H231683   2.986   7.420   3.849
10576TIP3   OH231684   0.498   2.388   0.147
10576TIP3    H131685   0.534   2.424   0.228
10576TIP3    H231686   0.441   2.457   0.113
10577TIP3   OH231687   3.496   0.273   2.088
10577TIP3    H131688   3.457   0.359   2.107
10577TIP3    H231689   3.585   0.278   2.124
10578TIP3   OH231690   8.196   5.997   4.895
10578TIP3    H131691   8.290   6.014   4.896
10578TIP3    H231692   8.183   5.931   4.963
10579TIP3   OH231693   6.234   5.280   3.186
10579TIP3    H131694   6.141   5.261   3.171
10579TIP3    H231695   6.265   5.316   3.103
10580TIP3   OH231696   5.750   5.203   5.926
10580TIP3    H131697   5.763   5.292   5.892
10580TIP3    H231698   5.681   5.214   5.992
10581TIP3   OH231699   6.044   2.748   6.755
10581TIP3    H131700   5.960   2.779   6.790
10581TIP3    H231701   6.105   2.819   6.774
10582TIP3   OH231702   5.788   0.695   0.452
10582TIP3    H131703   5.804   0.785   0.480
10582TIP3    H231704   5.830   0.641   0.520
10583TIP3   OH231705   3.837   6.919   2.020
10583TIP3    H131706   3.792   6.846   2.063
10583TIP3    H231707   3.914   6.936   2.075
10584TIP3   OH231708   0.982   3.691   3.564
10584TIP3    H131709   1.018   3.665   3.649
10584TIP3    H231710   0.900   3.642   3.556
10585TIP3   OH231711   6.407   3.085   5.650
10585TIP3    H131712   6.493   3.058   5.616
10585TIP3    H231713   6.422   3.173   5.683
10586TIP3   OH231714   2.437   2.189   2.602
10586TIP3    H131715   2.516   2.137   2.617
10586TIP3    H231716   2.440   2.258   2.668
10587TIP3   OH231717   6.312   3.726   2.064
10587TIP3    H131718   6.344   3.657   2.007
10587TIP3    H231719   6.384   3.744   2.124
10588TIP3   OH231720   0.419   1.883   5.997
10588TIP3    H131721   0.490   1.921   6.049
10588TIP3    H231722   0.352   1.858   6.061
10589TIP3   OH231723   2.896   2.735   3.302
10589TIP3    H131724   2.943   2.658   3.336
10589TIP3    H231725   2.804   2.714   3.315
10590TIP3   OH231726   5.022   1.618   6.179
10590TIP3    H131727   5.018   1.685   6.247
10590TIP3    H231728   4.982   1.541   6.220
10591TIP3   OH231729   0.315   1.897   4.322
10591TIP3    H131730   0.356   1.979   4.293
10591TIP3    H231731   0.373   1.865   4.391
10592TIP3   OH231732   3.529   7.578   4.359
10592TIP3    H131733   3.564   7.648   4.413
10592TIP3    H231734   3.459   7.540   4.412
10593TIP3   OH231735   0.369   5.250   5.349
10593TIP3    H131736   0.440   5.260   5.412
10593TIP3    H231737   0.310   5.324   5.368
10594TIP3   OH231738   6.848   2.544   2.488
10594TIP3    H131739   6.933   2.530   2.529
10594TIP3    H231740   6.787   2.555   2.562
10595TIP3   OH231741   2.817   6.013   2.713
10595TIP3    H131742   2.830   5.923   2.742
10595TIP3    H231743   2.905   6.046   2.697
10596TIP3   OH231744   0.031   2.788   3.777
10596TIP3    H131745   0.080   2.710   3.802
10596TIP3    H231746   0.065   2.813   3.691
10597TIP3   OH231747   0.149   7.528   3.204
10597TIP3    H131748   0.186   7.449   3.165
10597TIP3    H231749   0.139   7.589   3.131
10598TIP3   OH231750   0.737   0.829   0.999
10598TIP3    H131751   0.666   0.879   1.038
10598TIP3    H231752   0.721   0.833   0.905
10599TIP3   OH231753   0.448   2.208   1.912
10599TIP3    H131754   0.453   2.268   1.838
10599TIP3    H231755   0.362   2.166   1.903
10600TIP3   OH231756   0.768   4.495   3.354
10600TIP3    H131757   0.726   4.519   3.436
10600TIP3    H231758   0.858   4.528   3.363
10601TIP3   OH231759   2.674   2.091   4.013
10601TIP3    H131760   2.684   2.185   3.999
10601TIP3    H231761   2.635   2.083   4.100
10602TIP3   OH231762   0.807   4.451   0.192
10602TIP3    H131763   0.784   4.508   0.266
10602TIP3    H231764   0.799   4.362   0.226
10603TIP3   OH231765   1.723   4.835   0.743
10603TIP3    H131766   1.636   4.820   0.708
10603TIP3    H231767   1.714   4.915   0.796
10604TIP3   OH231768   7.557   6.691   0.949
10604TIP3    H131769   7.624   6.735   0.896
10604TIP3    H231770   7.542   6.608   0.903
10605TIP3   OH231771   1.752   5.240   3.712
10605TIP3    H131772   1.732   5.316   3.767
10605TIP3    H231773   1.740   5.272   3.622
10606TIP3   OH231774   1.462   5.350   4.000
10606TIP3    H131775   1.493   5.349   4.091
10606TIP3    H231776   1.469   5.259   3.971
10607TIP3   OH231777   3.710   3.822   5.864
10607TIP3    H131778   3.638   3.760   5.857
10607TIP3    H231779   3.687   3.879   5.938
10608TIP3   OH231780   2.610   6.336   3.088
10608TIP3    H131781   2.631   6.329   3.182
10608TIP3    H231782   2.695   6.335   3.045
10609TIP3   OH231783   6.001   3.329   2.634
10609TIP3    H131784   6.027   3.258   2.693
10609TIP3    H231785   6.072   3.393   2.640
10610TIP3   OH231786   5.350   3.723   4.442
10610TIP3    H131787   5.435   3.741   4.402
10610TIP3    H231788   5.321   3.808   4.476
10611TIP3   OH231789   4.986   2.645   0.635
10611TIP3    H131790   5.065   2.641   0.581
10611TIP3    H231791   4.957   2.554   0.641
10612TIP3   OH231792   4.865   2.046   2.797
10612TIP3    H131793   4.826   1.999   2.724
10612TIP3    H231794   4.810   2.022   2.872
10613TIP3   OH231795   3.737   4.350   1.227
10613TIP3    H131796   3.724   4.426   1.283
10613TIP3    H231797   3.755   4.278   1.288
10614TIP3   OH231798   4.994   5.644   0.103
10614TIP3    H131799   5.026   5.563   0.063
10614TIP3    H231800   5.016   5.713   0.040
10615TIP3   OH231801   4.987   1.135   1.313
10615TIP3    H131802   5.072   1.091   1.321
10615TIP3    H231803   4.960   1.151   1.403
10616TIP3   OH231804   6.691   4.835   2.073
10616TIP3    H131805   6.653   4.917   2.041
10616TIP3    H231806   6.624   4.769   2.055
10617TIP3   OH231807   3.834   4.261   3.127
10617TIP3    H131808   3.876   4.175   3.117
10617TIP3    H231809   3.776   4.250   3.202
10618TIP3   OH231810   5.373   3.935   2.596
10618TIP3    H131811   5.281   3.935   2.570
10618TIP3    H231812   5.420   3.897   2.522
10619TIP3   OH231813   5.789   7.489   6.175
10619TIP3    H131814   5.706   7.533   6.157
10619TIP3    H231815   5.779   7.454   6.264
10620TIP3   OH231816   6.270   5.329   1.240
10620TIP3    H131817   6.292   5.408   1.192
10620TIP3    H231818   6.322   5.334   1.320
10621TIP3   OH231819   6.967   4.508   3.456
10621TIP3    H131820   6.907   4.540   3.524
10621TIP3    H231821   7.028   4.581   3.443
10622TIP3   OH231822   1.944   5.303   2.429
10622TIP3    H131823   1.900   5.228   2.469
10622TIP3    H231824   2.037   5.278   2.428
10623TIP3   OH231825   2.562   2.844   0.554
10623TIP3    H131826   2.527   2.811   0.636
10623TIP3    H231827   2.485   2.864   0.501
10624TIP3   OH231828   2.614   2.680   4.274
10624TIP3    H131829   2.533   2.688   4.324
10624TIP3    H231830   2.652   2.768   4.275
10625TIP3   OH231831   2.267   4.457   4.766
10625TIP3    H131832   2.213   4.407   4.706
10625TIP3    H231833   2.280   4.541   4.722
10626TIP3   OH231834   8.141   2.290   0.971
10626TIP3    H131835   8.223   2.241   0.979
10626TIP3    H231836   8.165   2.380   0.994
10627TIP3   OH231837   6.226   0.236   5.894
10627TIP3    H131838   6.232   0.316   5.842
10627TIP3    H231839   6.306   0.187   5.873
10628TIP3   OH231840   3.199   4.793   0.272
10628TIP3    H131841   3.245   4.790   0.357
10628TIP3    H231842   3.251   4.735   0.216
10629TIP3   OH231843   1.150   5.373   5.305
10629TIP3    H131844   1.172   5.417   5.386
10629TIP3    H231845   1.233   5.362   5.259
10630TIP3   OH231846   8.235   5.329   5.459
10630TIP3    H131847   8.217   5.278   5.538
10630TIP3    H231848   8.153   5.373   5.439
10631TIP3   OH231849   6.845   3.113   3.755
10631TIP3    H131850   6.842   3.017   3.753
10631TIP3    H231851   6.753   3.139   3.765
10632TIP3   OH231852   4.022   4.366   1.183
10632TIP3    H131853   3.930   4.374   1.157
10632TIP3    H231854   4.020   4.349   1.277
10633TIP3   OH231855   0.922   4.653   4.058
10633TIP3    H131856   0.847   4.711   4.059
10633TIP3    H231857   0.996   4.709   4.081
10634TIP3   OH231858   3.056   3.911   3.441
10634TIP3    H131859   3.128   3.922   3.503
10634TIP3    H231860   3.010   3.994   3.443
10635TIP3   OH231861   0.559   5.916   3.130
10635TIP3    H131862   0.637   5.963   3.161
10635TIP3    H231863   0.571   5.827   3.162
10636TIP3   OH231864   0.974   7.762   4.779
10636TIP3    H131865   1.059   7.718   4.788
10636TIP3    H231866   0.920   7.700   4.731
10637TIP3   OH231867   7.881   1.031   5.460
10637TIP3    H131868   7.917   0.959   5.511
10637TIP3    H231869   7.883   1.000   5.369
10638TIP3   OH231870   7.280   2.063   5.892
10638TIP3    H131871   7.207   2.123   5.903
10638TIP3    H231872   7.296   2.027   5.979
10639TIP3   OH231873   6.811   7.594   2.350
10639TIP3    H131874   6.726   7.549   2.358
10639TIP3    H231875   6.796   7.661   2.282
10640TIP3   OH231876   8.090   2.980   0.260
10640TIP3    H131877   8.130   2.903   0.301
10640TIP3    H231878   8.159   3.047   0.264
10641TIP3   OH231879   2.847   6.900   4.456
10641TIP3    H131880   2.934   6.896   4.496
10641TIP3    H231881   2.795   6.837   4.505
10642TIP3   OH231882   6.606   1.003   0.612
10642TIP3    H131883   6.668   1.043   0.552
10642TIP3    H231884   6.521   1.039   0.587
10643TIP3   OH231885   0.635   3.267   0.444
10643TIP3    H131886   0.712   3.271   0.500
10643TIP3    H231887   0.669   3.255   0.355
10644TIP3   OH231888   3.390   0.492   4.644
10644TIP3    H131889   3.358   0.416   4.692
10644TIP3    H231890   3.325   0.505   4.574
10645TIP3   OH231891   6.339   2.372   6.743
10645TIP3    H131892   6.391   2.343   6.668
10645TIP3    H231893   6.402   2.378   6.814
10646TIP3   OH231894   8.096   1.688   3.381
10646TIP3    H131895   8.077   1.774   3.343
10646TIP3    H231896   8.077   1.698   3.474
10647TIP3   OH231897   8.147   1.030   3.589
10647TIP3    H131898   8.100   0.988   3.661
10647TIP3    H231899   8.230   1.059   3.629
10648TIP3   OH231900   6.904   4.715   2.314
10648TIP3    H131901   6.913   4.804   2.281
10648TIP3    H231902   6.990   4.694   2.350
10649TIP3   OH231903   2.368   2.427  -0.009
10649TIP3    H131904   2.324   2.507   0.020
10649TIP3    H231905   2.305   2.357   0.010
10650TIP3   OH231906   1.821   4.456   0.726
10650TIP3    H131907   1.810   4.372   0.771
10650TIP3    H231908   1.770   4.518   0.778
10651TIP3   OH231909   6.010   3.893   5.225
10651TIP3    H131910   6.073   3.870   5.293
10651TIP3    H231911   6.031   3.984   5.203
10652TIP3   OH231912   8.202   5.713   3.567
10652TIP3    H131913   8.222   5.772   3.494
10652TIP3    H231914   8.189   5.628   3.526
10653TIP3   OH231915   6.333   4.617   1.520
10653TIP3    H131916   6.373   4.559   1.585
10653TIP3    H231917   6.266   4.563   1.478
10654TIP3   OH231918   4.244   3.989   6.697
10654TIP3    H131919   4.162   4.029   6.670
10654TIP3    H231920   4.272   4.040   6.773
10655TIP3   OH231921   2.674   7.684   4.940
10655TIP3    H131922   2.586   7.720   4.929
10655TIP3    H231923   2.706   7.671   4.851
10656TIP3   OH231924   6.527   3.625   4.856
10656TIP3    H131925   6.433   3.608   4.854
10656TIP3    H231926   6.554   3.618   4.765
10657TIP3   OH231927   7.398   3.140   0.965
10657TIP3    H131928   7.379   3.234   0.971
10657TIP3    H231929   7.383   3.119   0.873
10658TIP3   OH231930   6.440   1.100   5.516
10658TIP3    H131931   6.501   1.171   5.534
10658TIP3    H231932   6.401   1.079   5.602
10659TIP3   OH231933   2.843   7.187   2.895
10659TIP3    H131934   2.879   7.241   2.965
10659TIP3    H231935   2.816   7.249   2.828
10660TIP3   OH231936   5.277   3.925   2.034
10660TIP3    H131937   5.209   3.963   2.091
10660TIP3    H231938   5.277   3.980   1.956
10661TIP3   OH231939   6.586   2.711   2.004
10661TIP3    H131940   6.626   2.776   1.946
10661TIP3    H231941   6.562   2.761   2.082
10662TIP3   OH231942   3.844   5.476   0.012
10662TIP3    H131943   3.754   5.501   0.029
10662TIP3    H231944   3.896   5.527   0.075
10663TIP3   OH231945   5.006   0.737   4.870
10663TIP3    H131946   4.914   0.712   4.865
10663TIP3    H231947   5.010   0.804   4.938
10664TIP3   OH231948   1.725   2.330   2.133
10664TIP3    H131949   1.813   2.292   2.124
10664TIP3    H231950   1.666   2.255   2.130
10665TIP3   OH231951   5.260   2.829   5.704
10665TIP3    H131952   5.270   2.823   5.609
10665TIP3    H231953   5.186   2.889   5.717
10666TIP3   OH231954   4.478   4.393   0.746
10666TIP3    H131955   4.517   4.389   0.659
10666TIP3    H231956   4.427   4.313   0.753
10667TIP3   OH231957   5.768   4.836   0.108
10667TIP3    H131958   5.735   4.856   0.020
10667TIP3    H231959   5.737   4.747   0.125
10668TIP3   OH231960   3.369   2.296   3.473
10668TIP3    H131961   3.281   2.300   3.435
10668TIP3    H231962   3.399   2.387   3.474
10669TIP3   OH231963   3.829   3.489   2.957
10669TIP3    H131964   3.786   3.567   2.922
10669TIP3    H231965   3.758   3.437   2.995
10670TIP3   OH231966   2.069   1.076   0.029
10670TIP3    H131967   2.009   1.129   0.081
10670TIP3    H231968   2.148   1.130   0.021
10671TIP3   OH231969   6.863   1.465   5.447
10671TIP3    H131970   6.953   1.483   5.421
10671TIP3    H231971   6.864   1.476   5.542
10672TIP3   OH231972   6.713   4.221   1.955
10672TIP3    H131973   6.722   4.161   1.882
10672TIP3    H231974   6.622   4.250   1.951
10673TIP3   OH231975   4.803   5.976   5.224
10673TIP3    H131976   4.892   5.974   5.190
10673TIP3    H231977   4.802   6.053   5.282
10674TIP3   OH231978   1.845   0.561   1.734
10674TIP3    H131979   1.897   0.535   1.810
10674TIP3    H231980   1.848   0.485   1.676
10675TIP3   OH231981   2.632   1.499   0.077
10675TIP3    H131982   2.553   1.489   0.130
10675TIP3    H231983   2.695   1.540   0.136
10676TIP3   OH231984   0.065   4.018   1.337
10676TIP3    H131985   0.011   3.988   1.410
10676TIP3    H231986   0.042   3.960   1.265
10677TIP3   OH231987   1.554   0.585   2.370
10677TIP3    H131988   1.564   0.651   2.301
10677TIP3    H231989   1.510   0.511   2.327
10678TIP3   OH231990   6.157   2.410   5.142
10678TIP3    H131991   6.133   2.399   5.050
10678TIP3    H231992   6.201   2.329   5.165
10679TIP3   OH231993   2.403   3.143   6.145
10679TIP3    H131994   2.351   3.065   6.166
10679TIP3    H231995   2.339   3.212   6.131
10680TIP3   OH231996   3.809   1.871   5.472
10680TIP3    H131997   3.898   1.893   5.500
10680TIP3    H231998   3.775   1.952   5.434
10681TIP3   OH231999   4.160   3.047   0.086
10681TIP3    H132000   4.130   2.985   0.020
10681TIP3    H232001   4.175   3.128   0.039
10682TIP3   OH232002   1.455   3.869   1.290
10682TIP3    H132003   1.499   3.944   1.250
10682TIP3    H232004   1.512   3.794   1.269
10683TIP3   OH232005   7.543   1.391   3.282
10683TIP3    H132006   7.595   1.459   3.326
10683TIP3    H232007   7.576   1.309   3.319
10684TIP3   OH232008   1.429   6.725   0.744
10684TIP3    H132009   1.504   6.762   0.697
10684TIP3    H232010   1.367   6.701   0.674
10685TIP3   OH232011   0.132   6.643   5.255
10685TIP3    H132012   0.145   6.737   5.239
10685TIP3    H232013   0.216   6.603   5.233
10686TIP3   OH232014   0.678   1.614   3.251
10686TIP3    H132015   0.641   1.702   3.253
10686TIP3    H232016   0.640   1.570   3.327
10687TIP3   OH232017   6.685   4.707   5.387
10687TIP3    H132018   6.739   4.636   5.420
10687TIP3    H232019   6.729   4.736   5.306
10688TIP3   OH232020   0.818   7.723   1.448
10688TIP3    H132021   0.814   7.818   1.460
10688TIP3    H232022   0.909   7.700   1.467
10689TIP3   OH232023   5.083   0.139   4.664
10689TIP3    H132024   5.025   0.163   4.736
10689TIP3    H232025   5.094   0.221   4.615
10690TIP3   OH232026   4.183   5.692   4.779
10690TIP3    H132027   4.200   5.743   4.700
10690TIP3    H232028   4.219   5.605   4.760
10691TIP3   OH232029   6.681   6.219   5.446
10691TIP3    H132030   6.608   6.235   5.504
10691TIP3    H232031   6.641   6.190   5.364
10692TIP3   OH232032   5.002   1.285  -0.008
10692TIP3    H132033   5.037   1.321   0.074
10692TIP3    H232034   4.978   1.195   0.013
10693TIP3   OH232035   1.327   5.114   5.234
10693TIP3    H132036   1.260   5.057   5.197
10693TIP3    H232037   1.391   5.126   5.164
10694TIP3   OH232038   1.587   6.844   5.490
10694TIP3    H132039   1.568   6.751   5.480
10694TIP3    H232040   1.529   6.873   5.560
10695TIP3   OH232041   3.960   7.727   4.306
10695TIP3    H132042   3.896   7.723   4.235
10695TIP3    H232043   4.037   7.767   4.266
10696TIP3   OH232044   7.866   7.257   4.774
10696TIP3    H132045   7.957   7.241   4.798
10696TIP3    H232046   7.860   7.351   4.762
10697TIP3   OH232047   4.741   7.511   5.906
10697TIP3    H132048   4.764   7.426   5.867
10697TIP3    H232049   4.778   7.576   5.846
10698TIP3   OH232050   3.538   7.392   0.035
10698TIP3    H132051   3.510   7.445   0.110
10698TIP3    H232052   3.511   7.442  -0.041
10699TIP3   OH232053   8.090   5.165   5.286
10699TIP3    H132054   8.131   5.243   5.322
10699TIP3    H232055   8.005   5.159   5.331
10700TIP3   OH232056   3.153   7.471   6.048
10700TIP3    H132057   3.181   7.495   6.137
10700TIP3    H232058   3.060   7.450   6.057
10701TIP3   OH232059   3.866   4.345   3.912
10701TIP3    H132060   3.841   4.413   3.973
10701TIP3    H232061   3.896   4.392   3.834
10702TIP3   OH232062   1.006   1.892   5.042
10702TIP3    H132063   0.980   1.880   4.951
10702TIP3    H232064   1.037   1.982   5.047
10703TIP3   OH232065   0.029   0.794   2.535
10703TIP3    H132066  -0.046   0.741   2.508
10703TIP3    H232067   0.024   0.873   2.481
10704TIP3   OH232068   2.168   2.387   1.546
10704TIP3    H132069   2.117   2.307   1.561
10704TIP3    H232070   2.179   2.391   1.451
10705TIP3   OH232071   7.706   2.551   1.619
10705TIP3    H132072   7.747   2.582   1.700
10705TIP3    H232073   7.769   2.573   1.550
10706TIP3   OH232074   2.092   1.896   0.557
10706TIP3    H132075   2.078   1.803   0.536
10706TIP3    H232076   2.127   1.895   0.646
10707TIP3   OH232077   0.810   3.271   5.716
10707TIP3    H132078   0.905   3.272   5.727
10707TIP3    H232079   0.791   3.183   5.683
10708TIP3   OH232080   4.288   4.192   1.901
10708TIP3    H132081   4.322   4.122   1.956
10708TIP3    H232082   4.267   4.262   1.962
10709TIP3   OH232083   4.116   3.927   1.133
10709TIP3    H132084   4.042   3.970   1.176
10709TIP3    H232085   4.100   3.834   1.146
10710TIP3   OH232086   1.075   7.224   6.116
10710TIP3    H132087   1.105   7.162   6.182
10710TIP3    H232088   1.060   7.171   6.038
10711TIP3   OH232089   4.911   3.930   4.396
10711TIP3    H132090   4.974   3.896   4.333
10711TIP3    H232091   4.959   3.997   4.445
10712TIP3   OH232092   7.824   0.209   1.322
10712TIP3    H132093   7.783   0.289   1.356
10712TIP3    H232094   7.904   0.199   1.374
10713TIP3   OH232095   5.874   3.246   4.762
10713TIP3    H132096   5.814   3.254   4.688
10713TIP3    H232097   5.953   3.291   4.734
10714TIP3   OH232098   0.929   7.257   5.398
10714TIP3    H132099   0.962   7.175   5.436
10714TIP3    H232100   0.965   7.325   5.453
10715TIP3   OH232101   6.425   3.436   4.028
10715TIP3    H132102   6.461   3.501   3.968
10715TIP3    H232103   6.498   3.378   4.047
10716TIP3   OH232104   4.902   1.225   1.915
10716TIP3    H132105   4.907   1.261   2.004
10716TIP3    H232106   4.957   1.147   1.918
10717TIP3   OH232107   3.306   3.158   5.978
10717TIP3    H132108   3.279   3.246   5.952
10717TIP3    H232109   3.291   3.104   5.900
10718TIP3   OH232110   0.141   5.083   2.912
10718TIP3    H132111   0.047   5.100   2.901
10718TIP3    H232112   0.164   5.027   2.838
10719TIP3   OH232113   1.761   2.311   4.272
10719TIP3    H132114   1.737   2.329   4.181
10719TIP3    H232115   1.852   2.280   4.267
10720TIP3   OH232116   7.727   5.856   1.555
10720TIP3    H132117   7.718   5.899   1.640
10720TIP3    H232118   7.638   5.826   1.534
10721TIP3   OH232119   3.944   5.465   4.690
10721TIP3    H132120   3.927   5.550   4.730
10721TIP3    H232121   3.957   5.485   4.597
10722TIP3   OH232122   8.144   4.372   6.153
10722TIP3    H132123   8.093   4.432   6.099
10722TIP3    H232124   8.209   4.335   6.094
10723TIP3   OH232125   7.825   3.646   2.547
10723TIP3    H132126   7.743   3.649   2.595
10723TIP3    H232127   7.806   3.691   2.464
10724TIP3   OH232128   1.683   0.201   4.567
10724TIP3    H132129   1.716   0.150   4.493
10724TIP3    H232130   1.624   0.142   4.613
10725TIP3   OH232131   1.292   2.917   0.353
10725TIP3    H132132   1.231   2.899   0.281
10725TIP3    H232133   1.251   2.987   0.403
10726TIP3   OH232134   1.913   4.515   5.151
10726TIP3    H132135   1.938   4.462   5.076
10726TIP3    H232136   1.985   4.505   5.213
10727TIP3   OH232137   0.552   0.550   4.121
10727TIP3    H132138   0.493   0.586   4.188
10727TIP3    H232139   0.571   0.625   4.064
10728TIP3   OH232140   3.763   7.435   6.565
10728TIP3    H132141   3.711   7.445   6.645
10728TIP3    H232142   3.845   7.397   6.595
10729TIP3   OH232143   2.651   2.384   0.372
10729TIP3    H132144   2.570   2.403   0.419
10729TIP3    H232145   2.700   2.327   0.431
10730TIP3   OH232146   1.494   1.493   1.642
10730TIP3    H132147   1.539   1.571   1.608
10730TIP3    H232148   1.465   1.518   1.729
10731TIP3   OH232149   6.568   5.275   6.045
10731TIP3    H132150   6.488   5.312   6.083
10731TIP3    H232151   6.595   5.339   5.979
10732TIP3   OH232152   1.117   0.726   2.629
10732TIP3    H132153   1.208   0.754   2.640
10732TIP3    H232154   1.091   0.692   2.715
10733TIP3   OH232155   7.956   7.364   3.776
10733TIP3    H132156   8.035   7.390   3.824
10733TIP3    H232157   7.898   7.441   3.781
10734TIP3   OH232158   3.698   0.688   2.013
10734TIP3    H132159   3.695   0.592   2.015
10734TIP3    H232160   3.629   0.713   1.951
10735TIP3   OH232161   7.899   6.216   6.124
10735TIP3    H132162   7.884   6.275   6.049
10735TIP3    H232163   7.840   6.142   6.108
10736TIP3   OH232164   3.552   1.363   5.059
10736TIP3    H132165   3.611   1.388   4.988
10736TIP3    H232166   3.580   1.275   5.084
10737TIP3   OH232167   4.728   6.217   4.967
10737TIP3    H132168   4.668   6.283   4.932
10737TIP3    H232169   4.674   6.165   5.027
10738TIP3   OH232170   6.387   4.605   6.549
10738TIP3    H132171   6.442   4.643   6.617
10738TIP3    H232172   6.321   4.673   6.532
10739TIP3   OH232173   1.442   4.155   6.417
10739TIP3    H132174   1.417   4.071   6.380
10739TIP3    H232175   1.408   4.152   6.507
10740TIP3   OH232176   6.108   6.989   5.555
10740TIP3    H132177   6.199   6.968   5.536
10740TIP3    H232178   6.087   6.936   5.632
10741TIP3   OH232179   2.076   7.604   4.461
10741TIP3    H132180   2.162   7.644   4.474
10741TIP3    H232181   2.021   7.675   4.427
10742TIP3   OH232182   3.610   7.816   5.934
10742TIP3    H132183   3.682   7.819   5.997
10742TIP3    H232184   3.531   7.822   5.987
10743TIP3   OH232185   1.420   5.179   0.445
10743TIP3    H132186   1.496   5.130   0.475
10743TIP3    H232187   1.351   5.156   0.508
10744TIP3   OH232188   1.158   2.403   6.164
10744TIP3    H132189   1.154   2.497   6.144
10744TIP3    H232190   1.068   2.380   6.189
10745TIP3   OH232191   2.038   0.485   4.430
10745TIP3    H132192   2.020   0.491   4.524
10745TIP3    H232193   1.956   0.511   4.388
10746TIP3   OH232194   1.339   2.046   6.534
10746TIP3    H132195   1.333   2.068   6.627
10746TIP3    H232196   1.264   2.090   6.494
10747TIP3   OH232197   8.035   1.937   1.593
10747TIP3    H132198   7.959   1.991   1.571
10747TIP3    H232199   8.065   1.971   1.678
10748TIP3   OH232200   3.280   6.454   1.483
10748TIP3    H132201   3.339   6.401   1.429
10748TIP3    H232202   3.309   6.544   1.469
10749TIP3   OH232203   5.958   2.759   5.313
10749TIP3    H132204   5.982   2.746   5.222
10749TIP3    H232205   5.907   2.840   5.314
10750TIP3   OH232206   2.515   3.214   3.385
10750TIP3    H132207   2.458   3.145   3.419
10750TIP3    H232208   2.603   3.176   3.386
10751TIP3   OH232209   3.143   1.992   0.476
10751TIP3    H132210   3.113   1.917   0.527
10751TIP3    H232211   3.162   1.956   0.389
10752TIP3   OH232212   5.213   7.605   0.840
10752TIP3    H132213   5.143   7.541   0.824
10752TIP3    H232214   5.289   7.567   0.797
10753TIP3   OH232215   0.428   6.909   2.588
10753TIP3    H132216   0.467   6.885   2.672
10753TIP3    H232217   0.465   6.995   2.568
10754TIP3   OH232218   0.843   5.738   3.061
10754TIP3    H132219   0.767   5.686   3.087
10754TIP3    H232220   0.826   5.760   2.969
10755TIP3   OH232221   6.344   7.593   0.106
10755TIP3    H132222   6.435   7.603   0.135
10755TIP3    H232223   6.302   7.675   0.130
10756TIP3   OH232224   5.831   2.812   4.691
10756TIP3    H132225   5.926   2.809   4.703
10756TIP3    H232226   5.806   2.722   4.672
10757TIP3   OH232227   2.831   0.475   1.854
10757TIP3    H132228   2.810   0.525   1.775
10757TIP3    H232229   2.850   0.387   1.822
10758TIP3   OH232230   5.350   6.899   0.441
10758TIP3    H132231   5.379   6.809   0.454
10758TIP3    H232232   5.311   6.900   0.354
10759TIP3   OH232233   7.421   5.043   6.189
10759TIP3    H132234   7.424   5.124   6.239
10759TIP3    H232235   7.352   4.991   6.231
10760TIP3   OH232236   6.816   4.794   5.855
10760TIP3    H132237   6.839   4.757   5.940
10760TIP3    H232238   6.900   4.817   5.816
10761TIP3   OH232239   2.993   7.539   4.786
10761TIP3    H132240   2.905   7.556   4.752
10761TIP3    H232241   3.001   7.597   4.862
10762TIP3   OH232242   3.280   6.069   4.253
10762TIP3    H132243   3.207   6.092   4.196
10762TIP3    H232244   3.323   5.996   4.209
10763TIP3   OH232245   4.766   5.699   6.029
10763TIP3    H132246   4.686   5.648   6.034
10763TIP3    H232247   4.767   5.751   6.110
10764TIP3   OH232248   2.788   1.138   5.301
10764TIP3    H132249   2.740   1.056   5.287
10764TIP3    H232250   2.836   1.124   5.383
10765TIP3   OH232251   5.370   4.359   2.467
10765TIP3    H132252   5.454   4.386   2.429
10765TIP3    H232253   5.312   4.347   2.392
10766TIP3   OH232254   7.817   2.283   1.544
10766TIP3    H132255   7.883   2.309   1.608
10766TIP3    H232256   7.737   2.326   1.574
10767TIP3   OH232257   4.452   7.258   0.600
10767TIP3    H132258   4.505   7.226   0.527
10767TIP3    H232259   4.513   7.309   0.654
10768TIP3   OH232260   2.646   5.001   0.159
10768TIP3    H132261   2.662   4.913   0.192
10768TIP3    H232262   2.576   5.034   0.215
10769TIP3   OH232263   2.437   1.491   0.289
10769TIP3    H132264   2.469   1.401   0.295
10769TIP3    H232265   2.371   1.499   0.358
10770TIP3   OH232266   0.959   6.546   3.535
10770TIP3    H132267   0.865   6.546   3.554
10770TIP3    H232268   0.996   6.484   3.597
10771TIP3   OH232269   1.124   1.876   5.313
10771TIP3    H132270   1.128   1.969   5.335
10771TIP3    H232271   1.134   1.873   5.218
10772TIP3   OH232272   5.763   7.234   2.192
10772TIP3    H132273   5.763   7.325   2.220
10772TIP3    H232274   5.781   7.237   2.098
10773TIP3   OH232275   1.013   7.021   5.520
10773TIP3    H132276   1.000   6.957   5.450
10773TIP3    H232277   1.085   6.986   5.572
10774TIP3   OH232278   4.720   3.438   1.944
10774TIP3    H132279   4.654   3.391   1.994
10774TIP3    H232280   4.705   3.531   1.964
10775TIP3   OH232281   1.860   6.474   4.340
10775TIP3    H132282   1.860   6.379   4.331
10775TIP3    H232283   1.811   6.506   4.265
10776TIP3   OH232284   3.171   0.193   2.715
10776TIP3    H132285   3.259   0.153   2.716
10776TIP3    H232286   3.111   0.118   2.717
10777TIP3   OH232287   7.741   4.192   2.068
10777TIP3    H132288   7.677   4.262   2.054
10777TIP3    H232289   7.749   4.185   2.163
10778TIP3   OH232290   0.961   4.002   0.325
10778TIP3    H132291   0.898   3.931   0.337
10778TIP3    H232292   1.045   3.958   0.311
10779TIP3   OH232293   6.923   2.676   1.469
10779TIP3    H132294   6.854   2.742   1.479
10779TIP3    H232295   6.932   2.637   1.556
10780TIP3   OH232296   1.246   6.698   5.349
10780TIP3    H132297   1.188   6.686   5.425
10780TIP3    H232298   1.282   6.611   5.333
10781TIP3   OH232299   0.647   7.664   1.786
10781TIP3    H132300   0.662   7.750   1.827
10781TIP3    H232301   0.674   7.677   1.695
10782TIP3   OH232302   5.780   4.691   4.004
10782TIP3    H132303   5.790   4.613   4.059
10782TIP3    H232304   5.825   4.760   4.053
10783TIP3   OH232305   5.411   7.751   3.361
10783TIP3    H132306   5.415   7.724   3.270
10783TIP3    H232307   5.317   7.762   3.379
10784TIP3   OH232308   5.565   7.076   6.449
10784TIP3    H132309   5.646   7.053   6.404
10784TIP3    H232310   5.535   7.155   6.405
10785TIP3   OH232311   2.316   5.072   6.165
10785TIP3    H132312   2.313   5.137   6.095
10785TIP3    H232313   2.383   5.009   6.138
10786TIP3   OH232314   4.765   7.545   0.429
10786TIP3    H132315   4.859   7.531   0.442
10786TIP3    H232316   4.755   7.640   0.430
10787TIP3   OH232317   0.305   7.284   3.137
10787TIP3    H132318   0.385   7.311   3.182
10787TIP3    H232319   0.336   7.234   3.061
10788TIP3   OH232320   4.240   5.173   4.649
10788TIP3    H132321   4.200   5.128   4.575
10788TIP3    H232322   4.253   5.105   4.715
10789TIP3   OH232323   2.751   0.292   6.575
10789TIP3    H132324   2.824   0.335   6.530
10789TIP3    H232325   2.719   0.227   6.513
10790TIP3   OH232326   3.415   4.904   3.002
10790TIP3    H132327   3.447   4.906   3.092
10790TIP3    H232328   3.394   4.812   2.986
10791TIP3   OH232329   0.633   2.056   2.571
10791TIP3    H132330   0.701   2.000   2.607
10791TIP3    H232331   0.591   2.003   2.503
10792TIP3   OH232332   7.415   6.519   5.356
10792TIP3    H132333   7.409   6.433   5.398
10792TIP3    H232334   7.325   6.553   5.358
10793TIP3   OH232335   0.475   1.044   4.089
10793TIP3    H132336   0.423   0.968   4.063
10793TIP3    H232337   0.414   1.097   4.141
10794TIP3   OH232338   6.509   2.435   3.039
10794TIP3    H132339   6.588   2.380   3.039
10794TIP3    H232340   6.535   2.515   3.085
10795TIP3   OH232341   6.254   0.259   2.828
10795TIP3    H132342   6.243   0.242   2.734
10795TIP3    H232343   6.290   0.347   2.832
10796TIP3   OH232344   6.371   5.159   4.826
10796TIP3    H132345   6.367   5.122   4.738
10796TIP3    H232346   6.279   5.178   4.848
10797TIP3   OH232347   2.536   0.860   3.439
10797TIP3    H132348   2.571   0.830   3.355
10797TIP3    H232349   2.613   0.891   3.487
10798TIP3   OH232350   6.972   0.650   1.774
10798TIP3    H132351   6.981   0.728   1.829
10798TIP3    H232352   6.943   0.685   1.689
10799TIP3   OH232353   5.037   2.715   6.441
10799TIP3    H132354   4.990   2.636   6.468
10799TIP3    H232355   4.970   2.771   6.402
10800TIP3   OH232356   2.624   2.432   0.078
10800TIP3    H132357   2.615   2.444   0.172
10800TIP3    H232358   2.535   2.416   0.046
10801TIP3   OH232359   3.432   7.485   5.553
10801TIP3    H132360   3.459   7.490   5.461
10801TIP3    H232361   3.427   7.391   5.571
10802TIP3   OH232362   0.758   7.469   4.986
10802TIP3    H132363   0.766   7.522   5.066
10802TIP3    H232364   0.712   7.390   5.014
10803TIP3   OH232365   3.118   4.151   2.976
10803TIP3    H132366   3.136   4.062   2.947
10803TIP3    H232367   3.075   4.193   2.902
10804TIP3   OH232368   3.278   0.890   2.649
10804TIP3    H132369   3.250   0.838   2.724
10804TIP3    H232370   3.308   0.825   2.585
10805TIP3   OH232371   1.719   2.814   3.117
10805TIP3    H132372   1.744   2.775   3.033
10805TIP3    H232373   1.780   2.887   3.128
10806TIP3   OH232374   6.549   6.597   0.930
10806TIP3    H132375   6.497   6.659   0.980
10806TIP3    H232376   6.496   6.579   0.851
10807TIP3   OH232377   4.670   3.386   3.333
10807TIP3    H132378   4.671   3.337   3.251
10807TIP3    H232379   4.709   3.327   3.397
10808TIP3   OH232380   6.625   6.819   6.217
10808TIP3    H132381   6.544   6.782   6.252
10808TIP3    H232382   6.695   6.778   6.269
10809TIP3   OH232383   1.287   1.865   3.177
10809TIP3    H132384   1.196   1.885   3.199
10809TIP3    H232385   1.332   1.860   3.261
10810TIP3   OH232386   1.854   0.363   1.394
10810TIP3    H132387   1.819   0.422   1.328
10810TIP3    H232388   1.945   0.349   1.368
10811TIP3   OH232389   6.992   0.789   5.298
10811TIP3    H132390   7.018   0.879   5.318
10811TIP3    H232391   6.978   0.749   5.384
10812TIP3   OH232392   1.930   0.332   3.602
10812TIP3    H132393   1.960   0.251   3.641
10812TIP3    H232394   2.004   0.362   3.548
10813TIP3   OH232395   0.514   2.473   1.063
10813TIP3    H132396   0.538   2.384   1.088
10813TIP3    H232397   0.584   2.528   1.099
10814TIP3   OH232398   0.304   3.655   0.959
10814TIP3    H132399   0.351   3.573   0.948
10814TIP3    H232400   0.225   3.631   1.007
10815TIP3   OH232401   6.242   0.642   3.956
10815TIP3    H132402   6.165   0.698   3.960
10815TIP3    H232403   6.209   0.559   3.922
10816TIP3   OH232404   5.449   0.710   1.445
10816TIP3    H132405   5.411   0.776   1.502
10816TIP3    H232406   5.415   0.731   1.358
10817TIP3   OH232407   2.857   4.687   0.766
10817TIP3    H132408   2.874   4.715   0.676
10817TIP3    H232409   2.764   4.702   0.779
10818TIP3   OH232410   3.420   7.788   1.254
10818TIP3    H132411   3.356   7.729   1.295
10818TIP3    H232412   3.395   7.789   1.162
10819TIP3   OH232413   4.139   6.960   4.962
10819TIP3    H132414   4.155   7.042   5.009
10819TIP3    H232415   4.129   6.894   5.030
10820TIP3   OH232416   7.475   3.375   3.873
10820TIP3    H132417   7.400   3.417   3.830
10820TIP3    H232418   7.509   3.314   3.808
10821TIP3   OH232419   5.326   0.460   2.525
10821TIP3    H132420   5.259   0.523   2.498
10821TIP3    H232421   5.383   0.452   2.448
10822TIP3   OH232422   0.917   3.686   0.794
10822TIP3    H132423   0.826   3.664   0.774
10822TIP3    H232424   0.930   3.654   0.883
10823TIP3   OH232425   1.007   0.880   2.258
10823TIP3    H132426   0.944   0.927   2.203
10823TIP3    H232427   1.046   0.815   2.200
10824TIP3   OH232428   3.352   5.672   2.129
10824TIP3    H132429   3.331   5.694   2.038
10824TIP3    H232430   3.426   5.730   2.150
10825TIP3   OH232431   1.655   7.073   5.993
10825TIP3    H132432   1.606   7.100   6.070
10825TIP3    H232433   1.735   7.033   6.029
10826TIP3   OH232434   2.069   7.322   4.096
10826TIP3    H132435   2.111   7.237   4.109
10826TIP3    H232436   2.095   7.349   4.008
10827TIP3   OH232437   5.544   2.371   6.103
10827TIP3    H132438   5.508   2.434   6.166
10827TIP3    H232439   5.510   2.401   6.018
10828TIP3   OH232440   7.555   6.666   2.033
10828TIP3    H132441   7.510   6.623   2.106
10828TIP3    H232442   7.634   6.614   2.021
10829TIP3   OH232443   1.346   2.807   1.772
10829TIP3    H132444   1.256   2.808   1.738
10829TIP3    H232445   1.398   2.768   1.701
10830TIP3   OH232446   3.711   0.981   4.018
10830TIP3    H132447   3.680   1.046   4.082
10830TIP3    H232448   3.793   1.017   3.985
10831TIP3   OH232449   3.368   6.664   0.676
10831TIP3    H132450   3.404   6.635   0.760
10831TIP3    H232451   3.334   6.585   0.636
10832TIP3   OH232452   6.295   0.777   0.828
10832TIP3    H132453   6.261   0.750   0.743
10832TIP3    H232454   6.389   0.761   0.822
10833TIP3   OH232455   4.345   1.268   3.100
10833TIP3    H132456   4.346   1.230   3.187
10833TIP3    H232457   4.353   1.193   3.041
10834TIP3   OH232458   8.251   0.759   3.198
10834TIP3    H132459   8.267   0.673   3.158
10834TIP3    H232460   8.179   0.744   3.259
10835TIP3   OH232461   1.246   1.269   0.344
10835TIP3    H132462   1.268   1.223   0.263
10835TIP3    H232463   1.323   1.322   0.364
10836TIP3   OH232464   3.598   4.797   1.509
10836TIP3    H132465   3.534   4.766   1.445
10836TIP3    H232466   3.546   4.846   1.573
10837TIP3   OH232467   5.119   2.618   4.087
10837TIP3    H132468   5.123   2.710   4.115
10837TIP3    H232469   5.051   2.617   4.020
10838TIP3   OH232470   0.095   0.824   2.802
10838TIP3    H132471   0.014   0.811   2.851
10838TIP3    H232472   0.078   0.786   2.716
10839TIP3   OH232473   1.007   1.872   0.385
10839TIP3    H132474   0.966   1.788   0.367
10839TIP3    H232475   0.990   1.887   0.479
10840TIP3   OH232476   0.221   5.690   1.136
10840TIP3    H132477   0.208   5.782   1.114
10840TIP3    H232478   0.141   5.647   1.107
10841TIP3   OH232479   5.710   3.790   5.579
10841TIP3    H132480   5.618   3.776   5.556
10841TIP3    H232481   5.730   3.720   5.642
10842TIP3   OH232482   4.276   3.246   6.070
10842TIP3    H132483   4.269   3.248   6.166
10842TIP3    H232484   4.368   3.224   6.053
10843TIP3   OH232485   8.048   2.303   3.758
10843TIP3    H132486   7.956   2.280   3.771
10843TIP3    H232487   8.066   2.370   3.824
10844TIP3   OH232488   4.433   6.174   4.100
10844TIP3    H132489   4.454   6.222   4.020
10844TIP3    H232490   4.443   6.239   4.170
10845TIP3   OH232491   6.196   3.434   2.981
10845TIP3    H132492   6.218   3.503   2.918
10845TIP3    H232493   6.267   3.370   2.973
10846TIP3   OH232494   6.634   3.775   1.781
10846TIP3    H132495   6.578   3.700   1.760
10846TIP3    H232496   6.716   3.757   1.734
10847TIP3   OH232497   5.922   6.269   2.092
10847TIP3    H132498   5.881   6.184   2.100
10847TIP3    H232499   5.991   6.269   2.160
10848TIP3   OH232500   5.778   6.491   2.024
10848TIP3    H132501   5.800   6.400   2.041
10848TIP3    H232502   5.841   6.519   1.957
10849TIP3   OH232503   1.080   5.058   4.804
10849TIP3    H132504   1.090   5.137   4.751
10849TIP3    H232505   1.056   4.990   4.741
10850TIP3   OH232506   1.994   5.911   4.927
10850TIP3    H132507   1.952   5.877   4.848
10850TIP3    H232508   2.087   5.912   4.906
10851TIP3   OH232509   1.243   4.630   2.697
10851TIP3    H132510   1.293   4.677   2.764
10851TIP3    H232511   1.244   4.689   2.621
10852TIP3   OH232512   6.965   7.652   2.727
10852TIP3    H132513   7.031   7.641   2.796
10852TIP3    H232514   6.990   7.733   2.683
10853TIP3   OH232515   7.817   6.639   4.152
10853TIP3    H132516   7.731   6.663   4.117
10853TIP3    H232517   7.801   6.623   4.245
10854TIP3   OH232518   5.473   7.218   4.271
10854TIP3    H132519   5.448   7.210   4.179
10854TIP3    H232520   5.540   7.286   4.272
10855TIP3   OH232521   6.648   6.821   0.677
10855TIP3    H132522   6.606   6.883   0.617
10855TIP3    H232523   6.575   6.769   0.711
10856TIP3   OH232524   6.186   3.995   4.338
10856TIP3    H132525   6.132   4.072   4.320
10856TIP3    H232526   6.187   3.989   4.434
10857TIP3   OH232527   7.487   6.153   3.195
10857TIP3    H132528   7.429   6.100   3.250
10857TIP3    H232529   7.566   6.100   3.187
10858TIP3   OH232530   7.057   0.868   1.914
10858TIP3    H132531   7.028   0.911   1.833
10858TIP3    H232532   7.015   0.919   1.984
10859TIP3   OH232533   1.697   3.827   4.023
10859TIP3    H132534   1.747   3.745   4.018
10859TIP3    H232535   1.757   3.890   4.063
10860TIP3   OH232536   1.293   2.767   6.524
10860TIP3    H132537   1.271   2.851   6.566
10860TIP3    H232538   1.270   2.701   6.589
10861TIP3   OH232539   0.574   5.278   2.435
10861TIP3    H132540   0.654   5.308   2.477
10861TIP3    H232541   0.599   5.198   2.389
10862TIP3   OH232542   2.774   5.573   6.502
10862TIP3    H132543   2.709   5.625   6.549
10862TIP3    H232544   2.857   5.617   6.519
10863TIP3   OH232545   3.639   3.401   4.746
10863TIP3    H132546   3.553   3.383   4.783
10863TIP3    H232547   3.641   3.497   4.736
10864TIP3   OH232548   4.941   0.533   6.023
10864TIP3    H132549   4.866   0.591   6.035
10864TIP3    H232550   4.935   0.505   5.932
10865TIP3   OH232551   1.896   5.521   4.585
10865TIP3    H132552   1.897   5.488   4.495
10865TIP3    H232553   1.835   5.464   4.631
10866TIP3   OH232554   0.696   0.078   6.133
10866TIP3    H132555   0.741   0.049   6.054
10866TIP3    H232556   0.655  -0.001   6.168
10867TIP3   OH232557   2.162   0.383   0.262
10867TIP3    H132558   2.242   0.359   0.215
10867TIP3    H232559   2.155   0.317   0.332
10868TIP3   OH232560   4.131   3.465   1.682
10868TIP3    H132561   4.176   3.386   1.712
10868TIP3    H232562   4.086   3.498   1.760
10869TIP3   OH232563   6.453   7.407   3.388
10869TIP3    H132564   6.442   7.501   3.375
10869TIP3    H232565   6.406   7.367   3.316
10870TIP3   OH232566   8.223   1.155   5.626
10870TIP3    H132567   8.312   1.190   5.635
10870TIP3    H232568   8.228   1.097   5.550
10871TIP3   OH232569   3.769   2.887   5.064
10871TIP3    H132570   3.741   2.974   5.092
10871TIP3    H232571   3.861   2.899   5.038
10872TIP3   OH232572   4.995   6.736   3.455
10872TIP3    H132573   4.975   6.822   3.419
10872TIP3    H232574   4.967   6.674   3.388
10873TIP3   OH232575   5.121   4.655   0.474
10873TIP3    H132576   5.123   4.582   0.413
10873TIP3    H232577   5.093   4.730   0.421
10874TIP3   OH232578   2.695   3.444   1.287
10874TIP3    H132579   2.694   3.502   1.363
10874TIP3    H232580   2.613   3.395   1.293
10875TIP3   OH232581   2.137   1.581   5.255
10875TIP3    H132582   2.172   1.507   5.204
10875TIP3    H232583   2.046   1.558   5.272
10876TIP3   OH232584   2.771   4.489   1.491
10876TIP3    H132585   2.753   4.494   1.585
10876TIP3    H232586   2.686   4.469   1.452
10877TIP3   OH232587   3.749   4.569   5.277
10877TIP3    H132588   3.793   4.632   5.334
10877TIP3    H232589   3.768   4.484   5.316
10878TIP3   OH232590   5.611   3.728   4.376
10878TIP3    H132591   5.629   3.725   4.470
10878TIP3    H232592   5.622   3.638   4.346
10879TIP3   OH232593   7.055   3.473   3.076
10879TIP3    H132594   7.041   3.471   2.981
10879TIP3    H232595   7.088   3.561   3.093
10880TIP3   OH232596   7.596   6.785   3.207
10880TIP3    H132597   7.574   6.724   3.136
10880TIP3    H232598   7.512   6.814   3.241
10881TIP3   OH232599   0.645   4.553   0.653
10881TIP3    H132600   0.664   4.617   0.721
10881TIP3    H232601   0.620   4.474   0.701
10882TIP3   OH232602   0.859   4.879   1.937
10882TIP3    H132603   0.786   4.890   1.998
10882TIP3    H232604   0.901   4.798   1.965
10883TIP3   OH232605   4.846   2.870   3.363
10883TIP3    H132606   4.772   2.911   3.317
10883TIP3    H232607   4.916   2.868   3.298
10884TIP3   OH232608   5.537   1.335   0.557
10884TIP3    H132609   5.563   1.253   0.598
10884TIP3    H232610   5.620   1.375   0.529
10885TIP3   OH232611   1.503   3.894   1.616
10885TIP3    H132612   1.527   3.873   1.526
10885TIP3    H232613   1.456   3.817   1.647
10886TIP3   OH232614   6.599   4.239   3.351
10886TIP3    H132615   6.612   4.147   3.375
10886TIP3    H232616   6.537   4.236   3.279
10887TIP3   OH232617   0.283   4.081   1.918
10887TIP3    H132618   0.222   4.008   1.930
10887TIP3    H232619   0.233   4.144   1.865
10888TIP3   OH232620   7.400   3.722   5.466
10888TIP3    H132621   7.309   3.739   5.442
10888TIP3    H232622   7.396   3.654   5.533
10889TIP3   OH232623   6.345   1.098   0.099
10889TIP3    H132624   6.415   1.035   0.119
10889TIP3    H232625   6.391   1.179   0.079
10890TIP3   OH232626   5.675   2.123   0.588
10890TIP3    H132627   5.602   2.116   0.648
10890TIP3    H232628   5.659   2.203   0.539
10891TIP3   OH232629   4.848   1.289   2.420
10891TIP3    H132630   4.760   1.316   2.445
10891TIP3    H232631   4.903   1.312   2.494
10892TIP3   OH232632   1.946   1.327   4.044
10892TIP3    H132633   1.961   1.376   4.125
10892TIP3    H232634   1.866   1.278   4.059
10893TIP3   OH232635   6.968   0.223   3.482
10893TIP3    H132636   6.938   0.136   3.456
10893TIP3    H232637   6.943   0.280   3.409
10894TIP3   OH232638   8.011   7.585   0.508
10894TIP3    H132639   7.999   7.629   0.423
10894TIP3    H232640   8.105   7.588   0.524
10895TIP3   OH232641   4.841   3.153   0.203
10895TIP3    H132642   4.792   3.219   0.252
10895TIP3    H232643   4.901   3.204   0.148
10896TIP3   OH232644   7.922   4.579   1.805
10896TIP3    H132645   7.907   4.489   1.832
10896TIP3    H232646   7.872   4.632   1.868
10897TIP3   OH232647   6.229   4.641   4.130
10897TIP3    H132648   6.318   4.659   4.162
10897TIP3    H232649   6.194   4.727   4.107
10898TIP3   OH232650   3.665   7.297   4.831
10898TIP3    H132651   3.679   7.202   4.826
10898TIP3    H232652   3.717   7.332   4.759
10899TIP3   OH232653   3.387   5.888   2.977
10899TIP3    H132654   3.325   5.961   2.975
10899TIP3    H232655   3.423   5.889   3.066
10900TIP3   OH232656   5.632   1.247   3.479
10900TIP3    H132657   5.640   1.323   3.537
10900TIP3    H232658   5.695   1.263   3.409
10901TIP3   OH232659   3.527   6.928   2.242
10901TIP3    H132660   3.475   6.992   2.291
10901TIP3    H232661   3.617   6.942   2.274
10902TIP3   OH232662   0.800   4.576   6.178
10902TIP3    H132663   0.815   4.670   6.174
10902TIP3    H232664   0.705   4.567   6.182
10903TIP3   OH232665   6.787   0.309   4.330
10903TIP3    H132666   6.837   0.287   4.252
10903TIP3    H232667   6.744   0.392   4.309
10904TIP3   OH232668   2.702   1.626   2.461
10904TIP3    H132669   2.630   1.653   2.403
10904TIP3    H232670   2.669   1.643   2.549
10905TIP3   OH232671   0.862   2.793   2.762
10905TIP3    H132672   0.871   2.855   2.690
10905TIP3    H232673   0.864   2.847   2.841
10906TIP3   OH232674   5.833   5.105   3.776
10906TIP3    H132675   5.742   5.081   3.789
10906TIP3    H232676   5.843   5.115   3.681
10907TIP3   OH232677   5.093   1.157   5.240
10907TIP3    H132678   5.033   1.201   5.179
10907TIP3    H232679   5.041   1.144   5.319
10908TIP3   OH232680   7.667   6.415   4.760
10908TIP3    H132681   7.678   6.327   4.795
10908TIP3    H232682   7.576   6.438   4.781
10909TIP3   OH232683   3.929   3.056   1.503
10909TIP3    H132684   3.998   3.093   1.448
10909TIP3    H232685   3.974   3.027   1.582
10910TIP3   OH232686   0.911   0.392   1.558
10910TIP3    H132687   0.932   0.391   1.651
10910TIP3    H232688   0.990   0.360   1.515
10911TIP3   OH232689   2.607   0.739   0.161
10911TIP3    H132690   2.535   0.747   0.224
10911TIP3    H232691   2.567   0.698   0.084
10912TIP3   OH232692   5.165   7.707   1.905
10912TIP3    H132693   5.115   7.643   1.854
10912TIP3    H232694   5.112   7.720   1.984
10913TIP3   OH232695   4.312   0.256   0.746
10913TIP3    H132696   4.307   0.182   0.686
10913TIP3    H232697   4.333   0.331   0.691
10914TIP3   OH232698   7.930   3.224   5.440
10914TIP3    H132699   7.986   3.150   5.463
10914TIP3    H232700   7.843   3.199   5.470
10915TIP3   OH232701   6.718   4.823   6.550
10915TIP3    H132702   6.716   4.805   6.644
10915TIP3    H232703   6.795   4.775   6.518
10916TIP3   OH232704   5.459   4.158   2.061
10916TIP3    H132705   5.390   4.147   1.996
10916TIP3    H232706   5.414   4.187   2.140
10917TIP3   OH232707   7.423   3.433   0.905
10917TIP3    H132708   7.491   3.431   0.973
10917TIP3    H232709   7.392   3.524   0.905
10918TIP3   OH232710   8.154   1.661   3.094
10918TIP3    H132711   8.104   1.663   3.175
10918TIP3    H232712   8.177   1.568   3.083
10919TIP3   OH232713   2.058   2.517   3.290
10919TIP3    H132714   2.146   2.555   3.302
10919TIP3    H232715   2.074   2.433   3.247
10920TIP3   OH232716   1.092   1.092   3.243
10920TIP3    H132717   1.014   1.127   3.202
10920TIP3    H232718   1.116   1.016   3.188
10921TIP3   OH232719   2.160   3.934   2.115
10921TIP3    H132720   2.248   3.899   2.125
10921TIP3    H232721   2.131   3.954   2.204
10922TIP3   OH232722   6.074   5.533   0.776
10922TIP3    H132723   6.119   5.474   0.836
10922TIP3    H232724   6.143   5.592   0.745
10923TIP3   OH232725   1.117   7.598   1.317
10923TIP3    H132726   1.114   7.669   1.253
10923TIP3    H232727   1.036   7.550   1.302
10924TIP3   OH232728   5.456   6.181   1.261
10924TIP3    H132729   5.370   6.201   1.297
10924TIP3    H232730   5.501   6.265   1.258
10925TIP3   OH232731   0.379   5.815   4.626
10925TIP3    H132732   0.384   5.764   4.545
10925TIP3    H232733   0.405   5.755   4.695
10926TIP3   OH232734   4.912   4.013   2.479
10926TIP3    H132735   4.925   4.089   2.535
10926TIP3    H232736   4.859   3.953   2.532
10927TIP3   OH232737   4.408   0.275   5.813
10927TIP3    H132738   4.470   0.216   5.771
10927TIP3    H232739   4.463   0.342   5.854
10928TIP3   OH232740   1.798   2.042   5.833
10928TIP3    H132741   1.873   1.982   5.844
10928TIP3    H232742   1.825   2.102   5.763
10929TIP3   OH232743   7.071   1.135   1.887
10929TIP3    H132744   7.157   1.124   1.846
10929TIP3    H232745   7.084   1.206   1.950
10930TIP3   OH232746   4.103   0.247   4.164
10930TIP3    H132747   4.144   0.172   4.207
10930TIP3    H232748   4.176   0.302   4.137
10931TIP3   OH232749   0.470   5.902   3.765
10931TIP3    H132750   0.425   5.959   3.827
10931TIP3    H232751   0.440   5.814   3.786
10932TIP3   OH232752   5.252   4.204   4.992
10932TIP3    H132753   5.202   4.203   5.074
10932TIP3    H232754   5.321   4.139   5.005
10933TIP3   OH232755   3.190   3.595   4.906
10933TIP3    H132756   3.245   3.560   4.977
10933TIP3    H232757   3.110   3.622   4.950
10934TIP3   OH232758   6.400   3.300   2.021
10934TIP3    H132759   6.412   3.328   2.112
10934TIP3    H232760   6.477   3.247   2.002
10935TIP3   OH232761   3.226   0.342   4.281
10935TIP3    H132762   3.219   0.256   4.239
10935TIP3    H232763   3.192   0.403   4.215
10936TIP3   OH232764   7.609   4.900   1.704
10936TIP3    H132765   7.565   4.818   1.682
10936TIP3    H232766   7.702   4.883   1.688
10937TIP3   OH232767   5.317   1.273   5.028
10937TIP3    H132768   5.320   1.305   5.118
10937TIP3    H232769   5.385   1.206   5.023
10938TIP3   OH232770   1.438   2.424   1.324
10938TIP3    H132771   1.477   2.347   1.366
10938TIP3    H232772   1.377   2.459   1.389
10939TIP3   OH232773   7.786   2.355   1.278
10939TIP3    H132774   7.722   2.408   1.325
10939TIP3    H232775   7.830   2.304   1.347
10940TIP3   OH232776   1.386   6.432   2.127
10940TIP3    H132777   1.462   6.438   2.185
10940TIP3    H232778   1.421   6.447   2.039
10941TIP3   OH232779   8.230   4.773   3.142
10941TIP3    H132780   8.260   4.683   3.132
10941TIP3    H232781   8.205   4.799   3.053
10942TIP3   OH232782   0.545   6.563   3.337
10942TIP3    H132783   0.542   6.469   3.322
10942TIP3    H232784   0.471   6.598   3.289
10943TIP3   OH232785   0.419   3.859   0.860
10943TIP3    H132786   0.334   3.894   0.887
10943TIP3    H232787   0.406   3.764   0.863
10944TIP3   OH232788   6.476   3.384   0.805
10944TIP3    H132789   6.451   3.302   0.762
10944TIP3    H232790   6.403   3.403   0.865
10945TIP3   OH232791   4.042   5.200   1.825
10945TIP3    H132792   4.055   5.262   1.896
10945TIP3    H232793   4.046   5.253   1.745
10946TIP3   OH232794   5.377   2.210   4.329
10946TIP3    H132795   5.449   2.265   4.360
10946TIP3    H232796   5.319   2.271   4.282
10947TIP3   OH232797   4.850   0.037   1.049
10947TIP3    H132798   4.755   0.042   1.057
10947TIP3    H232799   4.880   0.127   1.061
10948TIP3   OH232800   7.059   4.048   2.242
10948TIP3    H132801   6.985   4.079   2.294
10948TIP3    H232802   7.062   4.107   2.167
10949TIP3   OH232803   5.088   5.622   0.687
10949TIP3    H132804   5.175   5.640   0.650
10949TIP3    H232805   5.104   5.608   0.781
10950TIP3   OH232806   5.546   6.997   5.250
10950TIP3    H132807   5.471   7.045   5.214
10950TIP3    H232808   5.508   6.915   5.282
10951TIP3   OH232809   7.564   0.365   5.126
10951TIP3    H132810   7.518   0.426   5.069
10951TIP3    H232811   7.639   0.335   5.074
10952TIP3   OH232812   8.068   7.193   1.070
10952TIP3    H132813   8.153   7.233   1.055
10952TIP3    H232814   8.006   7.266   1.064
10953TIP3   OH232815   8.160   6.767   5.401
10953TIP3    H132816   8.103   6.740   5.329
10953TIP3    H232817   8.223   6.826   5.361
10954TIP3   OH232818   7.312   5.237   2.961
10954TIP3    H132819   7.273   5.158   2.923
10954TIP3    H232820   7.371   5.270   2.893
10955TIP3   OH232821   3.534   5.559   4.180
10955TIP3    H132822   3.494   5.600   4.256
10955TIP3    H232823   3.563   5.632   4.125
10956TIP3   OH232824   1.768   3.355   5.967
10956TIP3    H132825   1.732   3.424   6.023
10956TIP3    H232826   1.814   3.402   5.898
10957TIP3   OH232827   2.456   7.640   0.512
10957TIP3    H132828   2.394   7.697   0.467
10957TIP3    H232829   2.505   7.597   0.441
10958TIP3   OH232830   2.014   6.515   2.459
10958TIP3    H132831   2.052   6.603   2.450
10958TIP3    H232832   1.952   6.509   2.386
10959TIP3   OH232833   3.862   4.030   2.696
10959TIP3    H132834   3.817   4.060   2.776
10959TIP3    H232835   3.953   4.058   2.708
10960TIP3   OH232836   4.395   6.812   3.711
10960TIP3    H132837   4.303   6.812   3.737
10960TIP3    H232838   4.416   6.904   3.696
10961TIP3   OH232839   7.381   0.179   3.261
10961TIP3    H132840   7.304   0.191   3.205
10961TIP3    H232841   7.355   0.113   3.325
10962TIP3   OH232842   5.386   6.569   3.511
10962TIP3    H132843   5.380   6.490   3.565
10962TIP3    H232844   5.394   6.536   3.422
10963TIP3   OH232845   2.068   0.884   2.134
10963TIP3    H132846   2.098   0.793   2.131
10963TIP3    H232847   1.994   0.883   2.195
10964TIP3   OH232848   4.764   6.658   6.642
10964TIP3    H132849   4.697   6.621   6.583
10964TIP3    H232850   4.844   6.655   6.590
10965TIP3   OH232851   5.443   5.534   4.943
10965TIP3    H132852   5.474   5.528   4.853
10965TIP3    H232853   5.421   5.626   4.955
10966TIP3   OH232854   8.045   5.293   4.140
10966TIP3    H132855   8.077   5.218   4.189
10966TIP3    H232856   7.963   5.262   4.100
10967TIP3   OH232857   7.603   3.568   1.520
10967TIP3    H132858   7.661   3.497   1.492
10967TIP3    H232859   7.576   3.544   1.608
10968TIP3   OH232860   0.329   4.957   6.073
10968TIP3    H132861   0.331   5.021   6.145
10968TIP3    H232862   0.352   5.008   5.995
10969TIP3   OH232863   7.050   3.587   0.246
10969TIP3    H132864   7.022   3.633   0.167
10969TIP3    H232865   7.137   3.623   0.266
10970TIP3   OH232866   6.904   0.390   5.524
10970TIP3    H132867   6.812   0.372   5.544
10970TIP3    H232868   6.932   0.316   5.471
10971TIP3   OH232869   0.454   5.978   1.052
10971TIP3    H132870   0.453   5.920   0.976
10971TIP3    H232871   0.491   5.925   1.122
10972TIP3   OH232872   3.735   7.434   4.564
10972TIP3    H132873   3.714   7.521   4.598
10972TIP3    H232874   3.797   7.451   4.492
10973TIP3   OH232875   4.167   2.714   4.801
10973TIP3    H132876   4.259   2.717   4.829
10973TIP3    H232877   4.118   2.695   4.881
10974TIP3   OH232878   0.617   2.515   0.421
10974TIP3    H132879   0.558   2.576   0.467
10974TIP3    H232880   0.646   2.455   0.489
10975TIP3   OH232881   6.293   5.516   4.783
10975TIP3    H132882   6.313   5.487   4.872
10975TIP3    H232883   6.372   5.496   4.733
10976TIP3   OH232884   3.624   4.570   3.130
10976TIP3    H132885   3.704   4.554   3.181
10976TIP3    H232886   3.557   4.587   3.196
10977TIP3   OH232887   1.385   4.287   3.711
10977TIP3    H132888   1.331   4.221   3.667
10977TIP3    H232889   1.475   4.257   3.697
10978TIP3   OH232890   3.085   1.683   5.590
10978TIP3    H132891   3.099   1.626   5.665
10978TIP3    H232892   3.098   1.627   5.514
10979TIP3   OH232893   5.632   6.589   2.235
10979TIP3    H132894   5.551   6.547   2.264
10979TIP3    H232895   5.662   6.535   2.163
10980TIP3   OH232896   3.163   1.729   2.035
10980TIP3    H132897   3.076   1.698   2.009
10980TIP3    H232898   3.161   1.823   2.016
10981TIP3   OH232899   2.546   0.791   2.447
10981TIP3    H132900   2.525   0.846   2.522
10981TIP3    H232901   2.613   0.731   2.480
10982TIP3   OH232902   6.958   6.247   0.771
10982TIP3    H132903   7.005   6.310   0.825
10982TIP3    H232904   6.889   6.298   0.729
10983TIP3   OH232905   5.247   1.632   5.524
10983TIP3    H132906   5.294   1.715   5.517
10983TIP3    H232907   5.316   1.566   5.532
10984TIP3   OH232908   4.362   4.607   6.544
10984TIP3    H132909   4.336   4.696   6.520
10984TIP3    H232910   4.408   4.573   6.467
10985TIP3   OH232911   4.168   3.308   5.255
10985TIP3    H132912   4.084   3.344   5.228
10985TIP3    H232913   4.195   3.363   5.329
10986TIP3   OH232914   5.926   6.596   5.852
10986TIP3    H132915   5.912   6.525   5.915
10986TIP3    H232916   5.837   6.624   5.828
10987TIP3   OH232917   2.653   5.483   0.304
10987TIP3    H132918   2.666   5.404   0.356
10987TIP3    H232919   2.741   5.508   0.276
10988TIP3   OH232920   0.481   4.214   6.567
10988TIP3    H132921   0.567   4.220   6.525
10988TIP3    H232922   0.469   4.120   6.584
10989TIP3   OH232923   5.988   6.612   6.389
10989TIP3    H132924   6.066   6.576   6.432
10989TIP3    H232925   5.921   6.545   6.401
10990TIP3   OH232926   1.420   4.979   2.719
10990TIP3    H132927   1.461   4.918   2.658
10990TIP3    H232928   1.367   5.036   2.663
10991TIP3   OH232929   5.881   4.984   5.851
10991TIP3    H132930   5.835   5.064   5.876
10991TIP3    H232931   5.835   4.954   5.772
10992TIP3   OH232932   5.882   2.155   4.181
10992TIP3    H132933   5.826   2.084   4.213
10992TIP3    H232934   5.944   2.171   4.252
10993TIP3   OH232935   0.854   7.278   0.435
10993TIP3    H132936   0.805   7.259   0.515
10993TIP3    H232937   0.801   7.242   0.364
10994TIP3   OH232938   5.762   2.302   6.336
10994TIP3    H132939   5.759   2.382   6.388
10994TIP3    H232940   5.706   2.320   6.261
10995TIP3   OH232941   3.136   7.682   3.498
10995TIP3    H132942   3.181   7.606   3.535
10995TIP3    H232943   3.166   7.755   3.553
10996TIP3   OH232944   4.444   7.640   2.750
10996TIP3    H132945   4.426   7.730   2.723
10996TIP3    H232946   4.482   7.648   2.838
10997TIP3   OH232947   5.065   3.949   4.039
10997TIP3    H132948   5.152   3.990   4.048
10997TIP3    H232949   5.084   3.856   4.026
10998TIP3   OH232950   5.936   2.184   4.745
10998TIP3    H132951   5.975   2.103   4.713
10998TIP3    H232952   5.960   2.187   4.838
10999TIP3   OH232953   6.318   7.582   6.338
10999TIP3    H132954   6.317   7.516   6.269
10999TIP3    H232955   6.226   7.593   6.363
11000TIP3   OH232956   7.354   6.315   5.601
11000TIP3    H132957   7.284   6.260   5.566
11000TIP3    H232958   7.318   6.351   5.682
11001TIP3   OH232959   0.353   3.992   3.227
11001TIP3    H132960   0.305   3.914   3.199
11001TIP3    H232961   0.284   4.052   3.257
11002TIP3   OH232962   3.818   7.098   0.774
11002TIP3    H132963   3.847   7.067   0.688
11002TIP3    H232964   3.845   7.029   0.835
11003TIP3   OH232965   0.550   6.185   5.386
11003TIP3    H132966   0.585   6.135   5.312
11003TIP3    H232967   0.626   6.231   5.422
11004TIP3   OH232968   6.587   5.766   2.094
11004TIP3    H132969   6.520   5.747   2.029
11004TIP3    H232970   6.667   5.728   2.058
11005TIP3   OH232971   0.228   5.642   6.314
11005TIP3    H132972   0.148   5.659   6.264
11005TIP3    H232973   0.248   5.550   6.297
11006TIP3   OH232974   1.509   0.664   3.566
11006TIP3    H132975   1.592   0.662   3.614
11006TIP3    H232976   1.442   0.648   3.632
11007TIP3   OH232977   7.372   7.036   4.821
11007TIP3    H132978   7.425   6.957   4.811
11007TIP3    H232979   7.436   7.108   4.820
11008TIP3   OH232980   7.343   3.594   0.301
11008TIP3    H132981   7.371   3.671   0.252
11008TIP3    H232982   7.417   3.533   0.296
11009TIP3   OH232983   1.662   1.938   6.281
11009TIP3    H132984   1.692   1.912   6.368
11009TIP3    H232985   1.610   2.017   6.295
11010TIP3   OH232986   7.172   6.962   5.064
11010TIP3    H132987   7.214   7.038   5.024
11010TIP3    H232988   7.243   6.915   5.107
11011TIP3   OH232989   6.201   0.931   3.276
11011TIP3    H132990   6.111   0.906   3.256
11011TIP3    H232991   6.207   0.923   3.371
11012TIP3   OH232992   4.667   5.802   4.980
11012TIP3    H132993   4.580   5.788   4.942
11012TIP3    H232994   4.727   5.756   4.920
11013TIP3   OH232995   3.174   1.386   2.840
11013TIP3    H132996   3.134   1.306   2.873
11013TIP3    H232997   3.175   1.446   2.915
11014TIP3   OH232998   1.784   5.058   3.121
11014TIP3    H132999   1.804   4.983   3.177
11014TIP3    H233000   1.800   5.026   3.032
11015TIP3   OH233001   2.912   3.852   1.611
11015TIP3    H133002   2.889   3.937   1.573
11015TIP3    H233003   2.988   3.870   1.666
11016TIP3   OH233004   0.026   6.109   1.607
11016TIP3    H133005  -0.064   6.093   1.577
11016TIP3    H233006   0.080   6.059   1.545
11017TIP3   OH233007   4.643   3.645   3.405
11017TIP3    H133008   4.728   3.674   3.370
11017TIP3    H233009   4.647   3.550   3.400
11018TIP3   OH233010   4.069   1.313   4.776
11018TIP3    H133011   3.989   1.262   4.767
11018TIP3    H233012   4.045   1.401   4.747
11019TIP3   OH233013   7.232   7.630   5.589
11019TIP3    H133014   7.269   7.564   5.530
11019TIP3    H233015   7.177   7.580   5.649
11020TIP3   OH233016   1.134   4.520   2.338
11020TIP3    H133017   1.063   4.554   2.283
11020TIP3    H233018   1.213   4.535   2.287
11021TIP3   OH233019   8.028   7.076   5.030
11021TIP3    H133020   8.054   7.107   4.943
11021TIP3    H233021   7.942   7.114   5.045
11022TIP3   OH233022   6.421   0.017   2.680
11022TIP3    H133023   6.480   0.006   2.606
11022TIP3    H233024   6.385   0.105   2.670
11023TIP3   OH233025   4.542   0.330   0.972
11023TIP3    H133026   4.579   0.415   0.998
11023TIP3    H233027   4.533   0.335   0.877
11024TIP3   OH233028   5.480   4.367   4.864
11024TIP3    H133029   5.565   4.348   4.905
11024TIP3    H233030   5.430   4.412   4.932
11025TIP3   OH233031   1.677   5.222   1.660
11025TIP3    H133032   1.762   5.264   1.669
11025TIP3    H233033   1.647   5.247   1.572
11026TIP3   OH233034   4.834   5.991   1.627
11026TIP3    H133035   4.741   5.989   1.649
11026TIP3    H233036   4.843   5.934   1.552
11027TIP3   OH233037   5.422   1.322   0.283
11027TIP3    H133038   5.469   1.403   0.305
11027TIP3    H233039   5.434   1.267   0.360
11028TIP3   OH233040   7.968   6.246   0.628
11028TIP3    H133041   7.985   6.309   0.698
11028TIP3    H233042   8.034   6.178   0.639
11029TIP3   OH233043   3.561   5.566   2.387
11029TIP3    H133044   3.514   5.637   2.343
11029TIP3    H233045   3.497   5.494   2.390
11030TIP3   OH233046   5.242   1.038   1.357
11030TIP3    H133047   5.271   0.947   1.367
11030TIP3    H233048   5.287   1.085   1.427
11031TIP3   OH233049   5.159   0.473   0.136
11031TIP3    H133050   5.091   0.480   0.204
11031TIP3    H233051   5.182   0.563   0.116
11032TIP3   OH233052   7.463   3.930   3.854
11032TIP3    H133053   7.492   3.891   3.936
11032TIP3    H233054   7.429   4.016   3.879
11033TIP3   OH233055   2.496   1.427   3.209
11033TIP3    H133056   2.529   1.517   3.206
11033TIP3    H233057   2.407   1.435   3.243
11034TIP3   OH233058   6.779   3.430   1.767
11034TIP3    H133059   6.785   3.438   1.862
11034TIP3    H233060   6.865   3.458   1.735
11035TIP3   OH233061   5.846   3.624   1.484
11035TIP3    H133062   5.839   3.665   1.398
11035TIP3    H233063   5.804   3.686   1.544
11036TIP3   OH233064   3.808   6.828   5.186
11036TIP3    H133065   3.728   6.782   5.211
11036TIP3    H233066   3.778   6.912   5.151
11037TIP3   OH233067   7.462   0.154   1.841
11037TIP3    H133068   7.397   0.212   1.881
11037TIP3    H233069   7.543   0.171   1.888
11038TIP3   OH233070   5.988   1.056   5.910
11038TIP3    H133071   5.974   1.151   5.916
11038TIP3    H233072   5.910   1.023   5.866
11039TIP3   OH233073   2.111   2.329   6.268
11039TIP3    H133074   2.156   2.247   6.248
11039TIP3    H233075   2.070   2.314   6.353
11040TIP3   OH233076   4.436   4.485   1.804
11040TIP3    H133077   4.439   4.446   1.717
11040TIP3    H233078   4.526   4.483   1.835
11041TIP3   OH233079   4.424   3.488   0.428
11041TIP3    H133080   4.490   3.514   0.493
11041TIP3    H233081   4.454   3.403   0.397
11042TIP3   OH233082   0.375   0.437   4.546
11042TIP3    H133083   0.409   0.354   4.514
11042TIP3    H233084   0.376   0.495   4.469
11043TIP3   OH233085   4.213   1.154   6.747
11043TIP3    H133086   4.251   1.101   6.817
11043TIP3    H233087   4.223   1.102   6.668
11044TIP3   OH233088   2.827   2.666   0.034
11044TIP3    H133089   2.824   2.570   0.033
11044TIP3    H233090   2.739   2.692   0.062
11045TIP3   OH233091   6.173   0.071   4.689
11045TIP3    H133092   6.125  -0.011   4.678
11045TIP3    H233093   6.120   0.135   4.640
11046TIP3   OH233094   6.491   2.793   4.042
11046TIP3    H133095   6.455   2.771   4.128
11046TIP3    H233096   6.481   2.888   4.036
11047TIP3   OH233097   4.151   5.824   6.688
11047TIP3    H133098   4.082   5.785   6.634
11047TIP3    H233099   4.147   5.775   6.770
11048TIP3   OH233100   0.756   7.737   5.491
11048TIP3    H133101   0.718   7.804   5.433
11048TIP3    H233102   0.745   7.655   5.442
11049TIP3   OH233103   4.761   5.341   6.591
11049TIP3    H133104   4.813   5.269   6.557
11049TIP3    H233105   4.809   5.420   6.565
11050TIP3   OH233106   7.218   5.397   5.307
11050TIP3    H133107   7.238   5.451   5.383
11050TIP3    H233108   7.273   5.432   5.237
11051TIP3   OH233109   5.763   4.485   2.547
11051TIP3    H133110   5.721   4.571   2.542
11051TIP3    H233111   5.746   4.454   2.635
11052TIP3   OH233112   3.325   5.341   2.340
11052TIP3    H133113   3.261   5.344   2.411
11052TIP3    H233114   3.278   5.301   2.266
11053TIP3   OH233115   4.086   1.788   3.928
11053TIP3    H133116   4.003   1.831   3.906
11053TIP3    H233117   4.148   1.822   3.863
11054TIP3   OH233118   2.145   0.575   3.959
11054TIP3    H133119   2.173   0.644   4.019
11054TIP3    H233120   2.055   0.598   3.936
11055TIP3   OH233121   3.972   3.492   1.452
11055TIP3    H133122   4.057   3.499   1.408
11055TIP3    H233123   3.993   3.464   1.541
11056TIP3   OH233124   1.640   0.952   2.318
11056TIP3    H133125   1.716   0.895   2.311
11056TIP3    H233126   1.626   0.983   2.228
11057TIP3   OH233127   4.160   0.878   0.276
11057TIP3    H133128   4.235   0.929   0.307
11057TIP3    H233129   4.167   0.794   0.321
11058TIP3   OH233130   2.624   5.796   5.573
11058TIP3    H133131   2.573   5.715   5.582
11058TIP3    H233132   2.698   5.772   5.517
11059TIP3   OH233133   6.871   2.749   6.004
11059TIP3    H133134   6.794   2.780   5.956
11059TIP3    H233135   6.941   2.749   5.939
11060TIP3   OH233136   8.165   3.752   6.725
11060TIP3    H133137   8.135   3.789   6.643
11060TIP3    H233138   8.147   3.819   6.790
11061TIP3   OH233139   2.167   1.344   0.682
11061TIP3    H133140   2.088   1.304   0.717
11061TIP3    H233141   2.234   1.327   0.748
11062TIP3   OH233142   6.006   6.164   6.695
11062TIP3    H133143   6.027   6.145   6.787
11062TIP3    H233144   6.046   6.250   6.679
11063TIP3   OH233145   3.117   7.533   0.407
11063TIP3    H133146   3.049   7.520   0.473
11063TIP3    H233147   3.099   7.619   0.370
11064TIP3   OH233148   3.620   5.777   4.009
11064TIP3    H133149   3.683   5.841   4.042
11064TIP3    H233150   3.673   5.714   3.960
11065TIP3   OH233151   6.050   4.048   1.011
11065TIP3    H133152   6.107   4.124   1.005
11065TIP3    H233153   5.985   4.060   0.942
11066TIP3   OH233154   7.196   0.288   6.533
11066TIP3    H133155   7.132   0.353   6.560
11066TIP3    H233156   7.188   0.285   6.437
11067TIP3   OH233157   3.885   1.835   4.998
11067TIP3    H133158   3.933   1.843   5.080
11067TIP3    H233159   3.859   1.924   4.976
11068TIP3   OH233160   0.535   6.974   2.298
11068TIP3    H133161   0.570   6.975   2.209
11068TIP3    H233162   0.611   6.962   2.354
11069TIP3   OH233163   6.963   7.068   1.171
11069TIP3    H133164   7.045   7.111   1.195
11069TIP3    H233165   6.897   7.136   1.182
11070TIP3   OH233166   1.972   5.800   5.513
11070TIP3    H133167   2.008   5.714   5.490
11070TIP3    H233168   2.002   5.858   5.443
11071TIP3   OH233169   7.631   2.779   3.668
11071TIP3    H133170   7.557   2.818   3.621
11071TIP3    H233171   7.695   2.850   3.676
11072TIP3   OH233172   7.077   0.141   5.440
11072TIP3    H133173   7.168   0.117   5.458
11072TIP3    H233174   7.026   0.091   5.504
11073TIP3   OH233175   2.873   2.852   4.038
11073TIP3    H133176   2.927   2.776   4.018
11073TIP3    H233177   2.810   2.856   3.966
11074TIP3   OH233178   6.681   2.178   5.724
11074TIP3    H133179   6.668   2.155   5.632
11074TIP3    H233180   6.702   2.095   5.767
11075TIP3   OH233181   2.708   0.576   2.371
11075TIP3    H133182   2.627   0.524   2.363
11075TIP3    H233183   2.755   0.560   2.289
11076TIP3   OH233184   1.678   5.760   5.490
11076TIP3    H133185   1.772   5.778   5.482
11076TIP3    H233186   1.652   5.733   5.402
11077TIP3   OH233187   6.364   6.846   0.065
11077TIP3    H133188   6.271   6.854   0.085
11077TIP3    H233189   6.380   6.752   0.057
11078TIP3   OH233190   8.197   6.655   6.291
11078TIP3    H133191   8.250   6.640   6.370
11078TIP3    H233192   8.231   6.591   6.228
11079TIP3   OH233193   6.205   6.159   3.101
11079TIP3    H133194   6.255   6.083   3.131
11079TIP3    H233195   6.240   6.232   3.152
11080TIP3   OH233196   7.875   3.064   5.149
11080TIP3    H133197   7.909   3.149   5.176
11080TIP3    H233198   7.820   3.035   5.222
11081TIP3   OH233199   1.385   5.593   1.992
11081TIP3    H133200   1.330   5.630   1.924
11081TIP3    H233201   1.358   5.501   1.999
11082TIP3   OH233202   6.949   3.222   2.192
11082TIP3    H133203   6.939   3.176   2.275
11082TIP3    H233204   6.997   3.161   2.137
11083TIP3   OH233205   3.309   7.188   5.041
11083TIP3    H133206   3.260   7.266   5.067
11083TIP3    H233207   3.370   7.174   5.114
11084TIP3   OH233208   8.041   3.028   2.477
11084TIP3    H133209   8.054   2.980   2.559
11084TIP3    H233210   7.971   3.090   2.496
11085TIP3   OH233211   6.728   6.155   3.235
11085TIP3    H133212   6.713   6.195   3.150
11085TIP3    H233213   6.768   6.225   3.287
11086TIP3   OH233214   5.753   2.393   1.808
11086TIP3    H133215   5.791   2.411   1.894
11086TIP3    H233216   5.724   2.478   1.776
11087TIP3   OH233217   4.814   6.251   5.335
11087TIP3    H133218   4.829   6.345   5.337
11087TIP3    H233219   4.846   6.220   5.420
11088TIP3   OH233220   2.675   5.247   4.603
11088TIP3    H133221   2.590   5.282   4.626
11088TIP3    H233222   2.656   5.176   4.541
11089TIP3   OH233223   5.979   3.711   2.592
11089TIP3    H133224   5.994   3.791   2.543
11089TIP3    H233225   5.893   3.680   2.562
11090TIP3   OH233226   2.772   1.342   1.286
11090TIP3    H133227   2.827   1.397   1.230
11090TIP3    H233228   2.731   1.404   1.347
11091TIP3   OH233229   6.936   3.879   2.914
11091TIP3    H133230   7.020   3.839   2.937
11091TIP3    H233231   6.878   3.804   2.899
11092TIP3   OH233232   3.704   1.431   4.819
11092TIP3    H133233   3.631   1.382   4.783
11092TIP3    H233234   3.782   1.388   4.783
11093TIP3   OH233235   0.671   4.236   5.575
11093TIP3    H133236   0.644   4.153   5.614
11093TIP3    H233237   0.756   4.217   5.535
11094TIP3   OH233238   4.506   5.048   6.046
11094TIP3    H133239   4.490   4.964   6.089
11094TIP3    H233240   4.477   5.035   5.956
11095TIP3   OH233241   4.323   1.956   4.222
11095TIP3    H133242   4.261   1.884   4.231
11095TIP3    H233243   4.311   2.008   4.302
11096TIP3   OH233244   6.017   5.741   2.814
11096TIP3    H133245   6.069   5.682   2.869
11096TIP3    H233246   6.072   5.819   2.804
11097TIP3   OH233247   1.064   0.571   1.148
11097TIP3    H133248   1.115   0.549   1.070
11097TIP3    H233249   1.088   0.662   1.167
11098TIP3   OH233250   6.187   6.017   4.106
11098TIP3    H133251   6.157   5.926   4.105
11098TIP3    H233252   6.213   6.034   4.015
11099TIP3   OH233253   6.189   2.223   1.341
11099TIP3    H133254   6.247   2.201   1.414
11099TIP3    H233255   6.110   2.256   1.384
11100TIP3   OH233256   3.528   2.058   0.026
11100TIP3    H133257   3.581   2.050   0.106
11100TIP3    H233258   3.546   2.146  -0.006
11101TIP3   OH233259   7.898   2.635   3.680
11101TIP3    H133260   7.897   2.577   3.757
11101TIP3    H233261   7.912   2.722   3.717
11102TIP3   OH233262   0.088   1.221   4.349
11102TIP3    H133263   0.141   1.286   4.395
11102TIP3    H233264   0.041   1.174   4.419
11103TIP3   OH233265   7.237   0.441   1.370
11103TIP3    H133266   7.207   0.374   1.309
11103TIP3    H233267   7.182   0.430   1.448
11104TIP3   OH233268   3.164   4.490   5.982
11104TIP3    H133269   3.097   4.457   6.042
11104TIP3    H233270   3.115   4.544   5.920
11105TIP3   OH233271   0.219   1.539   3.155
11105TIP3    H133272   0.172   1.501   3.081
11105TIP3    H233273   0.161   1.528   3.230
11106TIP3   OH233274   6.358   4.428   5.513
11106TIP3    H133275   6.441   4.380   5.512
11106TIP3    H233276   6.318   4.407   5.428
11107TIP3   OH233277   5.112   3.033   5.054
11107TIP3    H133278   5.204   3.026   5.028
11107TIP3    H233279   5.065   2.981   4.989
11108TIP3   OH233280   6.375   1.215   6.497
11108TIP3    H133281   6.447   1.205   6.559
11108TIP3    H233282   6.330   1.295   6.524
11109TIP3   OH233283   1.459   0.358   3.533
11109TIP3    H133284   1.546   0.372   3.571
11109TIP3    H233285   1.424   0.282   3.580
11110TIP3   OH233286   7.037   0.703   2.286
11110TIP3    H133287   7.028   0.750   2.368
11110TIP3    H233288   6.991   0.758   2.222
11111TIP3   OH233289   5.941   1.584   4.116
11111TIP3    H133290   5.892   1.650   4.165
11111TIP3    H233291   5.905   1.500   4.145
11112TIP3   OH233292   0.887   3.370   2.149
11112TIP3    H133293   0.959   3.316   2.115
11112TIP3    H233294   0.856   3.323   2.227
11113TIP3   OH233295   5.308   2.811   6.378
11113TIP3    H133296   5.222   2.778   6.403
11113TIP3    H233297   5.290   2.890   6.327
11114TIP3   OH233298   6.086   1.437   0.314
11114TIP3    H133299   6.109   1.368   0.252
11114TIP3    H233300   6.153   1.505   0.301
11115TIP3   OH233301   1.014   0.663   2.079
11115TIP3    H133302   0.918   0.670   2.075
11115TIP3    H233303   1.030   0.595   2.145
11116TIP3   OH233304   6.740   0.358   3.273
11116TIP3    H133305   6.664   0.320   3.231
11116TIP3    H233306   6.704   0.418   3.339
11117TIP3   OH233307   5.555   4.133   1.672
11117TIP3    H133308   5.580   4.151   1.582
11117TIP3    H233309   5.610   4.059   1.698
11118TIP3   OH233310   7.208   3.787   5.949
11118TIP3    H133311   7.255   3.786   6.033
11118TIP3    H233312   7.267   3.833   5.890
11119TIP3   OH233313   7.858   1.830   2.654
11119TIP3    H133314   7.794   1.872   2.597
11119TIP3    H233315   7.838   1.864   2.742
11120TIP3   OH233316   4.170   2.583   1.982
11120TIP3    H133317   4.156   2.499   2.026
11120TIP3    H233318   4.264   2.598   1.987
11121TIP3   OH233319   5.871   0.145   4.062
11121TIP3    H133320   5.826   0.188   3.990
11121TIP3    H233321   5.850   0.052   4.051
11122TIP3   OH233322   6.043   4.766   6.170
11122TIP3    H133323   6.024   4.680   6.208
11122TIP3    H233324   6.118   4.798   6.221
11123TIP3   OH233325   7.991   1.804   3.659
11123TIP3    H133326   7.962   1.879   3.609
11123TIP3    H233327   8.048   1.841   3.727
11124TIP3   OH233328   3.724   3.573  -0.018
11124TIP3    H133329   3.704   3.483  -0.047
11124TIP3    H233330   3.691   3.577   0.072
11125TIP3   OH233331   2.167   3.140   0.747
11125TIP3    H133332   2.186   3.081   0.820
11125TIP3    H233333   2.222   3.107   0.676
11126TIP3   OH233334   8.178   5.082   2.195
11126TIP3    H133335   8.176   5.042   2.108
11126TIP3    H233336   8.174   5.176   2.178
11127TIP3   OH233337   0.902   6.623   2.868
11127TIP3    H133338   0.851   6.545   2.844
11127TIP3    H233339   0.837   6.693   2.870
11128TIP3   OH233340   5.610   0.722   0.749
11128TIP3    H133341   5.705   0.717   0.738
11128TIP3    H233342   5.595   0.691   0.838
11129TIP3   OH233343   8.135   1.366   1.783
11129TIP3    H133344   8.195   1.380   1.709
11129TIP3    H233345   8.075   1.298   1.752
11130TIP3   OH233346   3.352   1.163   1.124
11130TIP3    H133347   3.367   1.089   1.065
11130TIP3    H233348   3.257   1.170   1.131
11131TIP3   OH233349   5.231   1.530   0.894
11131TIP3    H133350   5.259   1.496   0.809
11131TIP3    H233351   5.204   1.620   0.877
11132TIP3   OH233352   6.265   3.979   0.714
11132TIP3    H133353   6.283   3.891   0.681
11132TIP3    H233354   6.335   3.995   0.778
11133TIP3   OH233355   4.450   7.692   6.750
11133TIP3    H133356   4.380   7.715   6.688
11133TIP3    H233357   4.464   7.772   6.801
11134TIP3   OH233358   0.942   4.044   2.612
11134TIP3    H133359   0.874   4.109   2.627
11134TIP3    H233360   0.896   3.968   2.576
11135TIP3   OH233361   1.322   1.784   1.049
11135TIP3    H133362   1.325   1.740   1.134
11135TIP3    H233363   1.412   1.782   1.016
11136TIP3   OH233364   4.548   3.902   0.778
11136TIP3    H133365   4.612   3.960   0.736
11136TIP3    H233366   4.475   3.898   0.717
11137TIP3   OH233367   7.131   2.161   4.244
11137TIP3    H133368   7.215   2.194   4.211
11137TIP3    H233369   7.099   2.103   4.175
11138TIP3   OH233370   4.051   1.535   2.726
11138TIP3    H133371   4.002   1.464   2.767
11138TIP3    H233372   4.000   1.613   2.745
11139TIP3   OH233373   1.597   0.897   5.491
11139TIP3    H133374   1.682   0.908   5.532
11139TIP3    H233375   1.603   0.815   5.441
11140TIP3   OH233376   1.533   6.409   4.497
11140TIP3    H133377   1.529   6.496   4.536
11140TIP3    H233378   1.510   6.423   4.405
11141TIP3   OH233379   5.102   6.704   0.516
11141TIP3    H133380   5.049   6.628   0.541
11141TIP3    H233381   5.057   6.740   0.440
11142TIP3   OH233382   7.310   0.557   3.628
11142TIP3    H133383   7.341   0.500   3.698
11142TIP3    H233384   7.384   0.616   3.611
11143TIP3   OH233385   6.879   4.117   6.185
11143TIP3    H133386   6.887   4.078   6.098
11143TIP3    H233387   6.943   4.188   6.186
11144TIP3   OH233388   0.950   6.430   1.235
11144TIP3    H133389   0.959   6.363   1.304
11144TIP3    H233390   0.932   6.511   1.283
11145TIP3   OH233391   6.635   2.288   0.512
11145TIP3    H133392   6.697   2.264   0.580
11145TIP3    H233393   6.663   2.375   0.483
11146TIP3   OH233394   5.725   1.299   1.409
11146TIP3    H133395   5.733   1.207   1.436
11146TIP3    H233396   5.771   1.348   1.477
11147TIP3   OH233397   4.035   5.037   6.810
11147TIP3    H133398   4.051   5.102   6.741
11147TIP3    H233399   4.005   4.959   6.762
11148TIP3   OH233400   7.125   0.125   3.056
11148TIP3    H133401   7.159   0.209   3.027
11148TIP3    H233402   7.031   0.140   3.068
11149TIP3   OH233403   3.961   1.239   1.228
11149TIP3    H133404   3.982   1.166   1.286
11149TIP3    H233405   3.948   1.198   1.142
11150TIP3   OH233406   5.849   0.057   6.171
11150TIP3    H133407   5.848   0.032   6.263
11150TIP3    H233408   5.938   0.088   6.155
11151TIP3   OH233409   4.283   3.059   5.231
11151TIP3    H133410   4.374   3.084   5.248
11151TIP3    H233411   4.235   3.141   5.236
11152TIP3   OH233412   4.358   6.526   0.850
11152TIP3    H133413   4.414   6.523   0.773
11152TIP3    H233414   4.384   6.605   0.897
11153TIP3   OH233415   2.415   3.802   2.151
11153TIP3    H133416   2.421   3.762   2.065
11153TIP3    H233417   2.452   3.737   2.211
11154TIP3   OH233418   3.309   4.070   6.693
11154TIP3    H133419   3.321   3.975   6.690
11154TIP3    H233420   3.392   4.106   6.662
11155TIP3   OH233421   6.363   7.223   5.196
11155TIP3    H133422   6.395   7.256   5.280
11155TIP3    H233423   6.387   7.131   5.196
11156TIP3   OH233424   0.729   0.331   2.247
11156TIP3    H133425   0.691   0.284   2.321
11156TIP3    H233426   0.739   0.421   2.278
11157TIP3   OH233427   0.974   4.624   2.076
11157TIP3    H133428   1.018   4.543   2.049
11157TIP3    H233429   0.889   4.596   2.111
11158TIP3   OH233430   3.174   3.139   3.140
11158TIP3    H133431   3.137   3.225   3.162
11158TIP3    H233432   3.129   3.078   3.198
11159TIP3   OH233433   0.248   1.028   6.185
11159TIP3    H133434   0.307   0.955   6.165
11159TIP3    H233435   0.160   0.990   6.180
11160TIP3   OH233436   5.750   2.185   5.987
11160TIP3    H133437   5.768   2.105   5.937
11160TIP3    H233438   5.657   2.203   5.969
11161TIP3   OH233439   6.752   5.535   0.365
11161TIP3    H133440   6.671   5.487   0.383
11161TIP3    H233441   6.771   5.515   0.273
11162TIP3   OH233442   1.565   1.042   6.678
11162TIP3    H133443   1.523   1.095   6.745
11162TIP3    H233444   1.658   1.064   6.685
11163TIP3   OH233445   2.315   0.733   1.616
11163TIP3    H133446   2.356   0.649   1.596
11163TIP3    H233447   2.277   0.721   1.703
11164TIP3   OH233448   4.365   5.527   1.247
11164TIP3    H133449   4.322   5.561   1.326
11164TIP3    H233450   4.334   5.437   1.240
11165TIP3   OH233451   6.044   6.595   0.917
11165TIP3    H133452   6.069   6.670   0.971
11165TIP3    H233453   6.054   6.519   0.975
11166TIP3   OH233454   1.125   5.961   6.456
11166TIP3    H133455   1.077   5.880   6.441
11166TIP3    H233456   1.203   5.954   6.402
11167TIP3   OH233457   6.185   3.296   1.844
11167TIP3    H133458   6.169   3.381   1.804
11167TIP3    H233459   6.261   3.311   1.901
11168TIP3   OH233460   6.036   5.961   6.099
11168TIP3    H133461   5.947   5.974   6.134
11168TIP3    H233462   6.086   5.926   6.172
11169TIP3   OH233463   3.220   5.725   2.526
11169TIP3    H133464   3.299   5.764   2.488
11169TIP3    H233465   3.245   5.635   2.547
11170TIP3   OH233466   3.757   5.947   5.201
11170TIP3    H133467   3.809   6.019   5.237
11170TIP3    H233468   3.744   5.887   5.275
11171TIP3   OH233469   2.449   5.792   1.396
11171TIP3    H133470   2.388   5.844   1.448
11171TIP3    H233471   2.535   5.816   1.431
11172TIP3   OH233472   7.928   7.055   4.519
11172TIP3    H133473   7.988   7.128   4.535
11172TIP3    H233474   7.921   7.050   4.424
11173TIP3   OH233475   4.786   7.833   3.927
11173TIP3    H133476   4.732   7.879   3.863
11173TIP3    H233477   4.734   7.757   3.953
11174TIP3   OH233478   1.684   7.672   4.045
11174TIP3    H133479   1.705   7.677   3.952
11174TIP3    H233480   1.765   7.640   4.086
11175TIP3   OH233481   8.211   0.244   2.373
11175TIP3    H133482   8.274   0.181   2.409
11175TIP3    H233483   8.142   0.250   2.439
11176TIP3   OH233484   0.936   2.283   4.726
11176TIP3    H133485   1.011   2.223   4.730
11176TIP3    H233486   0.934   2.312   4.635
11177TIP3   OH233487   0.064   7.717   6.101
11177TIP3    H133488  -0.030   7.733   6.111
11177TIP3    H233489   0.073   7.622   6.108
11178TIP3   OH233490   4.503   4.964   1.284
11178TIP3    H133491   4.467   4.906   1.217
11178TIP3    H233492   4.507   5.050   1.242
11179TIP3   OH233493   6.196   5.780   4.783
11179TIP3    H133494   6.246   5.811   4.859
11179TIP3    H233495   6.200   5.685   4.789
11180TIP3   OH233496   5.341   1.499   1.714
11180TIP3    H133497   5.374   1.456   1.793
11180TIP3    H233498   5.418   1.542   1.677
11181TIP3   OH233499   3.993   2.687   2.194
11181TIP3    H133500   4.057   2.672   2.264
11181TIP3    H233501   4.044   2.680   2.113
11182TIP3   OH233502   0.369   4.901   4.728
11182TIP3    H133503   0.377   4.870   4.818
11182TIP3    H233504   0.323   4.985   4.736
11183TIP3   OH233505   3.851   2.173   4.699
11183TIP3    H133506   3.848   2.135   4.611
11183TIP3    H233507   3.760   2.193   4.719
11184TIP3   OH233508   1.767   4.560   6.663
11184TIP3    H133509   1.771   4.563   6.567
11184TIP3    H233510   1.690   4.505   6.681
11185TIP3   OH233511   3.578   4.494   1.416
11185TIP3    H133512   3.526   4.570   1.388
11185TIP3    H233513   3.513   4.427   1.436
11186TIP3   OH233514   2.787   7.784   4.155
11186TIP3    H133515   2.751   7.785   4.066
11186TIP3    H233516   2.713   7.805   4.212
11187TIP3   OH233517   2.337   7.374   4.757
11187TIP3    H133518   2.369   7.289   4.787
11187TIP3    H233519   2.408   7.409   4.703
11188TIP3   OH233520   3.415   7.245   5.662
11188TIP3    H133521   3.346   7.288   5.712
11188TIP3    H233522   3.467   7.198   5.727
11189TIP3   OH233523   0.440   7.285   5.597
11189TIP3    H133524   0.494   7.324   5.666
11189TIP3    H233525   0.365   7.345   5.588
11190TIP3   OH233526   3.356   1.099   3.262
11190TIP3    H133527   3.371   1.148   3.344
11190TIP3    H233528   3.304   1.023   3.289
11191TIP3   OH233529   7.777   3.772   1.881
11191TIP3    H133530   7.816   3.724   1.954
11191TIP3    H233531   7.852   3.798   1.827
11192TIP3   OH233532   4.716   3.880   4.737
11192TIP3    H133533   4.669   3.893   4.819
11192TIP3    H233534   4.805   3.911   4.755
11193TIP3   OH233535   4.817   5.109   5.614
11193TIP3    H133536   4.858   5.024   5.628
11193TIP3    H233537   4.891   5.169   5.601
11194TIP3   OH233538   7.733   5.840   6.455
11194TIP3    H133539   7.741   5.935   6.463
11194TIP3    H233540   7.771   5.807   6.536
11195TIP3   OH233541   2.597   6.624   4.920
11195TIP3    H133542   2.579   6.718   4.913
11195TIP3    H233543   2.685   6.619   4.956
11196TIP3   OH233544   3.899   4.644   0.013
11196TIP3    H133545   3.947   4.709   0.064
11196TIP3    H233546   3.967   4.584  -0.019
11197TIP3   OH233547   5.667   0.975   3.063
11197TIP3    H133548   5.663   1.071   3.057
11197TIP3    H233549   5.712   0.958   3.145
11198TIP3   OH233550   2.399   5.791   3.800
11198TIP3    H133551   2.355   5.779   3.715
11198TIP3    H233552   2.492   5.779   3.781
11199TIP3   OH233553   5.291   5.777   5.211
11199TIP3    H133554   5.327   5.694   5.241
11199TIP3    H233555   5.304   5.775   5.116
11200TIP3   OH233556   7.095   5.612   1.933
11200TIP3    H133557   7.015   5.614   1.881
11200TIP3    H233558   7.105   5.520   1.959
11201TIP3   OH233559   0.787   4.629   5.538
11201TIP3    H133560   0.859   4.588   5.489
11201TIP3    H233561   0.709   4.581   5.509
11202TIP3   OH233562   5.892   1.194   0.332
11202TIP3    H133563   5.979   1.163   0.306
11202TIP3    H233564   5.898   1.290   0.326
11203TIP3   OH233565   5.987   0.572   6.788
11203TIP3    H133566   6.077   0.605   6.785
11203TIP3    H233567   5.949   0.600   6.705
11204TIP3   OH233568   4.802   6.278   3.951
11204TIP3    H133569   4.864   6.325   4.008
11204TIP3    H233570   4.849   6.198   3.926
11205TIP3   OH233571   2.352   1.029   1.722
11205TIP3    H133572   2.413   0.956   1.732
11205TIP3    H233573   2.278   1.006   1.778
11206TIP3   OH233574   0.198   2.093   1.909
11206TIP3    H133575   0.229   2.008   1.942
11206TIP3    H233576   0.110   2.075   1.877
11207TIP3   OH233577   4.200   5.318   0.198
11207TIP3    H133578   4.282   5.366   0.191
11207TIP3    H233579   4.133   5.382   0.172
11208TIP3   OH233580   5.867   6.893   5.391
11208TIP3    H133581   5.962   6.903   5.383
11208TIP3    H233582   5.831   6.951   5.323
11209TIP3   OH233583   6.490   2.088   4.737
11209TIP3    H133584   6.510   1.997   4.715
11209TIP3    H233585   6.487   2.133   4.652
11210TIP3   OH233586   5.970   0.665   3.305
11210TIP3    H133587   5.995   0.703   3.389
11210TIP3    H233588   5.936   0.739   3.255
11211TIP3   OH233589   0.113   7.484   5.452
11211TIP3    H133590   0.046   7.529   5.504
11211TIP3    H233591   0.078   7.482   5.363
11212TIP3   OH233592   0.463   3.207   3.419
11212TIP3    H133593   0.538   3.228   3.475
11212TIP3    H233594   0.451   3.284   3.364
11213TIP3   OH233595   3.244   3.612   1.759
11213TIP3    H133596   3.232   3.518   1.773
11213TIP3    H233597   3.337   3.621   1.740
11214TIP3   OH233598   2.975   3.622   1.015
11214TIP3    H133599   2.891   3.614   0.970
11214TIP3    H233600   2.963   3.695   1.076
11215TIP3   OH233601   0.680   0.057   4.238
11215TIP3    H133602   0.690   0.148   4.266
11215TIP3    H233603   0.602   0.056   4.183
11216TIP3   OH233604   0.379   4.010   5.743
11216TIP3    H133605   0.377   4.004   5.838
11216TIP3    H233606   0.472   4.002   5.721
11217TIP3   OH233607   3.373   2.408   4.035
11217TIP3    H133608   3.377   2.328   4.088
11217TIP3    H233609   3.280   2.427   4.026
11218TIP3   OH233610   6.246   5.857   1.275
11218TIP3    H133611   6.151   5.845   1.277
11218TIP3    H233612   6.258   5.951   1.270
11219TIP3   OH233613   4.808   6.426   3.693
11219TIP3    H133614   4.797   6.517   3.719
11219TIP3    H233615   4.807   6.377   3.775
11220TIP3   OH233616   3.532   0.065   1.129
11220TIP3    H133617   3.506   0.051   1.038
11220TIP3    H233618   3.496  -0.009   1.177
11221TIP3   OH233619   5.957   6.011   1.090
11221TIP3    H133620   6.012   6.078   1.132
11221TIP3    H233621   5.962   5.936   1.149
11222TIP3   OH233622   6.352   2.784   1.419
11222TIP3    H133623   6.400   2.754   1.495
11222TIP3    H233624   6.361   2.713   1.355
11223TIP3   OH233625   6.021   4.716   0.512
11223TIP3    H133626   6.112   4.731   0.537
11223TIP3    H233627   5.989   4.803   0.485
11224TIP3   OH233628   6.536   7.396   1.770
11224TIP3    H133629   6.596   7.338   1.725
11224TIP3    H233630   6.570   7.402   1.859
11225TIP3   OH233631   2.371   1.078   1.443
11225TIP3    H133632   2.362   1.046   1.533
11225TIP3    H233633   2.347   1.003   1.388
11226TIP3   OH233634   0.501   4.157   4.805
11226TIP3    H133635   0.571   4.122   4.860
11226TIP3    H233636   0.517   4.251   4.802
11227TIP3   OH233637   2.932   3.339   1.184
11227TIP3    H133638   2.841   3.357   1.206
11227TIP3    H233639   2.983   3.391   1.246
11228TIP3   OH233640   6.664   3.455   1.364
11228TIP3    H133641   6.628   3.396   1.298
11228TIP3    H233642   6.622   3.539   1.346
11229TIP3   OH233643   0.342   1.629   3.388
11229TIP3    H133644   0.363   1.720   3.410
11229TIP3    H233645   0.289   1.635   3.309
11230TIP3   OH233646   0.688   5.786   2.269
11230TIP3    H133647   0.640   5.704   2.273
11230TIP3    H233648   0.663   5.825   2.185
11231TIP3   OH233649   2.849   5.459   5.113
11231TIP3    H133650   2.876   5.549   5.126
11231TIP3    H233651   2.763   5.466   5.072
11232TIP3   OH233652   6.960   4.584   0.971
11232TIP3    H133653   6.901   4.512   0.948
11232TIP3    H233654   7.039   4.567   0.920
11233TIP3   OH233655   2.235   2.281   6.764
11233TIP3    H133656   2.158   2.267   6.818
11233TIP3    H233657   2.203   2.277   6.674
11234TIP3   OH233658   6.046   4.608   2.175
11234TIP3    H133659   6.054   4.689   2.124
11234TIP3    H233660   6.041   4.638   2.266
11235TIP3   OH233661   2.479   2.801   2.657
11235TIP3    H133662   2.416   2.847   2.713
11235TIP3    H233663   2.550   2.864   2.644
11236TIP3   OH233664   6.539   7.231   5.436
11236TIP3    H133665   6.575   7.191   5.515
11236TIP3    H233666   6.608   7.222   5.370
11237TIP3   OH233667   4.174   0.615   5.711
11237TIP3    H133668   4.173   0.711   5.714
11237TIP3    H233669   4.180   0.589   5.803
11238TIP3   OH233670   2.646   6.666   2.847
11238TIP3    H133671   2.701   6.659   2.769
11238TIP3    H233672   2.601   6.582   2.853
11239TIP3   OH233673   7.108   3.322   0.270
11239TIP3    H133674   7.016   3.316   0.245
11239TIP3    H233675   7.127   3.416   0.270
11240TIP3   OH233676   1.650   2.926   2.417
11240TIP3    H133677   1.574   2.976   2.387
11240TIP3    H233678   1.621   2.883   2.498
11241TIP3   OH233679   0.915   7.576   3.443
11241TIP3    H133680   0.965   7.656   3.461
11241TIP3    H233681   0.859   7.564   3.519
11242TIP3   OH233682   7.032   1.125   5.659
11242TIP3    H133683   7.001   1.215   5.655
11242TIP3    H233684   7.014   1.098   5.750
11243TIP3   OH233685   3.294   1.493   2.155
11243TIP3    H133686   3.280   1.568   2.096
11243TIP3    H233687   3.332   1.532   2.234
11244TIP3   OH233688   2.712   4.310   0.375
11244TIP3    H133689   2.783   4.369   0.348
11244TIP3    H233690   2.756   4.226   0.393
11245TIP3   OH233691   4.106   1.386   3.008
11245TIP3    H133692   4.192   1.367   3.044
11245TIP3    H233693   4.074   1.302   2.976
11246TIP3   OH233694   7.950   5.335   0.204
11246TIP3    H133695   7.903   5.408   0.244
11246TIP3    H233696   7.959   5.360   0.112
11247TIP3   OH233697   2.192   6.398   1.731
11247TIP3    H133698   2.113   6.409   1.679
11247TIP3    H233699   2.252   6.466   1.700
11248TIP3   OH233700   5.364   3.704   0.369
11248TIP3    H133701   5.452   3.697   0.408
11248TIP3    H233702   5.305   3.704   0.444
11249TIP3   OH233703   4.417   4.202   4.049
11249TIP3    H133704   4.500   4.246   4.033
11249TIP3    H233705   4.436   4.140   4.119
11250TIP3   OH233706   6.093   6.380   4.953
11250TIP3    H133707   6.091   6.355   4.860
11250TIP3    H233708   6.052   6.466   4.955
11251TIP3   OH233709   2.873   6.106   3.437
11251TIP3    H133710   2.856   6.126   3.530
11251TIP3    H233711   2.863   6.011   3.430
11252TIP3   OH233712   4.681   5.866   4.612
11252TIP3    H133713   4.703   5.959   4.600
11252TIP3    H233714   4.737   5.838   4.685
11253TIP3   OH233715   4.813   4.885   0.904
11253TIP3    H133716   4.792   4.953   0.968
11253TIP3    H233717   4.728   4.845   0.883
11254TIP3   OH233718   5.556   1.595   1.592
11254TIP3    H133719   5.575   1.651   1.517
11254TIP3    H233720   5.625   1.528   1.591
11255TIP3   OH233721   8.225   5.036   1.910
11255TIP3    H133722   8.246   5.050   1.818
11255TIP3    H233723   8.276   5.101   1.957
11256TIP3   OH233724   4.270   2.971   5.668
11256TIP3    H133725   4.245   2.884   5.699
11256TIP3    H233726   4.267   2.964   5.573
11257TIP3   OH233727   2.246   3.874   4.366
11257TIP3    H133728   2.299   3.933   4.313
11257TIP3    H233729   2.254   3.789   4.324
11258TIP3   OH233730   3.172   3.810   4.035
11258TIP3    H133731   3.149   3.763   3.955
11258TIP3    H233732   3.089   3.823   4.080
11259TIP3   OH233733   6.882   1.458   3.287
11259TIP3    H133734   6.828   1.535   3.306
11259TIP3    H233735   6.972   1.489   3.297
11260TIP3   OH233736   0.652   4.595   3.129
11260TIP3    H133737   0.564   4.632   3.134
11260TIP3    H233738   0.669   4.560   3.216
11261TIP3   OH233739   0.074   1.946   6.556
11261TIP3    H133740   0.031   2.029   6.535
11261TIP3    H233741   0.122   1.963   6.636
11262TIP3   OH233742   0.324   2.628   0.620
11262TIP3    H133743   0.301   2.718   0.641
11262TIP3    H233744   0.301   2.578   0.699
11263TIP3   OH233745   0.973   2.836   5.431
11263TIP3    H133746   0.914   2.863   5.502
11263TIP3    H233747   0.916   2.824   5.356
11264TIP3   OH233748   7.033   6.992   0.922
11264TIP3    H133749   7.018   7.033   1.007
11264TIP3    H233750   6.957   6.936   0.908
11265TIP3   OH233751   3.853   7.834   1.873
11265TIP3    H133752   3.799   7.814   1.796
11265TIP3    H233753   3.826   7.770   1.938
11266TIP3   OH233754   5.043   0.570   0.347
11266TIP3    H133755   5.110   0.624   0.389
11266TIP3    H233756   5.021   0.503   0.412
11267TIP3   OH233757   1.353   3.380   6.410
11267TIP3    H133758   1.274   3.339   6.376
11267TIP3    H233759   1.425   3.327   6.375
11268TIP3   OH233760   1.610   1.896   5.451
11268TIP3    H133761   1.701   1.884   5.426
11268TIP3    H233762   1.577   1.808   5.468
11269TIP3   OH233763   7.530   3.014   0.030
11269TIP3    H133764   7.443   2.978   0.011
11269TIP3    H233765   7.567   2.953   0.094
11270TIP3   OH233766   2.326   5.288   4.215
11270TIP3    H133767   2.293   5.206   4.252
11270TIP3    H233768   2.421   5.283   4.226
11271TIP3   OH233769   4.357   1.832   4.502
11271TIP3    H133770   4.336   1.773   4.430
11271TIP3    H233771   4.443   1.803   4.533
11272TIP3   OH233772   6.192   3.416   3.498
11272TIP3    H133773   6.168   3.454   3.414
11272TIP3    H233774   6.122   3.353   3.517
11273TIP3   OH233775   5.130   2.220   4.742
11273TIP3    H133776   5.054   2.197   4.795
11273TIP3    H233777   5.115   2.179   4.657
11274TIP3   OH233778   5.745   5.657   2.852
11274TIP3    H133779   5.726   5.648   2.758
11274TIP3    H233780   5.826   5.708   2.856
11275TIP3   OH233781   7.296   5.410   2.518
11275TIP3    H133782   7.356   5.393   2.446
11275TIP3    H233783   7.349   5.402   2.597
11276TIP3   OH233784   3.497   2.915   3.309
11276TIP3    H133785   3.538   2.842   3.356
11276TIP3    H233786   3.422   2.876   3.265
11277TIP3   OH233787   2.172   0.454   1.524
11277TIP3    H133788   2.147   0.452   1.617
11277TIP3    H233789   2.121   0.526   1.487
11278TIP3   OH233790   0.620   4.273   1.707
11278TIP3    H133791   0.532   4.310   1.707
11278TIP3    H233792   0.611   4.187   1.749
11279TIP3   OH233793   3.651   0.595   4.630
11279TIP3    H133794   3.653   0.631   4.719
11279TIP3    H233795   3.568   0.547   4.625
11280TIP3   OH233796   7.752   4.826   5.184
11280TIP3    H133797   7.754   4.874   5.102
11280TIP3    H233798   7.830   4.771   5.182
11281TIP3   OH233799   7.600   4.827   0.924
11281TIP3    H133800   7.684   4.860   0.892
11281TIP3    H233801   7.590   4.868   1.011
11282TIP3   OH233802   2.576   4.313   4.171
11282TIP3    H133803   2.620   4.284   4.250
11282TIP3    H233804   2.645   4.314   4.104
11283TIP3   OH233805   4.698   4.872   4.371
11283TIP3    H133806   4.751   4.947   4.346
11283TIP3    H233807   4.735   4.799   4.321
11284TIP3   OH233808   5.308   3.184   2.620
11284TIP3    H133809   5.229   3.138   2.591
11284TIP3    H233810   5.278   3.273   2.638
11285TIP3   OH233811   5.134   1.782   0.891
11285TIP3    H133812   5.131   1.877   0.881
11285TIP3    H233813   5.045   1.753   0.872
11286TIP3   OH233814   0.760   7.101   1.948
11286TIP3    H133815   0.759   7.187   1.908
11286TIP3    H233816   0.837   7.058   1.912
11287TIP3   OH233817   4.299   2.241   5.269
11287TIP3    H133818   4.312   2.323   5.316
11287TIP3    H233819   4.230   2.261   5.205
11288TIP3   OH233820   2.632   1.879  -0.010
11288TIP3    H133821   2.702   1.861   0.053
11288TIP3    H233822   2.592   1.960   0.022
11289TIP3   OH233823   1.271   3.736   1.453
11289TIP3    H133824   1.315   3.651   1.448
11289TIP3    H233825   1.319   3.791   1.391
11290TIP3   OH233826   0.760   0.927   3.798
11290TIP3    H133827   0.783   0.872   3.723
11290TIP3    H233828   0.703   0.872   3.851
11291TIP3   OH233829   3.065   6.299   2.800
11291TIP3    H133830   3.091   6.248   2.723
11291TIP3    H233831   3.052   6.388   2.766
11292TIP3   OH233832   3.381   2.249   5.066
11292TIP3    H133833   3.454   2.300   5.099
11292TIP3    H233834   3.386   2.258   4.971
11293TIP3   OH233835   7.647   0.076   5.832
11293TIP3    H133836   7.558   0.059   5.800
11293TIP3    H233837   7.702   0.016   5.783
11294TIP3   OH233838   6.843   1.292   3.055
11294TIP3    H133839   6.852   1.353   3.127
11294TIP3    H233840   6.932   1.283   3.019
11295TIP3   OH233841   5.361   2.825   5.954
11295TIP3    H133842   5.337   2.813   5.862
11295TIP3    H233843   5.330   2.913   5.975
11296TIP3   OH233844   6.573   1.330   0.720
11296TIP3    H133845   6.514   1.402   0.696
11296TIP3    H233846   6.539   1.298   0.803
11297TIP3   OH233847   7.949   2.547   5.433
11297TIP3    H133848   7.884   2.479   5.453
11297TIP3    H233849   7.974   2.530   5.342
11298TIP3   OH233850   4.205   2.073   0.361
11298TIP3    H133851   4.225   2.167   0.369
11298TIP3    H233852   4.259   2.031   0.428
11299TIP3   OH233853   3.646   6.685   2.898
11299TIP3    H133854   3.609   6.662   2.983
11299TIP3    H233855   3.706   6.613   2.878
11300TIP3   OH233856   4.965   4.414   6.748
11300TIP3    H133857   4.945   4.393   6.840
11300TIP3    H233858   5.021   4.342   6.719
11301TIP3   OH233859   4.866   7.231   5.075
11301TIP3    H133860   4.850   7.195   5.163
11301TIP3    H233861   4.780   7.257   5.044
11302TIP3   OH233862   5.797   6.571   1.549
11302TIP3    H133863   5.762   6.502   1.492
11302TIP3    H233864   5.889   6.578   1.526
11303TIP3   OH233865   3.742   1.847   0.640
11303TIP3    H133866   3.651   1.825   0.621
11303TIP3    H233867   3.740   1.942   0.654
11304TIP3   OH233868   1.594   5.907   2.098
11304TIP3    H133869   1.524   5.973   2.094
11304TIP3    H233870   1.553   5.832   2.143
11305TIP3   OH233871   7.199   5.720   1.163
11305TIP3    H133872   7.158   5.687   1.084
11305TIP3    H233873   7.256   5.649   1.192
11306TIP3   OH233874   7.467   1.222   5.296
11306TIP3    H133875   7.485   1.252   5.385
11306TIP3    H233876   7.409   1.288   5.259
11307TIP3   OH233877   2.664   0.137   4.263
11307TIP3    H133878   2.596   0.070   4.263
11307TIP3    H233879   2.715   0.119   4.184
11308TIP3   OH233880   3.086   6.261   4.724
11308TIP3    H133881   3.157   6.238   4.664
11308TIP3    H233882   3.025   6.311   4.671
11309TIP3   OH233883   3.468   6.451   6.543
11309TIP3    H133884   3.395   6.398   6.510
11309TIP3    H233885   3.540   6.434   6.483
11310TIP3   OH233886   3.283   5.124   4.994
11310TIP3    H133887   3.196   5.163   4.995
11310TIP3    H233888   3.268   5.030   4.984
11311TIP3   OH233889   4.300   1.290   1.065
11311TIP3    H133890   4.209   1.282   1.036
11311TIP3    H233891   4.334   1.201   1.066
11312TIP3   OH233892   3.582   2.797   4.864
11312TIP3    H133893   3.638   2.831   4.934
11312TIP3    H233894   3.494   2.796   4.903
11313TIP3   OH233895   2.103   2.915   5.164
11313TIP3    H133896   2.094   2.931   5.258
11313TIP3    H233897   2.114   3.002   5.125
11314TIP3   OH233898   2.327   4.627   5.130
11314TIP3    H133899   2.263   4.650   5.063
11314TIP3    H233900   2.406   4.675   5.106
11315TIP3   OH233901   1.548   1.928   5.777
11315TIP3    H133902   1.612   1.999   5.770
11315TIP3    H233903   1.567   1.887   5.862
11316TIP3   OH233904   1.824   0.367   2.365
11316TIP3    H133905   1.837   0.438   2.429
11316TIP3    H233906   1.909   0.324   2.360
11317TIP3   OH233907   5.646   2.358   5.499
11317TIP3    H133908   5.737   2.345   5.525
11317TIP3    H233909   5.607   2.271   5.507
11318TIP3   OH233910   6.989   1.477   4.894
11318TIP3    H133911   6.969   1.539   4.824
11318TIP3    H233912   6.919   1.411   4.888
11319TIP3   OH233913   7.310   5.595   5.137
11319TIP3    H133914   7.231   5.639   5.106
11319TIP3    H233915   7.364   5.584   5.058
11320TIP3   OH233916   2.683   6.260   1.496
11320TIP3    H133917   2.700   6.188   1.436
11320TIP3    H233918   2.737   6.332   1.464
11321TIP3   OH233919   3.739   2.657   0.710
11321TIP3    H133920   3.653   2.688   0.737
11321TIP3    H233921   3.739   2.564   0.734
11322TIP3   OH233922   7.545   5.369   1.680
11322TIP3    H133923   7.572   5.315   1.754
11322TIP3    H233924   7.479   5.317   1.635
11323TIP3   OH233925   1.017   1.518   4.420
11323TIP3    H133926   1.013   1.496   4.513
11323TIP3    H233927   0.943   1.578   4.407
11324TIP3   OH233928   3.470   2.144   3.905
11324TIP3    H133929   3.545   2.177   3.954
11324TIP3    H233930   3.420   2.093   3.969
11325TIP3   OH233931   8.107   2.870   3.540
11325TIP3    H133932   8.202   2.866   3.538
11325TIP3    H233933   8.082   2.901   3.453
11326TIP3   OH233934   0.362   1.248   2.723
11326TIP3    H133935   0.399   1.190   2.656
11326TIP3    H233936   0.272   1.217   2.735
11327TIP3   OH233937   1.347   2.067   0.354
11327TIP3    H133938   1.345   2.041   0.446
11327TIP3    H233939   1.381   1.990   0.308
11328TIP3   OH233940   5.384   2.616   0.846
11328TIP3    H133941   5.442   2.672   0.794
11328TIP3    H233942   5.372   2.538   0.793
11329TIP3   OH233943   6.624   7.030   0.948
11329TIP3    H133944   6.599   7.122   0.962
11329TIP3    H233945   6.564   6.999   0.881
11330TIP3   OH233946   7.519   4.761   2.962
11330TIP3    H133947   7.497   4.800   3.047
11330TIP3    H233948   7.470   4.813   2.898
11331TIP3   OH233949   4.677   2.206   1.950
11331TIP3    H133950   4.593   2.199   1.995
11331TIP3    H233951   4.656   2.191   1.857
11332TIP3   OH233952   8.199   2.806   6.261
11332TIP3    H133953   8.216   2.795   6.354
11332TIP3    H233954   8.178   2.899   6.251
11333TIP3   OH233955   6.937   7.804   1.766
11333TIP3    H133956   6.846   7.793   1.795
11333TIP3    H233957   6.975   7.864   1.830
11334TIP3   OH233958   3.719   0.621   4.039
11334TIP3    H133959   3.776   0.674   3.982
11334TIP3    H233960   3.775   0.599   4.114
11335TIP3   OH233961   3.650   2.456   6.521
11335TIP3    H133962   3.722   2.440   6.459
11335TIP3    H233963   3.571   2.448   6.468
11336TIP3   OH233964   2.280   3.108   1.861
11336TIP3    H133965   2.192   3.131   1.834
11336TIP3    H233966   2.270   3.025   1.908
11337TIP3   OH233967   3.947   0.629   6.335
11337TIP3    H133968   4.022   0.659   6.284
11337TIP3    H233969   3.884   0.701   6.330
11338TIP3   OH233970   5.488   7.193   4.895
11338TIP3    H133971   5.580   7.167   4.883
11338TIP3    H233972   5.490   7.288   4.900
11339TIP3   OH233973   0.388   5.612   3.250
11339TIP3    H133974   0.315   5.559   3.282
11339TIP3    H233975   0.359   5.703   3.264
11340TIP3   OH233976   7.923   2.182   1.931
11340TIP3    H133977   7.833   2.191   1.900
11340TIP3    H233978   7.922   2.220   2.019
11341TIP3   OH233979   4.438   3.502   4.304
11341TIP3    H133980   4.504   3.473   4.241
11341TIP3    H233981   4.397   3.422   4.335
11342TIP3   OH233982   1.406   6.136   3.703
11342TIP3    H133983   1.398   6.056   3.754
11342TIP3    H233984   1.325   6.141   3.652
11343TIP3   OH233985   2.204   1.032   3.316
11343TIP3    H133986   2.222   1.016   3.409
11343TIP3    H233987   2.109   1.033   3.311
11344TIP3   OH233988   3.774   2.962   3.886
11344TIP3    H133989   3.829   2.973   3.809
11344TIP3    H233990   3.713   2.891   3.863
11345TIP3   OH233991   0.522   2.573   3.169
11345TIP3    H133992   0.570   2.645   3.209
11345TIP3    H233993   0.462   2.543   3.237
11346TIP3   OH233994   8.230   4.711   6.094
11346TIP3    H133995   8.219   4.688   6.002
11346TIP3    H233996   8.289   4.786   6.093
11347TIP3   OH233997   1.356   1.272   6.312
11347TIP3    H133998   1.304   1.222   6.249
11347TIP3    H233999   1.435   1.295   6.264
11348TIP3   OH234000   3.790   1.403   6.207
11348TIP3    H134001   3.873   1.359   6.191
11348TIP3    H234002   3.768   1.443   6.123
11349TIP3   OH234003   5.040   3.025   3.504
11349TIP3    H134004   4.997   2.947   3.468
11349TIP3    H234005   5.108   2.991   3.562
11350TIP3   OH234006   6.889   3.463   2.391
11350TIP3    H134007   6.872   3.402   2.320
11350TIP3    H234008   6.805   3.506   2.407
11351TIP3   OH234009   5.361   0.258   4.673
11351TIP3    H134010   5.315   0.278   4.591
11351TIP3    H234011   5.400   0.342   4.699
11352TIP3   OH234012   4.474   7.346   4.213
11352TIP3    H134013   4.532   7.398   4.268
11352TIP3    H234014   4.440   7.279   4.272
11353TIP3   OH234015   5.755   1.825   3.676
11353TIP3    H134016   5.829   1.880   3.652
11353TIP3    H234017   5.791   1.764   3.740
11354TIP3   OH234018   1.297   6.366   4.644
11354TIP3    H134019   1.368   6.370   4.581
11354TIP3    H234020   1.222   6.335   4.594
11355TIP3   OH234021   3.865   7.540   2.816
11355TIP3    H134022   3.852   7.468   2.755
11355TIP3    H234023   3.791   7.535   2.876
11356TIP3   OH234024   7.305   3.993   1.647
11356TIP3    H134025   7.353   4.072   1.670
11356TIP3    H234026   7.300   3.994   1.552
11357TIP3   OH234027   6.211   5.336   0.878
11357TIP3    H134028   6.179   5.250   0.906
11357TIP3    H234029   6.301   5.340   0.910
11358TIP3   OH234030   0.646   4.987   4.454
11358TIP3    H134031   0.587   5.049   4.495
11358TIP3    H234032   0.617   4.901   4.484
11359TIP3   OH234033   4.312   4.626   0.107
11359TIP3    H134034   4.320   4.697   0.171
11359TIP3    H234035   4.317   4.546   0.159
11360TIP3   OH234036   8.027   6.844   1.880
11360TIP3    H134037   7.963   6.859   1.949
11360TIP3    H234038   8.112   6.854   1.924
11361TIP3   OH234039   5.838   1.034   1.276
11361TIP3    H134040   5.771   0.979   1.315
11361TIP3    H234041   5.900   1.051   1.347
11362TIP3   OH234042   0.288   3.026   5.320
11362TIP3    H134043   0.336   3.108   5.333
11362TIP3    H234044   0.227   3.022   5.393
11363TIP3   OH234045   3.389   2.172   5.404
11363TIP3    H134046   3.383   2.195   5.311
11363TIP3    H234047   3.361   2.081   5.407
11364TIP3   OH234048   0.468   5.778   6.404
11364TIP3    H134049   0.402   5.722   6.363
11364TIP3    H234050   0.420   5.831   6.466
11365TIP3   OH234051   2.375   0.708   4.633
11365TIP3    H134052   2.448   0.647   4.644
11365TIP3    H234053   2.358   0.707   4.539
11366TIP3   OH234054   6.594   1.965   5.490
11366TIP3    H134055   6.605   1.939   5.398
11366TIP3    H234056   6.548   1.891   5.530
11367TIP3   OH234057   0.827   7.291   2.646
11367TIP3    H134058   0.806   7.242   2.726
11367TIP3    H234059   0.884   7.232   2.597
11368TIP3   OH234060   4.966   1.688   4.509
11368TIP3    H134061   4.958   1.632   4.586
11368TIP3    H234062   5.046   1.659   4.466
11369TIP3   OH234063   4.595   5.221   0.631
11369TIP3    H134064   4.598   5.304   0.679
11369TIP3    H234065   4.558   5.245   0.546
11370TIP3   OH234066   1.569   2.885   3.978
11370TIP3    H134067   1.615   2.809   4.014
11370TIP3    H234068   1.481   2.880   4.015
11371TIP3   OH234069   3.850   5.240   3.868
11371TIP3    H134070   3.895   5.197   3.941
11371TIP3    H234071   3.920   5.265   3.808
11372TIP3   OH234072   6.050   5.143   4.530
11372TIP3    H134073   6.131   5.105   4.497
11372TIP3    H234074   6.058   5.139   4.626
11373TIP3   OH234075   7.998   2.085   5.286
11373TIP3    H134076   7.999   2.125   5.373
11373TIP3    H234077   7.908   2.096   5.255
11374TIP3   OH234078   0.344   2.267   2.391
11374TIP3    H134079   0.316   2.299   2.476
11374TIP3    H234080   0.266   2.272   2.336
11375TIP3   OH234081   1.648   7.625   6.169
11375TIP3    H134082   1.574   7.580   6.210
11375TIP3    H234083   1.639   7.605   6.076
11376TIP3   OH234084   1.609   1.429   6.288
11376TIP3    H134085   1.598   1.397   6.377
11376TIP3    H234086   1.556   1.508   6.284
11377TIP3   OH234087   3.137   5.273   2.557
11377TIP3    H134088   3.044   5.292   2.545
11377TIP3    H234089   3.147   5.183   2.527
11378TIP3   OH234090   0.623   7.628   2.366
11378TIP3    H134091   0.643   7.548   2.415
11378TIP3    H234092   0.640   7.605   2.275
11379TIP3   OH234093   5.063   6.875   0.727
11379TIP3    H134094   5.086   6.824   0.805
11379TIP3    H234095   5.091   6.819   0.654
11380TIP3   OH234096   6.424   6.741   1.121
11380TIP3    H134097   6.391   6.816   1.072
11380TIP3    H234098   6.345   6.690   1.141
11381TIP3   OH234099   0.590   3.289   1.380
11381TIP3    H134100   0.526   3.334   1.325
11381TIP3    H234101   0.542   3.214   1.416
11382TIP3   OH234102   2.358   2.741   4.687
11382TIP3    H134103   2.429   2.700   4.735
11382TIP3    H234104   2.308   2.788   4.753
11383TIP3   OH234105   1.921   5.822   4.376
11383TIP3    H134106   2.003   5.790   4.412
11383TIP3    H234107   1.906   5.906   4.419
11384TIP3   OH234108   1.067   5.803   5.278
11384TIP3    H134109   1.041   5.840   5.363
11384TIP3    H234110   1.154   5.838   5.262
11385TIP3   OH234111   4.541   0.066   2.225
11385TIP3    H134112   4.605   0.136   2.229
11385TIP3    H234113   4.469   0.102   2.172
11386TIP3   OH234114   5.474   7.531   1.227
11386TIP3    H134115   5.400   7.517   1.169
11386TIP3    H234116   5.441   7.593   1.293
11387TIP3   OH234117   2.069   0.992   4.163
11387TIP3    H134118   1.982   0.954   4.176
11387TIP3    H234119   2.068   1.073   4.214
11388TIP3   OH234120   2.042   0.328   0.623
11388TIP3    H134121   2.101   0.269   0.576
11388TIP3    H234122   1.969   0.272   0.650
11389TIP3   OH234123   6.538   1.917   1.679
11389TIP3    H134124   6.589   1.997   1.667
11389TIP3    H234125   6.482   1.936   1.755
11390TIP3   OH234126   4.686   3.505   6.133
11390TIP3    H134127   4.654   3.565   6.067
11390TIP3    H234128   4.612   3.491   6.192
11391TIP3   OH234129   1.484   1.280   3.442
11391TIP3    H134130   1.535   1.287   3.523
11391TIP3    H234131   1.547   1.251   3.377
11392TIP3   OH234132   5.601   7.585   1.791
11392TIP3    H134133   5.588   7.587   1.696
11392TIP3    H234134   5.673   7.524   1.805
11393TIP3   OH234135   1.486   4.743   5.083
11393TIP3    H134136   1.494   4.648   5.075
11393TIP3    H234137   1.425   4.768   5.014
11394TIP3   OH234138   0.877   2.301   3.863
11394TIP3    H134139   0.891   2.350   3.782
11394TIP3    H234140   0.785   2.275   3.859
11395TIP3   OH234141   8.245   3.725   4.904
11395TIP3    H134142   8.154   3.706   4.883
11395TIP3    H234143   8.264   3.671   4.980
11396TIP3   OH234144   1.265   7.431   6.120
11396TIP3    H134145   1.312   7.430   6.036
11396TIP3    H234146   1.195   7.367   6.109
11397TIP3   OH234147   1.237   3.463   0.553
11397TIP3    H134148   1.165   3.517   0.522
11397TIP3    H234149   1.254   3.402   0.482
11398TIP3   OH234150   1.399   6.442   1.863
11398TIP3    H134151   1.440   6.487   1.789
11398TIP3    H234152   1.313   6.483   1.871
11399TIP3   OH234153   3.302   6.598   6.247
11399TIP3    H134154   3.209   6.584   6.268
11399TIP3    H234155   3.324   6.681   6.289
11400TIP3   OH234156   1.596   7.370   3.965
11400TIP3    H134157   1.599   7.404   4.054
11400TIP3    H234158   1.505   7.342   3.953
11401TIP3   OH234159   7.909   0.324   2.885
11401TIP3    H134160   7.900   0.236   2.847
11401TIP3    H234161   7.908   0.383   2.810
11402TIP3   OH234162   0.031   7.593   0.315
11402TIP3    H134163   0.024   7.671   0.260
11402TIP3    H234164   0.052   7.628   0.403
11403TIP3   OH234165   5.185   6.821   0.992
11403TIP3    H134166   5.135   6.793   1.068
11403TIP3    H234167   5.232   6.743   0.964
11404TIP3   OH234168   7.929   1.060   6.361
11404TIP3    H134169   7.900   1.131   6.418
11404TIP3    H234170   8.013   1.089   6.326
11405TIP3   OH234171   2.222   1.833   0.306
11405TIP3    H134172   2.127   1.839   0.297
11405TIP3    H234173   2.251   1.788   0.227
11406TIP3   OH234174   0.098   0.725   0.592
11406TIP3    H134175   0.049   0.743   0.512
11406TIP3    H234176   0.083   0.802   0.647
11407TIP3   OH234177   4.723   1.113   1.221
11407TIP3    H134178   4.815   1.134   1.235
11407TIP3    H234179   4.682   1.197   1.202
11408TIP3   OH234180   5.667   3.678   1.901
11408TIP3    H134181   5.687   3.590   1.933
11408TIP3    H234182   5.655   3.730   1.981
11409TIP3   OH234183   4.487   5.021   5.789
11409TIP3    H134184   4.473   4.965   5.712
11409TIP3    H234185   4.448   5.105   5.765
11410TIP3   OH234186   1.827   0.891   4.209
11410TIP3    H134187   1.810   0.805   4.171
11410TIP3    H234188   1.809   0.880   4.303
11411TIP3   OH234189   4.477   5.825   1.161
11411TIP3    H134190   4.514   5.739   1.182
11411TIP3    H234191   4.399   5.805   1.110
11412TIP3   OH234192   3.614   2.475   0.119
11412TIP3    H134193   3.610   2.569   0.108
11412TIP3    H234194   3.536   2.454   0.172
11413TIP3   OH234195   5.195   2.331   0.265
11413TIP3    H134196   5.217   2.240   0.244
11413TIP3    H234197   5.204   2.378   0.182
11414TIP3   OH234198   0.444   7.102   6.162
11414TIP3    H134199   0.523   7.149   6.136
11414TIP3    H234200   0.388   7.105   6.085
11415TIP3   OH234201   2.533   0.820   6.209
11415TIP3    H134202   2.491   0.806   6.294
11415TIP3    H234203   2.620   0.782   6.219
11416TIP3   OH234204   8.189   3.354   3.705
11416TIP3    H134205   8.272   3.309   3.720
11416TIP3    H234206   8.193   3.384   3.615
11417TIP3   OH234207   2.559   5.368   3.260
11417TIP3    H134208   2.535   5.361   3.168
11417TIP3    H234209   2.636   5.425   3.261
11418TIP3   OH234210   7.121   2.622   0.792
11418TIP3    H134211   7.107   2.592   0.881
11418TIP3    H234212   7.036   2.615   0.750
11419TIP3   OH234213   1.781   2.358   3.937
11419TIP3    H134214   1.871   2.350   3.970
11419TIP3    H234215   1.791   2.395   3.850
11420TIP3   OH234216   0.690   6.971   1.247
11420TIP3    H134217   0.734   6.899   1.291
11420TIP3    H234218   0.605   6.936   1.222
11421TIP3   OH234219   1.164   7.563   4.655
11421TIP3    H134220   1.099   7.519   4.709
11421TIP3    H234221   1.236   7.500   4.647
11422TIP3   OH234222   4.439   0.659   5.605
11422TIP3    H134223   4.487   0.723   5.657
11422TIP3    H234224   4.386   0.612   5.668
11423TIP3   OH234225   6.787   3.085   2.423
11423TIP3    H134226   6.760   2.995   2.405
11423TIP3    H234227   6.757   3.102   2.512
11424TIP3   OH234228   3.096   7.357   0.898
11424TIP3    H134229   3.136   7.334   0.982
11424TIP3    H234230   3.170   7.358   0.836
11425TIP3   OH234231   7.752   2.610   4.968
11425TIP3    H134232   7.666   2.578   4.940
11425TIP3    H234233   7.732   2.689   5.019
11426TIP3   OH234234   6.850   5.910   2.699
11426TIP3    H134235   6.815   5.913   2.610
11426TIP3    H234236   6.909   5.986   2.703
11427TIP3   OH234237   0.515   2.798   0.482
11427TIP3    H134238   0.506   2.878   0.535
11427TIP3    H234239   0.436   2.748   0.501
11428TIP3   OH234240   4.871   2.440   2.904
11428TIP3    H134241   4.843   2.412   2.991
11428TIP3    H234242   4.791   2.439   2.851
11429TIP3   OH234243   2.594   2.045   5.616
11429TIP3    H134244   2.662   2.045   5.683
11429TIP3    H234245   2.555   1.958   5.620
11430TIP3   OH234246   7.213   4.769   4.274
11430TIP3    H134247   7.203   4.838   4.209
11430TIP3    H234248   7.307   4.760   4.286
11431TIP3   OH234249   3.343   0.283   0.931
11431TIP3    H134250   3.349   0.194   0.894
11431TIP3    H234251   3.308   0.336   0.860
11432TIP3   OH234252   2.250   5.048   1.086
11432TIP3    H134253   2.282   5.056   0.996
11432TIP3    H234254   2.201   5.129   1.101
11433TIP3   OH234255   8.115   4.171   1.124
11433TIP3    H134256   8.148   4.107   1.061
11433TIP3    H234257   8.047   4.123   1.173
11434TIP3   OH234258   8.089   6.993   0.876
11434TIP3    H134259   8.036   7.045   0.816
11434TIP3    H234260   8.103   7.050   0.952
11435TIP3   OH234261   2.014   2.814   0.745
11435TIP3    H134262   1.970   2.882   0.694
11435TIP3    H234263   2.068   2.862   0.807
11436TIP3   OH234264   5.685   5.646   1.378
11436TIP3    H134265   5.640   5.610   1.302
11436TIP3    H234266   5.709   5.735   1.352
11437TIP3   OH234267   3.012   5.972   4.458
11437TIP3    H134268   3.003   6.004   4.368
11437TIP3    H234269   3.104   5.987   4.479
11438TIP3   OH234270   8.049   5.509   3.029
11438TIP3    H134271   8.032   5.561   2.950
11438TIP3    H234272   7.970   5.458   3.042
11439TIP3   OH234273   1.190   2.562   3.873
11439TIP3    H134274   1.145   2.646   3.882
11439TIP3    H234275   1.160   2.527   3.789
11440TIP3   OH234276   6.875   1.703   2.701
11440TIP3    H134277   6.955   1.727   2.747
11440TIP3    H234278   6.845   1.623   2.743
11441TIP3   OH234279   1.248   6.938   5.618
11441TIP3    H134280   1.314   6.871   5.632
11441TIP3    H234281   1.288   7.019   5.650
11442TIP3   OH234282   0.905   0.724   5.742
11442TIP3    H134283   0.872   0.803   5.698
11442TIP3    H234284   0.920   0.751   5.832
11443TIP3   OH234285   2.035   6.696   3.418
11443TIP3    H134286   1.952   6.647   3.414
11443TIP3    H234287   2.100   6.630   3.441
11444TIP3   OH234288   4.886   1.754   5.935
11444TIP3    H134289   4.897   1.708   6.018
11444TIP3    H234290   4.850   1.839   5.959
11445TIP3   OH234291   6.963   5.972   0.667
11445TIP3    H134292   6.976   6.063   0.694
11445TIP3    H234293   6.868   5.962   0.660
11446TIP3   OH234294   1.870   1.246   0.130
11446TIP3    H134295   1.792   1.300   0.139
11446TIP3    H234296   1.943   1.307   0.139
11447TIP3   OH234297   5.848   4.495   3.809
11447TIP3    H134298   5.864   4.429   3.876
11447TIP3    H234299   5.833   4.576   3.859
11448TIP3   OH234300   8.133   4.124   0.612
11448TIP3    H134301   8.123   4.219   0.619
11448TIP3    H234302   8.142   4.108   0.518
11449TIP3   OH234303   3.627   4.278   0.185
11449TIP3    H134304   3.670   4.198   0.213
11449TIP3    H234305   3.697   4.343   0.180
11450TIP3   OH234306   6.081   6.924   3.027
11450TIP3    H134307   6.151   6.876   2.983
11450TIP3    H234308   6.009   6.925   2.964
11451TIP3   OH234309   1.934   1.673   6.390
11451TIP3    H134310   1.988   1.642   6.462
11451TIP3    H234311   1.926   1.597   6.332
11452TIP3   OH234312   4.405   2.472   2.873
11452TIP3    H134313   4.459   2.548   2.896
11452TIP3    H234314   4.462   2.419   2.817
11453TIP3   OH234315   6.283   4.344   6.525
11453TIP3    H134316   6.344   4.415   6.505
11453TIP3    H234317   6.339   4.272   6.555
11454TIP3   OH234318   0.678   6.744   4.981
11454TIP3    H134319   0.676   6.648   4.990
11454TIP3    H234320   0.628   6.761   4.901
11455TIP3   OH234321   0.051   1.104   2.198
11455TIP3    H134322   0.078   1.124   2.288
11455TIP3    H234323   0.117   1.042   2.166
11456TIP3   OH234324   6.013   7.066   3.659
11456TIP3    H134325   5.962   7.021   3.591
11456TIP3    H234326   6.104   7.052   3.633
11457TIP3   OH234327   6.174   2.954   4.924
11457TIP3    H134328   6.185   3.024   4.988
11457TIP3    H234329   6.164   3.000   4.840
11458TIP3   OH234330   1.240   4.647   4.635
11458TIP3    H134331   1.235   4.569   4.692
11458TIP3    H234332   1.332   4.656   4.614
11459TIP3   OH234333   7.316   5.124   5.472
11459TIP3    H134334   7.407   5.150   5.458
11459TIP3    H234335   7.288   5.087   5.388
11460TIP3   OH234336   2.013   3.556   3.540
11460TIP3    H134337   2.080   3.621   3.518
11460TIP3    H234338   2.055   3.472   3.522
11461TIP3   OH234339   4.299   4.883   6.379
11461TIP3    H134340   4.297   4.965   6.331
11461TIP3    H234341   4.326   4.818   6.314
11462TIP3   OH234342   0.914   1.495   3.155
11462TIP3    H134343   0.965   1.552   3.213
11462TIP3    H234344   0.825   1.528   3.161
11463TIP3   OH234345   3.140   0.003   1.506
11463TIP3    H134346   3.072  -0.065   1.508
11463TIP3    H234347   3.097   0.079   1.468
11464TIP3   OH234348   3.740   1.151   6.721
11464TIP3    H134349   3.817   1.096   6.710
11464TIP3    H234350   3.729   1.159   6.815
11465TIP3   OH234351   1.196   6.013   0.446
11465TIP3    H134352   1.133   6.083   0.458
11465TIP3    H234353   1.182   5.954   0.520
11466TIP3   OH234354   4.292   3.220   4.643
11466TIP3    H134355   4.312   3.258   4.557
11466TIP3    H234356   4.222   3.275   4.678
11467TIP3   OH234357   6.048   6.805   1.414
11467TIP3    H134358   6.047   6.716   1.448
11467TIP3    H234359   6.111   6.851   1.469
11468TIP3   OH234360   0.192   2.749   4.222
11468TIP3    H134361   0.137   2.730   4.299
11468TIP3    H234362   0.167   2.837   4.196
11469TIP3   OH234363   6.368   6.097   5.693
11469TIP3    H134364   6.373   6.076   5.786
11469TIP3    H234365   6.444   6.054   5.654
11470TIP3   OH234366   2.783   2.688   2.378
11470TIP3    H134367   2.812   2.676   2.287
11470TIP3    H234368   2.819   2.612   2.425
11471TIP3   OH234369   7.243   1.394   2.034
11471TIP3    H134370   7.149   1.394   2.049
11471TIP3    H234371   7.282   1.399   2.121
11472TIP3   OH234372   8.162   0.682   0.341
11472TIP3    H134373   8.143   0.758   0.286
11472TIP3    H234374   8.237   0.641   0.299
11473TIP3   OH234375   7.137   2.007   0.826
11473TIP3    H134376   7.126   2.007   0.731
11473TIP3    H234377   7.048   2.017   0.860
11474TIP3   OH234378   4.947   2.983   4.649
11474TIP3    H134379   5.041   2.993   4.663
11474TIP3    H234380   4.937   2.975   4.554
11475TIP3   OH234381   8.211   2.058   1.891
11475TIP3    H134382   8.147   2.129   1.886
11475TIP3    H234383   8.211   2.032   1.983
11476TIP3   OH234384   7.212   0.252   1.632
11476TIP3    H134385   7.196   0.318   1.699
11476TIP3    H234386   7.306   0.257   1.615
11477TIP3   OH234387   2.765   7.141   1.949
11477TIP3    H134388   2.802   7.139   1.861
11477TIP3    H234389   2.812   7.212   1.993
11478TIP3   OH234390   4.200   7.358   2.520
11478TIP3    H134391   4.145   7.282   2.502
11478TIP3    H234392   4.234   7.342   2.609
11479TIP3   OH234393   2.894   5.726   5.485
11479TIP3    H134394   2.900   5.770   5.570
11479TIP3    H234395   2.977   5.678   5.477
11480TIP3   OH234396   1.576   1.745   0.885
11480TIP3    H134397   1.666   1.736   0.917
11480TIP3    H234398   1.553   1.836   0.903
11481TIP3   OH234399   3.013   3.154   0.606
11481TIP3    H134400   2.942   3.092   0.627
11481TIP3    H234401   2.982   3.238   0.640
11482TIP3   OH234402   3.201   4.864   5.501
11482TIP3    H134403   3.133   4.927   5.479
11482TIP3    H234404   3.180   4.836   5.590
11483TIP3   OH234405   6.162   6.028   5.089
11483TIP3    H134406   6.132   6.038   5.179
11483TIP3    H234407   6.205   6.111   5.069
11484TIP3   OH234408   5.563   5.266   1.666
11484TIP3    H134409   5.562   5.210   1.589
11484TIP3    H234410   5.578   5.354   1.632
11485TIP3   OH234411   4.393   1.713   3.246
11485TIP3    H134412   4.316   1.763   3.218
11485TIP3    H234413   4.357   1.631   3.280
11486TIP3   OH234414   5.105   6.191   0.994
11486TIP3    H134415   5.184   6.138   1.009
11486TIP3    H234416   5.080   6.171   0.904
11487TIP3   OH234417   6.376   5.885   3.595
11487TIP3    H134418   6.339   5.921   3.514
11487TIP3    H234419   6.444   5.824   3.566
11488TIP3   OH234420   8.269   3.292   5.224
11488TIP3    H134421   8.298   3.309   5.313
11488TIP3    H234422   8.174   3.285   5.230
11489TIP3   OH234423   1.287   6.645   4.197
11489TIP3    H134424   1.236   6.654   4.278
11489TIP3    H234425   1.222   6.642   4.127
11490TIP3   OH234426   5.836   3.622   5.018
11490TIP3    H134427   5.808   3.709   4.990
11490TIP3    H234428   5.883   3.586   4.942
11491TIP3   OH234429   4.022   4.896   0.846
11491TIP3    H134430   4.079   4.845   0.788
11491TIP3    H234431   4.073   4.909   0.926
11492TIP3   OH234432   4.119   2.314   4.355
11492TIP3    H134433   4.176   2.244   4.388
11492TIP3    H234434   4.096   2.285   4.266
11493TIP3   OH234435   6.856   3.350   5.616
11493TIP3    H134436   6.823   3.407   5.685
11493TIP3    H234437   6.862   3.264   5.657
11494TIP3   OH234438   1.487   2.782   2.570
11494TIP3    H134439   1.410   2.794   2.625
11494TIP3    H234440   1.506   2.689   2.575
11495TIP3   OH234441   0.296   0.182   1.530
11495TIP3    H134442   0.234   0.111   1.549
11495TIP3    H234443   0.334   0.203   1.616
11496TIP3   OH234444   4.012   5.158   5.083
11496TIP3    H134445   4.020   5.218   5.009
11496TIP3    H234446   3.965   5.082   5.047
11497TIP3   OH234447   6.283   2.088   3.256
11497TIP3    H134448   6.246   2.164   3.211
11497TIP3    H234449   6.342   2.049   3.192
11498TIP3   OH234450   7.563   1.147   2.872
11498TIP3    H134451   7.527   1.115   2.955
11498TIP3    H234452   7.527   1.087   2.806
11499TIP3   OH234453   4.516   5.170   6.579
11499TIP3    H134454   4.594   5.215   6.546
11499TIP3    H234455   4.546   5.126   6.658
11500TIP3   OH234456   5.646   6.343   4.787
11500TIP3    H134457   5.642   6.422   4.842
11500TIP3    H234458   5.556   6.309   4.788
11501TIP3   OH234459   4.504   1.498   0.022
11501TIP3    H134460   4.481   1.413   0.061
11501TIP3    H234461   4.492   1.486  -0.072
11502TIP3   OH234462   5.130   5.394   4.234
11502TIP3    H134463   5.169   5.476   4.267
11502TIP3    H234464   5.038   5.400   4.261
11503TIP3   OH234465   5.180   4.542   1.883
11503TIP3    H134466   5.154   4.632   1.866
11503TIP3    H234467   5.173   4.532   1.978
11504TIP3   OH234468   3.189   3.417   3.851
11504TIP3    H134469   3.242   3.408   3.772
11504TIP3    H234470   3.252   3.437   3.921
11505TIP3   OH234471   3.161   1.274   1.357
11505TIP3    H134472   3.123   1.243   1.274
11505TIP3    H234473   3.126   1.214   1.423
11506TIP3   OH234474   7.803   6.982   3.217
11506TIP3    H134475   7.817   6.985   3.312
11506TIP3    H234476   7.722   6.931   3.206
11507TIP3   OH234477   3.407   3.541   3.055
11507TIP3    H134478   3.472   3.581   3.112
11507TIP3    H234479   3.327   3.589   3.072
11508TIP3   OH234480   0.999   2.430   2.515
11508TIP3    H134481   1.072   2.482   2.547
11508TIP3    H234482   0.934   2.494   2.487
11509TIP3   OH234483   5.131   2.737   1.210
11509TIP3    H134484   5.113   2.716   1.118
11509TIP3    H234485   5.094   2.825   1.222
11510TIP3   OH234486   5.639   6.999   1.207
11510TIP3    H134487   5.638   7.092   1.229
11510TIP3    H234488   5.716   6.964   1.252
11511TIP3   OH234489   5.329   6.130   6.575
11511TIP3    H134490   5.377   6.196   6.526
11511TIP3    H234491   5.289   6.178   6.648
11512TIP3   OH234492   5.689   6.307   2.443
11512TIP3    H134493   5.633   6.289   2.518
11512TIP3    H234494   5.643   6.268   2.369
11513TIP3   OH234495   3.241   0.963   5.751
11513TIP3    H134496   3.234   1.027   5.681
11513TIP3    H234497   3.152   0.927   5.759
11514TIP3   OH234498   6.364   3.805   6.128
11514TIP3    H134499   6.446   3.834   6.168
11514TIP3    H234500   6.392   3.766   6.045
11515TIP3   OH234501   4.495   0.974   2.078
11515TIP3    H134502   4.442   1.016   2.146
11515TIP3    H234503   4.526   1.046   2.024
11516TIP3   OH234504   6.990   7.428   5.954
11516TIP3    H134505   7.012   7.443   5.862
11516TIP3    H234506   7.072   7.400   5.995
11517TIP3   OH234507   6.007   3.997   0.092
11517TIP3    H134508   5.998   3.910   0.052
11517TIP3    H234509   5.951   4.053   0.038
11518TIP3   OH234510   6.682   4.629   3.101
11518TIP3    H134511   6.688   4.584   3.186
11518TIP3    H234512   6.732   4.573   3.041
11519TIP3   OH234513   7.107   1.545   3.697
11519TIP3    H134514   7.184   1.501   3.662
11519TIP3    H234515   7.137   1.588   3.777
11520TIP3   OH234516   4.105   3.054   0.842
11520TIP3    H134517   4.068   3.012   0.920
11520TIP3    H234518   4.073   3.144   0.847
11521TIP3   OH234519   1.137   4.632   4.918
11521TIP3    H134520   1.120   4.590   5.002
11521TIP3    H234521   1.085   4.583   4.855
11522TIP3   OH234522   1.054   6.023   1.365
11522TIP3    H134523   1.094   6.052   1.283
11522TIP3    H234524   1.047   6.103   1.417
11523TIP3   OH234525   7.143   6.258   1.308
11523TIP3    H134526   7.156   6.352   1.292
11523TIP3    H234527   7.174   6.216   1.228
11524TIP3   OH234528   5.939   5.954   4.930
11524TIP3    H134529   5.935   6.041   4.892
11524TIP3    H234530   6.013   5.958   4.991
11525TIP3   OH234531   2.550   1.076   0.991
11525TIP3    H134532   2.480   1.012   0.997
11525TIP3    H234533   2.561   1.108   1.081
11526TIP3   OH234534   5.096   2.882   4.134
11526TIP3    H134535   5.192   2.891   4.134
11526TIP3    H234536   5.065   2.969   4.109
11527TIP3   OH234537   3.667   0.141   1.760
11527TIP3    H134538   3.714   0.128   1.678
11527TIP3    H234539   3.581   0.172   1.733
11528TIP3   OH234540   2.591   1.186   2.912
11528TIP3    H134541   2.536   1.252   2.869
11528TIP3    H234542   2.533   1.144   2.976
11529TIP3   OH234543   3.753   7.801   1.603
11529TIP3    H134544   3.713   7.722   1.567
11529TIP3    H234545   3.846   7.791   1.582
11530TIP3   OH234546   7.897   0.957   5.168
11530TIP3    H134547   7.877   0.864   5.160
11530TIP3    H234548   7.814   1.001   5.151
11531TIP3   OH234549   0.080   6.895   6.749
11531TIP3    H134550   0.104   6.859   6.835
11531TIP3    H234551   0.126   6.839   6.686
11532TIP3   OH234552   1.212   5.192   2.570
11532TIP3    H134553   1.196   5.269   2.624
11532TIP3    H234554   1.239   5.228   2.485
11533TIP3   OH234555   5.266   7.473   6.239
11533TIP3    H134556   5.188   7.437   6.197
11533TIP3    H234557   5.307   7.528   6.172
11534TIP3   OH234558   4.628   2.583   6.297
11534TIP3    H134559   4.691   2.602   6.227
11534TIP3    H234560   4.554   2.543   6.251
11535TIP3   OH234561   2.386   1.078   6.403
11535TIP3    H134562   2.326   1.153   6.404
11535TIP3    H234563   2.472   1.116   6.424
11536TIP3   OH234564   0.561   4.172   4.222
11536TIP3    H134565   0.487   4.186   4.280
11536TIP3    H234566   0.588   4.260   4.196
11537TIP3   OH234567   0.375   0.142   1.114
11537TIP3    H134568   0.439   0.117   1.180
11537TIP3    H234569   0.387   0.237   1.103
11538TIP3   OH234570   6.462   0.278   2.432
11538TIP3    H134571   6.495   0.189   2.439
11538TIP3    H234572   6.389   0.272   2.370
11539TIP3   OH234573   4.626   4.311   2.140
11539TIP3    H134574   4.699   4.279   2.193
11539TIP3    H234575   4.635   4.407   2.142
11540TIP3   OH234576   6.594   2.053   6.165
11540TIP3    H134577   6.656   2.121   6.141
11540TIP3    H234578   6.576   2.007   6.084
11541TIP3   OH234579   5.624   0.199   6.359
11541TIP3    H134580   5.677   0.121   6.376
11541TIP3    H234581   5.684   0.272   6.374
11542TIP3   OH234582   2.673   4.314   0.746
11542TIP3    H134583   2.639   4.271   0.824
11542TIP3    H234584   2.764   4.285   0.739
11543TIP3   OH234585   0.974   4.764   0.671
11543TIP3    H134586   0.935   4.797   0.590
11543TIP3    H234587   0.914   4.792   0.740
11544TIP3   OH234588   6.023   0.403   0.799
11544TIP3    H134589   5.975   0.322   0.818
11544TIP3    H234590   6.034   0.445   0.885
11545TIP3   OH234591   7.978   0.229   3.272
11545TIP3    H134592   7.924   0.308   3.279
11545TIP3    H234593   8.050   0.244   3.333
11546TIP3   OH234594   3.478   0.515   5.116
11546TIP3    H134595   3.468   0.504   5.211
11546TIP3    H234596   3.488   0.426   5.083
11547TIP3   OH234597   0.371   5.536   2.085
11547TIP3    H134598   0.448   5.527   2.141
11547TIP3    H234599   0.407   5.552   1.998
11548TIP3   OH234600   6.871   1.151   6.125
11548TIP3    H134601   6.958   1.140   6.085
11548TIP3    H234602   6.854   1.245   6.118
11549TIP3   OH234603   1.221   5.429   3.839
11549TIP3    H134604   1.286   5.403   3.904
11549TIP3    H234605   1.145   5.373   3.857
11550TIP3   OH234606   0.945   0.914   2.523
11550TIP3    H134607   1.023   0.871   2.556
11550TIP3    H234608   0.952   0.909   2.428
11551TIP3   OH234609   0.909   2.528   0.279
11551TIP3    H134610   0.834   2.473   0.253
11551TIP3    H234611   0.870   2.603   0.322
11552TIP3   OH234612   6.790   4.389   1.616
11552TIP3    H134613   6.713   4.445   1.623
11552TIP3    H234614   6.812   4.367   1.706
11553TIP3   OH234615   5.692   5.322   6.512
11553TIP3    H134616   5.754   5.304   6.441
11553TIP3    H234617   5.736   5.290   6.591
11554TIP3   OH234618   4.554   4.595   1.403
11554TIP3    H134619   4.591   4.554   1.325
11554TIP3    H234620   4.459   4.589   1.391
11555TIP3   OH234621   4.096   1.132   2.920
11555TIP3    H134622   4.098   1.037   2.931
11555TIP3    H234623   4.047   1.146   2.839
11556TIP3   OH234624   4.731   5.098   1.067
11556TIP3    H134625   4.716   5.137   1.153
11556TIP3    H234626   4.644   5.095   1.026
11557TIP3   OH234627   3.952   1.544   0.273
11557TIP3    H134628   3.961   1.464   0.325
11557TIP3    H234629   3.984   1.613   0.330
11558TIP3   OH234630   6.103   4.129   2.981
11558TIP3    H134631   6.064   4.052   3.022
11558TIP3    H234632   6.187   4.140   3.027
11559TIP3   OH234633   1.918   4.248   5.364
11559TIP3    H134634   1.944   4.171   5.313
11559TIP3    H234635   1.837   4.278   5.322
11560TIP3   OH234636   6.090   1.105   4.298
11560TIP3    H134637   6.131   1.157   4.229
11560TIP3    H234638   6.113   1.150   4.379
11561TIP3   OH234639   5.869   4.305   3.008
11561TIP3    H134640   5.862   4.235   2.943
11561TIP3    H234641   5.962   4.310   3.029
11562TIP3   OH234642   4.078   0.146   2.435
11562TIP3    H134643   4.018   0.073   2.419
11562TIP3    H234644   4.163   0.104   2.450
11563TIP3   OH234645   7.773   2.954   1.212
11563TIP3    H134646   7.735   2.877   1.169
11563TIP3    H234647   7.863   2.929   1.229
11564TIP3   OH234648   1.790   4.687   3.493
11564TIP3    H134649   1.871   4.672   3.543
11564TIP3    H234650   1.782   4.610   3.437
11565TIP3   OH234651   2.845   1.144   5.605
11565TIP3    H134652   2.926   1.184   5.639
11565TIP3    H234653   2.874   1.060   5.568
11566TIP3   OH234654   1.457   0.066   5.988
11566TIP3    H134655   1.464  -0.019   6.031
11566TIP3    H234656   1.469   0.047   5.895
11567TIP3   OH234657   1.541   0.594   0.674
11567TIP3    H134658   1.515   0.682   0.646
11567TIP3    H234659   1.617   0.573   0.619
11568TIP3   OH234660   0.391   3.666   3.726
11568TIP3    H134661   0.416   3.749   3.686
11568TIP3    H234662   0.371   3.689   3.817
11569TIP3   OH234663   5.646   7.148   3.825
11569TIP3    H134664   5.666   7.200   3.903
11569TIP3    H234665   5.701   7.070   3.834
11570TIP3   OH234666   2.519   3.528   3.461
11570TIP3    H134667   2.513   3.433   3.461
11570TIP3    H234668   2.529   3.552   3.369
11571TIP3   OH234669   6.661   1.290   5.490
11571TIP3    H134670   6.709   1.249   5.562
11571TIP3    H234671   6.692   1.380   5.487
11572TIP3   OH234672   7.396   5.139   3.865
11572TIP3    H134673   7.399   5.171   3.775
11572TIP3    H234674   7.402   5.218   3.919
11573TIP3   OH234675  -0.009   2.835   2.850
11573TIP3    H134676   0.085   2.844   2.834
11573TIP3    H234677  -0.016   2.778   2.926
11574TIP3   OH234678   4.365   0.991   3.894
11574TIP3    H134679   4.398   0.902   3.908
11574TIP3    H234680   4.294   0.980   3.831
11575TIP3   OH234681   6.880   5.077   3.725
11575TIP3    H134682   6.972   5.074   3.698
11575TIP3    H234683   6.836   5.126   3.656
11576TIP3   OH234684   3.723   3.388   6.703
11576TIP3    H134685   3.724   3.421   6.613
11576TIP3    H234686   3.708   3.294   6.693
11577TIP3   OH234687   2.014   4.901   4.845
11577TIP3    H134688   2.059   4.830   4.889
11577TIP3    H234689   1.961   4.859   4.777
11578TIP3   OH234690   0.421   6.467   2.576
11578TIP3    H134691   0.442   6.456   2.483
11578TIP3    H234692   0.359   6.397   2.595
11579TIP3   OH234693   3.603   5.104   0.506
11579TIP3    H134694   3.654   5.096   0.425
11579TIP3    H234695   3.649   5.047   0.568
11580TIP3   OH234696   0.778   2.449   0.750
11580TIP3    H134697   0.789   2.410   0.664
11580TIP3    H234698   0.721   2.388   0.797
11581TIP3   OH234699   3.100   3.131   0.347
11581TIP3    H134700   3.073   3.115   0.438
11581TIP3    H234701   3.100   3.227   0.339
11582TIP3   OH234702   7.630   7.336   0.371
11582TIP3    H134703   7.547   7.307   0.334
11582TIP3    H234704   7.610   7.422   0.410
11583TIP3   OH234705   6.331   4.943   3.500
11583TIP3    H134706   6.359   5.013   3.440
11583TIP3    H234707   6.346   4.979   3.587
11584TIP3   OH234708   3.186   2.063   2.807
11584TIP3    H134709   3.204   2.042   2.715
11584TIP3    H234710   3.146   1.985   2.843
11585TIP3   OH234711   3.072   4.078   2.285
11585TIP3    H134712   3.041   4.055   2.197
11585TIP3    H234713   3.115   3.999   2.317
11586TIP3   OH234714   0.156   6.647   4.234
11586TIP3    H134715   0.075   6.684   4.200
11586TIP3    H234716   0.213   6.638   4.157
11587TIP3   OH234717   5.558   4.168   6.102
11587TIP3    H134718   5.546   4.161   6.007
11587TIP3    H234719   5.525   4.256   6.123
11588TIP3   OH234720   6.107   2.203   2.098
11588TIP3    H134721   6.136   2.172   2.012
11588TIP3    H234722   6.144   2.141   2.160
11589TIP3   OH234723   6.354   6.482   2.927
11589TIP3    H134724   6.340   6.389   2.942
11589TIP3    H234725   6.265   6.518   2.919
11590TIP3   OH234726   0.038   0.417   0.556
11590TIP3    H134727   0.061   0.484   0.621
11590TIP3    H234728   0.094   0.436   0.481
11591TIP3   OH234729   2.630   3.515   4.766
11591TIP3    H134730   2.625   3.420   4.781
11591TIP3    H234731   2.553   3.550   4.811
11592TIP3   OH234732   3.643   6.391   6.006
11592TIP3    H134733   3.592   6.361   6.082
11592TIP3    H234734   3.690   6.313   5.977
11593TIP3   OH234735   7.821   0.751   3.637
11593TIP3    H134736   7.829   0.813   3.565
11593TIP3    H234737   7.880   0.784   3.704
11594TIP3   OH234738   4.409   0.882   4.297
11594TIP3    H134739   4.403   0.796   4.337
11594TIP3    H234740   4.425   0.942   4.370
11595TIP3   OH234741   1.282   7.691   1.528
11595TIP3    H134742   1.215   7.696   1.459
11595TIP3    H234743   1.274   7.602   1.562
11596TIP3   OH234744   0.603   0.370   3.488
11596TIP3    H134745   0.589   0.283   3.451
11596TIP3    H234746   0.525   0.419   3.464
11597TIP3   OH234747   0.604   4.033   1.880
11597TIP3    H134748   0.592   4.027   1.975
11597TIP3    H234749   0.569   3.950   1.846
11598TIP3   OH234750   6.986   1.978   0.064
11598TIP3    H134751   6.946   2.035   0.131
11598TIP3    H234752   7.049   1.924   0.113
11599TIP3   OH234753   6.129   6.292   5.924
11599TIP3    H134754   6.114   6.328   6.011
11599TIP3    H234755   6.183   6.214   5.939
11600TIP3   OH234756   6.396   0.564   1.626
11600TIP3    H134757   6.402   0.500   1.697
11600TIP3    H234758   6.485   0.574   1.594
11601TIP3   OH234759   5.754   0.759   1.411
11601TIP3    H134760   5.709   0.771   1.495
11601TIP3    H234761   5.683   0.763   1.346
11602TIP3   OH234762   0.878   6.308   6.172
11602TIP3    H134763   0.794   6.279   6.136
11602TIP3    H234764   0.864   6.311   6.267
11603TIP3   OH234765   4.838   5.184   4.457
11603TIP3    H134766   4.799   5.254   4.404
11603TIP3    H234767   4.870   5.120   4.394
11604TIP3   OH234768   5.795   4.921   5.588
11604TIP3    H134769   5.753   5.006   5.597
11604TIP3    H234770   5.841   4.926   5.504
11605TIP3   OH234771   1.229   0.158   4.810
11605TIP3    H134772   1.306   0.209   4.836
11605TIP3    H234773   1.194   0.124   4.893
11606TIP3   OH234774   7.054   2.410   3.986
11606TIP3    H134775   6.992   2.353   3.941
11606TIP3    H234776   7.023   2.413   4.076
11607TIP3   OH234777   1.324   6.970   0.232
11607TIP3    H134778   1.253   7.012   0.281
11607TIP3    H234779   1.403   7.014   0.262
11608TIP3   OH234780   5.912   4.648   0.792
11608TIP3    H134781   5.939   4.725   0.742
11608TIP3    H234782   5.925   4.574   0.733
11609TIP3   OH234783   2.459   0.702   2.978
11609TIP3    H134784   2.391   0.709   3.045
11609TIP3    H234785   2.431   0.761   2.908
11610TIP3   OH234786   2.156   4.531   5.317
11610TIP3    H134787   2.198   4.534   5.231
11610TIP3    H234788   2.213   4.583   5.374
11611TIP3   OH234789   4.750   0.905   1.400
11611TIP3    H134790   4.733   0.967   1.471
11611TIP3    H234791   4.717   0.950   1.322
11612TIP3   OH234792   0.682   6.708   2.663
11612TIP3    H134793   0.591   6.679   2.659
11612TIP3    H234794   0.732   6.630   2.639
11613TIP3   OH234795   3.674   0.443   2.754
11613TIP3    H134796   3.625   0.402   2.825
11613TIP3    H234797   3.625   0.421   2.675
11614TIP3   OH234798   1.060   6.840   2.542
11614TIP3    H134799   1.100   6.770   2.594
11614TIP3    H234800   1.085   6.921   2.587
11615TIP3   OH234801   5.853   6.546   0.173
11615TIP3    H134802   5.946   6.544   0.196
11615TIP3    H234803   5.850   6.581   0.084
11616TIP3   OH234804   3.314   1.327   2.615
11616TIP3    H134805   3.268   1.346   2.697
11616TIP3    H234806   3.266   1.253   2.578
11617TIP3   OH234807   5.668   6.002   5.297
11617TIP3    H134808   5.573   5.995   5.300
11617TIP3    H234809   5.690   5.988   5.205
11618TIP3   OH234810   7.759   4.242   2.332
11618TIP3    H134811   7.799   4.328   2.327
11618TIP3    H234812   7.801   4.200   2.407
11619TIP3   OH234813   3.591   6.401   3.612
11619TIP3    H134814   3.508   6.356   3.602
11619TIP3    H234815   3.574   6.471   3.675
11620TIP3   OH234816   1.039   5.569   0.362
11620TIP3    H134817   0.969   5.620   0.321
11620TIP3    H234818   1.112   5.631   0.370
11621TIP3   OH234819   4.704   1.514   3.611
11621TIP3    H134820   4.734   1.511   3.520
11621TIP3    H234821   4.765   1.457   3.657
11622TIP3   OH234822   4.258   6.637   3.211
11622TIP3    H134823   4.247   6.703   3.279
11622TIP3    H234824   4.169   6.614   3.184
11623TIP3   OH234825   3.075   6.602   5.306
11623TIP3    H134826   3.036   6.669   5.250
11623TIP3    H234827   3.118   6.651   5.376
11624TIP3   OH234828   5.055   3.958   1.650
11624TIP3    H134829   5.015   4.045   1.658
11624TIP3    H234830   4.993   3.908   1.597
11625TIP3   OH234831   1.398   4.815   3.355
11625TIP3    H134832   1.410   4.858   3.439
11625TIP3    H234833   1.313   4.846   3.323
11626TIP3   OH234834   0.091   0.790   1.567
11626TIP3    H134835   0.025   0.846   1.527
11626TIP3    H234836   0.041   0.719   1.606
11627TIP3   OH234837   4.081   2.271   5.565
11627TIP3    H134838   4.080   2.367   5.573
11627TIP3    H234839   4.164   2.246   5.606
11628TIP3   OH234840   1.490   2.166   4.203
11628TIP3    H134841   1.493   2.078   4.167
11628TIP3    H234842   1.508   2.154   4.297
11629TIP3   OH234843   4.240   2.916   1.534
11629TIP3    H134844   4.205   2.831   1.561
11629TIP3    H234845   4.229   2.917   1.439
11630TIP3   OH234846   1.329   3.284   0.374
11630TIP3    H134847   1.373   3.211   0.417
11630TIP3    H234848   1.335   3.265   0.280
11631TIP3   OH234849   3.312   3.256   5.373
11631TIP3    H134850   3.333   3.323   5.308
11631TIP3    H234851   3.395   3.211   5.389
11632TIP3   OH234852   6.515   4.639   1.308
11632TIP3    H134853   6.455   4.653   1.381
11632TIP3    H234854   6.468   4.673   1.232
11633TIP3   OH234855   6.296   7.765   1.289
11633TIP3    H134856   6.333   7.852   1.277
11633TIP3    H234857   6.267   7.764   1.381
11634TIP3   OH234858   1.360   3.217   1.338
11634TIP3    H134859   1.270   3.190   1.318
11634TIP3    H234860   1.391   3.260   1.258
11635TIP3   OH234861   0.690   6.407   4.467
11635TIP3    H134862   0.609   6.424   4.515
11635TIP3    H234863   0.686   6.314   4.444
11636TIP3   OH234864   2.411   0.479   0.476
11636TIP3    H134865   2.379   0.504   0.563
11636TIP3    H234866   2.395   0.556   0.422
11637TIP3   OH234867   5.453   5.404   6.205
11637TIP3    H134868   5.367   5.361   6.202
11637TIP3    H234869   5.441   5.484   6.153
11638TIP3   OH234870   4.055   2.250   3.545
11638TIP3    H134871   4.146   2.221   3.537
11638TIP3    H234872   4.028   2.221   3.633
11639TIP3   OH234873   6.303   3.823   6.501
11639TIP3    H134874   6.370   3.770   6.457
11639TIP3    H234875   6.345   3.908   6.514
11640TIP3   OH234876   2.313   4.748   1.441
11640TIP3    H134877   2.363   4.809   1.495
11640TIP3    H234878   2.268   4.691   1.503
11641TIP3   OH234879   6.234   1.006   2.792
11641TIP3    H134880   6.297   1.063   2.835
11641TIP3    H234881   6.200   1.057   2.719
11642TIP3   OH234882   2.928   0.186   4.737
11642TIP3    H134883   2.921   0.135   4.657
11642TIP3    H234884   2.941   0.121   4.806
11643TIP3   OH234885   1.957   6.598   3.701
11643TIP3    H134886   1.995   6.686   3.692
11643TIP3    H234887   2.019   6.541   3.656
11644TIP3   OH234888   0.110   6.442   1.404
11644TIP3    H134889   0.112   6.416   1.496
11644TIP3    H234890   0.186   6.500   1.394
11645TIP3   OH234891   0.886   4.911   5.535
11645TIP3    H134892   0.909   4.911   5.442
11645TIP3    H234893   0.862   4.820   5.554
11646TIP3   OH234894   6.749   3.007   0.249
11646TIP3    H134895   6.656   3.017   0.268
11646TIP3    H234896   6.779   2.942   0.312
11647TIP3   OH234897   5.664   6.880   4.760
11647TIP3    H134898   5.732   6.946   4.775
11647TIP3    H234899   5.584   6.920   4.793
11648TIP3   OH234900   7.048   2.342   1.523
11648TIP3    H134901   7.090   2.399   1.588
11648TIP3    H234902   7.006   2.274   1.576
11649TIP3   OH234903   2.046   7.208   0.344
11649TIP3    H134904   2.080   7.206   0.255
11649TIP3    H234905   2.000   7.292   0.350
11650TIP3   OH234906   0.671   3.707   5.549
11650TIP3    H134907   0.702   3.617   5.540
11650TIP3    H234908   0.627   3.726   5.466
11651TIP3   OH234909   3.727   1.528   3.439
11651TIP3    H134910   3.806   1.490   3.476
11651TIP3    H234911   3.695   1.589   3.506
11652TIP3   OH234912   5.672   0.382   0.421
11652TIP3    H134913   5.763   0.381   0.392
11652TIP3    H234914   5.639   0.468   0.394
11653TIP3   OH234915   0.107   0.062   1.165
11653TIP3    H134916   0.038   0.122   1.194
11653TIP3    H234917   0.177   0.120   1.135
11654TIP3   OH234918   6.139   1.803   0.236
11654TIP3    H134919   6.073   1.784   0.168
11654TIP3    H234920   6.088   1.820   0.315
11655TIP3   OH234921   5.607   3.140   5.237
11655TIP3    H134922   5.538   3.090   5.279
11655TIP3    H234923   5.563   3.217   5.200
11656TIP3   OH234924   6.248   0.234   5.210
11656TIP3    H134925   6.240   0.172   5.138
11656TIP3    H234926   6.224   0.185   5.288
11657TIP3   OH234927   5.287   2.766   3.806
11657TIP3    H134928   5.304   2.812   3.888
11657TIP3    H234929   5.293   2.674   3.829
11658TIP3   OH234930   8.217   6.308   4.713
11658TIP3    H134931   8.193   6.328   4.803
11658TIP3    H234932   8.139   6.265   4.677
11659TIP3   OH234933   0.881   4.344   1.650
11659TIP3    H134934   0.794   4.309   1.667
11659TIP3    H234935   0.873   4.438   1.665
11660TIP3   OH234936   3.001   5.776   1.060
11660TIP3    H134937   2.935   5.845   1.054
11660TIP3    H234938   3.067   5.811   1.120
11661TIP3   OH234939   5.913   4.300   0.291
11661TIP3    H134940   5.988   4.284   0.349
11661TIP3    H234941   5.949   4.293   0.203
11662TIP3   OH234942   4.984   6.148   3.781
11662TIP3    H134943   4.941   6.189   3.706
11662TIP3    H234944   5.029   6.072   3.744
11663TIP3   OH234945   6.894   7.374   6.552
11663TIP3    H134946   6.873   7.341   6.465
11663TIP3    H234947   6.822   7.434   6.573
11664TIP3   OH234948   2.893   6.369   4.280
11664TIP3    H134949   2.967   6.417   4.316
11664TIP3    H234950   2.927   6.283   4.258
11665TIP3   OH234951   1.729   7.732   1.305
11665TIP3    H134952   1.745   7.824   1.281
11665TIP3    H234953   1.657   7.736   1.368
11666TIP3   OH234954   5.630   7.455   6.400
11666TIP3    H134955   5.567   7.519   6.431
11666TIP3    H234956   5.579   7.393   6.348
11667TIP3   OH234957   1.950   2.168   3.182
11667TIP3    H134958   1.924   2.117   3.259
11667TIP3    H234959   1.953   2.105   3.110
11668TIP3   OH234960   4.466   0.482   2.434
11668TIP3    H134961   4.405   0.507   2.502
11668TIP3    H234962   4.550   0.519   2.462
11669TIP3   OH234963   6.940   3.138   1.420
11669TIP3    H134964   6.947   3.209   1.484
11669TIP3    H234965   7.003   3.160   1.352
11670TIP3   OH234966   3.155   6.265   4.996
11670TIP3    H134967   3.231   6.208   4.984
11670TIP3    H234968   3.109   6.260   4.912
11671TIP3   OH234969   3.638   2.480   5.689
11671TIP3    H134970   3.632   2.552   5.751
11671TIP3    H234971   3.555   2.433   5.698
11672TIP3   OH234972   4.436   1.308   4.274
11672TIP3    H134973   4.495   1.238   4.302
11672TIP3    H234974   4.439   1.304   4.178
11673TIP3   OH234975   5.994   6.956   4.829
11673TIP3    H134976   5.931   7.013   4.872
11673TIP3    H234977   6.079   6.997   4.845
11674TIP3   OH234978   4.742   2.382   5.784
11674TIP3    H134979   4.649   2.387   5.807
11674TIP3    H234980   4.747   2.313   5.718
11675TIP3   OH234981   1.589   7.267   2.785
11675TIP3    H134982   1.647   7.325   2.736
11675TIP3    H234983   1.545   7.325   2.848
11676TIP3   OH234984   1.515   3.252   6.015
11676TIP3    H134985   1.603   3.280   5.989
11676TIP3    H234986   1.510   3.160   5.990
11677TIP3   OH234987   1.021   1.815   1.408
11677TIP3    H134988   1.068   1.736   1.382
11677TIP3    H234989   1.074   1.887   1.373
11678TIP3   OH234990   0.881   2.796   4.053
11678TIP3    H134991   0.953   2.791   3.990
11678TIP3    H234992   0.893   2.720   4.110
11679TIP3   OH234993   1.213   3.039   5.601
11679TIP3    H134994   1.241   3.122   5.639
11679TIP3    H234995   1.175   3.064   5.516
11680TIP3   OH234996   0.461   4.784   3.402
11680TIP3    H134997   0.513   4.834   3.339
11680TIP3    H234998   0.503   4.801   3.487
11681TIP3   OH234999   3.711   4.666   4.580
11681TIP3    H135000   3.751   4.752   4.597
11681TIP3    H235001   3.623   4.686   4.549
11682TIP3   OH235002   0.507   3.475   0.570
11682TIP3    H135003   0.561   3.400   0.548
11682TIP3    H235004   0.503   3.527   0.490
11683TIP3   OH235005   5.567   0.095   2.714
11683TIP3    H135006   5.582   0.127   2.625
11683TIP3    H235007   5.651   0.055   2.739
11684TIP3   OH235008   5.241   5.829   2.709
11684TIP3    H135009   5.300   5.870   2.646
11684TIP3    H235010   5.300   5.782   2.769
11685TIP3   OH235011   0.393   2.737   1.130
11685TIP3    H135012   0.407   2.655   1.177
11685TIP3    H235013   0.339   2.713   1.055
11686TIP3   OH235014   7.766   4.929   3.922
11686TIP3    H135015   7.767   4.858   3.857
11686TIP3    H235016   7.775   4.885   4.006
11687TIP3   OH235017   4.830   2.859   6.298
11687TIP3    H135018   4.843   2.948   6.267
11687TIP3    H235019   4.848   2.804   6.221
11688TIP3   OH235020   0.694   3.613   2.013
11688TIP3    H135021   0.663   3.531   2.051
11688TIP3    H235022   0.780   3.592   1.978
11689TIP3   OH235023   2.751   7.303   0.142
11689TIP3    H135024   2.664   7.326   0.111
11689TIP3    H235025   2.740   7.219   0.187
11690TIP3   OH235026   2.861   6.956   3.881
11690TIP3    H135027   2.866   6.860   3.886
11690TIP3    H235028   2.769   6.973   3.861
11691TIP3   OH235029   6.594   6.268   2.692
11691TIP3    H135030   6.504   6.251   2.665
11691TIP3    H235031   6.613   6.201   2.757
11692TIP3   OH235032   7.276   4.099   4.227
11692TIP3    H135033   7.261   4.064   4.315
11692TIP3    H235034   7.295   4.022   4.173
11693TIP3   OH235035   3.244   6.082   6.393
11693TIP3    H135036   3.306   6.042   6.454
11693TIP3    H235037   3.159   6.069   6.434
11694TIP3   OH235038   2.371   4.360   3.050
11694TIP3    H135039   2.329   4.275   3.045
11694TIP3    H235040   2.462   4.344   3.024
11695TIP3   OH235041   5.850   3.550   6.159
11695TIP3    H135042   5.866   3.460   6.187
11695TIP3    H235043   5.867   3.549   6.064
11696TIP3   OH235044   5.871   0.363   6.431
11696TIP3    H135045   5.955   0.316   6.427
11696TIP3    H235046   5.868   0.399   6.519
11697TIP3   OH235047   2.715   1.683   6.326
11697TIP3    H135048   2.671   1.707   6.407
11697TIP3    H235049   2.734   1.767   6.283
11698TIP3   OH235050   3.401   3.357   3.697
11698TIP3    H135051   3.475   3.296   3.695
11698TIP3    H235052   3.376   3.366   3.605
11699TIP3   OH235053   0.571   1.398   3.749
11699TIP3    H135054   0.595   1.458   3.821
11699TIP3    H235055   0.593   1.311   3.782
11700TIP3   OH235056   5.202   1.590   3.870
11700TIP3    H135057   5.252   1.536   3.808
11700TIP3    H235058   5.229   1.680   3.851
11701TIP3   OH235059   4.682   7.428   6.486
11701TIP3    H135060   4.706   7.341   6.519
11701TIP3    H235061   4.720   7.433   6.399
11702TIP3   OH235062   7.289   2.934   2.945
11702TIP3    H135063   7.284   2.841   2.927
11702TIP3    H235064   7.377   2.960   2.915
11703TIP3   OH235065   2.352   0.873   2.788
11703TIP3    H135066   2.277   0.933   2.798
11703TIP3    H235067   2.332   0.823   2.709
11704TIP3   OH235068   4.620   3.072   1.372
11704TIP3    H135069   4.666   2.995   1.339
11704TIP3    H235070   4.656   3.088   1.459
11705TIP3   OH235071   4.038   2.617   5.047
11705TIP3    H135072   4.110   2.565   5.085
11705TIP3    H235073   4.039   2.699   5.096
11706TIP3   OH235074   1.199   3.713   5.090
11706TIP3    H135075   1.287   3.703   5.055
11706TIP3    H235076   1.212   3.721   5.185
11707TIP3   OH235077   7.110   6.803   1.815
11707TIP3    H135078   7.075   6.717   1.837
11707TIP3    H235079   7.104   6.809   1.720
11708TIP3   OH235080   0.281   4.196   0.477
11708TIP3    H135081   0.225   4.170   0.550
11708TIP3    H235082   0.220   4.206   0.403
11709TIP3   OH235083   3.257   7.337   6.472
11709TIP3    H135084   3.222   7.260   6.428
11709TIP3    H235085   3.185   7.367   6.528
11710TIP3   OH235086   6.680   7.720   5.271
11710TIP3    H135087   6.741   7.778   5.315
11710TIP3    H235088   6.730   7.641   5.252
11711TIP3   OH235089   2.064   6.508   0.303
11711TIP3    H135090   2.059   6.504   0.208
11711TIP3    H235091   2.025   6.426   0.333
11712TIP3   OH235092   4.148   0.555   5.257
11712TIP3    H135093   4.156   0.548   5.161
11712TIP3    H235094   4.054   0.569   5.272
11713TIP3   OH235095   4.113   5.852   5.654
11713TIP3    H135096   4.132   5.758   5.654
11713TIP3    H235097   4.022   5.858   5.682
11714TIP3   OH235098   6.654   2.619   3.161
11714TIP3    H135099   6.664   2.672   3.081
11714TIP3    H235100   6.714   2.659   3.224
11715TIP3   OH235101   3.931   1.095   3.934
11715TIP3    H135102   3.934   1.178   3.887
11715TIP3    H235103   4.017   1.056   3.920
11716TIP3   OH235104   0.175   7.742   2.169
11716TIP3    H135105   0.122   7.818   2.145
11716TIP3    H235106   0.200   7.758   2.260
11717TIP3   OH235107   4.110   3.463   1.025
11717TIP3    H135108   4.146   3.534   0.971
11717TIP3    H235109   4.187   3.422   1.064
11718TIP3   OH235110   5.036   0.357   1.945
11718TIP3    H135111   5.095   0.303   1.998
11718TIP3    H235112   5.059   0.336   1.854
11719TIP3   OH235113   6.287   6.421   3.233
11719TIP3    H135114   6.305   6.394   3.323
11719TIP3    H235115   6.199   6.459   3.237
11720TIP3   OH235116   4.018   2.167   4.131
11720TIP3    H135117   3.939   2.113   4.142
11720TIP3    H235118   3.990   2.238   4.072
11721TIP3   OH235119   5.714   5.938   2.550
11721TIP3    H135120   5.783   5.874   2.565
11721TIP3    H235121   5.741   5.986   2.472
11722TIP3   OH235122   7.672   7.084   5.604
11722TIP3    H135123   7.614   7.160   5.601
11722TIP3    H235124   7.627   7.018   5.551
11723TIP3   OH235125   0.942   0.888   4.844
11723TIP3    H135126   0.857   0.860   4.809
11723TIP3    H235127   0.938   0.864   4.937
11724TIP3   OH235128   0.042   4.405   1.640
11724TIP3    H135129   0.045   4.372   1.729
11724TIP3    H235130  -0.040   4.372   1.604
11725TIP3   OH235131   0.209   2.951   1.335
11725TIP3    H135132   0.279   2.985   1.279
11725TIP3    H235133   0.255   2.909   1.408
11726TIP3   OH235134   2.750   3.469   6.147
11726TIP3    H135135   2.833   3.442   6.186
11726TIP3    H235136   2.737   3.410   6.073
11727TIP3   OH235137   4.288   5.601   2.088
11727TIP3    H135138   4.342   5.670   2.051
11727TIP3    H235139   4.233   5.645   2.153
11728TIP3   OH235140   0.994   3.414   4.041
11728TIP3    H135141   1.004   3.348   3.972
11728TIP3    H235142   1.076   3.411   4.089
11729TIP3   OH235143   4.648   2.556   2.011
11729TIP3    H135144   4.615   2.574   2.099
11729TIP3    H235145   4.651   2.642   1.969
11730TIP3   OH235146   4.388   1.519   6.509
11730TIP3    H135147   4.408   1.608   6.537
11730TIP3    H235148   4.327   1.530   6.436
11731TIP3   OH235149   0.786   6.991   6.021
11731TIP3    H135150   0.745   7.069   5.984
11731TIP3    H235151   0.876   6.994   5.989
11732TIP3   OH235152   6.004   4.291   4.764
11732TIP3    H135153   5.942   4.362   4.746
11732TIP3    H235154   6.028   4.258   4.678
11733TIP3   OH235155   6.446   4.688   2.264
11733TIP3    H135156   6.380   4.720   2.325
11733TIP3    H235157   6.526   4.680   2.316
11734TIP3   OH235158   4.878   6.219   4.344
11734TIP3    H135159   4.889   6.174   4.428
11734TIP3    H235160   4.791   6.191   4.313
11735TIP3   OH235161   6.894   0.948   0.699
11735TIP3    H135162   6.840   1.016   0.660
11735TIP3    H235163   6.956   0.995   0.754
11736TIP3   OH235164   0.946   5.140   3.474
11736TIP3    H135165   0.996   5.141   3.393
11736TIP3    H235166   0.894   5.059   3.470
11737TIP3   OH235167   2.373   5.272   0.484
11737TIP3    H135168   2.386   5.362   0.452
11737TIP3    H235169   2.324   5.283   0.566
11738TIP3   OH235170   1.600   0.239   1.294
11738TIP3    H135171   1.690   0.269   1.305
11738TIP3    H235172   1.604   0.145   1.312
11739TIP3   OH235173   1.936   5.288   6.187
11739TIP3    H135174   1.842   5.268   6.188
11739TIP3    H235175   1.978   5.203   6.186
11740TIP3   OH235176   8.156   0.258   1.880
11740TIP3    H135177   8.234   0.227   1.926
11740TIP3    H235178   8.142   0.347   1.915
11741TIP3   OH235179   3.459   3.205   1.535
11741TIP3    H135180   3.431   3.114   1.528
11741TIP3    H235181   3.554   3.201   1.550
11742TIP3   OH235182   8.077   0.764   0.042
11742TIP3    H135183   8.119   0.682   0.017
11742TIP3    H235184   7.993   0.763  -0.002
11743TIP3   OH235185   4.690   5.708   1.692
11743TIP3    H135186   4.700   5.621   1.730
11743TIP3    H235187   4.734   5.766   1.753
11744TIP3   OH235188   1.120   0.836   0.934
11744TIP3    H135189   1.050   0.888   0.973
11744TIP3    H235190   1.200   0.881   0.957
11745TIP3   OH235191   3.161   6.194   2.537
11745TIP3    H135192   3.209   6.239   2.468
11745TIP3    H235193   3.084   6.158   2.493
11746TIP3   OH235194   0.746   6.128   2.297
11746TIP3    H135195   0.754   6.222   2.312
11746TIP3    H235196   0.652   6.111   2.295
11747TIP3   OH235197   7.270   5.384   5.925
11747TIP3    H135198   7.336   5.448   5.898
11747TIP3    H235199   7.187   5.431   5.919
11748TIP3   OH235200   8.273   0.769   6.613
11748TIP3    H135201   8.241   0.810   6.533
11748TIP3    H235202   8.341   0.829   6.645
11749TIP3   OH235203   3.107   2.883   6.707
11749TIP3    H135204   3.195   2.914   6.687
11749TIP3    H235205   3.106   2.793   6.674
11750TIP3   OH235206   0.970   5.144   0.555
11750TIP3    H135207   1.022   5.140   0.475
11750TIP3    H235208   1.027   5.105   0.622
11751TIP3   OH235209   7.273   4.213   0.977
11751TIP3    H135210   7.234   4.300   0.985
11751TIP3    H235211   7.345   4.213   1.041
11752TIP3   OH235212   8.005   5.163   6.045
11752TIP3    H135213   7.975   5.155   5.955
11752TIP3    H235214   8.008   5.073   6.077
11753TIP3   OH235215   0.929   6.262   4.181
11753TIP3    H135216   1.020   6.263   4.209
11753TIP3    H235217   0.900   6.171   4.196
11754TIP3   OH235218   3.165   3.990   0.611
11754TIP3    H135219   3.157   3.904   0.568
11754TIP3    H235220   3.109   3.983   0.688
11755TIP3   OH235221   4.396   7.822   4.187
11755TIP3    H135222   4.395   7.773   4.105
11755TIP3    H235223   4.325   7.785   4.239
11756TIP3   OH235224   2.179   2.238   4.365
11756TIP3    H135225   2.254   2.204   4.315
11756TIP3    H235226   2.112   2.169   4.357
11757TIP3   OH235227   1.460   2.057   5.121
11757TIP3    H135228   1.549   2.060   5.157
11757TIP3    H235229   1.459   2.125   5.053
11758TIP3   OH235230   0.075   1.708   2.182
11758TIP3    H135231   0.044   1.648   2.114
11758TIP3    H235232   0.142   1.657   2.229
11759TIP3   OH235233   1.735   6.893   1.652
11759TIP3    H135234   1.725   6.837   1.729
11759TIP3    H235235   1.783   6.838   1.589
11760TIP3   OH235236   7.043   3.273   4.393
11760TIP3    H135237   7.130   3.292   4.358
11760TIP3    H235238   7.058   3.204   4.458
11761TIP3   OH235239   2.960   0.601   1.509
11761TIP3    H135240   2.931   0.664   1.574
11761TIP3    H235241   3.039   0.640   1.471
11762TIP3   OH235242   4.240   5.352   5.837
11762TIP3    H135243   4.193   5.310   5.909
11762TIP3    H235244   4.195   5.435   5.824
11763TIP3   OH235245   1.305   3.012   1.916
11763TIP3    H135246   1.311   2.928   1.869
11763TIP3    H235247   1.342   2.994   2.003
11764TIP3   OH235248   6.683   1.397   1.769
11764TIP3    H135249   6.697   1.392   1.864
11764TIP3    H235250   6.593   1.368   1.757
11765TIP3   OH235251   5.622   4.924   6.436
11765TIP3    H135252   5.663   4.842   6.410
11765TIP3    H235253   5.553   4.898   6.497
11766TIP3   OH235254   4.668   4.387   1.848
11766TIP3    H135255   4.606   4.324   1.885
11766TIP3    H235256   4.745   4.381   1.905
11767TIP3   OH235257   2.087   5.638   1.568
11767TIP3    H135258   2.001   5.661   1.534
11767TIP3    H235259   2.074   5.632   1.663
11768TIP3   OH235260   6.888   5.080   1.428
11768TIP3    H135261   6.964   5.084   1.487
11768TIP3    H235262   6.924   5.106   1.342
11769TIP3   OH235263   2.366   0.035   3.953
11769TIP3    H135264   2.444   0.088   3.937
11769TIP3    H235265   2.355  -0.016   3.873
11770TIP3   OH235266   5.052   3.040   5.692
11770TIP3    H135267   5.020   3.030   5.602
11770TIP3    H235268   5.068   3.134   5.702
11771TIP3   OH235269   3.553   3.937   5.048
11771TIP3    H135270   3.458   3.946   5.056
11771TIP3    H235271   3.586   4.027   5.054
11772TIP3   OH235272   3.999   1.988   0.925
11772TIP3    H135273   4.088   2.005   0.893
11772TIP3    H235274   4.003   1.899   0.959
11773TIP3   OH235275   5.513   3.764   5.184
11773TIP3    H135276   5.593   3.802   5.222
11773TIP3    H235277   5.508   3.676   5.221
11774TIP3   OH235278   7.623   1.460   3.029
11774TIP3    H135279   7.567   1.421   3.096
11774TIP3    H235280   7.704   1.483   3.074
11775TIP3   OH235281   5.364   6.396   4.099
11775TIP3    H135282   5.424   6.419   4.169
11775TIP3    H235283   5.281   6.378   4.144
11776TIP3   OH235284   7.926   3.575   0.137
11776TIP3    H135285   7.962   3.601   0.222
11776TIP3    H235286   7.963   3.488   0.121
11777TIP3   OH235287   1.428   6.729   1.511
11777TIP3    H135288   1.363   6.665   1.482
11777TIP3    H235289   1.429   6.795   1.441
11778TIP3   OH235290   2.655   7.788   2.354
11778TIP3    H135291   2.677   7.844   2.280
11778TIP3    H235292   2.604   7.717   2.316
11779TIP3   OH235293   1.047   4.519   2.868
11779TIP3    H135294   0.963   4.563   2.855
11779TIP3    H235295   1.109   4.569   2.815
11780TIP3   OH235296   0.040   1.883   1.663
11780TIP3    H135297   0.022   1.967   1.705
11780TIP3    H235298   0.130   1.862   1.687
11781TIP3   OH235299   4.216   1.648   1.275
11781TIP3    H135300   4.244   1.724   1.325
11781TIP3    H235301   4.143   1.679   1.222
11782TIP3   OH235302   1.200   3.601   0.781
11782TIP3    H135303   1.106   3.615   0.777
11782TIP3    H235304   1.224   3.570   0.694
11783TIP3   OH235305   4.248   0.225   2.170
11783TIP3    H135306   4.185   0.165   2.129
11783TIP3    H235307   4.244   0.204   2.263
11784TIP3   OH235308   1.078   7.357   2.105
11784TIP3    H135309   1.052   7.322   2.019
11784TIP3    H235310   1.063   7.451   2.098
11785TIP3   OH235311   3.142   1.187   0.320
11785TIP3    H135312   3.225   1.229   0.342
11785TIP3    H235313   3.156   1.150   0.233
11786TIP3   OH235314   2.148   0.268   2.884
11786TIP3    H135315   2.199   0.298   2.959
11786TIP3    H235316   2.153   0.172   2.888
11787TIP3   OH235317   4.100   6.782   2.801
11787TIP3    H135318   4.175   6.823   2.844
11787TIP3    H235319   4.121   6.689   2.799
11788TIP3   OH235320   6.253   4.844   6.323
11788TIP3    H135321   6.306   4.919   6.298
11788TIP3    H235322   6.253   4.845   6.419
11789TIP3   OH235323   4.669   5.090   4.648
11789TIP3    H135324   4.729   5.109   4.576
11789TIP3    H235325   4.659   5.174   4.694
11790TIP3   OH235326   3.643   4.850   1.141
11790TIP3    H135327   3.672   4.834   1.051
11790TIP3    H235328   3.599   4.769   1.166
11791TIP3   OH235329   6.829   3.666   0.646
11791TIP3    H135330   6.736   3.644   0.636
11791TIP3    H235331   6.874   3.582   0.636
11792TIP3   OH235332   3.488   3.783   1.478
11792TIP3    H135333   3.559   3.733   1.518
11792TIP3    H235334   3.469   3.737   1.396
11793TIP3   OH235335   1.138   3.896   4.448
11793TIP3    H135336   1.114   3.883   4.357
11793TIP3    H235337   1.056   3.887   4.497
11794TIP3   OH235338   1.979   0.862   0.548
11794TIP3    H135339   2.073   0.877   0.544
11794TIP3    H235340   1.955   0.841   0.457
11795TIP3   OH235341   0.734   5.954   6.771
11795TIP3    H135342   0.659   5.895   6.774
11795TIP3    H235343   0.695   6.042   6.776
11796TIP3   OH235344   3.644   0.668   5.957
11796TIP3    H135345   3.704   0.619   6.014
11796TIP3    H235346   3.636   0.753   6.001
11797TIP3   OH235347   4.258   2.921   2.579
11797TIP3    H135348   4.317   2.944   2.507
11797TIP3    H235349   4.265   2.994   2.640
11798TIP3   OH235350   8.105   0.352   6.453
11798TIP3    H135351   8.180   0.307   6.413
11798TIP3    H235352   8.126   0.445   6.445
11799TIP3   OH235353   3.859   7.671   3.069
11799TIP3    H135354   3.917   7.641   2.999
11799TIP3    H235355   3.801   7.734   3.026
11800TIP3   OH235356   2.202   0.005   4.338
11800TIP3    H135357   2.289   0.020   4.376
11800TIP3    H235358   2.160   0.091   4.339
11801TIP3   OH235359   7.280   1.826   1.627
11801TIP3    H135360   7.313   1.759   1.687
11801TIP3    H235361   7.219   1.877   1.680
11802TIP3   OH235362   1.851   1.499   2.496
11802TIP3    H135363   1.783   1.566   2.485
11802TIP3    H235364   1.837   1.465   2.584
11803TIP3   OH235365   4.842   1.412   6.326
11803TIP3    H135366   4.756   1.445   6.298
11803TIP3    H235367   4.827   1.377   6.414
11804TIP3   OH235368   1.004   6.968   1.889
11804TIP3    H135369   1.060   6.891   1.876
11804TIP3    H235370   1.004   7.012   1.804
11805TIP3   OH235371   1.394   7.186   6.572
11805TIP3    H135372   1.476   7.216   6.611
11805TIP3    H235373   1.328   7.246   6.607
11806TIP3   OH235374   7.191   2.077   2.954
11806TIP3    H135375   7.111   2.026   2.941
11806TIP3    H235376   7.198   2.086   3.049
11807TIP3   OH235377   0.525   1.161   0.267
11807TIP3    H135378   0.536   1.116   0.350
11807TIP3    H235379   0.606   1.210   0.255
11808TIP3   OH235380   1.047   1.020   5.571
11808TIP3    H135381   1.077   0.953   5.633
11808TIP3    H235382   1.114   1.021   5.503
11809TIP3   OH235383   3.171   1.461   0.617
11809TIP3    H135384   3.252   1.509   0.634
11809TIP3    H235385   3.183   1.378   0.664
11810TIP3   OH235386   6.182   3.781   3.310
11810TIP3    H135387   6.157   3.828   3.230
11810TIP3    H235388   6.171   3.689   3.288
11811TIP3   OH235389   0.649   0.593   0.172
11811TIP3    H135390   0.582   0.524   0.165
11811TIP3    H235391   0.614   0.654   0.237
11812TIP3   OH235392   0.077   2.988   6.529
11812TIP3    H135393   0.126   3.043   6.468
11812TIP3    H235394  -0.013   2.992   6.497
11813TIP3   OH235395   3.983   7.107   3.115
11813TIP3    H135396   3.904   7.157   3.137
11813TIP3    H235397   3.962   7.016   3.137
11814TIP3   OH235398   6.799   1.235   3.384
11814TIP3    H135399   6.828   1.316   3.341
11814TIP3    H235400   6.726   1.205   3.331
11815TIP3   OH235401   6.748   3.500   3.515
11815TIP3    H135402   6.691   3.573   3.490
11815TIP3    H235403   6.836   3.537   3.516
11816TIP3   OH235404   4.698   0.507   0.277
11816TIP3    H135405   4.612   0.546   0.259
11816TIP3    H235406   4.721   0.539   0.364
11817TIP3   OH235407   5.874   3.053   4.518
11817TIP3    H135408   5.811   3.028   4.586
11817TIP3    H235409   5.948   2.994   4.532
11818TIP3   OH235410   0.658   7.769   4.223
11818TIP3    H135411   0.701   7.742   4.304
11818TIP3    H235412   0.581   7.818   4.252
11819TIP3   OH235413   5.324   7.417   3.890
11819TIP3    H135414   5.411   7.452   3.869
11819TIP3    H235415   5.305   7.453   3.977
11820TIP3   OH235416   1.629   1.337   1.915
11820TIP3    H135417   1.597   1.303   1.831
11820TIP3    H235418   1.725   1.331   1.908
11821TIP3   OH235419   1.560   3.417   6.720
11821TIP3    H135420   1.550   3.466   6.638
11821TIP3    H235421   1.653   3.425   6.741
11822TIP3   OH235422   6.146   7.687   2.060
11822TIP3    H135423   6.137   7.630   1.983
11822TIP3    H235424   6.230   7.661   2.098
11823TIP3   OH235425   7.403   3.210   5.615
11823TIP3    H135426   7.325   3.198   5.668
11823TIP3    H235427   7.399   3.141   5.549
11824TIP3   OH235428   2.347   3.824   5.132
11824TIP3    H135429   2.349   3.901   5.075
11824TIP3    H235430   2.438   3.796   5.138
11825TIP3   OH235431   7.102   7.196   3.514
11825TIP3    H135432   7.023   7.212   3.567
11825TIP3    H235433   7.094   7.258   3.441
11826TIP3   OH235434   6.893   3.797   1.183
11826TIP3    H135435   6.862   3.732   1.119
11826TIP3    H235436   6.840   3.875   1.165
11827TIP3   OH235437   4.444   4.734   5.295
11827TIP3    H135438   4.480   4.789   5.364
11827TIP3    H235439   4.432   4.793   5.220
11828TIP3   OH235440   7.278   5.283   6.190
11828TIP3    H135441   7.263   5.299   6.097
11828TIP3    H235442   7.327   5.360   6.220
11829TIP3   OH235443   5.444   7.413   2.723
11829TIP3    H135444   5.373   7.461   2.766
11829TIP3    H235445   5.515   7.411   2.787
11830TIP3   OH235446   7.165   7.139   4.273
11830TIP3    H135447   7.199   7.177   4.354
11830TIP3    H235448   7.170   7.044   4.287
11831TIP3   OH235449   4.533   4.745   0.582
11831TIP3    H135450   4.486   4.827   0.564
11831TIP3    H235451   4.550   4.747   0.676
11832TIP3   OH235452   6.859   3.606   5.114
11832TIP3    H135453   6.789   3.670   5.122
11832TIP3    H235454   6.817   3.530   5.074
11833TIP3   OH235455   0.788   3.544   3.859
11833TIP3    H135456   0.819   3.500   3.937
11833TIP3    H235457   0.785   3.476   3.792
11834TIP3   OH235458   6.462   7.742   6.145
11834TIP3    H135459   6.430   7.698   6.224
11834TIP3    H235460   6.452   7.835   6.164
11835TIP3   OH235461   5.400   5.279   2.213
11835TIP3    H135462   5.351   5.354   2.246
11835TIP3    H235463   5.469   5.264   2.277
11836TIP3   OH235464   0.238   4.916   6.651
11836TIP3    H135465   0.158   4.884   6.692
11836TIP3    H235466   0.266   4.844   6.594
11837TIP3   OH235467   5.855   2.759   1.299
11837TIP3    H135468   5.849   2.849   1.330
11837TIP3    H235469   5.858   2.706   1.379
11838TIP3   OH235470   7.647   5.565   1.288
11838TIP3    H135471   7.573   5.546   1.230
11838TIP3    H235472   7.680   5.479   1.312
11839TIP3   OH235473   7.463   0.877   2.371
11839TIP3    H135474   7.514   0.956   2.351
11839TIP3    H235475   7.519   0.804   2.345
11840TIP3   OH235476   1.661   0.486   0.114
11840TIP3    H135477   1.743   0.437   0.110
11840TIP3    H235478   1.618   0.469   0.030
11841TIP3   OH235479   4.283   5.828   4.556
11841TIP3    H135480   4.360   5.792   4.512
11841TIP3    H235481   4.315   5.904   4.604
11842TIP3   OH235482   2.334   1.173   0.061
11842TIP3    H135483   2.426   1.152   0.049
11842TIP3    H235484   2.308   1.128   0.141
11843TIP3   OH235485   6.638   3.426   0.461
11843TIP3    H135486   6.678   3.346   0.493
11843TIP3    H235487   6.547   3.402   0.442
11844TIP3   OH235488   3.452   4.871   0.570
11844TIP3    H135489   3.399   4.810   0.518
11844TIP3    H235490   3.484   4.935   0.506
11845TIP3   OH235491   1.904   3.648   4.601
11845TIP3    H135492   1.977   3.638   4.662
11845TIP3    H235493   1.827   3.620   4.651
11846TIP3   OH235494   3.657   1.576   0.317
11846TIP3    H135495   3.726   1.527   0.270
11846TIP3    H235496   3.581   1.517   0.315
11847TIP3   OH235497   6.353   2.515   2.054
11847TIP3    H135498   6.389   2.431   2.081
11847TIP3    H235499   6.430   2.572   2.046
11848TIP3   OH235500   6.236   4.366   5.754
11848TIP3    H135501   6.226   4.428   5.826
11848TIP3    H235502   6.309   4.402   5.702
11849TIP3   OH235503   0.298   4.187   6.334
11849TIP3    H135504   0.346   4.233   6.403
11849TIP3    H235505   0.364   4.170   6.267
11850TIP3   OH235506   6.348   2.635   5.830
11850TIP3    H135507   6.274   2.620   5.888
11850TIP3    H235508   6.316   2.697   5.765
11851TIP3   OH235509   5.490   4.924   1.186
11851TIP3    H135510   5.432   4.983   1.139
11851TIP3    H235511   5.515   4.972   1.265
11852TIP3   OH235512   1.457   0.538   2.611
11852TIP3    H135513   1.437   0.445   2.611
11852TIP3    H235514   1.480   0.558   2.520
11853TIP3   OH235515   8.258   3.968   2.483
11853TIP3    H135516   8.336   3.918   2.511
11853TIP3    H235517   8.186   3.906   2.491
11854TIP3   OH235518   6.374   1.751   5.860
11854TIP3    H135519   6.447   1.739   5.920
11854TIP3    H235520   6.327   1.828   5.893
11855TIP3   OH235521   4.790   4.780   1.493
11855TIP3    H135522   4.706   4.741   1.466
11855TIP3    H235523   4.779   4.873   1.478
11856TIP3   OH235524   2.190   0.018   5.646
11856TIP3    H135525   2.228   0.095   5.604
11856TIP3    H235526   2.096   0.027   5.632
11857TIP3   OH235527   3.804   2.783   1.755
11857TIP3    H135528   3.811   2.849   1.825
11857TIP3    H235529   3.833   2.829   1.677
11858TIP3   OH235530   3.429   5.775   1.539
11858TIP3    H135531   3.423   5.682   1.521
11858TIP3    H235532   3.342   5.800   1.571
11859TIP3   OH235533   3.054   2.923   0.872
11859TIP3    H135534   3.112   2.955   0.940
11859TIP3    H235535   2.988   2.992   0.862
11860TIP3   OH235536   1.747   0.719   2.585
11860TIP3    H135537   1.813   0.660   2.621
11860TIP3    H235538   1.686   0.662   2.539
11861TIP3   OH235539   1.165   4.678   5.295
11861TIP3    H135540   1.072   4.667   5.314
11861TIP3    H235541   1.170   4.756   5.242
11862TIP3   OH235542   3.903   0.527   2.654
11862TIP3    H135543   3.859   0.588   2.594
11862TIP3    H235544   3.832   0.488   2.705
11863TIP3   OH235545   1.628   1.839   2.706
11863TIP3    H135546   1.537   1.809   2.703
11863TIP3    H235547   1.672   1.789   2.637
11864TIP3   OH235548   1.736   0.221   1.612
11864TIP3    H135549   1.783   0.138   1.610
11864TIP3    H235550   1.773   0.271   1.539
11865TIP3   OH235551   4.497   6.264   1.091
11865TIP3    H135552   4.535   6.178   1.072
11865TIP3    H235553   4.561   6.326   1.056
11866TIP3   OH235554   5.742   5.365   3.324
11866TIP3    H135555   5.816   5.308   3.303
11866TIP3    H235556   5.743   5.431   3.254
11867TIP3   OH235557   1.262   6.499   4.878
11867TIP3    H135558   1.323   6.571   4.869
11867TIP3    H235559   1.284   6.439   4.807
11868TIP3   OH235560   1.954   1.032   4.619
11868TIP3    H135561   2.012   1.084   4.564
11868TIP3    H235562   2.003   1.019   4.700
11869TIP3   OH235563   7.437   2.999   6.069
11869TIP3    H135564   7.507   3.040   6.119
11869TIP3    H235565   7.357   3.039   6.102
11870TIP3   OH235566   2.660   3.167   5.542
11870TIP3    H135567   2.637   3.106   5.472
11870TIP3    H235568   2.576   3.202   5.572
11871TIP3   OH235569   6.944   3.699   3.759
11871TIP3    H135570   6.895   3.697   3.841
11871TIP3    H235571   6.883   3.736   3.695
11872TIP3   OH235572   5.934   3.731   6.407
11872TIP3    H135573   5.889   3.708   6.326
11872TIP3    H235574   6.003   3.791   6.381
11873TIP3   OH235575   3.764   6.143   0.665
11873TIP3    H135576   3.716   6.125   0.584
11873TIP3    H235577   3.855   6.152   0.637
11874TIP3   OH235578   6.488   0.365   0.404
11874TIP3    H135579   6.457   0.321   0.483
11874TIP3    H235580   6.504   0.455   0.431
11875TIP3   OH235581   7.661   3.803   5.458
11875TIP3    H135582   7.706   3.838   5.535
11875TIP3    H235583   7.571   3.787   5.487
11876TIP3   OH235584   0.201   7.570   6.545
11876TIP3    H135585   0.221   7.555   6.638
11876TIP3    H235586   0.268   7.521   6.498
11877TIP3   OH235587   1.410   7.248   0.456
11877TIP3    H135588   1.323   7.285   0.442
11877TIP3    H235589   1.460   7.319   0.497
11878TIP3   OH235590   6.335   7.184   6.263
11878TIP3    H135591   6.342   7.272   6.225
11878TIP3    H235592   6.242   7.172   6.279
11879TIP3   OH235593   1.568   6.118   1.121
11879TIP3    H135594   1.598   6.120   1.031
11879TIP3    H235595   1.570   6.026   1.146
11880TIP3   OH235596   5.499   7.299   6.222
11880TIP3    H135597   5.414   7.341   6.238
11880TIP3    H235598   5.485   7.244   6.145
11881TIP3   OH235599   2.383   4.242   0.927
11881TIP3    H135600   2.377   4.147   0.931
11881TIP3    H235601   2.473   4.262   0.953
11882TIP3   OH235602   1.749   0.159   0.625
11882TIP3    H135603   1.740   0.183   0.533
11882TIP3    H235604   1.731   0.065   0.628
11883TIP3   OH235605   6.283   7.014   3.607
11883TIP3    H135606   6.348   7.034   3.540
11883TIP3    H235607   6.324   6.945   3.659
11884TIP3   OH235608   3.960   7.022   1.308
11884TIP3    H135609   3.936   7.073   1.231
11884TIP3    H235610   3.889   7.038   1.371
11885TIP3   OH235611   5.180   2.165   5.416
11885TIP3    H135612   5.233   2.228   5.464
11885TIP3    H235613   5.243   2.104   5.377
11886TIP3   OH235614   8.175   6.521   4.481
11886TIP3    H135615   8.226   6.445   4.451
11886TIP3    H235616   8.235   6.570   4.536
11887TIP3   OH235617   1.607   7.501   5.354
11887TIP3    H135618   1.531   7.535   5.402
11887TIP3    H235619   1.573   7.427   5.305
11888TIP3   OH235620   1.545   5.420   6.600
11888TIP3    H135621   1.521   5.328   6.590
11888TIP3    H235622   1.509   5.446   6.685
11889TIP3   OH235623   7.839   2.926   2.212
11889TIP3    H135624   7.751   2.907   2.245
11889TIP3    H235625   7.897   2.877   2.270
11890TIP3   OH235626   5.662   1.945   5.844
11890TIP3    H135627   5.638   1.924   5.934
11890TIP3    H235628   5.586   1.991   5.809
11891TIP3   OH235629   1.419   6.109   4.696
11891TIP3    H135630   1.369   6.188   4.720
11891TIP3    H235631   1.472   6.137   4.621
11892TIP3   OH235632   2.461   5.068   5.665
11892TIP3    H135633   2.424   5.058   5.578
11892TIP3    H235634   2.541   5.015   5.664
11893TIP3   OH235635   4.164   3.377   5.511
11893TIP3    H135636   4.069   3.372   5.519
11893TIP3    H235637   4.197   3.320   5.581
11894TIP3   OH235638   7.591   3.655   6.001
11894TIP3    H135639   7.584   3.688   6.091
11894TIP3    H235640   7.684   3.634   5.990
11895TIP3   OH235641   0.579   1.395   1.357
11895TIP3    H135642   0.542   1.390   1.445
11895TIP3    H235643   0.663   1.440   1.370
11896TIP3   OH235644   1.571   2.400   1.795
11896TIP3    H135645   1.589   2.440   1.881
11896TIP3    H235646   1.493   2.446   1.764
11897TIP3   OH235647   0.408   1.084   2.241
11897TIP3    H135648   0.371   1.002   2.209
11897TIP3    H235649   0.436   1.130   2.162
11898TIP3   OH235650   7.188   7.437   6.308
11898TIP3    H135651   7.164   7.463   6.397
11898TIP3    H235652   7.243   7.359   6.320
11899TIP3   OH235653   1.175   6.355   0.350
11899TIP3    H135654   1.187   6.389   0.439
11899TIP3    H235655   1.246   6.395   0.299
11900TIP3   OH235656   0.918   6.081   5.447
11900TIP3    H135657   0.894   6.109   5.359
11900TIP3    H235658   0.981   6.147   5.477
11901TIP3   OH235659   7.260   7.484   0.174
11901TIP3    H135660   7.213   7.545   0.118
11901TIP3    H235661   7.281   7.409   0.117
11902TIP3   OH235662   0.917   0.077   2.532
11902TIP3    H135663   0.857   0.151   2.523
11902TIP3    H235664   0.956   0.067   2.445
11903TIP3   OH235665   7.366   2.824   3.173
11903TIP3    H135666   7.366   2.756   3.105
11903TIP3    H235667   7.380   2.906   3.125
11904TIP3   OH235668   7.676   6.197   1.096
11904TIP3    H135669   7.692   6.202   1.190
11904TIP3    H235670   7.583   6.216   1.086
11905TIP3   OH235671   5.871   5.449   1.676
11905TIP3    H135672   5.881   5.420   1.767
11905TIP3    H235673   5.777   5.445   1.660
11906TIP3   OH235674   5.699   4.136   0.343
11906TIP3    H135675   5.733   4.211   0.293
11906TIP3    H235676   5.638   4.174   0.405
11907TIP3   OH235677   8.263   7.559   6.428
11907TIP3    H135678   8.226   7.472   6.444
11907TIP3    H235679   8.345   7.560   6.477
11908TIP3   OH235680   6.342   3.262   4.351
11908TIP3    H135681   6.249   3.265   4.328
11908TIP3    H235682   6.373   3.352   4.339
11909TIP3   OH235683   6.005   2.172   2.385
11909TIP3    H135684   5.974   2.262   2.370
11909TIP3    H235685   6.069   2.181   2.455
11910TIP3   OH235686   7.808   1.526   0.578
11910TIP3    H135687   7.838   1.469   0.649
11910TIP3    H235688   7.816   1.614   0.614
11911TIP3   OH235689   6.061   0.458   5.172
11911TIP3    H135690   6.132   0.402   5.204
11911TIP3    H235691   6.052   0.526   5.238
11912TIP3   OH235692   2.371   6.467   5.006
11912TIP3    H135693   2.289   6.489   4.961
11912TIP3    H235694   2.436   6.527   4.970
11913TIP3   OH235695   2.932   1.364   0.205
11913TIP3    H135696   2.981   1.388   0.127
11913TIP3    H235697   2.961   1.275   0.226
11914TIP3   OH235698   2.052   4.578   6.770
11914TIP3    H135699   2.054   4.485   6.793
11914TIP3    H235700   1.964   4.592   6.734
11915TIP3   OH235701   3.470   4.473   6.506
11915TIP3    H135702   3.532   4.484   6.433
11915TIP3    H235703   3.518   4.421   6.570
11916TIP3   OH235704   8.162   3.778   3.264
11916TIP3    H135705   8.181   3.685   3.253
11916TIP3    H235706   8.116   3.803   3.184
11917TIP3   OH235707   7.236   1.442   0.052
11917TIP3    H135708   7.326   1.449   0.084
11917TIP3    H235709   7.239   1.484  -0.034
11918TIP3   OH235710   7.626   6.184   6.762
11918TIP3    H135711   7.635   6.279   6.762
11918TIP3    H235712   7.694   6.154   6.700
11919TIP3   OH235713   0.396   2.986   6.128
11919TIP3    H135714   0.474   3.041   6.135
11919TIP3    H235715   0.367   2.997   6.037
11920TIP3   OH235716   1.170   5.909   2.323
11920TIP3    H135717   1.200   5.822   2.295
11920TIP3    H235718   1.081   5.894   2.355
11921TIP3   OH235719   4.790   0.493   1.367
11921TIP3    H135720   4.774   0.449   1.451
11921TIP3    H235721   4.856   0.559   1.387
11922TIP3   OH235722   5.624   5.150   6.288
11922TIP3    H135723   5.609   5.069   6.336
11922TIP3    H235724   5.657   5.121   6.203
11923TIP3   OH235725   4.305   7.122   3.754
11923TIP3    H135726   4.292   7.163   3.669
11923TIP3    H235727   4.399   7.129   3.771
11924TIP3   OH235728   1.855   1.164   5.446
11924TIP3    H135729   1.807   1.226   5.500
11924TIP3    H235730   1.842   1.079   5.489
11925TIP3   OH235731   6.571   0.189   4.481
11925TIP3    H135732   6.500   0.246   4.453
11925TIP3    H235733   6.647   0.216   4.429
11926TIP3   OH235734   5.429   0.049   1.485
11926TIP3    H135735   5.495  -0.020   1.492
11926TIP3    H235736   5.439   0.099   1.566
11927TIP3   OH235737   5.044   7.004   4.971
11927TIP3    H135738   4.989   7.073   5.009
11927TIP3    H235739   4.990   6.965   4.903
11928TIP3   OH235740   6.649   0.388   5.116
11928TIP3    H135741   6.559   0.404   5.087
11928TIP3    H235742   6.688   0.475   5.121
11929TIP3   OH235743   6.586   2.840   0.424
11929TIP3    H135744   6.586   2.842   0.519
11929TIP3    H235745   6.538   2.918   0.398
11930TIP3   OH235746   6.931   5.125   1.149
11930TIP3    H135747   6.981   5.085   1.078
11930TIP3    H235748   6.851   5.073   1.154
11931TIP3   OH235749   4.982   5.032   2.409
11931TIP3    H135750   5.035   5.020   2.331
11931TIP3    H235751   4.892   5.038   2.377
11932TIP3   OH235752   5.676   4.105   5.802
11932TIP3    H135753   5.756   4.079   5.757
11932TIP3    H235754   5.608   4.100   5.734
11933TIP3   OH235755   0.652   4.595   0.391
11933TIP3    H135756   0.591   4.526   0.364
11933TIP3    H235757   0.654   4.590   0.487
11934TIP3   OH235758   5.728   5.447   3.043
11934TIP3    H135759   5.759   5.502   2.971
11934TIP3    H235760   5.654   5.494   3.079
11935TIP3   OH235761   7.022   6.175   3.273
11935TIP3    H135762   7.108   6.189   3.314
11935TIP3    H235763   6.960   6.215   3.334
11936TIP3   OH235764   6.096   2.849   4.591
11936TIP3    H135765   6.137   2.935   4.599
11936TIP3    H235766   6.101   2.828   4.498
11937TIP3   OH235767   2.923   5.857   1.722
11937TIP3    H135768   2.918   5.826   1.632
11937TIP3    H235769   2.867   5.797   1.771
11938TIP3   OH235770   5.307   2.472   3.948
11938TIP3    H135771   5.389   2.511   3.978
11938TIP3    H235772   5.243   2.497   4.015
11939TIP3   OH235773   6.414   2.256   2.081
11939TIP3    H135774   6.325   2.221   2.082
11939TIP3    H235775   6.459   2.209   2.151
11940TIP3   OH235776   2.529   6.243   6.200
11940TIP3    H135777   2.452   6.256   6.145
11940TIP3    H235778   2.585   6.318   6.179
11941TIP3   OH235779   3.876   4.968   1.255
11941TIP3    H135780   3.817   4.901   1.219
11941TIP3    H235781   3.894   4.938   1.344
11942TIP3   OH235782   7.362   1.727   4.380
11942TIP3    H135783   7.343   1.779   4.303
11942TIP3    H235784   7.406   1.787   4.440
11943TIP3   OH235785   3.253   6.644   6.609
11943TIP3    H135786   3.256   6.663   6.702
11943TIP3    H235787   3.339   6.608   6.588
11944TIP3   OH235788   0.850   4.787   4.819
11944TIP3    H135789   0.917   4.786   4.751
11944TIP3    H235790   0.811   4.874   4.814
11945TIP3   OH235791   7.188   0.374   0.725
11945TIP3    H135792   7.189   0.284   0.756
11945TIP3    H235793   7.095   0.395   0.714
11946TIP3   OH235794   5.498   6.806   0.051
11946TIP3    H135795   5.409   6.778   0.071
11946TIP3    H235796   5.541   6.728   0.014
11947TIP3   OH235797   3.985   1.104   0.353
11947TIP3    H135798   4.026   1.018   0.339
11947TIP3    H235799   4.048   1.167   0.317
11948TIP3   OH235800   2.681   1.537   5.381
11948TIP3    H135801   2.604   1.522   5.325
11948TIP3    H235802   2.694   1.454   5.426
11949TIP3   OH235803   0.203   0.530   1.784
11949TIP3    H135804   0.189   0.577   1.866
11949TIP3    H235805   0.138   0.567   1.724
11950TIP3   OH235806   0.629   4.054   3.791
11950TIP3    H135807   0.678   4.052   3.873
11950TIP3    H235808   0.609   3.962   3.773
11951TIP3   OH235809   5.848   6.877   2.904
11951TIP3    H135810   5.846   6.829   2.821
11951TIP3    H235811   5.786   6.949   2.892
11952TIP3   OH235812   2.876   6.295   3.001
11952TIP3    H135813   2.881   6.200   3.002
11952TIP3    H235814   2.952   6.323   2.949
11953TIP3   OH235815   0.545   1.878   1.197
11953TIP3    H135816   0.629   1.876   1.242
11953TIP3    H235817   0.495   1.806   1.237
11954TIP3   OH235818   4.052   5.561   3.964
11954TIP3    H135819   4.061   5.549   3.869
11954TIP3    H235820   4.106   5.492   4.002
11955TIP3   OH235821   0.915   4.802   5.301
11955TIP3    H135822   0.920   4.862   5.226
11955TIP3    H235823   0.835   4.753   5.287
11956TIP3   OH235824   0.518   5.173   3.346
11956TIP3    H135825   0.539   5.207   3.259
11956TIP3    H235826   0.584   5.213   3.404
11957TIP3   OH235827   6.445   1.395   2.420
11957TIP3    H135828   6.453   1.308   2.378
11957TIP3    H235829   6.394   1.446   2.357
11958TIP3   OH235830   5.091   7.590   1.329
11958TIP3    H135831   5.173   7.600   1.377
11958TIP3    H235832   5.051   7.512   1.365
11959TIP3   OH235833   1.729   6.397   2.471
11959TIP3    H135834   1.797   6.334   2.447
11959TIP3    H235835   1.689   6.421   2.388
11960TIP3   OH235836   6.308   7.517   1.234
11960TIP3    H135837   6.324   7.609   1.213
11960TIP3    H235838   6.285   7.517   1.327
11961TIP3   OH235839   1.251   7.740   6.561
11961TIP3    H135840   1.307   7.662   6.564
11961TIP3    H235841   1.171   7.711   6.519
11962TIP3   OH235842   7.948   2.877   1.926
11962TIP3    H135843   7.866   2.926   1.913
11962TIP3    H235844   7.989   2.920   2.001
11963TIP3   OH235845   6.279   5.668   2.125
11963TIP3    H135846   6.352   5.607   2.134
11963TIP3    H235847   6.245   5.652   2.037
11964TIP3   OH235848   0.326   0.747   5.525
11964TIP3    H135849   0.323   0.656   5.496
11964TIP3    H235850   0.416   0.775   5.505
11965TIP3   OH235851   3.882   1.708  -0.009
11965TIP3    H135852   3.917   1.774   0.050
11965TIP3    H235853   3.923   1.626   0.020
11966TIP3   OH235854   6.689   2.903   1.849
11966TIP3    H135855   6.704   2.996   1.834
11966TIP3    H235856   6.746   2.859   1.786
11967TIP3   OH235857   0.064   4.827   3.807
11967TIP3    H135858   0.090   4.788   3.891
11967TIP3    H235859   0.093   4.764   3.741
11968TIP3   OH235860   5.830   6.957   3.207
11968TIP3    H135861   5.885   6.965   3.129
11968TIP3    H235862   5.783   6.875   3.195
11969TIP3   OH235863   0.755   0.964   4.153
11969TIP3    H135864   0.805   1.045   4.163
11969TIP3    H235865   0.671   0.992   4.118
11970TIP3   OH235866   3.315   5.455   0.211
11970TIP3    H135867   3.252   5.386   0.231
11970TIP3    H235868   3.317   5.509   0.290
11971TIP3   OH235869   2.244   3.358   3.132
11971TIP3    H135870   2.207   3.306   3.203
11971TIP3    H235871   2.333   3.324   3.122
11972TIP3   OH235872   5.798   3.436   3.719
11972TIP3    H135873   5.829   3.351   3.689
11972TIP3    H235874   5.738   3.466   3.650
11973TIP3   OH235875   7.093   5.326   4.798
11973TIP3    H135876   7.004   5.306   4.769
11973TIP3    H235877   7.082   5.366   4.884
11974TIP3   OH235878   5.114   4.285   3.656
11974TIP3    H135879   5.193   4.264   3.706
11974TIP3    H235880   5.084   4.368   3.695
11975TIP3   OH235881   6.663   6.566   1.603
11975TIP3    H135882   6.739   6.512   1.624
11975TIP3    H235883   6.599   6.544   1.670
11976TIP3   OH235884   4.457   0.641   0.211
11976TIP3    H135885   4.393   0.675   0.149
11976TIP3    H235886   4.446   0.695   0.289
11977TIP3   OH235887   5.574   1.032   4.655
11977TIP3    H135888   5.584   1.018   4.749
11977TIP3    H235889   5.507   1.101   4.648
11978TIP3   OH235890   6.535   4.998   6.412
11978TIP3    H135891   6.541   4.930   6.344
11978TIP3    H235892   6.595   4.969   6.481
11979TIP3   OH235893   4.401   7.517   1.367
11979TIP3    H135894   4.401   7.584   1.298
11979TIP3    H235895   4.324   7.463   1.348
11980TIP3   OH235896   7.215   6.487   2.967
11980TIP3    H135897   7.218   6.395   2.993
11980TIP3    H235898   7.123   6.503   2.945
11981TIP3   OH235899   0.116   5.823   4.331
11981TIP3    H135900   0.158   5.839   4.247
11981TIP3    H235901   0.022   5.826   4.312
11982TIP3   OH235902   2.334   4.091   6.399
11982TIP3    H135903   2.280   4.034   6.453
11982TIP3    H235904   2.271   4.136   6.342
11983TIP3   OH235905   4.783   4.974   3.406
11983TIP3    H135906   4.875   4.977   3.380
11983TIP3    H235907   4.751   5.062   3.387
11984TIP3   OH235908   7.043   3.835   4.539
11984TIP3    H135909   7.050   3.758   4.596
11984TIP3    H235910   7.067   3.802   4.452
11985TIP3   OH235911   7.596   3.895   0.808
11985TIP3    H135912   7.685   3.919   0.782
11985TIP3    H235913   7.544   3.903   0.728
11986TIP3   OH235914   4.210   3.619   2.942
11986TIP3    H135915   4.250   3.679   3.005
11986TIP3    H235916   4.122   3.653   2.929
11987TIP3   OH235917   7.008   1.715   0.774
11987TIP3    H135918   6.967   1.634   0.744
11987TIP3    H235919   6.966   1.784   0.724
11988TIP3   OH235920   4.411   6.750   5.459
11988TIP3    H135921   4.355   6.683   5.420
11988TIP3    H235922   4.500   6.721   5.440
11989TIP3   OH235923   0.049   5.718   3.821
11989TIP3    H135924   0.038   5.624   3.834
11989TIP3    H235925   0.045   5.729   3.726
11990TIP3   OH235926   4.326   7.784   6.117
11990TIP3    H135927   4.358   7.874   6.112
11990TIP3    H235928   4.285   7.778   6.203
11991TIP3   OH235929   0.276   0.415   1.021
11991TIP3    H135930   0.283   0.448   1.110
11991TIP3    H235931   0.182   0.402   1.006
11992TIP3   OH235932   5.084   5.547   2.064
11992TIP3    H135933   5.050   5.466   2.102
11992TIP3    H235934   5.048   5.616   2.119
11993TIP3   OH235935   7.236   4.121   0.073
11993TIP3    H135936   7.172   4.190   0.089
11993TIP3    H235937   7.300   4.130   0.143
11994TIP3   OH235938   5.907   5.039   3.494
11994TIP3    H135939   5.959   4.961   3.515
11994TIP3    H235940   5.966   5.093   3.442
11995TIP3   OH235941   4.759   3.273   6.010
11995TIP3    H135942   4.686   3.217   6.033
11995TIP3    H235943   4.735   3.359   6.044
11996TIP3   OH235944   0.768   4.564   4.967
11996TIP3    H135945   0.791   4.650   4.932
11996TIP3    H235946   0.749   4.581   5.060
11997TIP3   OH235947   6.559   6.737   0.313
11997TIP3    H135948   6.555   6.829   0.338
11997TIP3    H235949   6.476   6.720   0.268
11998TIP3   OH235950   0.106   3.445   6.359
11998TIP3    H135951   0.110   3.491   6.443
11998TIP3    H235952   0.175   3.379   6.364
11999TIP3   OH235953   5.065   1.838   1.570
11999TIP3    H135954   5.103   1.754   1.593
11999TIP3    H235955   5.013   1.863   1.647
12000TIP3   OH235956   4.888   1.652   6.628
12000TIP3    H135957   4.836   1.575   6.651
12000TIP3    H235958   4.849   1.685   6.547
12001TIP3   OH235959   1.569   6.929   2.183
12001TIP3    H135960   1.535   6.909   2.096
12001TIP3    H235961   1.649   6.876   2.190
12002TIP3   OH235962   6.353   4.882   4.896
12002TIP3    H135963   6.284   4.875   4.830
12002TIP3    H235964   6.373   4.975   4.901
12003TIP3   OH235965   1.437   3.346   4.939
12003TIP3    H135966   1.347   3.319   4.954
12003TIP3    H235967   1.484   3.319   5.018
12004TIP3   OH235968   1.666   2.733   2.831
12004TIP3    H135969   1.709   2.651   2.859
12004TIP3    H235970   1.591   2.741   2.890
12005TIP3   OH235971   0.807   3.786   0.073
12005TIP3    H135972   0.875   3.742   0.023
12005TIP3    H235973   0.794   3.731   0.150
12006TIP3   OH235974   1.882   7.433   2.055
12006TIP3    H135975   1.896   7.501   2.120
12006TIP3    H235976   1.950   7.368   2.072
12007TIP3   OH235977   1.201   6.966   0.875
12007TIP3    H135978   1.225   6.984   0.784
12007TIP3    H235979   1.158   7.046   0.905
12008TIP3   OH235980   8.058   5.787   3.927
12008TIP3    H135981   8.151   5.789   3.904
12008TIP3    H235982   8.038   5.694   3.939
12009TIP3   OH235983   3.610   5.202   1.005
12009TIP3    H135984   3.550   5.266   0.968
12009TIP3    H235985   3.597   5.123   0.953
12010TIP3   OH235986   0.357   7.444   2.751
12010TIP3    H135987   0.277   7.494   2.763
12010TIP3    H235988   0.405   7.454   2.833
12011TIP3   OH235989   6.107   2.568   5.951
12011TIP3    H135990   6.132   2.478   5.969
12011TIP3    H235991   6.044   2.590   6.019
12012TIP3   OH235992   1.175   3.515   0.276
12012TIP3    H135993   1.250   3.498   0.218
12012TIP3    H235994   1.105   3.460   0.241
12013TIP3   OH235995   1.163   2.294   6.630
12013TIP3    H135996   1.169   2.385   6.602
12013TIP3    H235997   1.158   2.244   6.549
12014TIP3   OH235998   7.860   0.270   0.439
12014TIP3    H135999   7.945   0.294   0.475
12014TIP3    H236000   7.834   0.192   0.488
12015TIP3   OH236001   0.679   1.125   1.559
12015TIP3    H136002   0.589   1.152   1.544
12015TIP3    H236003   0.716   1.195   1.614
12016TIP3   OH236004   6.427   0.359   4.304
12016TIP3    H136005   6.501   0.379   4.247
12016TIP3    H236006   6.387   0.444   4.322
12017TIP3   OH236007   2.682   7.190   2.527
12017TIP3    H136008   2.669   7.212   2.435
12017TIP3    H236009   2.770   7.223   2.548
12018TIP3   OH236010   3.960   6.810   4.286
12018TIP3    H136011   3.966   6.824   4.380
12018TIP3    H236012   4.047   6.783   4.259
12019TIP3   OH236013   4.080   1.233   2.331
12019TIP3    H136014   4.171   1.217   2.307
12019TIP3    H236015   4.085   1.299   2.400
12020TIP3   OH236016   8.136   3.011   5.461
12020TIP3    H136017   8.120   2.996   5.368
12020TIP3    H236018   8.145   2.923   5.498
12021TIP3   OH236019   4.282   2.464   4.702
12021TIP3    H136020   4.279   2.487   4.795
12021TIP3    H236021   4.200   2.417   4.687
12022TIP3   OH236022   0.702   6.482   4.946
12022TIP3    H136023   0.718   6.388   4.948
12022TIP3    H236024   0.784   6.520   4.914
12023TIP3   OH236025   2.114   6.877   3.229
12023TIP3    H136026   2.111   6.959   3.278
12023TIP3    H236027   2.093   6.810   3.294
12024TIP3   OH236028   5.153   7.117   1.591
12024TIP3    H136029   5.141   7.025   1.564
12024TIP3    H236030   5.138   7.116   1.686
12025TIP3   OH236031   4.226   3.145   0.583
12025TIP3    H136032   4.215   3.140   0.678
12025TIP3    H236033   4.139   3.125   0.548
12026TIP3   OH236034   3.203   7.379   5.803
12026TIP3    H136035   3.174   7.436   5.875
12026TIP3    H236036   3.180   7.428   5.724
12027TIP3   OH236037   2.244   6.354   6.116
12027TIP3    H136038   2.221   6.397   6.034
12027TIP3    H236039   2.160   6.333   6.157
12028TIP3   OH236040   2.165   2.977   6.143
12028TIP3    H136041   2.183   2.913   6.074
12028TIP3    H236042   2.073   3.001   6.130
12029TIP3   OH236043   0.614   1.425   6.590
12029TIP3    H136044   0.706   1.414   6.617
12029TIP3    H236045   0.611   1.513   6.553
12030TIP3   OH236046   2.295   6.522   6.494
12030TIP3    H136047   2.310   6.589   6.427
12030TIP3    H236048   2.295   6.439   6.445
12031TIP3   OH236049   6.762   0.553   0.371
12031TIP3    H136050   6.807   0.631   0.339
12031TIP3    H236051   6.688   0.585   0.422
12032TIP3   OH236052   2.043   2.905   6.507
12032TIP3    H136053   2.018   2.994   6.534
12032TIP3    H236054   2.125   2.916   6.458
12033TIP3   OH236055   5.272   4.912   6.234
12033TIP3    H136056   5.357   4.932   6.195
12033TIP3    H236057   5.283   4.824   6.271
12034TIP3   OH236058   4.716   0.697   6.097
12034TIP3    H136059   4.772   0.756   6.146
12034TIP3    H236060   4.691   0.747   6.019
12035TIP3   OH236061   5.265   7.663   5.510
12035TIP3    H136062   5.320   7.587   5.490
12035TIP3    H236063   5.217   7.680   5.429
12036TIP3   OH236064   4.078   6.879   6.164
12036TIP3    H136065   4.014   6.907   6.230
12036TIP3    H236066   4.116   6.799   6.199
12037TIP3   OH236067   4.664   0.486   2.688
12037TIP3    H136068   4.664   0.473   2.783
12037TIP3    H236069   4.736   0.547   2.672
12038TIP3   OH236070   1.280   2.848   1.225
12038TIP3    H136071   1.193   2.827   1.260
12038TIP3    H236072   1.309   2.767   1.183
12039TIP3   OH236073   6.565   3.624   0.051
12039TIP3    H136074   6.558   3.676  -0.029
12039TIP3    H236075   6.583   3.688   0.120
12040TIP3   OH236076   7.955   4.950   0.598
12040TIP3    H136077   7.961   5.029   0.544
12040TIP3    H236078   7.896   4.974   0.669
12041TIP3   OH236079   4.294   3.265   6.727
12041TIP3    H136080   4.290   3.170   6.724
12041TIP3    H236081   4.233   3.289   6.797
12042TIP3   OH236082   4.463   6.093   5.036
12042TIP3    H136083   4.435   6.147   5.110
12042TIP3    H236084   4.448   6.003   5.065
12043TIP3   OH236085   5.935   2.149   0.348
12043TIP3    H136086   6.026   2.150   0.319
12043TIP3    H236087   5.896   2.226   0.307
12044TIP3   OH236088   6.704   4.766   4.371
12044TIP3    H136089   6.714   4.676   4.341
12044TIP3    H236090   6.752   4.770   4.453
12045TIP3   OH236091   3.389   6.404   2.415
12045TIP3    H136092   3.423   6.319   2.388
12045TIP3    H236093   3.457   6.466   2.389
12046TIP3   OH236094   6.735   3.531   5.421
12046TIP3    H136095   6.772   3.467   5.482
12046TIP3    H236096   6.696   3.478   5.352
12047TIP3   OH236097   2.665   6.508   6.450
12047TIP3    H136098   2.677   6.430   6.395
12047TIP3    H236099   2.595   6.484   6.511
12048TIP3   OH236100   2.197   3.154   5.045
12048TIP3    H136101   2.156   3.239   5.027
12048TIP3    H236102   2.286   3.176   5.074
12049TIP3   OH236103   8.219   2.529   6.185
12049TIP3    H136104   8.223   2.624   6.198
12049TIP3    H236105   8.289   2.494   6.240
12050TIP3   OH236106   1.239   5.469   4.193
12050TIP3    H136107   1.231   5.489   4.286
12050TIP3    H236108   1.325   5.502   4.168
12051TIP3   OH236109   7.277   2.786   5.318
12051TIP3    H136110   7.284   2.777   5.223
12051TIP3    H236111   7.306   2.702   5.353
12052TIP3   OH236112   0.682   6.578   5.270
12052TIP3    H136113   0.776   6.576   5.257
12052TIP3    H236114   0.658   6.670   5.261
12053TIP3   OH236115   7.776   5.203   3.711
12053TIP3    H136116   7.794   5.145   3.637
12053TIP3    H236117   7.687   5.179   3.739
12054TIP3   OH236118   8.214   6.280   2.457
12054TIP3    H136119   8.157   6.252   2.386
12054TIP3    H236120   8.277   6.339   2.415
12055TIP3   OH236121   5.266   7.012   6.387
12055TIP3    H136122   5.270   7.078   6.456
12055TIP3    H236123   5.352   6.970   6.389
12056TIP3   OH236124   0.146   2.358   4.093
12056TIP3    H136125   0.199   2.280   4.103
12056TIP3    H236126   0.153   2.380   4.000
12057TIP3   OH236127   0.040   7.698   1.357
12057TIP3    H136128   0.085   7.690   1.440
12057TIP3    H236129   0.110   7.700   1.291
12058TIP3   OH236130   7.147   3.140   2.473
12058TIP3    H136131   7.201   3.069   2.508
12058TIP3    H236132   7.169   3.144   2.380
12059TIP3   OH236133   6.390   1.345   1.140
12059TIP3    H136134   6.344   1.307   1.065
12059TIP3    H236135   6.335   1.418   1.168
12060TIP3   OH236136   0.544   1.811   1.928
12060TIP3    H136137   0.584   1.800   2.014
12060TIP3    H236138   0.553   1.725   1.887
12061TIP3   OH236139   1.915   5.700   0.266
12061TIP3    H136140   1.829   5.677   0.229
12061TIP3    H236141   1.896   5.721   0.358
12062TIP3   OH236142   4.116   2.377   3.289
12062TIP3    H136143   4.070   2.353   3.369
12062TIP3    H236144   4.122   2.473   3.292
12063TIP3   OH236145   6.265   0.148   3.085
12063TIP3    H136146   6.311   0.208   3.143
12063TIP3    H236147   6.259   0.195   3.001
12064TIP3   OH236148   5.760   2.426   4.155
12064TIP3    H136149   5.803   2.342   4.139
12064TIP3    H236150   5.832   2.487   4.175
12065TIP3   OH236151   4.810   5.877   3.918
12065TIP3    H136152   4.867   5.817   3.869
12065TIP3    H236153   4.787   5.945   3.855
12066TIP3   OH236154   8.272   0.295   1.608
12066TIP3    H136155   8.361   0.262   1.595
12066TIP3    H236156   8.240   0.248   1.685
12067TIP3   OH236157   6.594   4.666   4.682
12067TIP3    H136158   6.653   4.738   4.660
12067TIP3    H236159   6.568   4.683   4.773
12068TIP3   OH236160   7.034   5.515   5.884
12068TIP3    H136161   6.968   5.525   5.952
12068TIP3    H236162   6.987   5.476   5.810
12069TIP3   OH236163   6.424   4.714   5.474
12069TIP3    H136164   6.512   4.679   5.460
12069TIP3    H236165   6.386   4.657   5.540
12070TIP3   OH236166   6.081   3.962   2.148
12070TIP3    H136167   6.105   3.872   2.170
12070TIP3    H236168   6.164   4.007   2.134
12071TIP3   OH236169   1.898   6.266   0.087
12071TIP3    H136170   1.873   6.323   0.159
12071TIP3    H236171   1.987   6.239   0.108
12072TIP3   OH236172   5.396   0.839   0.621
12072TIP3    H136173   5.470   0.819   0.679
12072TIP3    H236174   5.387   0.934   0.625
12073TIP3   OH236175   5.066   6.671   6.183
12073TIP3    H136176   5.004   6.611   6.226
12073TIP3    H236177   5.024   6.757   6.190
12074TIP3   OH236178   1.495   6.935   3.541
12074TIP3    H136179   1.590   6.931   3.529
12074TIP3    H236180   1.483   6.986   3.621
12075TIP3   OH236181   3.650   6.471   5.113
12075TIP3    H136182   3.668   6.420   5.192
12075TIP3    H236183   3.611   6.552   5.146
12076TIP3   OH236184   7.749   6.125   1.373
12076TIP3    H136185   7.655   6.137   1.388
12076TIP3    H236186   7.774   6.057   1.436
12077TIP3   OH236187   6.414   3.148   2.292
12077TIP3    H136188   6.352   3.090   2.248
12077TIP3    H236189   6.473   3.177   2.222
12078TIP3   OH236190   7.395   4.807   0.388
12078TIP3    H136191   7.463   4.816   0.321
12078TIP3    H236192   7.443   4.784   0.467
12079TIP3   OH236193   2.313   5.556   0.039
12079TIP3    H136194   2.397   5.530   0.000
12079TIP3    H236195   2.255   5.482   0.022
12080TIP3   OH236196   1.116   4.801   3.217
12080TIP3    H136197   1.141   4.714   3.185
12080TIP3    H236198   1.059   4.783   3.292
12081TIP3   OH236199   2.445   4.598   1.836
12081TIP3    H136200   2.472   4.640   1.918
12081TIP3    H236201   2.526   4.569   1.796
12082TIP3   OH236202   4.406   3.559   4.596
12082TIP3    H136203   4.388   3.531   4.507
12082TIP3    H236204   4.502   3.566   4.600
12083TIP3   OH236205   3.843   0.826   3.179
12083TIP3    H136206   3.875   0.841   3.268
12083TIP3    H236207   3.859   0.733   3.163
12084TIP3   OH236208   3.099   2.534   2.128
12084TIP3    H136209   3.121   2.441   2.120
12084TIP3    H236210   3.136   2.574   2.049
12085TIP3   OH236211   2.194   5.719   0.232
12085TIP3    H136212   2.102   5.700   0.250
12085TIP3    H236213   2.205   5.700   0.139
12086TIP3   OH236214   6.373   7.473   0.641
12086TIP3    H136215   6.421   7.553   0.662
12086TIP3    H236216   6.333   7.490   0.556
12087TIP3   OH236217   7.582   1.715   6.322
12087TIP3    H136218   7.609   1.759   6.403
12087TIP3    H236219   7.636   1.636   6.319
12088TIP3   OH236220   4.967   2.105   3.090
12088TIP3    H136221   4.923   2.033   3.045
12088TIP3    H236222   5.045   2.065   3.127
12089TIP3   OH236223   2.288   3.700   1.017
12089TIP3    H136224   2.306   3.613   0.982
12089TIP3    H236225   2.201   3.721   0.984
12090TIP3   OH236226   0.896   4.283   2.890
12090TIP3    H136227   0.886   4.235   2.808
12090TIP3    H236228   0.952   4.357   2.868
12091TIP3   OH236229   1.039   5.927   4.053
12091TIP3    H136230   1.113   5.965   4.007
12091TIP3    H236231   1.031   5.838   4.018
12092TIP3   OH236232   3.272   4.811   6.635
12092TIP3    H136233   3.330   4.887   6.631
12092TIP3    H236234   3.290   4.763   6.554
12093TIP3   OH236235   6.209   4.907   0.241
12093TIP3    H136236   6.153   4.879   0.168
12093TIP3    H236237   6.262   4.830   0.260
12094TIP3   OH236238   7.221   1.801   1.980
12094TIP3    H136239   7.231   1.883   1.933
12094TIP3    H236240   7.303   1.754   1.966
12095TIP3   OH236241   2.655   6.612   2.251
12095TIP3    H136242   2.746   6.587   2.240
12095TIP3    H236243   2.656   6.678   2.320
12096TIP3   OH236244   0.632   6.064   4.903
12096TIP3    H136245   0.628   6.080   4.997
12096TIP3    H236246   0.546   6.092   4.870
12097TIP3   OH236247   4.583   3.305   2.153
12097TIP3    H136248   4.613   3.300   2.243
12097TIP3    H236249   4.511   3.369   2.154
12098TIP3   OH236250   7.552   2.458   1.381
12098TIP3    H136251   7.532   2.542   1.340
12098TIP3    H236252   7.577   2.481   1.470
12099TIP3   OH236253   3.989   7.640   4.566
12099TIP3    H136254   4.024   7.553   4.545
12099TIP3    H236255   3.968   7.678   4.481
12100TIP3   OH236256   1.871   3.445   6.285
12100TIP3    H136257   1.831   3.383   6.346
12100TIP3    H236258   1.802   3.509   6.267
12101TIP3   OH236259   6.354   0.261   3.724
12101TIP3    H136260   6.417   0.200   3.687
12101TIP3    H236261   6.406   0.327   3.770
12102TIP3   OH236262   6.544   1.853   4.608
12102TIP3    H136263   6.580   1.837   4.521
12102TIP3    H236264   6.499   1.771   4.631
12103TIP3   OH236265   0.717   2.637   4.947
12103TIP3    H136266   0.632   2.674   4.921
12103TIP3    H236267   0.700   2.543   4.955
12104TIP3   OH236268   4.339   4.334   6.638
12104TIP3    H136269   4.355   4.255   6.585
12104TIP3    H236270   4.323   4.403   6.573
12105TIP3   OH236271   6.260   6.157   1.225
12105TIP3    H136272   6.289   6.201   1.145
12105TIP3    H236273   6.317   6.192   1.294
12106TIP3   OH236274   8.219   2.290   0.200
12106TIP3    H136275   8.182   2.373   0.171
12106TIP3    H236276   8.199   2.286   0.294
12107TIP3   OH236277   1.372   7.542   3.540
12107TIP3    H136278   1.439   7.474   3.548
12107TIP3    H236279   1.388   7.600   3.614
12108TIP3   OH236280   6.703   7.766   0.593
12108TIP3    H136281   6.653   7.804   0.520
12108TIP3    H236282   6.636   7.741   0.657
12109TIP3   OH236283   0.823   2.058   6.645
12109TIP3    H136284   0.795   2.105   6.566
12109TIP3    H236285   0.898   2.006   6.617
12110TIP3   OH236286   5.774   4.497   5.397
12110TIP3    H136287   5.851   4.478   5.343
12110TIP3    H236288   5.699   4.480   5.339
12111TIP3   OH236289   7.396   6.982   1.826
12111TIP3    H136290   7.369   6.938   1.745
12111TIP3    H236291   7.349   7.065   1.824
12112TIP3   OH236292   7.224   3.805   4.109
12112TIP3    H136293   7.209   3.759   4.191
12112TIP3    H236294   7.300   3.761   4.070
12113TIP3   OH236295   6.368   6.290   3.769
12113TIP3    H136296   6.390   6.382   3.783
12113TIP3    H236297   6.305   6.291   3.697
12114TIP3   OH236298   2.497   5.598   3.538
12114TIP3    H136299   2.451   5.678   3.565
12114TIP3    H236300   2.525   5.557   3.620
12115TIP3   OH236301   0.248   7.183   1.588
12115TIP3    H136302   0.290   7.262   1.553
12115TIP3    H236303   0.202   7.212   1.666
12116TIP3   OH236304   5.336   5.593   1.408
12116TIP3    H136305   5.278   5.657   1.448
12116TIP3    H236306   5.421   5.638   1.402
12117TIP3   OH236307   1.432   0.589   1.924
12117TIP3    H136308   1.485   0.637   1.987
12117TIP3    H236309   1.480   0.596   1.842
12118TIP3   OH236310   4.475   0.741   4.823
12118TIP3    H136311   4.551   0.688   4.846
12118TIP3    H236312   4.512   0.825   4.795
12119TIP3   OH236313   8.013   6.729   2.251
12119TIP3    H136314   7.952   6.680   2.306
12119TIP3    H236315   7.957   6.785   2.197
12120TIP3   OH236316   4.830   6.536   5.158
12120TIP3    H136317   4.857   6.615   5.111
12120TIP3    H236318   4.888   6.533   5.234
12121TIP3   OH236319   1.027   0.269   2.247
12121TIP3    H136320   1.069   0.290   2.164
12121TIP3    H236321   0.933   0.277   2.230
12122TIP3   OH236322   8.109   7.437   5.911
12122TIP3    H136323   8.111   7.477   5.998
12122TIP3    H236324   8.122   7.344   5.927
12123TIP3   OH236325   0.257   7.467   2.167
12123TIP3    H136326   0.209   7.548   2.153
12123TIP3    H236327   0.305   7.481   2.248
12124TIP3   OH236328   3.534   2.511   3.482
12124TIP3    H136329   3.592   2.515   3.558
12124TIP3    H236330   3.556   2.589   3.431
12125TIP3   OH236331   0.042   2.457   5.564
12125TIP3    H136332   0.096   2.379   5.579
12125TIP3    H236333   0.048   2.506   5.646
12126TIP3   OH236334   4.632   1.176   1.920
12126TIP3    H136335   4.599   1.227   1.994
12126TIP3    H236336   4.724   1.202   1.912
12127TIP3   OH236337   7.404   4.787   1.448
12127TIP3    H136338   7.482   4.736   1.426
12127TIP3    H236339   7.373   4.820   1.363
12128TIP3   OH236340   2.254   4.607   5.843
12128TIP3    H136341   2.284   4.676   5.784
12128TIP3    H236342   2.297   4.528   5.811
12129TIP3   OH236343   5.299   5.509   2.311
12129TIP3    H136344   5.265   5.586   2.265
12129TIP3    H236345   5.253   5.510   2.395
12130TIP3   OH236346   6.806   6.548   4.375
12130TIP3    H136347   6.897   6.517   4.377
12130TIP3    H236348   6.760   6.491   4.437
12131TIP3   OH236349   5.196   3.501   6.445
12131TIP3    H136350   5.241   3.425   6.408
12131TIP3    H236351   5.258   3.573   6.436
12132TIP3   OH236352   1.684   7.593   4.471
12132TIP3    H136353   1.746   7.541   4.523
12132TIP3    H236354   1.608   7.605   4.529
12133TIP3   OH236355   3.572   0.833   3.522
12133TIP3    H136356   3.554   0.840   3.616
12133TIP3    H236357   3.639   0.764   3.516
12134TIP3   OH236358   2.327   5.790   5.712
12134TIP3    H136359   2.316   5.742   5.794
12134TIP3    H236360   2.421   5.791   5.697
12135TIP3   OH236361   2.868   3.121   0.858
12135TIP3    H136362   2.931   3.190   0.877
12135TIP3    H236363   2.803   3.129   0.928
12136TIP3   OH236364   7.502   5.357   5.609
12136TIP3    H136365   7.508   5.344   5.704
12136TIP3    H236366   7.477   5.449   5.600
12137TIP3   OH236367   6.790   7.746   2.087
12137TIP3    H136368   6.701   7.778   2.074
12137TIP3    H236369   6.846   7.824   2.078
12138TIP3   OH236370   4.090   4.818   0.124
12138TIP3    H136371   4.141   4.775   0.055
12138TIP3    H236372   4.097   4.911   0.106
12139TIP3   OH236373   4.858   4.573   0.572
12139TIP3    H136374   4.815   4.654   0.547
12139TIP3    H236375   4.952   4.594   0.571
12140TIP3   OH236376   7.053   2.768   5.790
12140TIP3    H136377   7.060   2.704   5.718
12140TIP3    H236378   7.141   2.771   5.827
12141TIP3   OH236379   0.997   2.741   1.115
12141TIP3    H136380   1.007   2.790   1.197
12141TIP3    H236381   1.053   2.786   1.053
12142TIP3   OH236382   6.201   3.169   0.862
12142TIP3    H136383   6.232   3.137   0.947
12142TIP3    H236384   6.106   3.160   0.867
12143TIP3   OH236385   7.356   1.885   0.909
12143TIP3    H136386   7.323   1.799   0.884
12143TIP3    H236387   7.281   1.943   0.901
12144TIP3   OH236388   5.943   0.197   0.514
12144TIP3    H136389   6.031   0.161   0.507
12144TIP3    H236390   5.918   0.182   0.605
12145TIP3   OH236391   4.180   3.959   1.692
12145TIP3    H136392   4.165   3.934   1.783
12145TIP3    H236393   4.205   3.878   1.649
12146TIP3   OH236394   1.699   0.368   3.733
12146TIP3    H136395   1.784   0.368   3.688
12146TIP3    H236396   1.697   0.285   3.781
12147TIP3   OH236397   3.676   7.156   2.878
12147TIP3    H136398   3.749   7.167   2.817
12147TIP3    H236399   3.710   7.187   2.962
12148TIP3   OH236400   4.814   4.516   3.901
12148TIP3    H136401   4.891   4.484   3.948
12148TIP3    H236402   4.782   4.439   3.854
12149TIP3   OH236403   3.852   0.196   3.204
12149TIP3    H136404   3.778   0.174   3.148
12149TIP3    H236405   3.923   0.138   3.175
12150TIP3   OH236406   4.981   6.520   2.756
12150TIP3    H136407   5.005   6.612   2.762
12150TIP3    H236408   5.060   6.477   2.724
12151TIP3   OH236409   1.389   1.494   3.607
12151TIP3    H136410   1.483   1.508   3.618
12151TIP3    H236411   1.349   1.571   3.647
12152TIP3   OH236412   7.403   7.317   3.236
12152TIP3    H136413   7.404   7.307   3.141
12152TIP3    H236414   7.434   7.407   3.251
12153TIP3   OH236415   3.272   0.651   0.874
12153TIP3    H136416   3.270   0.712   0.800
12153TIP3    H236417   3.333   0.582   0.847
12154TIP3   OH236418   8.305   5.735   6.186
12154TIP3    H136419   8.280   5.726   6.094
12154TIP3    H236420   8.222   5.736   6.234
12155TIP3   OH236421   4.749   0.830   5.118
12155TIP3    H136422   4.779   0.762   5.178
12155TIP3    H236423   4.819   0.895   5.118
12156TIP3   OH236424   5.925   4.521   6.234
12156TIP3    H136425   5.899   4.511   6.142
12156TIP3    H236426   5.992   4.453   6.247
12157TIP3   OH236427   8.089   2.294   3.492
12157TIP3    H136428   8.070   2.290   3.586
12157TIP3    H236429   8.182   2.316   3.487
12158TIP3   OH236430   3.855   0.190   2.234
12158TIP3    H136431   3.894   0.105   2.256
12158TIP3    H236432   3.910   0.254   2.280
12159TIP3   OH236433   6.356   6.767   3.132
12159TIP3    H136434   6.411   6.788   3.207
12159TIP3    H236435   6.335   6.674   3.143
12160TIP3   OH236436   7.310   5.305   1.566
12160TIP3    H136437   7.293   5.264   1.481
12160TIP3    H236438   7.252   5.259   1.626
12161TIP3   OH236439   7.402   3.016   5.416
12161TIP3    H136440   7.341   2.951   5.381
12161TIP3    H236441   7.481   2.965   5.438
12162TIP3   OH236442   6.916   3.618   4.802
12162TIP3    H136443   6.950   3.574   4.879
12162TIP3    H236444   6.874   3.549   4.751
12163TIP3   OH236445   3.959   5.480   6.042
12163TIP3    H136446   3.998   5.565   6.058
12163TIP3    H236447   3.865   5.494   6.052
12164TIP3   OH236448   7.213   1.760   6.000
12164TIP3    H136449   7.157   1.716   6.064
12164TIP3    H236450   7.175   1.847   5.991
12165TIP3   OH236451   6.538   1.962   1.956
12165TIP3    H136452   6.603   2.018   1.998
12165TIP3    H236453   6.471   1.948   2.024
12166TIP3   OH236454   7.010   3.589   3.506
12166TIP3    H136455   7.015   3.617   3.598
12166TIP3    H236456   7.016   3.671   3.456
12167TIP3   OH236457   5.844   1.484   3.439
12167TIP3    H136458   5.897   1.563   3.440
12167TIP3    H236459   5.865   1.438   3.520
12168TIP3   OH236460   1.183   5.025   1.147
12168TIP3    H136461   1.104   5.048   1.197
12168TIP3    H236462   1.255   5.054   1.203
12169TIP3   OH236463   1.803   2.435   4.539
12169TIP3    H136464   1.776   2.386   4.461
12169TIP3    H236465   1.723   2.481   4.567
12170TIP3   OH236466   3.116   0.917   4.187
12170TIP3    H136467   3.070   0.998   4.211
12170TIP3    H236468   3.064   0.847   4.227
12171TIP3   OH236469   4.757   4.255   4.395
12171TIP3    H136470   4.738   4.192   4.325
12171TIP3    H236471   4.828   4.309   4.361
12172TIP3   OH236472   0.798   6.062   2.550
12172TIP3    H136473   0.733   6.106   2.606
12172TIP3    H236474   0.788   6.105   2.465
12173TIP3   OH236475   1.573   7.540   1.500
12173TIP3    H136476   1.555   7.514   1.409
12173TIP3    H236477   1.487   7.562   1.536
12174TIP3   OH236478   6.099   7.617   4.251
12174TIP3    H136479   6.081   7.658   4.335
12174TIP3    H236480   6.190   7.640   4.231
12175TIP3   OH236481   6.286   4.706   2.527
12175TIP3    H136482   6.252   4.721   2.616
12175TIP3    H236483   6.333   4.787   2.506
12176TIP3   OH236484   2.571   3.747   1.090
12176TIP3    H136485   2.564   3.682   1.159
12176TIP3    H236486   2.484   3.752   1.051
12177TIP3   OH236487   7.097   2.745   1.989
12177TIP3    H136488   7.162   2.737   2.059
12177TIP3    H236489   7.020   2.698   2.022
12178TIP3   OH236490   2.216   3.963   6.789
12178TIP3    H136491   2.221   3.917   6.705
12178TIP3    H236492   2.133   4.010   6.786
12179TIP3   OH236493   3.885   1.761   2.471
12179TIP3    H136494   3.826   1.753   2.396
12179TIP3    H236495   3.966   1.796   2.433
12180TIP3   OH236496   6.344   2.418   1.526
12180TIP3    H136497   6.434   2.436   1.499
12180TIP3    H236498   6.347   2.332   1.568
12181TIP3   OH236499   8.099   7.235   5.528
12181TIP3    H136500   8.008   7.216   5.552
12181TIP3    H236501   8.096   7.253   5.434
12182TIP3   OH236502   0.072   7.374   1.693
12182TIP3    H136503   0.039   7.396   1.779
12182TIP3    H236504   0.003   7.400   1.632
12183TIP3   OH236505   7.415   7.529   4.060
12183TIP3    H136506   7.503   7.500   4.040
12183TIP3    H236507   7.365   7.448   4.074
12184TIP3   OH236508   0.534   3.415   5.571
12184TIP3    H136509   0.484   3.496   5.583
12184TIP3    H236510   0.623   3.444   5.554
12185TIP3   OH236511   6.188   0.875   5.924
12185TIP3    H136512   6.106   0.925   5.925
12185TIP3    H236513   6.165   0.790   5.961
12186TIP3   OH236514   2.426   6.361   3.671
12186TIP3    H136515   2.459   6.272   3.679
12186TIP3    H236516   2.384   6.363   3.585
12187TIP3   OH236517   1.978   5.393   3.814
12187TIP3    H136518   1.967   5.481   3.778
12187TIP3    H236519   1.894   5.349   3.798
12188TIP3   OH236520   3.152   2.569   5.384
12188TIP3    H136521   3.232   2.549   5.433
12188TIP3    H236522   3.147   2.665   5.384
12189TIP3   OH236523   3.079   2.549   0.872
12189TIP3    H136524   3.084   2.616   0.804
12189TIP3    H236525   3.098   2.467   0.827
12190TIP3   OH236526   4.336   7.710   1.178
12190TIP3    H136527   4.248   7.736   1.204
12190TIP3    H236528   4.322   7.659   1.098
12191TIP3   OH236529   4.418   3.370   6.437
12191TIP3    H136530   4.400   3.419   6.357
12191TIP3    H236531   4.513   3.375   6.447
12192TIP3   OH236532   5.090   5.237   4.553
12192TIP3    H136533   4.997   5.225   4.532
12192TIP3    H236534   5.137   5.202   4.477
12193TIP3   OH236535   4.641   2.561   0.816
12193TIP3    H136536   4.603   2.597   0.896
12193TIP3    H236537   4.679   2.636   0.772
12194TIP3   OH236538   4.288   0.613   4.988
12194TIP3    H136539   4.346   0.681   4.954
12194TIP3    H236540   4.338   0.533   4.981
12195TIP3   OH236541   5.942   1.741   4.857
12195TIP3    H136542   5.861   1.767   4.900
12195TIP3    H236543   5.944   1.646   4.865
12196TIP3   OH236544   4.295   7.238   4.754
12196TIP3    H136545   4.203   7.220   4.736
12196TIP3    H236546   4.339   7.154   4.742
12197TIP3   OH236547   0.025   2.667   0.726
12197TIP3    H136548   0.053   2.726   0.797
12197TIP3    H236549   0.065   2.583   0.749
12198TIP3   OH236550   6.556   6.405   1.190
12198TIP3    H136551   6.601   6.442   1.114
12198TIP3    H236552   6.621   6.347   1.231
12199TIP3   OH236553   3.973   3.687   0.152
12199TIP3    H136554   3.954   3.781   0.155
12199TIP3    H236555   3.931   3.656   0.072
12200TIP3   OH236556   8.207   1.113   6.661
12200TIP3    H136557   8.300   1.118   6.640
12200TIP3    H236558   8.203   1.118   6.756
12201TIP3   OH236559   1.924   5.948   5.715
12201TIP3    H136560   1.899   5.900   5.636
12201TIP3    H236561   1.974   5.885   5.767
12202TIP3   OH236562   2.462   2.219   1.450
12202TIP3    H136563   2.459   2.154   1.380
12202TIP3    H236564   2.522   2.287   1.418
12203TIP3   OH236565   0.516   4.632   0.903
12203TIP3    H136566   0.591   4.575   0.915
12203TIP3    H236567   0.442   4.572   0.892
12204TIP3   OH236568   4.715   1.709   0.508
12204TIP3    H136569   4.724   1.783   0.568
12204TIP3    H236570   4.630   1.671   0.530
12205TIP3   OH236571   5.776   6.812   6.454
12205TIP3    H136572   5.792   6.898   6.417
12205TIP3    H236573   5.762   6.755   6.379
12206TIP3   OH236574   7.461   2.416   4.419
12206TIP3    H136575   7.515   2.489   4.389
12206TIP3    H236576   7.512   2.338   4.397
12207TIP3   OH236577   7.317   0.896   1.982
12207TIP3    H136578   7.240   0.865   1.934
12207TIP3    H236579   7.281   0.947   2.055
12208TIP3   OH236580   4.578   3.540   2.868
12208TIP3    H136581   4.567   3.454   2.909
12208TIP3    H236582   4.499   3.552   2.815
12209TIP3   OH236583   4.277   0.041   1.475
12209TIP3    H136584   4.193   0.016   1.512
12209TIP3    H236585   4.301   0.121   1.522
12210TIP3   OH236586   7.522   7.297   2.738
12210TIP3    H136587   7.598   7.244   2.761
12210TIP3    H236588   7.467   7.239   2.685
12211TIP3   OH236589   2.970   4.281   3.625
12211TIP3    H136590   3.022   4.348   3.669
12211TIP3    H236591   2.927   4.327   3.553
12212TIP3   OH236592   6.607   0.115   0.356
12212TIP3    H136593   6.638   0.095   0.444
12212TIP3    H236594   6.592   0.210   0.357
12213TIP3   OH236595   4.182   0.327   1.345
12213TIP3    H136596   4.152   0.269   1.415
12213TIP3    H236597   4.104   0.375   1.318
12214TIP3   OH236598   7.349   1.725   2.226
12214TIP3    H136599   7.326   1.634   2.242
12214TIP3    H236600   7.272   1.763   2.184
12215TIP3   OH236601   3.555   4.450   5.097
12215TIP3    H136602   3.509   4.531   5.073
12215TIP3    H236603   3.627   4.480   5.153
12216TIP3   OH236604   1.295   2.759   5.884
12216TIP3    H136605   1.225   2.755   5.950
12216TIP3    H236606   1.258   2.717   5.807
12217TIP3   OH236607   8.259   1.295   4.982
12217TIP3    H136608   8.352   1.283   4.962
12217TIP3    H236609   8.221   1.208   4.973
12218TIP3   OH236610   1.340   0.932   2.111
12218TIP3    H136611   1.299   0.862   2.163
12218TIP3    H236612   1.277   0.951   2.042
12219TIP3   OH236613   5.904   3.644   6.704
12219TIP3    H136614   5.932   3.691   6.626
12219TIP3    H236615   5.899   3.711   6.772
12220TIP3   OH236616   3.209   3.751   3.285
12220TIP3    H136617   3.145   3.769   3.354
12220TIP3    H236618   3.289   3.730   3.332
12221TIP3   OH236619   4.529   4.472   0.473
12221TIP3    H136620   4.448   4.483   0.422
12221TIP3    H236621   4.552   4.560   0.502
12222TIP3   OH236622   7.766   7.011   6.611
12222TIP3    H136623   7.703   6.939   6.613
12222TIP3    H236624   7.803   7.013   6.699
12223TIP3   OH236625   3.802   7.380   1.496
12223TIP3    H136626   3.890   7.402   1.528
12223TIP3    H236627   3.745   7.446   1.534
12224TIP3   OH236628   1.679   1.409   3.913
12224TIP3    H136629   1.594   1.438   3.946
12224TIP3    H236630   1.743   1.461   3.961
12225TIP3   OH236631   4.957   0.428   2.728
12225TIP3    H136632   4.880   0.380   2.758
12225TIP3    H236633   5.030   0.371   2.751
12226TIP3   OH236634   7.985   0.396   5.651
12226TIP3    H136635   8.025   0.312   5.629
12226TIP3    H236636   7.927   0.377   5.725
12227TIP3   OH236637   4.091   4.607   6.383
12227TIP3    H136638   4.125   4.533   6.333
12227TIP3    H236639   4.071   4.570   6.469
12228TIP3   OH236640   2.494   4.283   0.538
12228TIP3    H136641   2.542   4.284   0.621
12228TIP3    H236642   2.562   4.272   0.472
12229TIP3   OH236643   4.113   1.625   5.035
12229TIP3    H136644   4.062   1.553   5.073
12229TIP3    H236645   4.057   1.701   5.042
12230TIP3   OH236646   4.052   1.792   1.861
12230TIP3    H136647   4.143   1.819   1.850
12230TIP3    H236648   4.029   1.750   1.779
12231TIP3   OH236649   8.185   4.163   3.584
12231TIP3    H136650   8.267   4.137   3.625
12231TIP3    H236651   8.149   4.081   3.548
12232TIP3   OH236652   2.825   6.554   0.094
12232TIP3    H136653   2.805   6.643   0.063
12232TIP3    H236654   2.828   6.563   0.189
12233TIP3   OH236655   1.326   5.958   1.655
12233TIP3    H136656   1.305   6.042   1.695
12233TIP3    H236657   1.398   5.924   1.707
12234TIP3   OH236658   1.862   3.984   3.708
12234TIP3    H136659   1.819   3.906   3.675
12234TIP3    H236660   1.926   4.006   3.641
12235TIP3   OH236661   4.635   5.937   2.614
12235TIP3    H136662   4.678   6.021   2.622
12235TIP3    H236663   4.577   5.947   2.538
12236TIP3   OH236664   6.255   1.057   2.039
12236TIP3    H136665   6.207   0.994   1.986
12236TIP3    H236666   6.337   1.071   1.992
12237TIP3   OH236667   2.004   0.106   0.871
12237TIP3    H136668   2.006   0.169   0.943
12237TIP3    H236669   1.995   0.021   0.913
12238TIP3   OH236670   7.864   0.314   2.257
12238TIP3    H136671   7.794   0.319   2.322
12238TIP3    H236672   7.902   0.227   2.270
12239TIP3   OH236673   5.092   2.058   0.877
12239TIP3    H136674   5.111   2.145   0.842
12239TIP3    H236675   5.016   2.071   0.934
12240TIP3   OH236676   6.676   1.755   4.082
12240TIP3    H136677   6.707   1.737   3.994
12240TIP3    H236678   6.676   1.670   4.126
12241TIP3   OH236679   7.600   5.459   3.654
12241TIP3    H136680   7.692   5.477   3.670
12241TIP3    H236681   7.597   5.417   3.568
12242TIP3   OH236682   2.173   3.326   6.113
12242TIP3    H136683   2.170   3.412   6.072
12242TIP3    H236684   2.093   3.282   6.082
12243TIP3   OH236685   3.412   1.356   5.581
12243TIP3    H136686   3.475   1.394   5.642
12243TIP3    H236687   3.458   1.351   5.498
12244TIP3   OH236688   4.097   1.730   5.644
12244TIP3    H136689   4.049   1.806   5.676
12244TIP3    H236690   4.185   1.742   5.680
12245TIP3   OH236691   4.762   0.125   3.883
12245TIP3    H136692   4.806   0.113   3.799
12245TIP3    H236693   4.832   0.118   3.948
12246TIP3   OH236694   1.254   4.151   3.117
12246TIP3    H136695   1.185   4.117   3.061
12246TIP3    H236696   1.325   4.173   3.057
12247TIP3   OH236697   3.917   6.897   4.805
12247TIP3    H136698   4.004   6.917   4.840
12247TIP3    H236699   3.914   6.801   4.803
12248TIP3   OH236700   0.150   6.404   4.346
12248TIP3    H136701   0.083   6.365   4.291
12248TIP3    H236702   0.157   6.494   4.315
12249TIP3   OH236703   2.210   4.316   2.678
12249TIP3    H136704   2.137   4.358   2.723
12249TIP3    H236705   2.273   4.387   2.663
12250TIP3   OH236706   6.269   3.644   5.405
12250TIP3    H136707   6.324   3.581   5.359
12250TIP3    H236708   6.184   3.602   5.410
12251TIP3   OH236709   1.789   7.584   5.049
12251TIP3    H136710   1.807   7.499   5.009
12251TIP3    H236711   1.836   7.582   5.132
12252TIP3   OH236712   3.451   2.334   0.827
12252TIP3    H136713   3.404   2.402   0.778
12252TIP3    H236714   3.503   2.382   0.891
12253TIP3   OH236715   6.434   1.873   3.653
12253TIP3    H136716   6.429   1.942   3.587
12253TIP3    H236717   6.343   1.858   3.678
12254TIP3   OH236718   2.649   0.901   5.297
12254TIP3    H136719   2.670   0.865   5.383
12254TIP3    H236720   2.554   0.901   5.292
12255TIP3   OH236721   2.170   5.624   6.476
12255TIP3    H136722   2.087   5.583   6.453
12255TIP3    H236723   2.234   5.553   6.474
12256TIP3   OH236724   4.009   4.925   0.479
12256TIP3    H136725   3.986   4.955   0.567
12256TIP3    H236726   3.952   4.849   0.464
12257TIP3   OH236727   3.671   7.034   4.797
12257TIP3    H136728   3.601   6.969   4.805
12257TIP3    H236729   3.751   6.983   4.787
12258TIP3   OH236730   0.919   4.280   1.364
12258TIP3    H136731   0.912   4.341   1.437
12258TIP3    H236732   0.838   4.228   1.368
12259TIP3   OH236733   0.793   0.595   2.310
12259TIP3    H136734   0.756   0.670   2.357
12259TIP3    H236735   0.886   0.598   2.329
12260TIP3   OH236736   8.105   0.529   5.872
12260TIP3    H136737   8.169   0.599   5.864
12260TIP3    H236738   8.081   0.507   5.782
12261TIP3   OH236739   4.734   1.955   3.022
12261TIP3    H136740   4.742   1.875   3.073
12261TIP3    H236741   4.661   2.002   3.062
12262TIP3   OH236742   0.231   1.843   5.117
12262TIP3    H136743   0.184   1.920   5.083
12262TIP3    H236744   0.162   1.780   5.138
12263TIP3   OH236745   5.154   6.108   2.518
12263TIP3    H136746   5.213   6.036   2.540
12263TIP3    H236747   5.109   6.128   2.600
12264TIP3   OH236748   0.889   2.381   4.453
12264TIP3    H136749   0.839   2.457   4.423
12264TIP3    H236750   0.973   2.388   4.406
12265TIP3   OH236751   4.280   2.019   0.909
12265TIP3    H136752   4.341   2.088   0.935
12265TIP3    H236753   4.258   1.974   0.990
12266TIP3   OH236754   0.984   4.829   2.424
12266TIP3    H136755   1.069   4.821   2.382
12266TIP3    H236756   0.977   4.921   2.448
12267TIP3   OH236757   8.269   0.540   3.062
12267TIP3    H136758   8.305   0.483   2.994
12267TIP3    H236759   8.282   0.491   3.144
12268TIP3   OH236760   4.414   7.494   3.835
12268TIP3    H136761   4.416   7.488   3.740
12268TIP3    H236762   4.398   7.587   3.853
12269TIP3   OH236763   6.323   4.294   4.302
12269TIP3    H136764   6.256   4.294   4.370
12269TIP3    H236765   6.364   4.380   4.309
12270TIP3   OH236766   6.701   3.233   3.345
12270TIP3    H136767   6.697   3.322   3.381
12270TIP3    H236768   6.765   3.239   3.275
12271TIP3   OH236769   1.384   5.008   5.808
12271TIP3    H136770   1.387   5.092   5.854
12271TIP3    H236771   1.376   4.943   5.877
12272TIP3   OH236772   2.947   5.281   0.026
12272TIP3    H136773   2.994   5.352  -0.016
12272TIP3    H236774   2.858   5.286  -0.009
12273TIP3   OH236775   5.641   3.747   6.551
12273TIP3    H136776   5.652   3.825   6.605
12273TIP3    H236777   5.730   3.720   6.530
12274TIP3   OH236778   3.355   1.798   6.167
12274TIP3    H136779   3.430   1.857   6.160
12274TIP3    H236780   3.296   1.825   6.097
12275TIP3   OH236781   2.724   7.829   0.423
12275TIP3    H136782   2.756   7.794   0.507
12275TIP3    H236783   2.803   7.840   0.370
12276TIP3   OH236784   4.920   4.286   3.250
12276TIP3    H136785   4.994   4.304   3.192
12276TIP3    H236786   4.912   4.365   3.304
12277TIP3   OH236787   4.475   4.561   3.571
12277TIP3    H136788   4.396   4.614   3.580
12277TIP3    H236789   4.529   4.610   3.508
12278TIP3   OH236790   7.094   7.370   0.858
12278TIP3    H136791   7.095   7.314   0.780
12278TIP3    H236792   7.002   7.373   0.883
12279TIP3   OH236793   0.421   1.091   5.040
12279TIP3    H136794   0.442   1.008   5.083
12279TIP3    H236795   0.434   1.157   5.108
12280TIP3   OH236796   2.053   2.468   4.346
12280TIP3    H136797   2.038   2.496   4.256
12280TIP3    H236798   2.113   2.393   4.338
12281TIP3   OH236799   0.568   0.576   5.968
12281TIP3    H136800   0.539   0.493   6.005
12281TIP3    H236801   0.566   0.562   5.874
12282TIP3   OH236802   2.053   0.914   5.078
12282TIP3    H136803   2.008   0.994   5.050
12282TIP3    H236804   2.145   0.939   5.081
12283TIP3   OH236805   5.059   0.003   0.385
12283TIP3    H136806   4.966   0.008   0.363
12283TIP3    H236807   5.099   0.074   0.334
12284TIP3   OH236808   3.578   2.258   2.340
12284TIP3    H136809   3.512   2.190   2.326
12284TIP3    H236810   3.573   2.313   2.263
12285TIP3   OH236811   1.017   4.088   6.442
12285TIP3    H136812   1.103   4.057   6.413
12285TIP3    H236813   0.956   4.047   6.381
12286TIP3   OH236814   3.991   5.086   2.460
12286TIP3    H136815   3.955   4.998   2.470
12286TIP3    H236816   3.922   5.144   2.492
12287TIP3   OH236817   4.934   3.559   6.441
12287TIP3    H136818   5.022   3.526   6.421
12287TIP3    H236819   4.943   3.654   6.442
12288TIP3   OH236820   1.080   0.699   0.713
12288TIP3    H136821   0.992   0.662   0.725
12288TIP3    H236822   1.094   0.752   0.791
12289TIP3   OH236823   0.990   1.602   1.814
12289TIP3    H136824   0.996   1.615   1.909
12289TIP3    H236825   1.049   1.529   1.797
12290TIP3   OH236826   7.250   7.476   6.037
12290TIP3    H136827   7.219   7.458   6.126
12290TIP3    H236828   7.315   7.546   6.047
12291TIP3   OH236829   6.629   5.967   5.663
12291TIP3    H136830   6.641   5.913   5.741
12291TIP3    H236831   6.707   6.021   5.659
12292TIP3   OH236832   2.485   4.440   0.272
12292TIP3    H136833   2.563   4.420   0.324
12292TIP3    H236834   2.519   4.468   0.187
12293TIP3   OH236835   1.712   6.561   1.423
12293TIP3    H136836   1.691   6.485   1.369
12293TIP3    H236837   1.667   6.634   1.381
12294TIP3   OH236838   7.135   3.106   0.418
12294TIP3    H136839   7.083   3.179   0.385
12294TIP3    H236840   7.072   3.036   0.435
12295TIP3   OH236841   1.738   7.784   0.225
12295TIP3    H136842   1.743   7.708   0.166
12295TIP3    H236843   1.651   7.777   0.266
12296TIP3   OH236844   2.505   3.986   1.722
12296TIP3    H136845   2.436   4.016   1.781
12296TIP3    H236846   2.458   3.949   1.648
12297TIP3   OH236847   1.020   1.106   4.232
12297TIP3    H136848   1.011   1.163   4.308
12297TIP3    H236849   0.984   1.157   4.159
12298TIP3   OH236850   5.809   1.517   3.117
12298TIP3    H136851   5.823   1.559   3.033
12298TIP3    H236852   5.860   1.568   3.179
12299TIP3   OH236853   0.436   7.499   6.403
12299TIP3    H136854   0.518   7.496   6.453
12299TIP3    H236855   0.417   7.408   6.383
12300TIP3   OH236856   5.656   2.691   3.453
12300TIP3    H136857   5.707   2.642   3.389
12300TIP3    H236858   5.624   2.625   3.514
12301TIP3   OH236859   5.202   2.659   6.671
12301TIP3    H136860   5.143   2.700   6.608
12301TIP3    H236861   5.263   2.608   6.617
12302TIP3   OH236862   3.731   7.203   2.368
12302TIP3    H136863   3.645   7.235   2.339
12302TIP3    H236864   3.715   7.114   2.398
12303TIP3   OH236865   5.920   4.330   1.859
12303TIP3    H136866   5.876   4.371   1.784
12303TIP3    H236867   5.855   4.270   1.895
12304TIP3   OH236868   7.723   2.546   0.350
12304TIP3    H136869   7.669   2.503   0.417
12304TIP3    H236870   7.784   2.600   0.399
12305TIP3   OH236871   2.642   0.774   3.203
12305TIP3    H136872   2.728   0.759   3.164
12305TIP3    H236873   2.612   0.687   3.230
12306TIP3   OH236874   1.662   0.036   3.690
12306TIP3    H136875   1.574   0.074   3.693
12306TIP3    H236876   1.689   0.031   3.782
12307TIP3   OH236877   2.439   4.163   0.166
12307TIP3    H136878   2.451   4.254   0.194
12307TIP3    H236879   2.439   4.167   0.071
12308TIP3   OH236880   5.589   1.326   4.173
12308TIP3    H136881   5.580   1.271   4.250
12308TIP3    H236882   5.683   1.334   4.159
12309TIP3   OH236883   1.443   7.655   2.501
12309TIP3    H136884   1.410   7.565   2.510
12309TIP3    H236885   1.480   7.659   2.413
12310TIP3   OH236886   1.133   5.671   3.153
12310TIP3    H136887   1.043   5.701   3.137
12310TIP3    H236888   1.124   5.605   3.222
12311TIP3   OH236889   8.330   4.679   0.151
12311TIP3    H136890   8.265   4.640   0.209
12311TIP3    H236891   8.289   4.759   0.119
12312TIP3   OH236892   7.765   4.868   6.009
12312TIP3    H136893   7.850   4.900   6.040
12312TIP3    H236894   7.707   4.875   6.085
12313TIP3   OH236895   1.694   2.353   4.823
12313TIP3    H136896   1.756   2.365   4.895
12313TIP3    H236897   1.709   2.428   4.766
12314TIP3   OH236898   3.380   4.498   0.718
12314TIP3    H136899   3.371   4.565   0.787
12314TIP3    H236900   3.362   4.415   0.763
12315TIP3   OH236901   5.926   7.732   5.371
12315TIP3    H136902   5.987   7.659   5.360
12315TIP3    H236903   5.869   7.704   5.443
12316TIP3   OH236904   4.356   2.460   5.433
12316TIP3    H136905   4.383   2.549   5.409
12316TIP3    H236906   4.377   2.454   5.527
12317TIP3   OH236907   8.107   2.048   2.380
12317TIP3    H136908   8.055   2.100   2.441
12317TIP3    H236909   8.145   1.979   2.434
12318TIP3   OH236910   1.559   0.668   5.286
12318TIP3    H136911   1.492   0.621   5.236
12318TIP3    H236912   1.635   0.672   5.228
12319TIP3   OH236913   6.846   4.390   2.436
12319TIP3    H136914   6.816   4.435   2.357
12319TIP3    H236915   6.941   4.385   2.425
12320TIP3   OH236916   5.465   7.456   2.007
12320TIP3    H136917   5.452   7.534   1.954
12320TIP3    H236918   5.428   7.385   1.955
12321TIP3   OH236919   6.790   6.699   2.358
12321TIP3    H136920   6.723   6.706   2.426
12321TIP3    H236921   6.868   6.668   2.404
12322TIP3   OH236922   4.350   6.167   5.649
12322TIP3    H136923   4.341   6.121   5.732
12322TIP3    H236924   4.340   6.259   5.671
12323TIP3   OH236925   5.761   7.225   1.611
12323TIP3    H136926   5.746   7.142   1.566
12323TIP3    H236927   5.697   7.225   1.682
12324TIP3   OH236928   1.092   0.696   3.269
12324TIP3    H136929   1.171   0.750   3.264
12324TIP3    H236930   1.020   0.757   3.253
12325TIP3   OH236931   4.314   3.504   5.944
12325TIP3    H136932   4.273   3.424   5.976
12325TIP3    H236933   4.273   3.520   5.859
12326TIP3   OH236934   4.853   0.251   6.742
12326TIP3    H136935   4.824   0.238   6.832
12326TIP3    H236936   4.773   0.272   6.694
12327TIP3   OH236937   3.807   5.371   1.966
12327TIP3    H136938   3.847   5.317   2.034
12327TIP3    H236939   3.741   5.423   2.013
12328TIP3   OH236940   5.028   6.334   5.114
12328TIP3    H136941   5.026   6.259   5.173
12328TIP3    H236942   4.951   6.385   5.137
12329TIP3   OH236943   2.778   1.426   6.228
12329TIP3    H136944   2.783   1.499   6.290
12329TIP3    H236945   2.705   1.449   6.170
12330TIP3   OH236946   6.638   1.500   4.162
12330TIP3    H136947   6.574   1.432   4.185
12330TIP3    H236948   6.700   1.499   4.235
12331TIP3   OH236949   1.428   7.696   1.865
12331TIP3    H136950   1.455   7.781   1.830
12331TIP3    H236951   1.339   7.683   1.830
12332TIP3   OH236952   2.798   1.049   2.770
12332TIP3    H136953   2.872   1.093   2.727
12332TIP3    H236954   2.755   1.117   2.821
12333TIP3   OH236955   2.412   7.737   6.496
12333TIP3    H136956   2.466   7.672   6.540
12333TIP3    H236957   2.436   7.729   6.403
12334TIP3   OH236958   1.624   6.866   0.615
12334TIP3    H136959   1.648   6.944   0.565
12334TIP3    H236960   1.695   6.856   0.679
12335TIP3   OH236961   4.768   1.936   4.989
12335TIP3    H136962   4.807   1.860   5.034
12335TIP3    H236963   4.680   1.943   5.026
12336TIP3   OH236964   5.479   7.613   2.263
12336TIP3    H136965   5.444   7.532   2.300
12336TIP3    H236966   5.424   7.631   2.187
12337TIP3   OH236967   6.548   2.494   5.709
12337TIP3    H136968   6.618   2.551   5.740
12337TIP3    H236969   6.468   2.530   5.748
12338TIP3   OH236970   0.716   1.266   3.467
12338TIP3    H136971   0.802   1.287   3.502
12338TIP3    H236972   0.664   1.345   3.480
12339TIP3   OH236973   5.471   1.768   2.320
12339TIP3    H136974   5.468   1.863   2.312
12339TIP3    H236975   5.405   1.748   2.387
12340TIP3   OH236976   0.072   5.842   1.716
12340TIP3    H136977   0.133   5.803   1.779
12340TIP3    H236978   0.083   5.936   1.726
12341TIP3   OH236979   0.348   5.332   0.065
12341TIP3    H136980   0.324   5.254   0.016
12341TIP3    H236981   0.307   5.320   0.150
12342TIP3   OH236982   8.012   7.489   1.757
12342TIP3    H136983   7.981   7.441   1.833
12342TIP3    H236984   8.015   7.425   1.686
12343TIP3   OH236985   4.498   1.744   3.516
12343TIP3    H136986   4.523   1.836   3.522
12343TIP3    H236987   4.455   1.736   3.431
12344TIP3   OH236988   0.968   3.489   1.909
12344TIP3    H136989   1.005   3.577   1.907
12344TIP3    H236990   0.949   3.468   1.818
12345TIP3   OH236991   2.858   0.101   0.719
12345TIP3    H136992   2.772   0.132   0.687
12345TIP3    H236993   2.841   0.073   0.809
12346TIP3   OH236994   7.437   5.921   5.482
12346TIP3    H136995   7.451   5.909   5.576
12346TIP3    H236996   7.423   5.832   5.448
12347TIP3   OH236997   8.228   2.724   3.089
12347TIP3    H136998   8.213   2.633   3.114
12347TIP3    H236999   8.141   2.761   3.078
12348TIP3   OH237000   0.449   3.078   5.008
12348TIP3    H137001   0.388   3.010   4.981
12348TIP3    H237002   0.395   3.144   5.051
12349TIP3   OH237003   5.327   4.330   6.076
12349TIP3    H137004   5.253   4.320   6.016
12349TIP3    H237005   5.374   4.408   6.045
12350TIP3   OH237006   6.453   5.627   5.163
12350TIP3    H137007   6.463   5.595   5.252
12350TIP3    H237008   6.389   5.567   5.123
12351TIP3   OH237009   0.264   4.639   2.191
12351TIP3    H137010   0.261   4.543   2.189
12351TIP3    H237011   0.327   4.659   2.261
12352TIP3   OH237012   1.640   2.681   6.273
12352TIP3    H137013   1.652   2.593   6.238
12352TIP3    H237014   1.727   2.720   6.272
12353TIP3   OH237015   1.933   1.247   3.772
12353TIP3    H137016   1.846   1.230   3.738
12353TIP3    H237017   1.920   1.314   3.840
12354TIP3   OH237018   3.704   1.267   0.929
12354TIP3    H137019   3.748   1.188   0.962
12354TIP3    H237020   3.775   1.318   0.889
12355TIP3   OH237021   6.758   0.165   2.182
12355TIP3    H137022   6.785   0.176   2.091
12355TIP3    H237023   6.811   0.229   2.230
12356TIP3   OH237024   0.457   6.419   2.047
12356TIP3    H137025   0.405   6.497   2.033
12356TIP3    H237026   0.545   6.442   2.017
12357TIP3   OH237027   2.954   1.227   0.872
12357TIP3    H137028   2.912   1.278   0.803
12357TIP3    H237029   3.044   1.215   0.842
12358TIP3   OH237030   5.170   1.416   1.963
12358TIP3    H137031   5.109   1.350   1.998
12358TIP3    H237032   5.120   1.498   1.965
12359TIP3   OH237033   2.145   5.262   3.606
12359TIP3    H137034   2.104   5.304   3.530
12359TIP3    H237035   2.128   5.322   3.679
12360TIP3   OH237036   0.903   4.447   3.851
12360TIP3    H137037   0.928   4.495   3.929
12360TIP3    H237038   0.879   4.360   3.883
12361TIP3   OH237039   7.420   1.672   1.817
12361TIP3    H137040   7.493   1.652   1.876
12361TIP3    H237041   7.401   1.589   1.774
12362TIP3   OH237042   0.073   7.332   1.242
12362TIP3    H137043   0.046   7.336   1.150
12362TIP3    H237044   0.151   7.277   1.242
12363TIP3   OH237045   6.671   2.170   1.677
12363TIP3    H137046   6.705   2.243   1.729
12363TIP3    H237047   6.739   2.155   1.610
12364TIP3   OH237048   7.231   7.826   6.220
12364TIP3    H137049   7.178   7.757   6.179
12364TIP3    H237050   7.172   7.869   6.281
12365TIP3   OH237051   0.718   0.564   1.452
12365TIP3    H137052   0.729   0.557   1.358
12365TIP3    H237053   0.794   0.519   1.489
12366TIP3   OH237054   7.407   0.104   5.654
12366TIP3    H137055   7.482   0.152   5.619
12366TIP3    H237056   7.381   0.044   5.583
12367TIP3   OH237057   7.745   7.048   4.989
12367TIP3    H137058   7.783   7.071   4.905
12367TIP3    H237059   7.743   6.952   4.989
12368TIP3   OH237060   5.228   5.645   0.943
12368TIP3    H137061   5.320   5.635   0.920
12368TIP3    H237062   5.222   5.617   1.035
12369TIP3   OH237063   5.483   4.551   0.336
12369TIP3    H137064   5.441   4.468   0.312
12369TIP3    H237065   5.454   4.613   0.270
12370TIP3   OH237066   0.124   0.180   3.992
12370TIP3    H137067   0.152   0.219   4.075
12370TIP3    H237068   0.190   0.208   3.929
12371TIP3   OH237069   1.799   0.623   4.124
12371TIP3    H137070   1.834   0.664   4.045
12371TIP3    H237071   1.743   0.553   4.093
12372TIP3   OH237072   2.262   5.747   1.831
12372TIP3    H137073   2.357   5.742   1.821
12372TIP3    H237074   2.230   5.771   1.744
12373TIP3   OH237075   7.052   0.865   6.668
12373TIP3    H137076   6.966   0.824   6.676
12373TIP3    H237077   7.081   0.841   6.580
12374TIP3   OH237078   0.293   3.772   4.232
12374TIP3    H137079   0.287   3.756   4.326
12374TIP3    H237080   0.202   3.781   4.204
12375TIP3   OH237081   4.752   2.301   3.131
12375TIP3    H137082   4.752   2.301   3.227
12375TIP3    H237083   4.808   2.227   3.108
12376TIP3   OH237084   6.765   7.187   2.282
12376TIP3    H137085   6.808   7.104   2.263
12376TIP3    H237086   6.769   7.195   2.378
12377TIP3   OH237087   8.146   7.749   2.701
12377TIP3    H137088   8.168   7.686   2.769
12377TIP3    H237089   8.110   7.824   2.749
12378TIP3   OH237090   7.472   0.135   5.260
12378TIP3    H137091   7.493   0.222   5.225
12378TIP3    H237092   7.490   0.075   5.188
12379TIP3   OH237093   0.421   7.423   1.605
12379TIP3    H137094   0.378   7.491   1.656
12379TIP3    H237095   0.491   7.468   1.558
12380TIP3   OH237096   6.546   0.503   3.836
12380TIP3    H137097   6.496   0.547   3.767
12380TIP3    H237098   6.617   0.458   3.789
12381TIP3   OH237099   3.974   3.143   2.159
12381TIP3    H137100   3.912   3.215   2.165
12381TIP3    H237101   3.993   3.120   2.250
12382TIP3   OH237102   4.314   2.816   0.153
12382TIP3    H137103   4.252   2.760   0.107
12382TIP3    H237104   4.270   2.901   0.159
12383TIP3   OH237105   6.260   2.882   5.726
12383TIP3    H137106   6.187   2.881   5.665
12383TIP3    H237107   6.307   2.963   5.706
12384TIP3   OH237108   7.211   2.427   5.984
12384TIP3    H137109   7.238   2.377   6.061
12384TIP3    H237110   7.177   2.509   6.020
12385TIP3   OH237111   4.167   2.692   2.685
12385TIP3    H137112   4.144   2.702   2.778
12385TIP3    H237113   4.206   2.776   2.661
12386TIP3   OH237114   7.629   6.944   1.984
12386TIP3    H137115   7.575   6.959   1.906
12386TIP3    H237116   7.595   6.863   2.022
12387TIP3   OH237117   8.111   0.157   5.655
12387TIP3    H137118   8.095   0.073   5.612
12387TIP3    H237119   8.137   0.134   5.744
12388TIP3   OH237120   2.050   2.112   1.918
12388TIP3    H137121   2.019   2.137   2.005
12388TIP3    H237122   2.143   2.135   1.918
12389TIP3   OH237123   1.614   0.987   3.499
12389TIP3    H137124   1.654   0.917   3.551
12389TIP3    H237125   1.521   0.982   3.521
12390TIP3   OH237126   1.837   6.343   4.927
12390TIP3    H137127   1.836   6.273   4.992
12390TIP3    H237128   1.794   6.417   4.971
12391TIP3   OH237129   7.930   7.174   6.139
12391TIP3    H137130   8.021   7.167   6.168
12391TIP3    H237131   7.906   7.086   6.110
12392TIP3   OH237132   4.982   5.060   4.967
12392TIP3    H137133   5.011   5.151   4.979
12392TIP3    H237134   4.913   5.048   5.032
12393TIP3   OH237135   6.975   7.325   1.832
12393TIP3    H137136   6.908   7.274   1.788
12393TIP3    H237137   6.937   7.346   1.917
12394TIP3   OH237138   1.543   3.621   1.230
12394TIP3    H137139   1.534   3.568   1.309
12394TIP3    H237140   1.471   3.594   1.175
12395TIP3   OH237141   5.358   7.806   6.332
12395TIP3    H137142   5.421   7.877   6.333
12395TIP3    H237143   5.389   7.745   6.399
12396TIP3   OH237144   5.427   7.753   0.653
12396TIP3    H137145   5.439   7.658   0.649
12396TIP3    H237146   5.394   7.777   0.566
12397TIP3   OH237147   7.389   4.752   3.984
12397TIP3    H137148   7.331   4.796   3.922
12397TIP3    H237149   7.431   4.823   4.033
12398TIP3   OH237150   4.658   3.248   3.670
12398TIP3    H137151   4.600   3.202   3.610
12398TIP3    H237152   4.742   3.250   3.625
12399TIP3   OH237153   7.829   7.313   3.256
12399TIP3    H137154   7.780   7.382   3.301
12399TIP3    H237155   7.791   7.231   3.289
12400TIP3   OH237156   1.382   0.387   4.813
12400TIP3    H137157   1.449   0.349   4.870
12400TIP3    H237158   1.429   0.457   4.766
12401TIP3   OH237159   7.708   3.337   6.398
12401TIP3    H137160   7.753   3.296   6.472
12401TIP3    H237161   7.615   3.330   6.421
12402TIP3   OH237162   3.704   4.008   0.962
12402TIP3    H137163   3.775   3.944   0.960
12402TIP3    H237164   3.689   4.024   1.055
12403TIP3   OH237165   7.920   5.931   4.568
12403TIP3    H137166   7.988   5.864   4.562
12403TIP3    H237167   7.939   5.977   4.650
12404TIP3   OH237168   3.700   3.055   2.789
12404TIP3    H137169   3.764   3.126   2.785
12404TIP3    H237170   3.615   3.098   2.781
12405TIP3   OH237171   6.463   4.530   4.373
12405TIP3    H137172   6.476   4.605   4.315
12405TIP3    H237173   6.550   4.511   4.408
12406TIP3   OH237174   1.986   2.197   1.667
12406TIP3    H137175   2.006   2.180   1.759
12406TIP3    H237176   1.890   2.201   1.664
12407TIP3   OH237177   8.084   4.264   3.346
12407TIP3    H137178   8.004   4.215   3.327
12407TIP3    H237179   8.124   4.217   3.419
12408TIP3   OH237180   0.344   1.170   3.295
12408TIP3    H137181   0.419   1.170   3.235
12408TIP3    H237182   0.382   1.147   3.380
12409TIP3   OH237183   2.453   4.899   1.668
12409TIP3    H137184   2.362   4.924   1.685
12409TIP3    H237185   2.498   4.914   1.750
12410TIP3   OH237186   5.035   7.392   2.468
12410TIP3    H137187   4.994   7.452   2.406
12410TIP3    H237188   5.125   7.422   2.474
12411TIP3   OH237189   2.707   1.401   0.524
12411TIP3    H137190   2.718   1.455   0.445
12411TIP3    H237191   2.777   1.429   0.582
12412TIP3   OH237192   7.201   6.716   2.182
12412TIP3    H137193   7.216   6.695   2.274
12412TIP3    H237194   7.177   6.632   2.143
12413TIP3   OH237195   6.170   4.291   1.757
12413TIP3    H137196   6.199   4.204   1.785
12413TIP3    H237197   6.087   4.304   1.805
12414TIP3   OH237198   5.450   3.816   1.382
12414TIP3    H137199   5.443   3.901   1.339
12414TIP3    H237200   5.447   3.753   1.311
12415TIP3   OH237201   0.187   3.742   3.174
12415TIP3    H137202   0.116   3.776   3.119
12415TIP3    H237203   0.145   3.678   3.231
12416TIP3   OH237204   7.349   0.470   4.976
12416TIP3    H137205   7.300   0.394   4.944
12416TIP3    H237206   7.286   0.517   5.030
12417TIP3   OH237207   0.036   3.716   0.450
12417TIP3    H137208   0.034   3.695   0.543
12417TIP3    H237209   0.035   3.811   0.446
12418TIP3   OH237210   6.888   6.473   1.317
12418TIP3    H137211   6.838   6.538   1.269
12418TIP3    H237212   6.872   6.493   1.409
12419TIP3   OH237213   1.526   6.578   5.333
12419TIP3    H137214   1.463   6.506   5.330
12419TIP3    H237215   1.610   6.537   5.316
12420TIP3   OH237216   6.698   0.696   4.497
12420TIP3    H137217   6.754   0.647   4.558
12420TIP3    H237218   6.612   0.697   4.539
12421TIP3   OH237219   1.905   4.003   4.089
12421TIP3    H137220   1.892   4.053   4.009
12421TIP3    H237221   1.979   4.045   4.132
12422TIP3   OH237222   0.723   2.794   1.977
12422TIP3    H137223   0.742   2.859   2.045
12422TIP3    H237224   0.710   2.712   2.025
12423TIP3   OH237225   1.532   4.660   3.144
12423TIP3    H137226   1.458   4.714   3.170
12423TIP3    H237227   1.598   4.676   3.211
12424TIP3   OH237228   3.081   4.873   5.786
12424TIP3    H137229   3.143   4.875   5.859
12424TIP3    H237230   3.037   4.958   5.791
12425TIP3   OH237231   2.963   4.426   6.140
12425TIP3    H137232   2.921   4.377   6.211
12425TIP3    H237233   2.938   4.517   6.156
12426TIP3   OH237234   1.147   3.317   1.041
12426TIP3    H137235   1.094   3.262   1.100
12426TIP3    H237236   1.234   3.316   1.079
12427TIP3   OH237237   3.602   7.492   1.839
12427TIP3    H137238   3.600   7.413   1.893
12427TIP3    H237239   3.514   7.530   1.848
12428TIP3   OH237240   3.349   0.783   3.366
12428TIP3    H137241   3.304   0.740   3.439
12428TIP3    H237242   3.434   0.809   3.401
12429TIP3   OH237243   3.182   7.051   0.577
12429TIP3    H137244   3.171   7.019   0.667
12429TIP3    H237245   3.213   7.141   0.587
12430TIP3   OH237246   7.377   4.688   5.434
12430TIP3    H137247   7.427   4.743   5.495
12430TIP3    H237248   7.411   4.711   5.348
12431TIP3   OH237249   1.423   2.431   0.368
12431TIP3    H137250   1.373   2.350   0.367
12431TIP3    H237251   1.361   2.498   0.398
12432TIP3   OH237252   0.187   7.012   5.661
12432TIP3    H137253   0.158   6.946   5.598
12432TIP3    H237254   0.139   7.091   5.635
12433TIP3   OH237255   7.540   3.408   0.649
12433TIP3    H137256   7.496   3.407   0.734
12433TIP3    H237257   7.471   3.388   0.586
12434TIP3   OH237258   7.153   3.850   0.124
12434TIP3    H137259   7.232   3.799   0.105
12434TIP3    H237260   7.180   3.941   0.109
12435TIP3   OH237261   1.228   0.415   1.749
12435TIP3    H137262   1.228   0.481   1.680
12435TIP3    H237263   1.314   0.422   1.790
12436TIP3   OH237264   6.529   7.711   6.419
12436TIP3    H137265   6.487   7.796   6.406
12436TIP3    H237266   6.457   7.648   6.417
12437TIP3   OH237267   0.956   0.768   5.091
12437TIP3    H137268   0.934   0.821   5.167
12437TIP3    H237269   0.923   0.681   5.112
12438TIP3   OH237270   2.316   2.961   5.604
12438TIP3    H137271   2.316   2.865   5.601
12438TIP3    H237272   2.406   2.984   5.625
12439TIP3   OH237273   3.251   0.033   6.385
12439TIP3    H137274   3.197  -0.023   6.330
12439TIP3    H237275   3.223   0.013   6.474
12440TIP3   OH237276   6.189   5.630   2.974
12440TIP3    H137277   6.265   5.571   2.978
12440TIP3    H237278   6.162   5.641   3.065
12441TIP3   OH237279   0.095   4.683   1.659
12441TIP3    H137280   0.125   4.595   1.637
12441TIP3    H237281   0.129   4.699   1.747
12442TIP3   OH237282   6.291   7.715   2.649
12442TIP3    H137283   6.353   7.768   2.599
12442TIP3    H237284   6.222   7.694   2.587
12443TIP3   OH237285   1.967   0.122   2.329
12443TIP3    H137286   1.990   0.031   2.346
12443TIP3    H237287   1.871   0.123   2.331
12444TIP3   OH237288   1.055   2.728   2.025
12444TIP3    H137289   1.022   2.709   1.938
12444TIP3    H237290   1.149   2.710   2.019
12445TIP3   OH237291   3.159   6.142   4.008
12445TIP3    H137292   3.169   6.058   3.963
12445TIP3    H237293   3.244   6.185   3.998
12446TIP3   OH237294   6.085   5.324   5.580
12446TIP3    H137295   6.154   5.333   5.514
12446TIP3    H237296   6.125   5.274   5.651
12447TIP3   OH237297   0.312   3.952   3.888
12447TIP3    H137298   0.386   3.890   3.888
12447TIP3    H237299   0.239   3.902   3.925
12448TIP3   OH237300   3.476   7.807   0.693
12448TIP3    H137301   3.501   7.736   0.635
12448TIP3    H237302   3.399   7.775   0.739
12449TIP3   OH237303   2.235   4.431   6.113
12449TIP3    H137304   2.252   4.414   6.020
12449TIP3    H237305   2.247   4.526   6.122
12450TIP3   OH237306   3.640   4.369   2.698
12450TIP3    H137307   3.628   4.438   2.764
12450TIP3    H237308   3.562   4.375   2.643
12451TIP3   OH237309   1.044   0.950   4.526
12451TIP3    H137310   1.003   0.882   4.472
12451TIP3    H237311   0.973   1.011   4.546
12452TIP3   OH237312   4.767   0.213   2.785
12452TIP3    H137313   4.722   0.222   2.869
12452TIP3    H237314   4.811   0.129   2.790
12453TIP3   OH237315   1.535   4.497   2.553
12453TIP3    H137316   1.465   4.449   2.510
12453TIP3    H237317   1.544   4.456   2.639
12454TIP3   OH237318   4.745   0.506   2.954
12454TIP3    H137319   4.827   0.512   3.002
12454TIP3    H237320   4.698   0.434   2.996
12455TIP3   OH237321   3.058   1.181   5.768
12455TIP3    H137322   3.068   1.102   5.821
12455TIP3    H237323   3.145   1.221   5.768
12456TIP3   OH237324   5.588   4.973   0.360
12456TIP3    H137325   5.561   5.060   0.331
12456TIP3    H237326   5.551   4.913   0.296
12457TIP3   OH237327   1.243   4.012   6.160
12457TIP3    H137328   1.300   3.977   6.228
12457TIP3    H237329   1.294   4.007   6.080
12458TIP3   OH237330   7.790   2.585   2.411
12458TIP3    H137331   7.757   2.549   2.329
12458TIP3    H237332   7.876   2.621   2.390
12459TIP3   OH237333   5.005   1.661   5.417
12459TIP3    H137334   5.090   1.636   5.453
12459TIP3    H237335   4.974   1.731   5.474
12460TIP3   OH237336   2.337   5.942   4.690
12460TIP3    H137337   2.311   5.931   4.782
12460TIP3    H237338   2.378   5.859   4.666
12461TIP3   OH237339   1.548   4.062   4.252
12461TIP3    H137340   1.631   4.093   4.289
12461TIP3    H237341   1.515   4.000   4.317
12462TIP3   OH237342   2.861   6.988   2.689
12462TIP3    H137343   2.832   6.928   2.757
12462TIP3    H237344   2.869   7.073   2.734
12463TIP3   OH237345   5.621   6.915   0.264
12463TIP3    H137346   5.585   6.859   0.195
12463TIP3    H237347   5.714   6.894   0.265
12464TIP3   OH237348   0.362   5.700   2.920
12464TIP3    H137349   0.437   5.731   2.970
12464TIP3    H237350   0.286   5.733   2.968
12465TIP3   OH237351   4.592   7.512   3.219
12465TIP3    H137352   4.651   7.507   3.144
12465TIP3    H237353   4.624   7.444   3.279
12466TIP3   OH237354   7.930   6.728   0.439
12466TIP3    H137355   7.896   6.755   0.354
12466TIP3    H237356   8.021   6.758   0.440
12467TIP3   OH237357   1.605   0.605   1.408
12467TIP3    H137358   1.636   0.521   1.373
12467TIP3    H237359   1.597   0.591   1.502
12468TIP3   OH237360   5.642   7.253   4.552
12468TIP3    H137361   5.675   7.172   4.514
12468TIP3    H237362   5.614   7.305   4.477
12469TIP3   OH237363   5.596   3.895   0.392
12469TIP3    H137364   5.641   3.978   0.376
12469TIP3    H237365   5.609   3.877   0.485
12470TIP3   OH237366   3.862   5.830   5.787
12470TIP3    H137367   3.879   5.762   5.722
12470TIP3    H237368   3.786   5.878   5.753
12471TIP3   OH237369   7.542   0.698   5.003
12471TIP3    H137370   7.463   0.644   5.009
12471TIP3    H237371   7.510   0.785   4.979
12472TIP3   OH237372   5.351   1.887   0.574
12472TIP3    H137373   5.378   1.797   0.558
12472TIP3    H237374   5.408   1.917   0.646
12473TIP3   OH237375   0.756   1.139   2.462
12473TIP3    H137376   0.821   1.081   2.500
12473TIP3    H237377   0.795   1.226   2.468
12474TIP3   OH237378   5.395   0.427   4.093
12474TIP3    H137379   5.353   0.462   4.172
12474TIP3    H237380   5.480   0.395   4.124
12475TIP3   OH237381   5.268   5.114   4.362
12475TIP3    H137382   5.227   5.086   4.281
12475TIP3    H237383   5.328   5.044   4.386
12476TIP3   OH237384   3.571   1.794   4.257
12476TIP3    H137385   3.572   1.747   4.174
12476TIP3    H237386   3.637   1.862   4.247
12477TIP3   OH237387   1.870   1.353   0.684
12477TIP3    H137388   1.838   1.365   0.594
12477TIP3    H237389   1.877   1.258   0.694
12478TIP3   OH237390   2.136   1.632   4.923
12478TIP3    H137391   2.186   1.645   4.843
12478TIP3    H237392   2.154   1.709   4.976
12479TIP3   OH237393   6.650   5.945   5.032
12479TIP3    H137394   6.686   5.924   4.946
12479TIP3    H237395   6.596   6.023   5.017
12480TIP3   OH237396   3.672   6.739   4.380
12480TIP3    H137397   3.755   6.781   4.357
12480TIP3    H237398   3.609   6.810   4.381
12481TIP3   OH237399   6.130   5.219   4.987
12481TIP3    H137400   6.098   5.138   5.027
12481TIP3    H237401   6.060   5.282   5.001
12482TIP3   OH237402   4.016   2.530   6.580
12482TIP3    H137403   4.006   2.583   6.659
12482TIP3    H237404   4.094   2.566   6.537
12483TIP3   OH237405   5.905   5.246   5.239
12483TIP3    H137406   5.847   5.300   5.292
12483TIP3    H237407   5.877   5.263   5.149
12484TIP3   OH237408   3.639   4.210   0.638
12484TIP3    H137409   3.567   4.148   0.633
12484TIP3    H237410   3.615   4.281   0.578
12485TIP3   OH237411   0.498   4.100   0.955
12485TIP3    H137412   0.560   4.128   0.888
12485TIP3    H237413   0.498   4.005   0.949
12486TIP3   OH237414   7.650   1.939   2.527
12486TIP3    H137415   7.558   1.918   2.511
12486TIP3    H237416   7.655   2.034   2.525
12487TIP3   OH237417   1.759   0.080   3.046
12487TIP3    H137418   1.727   0.021   3.114
12487TIP3    H237419   1.810   0.146   3.094
12488TIP3   OH237420   0.390   0.182   6.286
12488TIP3    H137421   0.472   0.232   6.280
12488TIP3    H237422   0.411   0.110   6.346
12489TIP3   OH237423   4.623   4.444   2.436
12489TIP3    H137424   4.532   4.474   2.425
12489TIP3    H237425   4.649   4.475   2.522
12490TIP3   OH237426   2.407   4.078   4.953
12490TIP3    H137427   2.321   4.112   4.980
12490TIP3    H237428   2.450   4.153   4.912
12491TIP3   OH237429   4.316   5.944   0.338
12491TIP3    H137430   4.397   5.962   0.386
12491TIP3    H237431   4.272   5.876   0.389
12492TIP3   OH237432   8.270   7.297   2.279
12492TIP3    H137433   8.341   7.320   2.219
12492TIP3    H237434   8.191   7.300   2.224
12493TIP3   OH237435   2.549   0.542   3.343
12493TIP3    H137436   2.621   0.479   3.354
12493TIP3    H237437   2.489   0.523   3.414
12494TIP3   OH237438   7.619   5.773   4.580
12494TIP3    H137439   7.658   5.686   4.589
12494TIP3    H237440   7.683   5.822   4.528
12495TIP3   OH237441   1.985   2.545   0.459
12495TIP3    H137442   1.993   2.623   0.514
12495TIP3    H237443   2.075   2.511   0.452
12496TIP3   OH237444   2.330   4.571   2.888
12496TIP3    H137445   2.378   4.529   2.817
12496TIP3    H237446   2.341   4.512   2.963
12497TIP3   OH237447   3.645   3.145   5.116
12497TIP3    H137448   3.577   3.177   5.057
12497TIP3    H237449   3.601   3.136   5.200
12498TIP3   OH237450   0.795   4.091   3.569
12498TIP3    H137451   0.732   4.082   3.641
12498TIP3    H237452   0.742   4.114   3.493
12499TIP3   OH237453   1.672   4.878   0.328
12499TIP3    H137454   1.584   4.844   0.311
12499TIP3    H237455   1.730   4.816   0.283
12500TIP3   OH237456   4.602   1.029   0.412
12500TIP3    H137457   4.662   0.980   0.468
12500TIP3    H237458   4.657   1.062   0.341
12501TIP3   OH237459   2.055   5.056   3.307
12501TIP3    H137460   2.078   5.060   3.214
12501TIP3    H237461   1.996   4.980   3.313
12502TIP3   OH237462   4.726   4.049   4.210
12502TIP3    H137463   4.817   4.026   4.229
12502TIP3    H237464   4.716   4.034   4.116
12503TIP3   OH237465   4.907   6.855   1.711
12503TIP3    H137466   4.872   6.937   1.746
12503TIP3    H237467   4.838   6.823   1.653
12504TIP3   OH237468   7.095   7.215   2.947
12504TIP3    H137469   7.109   7.307   2.966
12504TIP3    H237470   7.126   7.169   3.026
12505TIP3   OH237471   6.738   6.771   5.101
12505TIP3    H137472   6.672   6.704   5.121
12505TIP3    H237473   6.795   6.773   5.178
12506TIP3   OH237474   1.041   0.581   2.420
12506TIP3    H137475   1.101   0.508   2.438
12506TIP3    H237476   1.061   0.645   2.488
12507TIP3   OH237477   5.948   5.281   6.110
12507TIP3    H137478   5.857   5.249   6.108
12507TIP3    H237479   5.969   5.298   6.019
12508TIP3   OH237480   5.121   4.995   0.626
12508TIP3    H137481   5.152   4.970   0.539
12508TIP3    H237482   5.030   5.022   0.613
12509TIP3   OH237483   7.863   7.049   0.439
12509TIP3    H137484   7.839   7.091   0.357
12509TIP3    H237485   7.825   6.961   0.433
12510TIP3   OH237486   3.745   3.640   2.619
12510TIP3    H137487   3.652   3.656   2.602
12510TIP3    H237488   3.766   3.564   2.565
12511TIP3   OH237489   1.095   1.374   6.038
12511TIP3    H137490   1.129   1.293   6.077
12511TIP3    H237491   1.003   1.354   6.017
12512TIP3   OH237492   3.319   0.832   4.021
12512TIP3    H137493   3.257   0.832   3.948
12512TIP3    H237494   3.284   0.898   4.082
12513TIP3   OH237495   1.576   1.196   5.684
12513TIP3    H137496   1.516   1.165   5.616
12513TIP3    H237497   1.578   1.125   5.748
12514TIP3   OH237498   4.022   3.233   3.887
12514TIP3    H137499   4.023   3.254   3.793
12514TIP3    H237500   4.111   3.254   3.917
12515TIP3   OH237501   4.446   2.715   5.385
12515TIP3    H137502   4.514   2.777   5.359
12515TIP3    H237503   4.390   2.765   5.445
12516TIP3   OH237504   0.051   5.112   1.649
12516TIP3    H137505  -0.006   5.188   1.658
12516TIP3    H237506   0.123   5.142   1.594
12517TIP3   OH237507   2.562   6.769   2.480
12517TIP3    H137508   2.561   6.849   2.533
12517TIP3    H237509   2.507   6.790   2.405
12518TIP3   OH237510   2.316   1.792   5.349
12518TIP3    H137511   2.397   1.757   5.388
12518TIP3    H237512   2.256   1.718   5.347
12519TIP3   OH237513   4.945   0.724   4.169
12519TIP3    H137514   5.015   0.788   4.176
12519TIP3    H237515   4.960   0.663   4.242
12520TIP3   OH237516   0.163   0.880   4.529
12520TIP3    H137517   0.221   0.819   4.484
12520TIP3    H237518   0.209   0.901   4.610
12521TIP3   OH237519   7.274   2.419   3.391
12521TIP3    H137520   7.302   2.336   3.431
12521TIP3    H237521   7.325   2.425   3.310
12522TIP3   OH237522   0.673   7.163   1.508
12522TIP3    H137523   0.643   7.184   1.419
12522TIP3    H237524   0.656   7.069   1.517
12523TIP3   OH237525   6.633   0.278   5.613
12523TIP3    H137526   6.571   0.236   5.554
12523TIP3    H237527   6.581   0.340   5.663
12524TIP3   OH237528   2.283   6.318   3.417
12524TIP3    H137529   2.313   6.381   3.351
12524TIP3    H237530   2.316   6.233   3.385
12525TIP3   OH237531   5.066   4.300   0.562
12525TIP3    H137532   5.090   4.212   0.593
12525TIP3    H237533   5.143   4.353   0.581
12526TIP3   OH237534   2.975   5.262   0.727
12526TIP3    H137535   2.939   5.201   0.662
12526TIP3    H237536   2.908   5.329   0.738
12527TIP3   OH237537   1.195   6.657   3.482
12527TIP3    H137538   1.110   6.616   3.472
12527TIP3    H237539   1.249   6.618   3.414
12528TIP3   OH237540   5.626   1.273   2.310
12528TIP3    H137541   5.539   1.294   2.276
12528TIP3    H237542   5.663   1.357   2.335
12529TIP3   OH237543   0.068   3.282   3.276
12529TIP3    H137544   0.094   3.222   3.346
12529TIP3    H237545   0.074   3.229   3.196
12530TIP3   OH237546   0.847   1.424   5.883
12530TIP3    H137547   0.840   1.427   5.788
12530TIP3    H237548   0.835   1.515   5.911
12531TIP3   OH237549   0.888   7.472   0.728
12531TIP3    H137550   0.883   7.424   0.645
12531TIP3    H237551   0.798   7.469   0.762
12532TIP3   OH237552   7.596   3.415   3.000
12532TIP3    H137553   7.663   3.353   3.030
12532TIP3    H237554   7.562   3.455   3.080
12533TIP3   OH237555   4.166   4.686   3.103
12533TIP3    H137556   4.167   4.591   3.117
12533TIP3    H237557   4.101   4.719   3.165
12534TIP3   OH237558   1.144   1.082   4.881
12534TIP3    H137559   1.126   1.121   4.967
12534TIP3    H237560   1.114   0.991   4.889
12535TIP3   OH237561   1.270   2.427   4.863
12535TIP3    H137562   1.283   2.364   4.792
12535TIP3    H237563   1.266   2.373   4.942
12536TIP3   OH237564   5.563   1.592   0.297
12536TIP3    H137565   5.557   1.591   0.202
12536TIP3    H237566   5.657   1.590   0.316
12537TIP3   OH237567   8.181   6.175   1.041
12537TIP3    H137568   8.199   6.220   0.958
12537TIP3    H237569   8.117   6.109   1.018
12538TIP3   OH237570   0.869   1.997   3.721
12538TIP3    H137571   0.804   1.932   3.747
12538TIP3    H237572   0.902   2.031   3.804
12539TIP3   OH237573   0.614   2.607   6.303
12539TIP3    H137574   0.660   2.690   6.290
12539TIP3    H237575   0.524   2.626   6.275
12540TIP3   OH237576   2.371   2.396   1.751
12540TIP3    H137577   2.319   2.360   1.823
12540TIP3    H237578   2.315   2.385   1.673
12541TIP3   OH237579   0.700   2.342   3.207
12541TIP3    H137580   0.741   2.392   3.278
12541TIP3    H237581   0.641   2.404   3.164
12542TIP3   OH237582   0.832   4.656   2.588
12542TIP3    H137583   0.889   4.709   2.532
12542TIP3    H237584   0.814   4.712   2.663
12543TIP3   OH237585   6.949   6.047   2.169
12543TIP3    H137586   6.997   5.967   2.150
12543TIP3    H237587   6.892   6.059   2.093
12544TIP3   OH237588   1.457   6.855   3.298
12544TIP3    H137589   1.393   6.786   3.313
12544TIP3    H237590   1.463   6.902   3.381
12545TIP3   OH237591   7.446   4.384   1.361
12545TIP3    H137592   7.525   4.400   1.413
12545TIP3    H237593   7.473   4.317   1.298
12546TIP3   OH237594   0.073   3.888   3.487
12546TIP3    H137595   0.071   3.833   3.565
12546TIP3    H237596   0.016   3.843   3.424
12547TIP3   OH237597   1.817   7.505   2.974
12547TIP3    H137598   1.723   7.494   2.991
12547TIP3    H237599   1.852   7.543   3.054
12548TIP3   OH237600   7.596   6.876   5.409
12548TIP3    H137601   7.669   6.819   5.384
12548TIP3    H237602   7.545   6.824   5.471
12549TIP3   OH237603   6.480   3.580   3.340
12549TIP3    H137604   6.566   3.557   3.306
12549TIP3    H237605   6.474   3.675   3.329
12550TIP3   OH237606   4.537   3.392   6.751
12550TIP3    H137607   4.580   3.394   6.665
12550TIP3    H237608   4.468   3.326   6.741
12551TIP3   OH237609   5.611   4.081   3.114
12551TIP3    H137610   5.663   4.005   3.092
12551TIP3    H237611   5.557   4.053   3.188
12552TIP3   OH237612   4.662   3.912   3.637
12552TIP3    H137613   4.753   3.939   3.646
12552TIP3    H237614   4.620   3.944   3.717
12553TIP3   OH237615   7.572   3.540   1.796
12553TIP3    H137616   7.612   3.621   1.828
12553TIP3    H237617   7.566   3.484   1.874
12554TIP3   OH237618   1.085   7.653   6.236
12554TIP3    H137619   1.107   7.736   6.193
12554TIP3    H237620   1.124   7.586   6.181
12555TIP3   OH237621   2.500   0.443   6.486
12555TIP3    H137622   2.562   0.429   6.415
12555TIP3    H237623   2.527   0.381   6.554
12556TIP3   OH237624   7.579   5.085   2.621
12556TIP3    H137625   7.630   5.004   2.626
12556TIP3    H237626   7.577   5.106   2.527
12557TIP3   OH237627   3.142   4.732   1.927
12557TIP3    H137628   3.229   4.694   1.926
12557TIP3    H237629   3.151   4.814   1.976
12558TIP3   OH237630   7.454   6.116   2.697
12558TIP3    H137631   7.406   6.194   2.670
12558TIP3    H237632   7.518   6.148   2.761
12559TIP3   OH237633   6.841   3.651   0.933
12559TIP3    H137634   6.765   3.705   0.916
12559TIP3    H237635   6.910   3.689   0.878
12560TIP3   OH237636   2.683   7.013   0.689
12560TIP3    H137637   2.775   7.036   0.706
12560TIP3    H237638   2.642   7.096   0.666
12561TIP3   OH237639   5.962   5.638   4.400
12561TIP3    H137640   5.880   5.684   4.418
12561TIP3    H237641   5.988   5.603   4.485
12562TIP3   OH237642   0.300   1.570   5.478
12562TIP3    H137643   0.387   1.542   5.509
12562TIP3    H237644   0.255   1.488   5.456
12563TIP3   OH237645   3.265   4.595   6.389
12563TIP3    H137646   3.281   4.658   6.319
12563TIP3    H237647   3.351   4.557   6.408
12564TIP3   OH237648   3.219   0.731   5.426
12564TIP3    H137649   3.315   0.725   5.424
12564TIP3    H237650   3.199   0.810   5.375
12565TIP3   OH237651   6.497   2.205   0.738
12565TIP3    H137652   6.407   2.172   0.737
12565TIP3    H237653   6.523   2.207   0.646
12566TIP3   OH237654   8.140   7.151   5.860
12566TIP3    H137655   8.076   7.112   5.801
12566TIP3    H237656   8.188   7.077   5.896
12567TIP3   OH237657   1.907   5.610   1.780
12567TIP3    H137658   1.939   5.695   1.810
12567TIP3    H237659   1.812   5.613   1.797
12568TIP3   OH237660   1.080   3.109   4.725
12568TIP3    H137661   1.077   3.127   4.819
12568TIP3    H237662   1.045   3.188   4.684
12569TIP3   OH237663   6.631   2.921   5.942
12569TIP3    H137664   6.608   2.900   5.851
12569TIP3    H237665   6.548   2.945   5.983
12570TIP3   OH237666   4.903   3.114   1.388
12570TIP3    H137667   4.890   3.202   1.423
12570TIP3    H237668   4.857   3.116   1.303
12571TIP3   OH237669   7.202   3.829   3.427
12571TIP3    H137670   7.206   3.891   3.354
12571TIP3    H237671   7.229   3.880   3.504
12572TIP3   OH237672   4.723   2.879   2.626
12572TIP3    H137673   4.667   2.812   2.585
12572TIP3    H237674   4.775   2.830   2.690
12573TIP3   OH237675   0.173   7.756   4.885
12573TIP3    H137676   0.121   7.729   4.961
12573TIP3    H237677   0.152   7.692   4.817
12574TIP3   OH237678   3.244   7.768   0.051
12574TIP3    H137679   3.152   7.745   0.061
12574TIP3    H237680   3.250   7.858   0.083
12575TIP3   OH237681   5.644   3.173   6.768
12575TIP3    H137682   5.697   3.253   6.759
12575TIP3    H237683   5.557   3.204   6.793
12576TIP3   OH237684   0.526   3.451   4.970
12576TIP3    H137685   0.449   3.447   5.027
12576TIP3    H237686   0.493   3.426   4.884
12577TIP3   OH237687   3.459   4.935   6.423
12577TIP3    H137688   3.541   4.929   6.472
12577TIP3    H237689   3.467   4.871   6.353
12578TIP3   OH237690   4.322   4.166   0.752
12578TIP3    H137691   4.336   4.080   0.713
12578TIP3    H237692   4.317   4.148   0.846
12579TIP3   OH237693   7.164   3.854   5.343
12579TIP3    H137694   7.238   3.844   5.282
12579TIP3    H237695   7.164   3.946   5.366
12580TIP3   OH237696   4.376   2.405   3.621
12580TIP3    H137697   4.360   2.336   3.557
12580TIP3    H237698   4.318   2.385   3.694
12581TIP3   OH237699   6.729   1.930   5.852
12581TIP3    H137700   6.776   1.901   5.774
12581TIP3    H237701   6.758   1.869   5.921
12582TIP3   OH237702   3.586   4.665   0.276
12582TIP3    H137703   3.523   4.628   0.214
12582TIP3    H237704   3.577   4.759   0.265
12583TIP3   OH237705   4.425   4.170   1.638
12583TIP3    H137706   4.417   4.075   1.633
12583TIP3    H237707   4.384   4.192   1.722
12584TIP3   OH237708   8.035   6.904   1.582
12584TIP3    H137709   8.124   6.936   1.567
12584TIP3    H237710   8.036   6.874   1.673
12585TIP3   OH237711   5.965   1.996   3.939
12585TIP3    H137712   5.923   2.064   3.993
12585TIP3    H237713   6.057   1.998   3.965
12586TIP3   OH237714   2.809   1.935   1.255
12586TIP3    H137715   2.898   1.931   1.220
12586TIP3    H237716   2.755   1.896   1.186
12587TIP3   OH237717   6.066   3.631   2.170
12587TIP3    H137718   6.033   3.679   2.094
12587TIP3    H237719   6.157   3.660   2.179
12588TIP3   OH237720   2.394   0.152   2.365
12588TIP3    H137721   2.366   0.215   2.432
12588TIP3    H237722   2.443   0.085   2.414
12589TIP3   OH237723   4.055   6.539   4.379
12589TIP3    H137724   4.118   6.606   4.353
12589TIP3    H237725   3.971   6.572   4.349
12590TIP3   OH237726   0.336   3.742   1.246
12590TIP3    H137727   0.341   3.736   1.151
12590TIP3    H237728   0.244   3.730   1.267
12591TIP3   OH237729   7.205   3.247   2.905
12591TIP3    H137730   7.219   3.250   2.810
12591TIP3    H237731   7.237   3.332   2.936
12592TIP3   OH237732   1.452   0.097   2.242
12592TIP3    H137733   1.539   0.119   2.275
12592TIP3    H237734   1.407   0.058   2.316
12593TIP3   OH237735   0.746   5.810   5.849
12593TIP3    H137736   0.789   5.868   5.913
12593TIP3    H237737   0.716   5.870   5.780
12594TIP3   OH237738   1.168   7.203   2.339
12594TIP3    H137739   1.248   7.248   2.310
12594TIP3    H237740   1.145   7.146   2.266
12595TIP3   OH237741   1.768   2.183   1.210
12595TIP3    H137742   1.752   2.229   1.128
12595TIP3    H237743   1.797   2.252   1.271
12596TIP3   OH237744   0.630   1.812   0.329
12596TIP3    H137745   0.623   1.815   0.233
12596TIP3    H237746   0.689   1.739   0.346
12597TIP3   OH237747   7.073   6.962   2.472
12597TIP3    H137748   6.993   6.985   2.519
12597TIP3    H237749   7.045   6.894   2.410
12598TIP3   OH237750   8.201   7.403   3.890
12598TIP3    H137751   8.251   7.361   3.821
12598TIP3    H237752   8.206   7.342   3.964
12599TIP3   OH237753   5.313   5.765   2.012
12599TIP3    H137754   5.306   5.670   1.997
12599TIP3    H237755   5.240   5.803   1.964
12600TIP3   OH237756   4.203   5.606   1.792
12600TIP3    H137757   4.134   5.593   1.857
12600TIP3    H237758   4.276   5.642   1.842
12601TIP3   OH237759   5.438   7.104   4.021
12601TIP3    H137760   5.491   7.118   3.942
12601TIP3    H237761   5.432   7.009   4.029
12602TIP3   OH237762   2.598   3.003   4.596
12602TIP3    H137763   2.671   2.941   4.603
12602TIP3    H237764   2.528   2.964   4.648
12603TIP3   OH237765   6.445   0.726   6.591
12603TIP3    H137766   6.394   0.807   6.598
12603TIP3    H237767   6.380   0.657   6.606
12604TIP3   OH237768   2.138   1.556   4.012
12604TIP3    H137769   2.061   1.501   4.004
12604TIP3    H237770   2.186   1.521   4.087
12605TIP3   OH237771   4.717   3.608   4.985
12605TIP3    H137772   4.631   3.589   4.947
12605TIP3    H237773   4.722   3.554   5.063
12606TIP3   OH237774   0.606   1.758   3.589
12606TIP3    H137775   0.519   1.746   3.629
12606TIP3    H237776   0.635   1.670   3.567
12607TIP3   OH237777   1.214   6.678   2.111
12607TIP3    H137778   1.240   6.588   2.091
12607TIP3    H237779   1.288   6.731   2.081
12608TIP3   OH237780   7.481   5.331   5.263
12608TIP3    H137781   7.392   5.318   5.294
12608TIP3    H237782   7.532   5.262   5.305
12609TIP3   OH237783   4.042   2.986   1.093
12609TIP3    H137784   3.966   3.042   1.075
12609TIP3    H237785   4.013   2.927   1.162
12610TIP3   OH237786   7.474   1.980   5.320
12610TIP3    H137787   7.554   1.975   5.371
12610TIP3    H237788   7.466   1.894   5.279
12611TIP3   OH237789   6.141   7.033   2.576
12611TIP3    H137790   6.117   7.126   2.577
12611TIP3    H237791   6.128   7.006   2.485
12612TIP3   OH237792   7.237   0.168   4.731
12612TIP3    H137793   7.197   0.106   4.670
12612TIP3    H237794   7.188   0.156   4.813
12613TIP3   OH237795   1.741   3.846   4.841
12613TIP3    H137796   1.650   3.841   4.812
12613TIP3    H237797   1.786   3.895   4.771
12614TIP3   OH237798   4.321   3.725   6.793
12614TIP3    H137799   4.268   3.664   6.741
12614TIP3    H237800   4.300   3.811   6.758
12615TIP3   OH237801   2.054   7.092   3.360
12615TIP3    H137802   1.973   7.108   3.408
12615TIP3    H237803   2.113   7.162   3.390
12616TIP3   OH237804   0.284   0.770   5.012
12616TIP3    H137805   0.218   0.707   5.041
12616TIP3    H237806   0.368   0.727   5.028
12617TIP3   OH237807   5.955   6.300   0.446
12617TIP3    H137808   5.905   6.287   0.366
12617TIP3    H237809   6.016   6.371   0.425
12618TIP3   OH237810   4.385   3.350   5.067
12618TIP3    H137811   4.325   3.330   5.138
12618TIP3    H237812   4.420   3.265   5.040
12619TIP3   OH237813   5.339   1.743   2.574
12619TIP3    H137814   5.341   1.683   2.649
12619TIP3    H237815   5.301   1.824   2.609
12620TIP3   OH237816   7.148   2.094   2.175
12620TIP3    H137817   7.236   2.077   2.211
12620TIP3    H237818   7.157   2.077   2.082
12621TIP3   OH237819   5.942   4.711   6.590
12621TIP3    H137820   5.890   4.692   6.668
12621TIP3    H237821   6.022   4.661   6.601
12622TIP3   OH237822   1.246   2.181   5.520
12622TIP3    H137823   1.186   2.159   5.448
12622TIP3    H237824   1.285   2.097   5.544
12623TIP3   OH237825   6.005   1.307   5.991
12623TIP3    H137826   6.082   1.336   6.039
12623TIP3    H237827   5.955   1.388   5.976
12624TIP3   OH237828   3.683   0.402   0.943
12624TIP3    H137829   3.594   0.378   0.921
12624TIP3    H237830   3.686   0.497   0.936
12625TIP3   OH237831   1.624   6.051   3.344
12625TIP3    H137832   1.546   5.999   3.367
12625TIP3    H237833   1.697   6.002   3.382
12626TIP3   OH237834   7.278   1.900   3.932
12626TIP3    H137835   7.235   1.820   3.962
12626TIP3    H237836   7.206   1.964   3.927
12627TIP3   OH237837   1.429   5.280   6.390
12627TIP3    H137838   1.416   5.251   6.300
12627TIP3    H237839   1.410   5.203   6.443
12628TIP3   OH237840   6.757   0.904   6.129
12628TIP3    H137841   6.783   0.984   6.083
12628TIP3    H237842   6.828   0.842   6.112
12629TIP3   OH237843   5.265   0.958   3.475
12629TIP3    H137844   5.197   0.896   3.499
12629TIP3    H237845   5.280   0.944   3.382
12630TIP3   OH237846   0.859   0.321   3.017
12630TIP3    H137847   0.853   0.328   2.922
12630TIP3    H237848   0.939   0.368   3.040
12631TIP3   OH237849   5.772   1.610   4.551
12631TIP3    H137850   5.768   1.705   4.564
12631TIP3    H237851   5.696   1.577   4.598
12632TIP3   OH237852   1.065   6.978   2.140
12632TIP3    H137853   1.065   6.882   2.140
12632TIP3    H237854   1.056   7.001   2.047
12633TIP3   OH237855   1.353   6.028   2.122
12633TIP3    H137856   1.313   6.032   2.209
12633TIP3    H237857   1.280   6.041   2.062
12634TIP3   OH237858   1.703   6.879   6.662
12634TIP3    H137859   1.709   6.914   6.751
12634TIP3    H237860   1.727   6.787   6.671
12635TIP3   OH237861   2.583   0.373   4.054
12635TIP3    H137862   2.638   0.349   4.128
12635TIP3    H237863   2.584   0.296   3.997
12636TIP3   OH237864   4.557   3.985   4.950
12636TIP3    H137865   4.583   4.077   4.956
12636TIP3    H237866   4.579   3.947   5.035
12637TIP3   OH237867   4.115   5.085   0.049
12637TIP3    H137868   4.075   5.133  -0.024
12637TIP3    H237869   4.121   5.150   0.120
12638TIP3   OH237870   1.498   5.691   0.821
12638TIP3    H137871   1.417   5.642   0.836
12638TIP3    H237872   1.533   5.655   0.740
12639TIP3   OH237873   3.372   1.011   1.923
12639TIP3    H137874   3.285   1.046   1.905
12639TIP3    H237875   3.432   1.081   1.897
12640TIP3   OH237876   3.666   7.012   0.121
12640TIP3    H137877   3.759   6.994   0.105
12640TIP3    H237878   3.628   7.022   0.034
12641TIP3   OH237879   7.631   4.258   0.414
12641TIP3    H137880   7.674   4.329   0.462
12641TIP3    H237881   7.703   4.201   0.386
12642TIP3   OH237882   0.224   0.880   2.128
12642TIP3    H137883   0.214   0.870   2.034
12642TIP3    H237884   0.207   0.792   2.163
12643TIP3   OH237885   0.870   5.770   1.984
12643TIP3    H137886   0.884   5.855   2.026
12643TIP3    H237887   0.810   5.789   1.912
12644TIP3   OH237888   1.365   1.370   5.520
12644TIP3    H137889   1.292   1.415   5.477
12644TIP3    H237890   1.343   1.277   5.513
12645TIP3   OH237891   7.076   6.757   1.540
12645TIP3    H137892   7.101   6.689   1.477
12645TIP3    H237893   7.008   6.807   1.495
12646TIP3   OH237894   8.095   6.344   6.336
12646TIP3    H137895   8.064   6.353   6.246
12646TIP3    H237896   8.021   6.308   6.384
12647TIP3   OH237897   1.951   1.877   0.235
12647TIP3    H137898   1.974   1.880   0.143
12647TIP3    H237899   1.855   1.884   0.236
12648TIP3   OH237900   2.565   2.333   4.344
12648TIP3    H137901   2.552   2.422   4.376
12648TIP3    H237902   2.485   2.287   4.369
12649TIP3   OH237903   5.393   2.984   0.141
12649TIP3    H137904   5.426   3.012   0.056
12649TIP3    H237905   5.471   2.956   0.189
12650TIP3   OH237906   0.439   2.168   3.452
12650TIP3    H137907   0.457   2.145   3.361
12650TIP3    H237908   0.370   2.234   3.446
12651TIP3   OH237909   8.251   2.104   3.792
12651TIP3    H137910   8.192   2.175   3.770
12651TIP3    H237911   8.198   2.042   3.843
12652TIP3   OH237912   3.719   5.646   6.567
12652TIP3    H137913   3.741   5.737   6.545
12652TIP3    H237914   3.791   5.617   6.623
12653TIP3   OH237915   8.227   6.308   4.211
12653TIP3    H137916   8.153   6.271   4.260
12653TIP3    H237917   8.196   6.395   4.183
12654TIP3   OH237918   4.019   3.960   5.277
12654TIP3    H137919   3.941   4.013   5.258
12654TIP3    H237920   3.987   3.888   5.331
12655TIP3   OH237921   3.082   6.111   0.560
12655TIP3    H137922   2.993   6.122   0.591
12655TIP3    H237923   3.080   6.142   0.469
12656TIP3   OH237924   7.842   2.550   2.135
12656TIP3    H137925   7.779   2.480   2.120
12656TIP3    H237926   7.865   2.582   2.048
12657TIP3   OH237927   4.083   5.262   3.722
12657TIP3    H137928   4.130   5.268   3.804
12657TIP3    H237929   4.150   5.239   3.657
12658TIP3   OH237930   7.753   3.368   5.805
12658TIP3    H137931   7.800   3.297   5.850
12658TIP3    H237932   7.753   3.342   5.713
12659TIP3   OH237933   3.595   2.472   2.135
12659TIP3    H137934   3.579   2.462   2.042
12659TIP3    H237935   3.549   2.552   2.160
12660TIP3   OH237936   7.783   7.336   5.941
12660TIP3    H137937   7.841   7.260   5.947
12660TIP3    H237938   7.711   7.317   6.001
12661TIP3   OH237939   8.179   6.570   0.080
12661TIP3    H137940   8.133   6.540   0.158
12661TIP3    H237941   8.117   6.555   0.008
12662TIP3   OH237942   2.725   0.035   0.163
12662TIP3    H137943   2.693   0.125   0.173
12662TIP3    H237944   2.663  -0.006   0.103
12663TIP3   OH237945   5.927   1.707   1.468
12663TIP3    H137946   5.903   1.666   1.385
12663TIP3    H237947   5.875   1.661   1.534
12664TIP3   OH237948   0.861   1.133   5.395
12664TIP3    H137949   0.923   1.084   5.448
12664TIP3    H237950   0.864   1.222   5.429
12665TIP3   OH237951   5.088   4.511   1.197
12665TIP3    H137952   5.024   4.582   1.199
12665TIP3    H237953   5.173   4.556   1.199
12666TIP3   OH237954   7.855   1.231   4.043
12666TIP3    H137955   7.796   1.156   4.050
12666TIP3    H237956   7.924   1.201   3.983
12667TIP3   OH237957   3.967   5.590   1.932
12667TIP3    H137958   3.898   5.524   1.928
12667TIP3    H237959   3.945   5.651   1.861
12668TIP3   OH237960   3.714   3.984   5.663
12668TIP3    H137961   3.807   3.990   5.644
12668TIP3    H237962   3.709   3.929   5.741
12669TIP3   OH237963   8.001   4.432   0.255
12669TIP3    H137964   7.934   4.459   0.318
12669TIP3    H237965   7.957   4.434   0.170
12670TIP3   OH237966   7.582   0.415   6.114
12670TIP3    H137967   7.598   0.320   6.118
12670TIP3    H237968   7.578   0.443   6.205
12671TIP3   OH237969   7.889   4.383   5.135
12671TIP3    H137970   7.813   4.325   5.133
12671TIP3    H237971   7.944   4.353   5.062
12672TIP3   OH237972   7.676   4.489   0.240
12672TIP3    H137973   7.674   4.558   0.306
12672TIP3    H237974   7.647   4.411   0.286
12673TIP3   OH237975   0.906   5.841   2.434
12673TIP3    H137976   0.845   5.821   2.363
12673TIP3    H237977   0.870   5.920   2.476
12674TIP3   OH237978   4.069   1.173   2.628
12674TIP3    H137979   4.013   1.104   2.591
12674TIP3    H237980   4.009   1.230   2.675
12675TIP3   OH237981   2.302   0.373   2.030
12675TIP3    H137982   2.395   0.359   2.013
12675TIP3    H237983   2.276   0.295   2.080
12676TIP3   OH237984   2.696   4.266   1.758
12676TIP3    H137985   2.732   4.205   1.822
12676TIP3    H237986   2.603   4.271   1.779
12677TIP3   OH237987   6.742   3.670   0.323
12677TIP3    H137988   6.708   3.595   0.372
12677TIP3    H237989   6.837   3.655   0.318
12678TIP3   OH237990   5.735   0.118   3.166
12678TIP3    H137991   5.655   0.074   3.136
12678TIP3    H237992   5.740   0.197   3.113
12679TIP3   OH237993   1.040   6.554   0.526
12679TIP3    H137994   1.027   6.624   0.589
12679TIP3    H237995   0.958   6.550   0.477
12680TIP3   OH237996   5.086   2.656   1.460
12680TIP3    H137997   5.122   2.569   1.444
12680TIP3    H237998   5.107   2.706   1.381
12681TIP3   OH237999   1.138   1.376   1.937
12681TIP3    H138000   1.147   1.373   2.033
12681TIP3    H238001   1.073   1.308   1.918
12682TIP3   OH238002   7.438   3.653   4.031
12682TIP3    H138003   7.463   3.571   3.988
12682TIP3    H238004   7.511   3.672   4.090
12683TIP3   OH238005   2.136   7.565   1.219
12683TIP3    H138006   2.215   7.587   1.169
12683TIP3    H238007   2.070   7.545   1.153
12684TIP3   OH238008   2.512   7.713   1.293
12684TIP3    H138009   2.456   7.765   1.235
12684TIP3    H238010   2.565   7.778   1.339
12685TIP3   OH238011   4.538   1.761   5.030
12685TIP3    H138012   4.535   1.723   4.943
12685TIP3    H238013   4.448   1.753   5.063
12686TIP3   OH238014   8.269   6.905   2.821
12686TIP3    H138015   8.356   6.936   2.797
12686TIP3    H238016   8.213   6.927   2.746
12687TIP3   OH238017   1.935   6.985   5.703
12687TIP3    H138018   1.938   7.076   5.732
12687TIP3    H238019   1.969   6.988   5.613
12688TIP3   OH238020   3.870   1.995   6.071
12688TIP3    H138021   3.840   2.065   6.012
12688TIP3    H238022   3.821   2.010   6.152
12689TIP3   OH238023   2.645   3.262   6.406
12689TIP3    H138024   2.689   3.316   6.472
12689TIP3    H238025   2.599   3.325   6.351
12690TIP3   OH238026   6.186   0.199   2.574
12690TIP3    H138027   6.218   0.122   2.526
12690TIP3    H238028   6.133   0.246   2.511
12691TIP3   OH238029   1.611   6.739   1.247
12691TIP3    H138030   1.650   6.815   1.205
12691TIP3    H238031   1.529   6.724   1.199
12692TIP3   OH238032   0.316   3.581   5.608
12692TIP3    H138033   0.261   3.646   5.652
12692TIP3    H238034   0.256   3.509   5.588
12693TIP3   OH238035   2.515   7.037   2.021
12693TIP3    H138036   2.582   7.100   1.995
12693TIP3    H238037   2.562   6.955   2.034
12694TIP3   OH238038   1.880   1.769   5.948
12694TIP3    H138039   1.951   1.714   5.916
12694TIP3    H238040   1.906   1.793   6.037
12695TIP3   OH238041   6.779   6.773   1.942
12695TIP3    H138042   6.810   6.683   1.942
12695TIP3    H238043   6.710   6.775   2.008
12696TIP3   OH238044   7.173   4.723   3.377
12696TIP3    H138045   7.220   4.732   3.294
12696TIP3    H238046   7.241   4.706   3.442
12697TIP3   OH238047   0.342   6.117   2.685
12697TIP3    H138048   0.271   6.080   2.634
12697TIP3    H238049   0.418   6.115   2.627
12698TIP3   OH238050   0.373   3.893   3.516
12698TIP3    H138051   0.284   3.901   3.480
12698TIP3    H238052   0.391   3.978   3.555
12699TIP3   OH238053   5.743   1.721   2.546
12699TIP3    H138054   5.794   1.799   2.523
12699TIP3    H238055   5.725   1.731   2.639
12700TIP3   OH238056   3.680   2.271   4.101
12700TIP3    H138057   3.699   2.337   4.034
12700TIP3    H238058   3.643   2.320   4.174
12701TIP3   OH238059   4.191   2.835   3.882
12701TIP3    H138060   4.219   2.887   3.957
12701TIP3    H238061   4.207   2.745   3.907
12702TIP3   OH238062   2.405   2.631   3.602
12702TIP3    H138063   2.319   2.589   3.608
12702TIP3    H238064   2.437   2.632   3.693
12703TIP3   OH238065   7.856   7.562   6.062
12703TIP3    H138066   7.878   7.582   5.971
12703TIP3    H238067   7.826   7.471   6.060
12704TIP3   OH238068   5.563   5.507   0.206
12704TIP3    H138069   5.518   5.427   0.236
12704TIP3    H238070   5.654   5.480   0.193
12705TIP3   OH238071   3.346   4.294   5.530
12705TIP3    H138072   3.254   4.282   5.508
12705TIP3    H238073   3.392   4.288   5.446
12706TIP3   OH238074   0.876   0.133   0.174
12706TIP3    H138075   0.877   0.227   0.195
12706TIP3    H238076   0.794   0.101   0.211
12707TIP3   OH238077   3.697   7.692   3.319
12707TIP3    H138078   3.614   7.685   3.272
12707TIP3    H238079   3.763   7.701   3.250
12708TIP3   OH238080   4.584   2.123   2.621
12708TIP3    H138081   4.607   2.036   2.655
12708TIP3    H238082   4.525   2.104   2.548
12709TIP3   OH238083   3.632   2.585   6.215
12709TIP3    H138084   3.567   2.632   6.267
12709TIP3    H238085   3.599   2.495   6.211
12710TIP3   OH238086   5.552   6.412   1.158
12710TIP3    H138087   5.519   6.445   1.075
12710TIP3    H238088   5.618   6.477   1.185
12711TIP3   OH238089   4.866   7.399   4.267
12711TIP3    H138090   4.853   7.311   4.231
12711TIP3    H238091   4.959   7.416   4.254
12712TIP3   OH238092   5.740   4.167   4.767
12712TIP3    H138093   5.789   4.148   4.847
12712TIP3    H238094   5.790   4.237   4.724
12713TIP3   OH238095   1.286   3.130   1.663
12713TIP3    H138096   1.258   3.118   1.753
12713TIP3    H238097   1.378   3.104   1.662
12714TIP3   OH238098   7.640   5.784   5.054
12714TIP3    H138099   7.658   5.693   5.077
12714TIP3    H238100   7.711   5.808   4.995
12715TIP3   OH238101   6.747   6.081   1.978
12715TIP3    H138102   6.809   6.053   1.911
12715TIP3    H238103   6.700   6.154   1.938
12716TIP3   OH238104   6.095   2.903   5.944
12716TIP3    H138105   6.059   2.815   5.930
12716TIP3    H238106   6.148   2.919   5.866
12717TIP3   OH238107   6.914   4.477   1.260
12717TIP3    H138108   6.861   4.551   1.290
12717TIP3    H238109   6.926   4.492   1.167
12718TIP3   OH238110   5.628   3.859   0.123
12718TIP3    H138111   5.615   3.876   0.216
12718TIP3    H238112   5.583   3.777   0.106
12719TIP3   OH238113   2.327   1.162   3.971
12719TIP3    H138114   2.354   1.075   3.939
12719TIP3    H238115   2.344   1.221   3.897
12720TIP3   OH238116   6.237   3.734   2.396
12720TIP3    H138117   6.270   3.782   2.471
12720TIP3    H238118   6.151   3.772   2.379
12721TIP3   OH238119   2.340   7.726   4.498
12721TIP3    H138120   2.330   7.814   4.534
12721TIP3    H238121   2.378   7.740   4.411
12722TIP3   OH238122   0.593   6.126   4.536
12722TIP3    H138123   0.642   6.056   4.579
12722TIP3    H238124   0.508   6.127   4.580
12723TIP3   OH238125   3.019   1.921   6.235
12723TIP3    H138126   3.068   1.869   6.298
12723TIP3    H238127   2.927   1.901   6.254
12724TIP3   OH238128   6.090   0.961   0.617
12724TIP3    H138129   6.075   0.996   0.705
12724TIP3    H238130   6.003   0.935   0.586
12725TIP3   OH238131   2.563   3.507   0.626
12725TIP3    H138132   2.618   3.486   0.701
12725TIP3    H238133   2.474   3.484   0.655
12726TIP3   OH238134   2.687   2.270   1.683
12726TIP3    H138135   2.629   2.296   1.612
12726TIP3    H238136   2.775   2.284   1.648
12727TIP3   OH238137   1.185   6.475   5.151
12727TIP3    H138138   1.236   6.401   5.182
12727TIP3    H238139   1.233   6.506   5.074
12728TIP3   OH238140   2.869   4.931   2.864
12728TIP3    H138141   2.946   4.924   2.807
12728TIP3    H238142   2.886   4.871   2.936
12729TIP3   OH238143   7.665   2.310   2.085
12729TIP3    H138144   7.703   2.222   2.094
12729TIP3    H238145   7.602   2.315   2.157
12730TIP3   OH238146   2.909   2.442   6.379
12730TIP3    H138147   2.949   2.505   6.319
12730TIP3    H238148   2.959   2.452   6.460
12731TIP3   OH238149   6.052   7.610   6.160
12731TIP3    H138150   6.052   7.554   6.083
12731TIP3    H238151   5.973   7.584   6.209
12732TIP3   OH238152   8.001   1.825   6.518
12732TIP3    H138153   8.029   1.760   6.583
12732TIP3    H238154   7.905   1.823   6.522
12733TIP3   OH238155   3.685   0.007   3.542
12733TIP3    H138156   3.658   0.036   3.455
12733TIP3    H238157   3.604  -0.018   3.586
12734TIP3   OH238158   5.659   1.853   6.655
12734TIP3    H138159   5.652   1.916   6.584
12734TIP3    H238160   5.730   1.795   6.630
12735TIP3   OH238161   6.301   5.493   3.834
12735TIP3    H138162   6.366   5.423   3.833
12735TIP3    H238163   6.242   5.473   3.762
12736TIP3   OH238164   5.929   4.410   1.555
12736TIP3    H138165   5.876   4.382   1.481
12736TIP3    H238166   5.993   4.340   1.567
12737TIP3   OH238167   5.140   3.256   0.591
12737TIP3    H138168   5.233   3.261   0.614
12737TIP3    H238169   5.137   3.196   0.517
12738TIP3   OH238170   3.545   0.546   3.713
12738TIP3    H138171   3.566   0.454   3.695
12738TIP3    H238172   3.606   0.596   3.660
12739TIP3   OH238173   6.462   7.322   3.122
12739TIP3    H138174   6.502   7.235   3.123
12739TIP3    H238175   6.526   7.377   3.076
12740TIP3   OH238176   5.189   4.338   4.780
12740TIP3    H138177   5.146   4.416   4.817
12740TIP3    H238178   5.233   4.298   4.855
12741TIP3   OH238179   6.835   5.306   0.939
12741TIP3    H138180   6.801   5.325   1.026
12741TIP3    H238181   6.929   5.290   0.952
12742TIP3   OH238182   5.572   4.585   4.605
12742TIP3    H138183   5.523   4.648   4.658
12742TIP3    H238184   5.505   4.527   4.567
12743TIP3   OH238185   8.278   6.685   3.961
12743TIP3    H138186   8.363   6.641   3.953
12743TIP3    H238187   8.243   6.684   3.871
12744TIP3   OH238188   0.290   5.024   4.386
12744TIP3    H138189   0.326   5.090   4.326
12744TIP3    H238190   0.354   5.019   4.457
12745TIP3   OH238191   7.912   6.710   6.704
12745TIP3    H138192   7.834   6.735   6.753
12745TIP3    H238193   7.901   6.616   6.686
12746TIP3   OH238194   6.195   5.247   3.718
12746TIP3    H138195   6.131   5.271   3.784
12746TIP3    H238196   6.259   5.193   3.765
12747TIP3   OH238197   3.111   0.253   1.166
12747TIP3    H138198   3.180   0.224   1.106
12747TIP3    H238199   3.089   0.342   1.137
12748TIP3   OH238200   3.936   7.178   1.098
12748TIP3    H138201   3.952   7.266   1.132
12748TIP3    H238202   4.004   7.165   1.031
12749TIP3   OH238203   4.711   6.088   6.383
12749TIP3    H138204   4.757   6.125   6.458
12749TIP3    H238205   4.655   6.158   6.351
12750TIP3   OH238206   6.004   0.519   3.844
12750TIP3    H138207   5.961   0.455   3.901
12750TIP3    H238208   5.935   0.550   3.786
12751TIP3   OH238209   1.534   0.213   0.175
12751TIP3    H138210   1.611   0.242   0.223
12751TIP3    H238211   1.463   0.214   0.239
12752TIP3   OH238212   0.680   3.508   3.111
12752TIP3    H138213   0.743   3.569   3.149
12752TIP3    H238214   0.610   3.564   3.078
12753TIP3   OH238215   5.757   3.132   4.026
12753TIP3    H138216   5.747   3.102   4.116
12753TIP3    H238217   5.827   3.198   4.031
12754TIP3   OH238218   2.578   4.800   6.314
12754TIP3    H138219   2.637   4.761   6.250
12754TIP3    H238220   2.614   4.888   6.329
12755TIP3   OH238221   2.050   4.320   0.666
12755TIP3    H138222   2.125   4.271   0.631
12755TIP3    H238223   2.001   4.255   0.717
12756TIP3   OH238224   4.283   4.561   4.577
12756TIP3    H138225   4.201   4.565   4.529
12756TIP3    H238226   4.261   4.519   4.660
12757TIP3   OH238227   0.314   0.279   0.503
12757TIP3    H138228   0.271   0.328   0.572
12757TIP3    H238229   0.256   0.204   0.488
12758TIP3   OH238230   1.676   4.710   2.862
12758TIP3    H138231   1.582   4.728   2.862
12758TIP3    H238232   1.693   4.669   2.777
12759TIP3   OH238233   5.966   2.604   5.524
12759TIP3    H138234   5.928   2.660   5.591
12759TIP3    H238235   5.957   2.654   5.443
12760TIP3   OH238236   4.245   4.607   1.362
12760TIP3    H138237   4.263   4.514   1.376
12760TIP3    H238238   4.177   4.629   1.425
12761TIP3   OH238239   4.589   6.629   0.583
12761TIP3    H138240   4.635   6.663   0.660
12761TIP3    H238241   4.627   6.679   0.510
12762TIP3   OH238242   3.085   3.925   5.322
12762TIP3    H138243   3.002   3.972   5.325
12762TIP3    H238244   3.061   3.832   5.325
12763TIP3   OH238245   0.497   0.179   5.237
12763TIP3    H138246   0.467   0.092   5.264
12763TIP3    H238247   0.552   0.162   5.161
12764TIP3   OH238248   2.639   5.439   2.132
12764TIP3    H138249   2.629   5.458   2.226
12764TIP3    H238250   2.558   5.469   2.092
12765TIP3   OH238251   5.893   0.326   3.502
12765TIP3    H138252   5.882   0.244   3.454
12765TIP3    H238253   5.977   0.360   3.473
12766TIP3   OH238254   0.896   5.318   6.700
12766TIP3    H138255   0.966   5.337   6.762
12766TIP3    H238256   0.922   5.236   6.659
12767TIP3   OH238257   5.324   5.155   1.743
12767TIP3    H138258   5.407   5.202   1.750
12767TIP3    H238259   5.276   5.180   1.822
12768TIP3   OH238260   0.489   7.487   6.108
12768TIP3    H138261   0.487   7.529   6.195
12768TIP3    H238262   0.444   7.548   6.051
12769TIP3   OH238263   7.154   5.634   2.609
12769TIP3    H138264   7.152   5.687   2.529
12769TIP3    H238265   7.175   5.546   2.578
12770TIP3   OH238266   4.108   7.139   1.585
12770TIP3    H138267   4.109   7.043   1.586
12770TIP3    H238268   4.084   7.162   1.495
12771TIP3   OH238269   5.040   5.445   3.387
12771TIP3    H138270   5.085   5.374   3.432
12771TIP3    H238271   5.005   5.406   3.307
12772TIP3   OH238272   3.045   7.571   5.332
12772TIP3    H138273   3.045   7.656   5.289
12772TIP3    H238274   2.968   7.526   5.297
12773TIP3   OH238275   3.112   7.019   0.188
12773TIP3    H138276   3.206   6.999   0.189
12773TIP3    H238277   3.105   7.096   0.133
12774TIP3   OH238278   2.714   4.912   5.649
12774TIP3    H138279   2.744   4.938   5.736
12774TIP3    H238280   2.711   4.817   5.652
12775TIP3   OH238281   0.232   6.580   3.954
12775TIP3    H138282   0.249   6.570   3.860
12775TIP3    H238283   0.318   6.597   3.992
12776TIP3   OH238284   6.252   4.883   6.587
12776TIP3    H138285   6.239   4.977   6.597
12776TIP3    H238286   6.223   4.845   6.670
12777TIP3   OH238287   3.152   5.521   6.025
12777TIP3    H138288   3.179   5.560   5.941
12777TIP3    H238289   3.102   5.591   6.067
12778TIP3   OH238290   4.428   3.669   5.362
12778TIP3    H138291   4.400   3.693   5.274
12778TIP3    H238292   4.445   3.575   5.357
12779TIP3   OH238293   1.044   7.135   3.691
12779TIP3    H138294   1.055   7.226   3.716
12779TIP3    H238295   1.132   7.097   3.701
12780TIP3   OH238296   4.878   4.725   5.388
12780TIP3    H138297   4.783   4.713   5.390
12780TIP3    H238298   4.890   4.812   5.351
12781TIP3   OH238299   5.130   4.609   6.453
12781TIP3    H138300   5.077   4.588   6.377
12781TIP3    H238301   5.201   4.546   6.452
12782TIP3   OH238302   0.233   6.785   1.013
12782TIP3    H138303   0.142   6.806   1.037
12782TIP3    H238304   0.251   6.703   1.060
12783TIP3   OH238305   5.150   7.073   0.529
12783TIP3    H138306   5.230   7.025   0.510
12783TIP3    H238307   5.106   7.020   0.596
12784TIP3   OH238308   3.251   4.905   3.268
12784TIP3    H138309   3.330   4.957   3.281
12784TIP3    H238310   3.260   4.868   3.180
12785TIP3   OH238311   0.342   2.096   1.066
12785TIP3    H138312   0.382   2.011   1.086
12785TIP3    H238313   0.416   2.157   1.063
12786TIP3   OH238314   5.470   6.344   6.449
12786TIP3    H138315   5.448   6.405   6.379
12786TIP3    H238316   5.558   6.368   6.476
12787TIP3   OH238317   3.846   7.455   3.234
12787TIP3    H138318   3.875   7.528   3.179
12787TIP3    H238319   3.811   7.497   3.312
12788TIP3   OH238320   4.631   0.796   1.124
12788TIP3    H138321   4.621   0.704   1.099
12788TIP3    H238322   4.659   0.793   1.216
12789TIP3   OH238323   3.857   6.358   3.014
12789TIP3    H138324   3.796   6.285   3.004
12789TIP3    H238325   3.850   6.405   2.931
12790TIP3   OH238326   0.510   0.736   0.350
12790TIP3    H138327   0.478   0.826   0.349
12790TIP3    H238328   0.461   0.694   0.421
12791TIP3   OH238329   3.816   1.144   2.512
12791TIP3    H138330   3.756   1.108   2.577
12791TIP3    H238331   3.781   1.232   2.493
12792TIP3   OH238332   0.578   6.373   1.026
12792TIP3    H138333   0.514   6.431   0.984
12792TIP3    H238334   0.524   6.311   1.077
12793TIP3   OH238335   1.778   5.288   0.982
12793TIP3    H138336   1.860   5.336   0.978
12793TIP3    H238337   1.748   5.283   0.892
12794TIP3   OH238338   6.085   4.386   1.159
12794TIP3    H138339   5.995   4.376   1.127
12794TIP3    H238340   6.140   4.360   1.085
12795TIP3   OH238341   0.252   1.893   6.218
12795TIP3    H138342   0.300   1.918   6.297
12795TIP3    H238343   0.206   1.813   6.242
12796TIP3   OH238344   5.401   2.688   0.073
12796TIP3    H138345   5.333   2.639   0.027
12796TIP3    H238346   5.390   2.778   0.043
12797TIP3   OH238347   4.330   0.013   6.492
12797TIP3    H138348   4.278   0.085   6.528
12797TIP3    H238349   4.420   0.046   6.493
12798TIP3   OH238350   4.527   2.010   3.422
12798TIP3    H138351   4.486   1.998   3.336
12798TIP3    H238352   4.473   2.076   3.465
12799TIP3   OH238353   5.399   4.629   2.480
12799TIP3    H138354   5.473   4.662   2.530
12799TIP3    H238355   5.366   4.555   2.531
12800TIP3   OH238356   6.701   5.083   0.452
12800TIP3    H138357   6.795   5.100   0.441
12800TIP3    H238358   6.659   5.143   0.390
12801TIP3   OH238359   3.869   3.717   2.220
12801TIP3    H138360   3.827   3.775   2.283
12801TIP3    H238361   3.961   3.743   2.221
12802TIP3   OH238362   3.925   2.475   2.687
12802TIP3    H138363   3.892   2.436   2.768
12802TIP3    H238364   4.018   2.490   2.705
12803TIP3   OH238365   6.486   4.972   2.898
12803TIP3    H138366   6.461   4.881   2.916
12803TIP3    H238367   6.513   4.971   2.806
12804TIP3   OH238368   7.147   6.145   5.498
12804TIP3    H138369   7.055   6.151   5.525
12804TIP3    H238370   7.166   6.051   5.499
12805TIP3   OH238371   6.652   6.225   0.304
12805TIP3    H138372   6.727   6.186   0.259
12805TIP3    H238373   6.587   6.156   0.306
12806TIP3   OH238374   6.977   6.135   4.563
12806TIP3    H138375   7.046   6.088   4.611
12806TIP3    H238376   7.015   6.151   4.477
12807TIP3   OH238377   7.546   7.473   1.748
12807TIP3    H138378   7.586   7.451   1.664
12807TIP3    H238379   7.452   7.470   1.732
12808TIP3   OH238380   6.833   3.442   4.039
12808TIP3    H138381   6.802   3.532   4.027
12808TIP3    H238382   6.825   3.426   4.133
12809TIP3   OH238383   4.180   4.821   2.667
12809TIP3    H138384   4.180   4.732   2.704
12809TIP3    H238385   4.090   4.833   2.635
12810TIP3   OH238386   7.576   6.128   5.355
12810TIP3    H138387   7.552   6.073   5.280
12810TIP3    H238388   7.523   6.096   5.427
12811TIP3   OH238389   3.770   3.944   0.682
12811TIP3    H138390   3.773   3.989   0.766
12811TIP3    H238391   3.730   4.007   0.622
12812TIP3   OH238392   4.172   0.825   3.597
12812TIP3    H138393   4.153   0.733   3.620
12812TIP3    H238394   4.261   0.823   3.562
12813TIP3   OH238395   1.687   7.380   1.191
12813TIP3    H138396   1.775   7.344   1.202
12813TIP3    H238397   1.698   7.449   1.125
12814TIP3   OH238398   1.041   6.290   1.468
12814TIP3    H138399   1.048   6.319   1.559
12814TIP3    H238400   1.123   6.317   1.428
12815TIP3   OH238401   7.356   1.533   3.147
12815TIP3    H138402   7.376   1.521   3.054
12815TIP3    H238403   7.413   1.470   3.191
12816TIP3   OH238404   2.124   5.316   4.650
12816TIP3    H138405   2.059   5.385   4.637
12816TIP3    H238406   2.082   5.237   4.617
12817TIP3   OH238407   0.777   0.553   4.871
12817TIP3    H138408   0.807   0.498   4.943
12817TIP3    H238409   0.753   0.490   4.802
12818TIP3   OH238410   3.838   4.438   1.577
12818TIP3    H138411   3.765   4.483   1.535
12818TIP3    H238412   3.796   4.381   1.642
12819TIP3   OH238413   3.897   5.666   4.226
12819TIP3    H138414   3.822   5.725   4.226
12819TIP3    H238415   3.904   5.634   4.136
12820TIP3   OH238416   5.029   0.892   5.122
12820TIP3    H138417   5.065   0.978   5.146
12820TIP3    H238418   5.065   0.832   5.188
12821TIP3   OH238419   5.776   7.406   5.908
12821TIP3    H138420   5.781   7.315   5.880
12821TIP3    H238421   5.796   7.404   6.001
12822TIP3   OH238422   5.641   3.215   4.929
12822TIP3    H138423   5.711   3.242   4.870
12822TIP3    H238424   5.670   3.130   4.963
12823TIP3   OH238425   2.023   2.914   2.431
12823TIP3    H138426   2.029   2.849   2.361
12823TIP3    H238427   1.971   2.872   2.499
12824TIP3   OH238428   4.719   1.655   4.378
12824TIP3    H138429   4.655   1.708   4.330
12824TIP3    H238430   4.768   1.718   4.431
12825TIP3   OH238431   3.532   4.927   3.236
12825TIP3    H138432   3.580   5.006   3.259
12825TIP3    H238433   3.546   4.867   3.309
12826TIP3   OH238434   0.674   4.019   4.960
12826TIP3    H138435   0.694   3.980   5.045
12826TIP3    H238436   0.749   3.998   4.906
12827TIP3   OH238437   8.206   7.240   6.172
12827TIP3    H138438   8.168   7.328   6.167
12827TIP3    H238439   8.281   7.242   6.113
12828TIP3   OH238440   1.154   0.842   1.358
12828TIP3    H138441   1.060   0.831   1.349
12828TIP3    H238442   1.185   0.760   1.397
12829TIP3   OH238443   2.230   3.988   5.734
12829TIP3    H138444   2.241   4.005   5.640
12829TIP3    H238445   2.216   3.893   5.740
12830TIP3   OH238446   1.831   2.453   5.365
12830TIP3    H138447   1.784   2.526   5.404
12830TIP3    H238448   1.924   2.471   5.383
12831TIP3   OH238449   1.120   2.837   4.262
12831TIP3    H138450   1.078   2.911   4.219
12831TIP3    H238451   1.107   2.852   4.355
12832TIP3   OH238452   7.711   4.559   2.473
12832TIP3    H138453   7.686   4.639   2.427
12832TIP3    H238454   7.783   4.523   2.422
12833TIP3   OH238455   2.963   5.320   2.302
12833TIP3    H138456   2.876   5.326   2.263
12833TIP3    H238457   3.016   5.276   2.236
12834TIP3   OH238458   7.163   6.793   4.590
12834TIP3    H138459   7.165   6.887   4.606
12834TIP3    H238460   7.172   6.753   4.676
12835TIP3   OH238461   1.186   1.556   4.661
12835TIP3    H138462   1.227   1.621   4.604
12835TIP3    H238463   1.257   1.495   4.684
12836TIP3   OH238464   4.072   0.870   2.965
12836TIP3    H138465   4.043   0.853   2.875
12836TIP3    H238466   4.098   0.785   2.999
12837TIP3   OH238467   0.697   4.121   1.398
12837TIP3    H138468   0.655   4.106   1.483
12837TIP3    H238469   0.647   4.067   1.337
12838TIP3   OH238470   4.235   0.461   5.486
12838TIP3    H138471   4.203   0.522   5.553
12838TIP3    H238472   4.198   0.494   5.404
12839TIP3   OH238473   2.590   6.896   4.792
12839TIP3    H138474   2.543   6.974   4.761
12839TIP3    H238475   2.609   6.846   4.712
12840TIP3   OH238476   6.231   6.883   1.632
12840TIP3    H138477   6.219   6.925   1.718
12840TIP3    H238478   6.309   6.925   1.595
12841TIP3   OH238479   7.140   4.692   0.343
12841TIP3    H138480   7.216   4.734   0.383
12841TIP3    H238481   7.176   4.628   0.283
12842TIP3   OH238482   2.189   1.093   0.894
12842TIP3    H138483   2.103   1.093   0.851
12842TIP3    H238484   2.193   1.177   0.939
12843TIP3   OH238485   5.700   6.417   5.921
12843TIP3    H138486   5.701   6.412   5.825
12843TIP3    H238487   5.679   6.327   5.949
12844TIP3   OH238488   7.042   6.384   3.904
12844TIP3    H138489   7.025   6.472   3.937
12844TIP3    H238490   7.010   6.326   3.973
12845TIP3   OH238491   6.962   0.530   1.458
12845TIP3    H138492   6.928   0.506   1.372
12845TIP3    H238493   6.925   0.616   1.476
12846TIP3   OH238494   1.217   3.868   1.123
12846TIP3    H138495   1.290   3.867   1.184
12846TIP3    H238496   1.140   3.887   1.177
12847TIP3   OH238497   6.529   5.946   4.520
12847TIP3    H138498   6.477   6.026   4.508
12847TIP3    H238499   6.542   5.913   4.431
12848TIP3   OH238500   2.994   1.770   3.195
12848TIP3    H138501   2.994   1.690   3.249
12848TIP3    H238502   3.070   1.819   3.226
12849TIP3   OH238503   1.461   5.546   6.129
12849TIP3    H138504   1.394   5.590   6.077
12849TIP3    H238505   1.423   5.539   6.216
12850TIP3   OH238506   1.080   6.972   4.638
12850TIP3    H138507   1.104   6.916   4.712
12850TIP3    H238508   1.002   6.930   4.602
12851TIP3   OH238509   4.364   5.677   5.036
12851TIP3    H138510   4.319   5.670   4.952
12851TIP3    H238511   4.308   5.733   5.090
12852TIP3   OH238512   1.995   0.650   3.664
12852TIP3    H138513   2.029   0.689   3.583
12852TIP3    H238514   1.941   0.577   3.635
12853TIP3   OH238515   2.947   0.041   0.434
12853TIP3    H138516   3.025   0.096   0.443
12853TIP3    H238517   2.942   0.021   0.340
12854TIP3   OH238518   8.119   6.519   4.095
12854TIP3    H138519   8.027   6.546   4.102
12854TIP3    H238520   8.161   6.592   4.050
12855TIP3   OH238521   5.161   7.557   6.517
12855TIP3    H138522   5.196   7.551   6.428
12855TIP3    H238523   5.100   7.630   6.513
12856TIP3   OH238524   3.003   7.518   1.221
12856TIP3    H138525   3.038   7.429   1.213
12856TIP3    H238526   3.074   7.568   1.262
12857TIP3   OH238527   7.036   5.240   5.441
12857TIP3    H138528   7.079   5.266   5.522
12857TIP3    H238529   7.067   5.302   5.375
12858TIP3   OH238530   4.506   1.749   1.551
12858TIP3    H138531   4.436   1.779   1.493
12858TIP3    H238532   4.584   1.745   1.495
12859TIP3   OH238533   0.562   3.724   3.009
12859TIP3    H138534   0.636   3.785   3.015
12859TIP3    H238535   0.505   3.763   2.943
12860TIP3   OH238536   7.774   2.031   0.858
12860TIP3    H138537   7.691   2.012   0.816
12860TIP3    H238538   7.787   1.958   0.919
12861TIP3   OH238539   3.710   4.184   5.017
12861TIP3    H138540   3.679   4.273   4.998
12861TIP3    H238541   3.759   4.159   4.939
12862TIP3   OH238542   2.395   2.097   0.563
12862TIP3    H138543   2.311   2.124   0.526
12862TIP3    H238544   2.443   2.059   0.489
12863TIP3   OH238545   6.968   5.088   0.436
12863TIP3    H138546   7.029   5.108   0.507
12863TIP3    H238547   7.022   5.087   0.357
12864TIP3   OH238548   7.214   1.942   5.221
12864TIP3    H138549   7.129   1.968   5.256
12864TIP3    H238550   7.277   1.969   5.287
12865TIP3   OH238551   6.055   5.966   4.611
12865TIP3    H138552   6.060   5.926   4.524
12865TIP3    H238553   6.091   5.900   4.670
12866TIP3   OH238554   5.546   5.858   1.805
12866TIP3    H138555   5.491   5.928   1.842
12866TIP3    H238556   5.548   5.791   1.873
12867TIP3   OH238557   2.000   2.199   2.208
12867TIP3    H138558   2.074   2.239   2.253
12867TIP3    H238559   1.973   2.127   2.266
12868TIP3   OH238560   2.946   4.870   3.550
12868TIP3    H138561   3.001   4.929   3.602
12868TIP3    H238562   2.903   4.815   3.615
12869TIP3   OH238563   2.729   6.886   3.645
12869TIP3    H138564   2.677   6.957   3.682
12869TIP3    H238565   2.666   6.818   3.624
12870TIP3   OH238566   4.265   7.524   0.999
12870TIP3    H138567   4.337   7.464   0.983
12870TIP3    H238568   4.208   7.514   0.923
12871TIP3   OH238569   6.466   3.687   0.412
12871TIP3    H138570   6.468   3.626   0.485
12871TIP3    H238571   6.556   3.686   0.377
12872TIP3   OH238572   4.276   2.217   2.686
12872TIP3    H138573   4.294   2.304   2.651
12872TIP3    H238574   4.325   2.158   2.629
12873TIP3   OH238575   6.675   1.419   0.333
12873TIP3    H138576   6.755   1.455   0.370
12873TIP3    H238577   6.651   1.480   0.264
12874TIP3   OH238578   4.768   2.614   5.943
12874TIP3    H138579   4.737   2.557   5.873
12874TIP3    H238580   4.691   2.666   5.966
12875TIP3   OH238581   5.526   6.080   1.531
12875TIP3    H138582   5.516   6.118   1.443
12875TIP3    H238583   5.527   6.156   1.589
12876TIP3   OH238584   2.098   1.593   6.003
12876TIP3    H138585   2.092   1.556   5.916
12876TIP3    H238586   2.032   1.546   6.054
12877TIP3   OH238587   2.537   6.987   2.650
12877TIP3    H138588   2.513   7.056   2.589
12877TIP3    H238589   2.630   7.002   2.668
12878TIP3   OH238590   5.198   2.382   6.589
12878TIP3    H138591   5.138   2.359   6.518
12878TIP3    H238592   5.153   2.354   6.669
12879TIP3   OH238593   0.506   3.731   3.312
12879TIP3    H138594   0.458   3.783   3.376
12879TIP3    H238595   0.469   3.755   3.228
12880TIP3   OH238596   2.747   4.021   5.057
12880TIP3    H138597   2.736   3.926   5.058
12880TIP3    H238598   2.789   4.041   5.141
12881TIP3   OH238599   6.230   1.539   3.440
12881TIP3    H138600   6.154   1.598   3.436
12881TIP3    H238601   6.227   1.502   3.528
12882TIP3   OH238602   5.662   4.186   3.812
12882TIP3    H138603   5.720   4.120   3.776
12882TIP3    H238604   5.650   4.249   3.742
12883TIP3   OH238605   6.793   1.810   2.369
12883TIP3    H138606   6.749   1.850   2.444
12883TIP3    H238607   6.724   1.761   2.324
12884TIP3   OH238608   3.804   2.116   2.926
12884TIP3    H138609   3.830   2.198   2.969
12884TIP3    H238610   3.810   2.136   2.832
12885TIP3   OH238611   4.441   3.118   4.930
12885TIP3    H138612   4.505   3.163   4.875
12885TIP3    H238613   4.369   3.098   4.871
12886TIP3   OH238614   0.342   5.670   3.819
12886TIP3    H138615   0.368   5.606   3.753
12886TIP3    H238616   0.263   5.634   3.858
12887TIP3   OH238617   2.118   2.626   4.942
12887TIP3    H138618   2.149   2.714   4.917
12887TIP3    H238619   2.061   2.642   5.017
12888TIP3   OH238620   1.940   6.653   1.794
12888TIP3    H138621   1.854   6.641   1.833
12888TIP3    H238622   1.953   6.748   1.793
12889TIP3   OH238623   6.620   3.003   3.470
12889TIP3    H138624   6.701   3.012   3.521
12889TIP3    H238625   6.613   3.084   3.421
12890TIP3   OH238626   4.337   1.800   1.798
12890TIP3    H138627   4.367   1.717   1.834
12890TIP3    H238628   4.387   1.811   1.717
12891TIP3   OH238629   7.507   1.708   6.048
12891TIP3    H138630   7.539   1.728   6.136
12891TIP3    H238631   7.420   1.748   6.044
12892TIP3   OH238632   2.188   6.919   5.032
12892TIP3    H138633   2.202   7.011   5.057
12892TIP3    H238634   2.231   6.869   5.101
12893TIP3   OH238635   8.059   4.028   5.740
12893TIP3    H138636   8.030   4.085   5.811
12893TIP3    H238637   8.149   4.056   5.723
12894TIP3   OH238638   4.375   1.304   5.490
12894TIP3    H138639   4.348   1.345   5.408
12894TIP3    H238640   4.377   1.376   5.553
12895TIP3   OH238641   5.276   4.520   3.247
12895TIP3    H138642   5.219   4.463   3.195
12895TIP3    H238643   5.363   4.505   3.211
12896TIP3   OH238644   0.291   3.287   3.906
12896TIP3    H138645   0.240   3.302   3.985
12896TIP3    H238646   0.374   3.332   3.922
12897TIP3   OH238647   1.678   5.617   1.879
12897TIP3    H138648   1.596   5.664   1.892
12897TIP3    H238649   1.665   5.533   1.924
12898TIP3   OH238650   1.326   5.970   0.729
12898TIP3    H138651   1.401   5.945   0.783
12898TIP3    H238652   1.252   5.972   0.790
12899TIP3   OH238653   7.966   2.892   0.714
12899TIP3    H138654   7.970   2.958   0.644
12899TIP3    H238655   7.938   2.812   0.670
12900TIP3   OH238656   6.047   4.622   2.458
12900TIP3    H138657   6.135   4.638   2.493
12900TIP3    H238658   6.028   4.531   2.483
12901TIP3   OH238659   5.472   2.174   3.593
12901TIP3    H138660   5.449   2.254   3.545
12901TIP3    H238661   5.423   2.180   3.675
12902TIP3   OH238662   4.206   6.328   4.452
12902TIP3    H138663   4.209   6.303   4.545
12902TIP3    H238664   4.154   6.408   4.450
12903TIP3   OH238665   5.502   5.154   6.037
12903TIP3    H138666   5.416   5.131   6.001
12903TIP3    H238667   5.487   5.235   6.087
12904TIP3   OH238668   3.660   3.126   6.659
12904TIP3    H138669   3.688   3.080   6.579
12904TIP3    H238670   3.620   3.057   6.713
12905TIP3   OH238671   6.003   5.286   2.780
12905TIP3    H138672   6.067   5.249   2.719
12905TIP3    H238673   5.919   5.271   2.738
12906TIP3   OH238674   3.162   6.429   5.601
12906TIP3    H138675   3.189   6.498   5.541
12906TIP3    H238676   3.072   6.451   5.624
12907TIP3   OH238677   1.934   6.800   4.984
12907TIP3    H138678   2.025   6.829   4.990
12907TIP3    H238679   1.884   6.865   5.034
12908TIP3   OH238680   2.107   6.310   0.594
12908TIP3    H138681   2.189   6.359   0.594
12908TIP3    H238682   2.129   6.227   0.637
12909TIP3   OH238683   7.959   6.838   2.944
12909TIP3    H138684   8.045   6.797   2.933
12909TIP3    H238685   7.902   6.766   2.972
12910TIP3   OH238686   7.901   6.586   3.885
12910TIP3    H138687   7.841   6.624   3.821
12910TIP3    H238688   7.864   6.608   3.970
12911TIP3   OH238689   2.854   3.521   2.261
12911TIP3    H138690   2.847   3.433   2.297
12911TIP3    H238691   2.856   3.509   2.167
12912TIP3   OH238692   4.363   2.335   0.405
12912TIP3    H138693   4.313   2.417   0.404
12912TIP3    H238694   4.449   2.360   0.437
12913TIP3   OH238695   2.592   1.209   6.495
12913TIP3    H138696   2.636   1.283   6.537
12913TIP3    H238697   2.567   1.151   6.567
12914TIP3   OH238698   7.233   5.091   4.566
12914TIP3    H138699   7.321   5.090   4.528
12914TIP3    H238700   7.244   5.135   4.650
12915TIP3   OH238701   4.601   4.378   4.738
12915TIP3    H138702   4.508   4.381   4.715
12915TIP3    H238703   4.645   4.422   4.665
12916TIP3   OH238704   3.252   1.499   6.186
12916TIP3    H138705   3.228   1.576   6.238
12916TIP3    H238706   3.196   1.505   6.109
12917TIP3   OH238707   2.036   4.607   3.604
12917TIP3    H138708   2.081   4.586   3.686
12917TIP3    H238709   2.095   4.669   3.560
12918TIP3   OH238710   4.970   4.321   2.134
12918TIP3    H138711   4.924   4.292   2.212
12918TIP3    H238712   4.958   4.416   2.133
12919TIP3   OH238713   3.056   0.209   5.125
12919TIP3    H138714   3.066   0.227   5.031
12919TIP3    H238715   3.038   0.115   5.129
12920TIP3   OH238716   7.700   0.233   6.483
12920TIP3    H138717   7.684   0.168   6.414
12920TIP3    H238718   7.626   0.222   6.543
12921TIP3   OH238719   1.780   1.143   6.090
12921TIP3    H138720   1.852   1.113   6.147
12921TIP3    H238721   1.770   1.072   6.026
12922TIP3   OH238722   6.751   5.783   1.050
12922TIP3    H138723   6.784   5.843   1.118
12922TIP3    H238724   6.686   5.835   1.002
12923TIP3   OH238725   3.167   3.046   2.842
12923TIP3    H138726   3.083   3.091   2.830
12923TIP3    H238727   3.184   3.051   2.936
12924TIP3   OH238728   1.927   7.812   3.195
12924TIP3    H138729   1.925   7.717   3.208
12924TIP3    H238730   1.905   7.824   3.103
12925TIP3   OH238731   5.036   5.694   5.534
12925TIP3    H138732   5.066   5.770   5.483
12925TIP3    H238733   4.942   5.709   5.547
12926TIP3   OH238734   2.855   1.209   1.849
12926TIP3    H138735   2.794   1.273   1.812
12926TIP3    H238736   2.915   1.189   1.778
12927TIP3   OH238737   0.076   3.116   1.825
12927TIP3    H138738   0.099   3.026   1.802
12927TIP3    H238739  -0.012   3.129   1.789
12928TIP3   OH238740   7.066   2.387   0.046
12928TIP3    H138741   6.994   2.375   0.108
12928TIP3    H238742   7.131   2.438   0.094
12929TIP3   OH238743   3.783   2.700   2.486
12929TIP3    H138744   3.750   2.616   2.519
12929TIP3    H238745   3.819   2.744   2.563
12930TIP3   OH238746   7.609   5.694   5.992
12930TIP3    H138747   7.671   5.669   5.923
12930TIP3    H238748   7.654   5.673   6.074
12931TIP3   OH238749   7.242   7.799   2.607
12931TIP3    H138750   7.335   7.816   2.621
12931TIP3    H238751   7.217   7.743   2.680
12932TIP3   OH238752   7.233   3.197   5.249
12932TIP3    H138753   7.149   3.183   5.294
12932TIP3    H238754   7.232   3.289   5.225
12933TIP3   OH238755   2.980   6.469   1.433
12933TIP3    H138756   3.069   6.450   1.404
12933TIP3    H238757   2.978   6.437   1.524
12934TIP3   OH238758   8.175   4.755   1.520
12934TIP3    H138759   8.169   4.678   1.463
12934TIP3    H238760   8.247   4.735   1.580
12935TIP3   OH238761   0.105   2.732   1.206
12935TIP3    H138762   0.051   2.711   1.282
12935TIP3    H238763   0.156   2.808   1.232
12936TIP3   OH238764   2.290   6.203   4.977
12936TIP3    H138765   2.258   6.233   4.891
12936TIP3    H238766   2.325   6.282   5.018
12937TIP3   OH238767   2.963   2.899   0.186
12937TIP3    H138768   2.916   2.830   0.139
12937TIP3    H238769   2.896   2.964   0.207
12938TIP3   OH238770   7.390   3.486   4.409
12938TIP3    H138771   7.482   3.472   4.431
12938TIP3    H238772   7.373   3.425   4.338
12939TIP3   OH238773   1.334   3.615   1.030
12939TIP3    H138774   1.265   3.671   1.065
12939TIP3    H238775   1.310   3.601   0.939
12940TIP3   OH238776   5.832   7.547   4.088
12940TIP3    H138777   5.813   7.641   4.094
12940TIP3    H238778   5.928   7.542   4.087
12941TIP3   OH238779   7.171   7.092   2.727
12941TIP3    H138780   7.096   7.036   2.706
12941TIP3    H238781   7.146   7.134   2.810
12942TIP3   OH238782   0.168   4.886   0.743
12942TIP3    H138783   0.098   4.831   0.778
12942TIP3    H238784   0.134   4.917   0.658
12943TIP3   OH238785   0.775   5.523   0.492
12943TIP3    H138786   0.814   5.597   0.445
12943TIP3    H238787   0.684   5.520   0.462
12944TIP3   OH238788   3.095   5.971  -0.001
12944TIP3    H138789   3.156   5.947   0.069
12944TIP3    H238790   3.009   5.946   0.032
12945TIP3   OH238791   4.553   6.658   0.033
12945TIP3    H138792   4.551   6.634  -0.059
12945TIP3    H238793   4.473   6.620   0.070
12946TIP3   OH238794   1.528   3.345   4.089
12946TIP3    H138795   1.574   3.387   4.161
12946TIP3    H238796   1.596   3.325   4.025
12947TIP3   OH238797   5.064   0.479   3.842
12947TIP3    H138798   5.113   0.556   3.812
12947TIP3    H238799   5.125   0.407   3.833
12948TIP3   OH238800   0.410   3.281   4.788
12948TIP3    H138801   0.323   3.267   4.825
12948TIP3    H238802   0.464   3.210   4.825
12949TIP3   OH238803   0.697   4.733   2.349
12949TIP3    H138804   0.788   4.742   2.379
12949TIP3    H238805   0.702   4.669   2.278
12950TIP3   OH238806   6.657   7.211   3.471
12950TIP3    H138807   6.726   7.224   3.536
12950TIP3    H238808   6.646   7.297   3.430
12951TIP3   OH238809   2.388   3.598   4.895
12951TIP3    H138810   2.298   3.604   4.928
12951TIP3    H238811   2.442   3.633   4.966
12952TIP3   OH238812   6.486   0.251   5.387
12952TIP3    H138813   6.408   0.229   5.337
12952TIP3    H238814   6.518   0.332   5.348
12953TIP3   OH238815   2.271   1.969   4.056
12953TIP3    H138816   2.293   2.031   3.987
12953TIP3    H238817   2.298   2.014   4.137
12954TIP3   OH238818   2.928   7.280   2.595
12954TIP3    H138819   2.970   7.362   2.569
12954TIP3    H238820   2.992   7.213   2.573
12955TIP3   OH238821   7.785   3.671   3.239
12955TIP3    H138822   7.785   3.686   3.144
12955TIP3    H238823   7.745   3.749   3.276
12956TIP3   OH238824   2.876   1.478   3.287
12956TIP3    H138825   2.930   1.400   3.299
12956TIP3    H238826   2.816   1.455   3.217
12957TIP3   OH238827   1.630   3.599   5.276
12957TIP3    H138828   1.713   3.607   5.323
12957TIP3    H238829   1.566   3.642   5.332
12958TIP3   OH238830   1.445   1.427   1.035
12958TIP3    H138831   1.450   1.374   1.115
12958TIP3    H238832   1.534   1.427   1.001
12959TIP3   OH238833   6.243   3.536   6.091
12959TIP3    H138834   6.222   3.512   6.181
12959TIP3    H238835   6.296   3.615   6.098
12960TIP3   OH238836   5.304   2.431   2.954
12960TIP3    H138837   5.240   2.391   3.014
12960TIP3    H238838   5.251   2.485   2.896
12961TIP3   OH238839   1.939   5.515   6.339
12961TIP3    H138840   1.843   5.511   6.339
12961TIP3    H238841   1.966   5.438   6.288
12962TIP3   OH238842   5.168   1.256   3.769
12962TIP3    H138843   5.231   1.281   3.837
12962TIP3    H238844   5.220   1.210   3.703
12963TIP3   OH238845   2.091   0.581   2.905
12963TIP3    H138846   2.047   0.572   2.820
12963TIP3    H238847   2.179   0.547   2.890
12964TIP3   OH238848   2.268   4.477   0.428
12964TIP3    H138849   2.208   4.412   0.392
12964TIP3    H238850   2.352   4.458   0.386
12965TIP3   OH238851   4.342   1.999   3.820
12965TIP3    H138852   4.338   2.044   3.905
12965TIP3    H238853   4.262   2.027   3.775
12966TIP3   OH238854   4.188   2.965   3.022
12966TIP3    H138855   4.158   2.886   2.977
12966TIP3    H238856   4.211   2.935   3.110
12967TIP3   OH238857   6.613   3.556   4.570
12967TIP3    H138858   6.673   3.621   4.536
12967TIP3    H238859   6.651   3.472   4.545
12968TIP3   OH238860   6.469   1.939   1.086
12968TIP3    H138861   6.380   1.968   1.104
12968TIP3    H238862   6.458   1.871   1.019
12969TIP3   OH238863   3.088   3.605   4.318
12969TIP3    H138864   3.100   3.670   4.387
12969TIP3    H238865   3.115   3.522   4.357
12970TIP3   OH238866   1.677   5.017   6.700
12970TIP3    H138867   1.595   4.973   6.677
12970TIP3    H238868   1.708   5.056   6.618
12971TIP3   OH238869   0.601   6.914   3.834
12971TIP3    H138870   0.633   6.991   3.789
12971TIP3    H238871   0.536   6.876   3.774
12972TIP3   OH238872   7.839   6.933   6.074
12972TIP3    H138873   7.792   6.915   6.156
12972TIP3    H238874   7.884   6.850   6.054
12973TIP3   OH238875   0.138   5.421   1.818
12973TIP3    H138876   0.179   5.502   1.849
12973TIP3    H238877   0.170   5.410   1.728
12974TIP3   OH238878   1.893   7.567   1.424
12974TIP3    H138879   1.825   7.625   1.390
12974TIP3    H238880   1.845   7.501   1.474
12975TIP3   OH238881   4.065   7.735   2.784
12975TIP3    H138882   4.076   7.754   2.690
12975TIP3    H238883   4.000   7.665   2.787
12976TIP3   OH238884   7.587   0.337   4.419
12976TIP3    H138885   7.501   0.361   4.386
12976TIP3    H238886   7.569   0.270   4.486
12977TIP3   OH238887   1.047   3.258   5.418
12977TIP3    H138888   1.068   3.266   5.511
12977TIP3    H238889   1.083   3.337   5.378
12978TIP3   OH238890   8.266   4.327   4.517
12978TIP3    H138891   8.290   4.413   4.482
12978TIP3    H238892   8.221   4.284   4.444
12979TIP3   OH238893   1.542   1.304   6.051
12979TIP3    H138894   1.617   1.252   6.081
12979TIP3    H238895   1.572   1.395   6.055
12980TIP3   OH238896   5.777   5.576   6.579
12980TIP3    H138897   5.712   5.638   6.546
12980TIP3    H238898   5.743   5.490   6.553
12981TIP3   OH238899   0.720   5.047   4.862
12981TIP3    H138900   0.737   5.131   4.819
12981TIP3    H238901   0.624   5.042   4.867
12982TIP3   OH238902   6.433   3.889   3.376
12982TIP3    H138903   6.347   3.848   3.364
12982TIP3    H238904   6.429   3.969   3.323
12983TIP3   OH238905   2.202   1.390   5.030
12983TIP3    H138906   2.173   1.466   4.980
12983TIP3    H238907   2.292   1.375   5.001
12984TIP3   OH238908   5.564   4.447   3.734
12984TIP3    H138909   5.653   4.482   3.740
12984TIP3    H238910   5.527   4.459   3.821
12985TIP3   OH238911   7.314   5.141   1.017
12985TIP3    H138912   7.385   5.202   0.996
12985TIP3    H238913   7.353   5.079   1.079
12986TIP3   OH238914   3.029   5.139   1.896
12986TIP3    H138915   2.993   5.165   1.812
12986TIP3    H238916   3.001   5.207   1.957
12987TIP3   OH238917   1.291   5.039   6.548
12987TIP3    H138918   1.248   4.997   6.473
12987TIP3    H238919   1.337   4.967   6.592
12988TIP3   OH238920   7.531   0.817   0.817
12988TIP3    H138921   7.625   0.800   0.833
12988TIP3    H238922   7.488   0.736   0.844
12989TIP3   OH238923   1.082   6.215   4.863
12989TIP3    H138924   0.987   6.211   4.858
12989TIP3    H238925   1.103   6.306   4.839
12990TIP3   OH238926   4.404   1.450   3.663
12990TIP3    H138927   4.397   1.355   3.669
12990TIP3    H238928   4.332   1.483   3.716
12991TIP3   OH238929   2.628   2.029   2.300
12991TIP3    H138930   2.661   2.018   2.211
12991TIP3    H238931   2.536   2.050   2.289
12992TIP3   OH238932   1.843   0.350   5.125
12992TIP3    H138933   1.919   0.345   5.066
12992TIP3    H238934   1.881   0.374   5.210
12993TIP3   OH238935   5.239   5.078   1.109
12993TIP3    H138936   5.172   5.063   1.043
12993TIP3    H238937   5.312   5.118   1.061
12994TIP3   OH238938   5.168   1.508   6.720
12994TIP3    H138939   5.092   1.486   6.666
12994TIP3    H238940   5.197   1.593   6.689
12995TIP3   OH238941   0.637   2.153   5.732
12995TIP3    H138942   0.573   2.224   5.726
12995TIP3    H238943   0.593   2.078   5.691
12996TIP3   OH238944   5.231   7.383   4.713
12996TIP3    H138945   5.137   7.364   4.715
12996TIP3    H238946   5.248   7.424   4.798
12997TIP3   OH238947   7.017   4.239   3.598
12997TIP3    H138948   7.030   4.290   3.678
12997TIP3    H238949   7.026   4.303   3.528
12998TIP3   OH238950   6.642   3.408   6.694
12998TIP3    H138951   6.698   3.416   6.617
12998TIP3    H238952   6.689   3.347   6.752
12999TIP3   OH238953   2.600   1.120   1.250
12999TIP3    H138954   2.572   1.060   1.319
12999TIP3    H238955   2.634   1.196   1.297
13000TIP3   OH238956   5.719   1.005   2.480
13000TIP3    H138957   5.771   0.937   2.439
13000TIP3    H238958   5.733   0.993   2.574
13001TIP3   OH238959   4.463   2.290   2.169
13001TIP3    H138960   4.383   2.285   2.221
13001TIP3    H238961   4.513   2.212   2.196
13002TIP3   OH238962   0.695   0.570   2.904
13002TIP3    H138963   0.746   0.640   2.946
13002TIP3    H238964   0.620   0.558   2.962
13003TIP3   OH238965   6.570   0.908   3.340
13003TIP3    H138966   6.531   0.920   3.426
13003TIP3    H238967   6.572   0.995   3.302
13004TIP3   OH238968   1.268   5.830   5.573
13004TIP3    H138969   1.232   5.859   5.657
13004TIP3    H238970   1.328   5.900   5.547
13005TIP3   OH238971   4.826   4.302   3.700
13005TIP3    H138972   4.912   4.306   3.657
13005TIP3    H238973   4.830   4.224   3.755
13006TIP3   OH238974   3.919   0.821   3.449
13006TIP3    H138975   3.906   0.865   3.533
13006TIP3    H238976   4.013   0.802   3.448
13007TIP3   OH238977   5.367   2.643   2.448
13007TIP3    H138978   5.311   2.650   2.371
13007TIP3    H238979   5.344   2.720   2.501
13008TIP3   OH238980   2.258   6.718   1.245
13008TIP3    H138981   2.283   6.715   1.153
13008TIP3    H238982   2.327   6.770   1.287
13009TIP3   OH238983   2.618   1.254   5.106
13009TIP3    H138984   2.637   1.200   5.029
13009TIP3    H238985   2.690   1.235   5.166
13010TIP3   OH238986   3.139   0.927   6.567
13010TIP3    H138987   3.109   0.902   6.480
13010TIP3    H238988   3.063   0.967   6.609
13011TIP3   OH238989   5.838   7.662   5.842
13011TIP3    H138990   5.927   7.686   5.816
13011TIP3    H238991   5.840   7.568   5.853
13012TIP3   OH238992   8.155   1.555   2.785
13012TIP3    H138993   8.158   1.547   2.689
13012TIP3    H238994   8.205   1.634   2.804
13013TIP3   OH238995   1.487   3.114   2.279
13013TIP3    H138996   1.404   3.093   2.323
13013TIP3    H238997   1.478   3.076   2.192
13014TIP3   OH238998   7.941   5.872   1.962
13014TIP3    H138999   7.847   5.872   1.944
13014TIP3    H239000   7.953   5.802   2.026
13015TIP3   OH239001   0.646   5.605   3.195
13015TIP3    H139002   0.566   5.608   3.247
13015TIP3    H239003   0.713   5.572   3.255
13016TIP3   OH239004   7.660   2.140   4.021
13016TIP3    H139005   7.679   2.046   4.017
13016TIP3    H239006   7.726   2.175   4.080
13017TIP3   OH239007   6.716   4.505   4.478
13017TIP3    H139008   6.783   4.456   4.526
13017TIP3    H239009   6.681   4.567   4.542
13018TIP3   OH239010   1.241   0.742   6.213
13018TIP3    H139011   1.244   0.804   6.285
13018TIP3    H239012   1.248   0.656   6.255
13019TIP3   OH239013   3.641   3.958   3.211
13019TIP3    H139014   3.695   3.879   3.213
13019TIP3    H239015   3.589   3.949   3.131
13020TIP3   OH239016   5.200   1.952   6.141
13020TIP3    H139017   5.170   1.925   6.055
13020TIP3    H239018   5.237   2.039   6.128
13021TIP3   OH239019   6.292   6.619   5.954
13021TIP3    H139020   6.207   6.630   5.995
13021TIP3    H239021   6.278   6.638   5.862
13022TIP3   OH239022   4.863   2.570   4.375
13022TIP3    H139023   4.882   2.627   4.450
13022TIP3    H239024   4.804   2.622   4.320
13023TIP3   OH239025   2.297   5.400   6.196
13023TIP3    H139026   2.226   5.373   6.137
13023TIP3    H239027   2.268   5.372   6.283
13024TIP3   OH239028   2.273   5.824   6.629
13024TIP3    H139029   2.246   5.764   6.560
13024TIP3    H239030   2.194   5.874   6.650
13025TIP3   OH239031   5.230   2.525   4.534
13025TIP3    H139032   5.170   2.452   4.516
13025TIP3    H239033   5.305   2.508   4.477
13026TIP3   OH239034   4.659   4.305   3.998
13026TIP3    H139035   4.747   4.269   4.006
13026TIP3    H239036   4.653   4.369   4.069
13027TIP3   OH239037   5.012   6.500   5.369
13027TIP3    H139038   5.041   6.567   5.431
13027TIP3    H239039   5.087   6.440   5.361
13028TIP3   OH239040   7.114   2.922   1.374
13028TIP3    H139041   7.068   2.977   1.438
13028TIP3    H239042   7.101   2.832   1.406
13029TIP3   OH239043   3.284   2.631   2.776
13029TIP3    H139044   3.376   2.655   2.772
13029TIP3    H239045   3.283   2.536   2.761
13030TIP3   OH239046   1.671   1.388   0.886
13030TIP3    H139047   1.751   1.382   0.834
13030TIP3    H239048   1.601   1.389   0.821
13031TIP3   OH239049   1.035   7.204   6.615
13031TIP3    H139050   1.049   7.129   6.556
13031TIP3    H239051   0.946   7.232   6.596
13032TIP3   OH239052   3.739   0.571   0.667
13032TIP3    H139053   3.649   0.538   0.674
13032TIP3    H239054   3.731   0.665   0.683
13033TIP3   OH239055   1.586   7.476   5.680
13033TIP3    H139056   1.578   7.515   5.767
13033TIP3    H239057   1.496   7.460   5.652
13034TIP3   OH239058   7.336   0.007   1.096
13034TIP3    H139059   7.363   0.070   1.163
13034TIP3    H239060   7.250  -0.023   1.124
13035TIP3   OH239061   7.862   1.030   0.431
13035TIP3    H139062   7.914   0.959   0.469
13035TIP3    H239063   7.882   1.026   0.337
13036TIP3   OH239064   8.190   7.020   5.251
13036TIP3    H139065   8.157   6.976   5.172
13036TIP3    H239066   8.142   7.103   5.255
13037TIP3   OH239067   0.787   0.160   1.536
13037TIP3    H139068   0.708   0.180   1.486
13037TIP3    H239069   0.799   0.235   1.594
13038TIP3   OH239070   6.055   0.649   2.870
13038TIP3    H139071   6.144   0.644   2.836
13038TIP3    H239072   6.008   0.580   2.824
13039TIP3   OH239073   7.757   1.115   3.724
13039TIP3    H139074   7.719   1.031   3.748
13039TIP3    H239075   7.835   1.123   3.779
13040TIP3   OH239076   4.177   2.683   2.404
13040TIP3    H139077   4.241   2.752   2.388
13040TIP3    H239078   4.131   2.711   2.484
13041TIP3   OH239079   2.891   6.485   2.161
13041TIP3    H139080   2.966   6.497   2.219
13041TIP3    H239081   2.929   6.463   2.076
13042TIP3   OH239082   2.776   0.827   3.599
13042TIP3    H139083   2.747   0.754   3.655
13042TIP3    H239084   2.811   0.891   3.661
13043TIP3   OH239085   3.719   2.346   3.639
13043TIP3    H139086   3.800   2.394   3.627
13043TIP3    H239087   3.714   2.288   3.562
13044TIP3   OH239088   1.795   6.429   6.538
13044TIP3    H139089   1.747   6.391   6.464
13044TIP3    H239090   1.729   6.482   6.584
13045TIP3   OH239091   2.118   0.960   6.198
13045TIP3    H139092   2.102   0.900   6.125
13045TIP3    H239093   2.151   1.039   6.156
13046TIP3   OH239094   0.874   1.417   4.856
13046TIP3    H139095   0.807   1.390   4.918
13046TIP3    H239096   0.902   1.335   4.814
13047TIP3   OH239097   3.256   5.605   5.165
13047TIP3    H139098   3.346   5.637   5.157
13047TIP3    H239099   3.227   5.638   5.250
13048TIP3   OH239100   2.631   2.523   3.482
13048TIP3    H139101   2.579   2.602   3.499
13048TIP3    H239102   2.566   2.457   3.457
13049TIP3   OH239103   2.312   1.319   3.427
13049TIP3    H139104   2.347   1.232   3.407
13049TIP3    H239105   2.383   1.362   3.475
13050TIP3   OH239106   1.990   0.072   0.259
13050TIP3    H139107   2.001   0.060   0.165
13050TIP3    H239108   1.930   0.003   0.285
13051TIP3   OH239109   1.605   5.098   4.745
13051TIP3    H139110   1.684   5.079   4.795
13051TIP3    H239111   1.623   5.065   4.657
13052TIP3   OH239112   6.329   7.511   5.830
13052TIP3    H139113   6.349   7.566   5.755
13052TIP3    H239114   6.311   7.425   5.792
13053TIP3   OH239115   8.229   1.172   0.901
13053TIP3    H139116   8.229   1.244   0.838
13053TIP3    H239117   8.172   1.106   0.862
13054TIP3   OH239118   1.768   3.432   4.782
13054TIP3    H139119   1.803   3.360   4.729
13054TIP3    H239120   1.797   3.412   4.871
13055TIP3   OH239121   3.146   2.360   2.483
13055TIP3    H139122   3.208   2.432   2.483
13055TIP3    H239123   3.158   2.318   2.397
13056TIP3   OH239124   3.057   2.840   1.789
13056TIP3    H139125   3.088   2.842   1.699
13056TIP3    H239126   3.082   2.753   1.820
13057TIP3   OH239127   6.786   1.077   0.992
13057TIP3    H139128   6.734   1.139   1.043
13057TIP3    H239129   6.727   1.002   0.979
13058TIP3   OH239130   0.023   4.141   3.977
13058TIP3    H139131   0.056   4.231   3.968
13058TIP3    H239132   0.064   4.109   4.058
13059TIP3   OH239133   1.010   5.446   0.670
13059TIP3    H139134   1.097   5.478   0.644
13059TIP3    H239135   0.952   5.472   0.599
13060TIP3   OH239136   1.289   5.039   0.655
13060TIP3    H139137   1.225   5.027   0.725
13060TIP3    H239138   1.347   4.963   0.662
13061TIP3   OH239139   1.166   4.666   0.488
13061TIP3    H139140   1.106   4.648   0.560
13061TIP3    H239141   1.174   4.583   0.441
13062TIP3   OH239142   2.964   1.638   2.772
13062TIP3    H139143   3.000   1.551   2.754
13062TIP3    H239144   2.970   1.684   2.688
13063TIP3   OH239145   4.057   7.500   1.578
13063TIP3    H139146   4.091   7.501   1.667
13063TIP3    H239147   4.042   7.592   1.557
13064TIP3   OH239148   1.260   2.464   1.757
13064TIP3    H139149   1.253   2.502   1.845
13064TIP3    H239150   1.195   2.394   1.756
13065TIP3   OH239151   7.347   6.852   1.049
13065TIP3    H139152   7.361   6.847   1.144
13065TIP3    H239153   7.401   6.782   1.013
13066TIP3   OH239154   1.470   4.406   4.973
13066TIP3    H139155   1.417   4.430   5.049
13066TIP3    H239156   1.409   4.361   4.915
13067TIP3   OH239157   5.503   6.810   6.572
13067TIP3    H139158   5.527   6.902   6.578
13067TIP3    H239159   5.577   6.769   6.527
13068TIP3   OH239160   4.173   1.421   6.752
13068TIP3    H139161   4.250   1.450   6.702
13068TIP3    H239162   4.192   1.330   6.773
13069TIP3   OH239163   1.619   4.342   2.778
13069TIP3    H139164   1.675   4.281   2.731
13069TIP3    H239165   1.666   4.360   2.859
13070TIP3   OH239166   4.070   3.621   6.134
13070TIP3    H139167   4.115   3.687   6.082
13070TIP3    H239168   4.098   3.639   6.224
13071TIP3   OH239169   5.080   2.239   2.007
13071TIP3    H139170   5.030   2.302   1.955
13071TIP3    H239171   5.128   2.293   2.070
13072TIP3   OH239172   8.074   1.145   3.356
13072TIP3    H139173   8.102   1.101   3.276
13072TIP3    H239174   8.099   1.085   3.426
13073TIP3   OH239175   0.857   0.836   3.283
13073TIP3    H139176   0.803   0.915   3.273
13073TIP3    H239177   0.865   0.824   3.377
13074TIP3   OH239178   6.080   3.133   5.639
13074TIP3    H139179   6.020   3.060   5.624
13074TIP3    H239180   6.048   3.203   5.582
13075TIP3   OH239181   0.100   6.829   3.272
13075TIP3    H139182   0.113   6.920   3.297
13075TIP3    H239183   0.104   6.829   3.176
13076TIP3   OH239184   7.780   4.031   3.502
13076TIP3    H139185   7.745   3.947   3.532
13076TIP3    H239186   7.818   4.071   3.581
13077TIP3   OH239187   7.636   5.006   4.419
13077TIP3    H139188   7.639   4.961   4.504
13077TIP3    H239189   7.703   5.075   4.427
13078TIP3   OH239190   6.679   3.736   5.602
13078TIP3    H139191   6.619   3.665   5.580
13078TIP3    H239192   6.735   3.744   5.524
13079TIP3   OH239193   0.707   1.001   0.467
13079TIP3    H139194   0.801   1.015   0.475
13079TIP3    H239195   0.674   1.007   0.557
13080TIP3   OH239196   6.551   7.550   4.454
13080TIP3    H139197   6.530   7.643   4.461
13080TIP3    H239198   6.605   7.532   4.531
13081TIP3   OH239199   3.004   7.541   3.292
13081TIP3    H139200   3.077   7.585   3.335
13081TIP3    H239201   2.927   7.566   3.343
13082TIP3   OH239202   8.001   3.933   5.025
13082TIP3    H139203   7.923   3.955   5.076
13082TIP3    H239204   8.061   4.007   5.039
13083TIP3   OH239205   0.748   7.555   0.250
13083TIP3    H139206   0.837   7.542   0.217
13083TIP3    H239207   0.711   7.467   0.255
13084TIP3   OH239208   2.347   7.537   3.875
13084TIP3    H139209   2.409   7.478   3.918
13084TIP3    H239210   2.311   7.590   3.947
13085TIP3   OH239211   6.736   2.104   4.923
13085TIP3    H139212   6.764   2.014   4.906
13085TIP3    H239213   6.659   2.094   4.979
13086TIP3   OH239214   0.629   7.237   2.195
13086TIP3    H139215   0.645   7.175   2.123
13086TIP3    H239216   0.711   7.237   2.245
13087TIP3   OH239217   4.817   4.875   4.730
13087TIP3    H139218   4.902   4.918   4.732
13087TIP3    H239219   4.758   4.939   4.690
13088TIP3   OH239220   4.995   4.430   1.479
13088TIP3    H139221   5.072   4.401   1.430
13088TIP3    H239222   4.981   4.520   1.450
13089TIP3   OH239223   6.857   5.227   5.707
13089TIP3    H139224   6.827   5.318   5.704
13089TIP3    H239225   6.946   5.232   5.742
13090TIP3   OH239226   7.896   6.503   5.121
13090TIP3    H139227   7.964   6.454   5.167
13090TIP3    H239228   7.814   6.462   5.150
13091TIP3   OH239229   6.391   0.191   1.171
13091TIP3    H139230   6.482   0.187   1.199
13091TIP3    H239231   6.389   0.141   1.089
13092TIP3   OH239232   6.890   2.599   0.636
13092TIP3    H139233   6.828   2.537   0.675
13092TIP3    H239234   6.937   2.548   0.570
13093TIP3   OH239235   2.723   1.306   2.469
13093TIP3    H139236   2.726   1.390   2.422
13093TIP3    H239237   2.802   1.305   2.523
13094TIP3   OH239238   2.128   6.194   6.737
13094TIP3    H139239   2.079   6.230   6.663
13094TIP3    H239240   2.064   6.190   6.808
13095TIP3   OH239241   5.033   2.363   6.365
13095TIP3    H139242   4.947   2.324   6.378
13095TIP3    H239243   5.016   2.442   6.313
13096TIP3   OH239244   6.095   0.619   1.564
13096TIP3    H139245   6.131   0.698   1.523
13096TIP3    H239246   6.158   0.551   1.543
13097TIP3   OH239247   0.040   5.663   5.642
13097TIP3    H139248   0.113   5.707   5.600
13097TIP3    H239249   0.057   5.672   5.736
13098TIP3   OH239250   4.418   4.194   2.267
13098TIP3    H139251   4.330   4.231   2.276
13098TIP3    H239252   4.470   4.263   2.225
13099TIP3   OH239253   7.719   2.902   4.384
13099TIP3    H139254   7.790   2.945   4.431
13099TIP3    H239255   7.669   2.974   4.345
13100TIP3   OH239256   1.843   5.735   6.062
13100TIP3    H139257   1.801   5.800   6.006
13100TIP3    H239258   1.788   5.732   6.140
13101TIP3   OH239259   2.159   6.647   5.646
13101TIP3    H139260   2.163   6.672   5.554
13101TIP3    H239261   2.178   6.727   5.694
13102TIP3   OH239262   6.410   5.679   3.226
13102TIP3    H139263   6.460   5.683   3.307
13102TIP3    H239264   6.475   5.663   3.158
13103TIP3   OH239265   4.093   1.884   4.679
13103TIP3    H139266   4.028   1.882   4.609
13103TIP3    H239267   4.149   1.808   4.662
13104TIP3   OH239268   3.354   2.503   5.976
13104TIP3    H139269   3.332   2.549   6.057
13104TIP3    H239270   3.322   2.413   5.991
13105TIP3   OH239271   0.083   7.324   3.706
13105TIP3    H139272   0.148   7.383   3.667
13105TIP3    H239273   0.126   7.239   3.708
13106TIP3   OH239274   3.377   1.014   3.798
13106TIP3    H139275   3.446   0.948   3.799
13106TIP3    H239276   3.394   1.068   3.875
13107TIP3   OH239277   2.480   1.796   0.428
13107TIP3    H139278   2.389   1.796   0.397
13107TIP3    H239279   2.510   1.706   0.413
13108TIP3   OH239280   1.280   1.063   1.236
13108TIP3    H139281   1.300   1.040   1.145
13108TIP3    H239282   1.229   0.989   1.268
13109TIP3   OH239283   8.251   4.485   0.789
13109TIP3    H139284   8.222   4.574   0.810
13109TIP3    H239285   8.184   4.452   0.729
13110TIP3   OH239286   4.490   4.336   3.737
13110TIP3    H139287   4.542   4.330   3.818
13110TIP3    H239288   4.508   4.424   3.703
13111TIP3   OH239289   5.584   7.772   6.007
13111TIP3    H139290   5.612   7.847   6.057
13111TIP3    H239291   5.659   7.750   5.952
13112TIP3   OH239292   1.966   4.988   0.102
13112TIP3    H139293   1.893   4.956   0.050
13112TIP3    H239294   1.928   5.010   0.187
13113TIP3   OH239295   6.722   0.676   0.092
13113TIP3    H139296   6.810   0.665   0.126
13113TIP3    H239297   6.731   0.662  -0.003
13114TIP3   OH239298   5.610   0.207   2.440
13114TIP3    H139299   5.596   0.179   2.350
13114TIP3    H239300   5.597   0.302   2.439
13115TIP3   OH239301   7.725   7.353   0.009
13115TIP3    H139302   7.727   7.425  -0.053
13115TIP3    H239303   7.768   7.387   0.087
13116TIP3   OH239304   6.591   5.238   0.214
13116TIP3    H139305   6.635   5.310   0.168
13116TIP3    H239306   6.498   5.259   0.209
13117TIP3   OH239307   5.568   1.837   1.715
13117TIP3    H139308   5.562   1.743   1.696
13117TIP3    H239309   5.661   1.854   1.723
13118TIP3   OH239310   3.003   6.276   3.254
13118TIP3    H139311   2.964   6.298   3.170
13118TIP3    H239312   2.949   6.205   3.288
13119TIP3   OH239313   2.097   2.812   1.402
13119TIP3    H139314   2.089   2.859   1.485
13119TIP3    H239315   2.175   2.757   1.412
13120TIP3   OH239316   4.297   3.687   1.119
13120TIP3    H139317   4.385   3.714   1.092
13120TIP3    H239318   4.241   3.708   1.044
13121TIP3   OH239319   5.555   2.036   2.342
13121TIP3    H139320   5.511   2.117   2.319
13121TIP3    H239321   5.639   2.041   2.298
13122TIP3   OH239322   1.037   1.877   3.528
13122TIP3    H139323   0.958   1.911   3.570
13122TIP3    H239324   1.082   1.955   3.494
13123TIP3   OH239325   5.457   7.226   0.185
13123TIP3    H139326   5.492   7.142   0.155
13123TIP3    H239327   5.534   7.273   0.219
13124TIP3   OH239328   4.826   0.612   3.940
13124TIP3    H139329   4.900   0.552   3.928
13124TIP3    H239330   4.836   0.645   4.029
13125TIP3   OH239331   5.331   3.718   3.855
13125TIP3    H139332   5.348   3.630   3.821
13125TIP3    H239333   5.273   3.704   3.930
13126TIP3   OH239334   1.670   5.897   2.812
13126TIP3    H139335   1.695   5.976   2.765
13126TIP3    H239336   1.676   5.828   2.746
13127TIP3   OH239337   6.868   4.559   3.698
13127TIP3    H139338   6.918   4.532   3.775
13127TIP3    H239339   6.902   4.646   3.676
13128TIP3   OH239340   0.643   4.349   2.984
13128TIP3    H139341   0.731   4.322   2.960
13128TIP3    H239342   0.652   4.440   3.011
13129TIP3   OH239343   0.403   0.615   2.183
13129TIP3    H139344   0.366   0.534   2.149
13129TIP3    H239345   0.380   0.615   2.276
13130TIP3   OH239346   1.819   5.096   0.277
13130TIP3    H139347   1.803   5.176   0.228
13130TIP3    H239348   1.743   5.040   0.257
13131TIP3   OH239349   1.866   3.773   6.035
13131TIP3    H139350   1.840   3.848   5.981
13131TIP3    H239351   1.915   3.811   6.108
13132TIP3   OH239352   3.320   6.422   3.629
13132TIP3    H139353   3.257   6.365   3.674
13132TIP3    H239354   3.291   6.420   3.537
13133TIP3   OH239355   7.317   1.333   1.310
13133TIP3    H139356   7.351   1.267   1.370
13133TIP3    H239357   7.226   1.307   1.295
13134TIP3   OH239358   7.596   7.145   6.441
13134TIP3    H139359   7.655   7.091   6.492
13134TIP3    H239360   7.555   7.084   6.379
13135TIP3   OH239361   4.682   3.387   4.545
13135TIP3    H139362   4.666   3.477   4.575
13135TIP3    H239363   4.738   3.397   4.469
13136TIP3   OH239364   0.183   6.908   2.145
13136TIP3    H139365   0.250   6.859   2.191
13136TIP3    H239366   0.230   6.980   2.104
13137TIP3   OH239367   7.535   5.396   0.083
13137TIP3    H139368   7.557   5.423   0.172
13137TIP3    H239369   7.451   5.439   0.065
13138TIP3   OH239370   6.092   1.005   1.826
13138TIP3    H139371   6.026   1.052   1.774
13138TIP3    H239372   6.176   1.038   1.794
13139TIP3   OH239373   0.653   0.267   2.512
13139TIP3    H139374   0.665   0.351   2.556
13139TIP3    H239375   0.578   0.227   2.556
13140TIP3   OH239376   8.209   2.691   2.572
13140TIP3    H139377   8.226   2.732   2.488
13140TIP3    H239378   8.169   2.760   2.625
13141TIP3   OH239379   3.899   7.017   6.377
13141TIP3    H139380   3.888   7.098   6.327
13141TIP3    H239381   3.973   7.035   6.435
13142TIP3   OH239382   5.302   5.441   0.615
13142TIP3    H139383   5.323   5.375   0.680
13142TIP3    H239384   5.386   5.485   0.598
13143TIP3   OH239385   3.492   3.133   0.141
13143TIP3    H139386   3.404   3.096   0.135
13143TIP3    H239387   3.497   3.169   0.230
13144TIP3   OH239388   5.538   3.488   1.724
13144TIP3    H139389   5.443   3.473   1.731
13144TIP3    H239390   5.552   3.573   1.765
13145TIP3   OH239391   5.208   1.194   3.177
13145TIP3    H139392   5.236   1.112   3.219
13145TIP3    H239393   5.290   1.233   3.145
13146TIP3   OH239394   3.166   1.581   4.293
13146TIP3    H139395   3.186   1.541   4.377
13146TIP3    H239396   3.197   1.517   4.228
13147TIP3   OH239397   7.411   4.169   0.631
13147TIP3    H139398   7.476   4.113   0.587
13147TIP3    H239399   7.457   4.252   0.644
13148TIP3   OH239400   7.889   6.658   2.482
13148TIP3    H139401   7.958   6.653   2.549
13148TIP3    H239402   7.815   6.700   2.527
13149TIP3   OH239403   6.237   6.581   4.445
13149TIP3    H139404   6.173   6.640   4.405
13149TIP3    H239405   6.209   6.493   4.419
13150TIP3   OH239406   5.529   7.691   3.670
13150TIP3    H139407   5.520   7.667   3.578
13150TIP3    H239408   5.476   7.771   3.679
13151TIP3   OH239409   2.356   1.016   5.005
13151TIP3    H139410   2.361   0.950   5.074
13151TIP3    H239411   2.438   1.065   5.013
13152TIP3   OH239412   4.084   7.146   4.497
13152TIP3    H139413   4.090   7.053   4.474
13152TIP3    H239414   4.044   7.146   4.584
13153TIP3   OH239415   4.442   0.185   3.170
13153TIP3    H139416   4.487   0.128   3.232
13153TIP3    H239417   4.370   0.132   3.136
13154TIP3   OH239418   7.492   4.186   1.754
13154TIP3    H139419   7.584   4.169   1.775
13154TIP3    H239420   7.494   4.263   1.698
13155TIP3   OH239421   1.942   3.144   6.060
13155TIP3    H139422   1.950   3.090   5.981
13155TIP3    H239423   1.868   3.202   6.041
13156TIP3   OH239424   1.902   4.565   4.007
13156TIP3    H139425   1.857   4.533   3.929
13156TIP3    H239426   1.944   4.646   3.979
13157TIP3   OH239427   0.165   4.472   1.154
13157TIP3    H139428   0.201   4.430   1.076
13157TIP3    H239429   0.202   4.424   1.227
13158TIP3   OH239430   2.529   6.980   6.011
13158TIP3    H139431   2.462   6.995   5.945
13158TIP3    H239432   2.612   6.997   5.966
13159TIP3   OH239433   0.873   6.323   3.928
13159TIP3    H139434   0.961   6.361   3.922
13159TIP3    H239435   0.870   6.283   4.014
13160TIP3   OH239436   2.222   2.456   5.764
13160TIP3    H139437   2.287   2.496   5.822
13160TIP3    H239438   2.271   2.435   5.685
13161TIP3   OH239439   7.176   2.144   3.225
13161TIP3    H139440   7.128   2.216   3.265
13161TIP3    H239441   7.196   2.084   3.297
13162TIP3   OH239442   6.509   5.473   0.520
13162TIP3    H139443   6.489   5.536   0.588
13162TIP3    H239444   6.476   5.389   0.554
13163TIP3   OH239445   8.190   6.825   0.459
13163TIP3    H139446   8.195   6.920   0.473
13163TIP3    H239447   8.245   6.809   0.382
13164TIP3   OH239448   1.978   4.791   1.545
13164TIP3    H139449   1.907   4.770   1.606
13164TIP3    H239450   1.945   4.765   1.460
13165TIP3   OH239451   3.168   2.031   4.032
13165TIP3    H139452   3.202   1.990   4.111
13165TIP3    H239453   3.082   1.992   4.019
13166TIP3   OH239454   4.407   5.247   5.587
13166TIP3    H139455   4.336   5.184   5.580
13166TIP3    H239456   4.376   5.311   5.651
13167TIP3   OH239457   2.124   5.780   1.150
13167TIP3    H139458   2.081   5.851   1.103
13167TIP3    H239459   2.182   5.824   1.212
13168TIP3   OH239460   1.123   6.250   0.068
13168TIP3    H139461   1.105   6.261   0.161
13168TIP3    H239462   1.179   6.172   0.063
13169TIP3   OH239463   7.846   3.579   5.951
13169TIP3    H139464   7.830   3.496   5.905
13169TIP3    H239465   7.895   3.632   5.889
13170TIP3   OH239466   7.953   3.221   6.487
13170TIP3    H139467   7.994   3.307   6.492
13170TIP3    H239468   7.997   3.177   6.414
13171TIP3   OH239469   0.402   7.584   1.842
13171TIP3    H139470   0.421   7.502   1.889
13171TIP3    H239471   0.488   7.617   1.815
13172TIP3   OH239472   3.446   4.013   0.715
13172TIP3    H139473   3.353   4.028   0.729
13172TIP3    H239474   3.474   3.960   0.789
13173TIP3   OH239475   6.009   2.117   2.717
13173TIP3    H139476   6.093   2.159   2.736
13173TIP3    H239477   5.943   2.184   2.737
13174TIP3   OH239478   0.950   1.387   5.529
13174TIP3    H139479   1.018   1.370   5.594
13174TIP3    H239480   0.909   1.469   5.557
13175TIP3   OH239481   1.948   4.867   1.980
13175TIP3    H139482   1.882   4.878   1.912
13175TIP3    H239483   1.937   4.944   2.037
13176TIP3   OH239484   6.970   0.262   1.032
13176TIP3    H139485   6.907   0.248   0.961
13176TIP3    H239486   6.986   0.357   1.032
13177TIP3   OH239487   1.552   2.793   0.613
13177TIP3    H139488   1.492   2.786   0.539
13177TIP3    H239489   1.577   2.703   0.633
13178TIP3   OH239490   1.237   0.604   6.481
13178TIP3    H139491   1.265   0.588   6.571
13178TIP3    H239492   1.197   0.522   6.453
13179TIP3   OH239493   3.255   5.470   3.439
13179TIP3    H139494   3.227   5.379   3.430
13179TIP3    H239495   3.256   5.504   3.350
13180TIP3   OH239496   1.962   4.235   6.032
13180TIP3    H139497   1.925   4.316   5.996
13180TIP3    H239498   1.990   4.185   5.955
13181TIP3   OH239499   2.011   2.916   1.169
13181TIP3    H139500   2.051   2.869   1.243
13181TIP3    H239501   1.918   2.897   1.176
13182TIP3   OH239502   1.019   5.698   3.960
13182TIP3    H139503   1.015   5.625   4.021
13182TIP3    H239504   0.966   5.670   3.885
13183TIP3   OH239505   7.404   2.171   4.143
13183TIP3    H139506   7.408   2.081   4.177
13183TIP3    H239507   7.492   2.187   4.108
13184TIP3   OH239508   2.351   2.165   1.996
13184TIP3    H139509   2.367   2.166   2.090
13184TIP3    H239510   2.404   2.093   1.963
13185TIP3   OH239511   2.979   5.824   5.730
13185TIP3    H139512   3.058   5.833   5.784
13185TIP3    H239513   2.944   5.912   5.724
13186TIP3   OH239514   5.708   5.617   3.529
13186TIP3    H139515   5.631   5.560   3.531
13186TIP3    H239516   5.782   5.558   3.543
13187TIP3   OH239517   1.859   0.457   5.420
13187TIP3    H139518   1.908   0.512   5.480
13187TIP3    H239519   1.882   0.367   5.446
13188TIP3   OH239520  -0.006   1.129   5.928
13188TIP3    H139521   0.047   1.114   5.850
13188TIP3    H239522  -0.019   1.042   5.966
13189TIP3   OH239523   7.805   2.619   6.051
13189TIP3    H139524   7.814   2.585   5.962
13189TIP3    H239525   7.717   2.656   6.053
13190TIP3   OH239526   4.367   1.664   0.250
13190TIP3    H139527   4.429   1.598   0.218
13190TIP3    H239528   4.419   1.717   0.311
13191TIP3   OH239529   0.998   3.081   1.526
13191TIP3    H139530   0.937   3.151   1.546
13191TIP3    H239531   1.081   3.111   1.564
13192TIP3   OH239532   7.542   6.468   2.550
13192TIP3    H139533   7.494   6.432   2.625
13192TIP3    H239534   7.520   6.561   2.550
13193TIP3   OH239535   4.382   5.399   2.276
13193TIP3    H139536   4.321   5.458   2.232
13193TIP3    H239537   4.326   5.328   2.310
13194TIP3   OH239538   2.069   0.835   6.684
13194TIP3    H139539   2.058   0.759   6.627
13194TIP3    H239540   2.037   0.806   6.769
13195TIP3   OH239541   6.089   1.867   1.790
13195TIP3    H139542   6.140   1.944   1.814
13195TIP3    H239543   6.100   1.859   1.695
13196TIP3   OH239544   2.670   3.019   5.763
13196TIP3    H139545   2.675   3.061   5.677
13196TIP3    H239546   2.744   2.958   5.764
13197TIP3   OH239547   1.336   5.646   2.954
13197TIP3    H139548   1.275   5.686   3.015
13197TIP3    H239549   1.385   5.719   2.917
13198TIP3   OH239550   5.146   1.945   4.918
13198TIP3    H139551   5.204   2.001   4.969
13198TIP3    H239552   5.194   1.927   4.837
13199TIP3   OH239553   8.220   2.921   2.014
13199TIP3    H139554   8.288   2.890   1.954
13199TIP3    H239555   8.177   2.992   1.966
13200TIP3   OH239556   0.160   5.887   0.687
13200TIP3    H139557   0.098   5.960   0.682
13200TIP3    H239558   0.107   5.813   0.716
13201TIP3   OH239559   2.944   4.246   4.585
13201TIP3    H139560   3.037   4.233   4.598
13201TIP3    H239561   2.904   4.223   4.669
13202TIP3   OH239562   4.506   2.760   6.703
13202TIP3    H139563   4.595   2.770   6.739
13202TIP3    H239564   4.462   2.702   6.765
13203TIP3   OH239565   1.565   6.567   5.956
13203TIP3    H139566   1.544   6.634   6.021
13203TIP3    H239567   1.640   6.521   5.993
13204TIP3   OH239568   1.585   1.140   1.629
13204TIP3    H139569   1.506   1.175   1.589
13204TIP3    H239570   1.650   1.210   1.619
13205TIP3   OH239571   1.059   1.527   2.921
13205TIP3    H139572   1.102   1.442   2.912
13205TIP3    H239573   1.009   1.521   3.002
13206TIP3   OH239574   7.799   3.647   3.571
13206TIP3    H139575   7.756   3.572   3.532
13206TIP3    H239576   7.737   3.719   3.561
13207TIP3   OH239577   1.141   1.538   1.329
13207TIP3    H139578   1.235   1.544   1.308
13207TIP3    H239579   1.117   1.448   1.305
13208TIP3   OH239580   0.514   4.162   5.364
13208TIP3    H139581   0.563   4.204   5.435
13208TIP3    H239582   0.426   4.150   5.401
13209TIP3   OH239583   2.381   4.673   3.706
13209TIP3    H139584   2.323   4.724   3.650
13209TIP3    H239585   2.406   4.734   3.775
13210TIP3   OH239586   3.241   2.001   1.973
13210TIP3    H139587   3.287   2.060   1.912
13210TIP3    H239588   3.150   2.003   1.944
13211TIP3   OH239589   2.630   3.377   0.101
13211TIP3    H139590   2.535   3.383   0.088
13211TIP3    H239591   2.642   3.390   0.195
13212TIP3   OH239592   0.149   7.681   1.121
13212TIP3    H139593   0.066   7.634   1.124
13212TIP3    H239594   0.210   7.620   1.080
13213TIP3   OH239595   7.940   4.289   4.386
13213TIP3    H139596   7.926   4.211   4.439
13213TIP3    H239597   8.031   4.283   4.358
13214TIP3   OH239598   6.400   3.137   2.781
13214TIP3    H139599   6.327   3.090   2.740
13214TIP3    H239600   6.450   3.173   2.708
13215TIP3   OH239601   0.949   6.596   5.264
13215TIP3    H139602   0.983   6.623   5.349
13215TIP3    H239603   1.014   6.533   5.231
13216TIP3   OH239604   7.086   0.699   3.227
13216TIP3    H139605   7.178   0.698   3.202
13216TIP3    H239606   7.087   0.688   3.323
13217TIP3   OH239607   3.603   4.854   4.216
13217TIP3    H139608   3.586   4.873   4.124
13217TIP3    H239609   3.644   4.933   4.250
13218TIP3   OH239610   6.274   0.616   4.342
13218TIP3    H139611   6.289   0.688   4.281
13218TIP3    H239612   6.180   0.619   4.360
13219TIP3   OH239613   3.623   6.292   1.904
13219TIP3    H139614   3.542   6.243   1.917
13219TIP3    H239615   3.680   6.232   1.856
13220TIP3   OH239616   0.888   5.888   0.984
13220TIP3    H139617   0.878   5.972   1.028
13220TIP3    H239618   0.802   5.870   0.946
13221TIP3   OH239619   5.740   7.512   2.232
13221TIP3    H139620   5.652   7.543   2.255
13221TIP3    H239621   5.775   7.579   2.174
13222TIP3   OH239622   6.841   1.212   0.574
13222TIP3    H139623   6.851   1.264   0.494
13222TIP3    H239624   6.750   1.224   0.599
13223TIP3   OH239625   5.373   6.741   5.024
13223TIP3    H139626   5.353   6.653   4.990
13223TIP3    H239627   5.357   6.799   4.950
13224TIP3   OH239628   1.936   1.388   1.222
13224TIP3    H139629   1.847   1.422   1.224
13224TIP3    H239630   1.985   1.453   1.171
13225TIP3   OH239631   0.071   2.596   3.339
13225TIP3    H139632   0.050   2.686   3.364
13225TIP3    H239633   0.060   2.546   3.420
13226TIP3   OH239634   0.235   4.624   6.554
13226TIP3    H139635   0.303   4.592   6.613
13226TIP3    H239636   0.217   4.549   6.497
13227TIP3   OH239637   4.590   0.757   6.492
13227TIP3    H139638   4.534   0.714   6.428
13227TIP3    H239639   4.679   0.731   6.469
13228TIP3   OH239640   6.726   3.502   3.209
13228TIP3    H139641   6.715   3.447   3.131
13228TIP3    H239642   6.821   3.501   3.225
13229TIP3   OH239643   3.054   5.474   6.622
13229TIP3    H139644   3.015   5.446   6.704
13229TIP3    H239645   3.069   5.568   6.633
13230TIP3   OH239646   1.099   6.671   3.960
13230TIP3    H139647   1.133   6.663   3.871
13230TIP3    H239648   1.114   6.762   3.984
13231TIP3   OH239649   7.502   4.897   3.348
13231TIP3    H139650   7.574   4.960   3.339
13231TIP3    H239651   7.489   4.890   3.443
13232TIP3   OH239652   0.281   4.432   4.028
13232TIP3    H139653   0.321   4.437   4.115
13232TIP3    H239654   0.324   4.357   3.986
13233TIP3   OH239655   7.375   7.293   1.335
13233TIP3    H139656   7.407   7.256   1.417
13233TIP3    H239657   7.427   7.373   1.322
13234TIP3   OH239658   6.775   5.216   5.326
13234TIP3    H139659   6.764   5.124   5.304
13234TIP3    H239660   6.857   5.220   5.375
13235TIP3   OH239661   5.426   2.041   5.774
13235TIP3    H139662   5.449   2.132   5.791
13235TIP3    H239663   5.416   2.035   5.679
13236TIP3   OH239664   1.324   5.645   5.875
13236TIP3    H139665   1.272   5.725   5.870
13236TIP3    H239666   1.406   5.667   5.831
13237TIP3   OH239667   7.994   2.258   2.214
13237TIP3    H139668   8.022   2.171   2.240
13237TIP3    H239669   7.958   2.298   2.293
13238TIP3   OH239670   4.751   2.152   3.999
13238TIP3    H139671   4.834   2.105   3.994
13238TIP3    H239672   4.775   2.240   4.029
13239TIP3   OH239673   0.607   2.406   5.955
13239TIP3    H139674   0.525   2.389   6.002
13239TIP3    H239675   0.594   2.366   5.869
13240TIP3   OH239676   8.042   0.868   4.789
13240TIP3    H139677   7.981   0.941   4.797
13240TIP3    H239678   7.990   0.796   4.753
13241TIP3   OH239679   6.947   6.165   5.906
13241TIP3    H139680   6.901   6.099   5.958
13241TIP3    H239681   7.005   6.115   5.849
13242TIP3   OH239682   5.048   5.022   4.707
13242TIP3    H139683   5.067   5.103   4.658
13242TIP3    H239684   5.042   5.050   4.798
13243TIP3   OH239685   4.036   5.621   5.036
13243TIP3    H139686   4.078   5.647   4.954
13243TIP3    H239687   3.968   5.688   5.050
13244TIP3   OH239688   2.659   3.057   6.055
13244TIP3    H139689   2.591   3.097   6.110
13244TIP3    H239690   2.619   3.051   5.968
13245TIP3   OH239691   7.367   2.457   4.104
13245TIP3    H139692   7.374   2.363   4.120
13245TIP3    H239693   7.445   2.495   4.143
13246TIP3   OH239694   3.768   6.551   3.369
13246TIP3    H139695   3.743   6.495   3.442
13246TIP3    H239696   3.743   6.639   3.397
13247TIP3   OH239697   7.701   0.183   1.943
13247TIP3    H139698   7.758   0.156   1.871
13247TIP3    H239699   7.730   0.272   1.964
13248TIP3   OH239700   7.495   6.898   0.137
13248TIP3    H139701   7.527   6.850   0.060
13248TIP3    H239702   7.504   6.990   0.113
13249TIP3   OH239703   3.879   4.777   6.068
13249TIP3    H139704   3.798   4.827   6.080
13249TIP3    H239705   3.927   4.790   6.150
13250TIP3   OH239706   1.477   2.548   6.059
13250TIP3    H139707   1.411   2.615   6.040
13250TIP3    H239708   1.469   2.532   6.153
13251TIP3   OH239709   5.965   3.528   4.787
13251TIP3    H139710   5.898   3.479   4.740
13251TIP3    H239711   6.001   3.588   4.722
13252TIP3   OH239712   8.174   2.406   2.539
13252TIP3    H139713   8.146   2.493   2.510
13252TIP3    H239714   8.098   2.350   2.522
13253TIP3   OH239715   5.658   7.432   4.295
13253TIP3    H139716   5.642   7.509   4.350
13253TIP3    H239717   5.696   7.468   4.215
13254TIP3   OH239718   6.529   3.299   2.516
13254TIP3    H139719   6.470   3.372   2.499
13254TIP3    H239720   6.553   3.266   2.429
13255TIP3   OH239721   7.616   1.498   2.661
13255TIP3    H139722   7.565   1.442   2.603
13255TIP3    H239723   7.706   1.466   2.652
13256TIP3   OH239724   5.611   0.655   3.572
13256TIP3    H139725   5.568   0.719   3.628
13256TIP3    H239726   5.576   0.671   3.484
13257TIP3   OH239727   0.711   7.687   4.476
13257TIP3    H139728   0.801   7.690   4.507
13257TIP3    H239729   0.658   7.713   4.551
13258TIP3   OH239730   2.627   6.194   4.288
13258TIP3    H139731   2.674   6.276   4.305
13258TIP3    H239732   2.562   6.189   4.358
13259TIP3   OH239733   4.289   4.964   4.822
13259TIP3    H139734   4.198   4.935   4.829
13259TIP3    H239735   4.333   4.892   4.776
13260TIP3   OH239736   2.834   1.995   6.716
13260TIP3    H139737   2.751   1.966   6.754
13260TIP3    H239738   2.808   2.053   6.644
13261TIP3   OH239739   7.316   1.253   3.515
13261TIP3    H139740   7.345   1.338   3.482
13261TIP3    H239741   7.338   1.255   3.608
13262TIP3   OH239742   1.148   4.797   4.144
13262TIP3    H139743   1.115   4.881   4.174
13262TIP3    H239744   1.187   4.758   4.221
13263TIP3   OH239745   6.293   1.995   2.139
13263TIP3    H139746   6.362   2.028   2.196
13263TIP3    H239747   6.242   1.936   2.194
13264TIP3   OH239748   2.167   2.952   0.935
13264TIP3    H139749   2.121   2.951   1.019
13264TIP3    H239750   2.255   2.983   0.956
13265TIP3   OH239751   8.101   4.497   1.391
13265TIP3    H139752   8.111   4.511   1.297
13265TIP3    H239753   8.145   4.414   1.407
13266TIP3   OH239754   4.664   5.398   3.042
13266TIP3    H139755   4.739   5.340   3.033
13266TIP3    H239756   4.696   5.470   3.096
13267TIP3   OH239757   1.356   5.726   0.079
13267TIP3    H139758   1.321   5.692  -0.003
13267TIP3    H239759   1.289   5.787   0.111
13268TIP3   OH239760   0.265   0.064   0.125
13268TIP3    H139761   0.182   0.097   0.159
13268TIP3    H239762   0.261   0.082   0.031
13269TIP3   OH239763   1.389   7.114   3.226
13269TIP3    H139764   1.423   7.026   3.209
13269TIP3    H239765   1.325   7.102   3.297
13270TIP3   OH239766   6.463   0.878   6.169
13270TIP3    H139767   6.414   0.947   6.125
13270TIP3    H239768   6.555   0.897   6.148
13271TIP3   OH239769   4.190   3.552   4.092
13271TIP3    H139770   4.108   3.601   4.103
13271TIP3    H239771   4.237   3.566   4.174
13272TIP3   OH239772   7.147   2.309   2.506
13272TIP3    H139773   7.155   2.387   2.561
13272TIP3    H239774   7.111   2.242   2.565
13273TIP3   OH239775   7.353   5.291   1.965
13273TIP3    H139776   7.264   5.267   1.991
13273TIP3    H239777   7.380   5.222   1.903
13274TIP3   OH239778   4.322   1.434   2.337
13274TIP3    H139779   4.301   1.501   2.272
13274TIP3    H239780   4.255   1.442   2.404
13275TIP3   OH239781   3.573   7.010   4.376
13275TIP3    H139782   3.603   7.064   4.450
13275TIP3    H239783   3.484   7.040   4.359
13276TIP3   OH239784   0.750   0.999   4.580
13276TIP3    H139785   0.754   0.921   4.635
13276TIP3    H239786   0.660   1.031   4.590
13277TIP3   OH239787   6.978   4.139   1.675
13277TIP3    H139788   6.894   4.146   1.720
13277TIP3    H239789   7.041   4.180   1.734
13278TIP3   OH239790   6.185   0.144   5.462
13278TIP3    H139791   6.251   0.111   5.522
13278TIP3    H239792   6.117   0.076   5.462
13279TIP3   OH239793   1.061   4.379   1.986
13279TIP3    H139794   1.095   4.289   1.984
13279TIP3    H239795   1.091   4.417   1.903
13280TIP3   OH239796   0.945   4.668   1.059
13280TIP3    H139797   0.918   4.693   0.971
13280TIP3    H239798   0.896   4.726   1.116
13281TIP3   OH239799   6.320   2.951   5.275
13281TIP3    H139800   6.351   3.041   5.285
13281TIP3    H239801   6.246   2.945   5.335
13282TIP3   OH239802   2.461   3.278   2.682
13282TIP3    H139803   2.473   3.210   2.749
13282TIP3    H239804   2.444   3.230   2.601
13283TIP3   OH239805   5.538   2.284   5.768
13283TIP3    H139806   5.479   2.303   5.695
13283TIP3    H239807   5.558   2.370   5.806
13284TIP3   OH239808   1.643   3.762   3.410
13284TIP3    H139809   1.710   3.760   3.479
13284TIP3    H239810   1.591   3.840   3.429
13285TIP3   OH239811   8.205   7.686   3.793
13285TIP3    H139812   8.256   7.609   3.773
13285TIP3    H239813   8.120   7.671   3.750
13286TIP3   OH239814   3.008   3.590   6.346
13286TIP3    H139815   2.965   3.645   6.281
13286TIP3    H239816   2.936   3.552   6.397
13287TIP3   OH239817   3.485   4.150   3.771
13287TIP3    H139818   3.400   4.105   3.764
13287TIP3    H239819   3.499   4.159   3.865
13288TIP3   OH239820   5.674   7.322   4.036
13288TIP3    H139821   5.732   7.394   4.061
13288TIP3    H239822   5.699   7.249   4.093
13289TIP3   OH239823   4.780   5.379   2.385
13289TIP3    H139824   4.696   5.340   2.413
13289TIP3    H239825   4.788   5.458   2.438
13290TIP3   OH239826   4.175   3.992   6.132
13290TIP3    H139827   4.110   3.996   6.061
13290TIP3    H239828   4.252   4.036   6.096
13291TIP3   OH239829   7.243   2.086   4.485
13291TIP3    H139830   7.231   1.995   4.511
13291TIP3    H239831   7.190   2.096   4.406
13292TIP3   OH239832   5.915   2.413   2.053
13292TIP3    H139833   5.967   2.333   2.061
13292TIP3    H239834   5.965   2.479   2.101
13293TIP3   OH239835   7.788   5.535   0.998
13293TIP3    H139836   7.701   5.575   0.992
13293TIP3    H239837   7.840   5.600   1.045
13294TIP3   OH239838   6.197   3.174   5.097
13294TIP3    H139839   6.201   3.200   5.189
13294TIP3    H239840   6.130   3.232   5.059
13295TIP3   OH239841   5.277   4.155   2.737
13295TIP3    H139842   5.302   4.082   2.680
13295TIP3    H239843   5.352   4.214   2.734
13296TIP3   OH239844   4.124   2.722   3.466
13296TIP3    H139845   4.105   2.812   3.495
13296TIP3    H239846   4.127   2.728   3.370
13297TIP3   OH239847   6.664   3.029   5.217
13297TIP3    H139848   6.599   3.001   5.152
13297TIP3    H239849   6.676   2.953   5.274
13298TIP3   OH239850   3.142   5.417   5.337
13298TIP3    H139851   3.211   5.359   5.306
13298TIP3    H239852   3.132   5.482   5.268
13299TIP3   OH239853   2.513   5.548   5.680
13299TIP3    H139854   2.581   5.580   5.739
13299TIP3    H239855   2.508   5.454   5.699
13300TIP3   OH239856   7.541   6.966   3.798
13300TIP3    H139857   7.566   7.019   3.722
13300TIP3    H239858   7.570   6.877   3.777
13301TIP3   OH239859   4.934   0.979   2.683
13301TIP3    H139860   4.938   1.072   2.706
13301TIP3    H239861   4.842   0.955   2.697
13302TIP3   OH239862   4.978   7.790   4.583
13302TIP3    H139863   4.895   7.786   4.537
13302TIP3    H239864   5.033   7.725   4.540
13303TIP3   OH239865   1.447   6.686   6.171
13303TIP3    H139866   1.355   6.708   6.188
13303TIP3    H239867   1.486   6.678   6.258
13304TIP3   OH239868   7.687   7.735   4.090
13304TIP3    H139869   7.695   7.765   4.181
13304TIP3    H239870   7.753   7.784   4.042
13305TIP3   OH239871   7.965   0.717   6.079
13305TIP3    H139872   7.936   0.677   5.996
13305TIP3    H239873   7.985   0.808   6.056
13306TIP3   OH239874   4.034   3.165   3.599
13306TIP3    H139875   3.988   3.191   3.519
13306TIP3    H239876   4.105   3.229   3.607
13307TIP3   OH239877   7.909   3.267   0.173
13307TIP3    H139878   7.833   3.231   0.128
13307TIP3    H239879   7.878   3.288   0.261
13308TIP3   OH239880   7.580   5.355   6.626
13308TIP3    H139881   7.629   5.290   6.676
13308TIP3    H239882   7.554   5.421   6.690
13309TIP3   OH239883   3.410   0.257   4.468
13309TIP3    H139884   3.344   0.302   4.415
13309TIP3    H239885   3.487   0.251   4.411
13310TIP3   OH239886   7.405   2.912   3.943
13310TIP3    H139887   7.338   2.934   3.878
13310TIP3    H239888   7.431   2.822   3.920
13311TIP3   OH239889   4.969   1.264   2.692
13311TIP3    H139890   5.035   1.315   2.738
13311TIP3    H239891   4.887   1.282   2.739
13312TIP3   OH239892   7.061   6.452   4.445
13312TIP3    H139893   7.033   6.411   4.526
13312TIP3    H239894   7.156   6.446   4.445
13313TIP3   OH239895   5.396   4.285   0.314
13313TIP3    H139896   5.435   4.224   0.375
13313TIP3    H239897   5.366   4.231   0.241
13314TIP3   OH239898   3.811   0.936   4.246
13314TIP3    H139899   3.898   0.896   4.237
13314TIP3    H239900   3.775   0.934   4.157
13315TIP3   OH239901   0.547   3.355   4.242
13315TIP3    H139902   0.516   3.396   4.323
13315TIP3    H239903   0.642   3.366   4.244
13316TIP3   OH239904   1.611   3.734   5.556
13316TIP3    H139905   1.595   3.800   5.623
13316TIP3    H239906   1.533   3.737   5.501
13317TIP3   OH239907   1.090   3.946   5.324
13317TIP3    H139908   1.165   3.891   5.346
13317TIP3    H239909   1.124   4.036   5.327
13318TIP3   OH239910   4.324   6.334   6.472
13318TIP3    H139911   4.241   6.368   6.440
13318TIP3    H239912   4.359   6.283   6.398
13319TIP3   OH239913   0.055   2.685   6.476
13319TIP3    H139914   0.126   2.644   6.428
13319TIP3    H239915   0.092   2.768   6.507
13320TIP3   OH239916   6.415   6.535   0.489
13320TIP3    H139917   6.488   6.579   0.446
13320TIP3    H239918   6.388   6.467   0.428
13321TIP3   OH239919   3.799   6.637   0.073
13321TIP3    H139920   3.876   6.677   0.113
13321TIP3    H239921   3.754   6.709   0.029
13322TIP3   OH239922   6.125   2.752   5.087
13322TIP3    H139923   6.148   2.831   5.038
13322TIP3    H239924   6.167   2.681   5.038
13323TIP3   OH239925   5.128   7.254   0.760
13323TIP3    H139926   5.191   7.302   0.706
13323TIP3    H239927   5.042   7.288   0.733
13324TIP3   OH239928   0.810   4.838   0.892
13324TIP3    H139929   0.753   4.841   0.969
13324TIP3    H239930   0.795   4.922   0.848
13325TIP3   OH239931   7.262   3.844   5.017
13325TIP3    H139932   7.252   3.837   4.922
13325TIP3    H239933   7.310   3.925   5.031
13326TIP3   OH239934   4.470   2.201   1.003
13326TIP3    H139935   4.554   2.234   1.035
13326TIP3    H239936   4.407   2.229   1.069
13327TIP3   OH239937   2.455   5.333   5.199
13327TIP3    H139938   2.494   5.396   5.137
13327TIP3    H239939   2.439   5.255   5.146
13328TIP3   OH239940   2.634   5.929   3.148
13328TIP3    H139941   2.718   5.882   3.150
13328TIP3    H239942   2.603   5.919   3.059
13329TIP3   OH239943   1.431   0.752   3.016
13329TIP3    H139944   1.352   0.789   3.054
13329TIP3    H239945   1.425   0.774   2.922
13330TIP3   OH239946   7.398   7.778   4.681
13330TIP3    H139947   7.388   7.833   4.759
13330TIP3    H239948   7.321   7.720   4.683
13331TIP3   OH239949   4.021   5.080   2.954
13331TIP3    H139950   4.004   4.992   2.920
13331TIP3    H239951   3.983   5.080   3.042
13332TIP3   OH239952   2.909   4.703   2.455
13332TIP3    H139953   2.995   4.687   2.416
13332TIP3    H239954   2.927   4.723   2.546
13333TIP3   OH239955   7.534   5.858   2.987
13333TIP3    H139956   7.570   5.839   2.901
13333TIP3    H239957   7.440   5.839   2.980
13334TIP3   OH239958   7.463   3.776   1.396
13334TIP3    H139959   7.370   3.764   1.412
13334TIP3    H239960   7.506   3.705   1.443
13335TIP3   OH239961   5.080   4.830   5.108
13335TIP3    H139962   5.081   4.872   5.022
13335TIP3    H239963   4.996   4.785   5.111
13336TIP3   OH239964   3.710   5.777   0.085
13336TIP3    H139965   3.748   5.798  -0.001
13336TIP3    H239966   3.780   5.793   0.147
13337TIP3   OH239967   5.662   4.767   1.019
13337TIP3    H139968   5.710   4.830   0.965
13337TIP3    H239969   5.602   4.821   1.070
13338TIP3   OH239970   6.368   6.590   0.158
13338TIP3    H139971   6.279   6.565   0.181
13338TIP3    H239972   6.403   6.513   0.112
13339TIP3   OH239973   6.730   5.887   0.500
13339TIP3    H139974   6.718   5.816   0.437
13339TIP3    H239975   6.641   5.918   0.518
13340TIP3   OH239976   0.738   5.696   4.196
13340TIP3    H139977   0.790   5.615   4.198
13340TIP3    H239978   0.652   5.667   4.166
13341TIP3   OH239979   5.910   5.436   3.549
13341TIP3    H139980   5.973   5.378   3.593
13341TIP3    H239981   5.922   5.417   3.456
13342TIP3   OH239982   2.864   6.156   2.080
13342TIP3    H139983   2.857   6.251   2.071
13342TIP3    H239984   2.912   6.127   2.003
13343TIP3   OH239985   6.432   6.826   3.725
13343TIP3    H139986   6.434   6.775   3.806
13343TIP3    H239987   6.520   6.819   3.690
13344TIP3   OH239988   6.552   4.858   5.913
13344TIP3    H139989   6.641   4.877   5.884
13344TIP3    H239990   6.553   4.874   6.007
13345TIP3   OH239991   2.210   1.196   6.071
13345TIP3    H139992   2.283   1.138   6.051
13345TIP3    H239993   2.251   1.281   6.088
13346TIP3   OH239994   7.426   4.930   4.849
13346TIP3    H139995   7.373   4.853   4.872
13346TIP3    H239996   7.362   5.001   4.840
13347TIP3   OH239997   3.339   1.540   3.514
13347TIP3    H139998   3.356   1.633   3.529
13347TIP3    H239999   3.412   1.510   3.460
13348TIP3   OH240000   1.702   7.804   5.356
13348TIP3    H140001   1.633   7.868   5.374
13348TIP3    H240002   1.657   7.727   5.323
13349TIP3   OH240003   2.354   1.350   3.767
13349TIP3    H140004   2.411   1.372   3.694
13349TIP3    H240005   2.275   1.403   3.753
13350TIP3   OH240006   7.939   0.118   1.785
13350TIP3    H140007   8.014   0.173   1.807
13350TIP3    H240008   7.966   0.030   1.809
13351TIP3   OH240009   0.227   1.580   2.361
13351TIP3    H140010   0.257   1.491   2.379
13351TIP3    H240011   0.260   1.632   2.434
13352TIP3   OH240012   6.606   0.484   2.962
13352TIP3    H140013   6.696   0.461   2.937
13352TIP3    H240014   6.607   0.579   2.970
13353TIP3   OH240015   4.442   3.816   1.956
13353TIP3    H140016   4.351   3.835   1.979
13353TIP3    H240017   4.485   3.901   1.961
13354TIP3   OH240018   3.667   4.088   3.572
13354TIP3    H140019   3.608   4.031   3.522
13354TIP3    H240020   3.620   4.106   3.653
13355TIP3   OH240021   2.982   2.037   2.237
13355TIP3    H140022   2.920   1.963   2.233
13355TIP3    H240023   3.064   1.998   2.266
13356TIP3   OH240024   0.927   2.163   6.261
13356TIP3    H140025   0.844   2.200   6.291
13356TIP3    H240026   0.921   2.162   6.166
13357TIP3   OH240027   4.692   3.649   5.789
13357TIP3    H140028   4.636   3.658   5.711
13357TIP3    H240029   4.781   3.665   5.756
13358TIP3   OH240030   3.075   4.775   1.650
13358TIP3    H140031   3.095   4.760   1.743
13358TIP3    H240032   3.126   4.853   1.628
13359TIP3   OH240033   5.577   5.329   1.997
13359TIP3    H140034   5.554   5.321   1.905
13359TIP3    H240035   5.494   5.344   2.042
13360TIP3   OH240036   6.539   3.151   1.586
13360TIP3    H140037   6.557   3.156   1.492
13360TIP3    H240038   6.626   3.146   1.627
13361TIP3   OH240039   6.157   0.964   5.277
13361TIP3    H140040   6.146   0.990   5.368
13361TIP3    H240041   6.087   1.009   5.230
13362TIP3   OH240042   6.664   4.779   0.233
13362TIP3    H140043   6.729   4.736   0.289
13362TIP3    H240044   6.712   4.852   0.194
13363TIP3   OH240045   4.289   1.442   6.096
13363TIP3    H140046   4.255   1.483   6.016
13363TIP3    H240047   4.276   1.348   6.082
13364TIP3   OH240048   4.591   1.283   0.646
13364TIP3    H140049   4.648   1.322   0.712
13364TIP3    H240050   4.618   1.191   0.642
13365TIP3   OH240051   5.036   7.476   5.111
13365TIP3    H140052   5.129   7.454   5.107
13365TIP3    H240053   4.994   7.395   5.138
13366TIP3   OH240054   7.102   3.733   3.122
13366TIP3    H140055   7.193   3.760   3.125
13366TIP3    H240056   7.056   3.795   3.179
13367TIP3   OH240057   0.903   4.233   4.621
13367TIP3    H140058   0.823   4.208   4.574
13367TIP3    H240059   0.969   4.242   4.553
13368TIP3   OH240060   4.501   2.859   2.278
13368TIP3    H140061   4.428   2.825   2.226
13368TIP3    H240062   4.545   2.780   2.311
13369TIP3   OH240063   7.037   5.003   5.297
13369TIP3    H140064   7.060   4.923   5.343
13369TIP3    H240065   7.059   5.073   5.359
13370TIP3   OH240066   5.418   2.213   2.167
13370TIP3    H140067   5.345   2.266   2.199
13370TIP3    H240068   5.491   2.274   2.162
13371TIP3   OH240069   5.759   2.735   2.965
13371TIP3    H140070   5.800   2.803   2.912
13371TIP3    H240071   5.832   2.692   3.010
13372TIP3   OH240072   6.793   0.799   6.682
13372TIP3    H140073   6.738   0.876   6.668
13372TIP3    H240074   6.732   0.726   6.682
13373TIP3   OH240075   5.450   4.335   0.868
13373TIP3    H140076   5.449   4.416   0.918
13373TIP3    H240077   5.541   4.305   0.872
13374TIP3   OH240078   3.858   1.263   0.030
13374TIP3    H140079   3.940   1.303   0.001
13374TIP3    H240080   3.862   1.267   0.125
13375TIP3   OH240081   5.739   2.907   3.614
13375TIP3    H140082   5.700   2.832   3.569
13375TIP3    H240083   5.832   2.902   3.591
13376TIP3   OH240084   0.408   3.506   6.238
13376TIP3    H140085   0.363   3.590   6.236
13376TIP3    H240086   0.398   3.471   6.149
13377TIP3   OH240087   3.938   2.085   0.315
13377TIP3    H140088   3.920   2.043   0.399
13377TIP3    H240089   4.033   2.096   0.314
13378TIP3   OH240090   3.419   0.861   6.298
13378TIP3    H140091   3.412   0.774   6.258
13378TIP3    H240092   3.444   0.843   6.389
13379TIP3   OH240093   7.910   0.688   3.943
13379TIP3    H140094   7.941   0.598   3.953
13379TIP3    H240095   7.916   0.726   4.031
13380TIP3   OH240096   1.642   1.153   5.229
13380TIP3    H140097   1.731   1.132   5.257
13380TIP3    H240098   1.593   1.071   5.242
13381TIP3   OH240099   5.644   0.116   4.854
13381TIP3    H140100   5.735   0.093   4.835
13381TIP3    H240101   5.647   0.207   4.882
13382TIP3   OH240102   3.508   5.275   5.756
13382TIP3    H140103   3.476   5.188   5.731
13382TIP3    H240104   3.533   5.316   5.673
13383TIP3   OH240105   3.140   1.462   4.788
13383TIP3    H140106   3.181   1.453   4.874
13383TIP3    H240107   3.131   1.372   4.756
13384TIP3   OH240108   2.884   3.741   0.698
13384TIP3    H140109   2.824   3.689   0.751
13384TIP3    H240110   2.898   3.689   0.619
13385TIP3   OH240111   8.201   5.528   2.001
13385TIP3    H140112   8.252   5.483   1.932
13385TIP3    H240113   8.242   5.614   2.008
13386TIP3   OH240114   4.019   6.204   6.511
13386TIP3    H140115   3.948   6.152   6.473
13386TIP3    H240116   3.981   6.241   6.591
13387TIP3   OH240117   7.374   2.286   6.584
13387TIP3    H140118   7.403   2.351   6.519
13387TIP3    H240119   7.399   2.324   6.668
13388TIP3   OH240120   0.864   0.441   4.026
13388TIP3    H140121   0.891   0.472   4.113
13388TIP3    H240122   0.852   0.346   4.038
13389TIP3   OH240123   5.440   7.295   5.330
13389TIP3    H140124   5.455   7.275   5.422
13389TIP3    H240125   5.374   7.232   5.302
13390TIP3   OH240126   1.420   5.549   0.287
13390TIP3    H140127   1.380   5.588   0.209
13390TIP3    H240128   1.372   5.587   0.360
13391TIP3   OH240129   5.602   6.840   2.359
13391TIP3    H140130   5.568   6.831   2.448
13391TIP3    H240131   5.640   6.754   2.340
13392TIP3   OH240132   8.011   3.832   4.350
13392TIP3    H140133   8.017   3.737   4.360
13392TIP3    H240134   7.918   3.849   4.335
13393TIP3   OH240135   2.912   3.440   0.280
13393TIP3    H140136   2.918   3.370   0.215
13393TIP3    H240137   2.926   3.520   0.230
13394TIP3   OH240138   3.969   7.110   3.636
13394TIP3    H140139   3.919   7.051   3.580
13394TIP3    H240140   3.988   7.059   3.714
13395TIP3   OH240141   7.306   3.688   6.432
13395TIP3    H140142   7.280   3.607   6.388
13395TIP3    H240143   7.392   3.668   6.470
13396TIP3   OH240144   1.967   5.863   1.878
13396TIP3    H140145   1.921   5.881   1.961
13396TIP3    H240146   2.039   5.925   1.877
13397TIP3   OH240147   5.144   0.172   6.523
13397TIP3    H140148   5.146   0.077   6.516
13397TIP3    H240149   5.235   0.199   6.518
13398TIP3   OH240150   5.501   5.790   0.604
13398TIP3    H140151   5.478   5.833   0.686
13398TIP3    H240152   5.537   5.705   0.630
13399TIP3   OH240153   8.013   2.109   1.192
13399TIP3    H140154   8.061   2.156   1.123
13399TIP3    H240155   8.076   2.101   1.263
13400TIP3   OH240156   2.273   2.584   0.913
13400TIP3    H140157   2.254   2.574   1.006
13400TIP3    H240158   2.361   2.623   0.911
13401TIP3   OH240159   1.338   6.351   6.003
13401TIP3    H140160   1.396   6.423   5.980
13401TIP3    H240161   1.348   6.341   6.098
13402TIP3   OH240162   4.102   2.474   2.939
13402TIP3    H140163   4.195   2.466   2.959
13402TIP3    H240164   4.072   2.384   2.928
13403TIP3   OH240165   5.836   3.250   5.435
13403TIP3    H140166   5.790   3.185   5.488
13403TIP3    H240167   5.791   3.249   5.351
13404TIP3   OH240168   6.914   7.705   4.624
13404TIP3    H140169   6.831   7.753   4.627
13404TIP3    H240170   6.923   7.678   4.533
13405TIP3   OH240171   6.976   2.117   5.574
13405TIP3    H140172   6.934   2.128   5.659
13405TIP3    H240173   6.953   2.028   5.548
13406TIP3   OH240174   1.871   5.607   5.750
13406TIP3    H140175   1.842   5.628   5.662
13406TIP3    H240176   1.945   5.666   5.766
13407TIP3   OH240177   7.113   0.641   5.847
13407TIP3    H140178   7.199   0.606   5.870
13407TIP3    H240179   7.103   0.618   5.755
13408TIP3   OH240180   1.757   7.502   1.692
13408TIP3    H140181   1.731   7.418   1.729
13408TIP3    H240182   1.692   7.520   1.625
13409TIP3   OH240183   4.773   2.288   6.437
13409TIP3    H140184   4.706   2.293   6.370
13409TIP3    H240185   4.746   2.214   6.492
13410TIP3   OH240186   2.456   1.275   5.334
13410TIP3    H140187   2.409   1.354   5.306
13410TIP3    H240188   2.508   1.249   5.258
13411TIP3   OH240189   2.710   7.139   4.386
13411TIP3    H140190   2.621   7.104   4.397
13411TIP3    H240191   2.766   7.075   4.430
13412TIP3   OH240192   6.782   4.341   0.256
13412TIP3    H140193   6.825   4.336   0.342
13412TIP3    H240194   6.704   4.287   0.265
13413TIP3   OH240195   6.823   5.207   4.987
13413TIP3    H140196   6.751   5.194   5.049
13413TIP3    H240197   6.901   5.186   5.038
13414TIP3   OH240198   7.470   6.381   1.059
13414TIP3    H140199   7.535   6.410   0.995
13414TIP3    H240200   7.515   6.391   1.143
13415TIP3   OH240201   2.934   5.528   1.073
13415TIP3    H140202   2.958   5.620   1.062
13415TIP3    H240203   2.889   5.505   0.991
13416TIP3   OH240204   5.176   3.690   0.554
13416TIP3    H140205   5.226   3.643   0.620
13416TIP3    H240206   5.098   3.720   0.601
13417TIP3   OH240207   5.800   5.132   2.676
13417TIP3    H140208   5.832   5.049   2.642
13417TIP3    H240209   5.709   5.115   2.698
13418TIP3   OH240210   2.364   5.529   1.503
13418TIP3    H140211   2.274   5.524   1.537
13418TIP3    H240212   2.381   5.623   1.496
13419TIP3   OH240213   5.737   4.806   5.255
13419TIP3    H140214   5.815   4.855   5.278
13419TIP3    H240215   5.701   4.778   5.339
13420TIP3   OH240216   6.793   2.203   5.236
13420TIP3    H140217   6.831   2.245   5.159
13420TIP3    H240218   6.720   2.151   5.201
13421TIP3   OH240219   3.577   1.480   1.840
13421TIP3    H140220   3.671   1.478   1.823
13421TIP3    H240221   3.568   1.528   1.922
13422TIP3   OH240222   6.039   4.902   1.035
13422TIP3    H140223   6.088   4.940   1.108
13422TIP3    H240224   5.988   4.832   1.075
13423TIP3   OH240225   1.642   4.710   6.321
13423TIP3    H140226   1.712   4.645   6.331
13423TIP3    H240227   1.689   4.793   6.310
13424TIP3   OH240228   2.794   4.004   3.039
13424TIP3    H140229   2.840   3.951   3.105
13424TIP3    H240230   2.759   4.078   3.089
13425TIP3   OH240231   7.309   2.968   5.077
13425TIP3    H140232   7.394   2.989   5.041
13425TIP3    H240233   7.294   3.033   5.146
13426TIP3   OH240234   1.104   6.945   6.478
13426TIP3    H140235   1.152   6.963   6.559
13426TIP3    H240236   1.082   6.852   6.482
13427TIP3   OH240237   6.052   0.235   4.517
13427TIP3    H140238   6.050   0.210   4.424
13427TIP3    H240239   5.964   0.270   4.534
13428TIP3   OH240240   3.039   2.972   6.330
13428TIP3    H140241   2.946   2.994   6.321
13428TIP3    H240242   3.066   3.014   6.412
13429TIP3   OH240243   6.567   2.059   5.133
13429TIP3    H140244   6.505   1.987   5.120
13429TIP3    H240245   6.521   2.120   5.191
13430TIP3   OH240246   0.481   7.729   2.067
13430TIP3    H140247   0.388   7.752   2.067
13430TIP3    H240248   0.525   7.812   2.047
13431TIP3   OH240249   7.130   3.642   1.122
13431TIP3    H140250   7.060   3.707   1.129
13431TIP3    H240251   7.171   3.661   1.038
13432TIP3   OH240252   6.816   4.853   0.765
13432TIP3    H140253   6.884   4.920   0.762
13432TIP3    H240254   6.819   4.811   0.679
13433TIP3   OH240255   0.510   0.983   1.797
13433TIP3    H140256   0.503   0.909   1.857
13433TIP3    H240257   0.604   0.994   1.783
13434TIP3   OH240258   4.038   0.057   3.055
13434TIP3    H140259   4.099   0.118   3.013
13434TIP3    H240260   4.058  -0.027   3.014
13435TIP3   OH240261   2.918   2.444   5.431
13435TIP3    H140262   2.882   2.522   5.474
13435TIP3    H240263   3.012   2.448   5.449
13436TIP3   OH240264   4.208   7.602   5.918
13436TIP3    H140265   4.124   7.643   5.901
13436TIP3    H240266   4.252   7.661   5.979
13437TIP3   OH240267   0.722   3.263   3.852
13437TIP3    H140268   0.799   3.209   3.868
13437TIP3    H240269   0.654   3.202   3.824
13438TIP3   OH240270   7.905   0.400   3.561
13438TIP3    H140271   7.882   0.452   3.639
13438TIP3    H240272   7.903   0.309   3.591
13439TIP3   OH240273   3.882   4.635   4.861
13439TIP3    H140274   3.812   4.652   4.797
13439TIP3    H240275   3.909   4.545   4.843
13440TIP3   OH240276   4.849   7.668   3.593
13440TIP3    H140277   4.937   7.641   3.618
13440TIP3    H240278   4.837   7.752   3.636
13441TIP3   OH240279   5.857   0.462   1.118
13441TIP3    H140280   5.877   0.554   1.137
13441TIP3    H240281   5.856   0.420   1.204
13442TIP3   OH240282   6.892   4.317   3.269
13442TIP3    H140283   6.936   4.366   3.338
13442TIP3    H240284   6.809   4.289   3.309
13443TIP3   OH240285   4.073   1.821   6.430
13443TIP3    H140286   4.035   1.908   6.419
13443TIP3    H240287   3.997   1.762   6.426
13444TIP3   OH240288   6.008   5.267   1.188
13444TIP3    H140289   5.951   5.322   1.241
13444TIP3    H240290   6.096   5.301   1.204
13445TIP3   OH240291   0.566   3.373   2.112
13445TIP3    H140292   0.577   3.355   2.205
13445TIP3    H240293   0.502   3.308   2.083
13446TIP3   OH240294   4.740   6.790   4.918
13446TIP3    H140295   4.729   6.789   5.013
13446TIP3    H240296   4.684   6.719   4.886
13447TIP3   OH240297   2.590   6.558   1.784
13447TIP3    H140298   2.667   6.614   1.779
13447TIP3    H240299   2.604   6.505   1.862
13448TIP3   OH240300   4.703   3.383   3.916
13448TIP3    H140301   4.792   3.369   3.948
13448TIP3    H240302   4.692   3.319   3.846
13449TIP3   OH240303   2.955   7.040   0.419
13449TIP3    H140304   3.000   7.013   0.339
13449TIP3    H240305   3.025   7.054   0.483
13450TIP3   OH240306   4.018   6.841   3.155
13450TIP3    H140307   4.061   6.816   3.236
13450TIP3    H240308   3.924   6.832   3.174
13451TIP3   OH240309   0.501   3.122   0.818
13451TIP3    H140310   0.565   3.193   0.820
13451TIP3    H240311   0.543   3.051   0.866
13452TIP3   OH240312   7.439   0.158   6.611
13452TIP3    H140313   7.406   0.082   6.563
13452TIP3    H240314   7.362   0.212   6.628
13453TIP3   OH240315   7.885   3.179   5.952
13453TIP3    H140316   7.863   3.086   5.959
13453TIP3    H240317   7.884   3.211   6.042
13454TIP3   OH240318   7.116   1.079   5.998
13454TIP3    H140319   7.164   1.022   5.938
13454TIP3    H240320   7.174   1.154   6.012
13455TIP3   OH240321   6.827   0.611   6.310
13455TIP3    H140322   6.858   0.644   6.226
13455TIP3    H240323   6.746   0.661   6.326
13456TIP3   OH240324   4.595   4.942   2.045
13456TIP3    H140325   4.600   4.893   1.962
13456TIP3    H240326   4.519   4.999   2.034
13457TIP3   OH240327   4.642   5.348   4.730
13457TIP3    H140328   4.626   5.305   4.814
13457TIP3    H240329   4.613   5.438   4.743
13458TIP3   OH240330   4.567   3.995   2.368
13458TIP3    H140331   4.528   3.919   2.326
13458TIP3    H240332   4.518   4.070   2.334
13459TIP3   OH240333   5.197   0.278   5.454
13459TIP3    H140334   5.106   0.274   5.485
13459TIP3    H240335   5.206   0.367   5.421
13460TIP3   OH240336   2.421   6.417   0.600
13460TIP3    H140337   2.387   6.482   0.538
13460TIP3    H240338   2.382   6.442   0.684
13461TIP3   OH240339   4.214   0.626   3.082
13461TIP3    H140340   4.263   0.550   3.115
13461TIP3    H240341   4.183   0.598   2.996
13462TIP3   OH240342   0.931   5.029   5.032
13462TIP3    H140343   0.992   5.023   4.959
13462TIP3    H240344   0.848   5.055   4.992
13463TIP3   OH240345   0.927   5.592   4.681
13463TIP3    H140346   0.942   5.625   4.593
13463TIP3    H240347   0.967   5.657   4.738
13464TIP3   OH240348   8.095   3.438   2.293
13464TIP3    H140349   8.154   3.493   2.343
13464TIP3    H240350   8.010   3.450   2.334
13465TIP3   OH240351   2.401   6.609   2.327
13465TIP3    H140352   2.463   6.594   2.255
13465TIP3    H240353   2.445   6.575   2.404
13466TIP3   OH240354   6.823   6.585   0.313
13466TIP3    H140355   6.750   6.645   0.300
13466TIP3    H240356   6.894   6.641   0.345
13467TIP3   OH240357   2.356   4.651   1.187
13467TIP3    H140358   2.349   4.688   1.275
13467TIP3    H240359   2.326   4.560   1.198
13468TIP3   OH240360   3.545   5.948   1.155
13468TIP3    H140361   3.615   5.986   1.103
13468TIP3    H240362   3.587   5.877   1.204
13469TIP3   OH240363   4.369   5.099   2.008
13469TIP3    H140364   4.386   5.193   2.000
13469TIP3    H240365   4.295   5.093   2.068
13470TIP3   OH240366   6.207   1.363   5.586
13470TIP3    H140367   6.231   1.414   5.508
13470TIP3    H240368   6.278   1.379   5.648
13471TIP3   OH240369   7.018   5.010   6.546
13471TIP3    H140370   7.057   4.984   6.629
13471TIP3    H240371   6.970   4.933   6.516
13472TIP3   OH240372   7.821   6.054   5.248
13472TIP3    H140373   7.750   6.073   5.309
13472TIP3    H240374   7.859   5.973   5.279
13473TIP3   OH240375   0.258   1.641   5.807
13473TIP3    H140376   0.188   1.577   5.824
13473TIP3    H240377   0.334   1.605   5.852
13474TIP3   OH240378   5.877   1.451   2.498
13474TIP3    H140379   5.894   1.364   2.462
13474TIP3    H240380   5.799   1.439   2.553
13475TIP3   OH240381   2.796   3.175   2.521
13475TIP3    H140382   2.835   3.249   2.568
13475TIP3    H240383   2.849   3.167   2.441
13476TIP3   OH240384   2.375   2.922   3.124
13476TIP3    H140385   2.338   2.879   3.201
13476TIP3    H240386   2.361   2.860   3.052
13477TIP3   OH240387   6.746   6.365   5.785
13477TIP3    H140388   6.654   6.358   5.761
13477TIP3    H240389   6.746   6.358   5.880
13478TIP3   OH240390   0.780   0.163   2.044
13478TIP3    H140391   0.702   0.146   1.993
13478TIP3    H240392   0.753   0.226   2.110
13479TIP3   OH240393   2.860   4.184   4.870
13479TIP3    H140394   2.946   4.167   4.909
13479TIP3    H240395   2.799   4.130   4.921
13480TIP3   OH240396   6.054   5.713   0.133
13480TIP3    H140397   5.967   5.752   0.121
13480TIP3    H240398   6.060   5.648   0.063
13481TIP3   OH240399   4.458   5.244   1.122
13481TIP3    H140400   4.366   5.238   1.144
13481TIP3    H240401   4.460   5.273   1.031
13482TIP3   OH240402   2.152   6.839   1.561
13482TIP3    H140403   2.065   6.818   1.527
13482TIP3    H240404   2.211   6.822   1.488
13483TIP3   OH240405   0.080   3.430   4.514
13483TIP3    H140406   0.098   3.495   4.582
13483TIP3    H240407   0.044   3.355   4.562
13484TIP3   OH240408   2.042   4.173   1.267
13484TIP3    H140409   2.087   4.243   1.219
13484TIP3    H240410   1.952   4.203   1.274
13485TIP3   OH240411   5.000   3.369   1.512
13485TIP3    H140412   5.044   3.292   1.550
13485TIP3    H240413   5.046   3.444   1.550
13486TIP3   OH240414   4.566   7.177   6.306
13486TIP3    H140415   4.558   7.139   6.219
13486TIP3    H240416   4.645   7.230   6.302
13487TIP3   OH240417   0.405   6.357   3.534
13487TIP3    H140418   0.467   6.297   3.576
13487TIP3    H240419   0.358   6.304   3.471
13488TIP3   OH240420   5.446   3.494   4.588
13488TIP3    H140421   5.420   3.567   4.532
13488TIP3    H240422   5.471   3.424   4.528
13489TIP3   OH240423   5.610   1.047   6.074
13489TIP3    H140424   5.517   1.070   6.076
13489TIP3    H240425   5.619   0.987   6.000
13490TIP3   OH240426   1.775   6.495   5.286
13490TIP3    H140427   1.814   6.408   5.293
13490TIP3    H240428   1.800   6.538   5.368
13491TIP3   OH240429   8.148   3.391   5.493
13491TIP3    H140430   8.095   3.470   5.504
13491TIP3    H240431   8.085   3.322   5.472
13492TIP3   OH240432   0.726   0.018   0.602
13492TIP3    H140433   0.640   0.025   0.643
13492TIP3    H240434   0.742   0.105   0.565
13493TIP3   OH240435   5.628   2.274   3.221
13493TIP3    H140436   5.621   2.268   3.316
13493TIP3    H240437   5.569   2.206   3.189
13494TIP3   OH240438   4.352   1.351   0.447
13494TIP3    H140439   4.367   1.311   0.533
13494TIP3    H240440   4.439   1.382   0.420
13495TIP3   OH240441   0.656   3.762   5.898
13495TIP3    H140442   0.720   3.713   5.950
13495TIP3    H240443   0.663   3.851   5.930
13496TIP3   OH240444   6.664   2.765   2.926
13496TIP3    H140445   6.579   2.809   2.937
13496TIP3    H240446   6.729   2.832   2.947
13497TIP3   OH240447   1.313   3.762   3.635
13497TIP3    H140448   1.231   3.751   3.684
13497TIP3    H240449   1.350   3.674   3.629
13498TIP3   OH240450   5.733   6.348   6.548
13498TIP3    H140451   5.759   6.438   6.564
13498TIP3    H240452   5.698   6.318   6.633
13499TIP3   OH240453   6.871   5.292   3.571
13499TIP3    H140454   6.812   5.312   3.498
13499TIP3    H240455   6.885   5.376   3.614
13500TIP3   OH240456   6.961   3.897   5.105
13500TIP3    H140457   6.935   3.807   5.085
13500TIP3    H240458   7.024   3.889   5.176
13501TIP3   OH240459   3.600   6.615   3.178
13501TIP3    H140460   3.639   6.556   3.243
13501TIP3    H240461   3.510   6.583   3.168
13502TIP3   OH240462   0.858   3.850   2.905
13502TIP3    H140463   0.879   3.867   2.997
13502TIP3    H240464   0.789   3.913   2.884
13503TIP3   OH240465   6.776   4.720   6.148
13503TIP3    H140466   6.804   4.629   6.159
13503TIP3    H240467   6.851   4.772   6.175
13504TIP3   OH240468   0.611   2.479   5.203
13504TIP3    H140469   0.702   2.510   5.201
13504TIP3    H240470   0.560   2.554   5.233
13505TIP3   OH240471   4.734   6.391   6.361
13505TIP3    H140472   4.828   6.403   6.362
13505TIP3    H240473   4.703   6.441   6.286
13506TIP3   OH240474   3.592   5.085   2.653
13506TIP3    H140475   3.611   5.077   2.746
13506TIP3    H240476   3.569   4.996   2.626
13507TIP3   OH240477   3.528   3.051   4.367
13507TIP3    H140478   3.524   2.956   4.379
13507TIP3    H240479   3.560   3.084   4.450
13508TIP3   OH240480   2.166   3.376   1.166
13508TIP3    H140481   2.096   3.318   1.137
13508TIP3    H240482   2.129   3.422   1.241
13509TIP3   OH240483   1.468   5.309   5.910
13509TIP3    H140484   1.522   5.381   5.943
13509TIP3    H240485   1.412   5.350   5.844
13510TIP3   OH240486   3.307   7.377   4.825
13510TIP3    H140487   3.298   7.305   4.887
13510TIP3    H240488   3.219   7.386   4.786
13511TIP3   OH240489   7.803   3.923   5.234
13511TIP3    H140490   7.729   3.863   5.236
13511TIP3    H240491   7.830   3.932   5.326
13512TIP3   OH240492   2.928   1.148   2.325
13512TIP3    H140493   2.835   1.173   2.317
13512TIP3    H240494   2.927   1.053   2.336
13513TIP3   OH240495   5.153   7.398   4.191
13513TIP3    H140496   5.185   7.371   4.277
13513TIP3    H240497   5.194   7.483   4.176
13514TIP3   OH240498   4.949   1.894   1.847
13514TIP3    H140499   4.865   1.902   1.802
13514TIP3    H240500   4.934   1.933   1.933
13515TIP3   OH240501   3.510   4.095   1.538
13515TIP3    H140502   3.441   4.155   1.508
13515TIP3    H240503   3.498   4.017   1.484
13516TIP3   OH240504   0.460   5.049   0.004
13516TIP3    H140505   0.541   5.071   0.050
13516TIP3    H240506   0.412   4.992   0.064
13517TIP3   OH240507   5.478   5.513   6.472
13517TIP3    H140508   5.480   5.608   6.482
13517TIP3    H240509   5.393   5.487   6.507
13518TIP3   OH240510   3.983   0.273   0.077
13518TIP3    H140511   4.051   0.230   0.130
13518TIP3    H240512   3.902   0.259   0.127
13519TIP3   OH240513   2.047   2.489   2.904
13519TIP3    H140514   2.127   2.449   2.938
13519TIP3    H240515   2.021   2.433   2.832
13520TIP3   OH240516   3.572   4.969   0.803
13520TIP3    H140517   3.490   4.975   0.851
13520TIP3    H240518   3.546   4.936   0.717
13521TIP3   OH240519   1.592   4.443   3.546
13521TIP3    H140520   1.603   4.348   3.552
13521TIP3    H240521   1.574   4.459   3.453
13522TIP3   OH240522   1.178   1.535   0.983
13522TIP3    H140523   1.185   1.557   0.890
13522TIP3    H240524   1.266   1.511   1.009
13523TIP3   OH240525   8.303   3.641   3.680
13523TIP3    H140526   8.214   3.654   3.648
13523TIP3    H240527   8.292   3.603   3.767
13524TIP3   OH240528   1.583   5.327   4.279
13524TIP3    H140529   1.534   5.342   4.360
13524TIP3    H240530   1.639   5.404   4.270
13525TIP3   OH240531   4.176   3.700   0.817
13525TIP3    H140532   4.122   3.685   0.738
13525TIP3    H240533   4.236   3.770   0.792
13526TIP3   OH240534   6.936   6.516   3.023
13526TIP3    H140535   6.896   6.570   2.954
13526TIP3    H240536   6.984   6.578   3.077
13527TIP3   OH240537   2.706   7.392   4.062
13527TIP3    H140538   2.631   7.333   4.060
13527TIP3    H240539   2.782   7.335   4.048
13528TIP3   OH240540   6.101   1.166   1.330
13528TIP3    H140541   6.145   1.147   1.412
13528TIP3    H240542   6.082   1.259   1.333
13529TIP3   OH240543   6.571   0.725   2.539
13529TIP3    H140544   6.649   0.748   2.590
13529TIP3    H240545   6.556   0.633   2.559
13530TIP3   OH240546   4.475   3.566   4.880
13530TIP3    H140547   4.451   3.488   4.931
13530TIP3    H240548   4.482   3.534   4.790
13531TIP3   OH240549   1.095   0.076   6.600
13531TIP3    H140550   1.021   0.133   6.621
13531TIP3    H240551   1.057   0.008   6.545
13532TIP3   OH240552   1.612   0.593   6.298
13532TIP3    H140553   1.521   0.575   6.275
13532TIP3    H240554   1.625   0.548   6.381
13533TIP3   OH240555   4.222   6.332   3.235
13533TIP3    H140556   4.200   6.411   3.285
13533TIP3    H240557   4.138   6.301   3.201
13534TIP3   OH240558   5.887   2.610   6.202
13534TIP3    H140559   5.828   2.630   6.129
13534TIP3    H240560   5.855   2.664   6.275
13535TIP3   OH240561   3.613   1.697   6.220
13535TIP3    H140562   3.553   1.689   6.146
13535TIP3    H240563   3.627   1.791   6.230
13536TIP3   OH240564   7.908   1.649   3.857
13536TIP3    H140565   7.937   1.704   3.784
13536TIP3    H240566   7.979   1.588   3.872
13537TIP3   OH240567   3.205   0.715   1.393
13537TIP3    H140568   3.182   0.786   1.332
13537TIP3    H240569   3.285   0.677   1.357
13538TIP3   OH240570   6.252   1.895   4.832
13538TIP3    H140571   6.347   1.897   4.826
13538TIP3    H240572   6.233   1.843   4.910
13539TIP3   OH240573   0.180   4.028   0.654
13539TIP3    H140574   0.159   3.993   0.740
13539TIP3    H240575   0.096   4.031   0.608
13540TIP3   OH240576   6.929   7.580   4.375
13540TIP3    H140577   7.015   7.540   4.368
13540TIP3    H240578   6.921   7.636   4.297
13541TIP3   OH240579   6.698   6.435   0.502
13541TIP3    H140580   6.684   6.389   0.420
13541TIP3    H240581   6.758   6.506   0.481
13542TIP3   OH240582   3.750   0.042   2.042
13542TIP3    H140583   3.785   0.107   2.103
13542TIP3    H240584   3.735   0.091   1.961
13543TIP3   OH240585   5.841   2.815   6.392
13543TIP3    H140586   5.823   2.857   6.475
13543TIP3    H240587   5.880   2.883   6.338
13544TIP3   OH240588   6.646   3.765   5.064
13544TIP3    H140589   6.612   3.713   4.992
13544TIP3    H240590   6.567   3.794   5.111
13545TIP3   OH240591   4.551   2.325   6.773
13545TIP3    H140592   4.458   2.314   6.790
13545TIP3    H240593   4.555   2.378   6.693
13546TIP3   OH240594   2.358   3.744   6.276
13546TIP3    H140595   2.339   3.781   6.190
13546TIP3    H240596   2.296   3.786   6.335
13547TIP3   OH240597   3.486   6.334   1.031
13547TIP3    H140598   3.560   6.275   1.047
13547TIP3    H240599   3.434   6.290   0.964
13548TIP3   OH240600   4.874   5.567   4.950
13548TIP3    H140601   4.931   5.607   5.015
13548TIP3    H240602   4.859   5.478   4.982
13549TIP3   OH240603   1.410   3.490   3.654
13549TIP3    H140604   1.488   3.507   3.706
13549TIP3    H240605   1.343   3.466   3.719
13550TIP3   OH240606   3.704   6.684   2.531
13550TIP3    H140607   3.705   6.759   2.590
13550TIP3    H240608   3.787   6.639   2.548
13551TIP3   OH240609   6.178   5.897   2.261
13551TIP3    H140610   6.114   5.871   2.327
13551TIP3    H240611   6.205   5.815   2.220
13552TIP3   OH240612   0.734   7.683   6.716
13552TIP3    H140613   0.783   7.765   6.723
13552TIP3    H240614   0.676   7.696   6.642
13553TIP3   OH240615   7.678   1.925   4.243
13553TIP3    H140616   7.746   1.858   4.245
13553TIP3    H240617   7.604   1.882   4.200
13554TIP3   OH240618   5.805   3.019   1.886
13554TIP3    H140619   5.757   2.981   1.812
13554TIP3    H240620   5.889   2.973   1.886
13555TIP3   OH240621   8.093   0.013   5.894
13555TIP3    H140622   8.183  -0.019   5.905
13555TIP3    H240623   8.069   0.048   5.980
13556TIP3   OH240624   0.901   2.492   3.007
13556TIP3    H140625   0.895   2.410   3.055
13556TIP3    H240626   0.823   2.494   2.952
13557TIP3   OH240627   6.240   6.072   2.842
13557TIP3    H140628   6.221   6.085   2.935
13557TIP3    H240629   6.299   5.998   2.840
13558TIP3   OH240630   4.128   7.728   3.944
13558TIP3    H140631   4.057   7.670   3.918
13558TIP3    H240632   4.170   7.685   4.018
13559TIP3   OH240633   6.388   0.406   5.071
13559TIP3    H140634   6.345   0.395   4.986
13559TIP3    H240635   6.349   0.338   5.126
13560TIP3   OH240636   1.280   7.201   5.480
13560TIP3    H140637   1.363   7.163   5.453
13560TIP3    H240638   1.214   7.145   5.441
13561TIP3   OH240639   3.098   0.429   2.621
13561TIP3    H140640   3.126   0.346   2.659
13561TIP3    H240641   3.086   0.410   2.528
13562TIP3   OH240642   0.821   6.482   2.603
13562TIP3    H140643   0.805   6.438   2.519
13562TIP3    H240644   0.877   6.421   2.651
13563TIP3   OH240645   4.018   1.493   4.231
13563TIP3    H140646   4.009   1.451   4.316
13563TIP3    H240647   3.948   1.455   4.178
13564TIP3   OH240648   7.879   1.307   6.518
13564TIP3    H140649   7.966   1.347   6.525
13564TIP3    H240650   7.847   1.302   6.608
13565TIP3   OH240651   2.140   1.029   2.731
13565TIP3    H140652   2.050   0.997   2.745
13565TIP3    H240653   2.144   1.111   2.782
13566TIP3   OH240654   2.988   2.655   4.582
13566TIP3    H140655   2.991   2.602   4.661
13566TIP3    H240656   3.075   2.696   4.576
13567TIP3   OH240657   7.539   0.618   2.247
13567TIP3    H140658   7.462   0.629   2.192
13567TIP3    H240659   7.589   0.548   2.205
13568TIP3   OH240660   8.263   5.774   5.891
13568TIP3    H140661   8.282   5.867   5.881
13568TIP3    H240662   8.171   5.765   5.863
13569TIP3   OH240663   1.278   6.500   0.963
13569TIP3    H140664   1.307   6.582   0.922
13569TIP3    H240665   1.310   6.432   0.904
13570TIP3   OH240666   7.688   1.757   4.570
13570TIP3    H140667   7.688   1.768   4.665
13570TIP3    H240668   7.611   1.806   4.540
13571TIP3   OH240669   7.774   1.347   1.861
13571TIP3    H140670   7.831   1.417   1.894
13571TIP3    H240671   7.707   1.337   1.928
13572TIP3   OH240672   1.208   7.411   6.611
13572TIP3    H140673   1.190   7.478   6.677
13572TIP3    H240674   1.140   7.345   6.625
13573TIP3   OH240675   2.171   0.415   3.416
13573TIP3    H140676   2.195   0.331   3.377
13573TIP3    H240677   2.123   0.461   3.347
13574TIP3   OH240678   1.847   6.102   5.058
13574TIP3    H140679   1.899   6.054   4.994
13574TIP3    H240680   1.857   6.053   5.140
13575TIP3   OH240681   2.891   1.070   6.662
13575TIP3    H140682   2.833   1.112   6.598
13575TIP3    H240683   2.938   1.143   6.703
13576TIP3   OH240684   0.813   3.468   5.509
13576TIP3    H140685   0.833   3.387   5.557
13576TIP3    H240686   0.894   3.519   5.513
13577TIP3   OH240687   7.672   3.237   5.557
13577TIP3    H140688   7.703   3.155   5.598
13577TIP3    H240689   7.580   3.243   5.582
13578TIP3   OH240690   2.876   7.745   5.710
13578TIP3    H140691   2.944   7.764   5.775
13578TIP3    H240692   2.898   7.800   5.635
13579TIP3   OH240693   6.348   2.149   6.225
13579TIP3    H140694   6.304   2.124   6.307
13579TIP3    H240695   6.429   2.098   6.225
13580TIP3   OH240696   1.328   7.395   5.672
13580TIP3    H140697   1.262   7.378   5.739
13580TIP3    H240698   1.310   7.330   5.604
13581TIP3   OH240699   5.245   4.025   5.391
13581TIP3    H140700   5.333   4.037   5.355
13581TIP3    H240701   5.232   3.930   5.394
13582TIP3   OH240702   7.555   1.888   0.339
13582TIP3    H140703   7.466   1.896   0.305
13582TIP3    H240704   7.606   1.950   0.287
13583TIP3   OH240705   2.642   0.055   6.405
13583TIP3    H140706   2.608  -0.033   6.423
13583TIP3    H240707   2.737   0.046   6.414
13584TIP3   OH240708   5.187   2.850   0.258
13584TIP3    H140709   5.128   2.821   0.188
13584TIP3    H240710   5.259   2.894   0.211
13585TIP3   OH240711   8.173   5.962   2.289
13585TIP3    H140712   8.208   6.010   2.214
13585TIP3    H240713   8.087   6.001   2.304
13586TIP3   OH240714   5.127   4.852   6.575
13586TIP3    H140715   5.062   4.858   6.646
13586TIP3    H240716   5.096   4.779   6.521
13587TIP3   OH240717   7.086   4.445   3.125
13587TIP3    H140718   7.020   4.398   3.176
13587TIP3    H240719   7.126   4.378   3.070
13588TIP3   OH240720   2.224   1.463   1.937
13588TIP3    H140721   2.200   1.387   1.989
13588TIP3    H240722   2.212   1.435   1.846
13589TIP3   OH240723   3.701   3.449   6.423
13589TIP3    H140724   3.652   3.402   6.355
13589TIP3    H240725   3.674   3.540   6.413
13590TIP3   OH240726   3.747   7.717   2.106
13590TIP3    H140727   3.655   7.719   2.081
13590TIP3    H240728   3.757   7.632   2.150
13591TIP3   OH240729   0.600   1.437   0.780
13591TIP3    H140730   0.637   1.525   0.778
13591TIP3    H240731   0.590   1.417   0.873
13592TIP3   OH240732   1.285   6.889   5.116
13592TIP3    H140733   1.230   6.966   5.102
13592TIP3    H240734   1.237   6.837   5.180
13593TIP3   OH240735   2.017   0.680   1.436
13593TIP3    H140736   2.017   0.684   1.341
13593TIP3    H240737   2.031   0.771   1.464
13594TIP3   OH240738   1.065   5.320   0.919
13594TIP3    H140739   1.013   5.363   0.851
13594TIP3    H240740   1.069   5.228   0.892
13595TIP3   OH240741   5.297   5.878   6.460
13595TIP3    H140742   5.229   5.866   6.526
13595TIP3    H240743   5.322   5.970   6.467
13596TIP3   OH240744   6.124   1.602   0.820
13596TIP3    H140745   6.125   1.670   0.888
13596TIP3    H240746   6.047   1.623   0.767
13597TIP3   OH240747   5.288   2.328   5.648
13597TIP3    H140748   5.288   2.324   5.743
13597TIP3    H240749   5.292   2.422   5.628
13598TIP3   OH240750   3.140   0.190   1.717
13598TIP3    H140751   3.093   0.115   1.753
13598TIP3    H240752   3.199   0.153   1.652
13599TIP3   OH240753   7.360   0.407   3.859
13599TIP3    H140754   7.391   0.328   3.815
13599TIP3    H240755   7.320   0.375   3.940
13600TIP3   OH240756   7.309   6.228   2.985
13600TIP3    H140757   7.367   6.223   3.061
13600TIP3    H240758   7.288   6.137   2.965
13601TIP3   OH240759   3.303   3.937   5.483
13601TIP3    H140760   3.256   3.977   5.557
13601TIP3    H240761   3.241   3.940   5.410
13602TIP3   OH240762   4.648   7.555   4.306
13602TIP3    H140763   4.731   7.508   4.302
13602TIP3    H240764   4.627   7.574   4.214
13603TIP3   OH240765   5.972   2.439   2.399
13603TIP3    H140766   6.029   2.486   2.338
13603TIP3    H240767   5.987   2.481   2.484
13604TIP3   OH240768   2.884   5.862   0.484
13604TIP3    H140769   2.797   5.839   0.454
13604TIP3    H240770   2.940   5.853   0.406
13605TIP3   OH240771   3.882   6.271   2.384
13605TIP3    H140772   3.919   6.316   2.460
13605TIP3    H240773   3.948   6.207   2.359
13606TIP3   OH240774   6.702   3.764   3.121
13606TIP3    H140775   6.730   3.674   3.140
13606TIP3    H240776   6.774   3.818   3.152
13607TIP3   OH240777   8.296   6.533   0.506
13607TIP3    H140778   8.223   6.485   0.468
13607TIP3    H240779   8.262   6.622   0.519
13608TIP3   OH240780   4.474   1.017   1.708
13608TIP3    H140781   4.536   0.990   1.775
13608TIP3    H240782   4.416   0.942   1.697
13609TIP3   OH240783   7.727   2.410   5.404
13609TIP3    H140784   7.761   2.429   5.316
13609TIP3    H240785   7.646   2.361   5.387
13610TIP3   OH240786   3.986   5.411   1.298
13610TIP3    H140787   4.014   5.501   1.312
13610TIP3    H240788   3.918   5.417   1.231
13611TIP3   OH240789   2.782   5.910   0.049
13611TIP3    H140790   2.704   5.927  -0.005
13611TIP3    H240791   2.766   5.824   0.087
13612TIP3   OH240792   2.927   3.474   5.658
13612TIP3    H140793   3.019   3.450   5.656
13612TIP3    H240794   2.925   3.563   5.693
13613TIP3   OH240795   3.430   1.809   3.458
13613TIP3    H140796   3.338   1.829   3.440
13613TIP3    H240797   3.462   1.883   3.509
13614TIP3   OH240798   5.511   3.362   0.302
13614TIP3    H140799   5.459   3.367   0.222
13614TIP3    H240800   5.555   3.447   0.308
13615TIP3   OH240801   0.625   5.331   3.739
13615TIP3    H140802   0.653   5.240   3.738
13615TIP3    H240803   0.635   5.358   3.831
13616TIP3   OH240804   4.498   0.100   4.950
13616TIP3    H140805   4.508   0.066   4.861
13616TIP3    H240806   4.445   0.034   4.995
13617TIP3   OH240807   4.047   0.675   4.706
13617TIP3    H140808   4.127   0.625   4.692
13617TIP3    H240809   4.023   0.658   4.797
13618TIP3   OH240810   4.473   0.829   5.172
13618TIP3    H140811   4.562   0.842   5.141
13618TIP3    H240812   4.461   0.734   5.175
13619TIP3   OH240813   6.192   6.088   2.055
13619TIP3    H140814   6.188   6.026   1.982
13619TIP3    H240815   6.209   6.034   2.132
13620TIP3   OH240816   0.820   5.686   6.785
13620TIP3    H140817   0.786   5.700   6.696
13620TIP3    H240818   0.788   5.761   6.835
13621TIP3   OH240819   2.179   6.475   5.841
13621TIP3    H140820   2.108   6.412   5.829
13621TIP3    H240821   2.179   6.526   5.760
13622TIP3   OH240822   6.228   1.226   3.262
13622TIP3    H140823   6.283   1.156   3.227
13622TIP3    H240824   6.186   1.188   3.338
13623TIP3   OH240825   2.185   7.096   1.191
13623TIP3    H140826   2.227   7.113   1.275
13623TIP3    H240827   2.257   7.091   1.129
13624TIP3   OH240828   1.296   2.056   2.630
13624TIP3    H140829   1.291   2.115   2.555
13624TIP3    H240830   1.296   2.114   2.706
13625TIP3   OH240831   4.749   5.514   6.292
13625TIP3    H140832   4.670   5.543   6.246
13625TIP3    H240833   4.784   5.443   6.238
13626TIP3   OH240834   2.739   3.710   3.486
13626TIP3    H140835   2.763   3.728   3.577
13626TIP3    H240836   2.709   3.619   3.487
13627TIP3   OH240837   8.020   7.653   6.522
13627TIP3    H140838   8.082   7.580   6.523
13627TIP3    H240839   7.964   7.637   6.447
13628TIP3   OH240840   3.930   2.349   0.938
13628TIP3    H140841   3.980   2.391   1.009
13628TIP3    H240842   3.865   2.296   0.983
13629TIP3   OH240843   1.875   5.279   1.324
13629TIP3    H140844   1.898   5.372   1.325
13629TIP3    H240845   1.919   5.242   1.400
13630TIP3   OH240846   6.837   5.137   4.154
13630TIP3    H140847   6.925   5.154   4.186
13630TIP3    H240848   6.780   5.194   4.206
13631TIP3   OH240849   0.321   5.794   1.400
13631TIP3    H140850   0.267   5.867   1.369
13631TIP3    H240851   0.306   5.724   1.336
13632TIP3   OH240852   3.224   0.105   4.133
13632TIP3    H140853   3.283   0.071   4.066
13632TIP3    H240854   3.144   0.052   4.123
13633TIP3   OH240855   3.982   1.464   3.581
13633TIP3    H140856   4.017   1.485   3.494
13633TIP3    H240857   4.044   1.504   3.642
13634TIP3   OH240858   2.353   5.799   5.188
13634TIP3    H140859   2.314   5.714   5.172
13634TIP3    H240860   2.381   5.796   5.280
13635TIP3   OH240861   0.270   6.051   3.010
13635TIP3    H140862   0.290   6.120   2.947
13635TIP3    H240863   0.352   6.001   3.017
13636TIP3   OH240864   4.436   6.338   4.323
13636TIP3    H140865   4.349   6.308   4.350
13636TIP3    H240866   4.450   6.418   4.374
13637TIP3   OH240867   7.237   6.839   4.072
13637TIP3    H140868   7.279   6.922   4.049
13637TIP3    H240869   7.189   6.858   4.153
13638TIP3   OH240870   1.422   2.395   2.661
13638TIP3    H140871   1.388   2.337   2.729
13638TIP3    H240872   1.504   2.355   2.634
13639TIP3   OH240873   7.673   7.663   1.904
13639TIP3    H140874   7.630   7.640   1.986
13639TIP3    H240875   7.616   7.629   1.835
13640TIP3   OH240876   7.297   0.732   2.733
13640TIP3    H140877   7.357   0.676   2.782
13640TIP3    H240878   7.291   0.690   2.647
13641TIP3   OH240879   4.949   1.301   1.593
13641TIP3    H140880   5.042   1.323   1.595
13641TIP3    H240881   4.933   1.261   1.679
13642TIP3   OH240882   4.207   6.006   3.134
13642TIP3    H140883   4.159   5.970   3.059
13642TIP3    H240884   4.149   6.074   3.169
13643TIP3   OH240885   4.575   0.047   6.191
13643TIP3    H140886   4.524   0.115   6.234
13643TIP3    H240887   4.514  -0.027   6.183
13644TIP3   OH240888   2.139   3.964   2.873
13644TIP3    H140889   2.123   3.970   2.779
13644TIP3    H240890   2.149   3.870   2.890
13645TIP3   OH240891   8.129   2.745   5.536
13645TIP3    H140892   8.073   2.677   5.498
13645TIP3    H240893   8.158   2.707   5.620
13646TIP3   OH240894   6.890   7.160   0.544
13646TIP3    H140895   6.871   7.075   0.583
13646TIP3    H240896   6.832   7.221   0.590
13647TIP3   OH240897   5.723   3.424   1.957
13647TIP3    H140898   5.648   3.373   1.926
13647TIP3    H240899   5.799   3.372   1.932
13648TIP3   OH240900   4.439   2.481   5.805
13648TIP3    H140901   4.411   2.500   5.894
13648TIP3    H240902   4.420   2.387   5.794
13649TIP3   OH240903   6.806   6.706   5.377
13649TIP3    H140904   6.890   6.692   5.420
13649TIP3    H240905   6.751   6.633   5.406
13650TIP3   OH240906   6.777   2.914   1.507
13650TIP3    H140907   6.699   2.906   1.453
13650TIP3    H240908   6.834   2.973   1.458
13651TIP3   OH240909   1.049   3.944   1.349
13651TIP3    H140910   1.119   3.892   1.389
13651TIP3    H240911   0.977   3.939   1.412
13652TIP3   OH240912   3.870   0.572   5.230
13652TIP3    H140913   3.801   0.527   5.181
13652TIP3    H240914   3.824   0.637   5.283
13653TIP3   OH240915   0.224   3.328   1.920
13653TIP3    H140916   0.172   3.257   1.883
13653TIP3    H240917   0.293   3.283   1.970
13654TIP3   OH240918   1.811   0.701   6.161
13654TIP3    H140919   1.893   0.693   6.209
13654TIP3    H240920   1.743   0.685   6.227
13655TIP3   OH240921   5.226   0.289   4.442
13655TIP3    H140922   5.131   0.282   4.431
13655TIP3    H240923   5.253   0.351   4.374
13656TIP3   OH240924   1.058   3.743   1.883
13656TIP3    H140925   0.995   3.814   1.871
13656TIP3    H240926   1.143   3.786   1.881
13657TIP3   OH240927   4.181   4.305   0.576
13657TIP3    H140928   4.109   4.345   0.624
13657TIP3    H240929   4.234   4.262   0.643
13658TIP3   OH240930   6.577   6.470   2.411
13658TIP3    H140931   6.591   6.532   2.482
13658TIP3    H240932   6.494   6.427   2.432
13659TIP3   OH240933   6.172   6.830   5.143
13659TIP3    H140934   6.220   6.875   5.213
13659TIP3    H240935   6.205   6.870   5.062
13660TIP3   OH240936   2.796   1.572   0.290
13660TIP3    H140937   2.846   1.498   0.256
13660TIP3    H240938   2.863   1.637   0.314
13661TIP3   OH240939   0.854   4.896   3.424
13661TIP3    H140940   0.779   4.873   3.480
13661TIP3    H240941   0.928   4.849   3.462
13662TIP3   OH240942   7.291   7.302   4.111
13662TIP3    H140943   7.241   7.251   4.174
13662TIP3    H240944   7.374   7.255   4.102
13663TIP3   OH240945   2.887   2.129   2.985
13663TIP3    H140946   2.869   2.215   2.947
13663TIP3    H240947   2.807   2.079   2.970
13664TIP3   OH240948   2.842   5.070   4.301
13664TIP3    H140949   2.852   5.018   4.381
13664TIP3    H240950   2.875   5.014   4.231
13665TIP3   OH240951   0.280   0.551   1.524
13665TIP3    H140952   0.273   0.512   1.611
13665TIP3    H240953   0.326   0.633   1.537
13666TIP3   OH240954   4.117   4.224   2.617
13666TIP3    H140955   4.113   4.133   2.588
13666TIP3    H240956   4.211   4.241   2.629
13667TIP3   OH240957   3.002   0.210   3.916
13667TIP3    H140958   2.969   0.132   3.871
13667TIP3    H240959   3.088   0.184   3.949
13668TIP3   OH240960   3.232   6.116   2.929
13668TIP3    H140961   3.227   6.084   2.838
13668TIP3    H240962   3.192   6.203   2.926
13669TIP3   OH240963   0.084   6.632   2.724
13669TIP3    H140964  -0.007   6.648   2.697
13669TIP3    H240965   0.137   6.676   2.658
13670TIP3   OH240966   4.291   3.917   2.787
13670TIP3    H140967   4.372   3.898   2.741
13670TIP3    H240968   4.312   3.989   2.846
13671TIP3   OH240969   1.160   1.603   4.160
13671TIP3    H140970   1.118   1.545   4.224
13671TIP3    H240971   1.253   1.581   4.166
13672TIP3   OH240972   8.153   4.209   6.366
13672TIP3    H140973   8.161   4.273   6.296
13672TIP3    H240974   8.088   4.246   6.426
13673TIP3   OH240975   5.090   7.493   3.764
13673TIP3    H140976   5.087   7.527   3.674
13673TIP3    H240977   5.183   7.488   3.784
13674TIP3   OH240978   3.944   5.893   0.608
13674TIP3    H140979   3.973   5.896   0.699
13674TIP3    H240980   3.972   5.976   0.571
13675TIP3   OH240981   7.942   5.022   1.945
13675TIP3    H140982   8.036   5.025   1.959
13675TIP3    H240983   7.931   4.965   1.868
13676TIP3   OH240984   1.356   1.880   1.518
13676TIP3    H140985   1.291   1.849   1.581
13676TIP3    H240986   1.435   1.830   1.540
13677TIP3   OH240987   2.290   6.065   4.320
13677TIP3    H140988   2.307   6.159   4.312
13677TIP3    H240989   2.234   6.044   4.246
13678TIP3   OH240990   4.227   1.898   3.100
13678TIP3    H140991   4.184   1.835   3.043
13678TIP3    H240992   4.165   1.970   3.108
13679TIP3   OH240993   2.682   6.576   0.830
13679TIP3    H140994   2.703   6.484   0.850
13679TIP3    H240995   2.648   6.574   0.740
13680TIP3   OH240996   5.304   1.430   0.638
13680TIP3    H140997   5.349   1.374   0.574
13680TIP3    H240998   5.212   1.406   0.630
13681TIP3   OH240999   7.599   1.591   2.016
13681TIP3    H141000   7.608   1.620   2.107
13681TIP3    H241001   7.607   1.496   2.020
13682TIP3   OH241002   2.971   1.704   2.506
13682TIP3    H141003   3.011   1.746   2.430
13682TIP3    H241004   2.877   1.715   2.492
13683TIP3   OH241005   2.230   0.976   0.607
13683TIP3    H141006   2.279   0.927   0.540
13683TIP3    H241007   2.298   1.020   0.659
13684TIP3   OH241008   2.892   4.679   6.197
13684TIP3    H141009   2.915   4.766   6.166
13684TIP3    H241010   2.939   4.669   6.280
13685TIP3   OH241011   5.768   1.246   1.106
13685TIP3    H141012   5.778   1.211   1.194
13685TIP3    H241013   5.844   1.303   1.094
13686TIP3   OH241014   0.457   1.223   6.178
13686TIP3    H141015   0.532   1.178   6.217
13686TIP3    H241016   0.399   1.152   6.151
13687TIP3   OH241017   1.742   3.119   2.059
13687TIP3    H141018   1.788   3.037   2.042
13687TIP3    H241019   1.748   3.131   2.153
13688TIP3   OH241020   5.970   3.518   4.311
13688TIP3    H141021   5.983   3.560   4.226
13688TIP3    H241022   6.007   3.579   4.374
13689TIP3   OH241023   7.878   1.439   1.616
13689TIP3    H141024   7.863   1.392   1.699
13689TIP3    H241025   7.954   1.494   1.633
13690TIP3   OH241026   3.974   2.998   5.778
13690TIP3    H141027   4.056   3.036   5.746
13690TIP3    H241028   4.000   2.946   5.854
13691TIP3   OH241029   1.378   1.805   5.180
13691TIP3    H141030   1.393   1.770   5.268
13691TIP3    H241031   1.408   1.896   5.185
13692TIP3   OH241032   5.029   3.089   2.476
13692TIP3    H141033   5.006   3.174   2.439
13692TIP3    H241034   4.999   3.025   2.411
13693TIP3   OH241035   1.831   6.911   3.197
13693TIP3    H141036   1.921   6.880   3.213
13693TIP3    H241037   1.830   6.933   3.103
13694TIP3   OH241038   3.990   7.310   6.662
13694TIP3    H141039   4.049   7.384   6.678
13694TIP3    H241040   4.043   7.249   6.610
13695TIP3   OH241041   2.709   3.696   2.720
13695TIP3    H141042   2.646   3.751   2.765
13695TIP3    H241043   2.656   3.632   2.673
13696TIP3   OH241044   3.419   6.916   3.353
13696TIP3    H141045   3.461   6.941   3.271
13696TIP3    H241046   3.333   6.958   3.350
13697TIP3   OH241047   0.234   1.006   5.495
13697TIP3    H141048   0.315   1.051   5.472
13697TIP3    H241049   0.261   0.917   5.519
13698TIP3   OH241050   7.902   0.374   1.988
13698TIP3    H141051   7.886   0.350   2.080
13698TIP3    H241052   7.958   0.451   1.993
13699TIP3   OH241053   2.620   4.946   0.530
13699TIP3    H141054   2.541   4.959   0.478
13699TIP3    H241055   2.621   4.852   0.549
13700TIP3   OH241056   5.381   1.193   3.561
13700TIP3    H141057   5.470   1.195   3.526
13700TIP3    H241058   5.345   1.109   3.532
13701TIP3   OH241059   1.456   3.402   1.893
13701TIP3    H141060   1.415   3.399   1.806
13701TIP3    H241061   1.395   3.355   1.950
13702TIP3   OH241062   0.934   6.839   5.077
13702TIP3    H141063   0.858   6.815   5.024
13702TIP3    H241064   0.946   6.764   5.137
13703TIP3   OH241065   3.217   4.517   6.667
13703TIP3    H141066   3.264   4.528   6.584
13703TIP3    H241067   3.259   4.579   6.727
13704TIP3   OH241068   5.202   3.996   3.331
13704TIP3    H141069   5.221   4.014   3.239
13704TIP3    H241070   5.159   4.076   3.362
13705TIP3   OH241071   0.859   6.127   1.869
13705TIP3    H141072   0.898   6.075   1.939
13705TIP3    H241073   0.916   6.203   1.860
13706TIP3   OH241074   0.268   3.051   0.934
13706TIP3    H141075   0.188   3.103   0.940
13706TIP3    H241076   0.327   3.104   0.881
13707TIP3   OH241077   3.712   5.780   2.421
13707TIP3    H141078   3.803   5.763   2.445
13707TIP3    H241079   3.665   5.702   2.452
13708TIP3   OH241080   3.009   2.712   6.380
13708TIP3    H141081   3.082   2.677   6.431
13708TIP3    H241082   3.015   2.807   6.391
13709TIP3   OH241083   1.428   5.920   3.851
13709TIP3    H141084   1.516   5.883   3.846
13709TIP3    H241085   1.370   5.849   3.825
13710TIP3   OH241086   8.032   0.794   2.048
13710TIP3    H141087   8.053   0.823   2.137
13710TIP3    H241088   8.060   0.866   1.992
13711TIP3   OH241089   2.452   6.378   4.584
13711TIP3    H141090   2.445   6.372   4.489
13711TIP3    H241091   2.422   6.466   4.605
13712TIP3   OH241092   6.897   7.549   0.222
13712TIP3    H141093   6.968   7.572   0.163
13712TIP3    H241094   6.905   7.611   0.295
13713TIP3   OH241095   4.341   3.363   1.122
13713TIP3    H141096   4.378   3.283   1.160
13713TIP3    H241097   4.314   3.415   1.197
13714TIP3   OH241098   2.260   7.092   0.452
13714TIP3    H141099   2.172   7.115   0.422
13714TIP3    H241100   2.312   7.089   0.371
13715TIP3   OH241101   4.465   3.167   4.155
13715TIP3    H141102   4.518   3.138   4.080
13715TIP3    H241103   4.466   3.093   4.215
13716TIP3   OH241104   4.650   7.723   6.056
13716TIP3    H141105   4.681   7.650   6.003
13716TIP3    H241106   4.585   7.684   6.115
13717TIP3   OH241107   4.446   0.933   3.501
13717TIP3    H141108   4.412   0.910   3.415
13717TIP3    H241109   4.538   0.954   3.486
13718TIP3   OH241110   8.200   6.684   2.999
13718TIP3    H141111   8.276   6.656   3.051
13718TIP3    H241112   8.236   6.747   2.937
13719TIP3   OH241113   6.743   2.048   2.104
13719TIP3    H141114   6.832   2.019   2.122
13719TIP3    H241115   6.744   2.142   2.124
13720TIP3   OH241116   0.645   6.194   3.383
13720TIP3    H141117   0.598   6.135   3.441
13720TIP3    H241118   0.590   6.199   3.304
13721TIP3   OH241119   2.793   7.258   0.431
13721TIP3    H141120   2.716   7.211   0.400
13721TIP3    H241121   2.861   7.191   0.437
13722TIP3   OH241122   0.634   7.797   0.310
13722TIP3    H141123   0.676   7.717   0.276
13722TIP3    H241124   0.697   7.867   0.290
13723TIP3   OH241125   0.835   1.163   0.876
13723TIP3    H141126   0.889   1.086   0.894
13723TIP3    H241127   0.857   1.224   0.946
13724TIP3   OH241128   6.438   2.909   3.259
13724TIP3    H141129   6.509   2.948   3.310
13724TIP3    H241130   6.405   2.838   3.315
13725TIP3   OH241131   8.194   1.566   4.995
13725TIP3    H141132   8.191   1.471   4.988
13725TIP3    H241133   8.231   1.595   4.911
13726TIP3   OH241134   7.838   2.431   5.167
13726TIP3    H141135   7.784   2.479   5.104
13726TIP3    H241136   7.840   2.342   5.133
13727TIP3   OH241137   1.506   1.676   6.250
13727TIP3    H141138   1.435   1.683   6.186
13727TIP3    H241139   1.566   1.748   6.228
13728TIP3   OH241140   4.736   5.591   3.209
13728TIP3    H141141   4.809   5.643   3.173
13728TIP3    H241142   4.734   5.613   3.302
13729TIP3   OH241143   5.326   0.147   4.087
13729TIP3    H141144   5.342   0.109   4.001
13729TIP3    H241145   5.319   0.241   4.071
13730TIP3   OH241146   4.977   0.473   3.140
13730TIP3    H141147   5.058   0.428   3.115
13730TIP3    H241148   4.976   0.469   3.236
13731TIP3   OH241149   0.111   0.036   2.920
13731TIP3    H141150   0.194   0.016   2.963
13731TIP3    H241151   0.136   0.066   2.833
13732TIP3   OH241152   5.345   5.797   4.948
13732TIP3    H141153   5.284   5.783   4.876
13732TIP3    H241154   5.335   5.889   4.972
13733TIP3   OH241155   2.439   2.407   6.520
13733TIP3    H141156   2.397   2.325   6.493
13733TIP3    H241157   2.463   2.393   6.611
13734TIP3   OH241158   6.570   6.686   5.976
13734TIP3    H141159   6.476   6.669   5.976
13734TIP3    H241160   6.591   6.707   6.067
13735TIP3   OH241161   6.501   2.265   4.533
13735TIP3    H141162   6.461   2.260   4.446
13735TIP3    H241163   6.447   2.328   4.581
13736TIP3   OH241164   4.196   1.558   6.333
13736TIP3    H141165   4.147   1.638   6.314
13736TIP3    H241166   4.221   1.525   6.247
13737TIP3   OH241167   0.676   3.644   4.193
13737TIP3    H141168   0.658   3.577   4.260
13737TIP3    H241169   0.592   3.660   4.151
13738TIP3   OH241170   0.349   6.312   5.510
13738TIP3    H141171   0.417   6.272   5.456
13738TIP3    H241172   0.384   6.308   5.599
13739TIP3   OH241173   1.238   4.265   2.191
13739TIP3    H141174   1.176   4.240   2.121
13739TIP3    H241175   1.187   4.322   2.248
13740TIP3   OH241176   1.256   3.348   3.848
13740TIP3    H141177   1.230   3.257   3.861
13740TIP3    H241178   1.246   3.389   3.934
13741TIP3   OH241179   0.171   1.479   0.077
13741TIP3    H141180   0.075   1.477   0.073
13741TIP3    H241181   0.198   1.403   0.025
13742TIP3   OH241182   7.817   3.342   2.293
13742TIP3    H141183   7.838   3.287   2.368
13742TIP3    H241184   7.738   3.390   2.319
13743TIP3   OH241185   0.167   4.569   6.187
13743TIP3    H141186   0.135   4.540   6.272
13743TIP3    H241187   0.095   4.622   6.151
13744TIP3   OH241188   2.970   4.668   6.455
13744TIP3    H141189   2.980   4.747   6.507
13744TIP3    H241190   3.059   4.635   6.443
13745TIP3   OH241191   7.634   7.247   3.667
13745TIP3    H141192   7.727   7.229   3.680
13745TIP3    H241193   7.607   7.182   3.601
13746TIP3   OH241194   1.521   0.090   4.739
13746TIP3    H141195   1.487   0.014   4.692
13746TIP3    H241196   1.527   0.062   4.830
13747TIP3   OH241197   6.482   5.495   1.540
13747TIP3    H141198   6.573   5.475   1.562
13747TIP3    H241199   6.430   5.432   1.591
13748TIP3   OH241200   7.518   5.324   1.002
13748TIP3    H141201   7.606   5.300   0.971
13748TIP3    H241202   7.522   5.314   1.097
13749TIP3   OH241203   7.291   3.488   2.177
13749TIP3    H141204   7.268   3.535   2.097
13749TIP3    H241205   7.243   3.533   2.246
13750TIP3   OH241206   0.424   7.726   0.151
13750TIP3    H141207   0.497   7.765   0.200
13750TIP3    H241208   0.380   7.802   0.111
13751TIP3   OH241209   6.144   5.161   6.528
13751TIP3    H141210   6.080   5.106   6.483
13751TIP3    H241211   6.096   5.239   6.553
13752TIP3   OH241212   6.395   4.434   0.109
13752TIP3    H141213   6.425   4.468   0.194
13752TIP3    H241214   6.471   4.444   0.052
13753TIP3   OH241215   8.136   7.493   6.176
13753TIP3    H141216   8.044   7.515   6.189
13753TIP3    H241217   8.181   7.534   6.250
13754TIP3   OH241218   2.304   1.074   5.421
13754TIP3    H141219   2.377   1.135   5.432
13754TIP3    H241220   2.273   1.089   5.331
13755TIP3   OH241221   0.646   1.117   1.222
13755TIP3    H141222   0.590   1.040   1.211
13755TIP3    H241223   0.585   1.190   1.234
13756TIP3   OH241224   6.574   1.152   5.937
13756TIP3    H141225   6.499   1.130   5.991
13756TIP3    H241226   6.638   1.189   5.998
13757TIP3   OH241227   1.896   1.423   6.531
13757TIP3    H141228   1.963   1.391   6.590
13757TIP3    H241229   1.904   1.369   6.453
13758TIP3   OH241230   4.163   3.307   3.049
13758TIP3    H141231   4.126   3.395   3.048
13758TIP3    H241232   4.135   3.270   3.133
13759TIP3   OH241233   2.641   4.049   5.942
13759TIP3    H141234   2.668   4.108   5.871
13759TIP3    H241235   2.598   4.107   6.005
13760TIP3   OH241236   4.127   6.432   0.569
13760TIP3    H141237   4.083   6.347   0.560
13760TIP3    H241238   4.180   6.439   0.489
13761TIP3   OH241239   1.983   3.709   1.783
13761TIP3    H141240   1.953   3.784   1.833
13761TIP3    H241241   2.034   3.746   1.711
13762TIP3   OH241242   2.833   3.571   4.590
13762TIP3    H141243   2.834   3.667   4.588
13762TIP3    H241244   2.756   3.549   4.642
13763TIP3   OH241245   1.470   0.842   1.503
13763TIP3    H141246   1.481   0.786   1.426
13763TIP3    H241247   1.542   0.904   1.498
13764TIP3   OH241248   5.120   3.127   0.074
13764TIP3    H141249   5.141   3.156   0.163
13764TIP3    H241250   5.202   3.091   0.040
13765TIP3   OH241251   2.327   4.815   0.660
13765TIP3    H141252   2.275   4.753   0.710
13765TIP3    H241253   2.288   4.814   0.572
13766TIP3   OH241254   0.960   3.893   2.269
13766TIP3    H141255   0.882   3.869   2.220
13766TIP3    H241256   1.030   3.894   2.204
13767TIP3   OH241257   5.096   3.061   0.394
13767TIP3    H141258   5.001   3.050   0.401
13767TIP3    H241259   5.126   2.985   0.344
13768TIP3   OH241260   0.241   4.476   0.819
13768TIP3    H141261   0.150   4.446   0.818
13768TIP3    H241262   0.238   4.564   0.782
13769TIP3   OH241263   7.591   0.999   5.882
13769TIP3    H141264   7.635   1.066   5.934
13769TIP3    H241265   7.662   0.950   5.841
13770TIP3   OH241266   6.632   5.005   4.542
13770TIP3    H141267   6.635   4.953   4.462
13770TIP3    H241268   6.718   4.994   4.582
13771TIP3   OH241269   5.372   1.163   5.744
13771TIP3    H141270   5.419   1.222   5.803
13771TIP3    H241271   5.286   1.153   5.784
13772TIP3   OH241272   1.604   1.751   0.614
13772TIP3    H141273   1.592   1.741   0.709
13772TIP3    H241274   1.525   1.712   0.576
13773TIP3   OH241275   5.169   4.102   1.450
13773TIP3    H141276   5.163   4.038   1.521
13773TIP3    H241277   5.086   4.092   1.403
13774TIP3   OH241278   4.798   7.227   6.614
13774TIP3    H141279   4.746   7.225   6.695
13774TIP3    H241280   4.883   7.192   6.640
13775TIP3   OH241281   4.827   0.942   5.716
13775TIP3    H141282   4.861   0.894   5.641
13775TIP3    H241283   4.782   1.017   5.678
13776TIP3   OH241284   4.755   0.585   5.789
13776TIP3    H141285   4.824   0.582   5.723
13776TIP3    H241286   4.705   0.664   5.768
13777TIP3   OH241287   6.917   2.906   4.774
13777TIP3    H141288   6.924   2.890   4.868
13777TIP3    H241289   6.989   2.856   4.735
13778TIP3   OH241290   4.891   3.693   5.268
13778TIP3    H141291   4.874   3.602   5.244
13778TIP3    H241292   4.956   3.723   5.204
13779TIP3   OH241293   2.623   6.279   5.005
13779TIP3    H141294   2.709   6.322   5.016
13779TIP3    H241295   2.560   6.351   5.011
13780TIP3   OH241296   2.556   3.042   3.751
13780TIP3    H141297   2.620   3.099   3.794
13780TIP3    H241298   2.475   3.092   3.753
13781TIP3   OH241299   6.793   2.359   1.852
13781TIP3    H141300   6.768   2.361   1.944
13781TIP3    H241301   6.888   2.358   1.852
13782TIP3   OH241302   2.305   6.621   3.490
13782TIP3    H141303   2.392   6.626   3.529
13782TIP3    H241304   2.320   6.583   3.403
13783TIP3   OH241305   8.073   6.821   5.635
13783TIP3    H141306   8.093   6.828   5.542
13783TIP3    H241307   8.047   6.729   5.647
13784TIP3   OH241308   2.154   5.025   3.059
13784TIP3    H141309   2.147   4.995   2.968
13784TIP3    H241310   2.214   4.963   3.100
13785TIP3   OH241311   2.294   2.061   3.259
13785TIP3    H141312   2.229   2.023   3.200
13785TIP3    H241313   2.375   2.063   3.207
13786TIP3   OH241314   4.115   3.371   2.362
13786TIP3    H141315   4.158   3.296   2.403
13786TIP3    H241316   4.046   3.396   2.423
13787TIP3   OH241317   3.261   3.548   1.252
13787TIP3    H141318   3.353   3.553   1.278
13787TIP3    H241319   3.220   3.625   1.290
13788TIP3   OH241320   0.280   0.294   3.225
13788TIP3    H141321   0.359   0.301   3.173
13788TIP3    H241322   0.276   0.202   3.252
13789TIP3   OH241323   7.555   5.719   0.885
13789TIP3    H141324   7.640   5.735   0.844
13789TIP3    H241325   7.524   5.637   0.846
13790TIP3   OH241326   0.261   7.007   0.260
13790TIP3    H141327   0.193   6.970   0.204
13790TIP3    H241328   0.218   7.020   0.345
13791TIP3   OH241329   1.348   5.046   4.668
13791TIP3    H141330   1.437   5.077   4.686
13791TIP3    H241331   1.297   5.126   4.655
13792TIP3   OH241332   6.419   3.860   3.671
13792TIP3    H141333   6.452   3.935   3.722
13792TIP3    H241334   6.418   3.891   3.581
13793TIP3   OH241335   7.256   1.050   3.709
13793TIP3    H141336   7.298   1.091   3.784
13793TIP3    H241337   7.203   0.980   3.747
13794TIP3   OH241338   2.525   5.044   4.491
13794TIP3    H141339   2.490   4.995   4.417
13794TIP3    H241340   2.467   5.120   4.500
13795TIP3   OH241341   0.970   1.711   2.699
13795TIP3    H141342   0.935   1.788   2.744
13795TIP3    H241343   1.001   1.654   2.769
13796TIP3   OH241344   4.170   7.787   6.713
13796TIP3    H141345   4.178   7.753   6.802
13796TIP3    H241346   4.084   7.830   6.711
13797TIP3   OH241347   4.563   6.194   0.775
13797TIP3    H141348   4.486   6.138   0.779
13797TIP3    H241349   4.606   6.182   0.860
13798TIP3   OH241350   1.356   7.283   4.880
13798TIP3    H141351   1.437   7.328   4.857
13798TIP3    H241352   1.358   7.202   4.830
13799TIP3   OH241353   4.547   6.620   3.829
13799TIP3    H141354   4.628   6.663   3.802
13799TIP3    H241355   4.478   6.673   3.789
13800TIP3   OH241356   5.276   3.795   5.667
13800TIP3    H141357   5.341   3.856   5.702
13800TIP3    H241358   5.194   3.844   5.669
13801TIP3   OH241359   0.118   0.639   5.195
13801TIP3    H141360   0.030   0.602   5.185
13801TIP3    H241361   0.139   0.623   5.287
13802TIP3   OH241362   8.045   1.123   4.390
13802TIP3    H141363   8.107   1.068   4.437
13802TIP3    H241364   7.974   1.138   4.453
13803TIP3   OH241365   5.317   4.457   2.910
13803TIP3    H141366   5.278   4.462   2.823
13803TIP3    H241367   5.339   4.547   2.932
13804TIP3   OH241368   3.500   3.189   0.400
13804TIP3    H141369   3.560   3.115   0.414
13804TIP3    H241370   3.417   3.160   0.437
13805TIP3   OH241371   2.085   5.335   5.681
13805TIP3    H141372   2.035   5.408   5.644
13805TIP3    H241373   2.174   5.369   5.690
13806TIP3   OH241374   0.821   6.106   0.244
13806TIP3    H141375   0.863   6.192   0.250
13806TIP3    H241376   0.732   6.121   0.275
13807TIP3   OH241377   8.041   2.867   4.647
13807TIP3    H141378   7.999   2.786   4.675
13807TIP3    H241379   8.052   2.917   4.728
13808TIP3   OH241380   6.469   6.704   4.551
13808TIP3    H141381   6.434   6.788   4.580
13808TIP3    H241382   6.395   6.644   4.554
13809TIP3   OH241383   5.717   4.215   1.985
13809TIP3    H141384   5.625   4.223   2.009
13809TIP3    H241385   5.747   4.136   2.030
13810TIP3   OH241386   3.777   7.313   3.524
13810TIP3    H141387   3.733   7.263   3.593
13810TIP3    H241388   3.867   7.280   3.523
13811TIP3   OH241389   1.075   5.108   3.131
13811TIP3    H141390   1.153   5.133   3.182
13811TIP3    H241391   1.060   5.017   3.154
13812TIP3   OH241392   3.987   4.089   6.628
13812TIP3    H141393   3.987   4.183   6.646
13812TIP3    H241394   3.897   4.061   6.648
13813TIP3   OH241395   7.818   2.701   4.082
13813TIP3    H141396   7.749   2.636   4.092
13813TIP3    H241397   7.895   2.651   4.057
13814TIP3   OH241398   7.778   2.985   5.593
13814TIP3    H141399   7.763   2.926   5.520
13814TIP3    H241400   7.783   2.928   5.670
13815TIP3   OH241401   2.171   4.975   4.114
13815TIP3    H141402   2.208   4.989   4.027
13815TIP3    H241403   2.096   4.918   4.100
13816TIP3   OH241404   2.223   3.551   1.478
13816TIP3    H141405   2.216   3.513   1.565
13816TIP3    H241406   2.136   3.544   1.440
13817TIP3   OH241407   3.055   2.252   3.842
13817TIP3    H141408   2.998   2.199   3.786
13817TIP3    H241409   3.127   2.194   3.864
13818TIP3   OH241410   7.266   7.170   3.753
13818TIP3    H141411   7.216   7.152   3.674
13818TIP3    H241412   7.335   7.230   3.725
13819TIP3   OH241413   4.895   0.053   0.760
13819TIP3    H141414   4.877   0.132   0.710
13819TIP3    H241415   4.879   0.077   0.851
13820TIP3   OH241416   6.758   6.267   4.956
13820TIP3    H141417   6.670   6.230   4.968
13820TIP3    H241418   6.787   6.234   4.871
13821TIP3   OH241419   3.566   0.179   4.719
13821TIP3    H141420   3.578   0.218   4.632
13821TIP3    H241421   3.623   0.103   4.718
13822TIP3   OH241422   6.261   0.904   1.501
13822TIP3    H141423   6.353   0.883   1.487
13822TIP3    H241424   6.260   0.957   1.581
13823TIP3   OH241425   3.298   6.513   5.862
13823TIP3    H141426   3.256   6.497   5.946
13823TIP3    H241427   3.235   6.480   5.797
13824TIP3   OH241428   4.630   0.256   2.495
13824TIP3    H141429   4.557   0.313   2.474
13824TIP3    H241430   4.676   0.299   2.567
13825TIP3   OH241431   7.359   7.064   3.982
13825TIP3    H141432   7.303   7.120   3.928
13825TIP3    H241433   7.427   7.033   3.923
13826TIP3   OH241434   8.105   1.607   6.676
13826TIP3    H141435   8.173   1.660   6.716
13826TIP3    H241436   8.142   1.519   6.672
13827TIP3   OH241437   6.543   3.154   6.360
13827TIP3    H141438   6.496   3.175   6.441
13827TIP3    H241439   6.526   3.061   6.346
13828TIP3   OH241440   1.008   7.708   5.600
13828TIP3    H141441   0.998   7.777   5.666
13828TIP3    H241442   0.923   7.705   5.556
13829TIP3   OH241443   1.446   7.271   1.838
13829TIP3    H141444   1.465   7.204   1.772
13829TIP3    H241445   1.527   7.278   1.889
13830TIP3   OH241446   6.467   0.621   5.421
13830TIP3    H141447   6.389   0.591   5.374
13830TIP3    H241448   6.467   0.716   5.408
13831TIP3   OH241449   8.268   3.741   5.383
13831TIP3    H141450   8.281   3.807   5.315
13831TIP3    H241451   8.272   3.658   5.337
13832TIP3   OH241452   2.715   6.259   5.323
13832TIP3    H141453   2.784   6.236   5.261
13832TIP3    H241454   2.634   6.231   5.280
13833TIP3   OH241455   0.826   5.560   6.223
13833TIP3    H141456   0.785   5.643   6.199
13833TIP3    H241457   0.752   5.504   6.247
13834TIP3   OH241458   5.547   3.536   6.050
13834TIP3    H141459   5.627   3.561   6.096
13834TIP3    H241460   5.499   3.619   6.039
13835TIP3   OH241461   4.993   0.116   2.598
13835TIP3    H141462   4.966   0.073   2.679
13835TIP3    H241463   5.089   0.111   2.598
13836TIP3   OH241464   6.235   6.480   2.532
13836TIP3    H141465   6.199   6.429   2.459
13836TIP3    H241466   6.247   6.415   2.602
13837TIP3   OH241467   1.608   3.613   1.669
13837TIP3    H141468   1.635   3.529   1.630
13837TIP3    H241469   1.684   3.640   1.721
13838TIP3   OH241470   5.583   1.003   6.554
13838TIP3    H141471   5.663   0.984   6.505
13838TIP3    H241472   5.578   0.934   6.620
13839TIP3   OH241473   3.758   6.076   1.812
13839TIP3    H141474   3.724   6.017   1.744
13839TIP3    H241475   3.852   6.074   1.800
13840TIP3   OH241476   0.074   2.712   5.405
13840TIP3    H141477   0.118   2.652   5.465
13840TIP3    H241478  -0.015   2.719   5.438
13841TIP3   OH241479   0.315   0.275   1.832
13841TIP3    H141480   0.280   0.361   1.810
13841TIP3    H241481   0.239   0.221   1.851
13842TIP3   OH241482   3.452   3.650   4.478
13842TIP3    H141483   3.435   3.701   4.399
13842TIP3    H241484   3.470   3.561   4.446
13843TIP3   OH241485   3.058   6.606   4.630
13843TIP3    H141486   3.032   6.638   4.544
13843TIP3    H241487   3.145   6.569   4.618
13844TIP3   OH241488   0.893   6.794   3.622
13844TIP3    H141489   0.949   6.839   3.558
13844TIP3    H241490   0.919   6.702   3.616
13845TIP3   OH241491   1.998   3.510   1.326
13845TIP3    H141492   1.981   3.602   1.308
13845TIP3    H241493   1.919   3.464   1.296
13846TIP3   OH241494   1.473   2.967   1.398
13846TIP3    H141495   1.398   2.930   1.351
13846TIP3    H241496   1.457   3.062   1.398
13847TIP3   OH241497   3.025   0.240   1.406
13847TIP3    H141498   2.936   0.276   1.410
13847TIP3    H241499   3.045   0.233   1.313
13848TIP3   OH241500   0.262   7.258   6.321
13848TIP3    H141501   0.320   7.189   6.287
13848TIP3    H241502   0.182   7.211   6.347
13849TIP3   OH241503   1.378   5.528   6.384
13849TIP3    H141504   1.404   5.438   6.402
13849TIP3    H241505   1.286   5.532   6.406
13850TIP3   OH241506   7.547   1.314   2.017
13850TIP3    H141507   7.551   1.236   2.073
13850TIP3    H241508   7.459   1.312   1.979
13851TIP3   OH241509   3.229   2.048   6.632
13851TIP3    H141510   3.263   2.084   6.550
13851TIP3    H241511   3.220   2.124   6.690
13852TIP3   OH241512   6.802   2.350   3.074
13852TIP3    H141513   6.860   2.395   3.136
13852TIP3    H241514   6.813   2.257   3.094
13853TIP3   OH241515   0.584   6.874   4.148
13853TIP3    H141516   0.677   6.855   4.159
13853TIP3    H241517   0.564   6.845   4.059
13854TIP3   OH241518   6.977   3.329   1.590
13854TIP3    H141519   7.069   3.342   1.610
13854TIP3    H241520   6.956   3.399   1.527
13855TIP3   OH241521   5.574   2.394   2.941
13855TIP3    H141522   5.605   2.378   3.031
13855TIP3    H241523   5.479   2.406   2.950
13856TIP3   OH241524   2.985   0.914   5.863
13856TIP3    H141525   2.933   0.933   5.941
13856TIP3    H241526   2.934   0.849   5.815
13857TIP3   OH241527   3.097   4.479   4.784
13857TIP3    H141528   3.181   4.520   4.765
13857TIP3    H241529   3.034   4.551   4.783
13858TIP3   OH241530   0.534   3.465   1.040
13858TIP3    H141531   0.612   3.419   1.010
13858TIP3    H241532   0.461   3.408   1.015
13859TIP3   OH241533   6.714   3.543   5.788
13859TIP3    H141534   6.728   3.587   5.872
13859TIP3    H241535   6.697   3.614   5.726
13860TIP3   OH241536   6.671   5.890   6.666
13860TIP3    H141537   6.683   5.795   6.656
13860TIP3    H241538   6.758   5.922   6.691
13861TIP3   OH241539   8.253   0.921   1.122
13861TIP3    H141540   8.305   0.994   1.155
13861TIP3    H241541   8.316   0.850   1.109
13862TIP3   OH241542   2.501   4.131   3.316
13862TIP3    H141543   2.516   4.046   3.357
13862TIP3    H241544   2.408   4.133   3.297
13863TIP3   OH241545   0.651   2.743   3.559
13863TIP3    H141546   0.701   2.748   3.478
13863TIP3    H241547   0.711   2.772   3.628
13864TIP3   OH241548   7.532   5.780   3.360
13864TIP3    H141549   7.506   5.694   3.327
13864TIP3    H241550   7.453   5.833   3.354
13865TIP3   OH241551   3.584   4.811   3.456
13865TIP3    H141552   3.664   4.843   3.498
13865TIP3    H241553   3.514   4.838   3.515
13866TIP3   OH241554   2.279   4.792   3.176
13866TIP3    H141555   2.208   4.753   3.124
13866TIP3    H241556   2.359   4.758   3.136
13867TIP3   OH241557   2.654   3.281   0.924
13867TIP3    H141558   2.620   3.228   0.852
13867TIP3    H241559   2.581   3.289   0.985
13868TIP3   OH241560   1.284   6.800   2.353
13868TIP3    H141561   1.205   6.840   2.390
13868TIP3    H241562   1.259   6.774   2.264
13869TIP3   OH241563   0.009   1.628   4.748
13869TIP3    H141564  -0.039   1.619   4.666
13869TIP3    H241565   0.097   1.655   4.722
13870TIP3   OH241566   6.245   0.945   6.492
13870TIP3    H141567   6.244   0.950   6.588
13870TIP3    H241568   6.263   1.035   6.464
13871TIP3   OH241569   3.134   3.140   1.097
13871TIP3    H141570   3.070   3.211   1.102
13871TIP3    H241571   3.200   3.161   1.163
13872TIP3   OH241572   1.852   7.507   5.610
13872TIP3    H141573   1.763   7.488   5.638
13872TIP3    H241574   1.851   7.601   5.591
13873TIP3   OH241575   2.193   4.858   1.699
13873TIP3    H141576   2.121   4.844   1.638
13873TIP3    H241577   2.226   4.771   1.719
13874TIP3   OH241578   3.963   3.066   0.491
13874TIP3    H141579   3.921   3.080   0.406
13874TIP3    H241580   3.956   2.972   0.505
13875TIP3   OH241581   6.686   0.536   4.259
13875TIP3    H141582   6.692   0.608   4.322
13875TIP3    H241583   6.615   0.560   4.200
13876TIP3   OH241584   3.996   6.199   3.177
13876TIP3    H141585   3.922   6.162   3.227
13876TIP3    H241586   3.955   6.247   3.105
13877TIP3   OH241587   3.687   6.453   5.515
13877TIP3    H141588   3.683   6.363   5.548
13877TIP3    H241589   3.634   6.503   5.577
13878TIP3   OH241590   0.458   3.062   1.612
13878TIP3    H141591   0.531   3.061   1.673
13878TIP3    H241592   0.428   2.971   1.608
13879TIP3   OH241593   5.809   7.092   2.714
13879TIP3    H141594   5.869   7.164   2.732
13879TIP3    H241595   5.823   7.073   2.621
13880TIP3   OH241596   1.546   0.911   4.634
13880TIP3    H141597   1.499   0.828   4.641
13880TIP3    H241598   1.496   0.972   4.689
13881TIP3   OH241599   4.815   1.913   6.256
13881TIP3    H141600   4.826   1.945   6.166
13881TIP3    H241601   4.885   1.955   6.305
13882TIP3   OH241602   6.370   6.500   4.814
13882TIP3    H141603   6.461   6.497   4.843
13882TIP3    H241604   6.355   6.414   4.775
13883TIP3   OH241605   4.826   2.032   6.005
13883TIP3    H141606   4.852   2.122   6.021
13883TIP3    H241607   4.749   2.038   5.949
13884TIP3   OH241608   2.124   6.139   5.210
13884TIP3    H141609   2.191   6.148   5.277
13884TIP3    H241610   2.168   6.162   5.129
13885TIP3   OH241611   8.219   1.354   6.514
13885TIP3    H141612   8.287   1.321   6.455
13885TIP3    H241613   8.218   1.292   6.587
13886TIP3   OH241614   3.561   2.561   1.599
13886TIP3    H141615   3.547   2.467   1.595
13886TIP3    H241616   3.475   2.599   1.583
13887TIP3   OH241617   7.383   2.169   2.540
13887TIP3    H141618   7.308   2.226   2.525
13887TIP3    H241619   7.346   2.081   2.547
13888TIP3   OH241620   4.938   6.913   6.201
13888TIP3    H141621   4.914   6.989   6.148
13888TIP3    H241622   4.854   6.874   6.225
13889TIP3   OH241623   0.700   2.881   4.326
13889TIP3    H141624   0.625   2.829   4.297
13889TIP3    H241625   0.666   2.969   4.338
13890TIP3   OH241626   6.667   3.436   5.005
13890TIP3    H141627   6.621   3.482   4.934
13890TIP3    H241628   6.682   3.348   4.971
13891TIP3   OH241629   2.882   2.197   1.322
13891TIP3    H141630   2.977   2.209   1.332
13891TIP3    H241631   2.872   2.104   1.301
13892TIP3   OH241632   0.362   3.900   5.262
13892TIP3    H141633   0.384   3.948   5.341
13892TIP3    H241634   0.268   3.914   5.249
13893TIP3   OH241635   0.107   6.090   2.559
13893TIP3    H141636   0.068   6.177   2.550
13893TIP3    H241637   0.039   6.031   2.526
13894TIP3   OH241638   8.305   1.438   1.083
13894TIP3    H141639   8.317   1.533   1.084
13894TIP3    H241640   8.242   1.422   1.012
13895TIP3   OH241641   0.695   4.305   6.405
13895TIP3    H141642   0.655   4.373   6.351
13895TIP3    H241643   0.779   4.342   6.433
13896TIP3   OH241644   2.530   7.309   1.146
13896TIP3    H141645   2.464   7.363   1.189
13896TIP3    H241646   2.480   7.245   1.095
13897TIP3   OH241647   1.193   6.297   0.763
13897TIP3    H141648   1.218   6.215   0.720
13897TIP3    H241649   1.098   6.301   0.753
13898TIP3   OH241650   0.355   0.449   3.419
13898TIP3    H141651   0.319   0.404   3.343
13898TIP3    H241652   0.302   0.528   3.428
13899TIP3   OH241653   7.704   6.018   4.382
13899TIP3    H141654   7.784   6.019   4.435
13899TIP3    H241655   7.647   6.082   4.424
13900TIP3   OH241656   0.348   1.528   2.099
13900TIP3    H141657   0.393   1.450   2.131
13900TIP3    H241658   0.332   1.580   2.177
13901TIP3   OH241659   7.955   7.133   2.997
13901TIP3    H141660   7.893   7.084   3.052
13901TIP3    H241661   8.008   7.065   2.955
13902TIP3   OH241662   2.680   6.675   5.293
13902TIP3    H141663   2.613   6.717   5.240
13902TIP3    H241664   2.742   6.638   5.230
13903TIP3   OH241665   2.614   3.302   2.323
13903TIP3    H141666   2.574   3.245   2.389
13903TIP3    H241667   2.688   3.251   2.289
13904TIP3   OH241668   4.411   2.997   4.378
13904TIP3    H141669   4.473   3.033   4.442
13904TIP3    H241670   4.326   3.031   4.406
13905TIP3   OH241671   8.002   7.345   2.756
13905TIP3    H141672   8.012   7.377   2.846
13905TIP3    H241673   8.088   7.308   2.734
13906TIP3   OH241674   8.106   2.104   0.769
13906TIP3    H141675   8.096   2.178   0.830
13906TIP3    H241676   8.185   2.060   0.798
13907TIP3   OH241677   4.260   2.938   6.770
13907TIP3    H141678   4.323   2.914   6.838
13907TIP3    H241679   4.301   2.910   6.689
13908TIP3   OH241680   4.052   2.944   5.112
13908TIP3    H141681   4.143   2.958   5.136
13908TIP3    H241682   4.002   2.991   5.179
13909TIP3   OH241683   5.266   4.726   1.186
13909TIP3    H141684   5.199   4.793   1.203
13909TIP3    H241685   5.349   4.769   1.206
13910TIP3   OH241686   1.538   3.798   1.948
13910TIP3    H141687   1.556   3.717   1.996
13910TIP3    H241688   1.481   3.771   1.876
13911TIP3   OH241689   3.065   4.170   1.439
13911TIP3    H141690   3.034   4.197   1.525
13911TIP3    H241691   2.994   4.116   1.404
13912TIP3   OH241692   3.870   0.894   3.697
13912TIP3    H141693   3.815   0.972   3.699
13912TIP3    H241694   3.924   0.901   3.776
13913TIP3   OH241695   7.947   3.400   2.631
13913TIP3    H141696   8.035   3.418   2.599
13913TIP3    H241697   7.898   3.480   2.612
13914TIP3   OH241698   8.010   4.138   3.015
13914TIP3    H141699   8.104   4.143   3.029
13914TIP3    H241700   7.971   4.157   3.100
13915TIP3   OH241701   3.176   4.819   1.271
13915TIP3    H141702   3.138   4.892   1.221
13915TIP3    H241703   3.102   4.761   1.288
13916TIP3   OH241704   3.709   0.458   1.248
13916TIP3    H141705   3.659   0.402   1.188
13916TIP3    H241706   3.688   0.547   1.219
13917TIP3   OH241707   1.717   6.338   0.695
13917TIP3    H141708   1.754   6.411   0.646
13917TIP3    H241709   1.657   6.379   0.757
13918TIP3   OH241710   3.203   0.580   6.482
13918TIP3    H141711   3.253   0.643   6.534
13918TIP3    H241712   3.263   0.551   6.414
13919TIP3   OH241713   3.946   0.280   4.869
13919TIP3    H141714   4.003   0.212   4.833
13919TIP3    H241715   3.880   0.294   4.801
13920TIP3   OH241716   7.969   3.525   0.872
13920TIP3    H141717   7.882   3.558   0.849
13920TIP3    H241718   7.951   3.444   0.920
13921TIP3   OH241719   1.636   5.749   0.178
13921TIP3    H141720   1.672   5.808   0.112
13921TIP3    H241721   1.542   5.745   0.159
13922TIP3   OH241722   0.386   2.237   3.787
13922TIP3    H141723   0.432   2.191   3.858
13922TIP3    H241724   0.320   2.175   3.756
13923TIP3   OH241725   1.800   6.986   2.599
13923TIP3    H141726   1.787   6.895   2.573
13923TIP3    H241727   1.731   7.004   2.663
13924TIP3   OH241728   3.245   4.691   3.910
13924TIP3    H141729   3.268   4.678   4.002
13924TIP3    H241730   3.300   4.765   3.882
13925TIP3   OH241731   2.338   7.367   2.814
13925TIP3    H141732   2.274   7.330   2.753
13925TIP3    H241733   2.303   7.347   2.900
13926TIP3   OH241734   1.545   1.767   2.214
13926TIP3    H141735   1.452   1.777   2.231
13926TIP3    H241736   1.550   1.723   2.129
13927TIP3   OH241737   0.746   5.842   3.817
13927TIP3    H141738   0.652   5.858   3.808
13927TIP3    H241739   0.774   5.904   3.884
13928TIP3   OH241740   7.091   6.751   5.258
13928TIP3    H141741   7.163   6.804   5.224
13928TIP3    H241742   7.126   6.711   5.337
13929TIP3   OH241743   5.591   0.533   6.737
13929TIP3    H141744   5.545   0.616   6.750
13929TIP3    H241745   5.528   0.466   6.763
13930TIP3   OH241746   0.619   6.622   2.986
13930TIP3    H141747   0.532   6.598   2.953
13930TIP3    H241748   0.602   6.674   3.065
13931TIP3   OH241749   1.440   6.397   4.247
13931TIP3    H141750   1.409   6.480   4.212
13931TIP3    H241751   1.492   6.358   4.177
13932TIP3   OH241752   0.223   2.098   4.089
13932TIP3    H141753   0.286   2.108   4.161
13932TIP3    H241754   0.143   2.067   4.132
13933TIP3   OH241755   4.043   5.998   6.177
13933TIP3    H141756   4.010   5.916   6.141
13933TIP3    H241757   3.990   6.013   6.255
13934TIP3   OH241758   2.650   7.567   3.152
13934TIP3    H141759   2.637   7.641   3.211
13934TIP3    H241760   2.578   7.574   3.089
13935TIP3   OH241761   0.210   4.086   2.918
13935TIP3    H141762   0.273   4.017   2.897
13935TIP3    H241763   0.256   4.168   2.897
13936TIP3   OH241764   2.417   7.096   1.022
13936TIP3    H141765   2.439   7.006   0.997
13936TIP3    H241766   2.355   7.125   0.956
13937TIP3   OH241767   7.534   0.679   5.976
13937TIP3    H141768   7.549   0.601   6.029
13937TIP3    H241769   7.618   0.697   5.935
13938TIP3   OH241770   4.474   5.019   2.989
13938TIP3    H141771   4.533   5.066   2.930
13938TIP3    H241772   4.430   4.955   2.933
13939TIP3   OH241773   3.394   2.366   2.991
13939TIP3    H141774   3.438   2.292   3.034
13939TIP3    H241775   3.353   2.414   3.063
13940TIP3   OH241776   7.350   0.902   6.190
13940TIP3    H141777   7.439   0.917   6.222
13940TIP3    H241778   7.349   0.940   6.102
13941TIP3   OH241779   4.799   0.224   3.294
13941TIP3    H141780   4.751   0.142   3.294
13941TIP3    H241781   4.859   0.216   3.369
13942TIP3   OH241782   3.846   3.654   5.706
13942TIP3    H141783   3.794   3.667   5.627
13942TIP3    H241784   3.823   3.728   5.762
13943TIP3   OH241785   1.394   5.983   2.843
13943TIP3    H141786   1.358   5.952   2.925
13943TIP3    H241787   1.465   6.043   2.869
13944TIP3   OH241788   2.442   7.579   5.256
13944TIP3    H141789   2.411   7.560   5.167
13944TIP3    H241790   2.452   7.674   5.258
13945TIP3   OH241791   0.415   2.049   2.973
13945TIP3    H141792   0.419   1.957   2.999
13945TIP3    H241793   0.500   2.066   2.932
13946TIP3   OH241794   3.701   7.752   1.293
13946TIP3    H141795   3.724   7.844   1.309
13946TIP3    H241796   3.607   7.748   1.311
13947TIP3   OH241797   6.286   1.566   2.273
13947TIP3    H141798   6.319   1.634   2.331
13947TIP3    H241799   6.283   1.608   2.187
13948TIP3   OH241800   2.974   1.966   1.969
13948TIP3    H141801   2.943   1.998   2.054
13948TIP3    H241802   2.914   2.004   1.906
13949TIP3   OH241803   3.865   1.314   2.755
13949TIP3    H141804   3.784   1.333   2.708
13949TIP3    H241805   3.837   1.283   2.841
13950TIP3   OH241806   3.670   1.688   1.986
13950TIP3    H141807   3.655   1.770   1.939
13950TIP3    H241808   3.737   1.643   1.934
13951TIP3   OH241809   4.548   2.355   4.447
13951TIP3    H141810   4.622   2.296   4.435
13951TIP3    H241811   4.493   2.312   4.512
13952TIP3   OH241812   5.614   0.490   0.054
13952TIP3    H141813   5.534   0.515   0.101
13952TIP3    H241814   5.685   0.525   0.107
13953TIP3   OH241815   0.820   6.234   3.164
13953TIP3    H141816   0.755   6.228   3.235
13953TIP3    H241817   0.822   6.146   3.127
13954TIP3   OH241818   4.585   3.766   5.566
13954TIP3    H141819   4.519   3.831   5.591
13954TIP3    H241820   4.544   3.717   5.494
13955TIP3   OH241821   3.528   4.331   5.779
13955TIP3    H141822   3.599   4.395   5.777
13955TIP3    H241823   3.499   4.324   5.689
13956TIP3   OH241824   6.382  -0.035   4.544
13956TIP3    H141825   6.306   0.018   4.570
13956TIP3    H241826   6.444   0.027   4.506
13957TIP3   OH241827   4.613   0.822   1.880
13957TIP3    H141828   4.598   0.881   1.954
13957TIP3    H241829   4.611   0.734   1.919
13958TIP3   OH241830   7.480   1.962   1.477
13958TIP3    H141831   7.425   1.922   1.544
13958TIP3    H241832   7.484   2.054   1.502
13959TIP3   OH241833   2.245   0.150   1.639
13959TIP3    H141834   2.155   0.183   1.647
13959TIP3    H241835   2.275   0.186   1.556
13960TIP3   OH241836   0.301   0.932   3.069
13960TIP3    H141837   0.350   0.911   3.148
13960TIP3    H241838   0.334   0.871   3.003
13961TIP3   OH241839   7.821   0.686   0.224
13961TIP3    H141840   7.827   0.615   0.287
13961TIP3    H241841   7.765   0.752   0.266
13962TIP3   OH241842   5.533   0.020   0.800
13962TIP3    H141843   5.539   0.103   0.754
13962TIP3    H241844   5.608   0.021   0.860
13963TIP3   OH241845   1.331   4.287   0.790
13963TIP3    H141846   1.241   4.298   0.757
13963TIP3    H241847   1.348   4.366   0.841
13964TIP3   OH241848   5.398   7.321   3.061
13964TIP3    H141849   5.330   7.379   3.095
13964TIP3    H241850   5.352   7.265   2.998
13965TIP3   OH241851   3.897   6.710   6.479
13965TIP3    H141852   3.900   6.805   6.488
13965TIP3    H241853   3.898   6.695   6.384
13966TIP3   OH241854   7.853   5.144   4.600
13966TIP3    H141855   7.915   5.188   4.659
13966TIP3    H241856   7.851   5.199   4.522
13967TIP3   OH241857   2.209   7.740   4.087
13967TIP3    H141858   2.200   7.834   4.105
13967TIP3    H241859   2.298   7.719   4.112
13968TIP3   OH241860   6.193   5.173   6.146
13968TIP3    H141861   6.110   5.210   6.118
13968TIP3    H241862   6.239   5.245   6.189
13969TIP3   OH241863   6.115   0.580   1.017
13969TIP3    H141864   6.172   0.656   1.002
13969TIP3    H241865   6.114   0.570   1.112
13970TIP3   OH241866   6.201   3.568   1.254
13970TIP3    H141867   6.262   3.512   1.205
13970TIP3    H241868   6.115   3.548   1.216
13971TIP3   OH241869   1.677   5.447   6.314
13971TIP3    H141870   1.623   5.449   6.392
13971TIP3    H241871   1.616   5.437   6.242
13972TIP3   OH241872   4.844   7.085   4.278
13972TIP3    H141873   4.896   7.055   4.353
13972TIP3    H241874   4.757   7.101   4.313
13973TIP3   OH241875   1.740   2.092   1.959
13973TIP3    H141876   1.656   2.126   1.928
13973TIP3    H241877   1.763   2.023   1.896
13974TIP3   OH241878   3.824   2.250   1.159
13974TIP3    H141879   3.842   2.175   1.215
13974TIP3    H241880   3.891   2.314   1.182
13975TIP3   OH241881   1.031   6.670   4.360
13975TIP3    H141882   0.962   6.646   4.298
13975TIP3    H241883   0.996   6.647   4.446
13976TIP3   OH241884   6.465   3.164   0.102
13976TIP3    H141885   6.521   3.240   0.107
13976TIP3    H241886   6.497   3.114   0.027
13977TIP3   OH241887   3.387   6.447   3.158
13977TIP3    H141888   3.303   6.483   3.129
13977TIP3    H241889   3.425   6.409   3.078
13978TIP3   OH241890   6.313   2.484   0.100
13978TIP3    H141891   6.275   2.560   0.057
13978TIP3    H241892   6.264   2.409   0.066
13979TIP3   OH241893   5.391   3.158   0.726
13979TIP3    H141894   5.455   3.087   0.724
13979TIP3    H241895   5.412   3.206   0.807
13980TIP3   OH241896   2.334   6.083   3.026
13980TIP3    H141897   2.291   6.167   3.012
13980TIP3    H241898   2.394   6.099   3.099
13981TIP3   OH241899   5.938   4.383   3.494
13981TIP3    H141900   5.859   4.437   3.486
13981TIP3    H241901   5.906   4.296   3.519
13982TIP3   OH241902   1.954   6.232   0.896
13982TIP3    H141903   1.982   6.306   0.950
13982TIP3    H241904   1.912   6.273   0.820
13983TIP3   OH241905   1.547   6.387   3.990
13983TIP3    H141906   1.627   6.380   3.937
13983TIP3    H241907   1.476   6.372   3.928
13984TIP3   OH241908   7.772   4.026   0.420
13984TIP3    H141909   7.766   3.944   0.370
13984TIP3    H241910   7.766   4.000   0.511
13985TIP3   OH241911   1.223   2.256   2.405
13985TIP3    H141912   1.191   2.301   2.327
13985TIP3    H241913   1.152   2.264   2.469
13986TIP3   OH241914   8.040   3.344   4.745
13986TIP3    H141915   8.060   3.302   4.829
13986TIP3    H241916   8.105   3.308   4.685
13987TIP3   OH241917   6.855   2.351   0.206
13987TIP3    H141918   6.863   2.403   0.286
13987TIP3    H241919   6.766   2.369   0.174
13988TIP3   OH241920   0.935   1.007   1.059
13988TIP3    H141921   0.932   1.029   1.152
13988TIP3    H241922   0.862   0.947   1.046
13989TIP3   OH241923   0.209   5.458   6.727
13989TIP3    H141924   0.139   5.411   6.771
13989TIP3    H241925   0.165   5.524   6.674
13990TIP3   OH241926   3.621   5.942   5.710
13990TIP3    H141927   3.525   5.933   5.706
13990TIP3    H241928   3.637   6.032   5.682
13991TIP3   OH241929   7.898   3.315   6.187
13991TIP3    H141930   7.954   3.392   6.183
13991TIP3    H241931   7.855   3.321   6.272
13992TIP3   OH241932   6.125   7.468   5.333
13992TIP3    H141933   6.092   7.387   5.372
13992TIP3    H241934   6.210   7.483   5.375
13993TIP3   OH241935   0.192   5.870   2.240
13993TIP3    H141936   0.271   5.877   2.186
13993TIP3    H241937   0.208   5.795   2.297
13994TIP3   OH241938   7.839   2.822   6.229
13994TIP3    H141939   7.861   2.757   6.163
13994TIP3    H241940   7.874   2.786   6.311
13995TIP3   OH241941   4.333   6.902   0.265
13995TIP3    H141942   4.330   6.806   0.265
13995TIP3    H241943   4.424   6.923   0.242
13996TIP3   OH241944   6.932   5.919   1.539
13996TIP3    H141945   6.849   5.881   1.509
13996TIP3    H241946   6.999   5.871   1.491
13997TIP3   OH241947   6.937   0.908   4.572
13997TIP3    H141948   6.998   0.856   4.520
13997TIP3    H241949   6.976   0.909   4.660
13998TIP3   OH241950   3.421   6.120   3.463
13998TIP3    H141951   3.364   6.096   3.389
13998TIP3    H241952   3.483   6.182   3.425
13999TIP3   OH241953   2.617   6.018   2.156
13999TIP3    H141954   2.701   6.061   2.141
13999TIP3    H241955   2.640   5.933   2.195
14000TIP3   OH241956   3.043   2.845   0.451
14000TIP3    H141957   2.961   2.867   0.495
14000TIP3    H241958   3.021   2.841   0.358
14001TIP3   OH241959   2.002   7.669   0.079
14001TIP3    H141960   2.032   7.757   0.057
14001TIP3    H241961   2.033   7.655   0.169
14002TIP3   OH241962   0.691   3.621   4.596
14002TIP3    H141963   0.597   3.628   4.611
14002TIP3    H241964   0.718   3.545   4.648
14003TIP3   OH241965   0.996   1.203   1.762
14003TIP3    H141966   1.066   1.248   1.715
14003TIP3    H241967   0.921   1.262   1.757
14004TIP3   OH241968   0.185   5.578   5.100
14004TIP3    H141969   0.259   5.526   5.072
14004TIP3    H241970   0.223   5.648   5.153
14005TIP3   OH241971   5.636   3.472   4.276
14005TIP3    H141972   5.699   3.450   4.207
14005TIP3    H241973   5.565   3.409   4.264
14006TIP3   OH241974   6.317   1.091   5.773
14006TIP3    H141975   6.325   1.117   5.865
14006TIP3    H241976   6.233   1.129   5.745
14007TIP3   OH241977   8.166   7.185   0.119
14007TIP3    H141978   8.096   7.221   0.065
14007TIP3    H241979   8.135   7.196   0.209
14008TIP3   OH241980   1.193   0.358   5.944
14008TIP3    H141981   1.251   0.397   5.879
14008TIP3    H241982   1.136   0.299   5.894
14009TIP3   OH241983   7.518   3.933   0.535
14009TIP3    H141984   7.424   3.942   0.518
14009TIP3    H241985   7.553   3.892   0.457
14010TIP3   OH241986   7.356   0.850   4.147
14010TIP3    H141987   7.357   0.841   4.052
14010TIP3    H241988   7.313   0.770   4.178
14011TIP3   OH241989   1.208   4.121   2.689
14011TIP3    H141990   1.210   4.206   2.645
14011TIP3    H241991   1.128   4.079   2.656
14012TIP3   OH241992   6.035   5.632   6.010
14012TIP3    H141993   6.059   5.544   5.981
14012TIP3    H241994   6.111   5.686   5.988
14013TIP3   OH241995   6.589   4.052   0.608
14013TIP3    H141996   6.519   4.020   0.550
14013TIP3    H241997   6.664   3.996   0.588
14014TIP3   OH241998   4.047   1.307   3.310
14014TIP3    H141999   3.982   1.249   3.270
14014TIP3    H242000   4.106   1.330   3.239
14015TIP3   OH242001   6.000   3.582   5.255
14015TIP3    H142002   5.931   3.603   5.193
14015TIP3    H242003   5.974   3.626   5.336
14016TIP3   OH242004   3.448   5.936   6.531
14016TIP3    H142005   3.445   5.840   6.524
14016TIP3    H242006   3.522   5.953   6.589
14017TIP3   OH242007   1.805   7.764   4.726
14017TIP3    H142008   1.867   7.692   4.736
14017TIP3    H242009   1.725   7.723   4.696
14018TIP3   OH242010   3.172   7.106   4.320
14018TIP3    H142011   3.258   7.148   4.328
14018TIP3    H242012   3.191   7.012   4.328
14019TIP3   OH242013   2.465   2.543   0.481
14019TIP3    H142014   2.491   2.633   0.462
14019TIP3    H242015   2.372   2.539   0.460
14020TIP3   OH242016   3.875   5.430   5.126
14020TIP3    H142017   3.830   5.411   5.043
14020TIP3    H242018   3.941   5.495   5.102
14021TIP3   OH242019   5.833   2.789   2.662
14021TIP3    H142020   5.755   2.734   2.657
14021TIP3    H242021   5.820   2.855   2.594
14022TIP3   OH242022   0.861   1.927   2.869
14022TIP3    H142023   0.802   1.983   2.920
14022TIP3    H242024   0.948   1.963   2.886
14023TIP3   OH242025   0.931   4.177   0.923
14023TIP3    H142026   0.927   4.124   1.003
14023TIP3    H242027   0.945   4.267   0.955
14024TIP3   OH242028   4.236   0.680   6.546
14024TIP3    H142029   4.221   0.687   6.452
14024TIP3    H242030   4.215   0.589   6.566
14025TIP3   OH242031   7.046   7.433   5.679
14025TIP3    H142032   7.082   7.346   5.699
14025TIP3    H242033   7.003   7.422   5.594
14026TIP3   OH242034   5.812   5.605   0.825
14026TIP3    H142035   5.835   5.697   0.840
14026TIP3    H242036   5.895   5.562   0.806
14027TIP3   OH242037   5.286   0.188   0.536
14027TIP3    H142038   5.301   0.124   0.466
14027TIP3    H242039   5.240   0.139   0.604
14028TIP3   OH242040   2.885   0.164   2.391
14028TIP3    H142041   2.869   0.138   2.482
14028TIP3    H242042   2.951   0.233   2.397
14029TIP3   OH242043   3.489   2.832   2.439
14029TIP3    H142044   3.421   2.770   2.466
14029TIP3    H242045   3.568   2.802   2.484
14030TIP3   OH242046   5.291   5.781   5.881
14030TIP3    H142047   5.274   5.870   5.911
14030TIP3    H242048   5.210   5.733   5.898
14031TIP3   OH242049   6.313   0.567   3.131
14031TIP3    H142050   6.385   0.629   3.126
14031TIP3    H242051   6.300   0.537   3.042
14032TIP3   OH242052   3.956   4.670   1.139
14032TIP3    H142053   3.906   4.672   1.220
14032TIP3    H242054   4.033   4.617   1.159
14033TIP3   OH242055   4.857   6.975   4.766
14033TIP3    H142056   4.793   7.046   4.763
14033TIP3    H242057   4.816   6.908   4.822
14034TIP3   OH242058   4.882   1.609   2.315
14034TIP3    H142059   4.914   1.694   2.287
14034TIP3    H242060   4.944   1.580   2.381
14035TIP3   OH242061   0.425   7.125   5.203
14035TIP3    H142062   0.486   7.119   5.277
14035TIP3    H242063   0.478   7.155   5.130
14036TIP3   OH242064   2.177   1.223   2.048
14036TIP3    H142065   2.115   1.151   2.038
14036TIP3    H242066   2.252   1.184   2.092
14037TIP3   OH242067   6.838   4.844   4.600
14037TIP3    H142068   6.853   4.882   4.687
14037TIP3    H242069   6.925   4.844   4.559
14038TIP3   OH242070   7.888   7.665   6.294
14038TIP3    H142071   7.874   7.658   6.199
14038TIP3    H242072   7.820   7.724   6.324
14039TIP3   OH242073   3.202   0.101   4.509
14039TIP3    H142074   3.292   0.131   4.499
14039TIP3    H242075   3.149   0.175   4.479
14040TIP3   OH242076   1.297   2.088   5.875
14040TIP3    H142077   1.347   2.157   5.830
14040TIP3    H242078   1.310   2.010   5.821
14041TIP3   OH242079   7.413   2.497   6.411
14041TIP3    H142080   7.391   2.560   6.343
14041TIP3    H242081   7.508   2.498   6.416
14042TIP3   OH242082   4.536   3.129   5.247
14042TIP3    H142083   4.572   3.068   5.311
14042TIP3    H242084   4.562   3.092   5.162
14043TIP3   OH242085   2.056   1.826   3.214
14043TIP3    H142086   2.030   1.738   3.186
14043TIP3    H242087   1.976   1.864   3.250
14044TIP3   OH242088   1.430   4.869   0.212
14044TIP3    H142089   1.445   4.952   0.167
14044TIP3    H242090   1.337   4.871   0.235
14045TIP3   OH242091   6.326   2.751   3.455
14045TIP3    H142092   6.231   2.763   3.468
14045TIP3    H242093   6.365   2.791   3.533
14046TIP3   OH242094   3.512   2.112   6.229
14046TIP3    H142095   3.543   2.186   6.176
14046TIP3    H242096   3.590   2.058   6.242
14047TIP3   OH242097   7.478   7.434   4.547
14047TIP3    H142098   7.527   7.454   4.467
14047TIP3    H242099   7.545   7.430   4.615
14048TIP3   OH242100   4.778   6.437   2.592
14048TIP3    H142101   4.843   6.491   2.637
14048TIP3    H242102   4.694   6.474   2.618
14049TIP3   OH242103   4.894   2.754   2.821
14049TIP3    H142104   4.959   2.725   2.756
14049TIP3    H242105   4.867   2.674   2.866
14050TIP3   OH242106   0.444   4.594   2.842
14050TIP3    H142107   0.496   4.674   2.851
14050TIP3    H242108   0.387   4.593   2.920
14051TIP3   OH242109   0.083   3.550   3.330
14051TIP3    H142110   0.122   3.540   3.417
14051TIP3    H242111   0.054   3.463   3.306
14052TIP3   OH242112   8.191   5.208   2.833
14052TIP3    H142113   8.137   5.284   2.812
14052TIP3    H242114   8.130   5.135   2.834
14053TIP3   OH242115   7.976   5.717   1.525
14053TIP3    H142116   7.995   5.730   1.618
14053TIP3    H242117   7.884   5.741   1.516
14054TIP3   OH242118   7.823   4.070   0.701
14054TIP3    H142119   7.918   4.074   0.704
14054TIP3    H242120   7.795   4.161   0.692
14055TIP3   OH242121   5.383   4.389   4.582
14055TIP3    H142122   5.295   4.357   4.602
14055TIP3    H242123   5.428   4.391   4.667
14056TIP3   OH242124   1.078   1.490   5.020
14056TIP3    H142125   1.160   1.525   4.986
14056TIP3    H242126   1.030   1.464   4.941
14057TIP3   OH242127   6.972   2.596   2.213
14057TIP3    H142128   6.878   2.609   2.228
14057TIP3    H242129   6.989   2.508   2.247
14058TIP3   OH242130   5.775   4.159   3.519
14058TIP3    H142131   5.761   4.069   3.550
14058TIP3    H242132   5.688   4.194   3.505
14059TIP3   OH242133   2.296   5.825   2.171
14059TIP3    H142134   2.308   5.835   2.077
14059TIP3    H242135   2.385   5.831   2.207
14060TIP3   OH242136   6.113   4.246   3.862
14060TIP3    H142137   6.111   4.156   3.895
14060TIP3    H242138   6.111   4.237   3.767
14061TIP3   OH242139   2.257   6.742   4.370
14061TIP3    H142140   2.198   6.796   4.316
14061TIP3    H242141   2.326   6.714   4.310
14062TIP3   OH242142   6.148   5.773   3.189
14062TIP3    H142143   6.143   5.801   3.280
14062TIP3    H242144   6.242   5.773   3.169
14063TIP3   OH242145   0.938   5.317   2.800
14063TIP3    H142146   0.937   5.222   2.785
14063TIP3    H242147   1.031   5.340   2.806
14064TIP3   OH242148   6.415   2.590   1.234
14064TIP3    H142149   6.357   2.516   1.216
14064TIP3    H242150   6.447   2.617   1.148
14065TIP3   OH242151   0.611   5.416   0.096
14065TIP3    H142152   0.520   5.390   0.083
14065TIP3    H242153   0.659   5.333   0.103
14066TIP3   OH242154   4.277   3.181   2.135
14066TIP3    H142155   4.202   3.217   2.182
14066TIP3    H242156   4.299   3.248   2.071
14067TIP3   OH242157   0.323   0.398   1.315
14067TIP3    H142158   0.327   0.309   1.348
14067TIP3    H242159   0.294   0.450   1.390
14068TIP3   OH242160   2.574   7.345   5.260
14068TIP3    H142161   2.516   7.421   5.267
14068TIP3    H242162   2.635   7.354   5.333
14069TIP3   OH242163   2.565   3.677   4.509
14069TIP3    H142164   2.487   3.631   4.476
14069TIP3    H242165   2.550   3.685   4.603
14070TIP3   OH242166   0.179   0.745   1.116
14070TIP3    H142167   0.247   0.760   1.051
14070TIP3    H242168   0.207   0.795   1.192
14071TIP3   OH242169   2.268   6.097   4.008
14071TIP3    H142170   2.359   6.082   3.980
14071TIP3    H242171   2.267   6.187   4.039
14072TIP3   OH242172   3.449   2.274   1.519
14072TIP3    H142173   3.358   2.256   1.543
14072TIP3    H242174   3.464   2.221   1.441
14073TIP3   OH242175   2.511   7.570   6.682
14073TIP3    H142176   2.452   7.527   6.743
14073TIP3    H242177   2.591   7.585   6.733
14074TIP3   OH242178   6.019   3.651   5.534
14074TIP3    H142179   6.098   3.662   5.588
14074TIP3    H242180   5.954   3.613   5.594
14075TIP3   OH242181   4.858   7.639   5.418
14075TIP3    H142182   4.802   7.633   5.341
14075TIP3    H242183   4.936   7.686   5.388
14076TIP3   OH242184   2.463   5.469   3.810
14076TIP3    H142185   2.487   5.386   3.851
14076TIP3    H242186   2.381   5.494   3.851
14077TIP3   OH242187   4.255   7.444   0.568
14077TIP3    H142188   4.332   7.388   0.569
14077TIP3    H242189   4.182   7.384   0.550
14078TIP3   OH242190   5.972   0.540   4.299
14078TIP3    H142191   5.977   0.636   4.297
14078TIP3    H242192   5.957   0.515   4.208
14079TIP3   OH242193   3.745   4.583   2.273
14079TIP3    H142194   3.743   4.583   2.177
14079TIP3    H242195   3.726   4.673   2.298
14080TIP3   OH242196   7.626   3.644   2.805
14080TIP3    H142197   7.621   3.566   2.861
14080TIP3    H242198   7.684   3.703   2.852
14081TIP3   OH242199   3.157   4.192   5.144
14081TIP3    H142200   3.243   4.217   5.178
14081TIP3    H242201   3.166   4.099   5.120
14082TIP3   OH242202   4.564   0.147   6.578
14082TIP3    H142203   4.534   0.158   6.668
14082TIP3    H242204   4.608   0.062   6.577
14083TIP3   OH242205   1.848   6.207   1.571
14083TIP3    H142206   1.825   6.184   1.481
14083TIP3    H242207   1.864   6.301   1.569
14084TIP3   OH242208   4.276   0.460   6.255
14084TIP3    H142209   4.185   0.452   6.283
14084TIP3    H242210   4.322   0.393   6.306
14085TIP3   OH242211   4.195   7.679   2.264
14085TIP3    H142212   4.163   7.687   2.174
14085TIP3    H242213   4.192   7.769   2.298
14086TIP3   OH242214   4.563   2.148   1.678
14086TIP3    H142215   4.508   2.133   1.600
14086TIP3    H242216   4.597   2.237   1.666
14087TIP3   OH242217   1.120   3.624   3.803
14087TIP3    H142218   1.125   3.652   3.894
14087TIP3    H242219   1.124   3.529   3.807
14088TIP3   OH242220   2.123   0.750   5.414
14088TIP3    H142221   2.037   0.772   5.377
14088TIP3    H242222   2.144   0.664   5.377
14089TIP3   OH242223   0.337   0.296   5.661
14089TIP3    H142224   0.273   0.225   5.656
14089TIP3    H242225   0.337   0.322   5.753
14090TIP3   OH242226   2.458   7.469   1.389
14090TIP3    H142227   2.456   7.562   1.366
14090TIP3    H242228   2.551   7.450   1.403
14091TIP3   OH242229   1.421   3.725   6.009
14091TIP3    H142230   1.439   3.818   6.005
14091TIP3    H242231   1.327   3.719   6.027
14092TIP3   OH242232   2.430   3.437   3.938
14092TIP3    H142233   2.432   3.489   3.858
14092TIP3    H242234   2.510   3.461   3.985
14093TIP3   OH242235   4.836   1.446   0.195
14093TIP3    H142236   4.924   1.446   0.231
14093TIP3    H242237   4.835   1.517   0.131
14094TIP3   OH242238   0.794   6.732   5.693
14094TIP3    H142239   0.778   6.825   5.708
14094TIP3    H242240   0.720   6.702   5.640
14095TIP3   OH242241   0.854   0.562   0.833
14095TIP3    H142242   0.901   0.485   0.863
14095TIP3    H242243   0.837   0.612   0.912
14096TIP3   OH242244   6.994   4.762   3.877
14096TIP3    H142245   6.916   4.796   3.921
14096TIP3    H242246   7.066   4.814   3.912
14097TIP3   OH242247   6.431   2.891   2.969
14097TIP3    H142248   6.426   2.980   2.934
14097TIP3    H242249   6.414   2.901   3.062
14098TIP3   OH242250   6.098   2.562   2.173
14098TIP3    H142251   6.176   2.533   2.126
14098TIP3    H242252   6.127   2.639   2.221
14099TIP3   OH242253   2.538   4.209   4.531
14099TIP3    H142254   2.580   4.124   4.518
14099TIP3    H242255   2.608   4.273   4.517
14100TIP3   OH242256   0.320   2.291   5.401
14100TIP3    H142257   0.280   2.329   5.323
14100TIP3    H242258   0.268   2.212   5.418
14101TIP3   OH242259   7.039   5.263   2.467
14101TIP3    H142260   7.123   5.302   2.493
14101TIP3    H242261   7.043   5.174   2.502
14102TIP3   OH242262   1.212   5.146   3.922
14102TIP3    H142263   1.300   5.125   3.889
14102TIP3    H242264   1.161   5.067   3.907
14103TIP3   OH242265   8.159   7.758   4.562
14103TIP3    H142266   8.203   7.699   4.623
14103TIP3    H242267   8.110   7.699   4.504
14104TIP3   OH242268   4.733   5.359   5.043
14104TIP3    H142269   4.679   5.436   5.062
14104TIP3    H242270   4.710   5.296   5.112
14105TIP3   OH242271   0.910   6.778   0.215
14105TIP3    H142272   0.979   6.739   0.269
14105TIP3    H242273   0.840   6.798   0.277
14106TIP3   OH242274   6.167   2.790   2.901
14106TIP3    H142275   6.255   2.785   2.939
14106TIP3    H242276   6.179   2.839   2.819
14107TIP3   OH242277   6.312   0.230   4.878
14107TIP3    H142278   6.404   0.215   4.899
14107TIP3    H242279   6.292   0.165   4.810
14108TIP3   OH242280   3.390   2.047   4.808
14108TIP3    H142281   3.430   2.113   4.751
14108TIP3    H242282   3.438   2.054   4.891
14109TIP3   OH242283   2.936   7.607   4.282
14109TIP3    H142284   2.884   7.668   4.229
14109TIP3    H242285   2.979   7.663   4.347
14110TIP3   OH242286   1.948   0.250   1.098
14110TIP3    H142287   1.950   0.341   1.069
14110TIP3    H242288   1.855   0.226   1.096
14111TIP3   OH242289   2.926   5.906   3.892
14111TIP3    H142290   2.887   5.970   3.833
14111TIP3    H242291   2.864   5.897   3.963
14112TIP3   OH242292   5.045   6.181   2.757
14112TIP3    H142293   5.042   6.229   2.840
14112TIP3    H242294   4.954   6.176   2.729
14113TIP3   OH242295   4.248   6.327   0.327
14113TIP3    H142296   4.206   6.392   0.270
14113TIP3    H242297   4.175   6.278   0.366
14114TIP3   OH242298   2.115   5.275   1.140
14114TIP3    H142299   2.171   5.340   1.182
14114TIP3    H242300   2.035   5.275   1.192
14115TIP3   OH242301   4.341   3.684   0.211
14115TIP3    H142302   4.386   3.761   0.245
14115TIP3    H242303   4.369   3.613   0.269
14116TIP3   OH242304   4.870   7.012   1.943
14116TIP3    H142305   4.831   6.951   2.005
14116TIP3    H242306   4.963   7.013   1.965
14117TIP3   OH242307   3.368   2.212   1.834
14117TIP3    H142308   3.416   2.268   1.895
14117TIP3    H242309   3.323   2.272   1.775
14118TIP3   OH242310   5.601   0.039   3.711
14118TIP3    H142311   5.675   0.077   3.665
14118TIP3    H242312   5.529   0.044   3.649
14119TIP3   OH242313   5.551   0.785   3.313
14119TIP3    H142314   5.507   0.835   3.245
14119TIP3    H242315   5.581   0.851   3.376
14120TIP3   OH242316   7.933   3.148   2.053
14120TIP3    H142317   7.846   3.163   2.017
14120TIP3    H242318   7.917   3.103   2.136
14121TIP3   OH242319   7.552   5.986   0.308
14121TIP3    H142320   7.548   6.013   0.216
14121TIP3    H242321   7.615   6.046   0.348
14122TIP3   OH242322   4.884   6.589   3.230
14122TIP3    H142323   4.920   6.566   3.145
14122TIP3    H242324   4.792   6.609   3.213
14123TIP3   OH242325   0.227   1.256   5.244
14123TIP3    H142326   0.175   1.185   5.207
14123TIP3    H242327   0.162   1.320   5.274
14124TIP3   OH242328   0.396   1.992   6.505
14124TIP3    H142329   0.409   1.898   6.503
14124TIP3    H242330   0.388   2.013   6.598
14125TIP3   OH242331   3.692   6.004   3.835
14125TIP3    H142332   3.774   6.042   3.866
14125TIP3    H242333   3.630   6.077   3.836
14126TIP3   OH242334   1.181   1.132   0.576
14126TIP3    H142335   1.110   1.184   0.614
14126TIP3    H242336   1.200   1.175   0.493
14127TIP3   OH242337   2.850   7.372   4.417
14127TIP3    H142338   2.784   7.303   4.409
14127TIP3    H242339   2.822   7.439   4.355
14128TIP3   OH242340   1.965   2.679   5.166
14128TIP3    H142341   1.977   2.771   5.142
14128TIP3    H242342   1.913   2.681   5.246
14129TIP3   OH242343   3.290   2.201   0.178
14129TIP3    H142344   3.346   2.125   0.191
14129TIP3    H242345   3.312   2.260   0.250
14130TIP3   OH242346   4.050   2.002   5.502
14130TIP3    H142347   4.102   1.986   5.581
14130TIP3    H242348   4.042   2.097   5.497
14131TIP3   OH242349   0.239   0.534   2.731
14131TIP3    H142350   0.220   0.489   2.812
14131TIP3    H242351   0.257   0.464   2.668
14132TIP3   OH242352   7.404   7.788   4.397
14132TIP3    H142353   7.402   7.762   4.489
14132TIP3    H242354   7.433   7.709   4.351
14133TIP3   OH242355   3.684   4.766   2.646
14133TIP3    H142356   3.591   4.773   2.626
14133TIP3    H242357   3.689   4.705   2.719
14134TIP3   OH242358   4.402   7.758   4.603
14134TIP3    H142359   4.335   7.741   4.537
14134TIP3    H242360   4.387   7.691   4.670
14135TIP3   OH242361   6.422   1.361   5.745
14135TIP3    H142362   6.427   1.265   5.751
14135TIP3    H242363   6.511   1.389   5.727
14136TIP3   OH242364   1.202   2.930   0.917
14136TIP3    H142365   1.225   2.959   1.005
14136TIP3    H242366   1.283   2.938   0.867
14137TIP3   OH242367   3.427   0.634   2.793
14137TIP3    H142368   3.374   0.559   2.817
14137TIP3    H242369   3.377   0.710   2.824
14138TIP3   OH242370   7.737   4.632   4.849
14138TIP3    H142371   7.769   4.667   4.933
14138TIP3    H242372   7.667   4.571   4.873
14139TIP3   OH242373   7.518   4.342   2.206
14139TIP3    H142374   7.582   4.308   2.268
14139TIP3    H242375   7.461   4.267   2.187
14140TIP3   OH242376   3.194   7.033   0.862
14140TIP3    H142377   3.221   6.956   0.913
14140TIP3    H242378   3.259   7.100   0.885
14141TIP3   OH242379   3.336   4.347   2.804
14141TIP3    H142380   3.397   4.326   2.874
14141TIP3    H242381   3.326   4.266   2.755
14142TIP3   OH242382   2.156   6.585   3.928
14142TIP3    H142383   2.091   6.655   3.924
14142TIP3    H242384   2.232   6.620   3.882
14143TIP3   OH242385   0.408   3.675   4.004
14143TIP3    H142386   0.405   3.580   3.997
14143TIP3    H242387   0.352   3.696   4.078
14144TIP3   OH242388   4.859   3.214   6.563
14144TIP3    H142389   4.932   3.157   6.541
14144TIP3    H242390   4.899   3.291   6.603
14145TIP3   OH242391   6.167   1.560   1.435
14145TIP3    H142392   6.081   1.599   1.448
14145TIP3    H242393   6.229   1.625   1.469
14146TIP3   OH242394   0.788   0.709   0.448
14146TIP3    H142395   0.703   0.725   0.408
14146TIP3    H242396   0.822   0.797   0.468
14147TIP3   OH242397   5.753   4.174   5.077
14147TIP3    H142398   5.720   4.164   5.166
14147TIP3    H242399   5.712   4.253   5.044
14148TIP3   OH242400   8.086   3.829   2.995
14148TIP3    H142401   8.039   3.912   2.990
14148TIP3    H242402   8.160   3.839   2.936
14149TIP3   OH242403   0.260   4.246   0.984
14149TIP3    H142404   0.265   4.299   0.905
14149TIP3    H242405   0.342   4.197   0.985
14150TIP3   OH242406   7.197   3.636   4.641
14150TIP3    H142407   7.173   3.576   4.711
14150TIP3    H242408   7.243   3.582   4.577
14151TIP3   OH242409   0.431   3.535   4.402
14151TIP3    H142410   0.417   3.557   4.494
14151TIP3    H242411   0.343   3.518   4.368
14152TIP3   OH242412   1.551   5.939   1.800
14152TIP3    H142413   1.631   5.931   1.749
14152TIP3    H242414   1.578   5.922   1.890
14153TIP3   OH242415   3.322   4.568   5.638
14153TIP3    H142416   3.363   4.489   5.602
14153TIP3    H242417   3.352   4.639   5.580
14154TIP3   OH242418   0.622   0.845   5.550
14154TIP3    H142419   0.608   0.928   5.504
14154TIP3    H242420   0.626   0.779   5.480
14155TIP3   OH242421   5.692   3.936   4.215
14155TIP3    H142422   5.715   3.875   4.146
14155TIP3    H242423   5.663   3.881   4.287
14156TIP3   OH242424   2.451   6.281   0.911
14156TIP3    H142425   2.546   6.284   0.899
14156TIP3    H242426   2.439   6.274   1.005
14157TIP3   OH242427   6.476   4.706   2.933
14157TIP3    H142428   6.454   4.652   2.858
14157TIP3    H242429   6.543   4.656   2.980
14158TIP3   OH242430   5.481   7.233   1.326
14158TIP3    H142431   5.396   7.230   1.281
14158TIP3    H242432   5.514   7.321   1.308
14159TIP3   OH242433   3.574   2.931   0.905
14159TIP3    H142434   3.536   2.887   0.828
14159TIP3    H242435   3.578   3.023   0.880
14160TIP3   OH242436   2.482   7.212   0.591
14160TIP3    H142437   2.499   7.242   0.501
14160TIP3    H242438   2.396   7.170   0.586
14161TIP3   OH242439   0.102   3.650   2.411
14161TIP3    H142440   0.161   3.602   2.352
14161TIP3    H242441   0.138   3.738   2.414
14162TIP3   OH242442   4.099   6.664   4.729
14162TIP3    H142443   4.067   6.575   4.716
14162TIP3    H242444   4.172   6.655   4.790
14163TIP3   OH242445   6.837   3.188   4.807
14163TIP3    H142446   6.761   3.167   4.862
14163TIP3    H242447   6.875   3.103   4.786
14164TIP3   OH242448   5.902   3.350   1.492
14164TIP3    H142449   5.993   3.347   1.522
14164TIP3    H242450   5.883   3.443   1.482
14165TIP3   OH242451   4.889   0.005   2.376
14165TIP3    H142452   4.951   0.041   2.439
14165TIP3    H242453   4.814  -0.023   2.428
14166TIP3   OH242454   5.417   6.131   6.232
14166TIP3    H142455   5.429   6.198   6.298
14166TIP3    H242456   5.444   6.049   6.274
14167TIP3   OH242457   8.059   4.117   5.403
14167TIP3    H142458   8.053   4.025   5.431
14167TIP3    H242459   8.065   4.113   5.308
14168TIP3   OH242460   0.597   0.828   5.125
14168TIP3    H142461   0.579   0.794   5.037
14168TIP3    H242462   0.599   0.750   5.181
14169TIP3   OH242463   1.182   0.799   3.552
14169TIP3    H142464   1.176   0.719   3.499
14169TIP3    H242465   1.248   0.778   3.619
14170TIP3   OH242466   6.469   0.048   2.947
14170TIP3    H142467   6.399   0.071   3.008
14170TIP3    H242468   6.424   0.030   2.865
14171TIP3   OH242469   5.444   6.918   1.766
14171TIP3    H142470   5.467   6.907   1.674
14171TIP3    H242471   5.348   6.923   1.767
14172TIP3   OH242472   4.385   1.041   0.707
14172TIP3    H142473   4.386   0.955   0.750
14172TIP3    H242474   4.477   1.067   0.706
14173TIP3   OH242475   6.194   3.136   2.494
14173TIP3    H142476   6.263   3.143   2.429
14173TIP3    H242477   6.143   3.216   2.483
14174TIP3   OH242478   1.531   6.408   5.089
14174TIP3    H142479   1.612   6.456   5.109
14174TIP3    H242480   1.516   6.354   5.166
14175TIP3   OH242481   4.452   1.531   1.885
14175TIP3    H142482   4.446   1.464   1.817
14175TIP3    H242483   4.545   1.537   1.904
14176TIP3   OH242484   5.167   1.983   3.225
14176TIP3    H142485   5.176   1.888   3.224
14176TIP3    H242486   5.215   2.012   3.302
14177TIP3   OH242487   7.073   4.820   1.956
14177TIP3    H142488   7.023   4.881   2.009
14177TIP3    H242489   7.032   4.735   1.971
14178TIP3   OH242490   6.064   3.651   4.549
14178TIP3    H142491   6.158   3.641   4.565
14178TIP3    H242492   6.054   3.741   4.518
14179TIP3   OH242493   0.568   6.242   0.113
14179TIP3    H142494   0.654   6.247   0.072
14179TIP3    H242495   0.507   6.268   0.043
14180TIP3   OH242496   8.209   2.285   4.595
14180TIP3    H142497   8.133   2.229   4.610
14180TIP3    H242498   8.211   2.299   4.501
14181TIP3   OH242499   4.666   6.984   6.114
14181TIP3    H142500   4.581   6.942   6.127
14181TIP3    H242501   4.673   6.994   6.019
14182TIP3   OH242502   7.635   2.805   5.121
14182TIP3    H142503   7.616   2.890   5.081
14182TIP3    H242504   7.549   2.772   5.147
14183TIP3   OH242505   1.735   1.146   4.129
14183TIP3    H142506   1.676   1.173   4.199
14183TIP3    H242507   1.766   1.060   4.156
14184TIP3   OH242508   3.409   1.738   5.034
14184TIP3    H142509   3.369   1.657   5.065
14184TIP3    H242510   3.501   1.716   5.021
14185TIP3   OH242511   2.424   1.988   1.281
14185TIP3    H142512   2.405   2.043   1.205
14185TIP3    H242513   2.426   1.899   1.246
14186TIP3   OH242514   0.124   0.509   6.285
14186TIP3    H142515   0.184   0.533   6.214
14186TIP3    H242516   0.043   0.555   6.264
14187TIP3   OH242517   1.167   6.980   4.300
14187TIP3    H142518   1.172   6.938   4.386
14187TIP3    H242519   1.073   6.984   4.281
14188TIP3   OH242520   4.891   3.502   2.515
14188TIP3    H142521   4.834   3.450   2.572
14188TIP3    H242522   4.831   3.559   2.467
14189TIP3   OH242523   1.023   0.088   2.779
14189TIP3    H142524   1.072   0.006   2.772
14189TIP3    H242525   0.982   0.099   2.693
14190TIP3   OH242526   0.298   7.829   3.619
14190TIP3    H142527   0.276   7.822   3.711
14190TIP3    H242528   0.241   7.766   3.575
14191TIP3   OH242529   1.478   4.152   2.179
14191TIP3    H142530   1.390   4.187   2.193
14191TIP3    H242531   1.468   4.088   2.109
14192TIP3   OH242532   5.317   5.542   2.964
14192TIP3    H142533   5.283   5.469   2.912
14192TIP3    H242534   5.316   5.510   3.054
14193TIP3   OH242535   3.274   7.723   5.472
14193TIP3    H142536   3.197   7.667   5.458
14193TIP3    H242537   3.341   7.663   5.503
14194TIP3   OH242538   8.213   1.008   1.574
14194TIP3    H142539   8.195   1.101   1.585
14194TIP3    H242540   8.127   0.970   1.553
14195TIP3   OH242541   4.723   3.933   5.164
14195TIP3    H142542   4.771   3.874   5.223
14195TIP3    H242543   4.775   3.934   5.084
14196TIP3   OH242544   7.872   1.085   1.924
14196TIP3    H142545   7.861   1.077   2.018
14196TIP3    H242546   7.832   1.169   1.902
14197TIP3   OH242547   4.569   5.965   2.049
14197TIP3    H142548   4.573   6.039   1.988
14197TIP3    H242549   4.600   6.001   2.132
14198TIP3   OH242550   5.510   6.175   1.960
14198TIP3    H142551   5.587   6.183   1.905
14198TIP3    H242552   5.436   6.195   1.902
14199TIP3   OH242553   5.354   2.875   5.009
14199TIP3    H142554   5.424   2.815   4.983
14199TIP3    H242555   5.290   2.820   5.054
14200TIP3   OH242556   6.273   1.239   0.924
14200TIP3    H142557   6.203   1.186   0.887
14200TIP3    H242558   6.351   1.184   0.916
14201TIP3   OH242559   1.891   2.752   6.321
14201TIP3    H142560   1.945   2.691   6.271
14201TIP3    H242561   1.951   2.791   6.384
14202TIP3   OH242562   3.380   4.718   0.884
14202TIP3    H142563   3.457   4.689   0.932
14202TIP3    H242564   3.364   4.807   0.914
14203TIP3   OH242565   6.962   2.686   4.382
14203TIP3    H142566   6.959   2.630   4.459
14203TIP3    H242567   7.036   2.653   4.331
14204TIP3   OH242568   0.634   2.441   4.614
14204TIP3    H142569   0.657   2.527   4.579
14204TIP3    H242570   0.701   2.382   4.580
14205TIP3   OH242571   6.200   0.520   4.768
14205TIP3    H142572   6.244   0.447   4.725
14205TIP3    H242573   6.163   0.571   4.695
14206TIP3   OH242574   4.039   6.590   5.624
14206TIP3    H142575   3.979   6.590   5.549
14206TIP3    H242576   4.038   6.680   5.656
14207TIP3   OH242577   2.165   4.534   3.832
14207TIP3    H142578   2.203   4.447   3.830
14207TIP3    H242579   2.240   4.593   3.829
14208TIP3   OH242580   5.844   5.656   5.225
14208TIP3    H142581   5.882   5.732   5.270
14208TIP3    H242582   5.913   5.625   5.166
14209TIP3   OH242583   1.240   4.346   3.348
14209TIP3    H142584   1.237   4.299   3.432
14209TIP3    H242585   1.223   4.279   3.283
14210TIP3   OH242586   0.088   0.890   4.249
14210TIP3    H142587   0.118   0.808   4.210
14210TIP3    H242588   0.086   0.874   4.343
14211TIP3   OH242589   3.358   2.725   3.740
14211TIP3    H142590   3.385   2.636   3.765
14211TIP3    H242591   3.282   2.743   3.795
14212TIP3   OH242592   3.050   1.160   5.161
14212TIP3    H142593   3.060   1.066   5.173
14212TIP3    H242594   3.055   1.196   5.250
14213TIP3   OH242595   5.442   1.225   3.937
14213TIP3    H142596   5.355   1.205   3.972
14213TIP3    H242597   5.490   1.263   4.011
14214TIP3   OH242598   5.629   4.728   2.599
14214TIP3    H142599   5.717   4.757   2.623
14214TIP3    H242600   5.570   4.784   2.649
14215TIP3   OH242601   0.762   4.297   2.095
14215TIP3    H142602   0.856   4.282   2.088
14215TIP3    H242603   0.753   4.353   2.172
14216TIP3   OH242604   6.956   3.003   5.180
14216TIP3    H142605   6.861   3.006   5.168
14216TIP3    H242606   6.972   3.059   5.257
14217TIP3   OH242607   0.966   3.939   3.423
14217TIP3    H142608   0.904   3.999   3.464
14217TIP3    H242609   0.964   3.861   3.478
14218TIP3   OH242610   7.001   5.468   6.263
14218TIP3    H142611   7.075   5.515   6.303
14218TIP3    H242612   6.970   5.410   6.332
14219TIP3   OH242613   7.007   5.582   0.394
14219TIP3    H142614   6.995   5.627   0.478
14219TIP3    H242615   6.928   5.530   0.383
14220TIP3   OH242616   2.856   2.345   5.954
14220TIP3    H142617   2.895   2.325   5.869
14220TIP3    H242618   2.859   2.261   6.001
14221TIP3   OH242619   2.794   2.049   4.466
14221TIP3    H142620   2.756   2.026   4.551
14221TIP3    H242621   2.837   2.133   4.481
14222TIP3   OH242622   5.103   6.357   1.999
14222TIP3    H142623   5.039   6.294   2.033
14222TIP3    H242624   5.100   6.344   1.904
14223TIP3   OH242625   4.778   2.263   0.421
14223TIP3    H142626   4.870   2.265   0.447
14223TIP3    H242627   4.736   2.331   0.475
14224TIP3   OH242628   1.311   5.767   1.098
14224TIP3    H142629   1.402   5.770   1.128
14224TIP3    H242630   1.303   5.840   1.037
14225TIP3   OH242631   2.472   4.923   6.542
14225TIP3    H142632   2.560   4.926   6.579
14225TIP3    H242633   2.481   4.869   6.463
14226TIP3   OH242634   4.150   3.665   2.503
14226TIP3    H142635   4.066   3.709   2.514
14226TIP3    H242636   4.181   3.651   2.592
14227TIP3   OH242637   6.235   2.043   1.126
14227TIP3    H142638   6.205   2.093   1.050
14227TIP3    H242639   6.222   2.103   1.200
14228TIP3   OH242640   0.241   2.869   2.735
14228TIP3    H142641   0.262   2.954   2.775
14228TIP3    H242642   0.324   2.838   2.699
14229TIP3   OH242643   6.707   7.200   6.749
14229TIP3    H142644   6.673   7.252   6.675
14229TIP3    H242645   6.780   7.252   6.782
14230TIP3   OH242646   1.561   1.147   4.966
14230TIP3    H142647   1.542   1.238   4.987
14230TIP3    H242648   1.602   1.113   5.045
14231TIP3   OH242649   1.421   6.083   1.447
14231TIP3    H142650   1.362   6.030   1.501
14231TIP3    H242651   1.502   6.030   1.443
14232TIP3   OH242652   1.173   2.213   0.860
14232TIP3    H142653   1.221   2.246   0.936
14232TIP3    H242654   1.173   2.118   0.870
14233TIP3   OH242655   3.943   3.759   5.457
14233TIP3    H142656   3.848   3.765   5.462
14233TIP3    H242657   3.959   3.677   5.411
14234TIP3   OH242658   4.997   3.522   2.074
14234TIP3    H142659   5.038   3.491   1.993
14234TIP3    H242660   4.926   3.580   2.045
14235TIP3   OH242661   6.465   1.012   1.204
14235TIP3    H142662   6.459   1.035   1.112
14235TIP3    H242663   6.383   0.967   1.223
14236TIP3   OH242664   0.020   2.177   5.102
14236TIP3    H142665   0.106   2.153   5.069
14236TIP3    H242666  -0.031   2.198   5.023
14237TIP3   OH242667   3.981   3.203   6.534
14237TIP3    H142668   3.987   3.136   6.602
14237TIP3    H242669   3.895   3.190   6.495
14238TIP3   OH242670   3.051   2.500   0.347
14238TIP3    H142671   2.973   2.555   0.344
14238TIP3    H242672   3.025   2.426   0.402
14239TIP3   OH242673   6.253   4.465   3.900
14239TIP3    H142674   6.200   4.390   3.874
14239TIP3    H242675   6.218   4.490   3.986
14240TIP3   OH242676   4.764   7.499   3.013
14240TIP3    H142677   4.756   7.548   2.930
14240TIP3    H242678   4.765   7.407   2.986
14241TIP3   OH242679   3.467   2.958   1.691
14241TIP3    H142680   3.424   2.909   1.621
14241TIP3    H242681   3.441   2.912   1.771
14242TIP3   OH242682   1.822   7.016   5.384
14242TIP3    H142683   1.906   6.975   5.406
14242TIP3    H242684   1.757   6.959   5.424
14243TIP3   OH242685   8.230   6.099   3.753
14243TIP3    H142686   8.317   6.138   3.751
14243TIP3    H242687   8.178   6.159   3.807
14244TIP3   OH242688   2.782   5.766   2.176
14244TIP3    H142689   2.784   5.762   2.080
14244TIP3    H242690   2.710   5.709   2.201
14245TIP3   OH242691   4.997   2.771   5.300
14245TIP3    H142692   4.925   2.709   5.295
14245TIP3    H242693   5.042   2.761   5.216
14246TIP3   OH242694   1.001   3.351   3.166
14246TIP3    H142695   1.010   3.441   3.134
14246TIP3    H242696   0.979   3.300   3.088
14247TIP3   OH242697   3.865   7.669   0.030
14247TIP3    H142698   3.925   7.740   0.051
14247TIP3    H242699   3.917   7.609  -0.024
14248TIP3   OH242700   5.790   4.100   4.400
14248TIP3    H142701   5.709   4.136   4.436
14248TIP3    H242702   5.761   4.032   4.339
14249TIP3   OH242703   7.065   3.263   4.968
14249TIP3    H142704   7.070   3.307   5.053
14249TIP3    H242705   7.032   3.175   4.988
14250TIP3   OH242706   2.177   7.484   1.561
14250TIP3    H142707   2.268   7.485   1.590
14250TIP3    H242708   2.126   7.465   1.640
14251TIP3   OH242709   0.582   0.278   3.780
14251TIP3    H142710   0.636   0.204   3.807
14251TIP3    H242711   0.591   0.280   3.685
14252TIP3   OH242712   3.590   1.362   2.671
14252TIP3    H142713   3.574   1.427   2.740
14252TIP3    H242714   3.504   1.343   2.635
14253TIP3   OH242715   4.455   3.775   3.960
14253TIP3    H142716   4.453   3.758   4.054
14253TIP3    H242717   4.528   3.836   3.948
14254TIP3   OH242718   7.445   1.903   3.018
14254TIP3    H142719   7.517   1.846   2.992
14254TIP3    H242720   7.443   1.972   2.952
14255TIP3   OH242721   6.743   0.621   5.417
14255TIP3    H142722   6.762   0.621   5.323
14255TIP3    H242723   6.648   0.633   5.422
14256TIP3   OH242724   5.683   2.830   0.529
14256TIP3    H142725   5.731   2.912   0.540
14256TIP3    H242726   5.655   2.831   0.437
14257TIP3   OH242727   5.437   1.733   5.879
14257TIP3    H142728   5.358   1.697   5.921
14257TIP3    H242729   5.476   1.789   5.946
14258TIP3   OH242730   4.292   2.299   0.688
14258TIP3    H142731   4.374   2.261   0.721
14258TIP3    H242732   4.289   2.273   0.596
14259TIP3   OH242733   0.981   2.086   0.213
14259TIP3    H142734   1.014   2.054   0.297
14259TIP3    H242735   0.940   2.009   0.172
14260TIP3   OH242736   6.669   4.999   1.153
14260TIP3    H142737   6.711   4.924   1.111
14260TIP3    H242738   6.615   5.038   1.084
14261TIP3   OH242739   5.533   5.745   5.707
14261TIP3    H142740   5.575   5.792   5.779
14261TIP3    H242741   5.444   5.729   5.739
14262TIP3   OH242742   1.086   7.049   5.900
14262TIP3    H142743   1.150   6.985   5.933
14262TIP3    H242744   1.133   7.095   5.830
14263TIP3   OH242745   5.612   1.046   1.495
14263TIP3    H142746   5.521   1.074   1.498
14263TIP3    H242747   5.624   0.995   1.576
14264TIP3   OH242748   2.690   5.061   0.818
14264TIP3    H142749   2.650   4.976   0.800
14264TIP3    H242750   2.736   5.083   0.737
14265TIP3   OH242751   2.136   4.362   3.479
14265TIP3    H142752   2.211   4.414   3.450
14265TIP3    H242753   2.070   4.426   3.505
14266TIP3   OH242754   6.337   7.405   4.316
14266TIP3    H142755   6.408   7.465   4.338
14266TIP3    H242756   6.272   7.419   4.384
14267TIP3   OH242757   7.041   2.956   0.139
14267TIP3    H142758   7.129   2.987   0.162
14267TIP3    H242759   6.992   2.961   0.220
14268TIP3   OH242760   8.007   1.591   4.664
14268TIP3    H142761   8.043   1.513   4.705
14268TIP3    H242762   7.952   1.558   4.593
14269TIP3   OH242763   3.026   4.141   6.667
14269TIP3    H142764   3.110   4.116   6.629
14269TIP3    H242765   2.961   4.105   6.606
14270TIP3   OH242766   4.495   1.446   2.946
14270TIP3    H142767   4.452   1.392   3.013
14270TIP3    H242768   4.497   1.390   2.868
14271TIP3   OH242769   5.592   3.022   3.259
14271TIP3    H142770   5.514   3.056   3.216
14271TIP3    H242771   5.564   2.939   3.297
14272TIP3   OH242772   3.416   7.430   2.504
14272TIP3    H142773   3.418   7.338   2.531
14272TIP3    H242774   3.469   7.475   2.570
14273TIP3   OH242775   4.741   3.973   1.828
14273TIP3    H142776   4.778   3.888   1.805
14273TIP3    H242777   4.653   3.972   1.791
14274TIP3   OH242778   2.359   2.166   6.391
14274TIP3    H142779   2.268   2.147   6.412
14274TIP3    H242780   2.388   2.091   6.339
14275TIP3   OH242781   4.070   3.966   4.782
14275TIP3    H142782   4.119   4.045   4.806
14275TIP3    H242783   4.138   3.903   4.757
14276TIP3   OH242784   7.579   5.422   0.356
14276TIP3    H142785   7.526   5.491   0.396
14276TIP3    H242786   7.609   5.369   0.430
14277TIP3   OH242787   8.194   3.746   5.638
14277TIP3    H142788   8.237   3.828   5.662
14277TIP3    H242789   8.219   3.732   5.546
14278TIP3   OH242790   5.350   2.433   3.358
14278TIP3    H142791   5.364   2.490   3.434
14278TIP3    H242792   5.271   2.383   3.379
14279TIP3   OH242793   6.861   2.489   6.066
14279TIP3    H142794   6.870   2.464   5.974
14279TIP3    H242795   6.902   2.575   6.071
14280TIP3   OH242796   2.951   0.680   2.582
14280TIP3    H142797   2.928   0.705   2.671
14280TIP3    H242798   3.001   0.599   2.591
14281TIP3   OH242799   6.530   6.979   0.485
14281TIP3    H142800   6.478   7.043   0.533
14281TIP3    H242801   6.529   7.009   0.394
14282TIP3   OH242802   8.214   5.449   0.141
14282TIP3    H142803   8.136   5.444   0.196
14282TIP3    H242804   8.274   5.383   0.177
14283TIP3   OH242805   5.945   3.546   1.152
14283TIP3    H142806   5.945   3.623   1.096
14283TIP3    H242807   5.853   3.530   1.172
14284TIP3   OH242808   5.916   6.697   2.187
14284TIP3    H142809   5.877   6.636   2.124
14284TIP3    H242810   5.858   6.773   2.185
14285TIP3   OH242811   1.491   0.654   3.292
14285TIP3    H142812   1.420   0.595   3.266
14285TIP3    H242813   1.479   0.665   3.386
14286TIP3   OH242814   6.419   0.971   3.108
14286TIP3    H142815   6.416   1.039   3.041
14286TIP3    H242816   6.333   0.974   3.149
14287TIP3   OH242817   5.638   2.748   6.060
14287TIP3    H142818   5.595   2.719   6.140
14287TIP3    H242819   5.575   2.806   6.018
14288TIP3   OH242820   2.970   3.297   6.223
14288TIP3    H142821   2.995   3.253   6.305
14288TIP3    H242822   2.951   3.225   6.163
14289TIP3   OH242823   6.316   1.152   1.724
14289TIP3    H142824   6.322   1.238   1.764
14289TIP3    H242825   6.379   1.155   1.651
14290TIP3   OH242826   1.770   2.391   3.643
14290TIP3    H142827   1.711   2.463   3.617
14290TIP3    H242828   1.783   2.340   3.562
14291TIP3   OH242829   5.262   4.842   2.381
14291TIP3    H142830   5.287   4.850   2.289
14291TIP3    H242831   5.326   4.782   2.419
14292TIP3   OH242832   0.170   6.007   5.035
14292TIP3    H142833   0.115   5.997   5.113
14292TIP3    H242834   0.235   5.937   5.042
14293TIP3   OH242835   5.071   4.600   0.896
14293TIP3    H142836   5.031   4.622   0.980
14293TIP3    H242837   5.105   4.511   0.909
14294TIP3   OH242838   3.150   1.684   3.991
14294TIP3    H142839   3.074   1.742   3.982
14294TIP3    H242840   3.215   1.720   3.931
14295TIP3   OH242841   4.255   4.847   3.928
14295TIP3    H142842   4.219   4.935   3.937
14295TIP3    H242843   4.182   4.789   3.948
14296TIP3   OH242844   1.964   3.245   3.525
14296TIP3    H142845   1.914   3.321   3.554
14296TIP3    H242846   1.929   3.172   3.577
14297TIP3   OH242847   7.339   2.041   6.487
14297TIP3    H142848   7.365   1.975   6.551
14297TIP3    H242849   7.370   2.124   6.525
14298TIP3   OH242850   7.023   1.180   2.250
14298TIP3    H142851   6.933   1.149   2.243
14298TIP3    H242852   7.022   1.266   2.209
14299TIP3   OH242853   5.220   2.957   0.788
14299TIP3    H142854   5.293   3.013   0.762
14299TIP3    H242855   5.161   2.957   0.712
14300TIP3   OH242856   4.745   6.746   5.463
14300TIP3    H142857   4.791   6.814   5.512
14300TIP3    H242858   4.741   6.671   5.523
14301TIP3   OH242859   0.494   1.720   6.489
14301TIP3    H142860   0.479   1.705   6.396
14301TIP3    H242861   0.590   1.716   6.498
14302TIP3   OH242862   0.260   7.423   4.689
14302TIP3    H142863   0.288   7.513   4.677
14302TIP3    H242864   0.332   7.370   4.654
14303TIP3   OH242865   7.623   0.440   2.024
14303TIP3    H142866   7.555   0.453   1.958
14303TIP3    H242867   7.689   0.506   2.004
14304TIP3   OH242868   1.889   2.749   3.591
14304TIP3    H142869   1.897   2.656   3.613
14304TIP3    H242870   1.877   2.750   3.496
14305TIP3   OH242871   6.608   3.984   2.745
14305TIP3    H142872   6.644   4.059   2.792
14305TIP3    H242873   6.579   3.924   2.813
14306TIP3   OH242874   6.223   3.229   0.600
14306TIP3    H142875   6.250   3.138   0.582
14306TIP3    H242876   6.219   3.234   0.695
14307TIP3   OH242877   8.216   0.046   4.499
14307TIP3    H142878   8.251   0.076   4.583
14307TIP3    H242879   8.138   0.099   4.485
14308TIP3   OH242880   5.688   2.333   2.155
14308TIP3    H142881   5.723   2.244   2.151
14308TIP3    H242882   5.759   2.388   2.124
14309TIP3   OH242883   2.197   5.092   0.220
14309TIP3    H142884   2.115   5.059   0.184
14309TIP3    H242885   2.170   5.165   0.277
14310TIP3   OH242886   3.440   6.431   4.890
14310TIP3    H142887   3.512   6.414   4.951
14310TIP3    H242888   3.406   6.516   4.916
14311TIP3   OH242889   4.608   0.771   3.212
14311TIP3    H142890   4.642   0.775   3.123
14311TIP3    H242891   4.646   0.691   3.249
14312TIP3   OH242892   0.157   2.087   5.478
14312TIP3    H142893   0.105   2.029   5.423
14312TIP3    H242894   0.141   2.057   5.567
14313TIP3   OH242895   3.161   0.676   1.883
14313TIP3    H142896   3.073   0.713   1.872
14313TIP3    H242897   3.164   0.603   1.822
14314TIP3   OH242898   2.039   2.403   6.021
14314TIP3    H142899   2.106   2.373   5.960
14314TIP3    H242900   2.072   2.376   6.107
14315TIP3   OH242901   6.145   0.286   1.191
14315TIP3    H142902   6.229   0.242   1.206
14315TIP3    H242903   6.081   0.214   1.187
14316TIP3   OH242904   4.151   2.120   0.016
14316TIP3    H142905   4.233   2.089   0.054
14316TIP3    H242906   4.170   2.210  -0.012
14317TIP3   OH242907   1.435   6.359   1.157
14317TIP3    H142908   1.491   6.289   1.125
14317TIP3    H242909   1.400   6.400   1.077
14318TIP3   OH242910   3.687   0.035   3.873
14318TIP3    H142911   3.711   0.091   3.947
14318TIP3    H242912   3.769   0.020   3.827
14319TIP3   OH242913   8.208   6.376   4.972
14319TIP3    H142914   8.206   6.330   5.056
14319TIP3    H242915   8.262   6.454   4.988
14320TIP3   OH242916   5.670   5.550   5.568
14320TIP3    H142917   5.755   5.587   5.549
14320TIP3    H242918   5.619   5.624   5.603
14321TIP3   OH242919   7.796   2.683   0.841
14321TIP3    H142920   7.806   2.598   0.883
14321TIP3    H242921   7.869   2.735   0.875
14322TIP3   OH242922   7.732   4.733   3.730
14322TIP3    H142923   7.724   4.645   3.768
14322TIP3    H242924   7.807   4.726   3.670
14323TIP3   OH242925   4.553   4.539   4.481
14323TIP3    H142926   4.464   4.570   4.495
14323TIP3    H242927   4.554   4.508   4.390
14324TIP3   OH242928   8.306   3.755   4.331
14324TIP3    H142929   8.307   3.844   4.365
14324TIP3    H242930   8.233   3.712   4.376
14325TIP3   OH242931   6.297   6.561   5.207
14325TIP3    H142932   6.225   6.598   5.155
14325TIP3    H242933   6.269   6.572   5.298
14326TIP3   OH242934   3.807   4.745   0.911
14326TIP3    H142935   3.864   4.805   0.862
14326TIP3    H242936   3.844   4.744   0.999
14327TIP3   OH242937   0.760   6.373   5.420
14327TIP3    H142938   0.716   6.439   5.368
14327TIP3    H242939   0.847   6.410   5.439
14328TIP3   OH242940   6.505   5.153   2.583
14328TIP3    H142941   6.569   5.220   2.558
14328TIP3    H242942   6.425   5.202   2.601
14329TIP3   OH242943   0.971   0.963   0.466
14329TIP3    H142944   1.023   0.957   0.386
14329TIP3    H242945   1.021   1.021   0.523
14330TIP3   OH242946   5.951   1.433   1.005
14330TIP3    H142947   6.041   1.444   1.035
14330TIP3    H242948   5.923   1.521   0.979
14331TIP3   OH242949   4.537   3.939   2.646
14331TIP3    H142950   4.624   3.913   2.676
14331TIP3    H242951   4.548   3.959   2.553
14332TIP3   OH242952   2.575   0.527   1.346
14332TIP3    H142953   2.595   0.616   1.316
14332TIP3    H242954   2.493   0.505   1.302
14333TIP3   OH242955   0.337   7.003   3.248
14333TIP3    H142956   0.266   7.031   3.306
14333TIP3    H242957   0.378   7.085   3.219
14334TIP3   OH242958   4.994   1.644   3.067
14334TIP3    H142959   5.042   1.690   3.136
14334TIP3    H242960   5.009   1.551   3.086
14335TIP3   OH242961   7.007   4.168   5.616
14335TIP3    H142962   7.055   4.218   5.682
14335TIP3    H242963   7.073   4.147   5.549
14336TIP3   OH242964   1.176   4.908   5.104
14336TIP3    H142965   1.205   4.863   5.025
14336TIP3    H242966   1.084   4.929   5.087
14337TIP3   OH242967   1.297   2.078   1.793
14337TIP3    H142968   1.295   1.999   1.847
14337TIP3    H242969   1.386   2.079   1.755
14338TIP3   OH242970   6.390   7.470   5.455
14338TIP3    H142971   6.428   7.382   5.459
14338TIP3    H242972   6.459   7.524   5.417
14339TIP3   OH242973   0.602   1.377   2.735
14339TIP3    H142974   0.554   1.410   2.812
14339TIP3    H242975   0.534   1.336   2.681
14340TIP3   OH242976   5.822   0.527   2.522
14340TIP3    H142977   5.907   0.567   2.502
14340TIP3    H242978   5.758   0.592   2.494
14341TIP3   OH242979   7.314   4.200   3.351
14341TIP3    H142980   7.295   4.142   3.424
14341TIP3    H242981   7.348   4.280   3.391
14342TIP3   OH242982   4.477   5.624   2.405
14342TIP3    H142983   4.384   5.649   2.407
14342TIP3    H242984   4.477   5.540   2.360
14343TIP3   OH242985   4.731   2.478   1.616
14343TIP3    H142986   4.750   2.522   1.533
14343TIP3    H242987   4.760   2.388   1.603
14344TIP3   OH242988   7.191   6.644   2.639
14344TIP3    H142989   7.221   6.734   2.653
14344TIP3    H242990   7.252   6.590   2.689
14345TIP3   OH242991   1.118   0.746   4.705
14345TIP3    H142992   1.038   0.787   4.738
14345TIP3    H242993   1.145   0.801   4.632
14346TIP3   OH242994   2.463   5.454   0.728
14346TIP3    H142995   2.376   5.415   0.739
14346TIP3    H242996   2.507   5.438   0.811
14347TIP3   OH242997   5.359   5.236   2.550
14347TIP3    H142998   5.418   5.269   2.483
14347TIP3    H242999   5.411   5.171   2.598
14348TIP3   OH243000   2.819   3.813   1.168
14348TIP3    H143001   2.802   3.752   1.240
14348TIP3    H243002   2.740   3.807   1.113
14349TIP3   OH243003   6.312   3.186   6.713
14349TIP3    H143004   6.338   3.230   6.793
14349TIP3    H243005   6.341   3.244   6.643
14350TIP3   OH243006   6.381   1.515   0.801
14350TIP3    H143007   6.426   1.590   0.839
14350TIP3    H243008   6.290   1.545   0.790
14351TIP3   OH243009   1.352   1.459   3.933
14351TIP3    H143010   1.346   1.460   4.029
14351TIP3    H243011   1.283   1.399   3.906
14352TIP3   OH243012   0.790   4.183   0.484
14352TIP3    H143013   0.870   4.130   0.484
14352TIP3    H243014   0.752   4.169   0.397
14353TIP3   OH243015   7.465   4.542   0.578
14353TIP3    H143016   7.492   4.539   0.670
14353TIP3    H243017   7.544   4.521   0.529
14354TIP3   OH243018   1.118   4.877   3.898
14354TIP3    H143019   1.108   4.801   3.841
14354TIP3    H243020   1.120   4.841   3.986
14355TIP3   OH243021   5.172   4.887   5.705
14355TIP3    H143022   5.188   4.960   5.764
14355TIP3    H243023   5.076   4.881   5.700
14356TIP3   OH243024   8.167   5.726   5.407
14356TIP3    H143025   8.151   5.635   5.381
14356TIP3    H243026   8.195   5.719   5.498
14357TIP3   OH243027   5.435   6.247   0.238
14357TIP3    H143028   5.479   6.163   0.250
14357TIP3    H243029   5.505   6.312   0.247
14358TIP3   OH243030   4.219   1.697   2.410
14358TIP3    H143031   4.188   1.785   2.390
14358TIP3    H243032   4.139   1.645   2.419
14359TIP3   OH243033   2.122   4.197   6.253
14359TIP3    H143034   2.069   4.261   6.300
14359TIP3    H243035   2.088   4.198   6.164
14360TIP3   OH243036   3.542   1.202   5.373
14360TIP3    H143037   3.616   1.216   5.315
14360TIP3    H243038   3.494   1.128   5.334
14361TIP3   OH243039   1.867   1.875   4.894
14361TIP3    H143040   1.774   1.896   4.892
14361TIP3    H243041   1.901   1.924   4.969
14362TIP3   OH243042   2.214   5.543   5.122
14362TIP3    H143043   2.292   5.495   5.151
14362TIP3    H243044   2.158   5.476   5.083
14363TIP3   OH243045   2.467   1.446   4.941
14363TIP3    H143046   2.500   1.362   4.972
14363TIP3    H243047   2.539   1.485   4.892
14364TIP3   OH243048   5.972   7.367   4.313
14364TIP3    H143049   5.912   7.354   4.387
14364TIP3    H243050   5.977   7.462   4.304
14365TIP3   OH243051   2.470   3.848   6.030
14365TIP3    H143052   2.538   3.904   5.992
14365TIP3    H243053   2.478   3.765   5.982
14366TIP3   OH243054   8.247   3.531   5.799
14366TIP3    H143055   8.226   3.594   5.730
14366TIP3    H243056   8.332   3.558   5.831
14367TIP3   OH243057   3.856   2.165   4.992
14367TIP3    H143058   3.878   2.162   4.899
14367TIP3    H243059   3.788   2.231   4.998
14368TIP3   OH243060   5.606   0.321   3.547
14368TIP3    H143061   5.619   0.243   3.494
14368TIP3    H243062   5.692   0.362   3.552
14369TIP3   OH243063   3.442   4.243   2.145
14369TIP3    H143064   3.491   4.283   2.218
14369TIP3    H243065   3.477   4.285   2.067
14370TIP3   OH243066   3.907   4.052   1.236
14370TIP3    H143067   3.813   4.050   1.256
14370TIP3    H243068   3.946   4.104   1.306
14371TIP3   OH243069   5.553   6.711   2.993
14371TIP3    H143070   5.531   6.803   3.001
14371TIP3    H243071   5.643   6.711   2.959
14372TIP3   OH243072   6.033   6.714   4.106
14372TIP3    H143073   6.116   6.714   4.154
14372TIP3    H243074   5.990   6.795   4.134
14373TIP3   OH243075   2.050   4.849   2.730
14373TIP3    H143076   2.133   4.873   2.771
14373TIP3    H243077   2.057   4.883   2.641
14374TIP3   OH243078   2.720   7.537   3.829
14374TIP3    H143079   2.728   7.486   3.909
14374TIP3    H243080   2.802   7.519   3.782
14375TIP3   OH243081   7.694   3.103   3.102
14375TIP3    H143082   7.642   3.120   3.181
14375TIP3    H243083   7.784   3.114   3.130
14376TIP3   OH243084   7.875   0.498   0.024
14376TIP3    H143085   7.876   0.574   0.082
14376TIP3    H243086   7.855   0.534  -0.063
14377TIP3   OH243087   3.769   0.288   5.352
14377TIP3    H143088   3.811   0.374   5.351
14377TIP3    H243089   3.733   0.281   5.441
14378TIP3   OH243090   3.043   2.896   1.428
14378TIP3    H143091   2.958   2.910   1.386
14378TIP3    H243092   3.056   2.801   1.426
14379TIP3   OH243093   6.695   3.869   0.071
14379TIP3    H143094   6.765   3.854   0.134
14379TIP3    H243095   6.741   3.887  -0.011
14380TIP3   OH243096   2.727   0.405   5.553
14380TIP3    H143097   2.633   0.395   5.542
14380TIP3    H243098   2.739   0.416   5.647
14381TIP3   OH243099   7.553   1.667   2.857
14381TIP3    H143100   7.575   1.659   2.764
14381TIP3    H243101   7.601   1.596   2.899
14382TIP3   OH243102   3.626   6.259   2.673
14382TIP3    H143103   3.536   6.229   2.661
14382TIP3    H243104   3.679   6.183   2.648
14383TIP3   OH243105   6.686   5.716   6.014
14383TIP3    H143106   6.634   5.635   6.018
14383TIP3    H243107   6.693   5.744   6.106
14384TIP3   OH243108   3.545   1.408   3.880
14384TIP3    H143109   3.533   1.441   3.969
14384TIP3    H243110   3.550   1.487   3.825
14385TIP3   OH243111   3.041   2.816   5.351
14385TIP3    H143112   3.097   2.890   5.375
14385TIP3    H243113   2.990   2.848   5.278
14386TIP3   OH243114   6.856   6.022   3.865
14386TIP3    H143115   6.891   6.057   3.783
14386TIP3    H243116   6.765   6.049   3.866
14387TIP3   OH243117   0.145   5.458   2.577
14387TIP3    H143118   0.207   5.400   2.620
14387TIP3    H243119   0.115   5.517   2.647
14388TIP3   OH243120   0.632   5.637   1.406
14388TIP3    H143121   0.619   5.543   1.394
14388TIP3    H243122   0.725   5.646   1.430
14389TIP3   OH243123   7.008   3.560   1.904
14389TIP3    H143124   7.085   3.584   1.955
14389TIP3    H243125   6.992   3.636   1.847
14390TIP3   OH243126   0.891   7.144   3.455
14390TIP3    H143127   0.938   7.132   3.538
14390TIP3    H243128   0.959   7.173   3.394
14391TIP3   OH243129   6.367   6.291   2.143
14391TIP3    H143130   6.307   6.302   2.217
14391TIP3    H243131   6.339   6.209   2.102
14392TIP3   OH243132   4.001   4.571   2.407
14392TIP3    H143133   3.917   4.547   2.367
14392TIP3    H243134   4.012   4.510   2.480
14393TIP3   OH243135   2.331   5.591   4.286
14393TIP3    H143136   2.384   5.668   4.264
14393TIP3    H243137   2.284   5.570   4.205
14394TIP3   OH243138   3.642   3.493   5.139
14394TIP3    H143139   3.567   3.436   5.124
14394TIP3    H243140   3.697   3.481   5.061
14395TIP3   OH243141   5.040   4.980   5.406
14395TIP3    H143142   5.069   5.035   5.479
14395TIP3    H243143   5.078   4.894   5.425
14396TIP3   OH243144   7.787   0.687   0.903
14396TIP3    H143145   7.819   0.597   0.895
14396TIP3    H243146   7.864   0.739   0.926
14397TIP3   OH243147   4.573   3.872   1.077
14397TIP3    H143148   4.560   3.892   0.984
14397TIP3    H243149   4.629   3.942   1.109
14398TIP3   OH243150   2.767   3.596   0.473
14398TIP3    H143151   2.803   3.519   0.429
14398TIP3    H243152   2.685   3.565   0.512
14399TIP3   OH243153   7.645   4.431   1.957
14399TIP3    H143154   7.697   4.506   1.985
14399TIP3    H243155   7.561   4.442   2.001
14400TIP3   OH243156   3.143   0.955   4.647
14400TIP3    H143157   3.211   0.901   4.605
14400TIP3    H243158   3.099   0.895   4.708
14401TIP3   OH243159   4.667   4.215   0.399
14401TIP3    H143160   4.595   4.221   0.336
14401TIP3    H243161   4.730   4.281   0.371
14402TIP3   OH243162   4.113   7.587   0.119
14402TIP3    H143163   4.205   7.589   0.094
14402TIP3    H243164   4.080   7.505   0.083
14403TIP3   OH243165   1.106   2.483   1.127
14403TIP3    H143166   1.072   2.568   1.099
14403TIP3    H243167   1.126   2.494   1.220
14404TIP3   OH243168   4.144   3.889   1.976
14404TIP3    H143169   4.108   3.804   2.001
14404TIP3    H243170   4.102   3.951   2.036
14405TIP3   OH243171   5.882   6.429   3.517
14405TIP3    H143172   5.806   6.488   3.518
14405TIP3    H243173   5.857   6.360   3.455
14406TIP3   OH243174   6.066   6.751   3.469
14406TIP3    H143175   6.088   6.834   3.428
14406TIP3    H243176   6.034   6.697   3.397
14407TIP3   OH243177   7.272   3.920   4.710
14407TIP3    H143178   7.226   3.853   4.660
14407TIP3    H243179   7.361   3.888   4.718
14408TIP3   OH243180   1.196   3.220   6.255
14408TIP3    H143181   1.238   3.142   6.219
14408TIP3    H243182   1.136   3.249   6.187
14409TIP3   OH243183   0.782   2.067   1.576
14409TIP3    H143184   0.764   2.093   1.667
14409TIP3    H243185   0.865   2.109   1.555
14410TIP3   OH243186   3.160   5.886   3.389
14410TIP3    H143187   3.071   5.853   3.381
14410TIP3    H243188   3.175   5.891   3.484
14411TIP3   OH243189   6.337   7.433   6.108
14411TIP3    H143190   6.345   7.524   6.077
14411TIP3    H243191   6.402   7.384   6.058
14412TIP3   OH243192   7.758   7.633   1.109
14412TIP3    H143193   7.747   7.705   1.171
14412TIP3    H243194   7.732   7.671   1.024
14413TIP3   OH243195   8.270   1.508   2.016
14413TIP3    H143196   8.312   1.422   2.014
14413TIP3    H243197   8.203   1.504   1.947
14414TIP3   OH243198   6.778   1.019   3.910
14414TIP3    H143199   6.760   0.926   3.905
14414TIP3    H243200   6.814   1.032   3.997
14415TIP3   OH243201   6.051   5.526   1.381
14415TIP3    H143202   6.089   5.544   1.295
14415TIP3    H243203   5.975   5.472   1.363
14416TIP3   OH243204   6.482   0.318   6.651
14416TIP3    H143205   6.418   0.368   6.600
14416TIP3    H243206   6.567   0.352   6.623
14417TIP3   OH243207   7.879   7.130   3.673
14417TIP3    H143208   7.926   7.208   3.704
14417TIP3    H243209   7.942   7.085   3.616
14418TIP3   OH243210   4.289   7.343   1.718
14418TIP3    H143211   4.216   7.289   1.686
14418TIP3    H243212   4.248   7.408   1.775
14419TIP3   OH243213   5.035   5.388   6.319
14419TIP3    H143214   5.094   5.314   6.301
14419TIP3    H243215   5.093   5.464   6.320
14420TIP3   OH243216   3.136   5.340   0.987
14420TIP3    H143217   3.070   5.366   1.051
14420TIP3    H243218   3.133   5.408   0.920
14421TIP3   OH243219   6.422   6.067   4.254
14421TIP3    H143220   6.339   6.058   4.207
14421TIP3    H243221   6.452   5.978   4.268
14422TIP3   OH243222   8.146   3.376   1.563
14422TIP3    H143223   8.103   3.359   1.647
14422TIP3    H243224   8.218   3.435   1.584
14423TIP3   OH243225   1.849   4.166   3.902
14423TIP3    H143226   1.830   4.256   3.877
14423TIP3    H243227   1.838   4.116   3.822
14424TIP3   OH243228   5.970   4.532   5.088
14424TIP3    H143229   6.005   4.561   5.172
14424TIP3    H243230   6.003   4.596   5.025
14425TIP3   OH243231   0.113   3.213   2.202
14425TIP3    H143232   0.043   3.249   2.147
14425TIP3    H243233   0.072   3.140   2.248
14426TIP3   OH243234   7.673   3.645   0.055
14426TIP3    H143235   7.656   3.583  -0.016
14426TIP3    H243236   7.765   3.635   0.075
14427TIP3   OH243237   1.364   1.792   2.743
14427TIP3    H143238   1.307   1.800   2.819
14427TIP3    H243239   1.350   1.872   2.693
14428TIP3   OH243240   1.991   6.006   6.115
14428TIP3    H143241   1.991   5.923   6.164
14428TIP3    H243242   2.010   5.980   6.025
14429TIP3   OH243243   7.479   5.338   2.744
14429TIP3    H143244   7.542   5.270   2.721
14429TIP3    H243245   7.530   5.419   2.742
14430TIP3   OH243246   1.343   1.364   2.581
14430TIP3    H143247   1.290   1.290   2.611
14430TIP3    H243248   1.355   1.348   2.487
14431TIP3   OH243249   3.672   7.787   0.192
14431TIP3    H143250   3.753   7.747   0.160
14431TIP3    H243251   3.701   7.862   0.243
14432TIP3   OH243252   6.133   3.907   5.997
14432TIP3    H143253   6.138   3.964   6.073
14432TIP3    H243254   6.215   3.859   5.997
14433TIP3   OH243255   4.632   0.215   5.340
14433TIP3    H143256   4.582   0.272   5.398
14433TIP3    H243257   4.597   0.127   5.356
14434TIP3   OH243258   4.667   0.286   3.070
14434TIP3    H143259   4.589   0.232   3.084
14434TIP3    H243260   4.728   0.255   3.137
14435TIP3   OH243261   7.201   6.801   0.777
14435TIP3    H143262   7.116   6.840   0.760
14435TIP3    H243263   7.234   6.849   0.854
14436TIP3   OH243264   1.776   2.702   4.877
14436TIP3    H143265   1.808   2.706   4.787
14436TIP3    H243266   1.699   2.645   4.874
14437TIP3   OH243267   3.532   0.112   3.347
14437TIP3    H143268   3.447   0.086   3.312
14437TIP3    H243269   3.552   0.195   3.303
14438TIP3   OH243270   7.541   4.933   1.154
14438TIP3    H143271   7.466   4.883   1.186
14438TIP3    H243272   7.594   4.949   1.232
14439TIP3   OH243273   0.554   7.503   2.953
14439TIP3    H143274   0.551   7.538   3.043
14439TIP3    H243275   0.618   7.559   2.909
14440TIP3   OH243276   0.705   0.635   6.676
14440TIP3    H143277   0.678   0.549   6.646
14440TIP3    H243278   0.801   0.629   6.683
14441TIP3   OH243279   8.143   6.907   2.590
14441TIP3    H143280   8.184   6.924   2.506
14441TIP3    H243281   8.137   6.812   2.595
14442TIP3   OH243282   4.773   7.585   5.146
14442TIP3    H143283   4.737   7.601   5.059
14442TIP3    H243284   4.865   7.564   5.130
14443TIP3   OH243285   7.444   5.787   6.429
14443TIP3    H143286   7.418   5.872   6.464
14443TIP3    H243287   7.540   5.793   6.421
14444TIP3   OH243288   6.820   6.858   0.193
14444TIP3    H143289   6.736   6.899   0.213
14444TIP3    H243290   6.829   6.866   0.098
14445TIP3   OH243291   1.771   0.616   5.110
14445TIP3    H143292   1.786   0.523   5.126
14445TIP3    H243293   1.791   0.628   5.018
14446TIP3   OH243294   0.675   3.955   5.247
14446TIP3    H143295   0.664   4.037   5.295
14446TIP3    H243296   0.608   3.897   5.283
14447TIP3   OH243297   1.318   4.865   4.878
14447TIP3    H143298   1.265   4.786   4.866
14447TIP3    H243299   1.327   4.900   4.789
14448TIP3   OH243300   6.281   2.057   5.608
14448TIP3    H143301   6.323   2.143   5.604
14448TIP3    H243302   6.354   1.994   5.607
14449TIP3   OH243303   4.653   0.659   0.858
14449TIP3    H143304   4.735   0.632   0.816
14449TIP3    H243305   4.651   0.609   0.940
14450TIP3   OH243306   5.915   4.431   0.601
14450TIP3    H143307   5.862   4.420   0.522
14450TIP3    H243308   5.994   4.477   0.571
14451TIP3   OH243309   3.347   4.470   1.685
14451TIP3    H143310   3.265   4.457   1.732
14451TIP3    H243311   3.328   4.443   1.595
14452TIP3   OH243312   8.029   4.761   4.315
14452TIP3    H143313   8.023   4.817   4.392
14452TIP3    H243314   7.960   4.696   4.327
14453TIP3   OH243315   2.901   4.669   4.806
14453TIP3    H143316   2.840   4.605   4.842
14453TIP3    H243317   2.846   4.737   4.768
14454TIP3   OH243318   0.560   3.507   0.085
14454TIP3    H143319   0.536   3.572   0.151
14454TIP3    H243320   0.477   3.485   0.042
14455TIP3   OH243321   2.586   5.397   1.604
14455TIP3    H143322   2.513   5.422   1.547
14455TIP3    H243323   2.661   5.389   1.545
14456TIP3   OH243324   7.959   5.631   2.378
14456TIP3    H143325   7.965   5.704   2.317
14456TIP3    H243326   8.040   5.581   2.364
14457TIP3   OH243327   3.169   2.959   2.288
14457TIP3    H143328   3.218   2.966   2.206
14457TIP3    H243329   3.230   2.991   2.355
14458TIP3   OH243330   3.471   3.123   3.137
14458TIP3    H143331   3.375   3.126   3.143
14458TIP3    H243332   3.496   3.052   3.195
14459TIP3   OH243333   6.240   7.390   2.328
14459TIP3    H143334   6.226   7.399   2.422
14459TIP3    H243335   6.163   7.342   2.297
14460TIP3   OH243336   0.239   0.243   6.562
14460TIP3    H143337   0.275   0.323   6.524
14460TIP3    H243338   0.293   0.227   6.640
14461TIP3   OH243339   6.369   1.423   1.815
14461TIP3    H143340   6.422   1.484   1.867
14461TIP3    H243341   6.295   1.401   1.871
14462TIP3   OH243342   3.611   3.156   6.017
14462TIP3    H143343   3.568   3.085   5.969
14462TIP3    H243344   3.558   3.167   6.096
14463TIP3   OH243345   1.868   5.495   5.211
14463TIP3    H143346   1.835   5.407   5.194
14463TIP3    H243347   1.905   5.524   5.127
14464TIP3   OH243348   7.345   5.589   1.649
14464TIP3    H143349   7.254   5.565   1.669
14464TIP3    H243350   7.392   5.506   1.651
14465TIP3   OH243351   0.292   3.772   2.131
14465TIP3    H143352   0.326   3.710   2.195
14465TIP3    H243353   0.235   3.720   2.074
14466TIP3   OH243354   1.883   1.478   6.199
14466TIP3    H143355   1.789   1.489   6.214
14466TIP3    H243356   1.906   1.399   6.248
14467TIP3   OH243357   3.476   1.896   2.172
14467TIP3    H143358   3.451   1.857   2.088
14467TIP3    H243359   3.545   1.839   2.206
14468TIP3   OH243360   3.170   1.245   4.611
14468TIP3    H143361   3.198   1.153   4.609
14468TIP3    H243362   3.095   1.248   4.551
14469TIP3   OH243363   2.018   6.352   5.525
14469TIP3    H143364   2.111   6.370   5.513
14469TIP3    H243365   1.975   6.436   5.509
14470TIP3   OH243366   6.319   5.373   4.212
14470TIP3    H143367   6.227   5.396   4.198
14470TIP3    H243368   6.322   5.337   4.300
14471TIP3   OH243369   5.726   6.962   0.871
14471TIP3    H143370   5.711   7.056   0.871
14471TIP3    H243371   5.641   6.924   0.851
14472TIP3   OH243372   6.330   0.039   6.272
14472TIP3    H143373   6.267   0.066   6.205
14472TIP3    H243374   6.408   0.092   6.255
14473TIP3   OH243375   5.558   4.804   0.561
14473TIP3    H143376   5.564   4.880   0.503
14473TIP3    H243377   5.546   4.842   0.648
14474TIP3   OH243378   3.762   5.340   4.895
14474TIP3    H143379   3.722   5.257   4.921
14474TIP3    H243380   3.757   5.340   4.799
14475TIP3   OH243381   2.174   3.537   2.937
14475TIP3    H143382   2.176   3.476   3.011
14475TIP3    H243383   2.091   3.517   2.892
14476TIP3   OH243384   7.514   2.238   5.640
14476TIP3    H143385   7.496   2.145   5.658
14476TIP3    H243386   7.474   2.254   5.555
14477TIP3   OH243387   4.981   7.710   6.059
14477TIP3    H143388   4.946   7.773   5.997
14477TIP3    H243389   5.054   7.755   6.102
14478TIP3   OH243390   2.680   2.373   1.369
14478TIP3    H143391   2.737   2.300   1.345
14478TIP3    H243392   2.701   2.441   1.306
14479TIP3   OH243393   0.713   3.882   2.572
14479TIP3    H143394   0.642   3.833   2.531
14479TIP3    H243395   0.693   3.880   2.665
14480TIP3   OH243396   2.866   4.002   6.468
14480TIP3    H143397   2.809   3.926   6.453
14480TIP3    H243398   2.810   4.077   6.448
14481TIP3   OH243399   1.590   6.239   1.939
14481TIP3    H143400   1.569   6.157   1.893
14481TIP3    H243401   1.542   6.306   1.891
14482TIP3   OH243402   4.551   6.252   5.302
14482TIP3    H143403   4.513   6.167   5.326
14482TIP3    H243404   4.646   6.238   5.310
14483TIP3   OH243405   1.126   3.789   0.236
14483TIP3    H143406   1.121   3.704   0.281
14483TIP3    H243407   1.220   3.803   0.223
14484TIP3   OH243408   0.333   0.398   5.922
14484TIP3    H143409   0.282   0.471   5.887
14484TIP3    H243410   0.278   0.361   5.991
14485TIP3   OH243411   2.267   7.443   3.198
14485TIP3    H143412   2.315   7.491   3.130
14485TIP3    H243413   2.189   7.411   3.153
14486TIP3   OH243414   7.536   7.485   4.943
14486TIP3    H143415   7.441   7.480   4.952
14486TIP3    H243416   7.551   7.564   4.890
14487TIP3   OH243417   2.262   4.993   2.544
14487TIP3    H143418   2.338   5.021   2.595
14487TIP3    H243419   2.287   4.908   2.508
14488TIP3   OH243420   7.446   4.056   5.600
14488TIP3    H143421   7.378   4.058   5.667
14488TIP3    H243422   7.519   4.010   5.641
14489TIP3   OH243423   5.598   2.446   4.872
14489TIP3    H143424   5.595   2.365   4.923
14489TIP3    H243425   5.514   2.449   4.827
14490TIP3   OH243426   2.516   0.077   5.467
14490TIP3    H143427   2.566   0.121   5.536
14490TIP3    H243428   2.545  -0.014   5.472
14491TIP3   OH243429   7.386   0.431   4.705
14491TIP3    H143430   7.349   0.346   4.728
14491TIP3    H243431   7.351   0.491   4.772
14492TIP3   OH243432   7.284   6.301   6.540
14492TIP3    H143433   7.208   6.326   6.488
14492TIP3    H243434   7.271   6.343   6.625
14493TIP3   OH243435   0.875   3.043   2.624
14493TIP3    H143436   0.915   3.004   2.546
14493TIP3    H243437   0.945   3.093   2.665
14494TIP3   OH243438   0.327   6.562   3.703
14494TIP3    H143439   0.390   6.491   3.693
14494TIP3    H243440   0.279   6.563   3.621
14495TIP3   OH243441   1.177   1.152   2.631
14495TIP3    H143442   1.241   1.103   2.579
14495TIP3    H243443   1.101   1.161   2.574
14496TIP3   OH243444   1.725   7.164   3.056
14496TIP3    H143445   1.804   7.125   3.020
14496TIP3    H243446   1.666   7.173   2.981
14497TIP3   OH243447   1.417   4.159   2.892
14497TIP3    H143448   1.467   4.230   2.852
14497TIP3    H243449   1.351   4.137   2.827
14498TIP3   OH243450   4.664   7.715   2.507
14498TIP3    H143451   4.691   7.651   2.442
14498TIP3    H243452   4.654   7.665   2.588
14499TIP3   OH243453   2.263   1.348   0.963
14499TIP3    H143454   2.347   1.353   1.008
14499TIP3    H243455   2.213   1.423   0.996
14500TIP3   OH243456   5.889   2.336   5.623
14500TIP3    H143457   5.937   2.309   5.701
14500TIP3    H243458   5.936   2.412   5.590
14501TIP3   OH243459   2.741   6.684   1.076
14501TIP3    H143460   2.721   6.633   0.998
14501TIP3    H243461   2.832   6.711   1.065
14502TIP3   OH243462   0.639   5.402   3.000
14502TIP3    H143463   0.706   5.339   3.028
14502TIP3    H243464   0.645   5.473   3.063
14503TIP3   OH243465   6.814   0.781   3.392
14503TIP3    H143466   6.834   0.738   3.309
14503TIP3    H243467   6.736   0.834   3.373
14504TIP3   OH243468   1.364   2.609   1.131
14504TIP3    H143469   1.378   2.546   1.201
14504TIP3    H243470   1.449   2.616   1.087
14505TIP3   OH243471   3.744   2.529   5.035
14505TIP3    H143472   3.836   2.555   5.039
14505TIP3    H243473   3.696   2.612   5.027
14506TIP3   OH243474   1.340   5.313   0.218
14506TIP3    H143475   1.359   5.254   0.291
14506TIP3    H243476   1.377   5.397   0.244
14507TIP3   OH243477   0.363   2.908   6.711
14507TIP3    H143478   0.339   2.878   6.623
14507TIP3    H243479   0.298   2.976   6.732
14508TIP3   OH243480   3.847   2.352   3.071
14508TIP3    H143481   3.935   2.382   3.092
14508TIP3    H243482   3.795   2.376   3.148
14509TIP3   OH243483   7.754   4.954   4.936
14509TIP3    H143484   7.775   5.045   4.914
14509TIP3    H243485   7.678   4.933   4.881
14510TIP3   OH243486   3.208   3.516   5.195
14510TIP3    H143487   3.246   3.592   5.238
14510TIP3    H243488   3.113   3.528   5.203
14511TIP3   OH243489   2.168   3.819   2.653
14511TIP3    H143490   2.251   3.857   2.623
14511TIP3    H243491   2.191   3.730   2.682
14512TIP3   OH243492   4.390   2.429   1.178
14512TIP3    H143493   4.376   2.464   1.266
14512TIP3    H243494   4.348   2.492   1.120
14513TIP3   OH243495   3.174   5.062   4.668
14513TIP3    H143496   3.168   5.156   4.683
14513TIP3    H243497   3.202   5.054   4.577
14514TIP3   OH243498   7.890   6.701   1.453
14514TIP3    H143499   7.963   6.754   1.486
14514TIP3    H243500   7.905   6.614   1.491
14515TIP3   OH243501   5.119   5.018   4.117
14515TIP3    H143502   5.104   5.040   4.025
14515TIP3    H243503   5.190   4.954   4.114
14516TIP3   OH243504   2.257   4.703   4.652
14516TIP3    H143505   2.300   4.774   4.699
14516TIP3    H243506   2.274   4.723   4.560
14517TIP3   OH243507   1.279   6.101   3.966
14517TIP3    H143508   1.287   6.166   3.896
14517TIP3    H243509   1.309   6.019   3.927
14518TIP3   OH243510   7.809   0.486   1.417
14518TIP3    H143511   7.899   0.477   1.384
14518TIP3    H243512   7.761   0.525   1.344
14519TIP3   OH243513   0.199   1.003   6.591
14519TIP3    H143514   0.275   1.061   6.595
14519TIP3    H243515   0.186   0.975   6.682
14520TIP3   OH243516   3.392   1.151   3.542
14520TIP3    H143517   3.342   1.122   3.618
14520TIP3    H243518   3.482   1.160   3.573
14521TIP3   OH243519   6.109   3.109   2.141
14521TIP3    H143520   6.116   3.186   2.197
14521TIP3    H243521   6.059   3.139   2.065
14522TIP3   OH243522   3.119   4.040   5.653
14522TIP3    H143523   3.145   4.131   5.638
14522TIP3    H243524   3.024   4.042   5.654
14523TIP3   OH243525   2.096   0.536   4.722
14523TIP3    H143526   2.070   0.592   4.794
14523TIP3    H243527   2.187   0.560   4.704
14524TIP3   OH243528   5.681   2.357   0.461
14524TIP3    H143529   5.689   2.420   0.532
14524TIP3    H243530   5.701   2.408   0.382
14525TIP3   OH243531   6.588   0.994   2.745
14525TIP3    H143532   6.634   1.034   2.819
14525TIP3    H243533   6.618   0.903   2.744
14526TIP3   OH243534   3.827   1.224   5.245
14526TIP3    H143535   3.860   1.160   5.182
14526TIP3    H243536   3.871   1.201   5.328
14527TIP3   OH243537   3.181   5.596   0.825
14527TIP3    H143538   3.171   5.680   0.870
14527TIP3    H243539   3.121   5.601   0.751
14528TIP3   OH243540   7.578   0.451   0.591
14528TIP3    H143541   7.547   0.537   0.619
14528TIP3    H243542   7.632   0.420   0.665
14529TIP3   OH243543   1.430   3.177   0.116
14529TIP3    H143544   1.379   3.200   0.039
14529TIP3    H243545   1.457   3.087   0.101
14530TIP3   OH243546   6.005   3.410   0.520
14530TIP3    H143547   6.069   3.349   0.558
14530TIP3    H243548   6.037   3.424   0.430
14531TIP3   OH243549   2.527   5.538   1.033
14531TIP3    H143550   2.458   5.595   1.001
14531TIP3    H243551   2.578   5.592   1.093
14532TIP3   OH243552   2.985   6.293   6.732
14532TIP3    H143553   3.050   6.324   6.669
14532TIP3    H243554   3.020   6.210   6.764
14533TIP3   OH243555   0.486   7.141   1.000
14533TIP3    H143556   0.404   7.129   0.952
14533TIP3    H243557   0.475   7.092   1.081
14534TIP3   OH243558   2.778   3.165   3.318
14534TIP3    H143559   2.779   3.245   3.265
14534TIP3    H243560   2.779   3.094   3.254
14535TIP3   OH243561   3.117   5.891   2.716
14535TIP3    H143562   3.152   5.845   2.640
14535TIP3    H243563   3.036   5.845   2.737
14536TIP3   OH243564   2.168   2.001   4.986
14536TIP3    H143565   2.257   2.023   5.012
14536TIP3    H243566   2.119   1.996   5.068
14537TIP3   OH243567   4.581   7.390   2.670
14537TIP3    H143568   4.536   7.461   2.715
14537TIP3    H243569   4.595   7.422   2.581
14538TIP3   OH243570   7.483   3.282   2.797
14538TIP3    H143571   7.513   3.334   2.872
14538TIP3    H243572   7.418   3.338   2.754
14539TIP3   OH243573   1.965   6.969   1.235
14539TIP3    H143574   2.049   7.015   1.232
14539TIP3    H243575   1.902   7.030   1.198
14540TIP3   OH243576   3.680   6.441   1.574
14540TIP3    H143577   3.730   6.370   1.533
14540TIP3    H243578   3.651   6.495   1.500
14541TIP3   OH243579   7.821   5.383   1.482
14541TIP3    H143580   7.848   5.442   1.552
14541TIP3    H243581   7.735   5.351   1.510
14542TIP3   OH243582   0.012   0.106   0.311
14542TIP3    H143583   0.009   0.193   0.272
14542TIP3    H243584   0.050   0.119   0.398
14543TIP3   OH243585   7.209   5.789   0.543
14543TIP3    H143586   7.299   5.776   0.511
14543TIP3    H243587   7.217   5.787   0.639
14544TIP3   OH243588   0.244   0.813   6.389
14544TIP3    H143589   0.332   0.828   6.355
14544TIP3    H243590   0.237   0.871   6.465
14545TIP3   OH243591   6.165   1.140   0.283
14545TIP3    H143592   6.220   1.134   0.205
14545TIP3    H243593   6.207   1.082   0.347
14546TIP3   OH243594   2.423   4.279   3.524
14546TIP3    H143595   2.424   4.218   3.451
14546TIP3    H243596   2.465   4.358   3.490
14547TIP3   OH243597   4.369   4.377   5.643
14547TIP3    H143598   4.445   4.428   5.671
14547TIP3    H243599   4.371   4.298   5.698
14548TIP3   OH243600   5.254   3.954   6.773
14548TIP3    H143601   5.235   4.045   6.749
14548TIP3    H243602   5.176   3.905   6.747
14549TIP3   OH243603   3.096   6.234   3.727
14549TIP3    H143604   3.016   6.196   3.690
14549TIP3    H243605   3.082   6.232   3.822
14550TIP3   OH243606   5.577   2.957   1.327
14550TIP3    H143607   5.668   2.974   1.351
14550TIP3    H243608   5.526   2.991   1.400
14551TIP3   OH243609   2.010   1.925   3.818
14551TIP3    H143610   2.102   1.906   3.799
14551TIP3    H243611   1.963   1.851   3.779
14552TIP3   OH243612   5.025   6.177   5.866
14552TIP3    H143613   4.978   6.096   5.844
14552TIP3    H243614   4.976   6.214   5.940
14553TIP3   OH243615   7.770   0.863   5.738
14553TIP3    H143616   7.859   0.854   5.704
14553TIP3    H243617   7.750   0.776   5.774
14554TIP3   OH243618   0.197   1.258   0.910
14554TIP3    H143619   0.184   1.338   0.859
14554TIP3    H243620   0.108   1.229   0.932
14555TIP3   OH243621   6.543   4.417   5.018
14555TIP3    H143622   6.519   4.509   5.020
14555TIP3    H243623   6.544   4.390   5.110
14556TIP3   OH243624   7.510   1.782   1.262
14556TIP3    H143625   7.490   1.833   1.340
14556TIP3    H243626   7.577   1.720   1.290
14557TIP3   OH243627   0.318   4.451   5.402
14557TIP3    H143628   0.277   4.394   5.337
14557TIP3    H243629   0.264   4.530   5.404
14558TIP3   OH243630   5.352   5.165   5.046
14558TIP3    H143631   5.285   5.167   4.978
14558TIP3    H243632   5.330   5.088   5.098
14559TIP3   OH243633   5.368   1.180   1.551
14559TIP3    H143634   5.363   1.271   1.521
14559TIP3    H243635   5.348   1.185   1.644
14560TIP3   OH243636   2.637   6.640   3.296
14560TIP3    H143637   2.590   6.702   3.240
14560TIP3    H243638   2.725   6.637   3.260
14561TIP3   OH243639   2.474   6.341   1.668
14561TIP3    H143640   2.546   6.314   1.610
14561TIP3    H243641   2.507   6.419   1.712
14562TIP3   OH243642   7.901   4.758   0.321
14562TIP3    H143643   7.868   4.686   0.374
14562TIP3    H243644   7.979   4.789   0.368
14563TIP3   OH243645   0.955   5.775   0.749
14563TIP3    H143646   0.973   5.823   0.668
14563TIP3    H243647   0.949   5.843   0.816
14564TIP3   OH243648   4.775   5.085   2.898
14564TIP3    H143649   4.729   5.006   2.870
14564TIP3    H243650   4.733   5.156   2.849
14565TIP3   OH243651   7.042   2.339   2.905
14565TIP3    H143652   6.968   2.339   2.967
14565TIP3    H243653   7.119   2.347   2.961
14566TIP3   OH243654   4.886   2.051   2.069
14566TIP3    H143655   4.962   2.109   2.076
14566TIP3    H243656   4.822   2.103   2.021
14567TIP3   OH243657   5.647   5.430   3.865
14567TIP3    H143658   5.602   5.430   3.949
14567TIP3    H243659   5.578   5.409   3.801
14568TIP3   OH243660   2.047   4.536   2.414
14568TIP3    H143661   2.103   4.463   2.387
14568TIP3    H243662   2.040   4.591   2.335
14569TIP3   OH243663   5.519   1.898   0.267
14569TIP3    H143664   5.472   1.815   0.264
14569TIP3    H243665   5.552   1.903   0.357
14570TIP3   OH243666   7.378   6.977   6.782
14570TIP3    H143667   7.365   6.989   6.688
14570TIP3    H243668   7.473   6.985   6.794
14571TIP3   OH243669   5.190   2.348   2.257
14571TIP3    H143670   5.118   2.301   2.299
14571TIP3    H243671   5.193   2.432   2.302
14572TIP3   OH243672   5.859   4.228   2.506
14572TIP3    H143673   5.848   4.323   2.511
14572TIP3    H243674   5.947   4.216   2.469
14573TIP3   OH243675   2.301   0.303   0.815
14573TIP3    H143676   2.229   0.333   0.760
14573TIP3    H243677   2.379   0.318   0.762
14574TIP3   OH243678   7.957   5.639   2.097
14574TIP3    H143679   7.897   5.566   2.085
14574TIP3    H243680   8.045   5.601   2.090
14575TIP3   OH243681   6.066   2.960   1.587
14575TIP3    H143682   6.099   2.873   1.609
14575TIP3    H243683   6.124   2.992   1.519
14576TIP3   OH243684   2.189   3.876   4.912
14576TIP3    H143685   2.123   3.811   4.887
14576TIP3    H243686   2.229   3.840   4.991
14577TIP3   OH243687   2.587   4.760   0.775
14577TIP3    H143688   2.547   4.685   0.819
14577TIP3    H243689   2.516   4.799   0.724
14578TIP3   OH243690   5.945   0.367   2.734
14578TIP3    H143691   5.919   0.433   2.670
14578TIP3    H243692   5.999   0.306   2.684
14579TIP3   OH243693   5.214   0.228   3.806
14579TIP3    H143694   5.295   0.272   3.780
14579TIP3    H243695   5.229   0.135   3.787
14580TIP3   OH243696   2.931   3.887   0.310
14580TIP3    H143697   2.976   3.802   0.304
14580TIP3    H243698   2.906   3.907   0.220
14581TIP3   OH243699   4.675   6.700   5.913
14581TIP3    H143700   4.704   6.659   5.831
14581TIP3    H243701   4.653   6.789   5.888
14582TIP3   OH243702   7.871   4.939   6.515
14582TIP3    H143703   7.816   4.976   6.446
14582TIP3    H243704   7.913   5.014   6.555
14583TIP3   OH243705   7.271   5.978   2.857
14583TIP3    H143706   7.268   5.882   2.853
14583TIP3    H243707   7.335   6.002   2.789
14584TIP3   OH243708   3.659   3.496   3.356
14584TIP3    H143709   3.707   3.507   3.438
14584TIP3    H243710   3.698   3.419   3.316
14585TIP3   OH243711   2.657   2.520   6.027
14585TIP3    H143712   2.710   2.443   6.007
14585TIP3    H243713   2.696   2.557   6.106
14586TIP3   OH243714   4.940   3.783   1.875
14586TIP3    H143715   4.985   3.859   1.911
14586TIP3    H243716   5.003   3.743   1.815
14587TIP3   OH243717   3.297   1.307   5.863
14587TIP3    H143718   3.347   1.263   5.931
14587TIP3    H243719   3.328   1.398   5.865
14588TIP3   OH243720   0.574   3.864   4.399
14588TIP3    H143721   0.623   3.782   4.396
14588TIP3    H243722   0.486   3.838   4.426
14589TIP3   OH243723   4.272   4.908   0.326
14589TIP3    H143724   4.229   4.994   0.328
14589TIP3    H243725   4.206   4.849   0.290
14590TIP3   OH243726   3.728   7.214   3.157
14590TIP3    H143727   3.767   7.300   3.172
14590TIP3    H243728   3.664   7.204   3.228
14591TIP3   OH243729   1.000   4.368   1.122
14591TIP3    H143730   0.979   4.450   1.166
14591TIP3    H243731   0.994   4.301   1.190
14592TIP3   OH243732   3.034   0.928   0.917
14592TIP3    H143733   2.984   1.007   0.940
14592TIP3    H243734   2.969   0.869   0.878
14593TIP3   OH243735   3.073   1.060   0.542
14593TIP3    H143736   3.093   1.125   0.474
14593TIP3    H243737   2.982   1.036   0.527
14594TIP3   OH243738   0.842   4.154   0.145
14594TIP3    H143739   0.899   4.115   0.211
14594TIP3    H243740   0.898   4.167   0.069
14595TIP3   OH243741   6.879   4.681   2.693
14595TIP3    H143742   6.857   4.743   2.762
14595TIP3    H243743   6.796   4.642   2.668
14596TIP3   OH243744   3.998   4.024   5.918
14596TIP3    H143745   4.017   3.941   5.875
14596TIP3    H243746   3.916   4.054   5.878
14597TIP3   OH243747   7.295   4.164   6.603
14597TIP3    H143748   7.318   4.076   6.634
14597TIP3    H243749   7.276   4.213   6.683
14598TIP3   OH243750   0.024   1.344   0.713
14598TIP3    H143751   0.109   1.348   0.668
14598TIP3    H243752  -0.031   1.405   0.665
14599TIP3   OH243753   2.984   4.223   2.738
14599TIP3    H143754   2.940   4.144   2.707
14599TIP3    H243755   3.049   4.243   2.671
14600TIP3   OH243756   6.082   4.344   2.108
14600TIP3    H143757   6.024   4.335   2.033
14600TIP3    H243758   6.078   4.438   2.130
14601TIP3   OH243759   7.871   6.631   0.995
14601TIP3    H143760   7.929   6.659   1.066
14601TIP3    H243761   7.842   6.544   1.021
14602TIP3   OH243762   3.350   6.391   0.003
14602TIP3    H143763   3.304   6.472   0.028
14602TIP3    H243764   3.443   6.413   0.010
14603TIP3   OH243765   7.897   1.428   4.482
14603TIP3    H143766   7.917   1.441   4.390
14603TIP3    H243767   7.873   1.335   4.489
14604TIP3   OH243768   0.278   0.038   4.452
14604TIP3    H143769   0.291   0.024   4.358
14604TIP3    H243770   0.247  -0.046   4.485
14605TIP3   OH243771   3.368   3.735   5.303
14605TIP3    H143772   3.349   3.802   5.368
14605TIP3    H243773   3.441   3.769   5.253
14606TIP3   OH243774   1.401   3.390   3.026
14606TIP3    H143775   1.458   3.460   3.058
14606TIP3    H243776   1.317   3.406   3.068
14607TIP3   OH243777   3.454   3.793   1.206
14607TIP3    H143778   3.409   3.790   1.122
14607TIP3    H243779   3.410   3.863   1.255
14608TIP3   OH243780   8.099   5.202   0.999
14608TIP3    H143781   8.087   5.107   0.998
14608TIP3    H243782   8.013   5.238   0.978
14609TIP3   OH243783   7.461   4.599   2.159
14609TIP3    H143784   7.384   4.603   2.216
14609TIP3    H243785   7.492   4.509   2.168
14610TIP3   OH243786   7.266   1.356   4.189
14610TIP3    H143787   7.291   1.310   4.269
14610TIP3    H243788   7.344   1.405   4.164
14611TIP3   OH243789   0.576   0.750   3.914
14611TIP3    H143790   0.541   0.671   3.873
14611TIP3    H243791   0.498   0.799   3.939
14612TIP3   OH243792   3.469   0.059   6.231
14612TIP3    H143793   3.389   0.064   6.284
14612TIP3    H243794   3.456  -0.018   6.175
14613TIP3   OH243795   0.635   5.682   2.568
14613TIP3    H143796   0.629   5.606   2.625
14613TIP3    H243797   0.689   5.653   2.495
14614TIP3   OH243798   1.071   5.025   2.743
14614TIP3    H143799   1.124   5.050   2.667
14614TIP3    H243800   0.983   5.012   2.707
14615TIP3   OH243801   6.353   5.062   4.573
14615TIP3    H143802   6.304   4.983   4.596
14615TIP3    H243803   6.445   5.036   4.575
14616TIP3   OH243804   6.501   2.902   5.030
14616TIP3    H143805   6.415   2.894   5.072
14616TIP3    H243806   6.485   2.882   4.938
14617TIP3   OH243807   0.866   0.111   5.439
14617TIP3    H143808   0.944   0.168   5.437
14617TIP3    H243809   0.804   0.156   5.496
14618TIP3   OH243810   4.905   4.852   5.685
14618TIP3    H143811   4.913   4.784   5.618
14618TIP3    H243812   4.845   4.816   5.750
14619TIP3   OH243813   2.034   4.700   3.100
14619TIP3    H143814   2.022   4.628   3.038
14619TIP3    H243815   2.066   4.657   3.180
14620TIP3   OH243816   5.494   4.344   1.233
14620TIP3    H143817   5.521   4.283   1.164
14620TIP3    H243818   5.443   4.410   1.187
14621TIP3   OH243819   2.820   0.063   3.317
14621TIP3    H143820   2.768   0.037   3.241
14621TIP3    H243821   2.888   0.121   3.281
14622TIP3   OH243822   1.458   1.808   3.441
14622TIP3    H143823   1.393   1.790   3.510
14622TIP3    H243824   1.532   1.846   3.488
14623TIP3   OH243825   6.183   7.202   2.926
14623TIP3    H143826   6.194   7.285   2.972
14623TIP3    H243827   6.191   7.135   2.994
14624TIP3   OH243828   2.278   1.452   4.218
14624TIP3    H143829   2.346   1.505   4.261
14624TIP3    H243830   2.287   1.365   4.257
14625TIP3   OH243831   7.951   3.845   4.762
14625TIP3    H143832   7.950   3.751   4.783
14625TIP3    H243833   7.978   3.888   4.843
14626TIP3   OH243834   1.705   4.070   1.206
14626TIP3    H143835   1.688   4.110   1.291
14626TIP3    H243836   1.693   4.141   1.143
14627TIP3   OH243837   7.013   0.945   1.662
14627TIP3    H143838   7.008   1.041   1.664
14627TIP3    H243839   7.013   0.923   1.569
14628TIP3   OH243840   4.865   4.060   3.389
14628TIP3    H143841   4.778   4.097   3.378
14628TIP3    H243842   4.923   4.118   3.340
14629TIP3   OH243843   4.904   2.539   6.600
14629TIP3    H143844   4.956   2.471   6.643
14629TIP3    H243845   4.817   2.502   6.594
14630TIP3   OH243846   2.330   2.853   6.536
14630TIP3    H143847   2.389   2.789   6.574
14630TIP3    H243848   2.387   2.920   6.498
14631TIP3   OH243849   2.170   7.573   6.398
14631TIP3    H143850   2.108   7.612   6.336
14631TIP3    H243851   2.196   7.646   6.455
14632TIP3   OH243852   5.010   3.187   5.284
14632TIP3    H143853   4.969   3.114   5.329
14632TIP3    H243854   5.024   3.156   5.194
14633TIP3   OH243855   3.142   6.946   1.983
14633TIP3    H143856   3.086   6.974   2.056
14633TIP3    H243857   3.150   6.852   1.994
14634TIP3   OH243858   6.233   0.171   3.389
14634TIP3    H143859   6.227   0.250   3.335
14634TIP3    H243860   6.169   0.110   3.350
14635TIP3   OH243861   1.958   4.404   2.780
14635TIP3    H143862   1.932   4.425   2.870
14635TIP3    H243863   1.934   4.481   2.729
14636TIP3   OH243864   4.214   2.280   2.308
14636TIP3    H143865   4.141   2.305   2.364
14636TIP3    H243866   4.174   2.260   2.223
14637TIP3   OH243867   1.968   5.490   0.981
14637TIP3    H143868   2.042   5.454   1.030
14637TIP3    H243869   2.006   5.515   0.896
14638TIP3   OH243870   3.841   1.153   4.684
14638TIP3    H143871   3.845   1.127   4.592
14638TIP3    H243872   3.863   1.074   4.733
14639TIP3   OH243873   0.709   7.157   6.768
14639TIP3    H143874   0.801   7.147   6.791
14639TIP3    H243875   0.697   7.100   6.692
14640TIP3   OH243876   3.790   6.131   4.531
14640TIP3    H143877   3.875   6.134   4.487
14640TIP3    H243878   3.727   6.155   4.464
14641TIP3   OH243879   6.269   1.689   2.028
14641TIP3    H143880   6.207   1.750   1.988
14641TIP3    H243881   6.346   1.691   1.971
14642TIP3   OH243882   6.597   5.740   3.766
14642TIP3    H143883   6.612   5.832   3.745
14642TIP3    H243884   6.526   5.742   3.831
14643TIP3   OH243885   3.859   1.340   3.794
14643TIP3    H143886   3.836   1.412   3.853
14643TIP3    H243887   3.892   1.383   3.715
14644TIP3   OH243888   1.749   6.567   5.040
14644TIP3    H143889   1.758   6.560   5.136
14644TIP3    H243890   1.811   6.636   5.016
14645TIP3   OH243891   4.502   0.467   0.004
14645TIP3    H143892   4.477   0.534  -0.060
14645TIP3    H243893   4.505   0.513   0.088
14646TIP3   OH243894   0.650   5.762   6.154
14646TIP3    H143895   0.662   5.857   6.151
14646TIP3    H243896   0.588   5.749   6.226
14647TIP3   OH243897   3.223   2.754   3.455
14647TIP3    H143898   3.274   2.739   3.535
14647TIP3    H243899   3.159   2.683   3.453
14648TIP3   OH243900   1.277   7.412   1.650
14648TIP3    H143901   1.217   7.360   1.704
14648TIP3    H243902   1.361   7.406   1.696
14649TIP3   OH243903   0.745   0.259   4.705
14649TIP3    H143904   0.838   0.245   4.723
14649TIP3    H243905   0.720   0.185   4.650
14650TIP3   OH243906   6.137   4.230   0.420
14650TIP3    H143907   6.200   4.295   0.451
14650TIP3    H243908   6.134   4.164   0.490
14651TIP3   OH243909   4.982   1.859   2.279
14651TIP3    H143910   4.940   1.924   2.222
14651TIP3    H243911   5.073   1.856   2.249
14652TIP3   OH243912   3.324   3.069   2.041
14652TIP3    H143913   3.357   2.999   1.985
14652TIP3    H243914   3.238   3.091   2.004
14653TIP3   OH243915   2.959   4.563   3.973
14653TIP3    H143916   2.910   4.483   3.958
14653TIP3    H243917   2.897   4.633   3.957
14654TIP3   OH243918   0.388   5.120   6.732
14654TIP3    H143919   0.317   5.182   6.750
14654TIP3    H243920   0.344   5.039   6.708
14655TIP3   OH243921   1.986   0.071   6.798
14655TIP3    H143922   2.056   0.034   6.744
14655TIP3    H243923   1.918   0.097   6.735
14656TIP3   OH243924   2.810   1.962   0.312
14656TIP3    H143925   2.863   2.035   0.279
14656TIP3    H243926   2.860   1.883   0.288
14657TIP3   OH243927   3.265   7.239   3.481
14657TIP3    H143928   3.223   7.221   3.397
14657TIP3    H243929   3.241   7.165   3.537
14658TIP3   OH243930   7.624   7.786   6.324
14658TIP3    H143931   7.661   7.837   6.395
14658TIP3    H243932   7.544   7.748   6.361
14659TIP3   OH243933   0.838   6.487   1.623
14659TIP3    H143934   0.876   6.450   1.703
14659TIP3    H243935   0.798   6.569   1.652
14660TIP3   OH243936   7.744   6.178   5.009
14660TIP3    H143937   7.781   6.130   5.083
14660TIP3    H243938   7.727   6.266   5.043
14661TIP3   OH243939   6.048   0.542   0.532
14661TIP3    H143940   6.000   0.496   0.601
14661TIP3    H243941   6.081   0.473   0.476
14662TIP3   OH243942   8.299   7.463   2.497
14662TIP3    H143943   8.281   7.399   2.429
14662TIP3    H243944   8.291   7.414   2.579
14663TIP3   OH243945   2.472   7.110   4.640
14663TIP3    H143946   2.511   7.198   4.644
14663TIP3    H243947   2.481   7.084   4.548
14664TIP3   OH243948   1.244   2.474   3.207
14664TIP3    H143949   1.280   2.468   3.296
14664TIP3    H243950   1.306   2.529   3.160
14665TIP3   OH243951   4.449   2.596   3.205
14665TIP3    H143952   4.441   2.501   3.194
14665TIP3    H243953   4.533   2.608   3.248
14666TIP3   OH243954   4.507   2.737   6.001
14666TIP3    H143955   4.450   2.671   6.042
14666TIP3    H243956   4.522   2.801   6.071
14667TIP3   OH243957   5.703   7.124   5.846
14667TIP3    H143958   5.669   7.116   5.757
14667TIP3    H243959   5.627   7.143   5.900
14668TIP3   OH243960   4.148   3.468   0.043
14668TIP3    H143961   4.153   3.479  -0.052
14668TIP3    H243962   4.110   3.550   0.074
14669TIP3   OH243963   4.460   1.731   6.240
14669TIP3    H143964   4.485   1.823   6.230
14669TIP3    H243965   4.412   1.728   6.323
14670TIP3   OH243966   7.439   7.752   3.456
14670TIP3    H143967   7.456   7.687   3.387
14670TIP3    H243968   7.447   7.837   3.412
14671TIP3   OH243969   8.003   7.360   4.501
14671TIP3    H143970   7.961   7.401   4.576
14671TIP3    H243971   7.981   7.417   4.427
14672TIP3   OH243972   2.532   5.742   2.337
14672TIP3    H143973   2.540   5.774   2.427
14672TIP3    H243974   2.463   5.676   2.341
14673TIP3   OH243975   2.598   3.387   4.485
14673TIP3    H143976   2.684   3.344   4.491
14673TIP3    H243977   2.614   3.477   4.514
14674TIP3   OH243978   1.810   5.052   2.496
14674TIP3    H143979   1.764   5.059   2.413
14674TIP3    H243980   1.869   4.977   2.486
14675TIP3   OH243981   2.652   4.626   1.111
14675TIP3    H143982   2.635   4.719   1.100
14675TIP3    H243983   2.586   4.583   1.057
14676TIP3   OH243984   2.311   7.193   2.437
14676TIP3    H143985   2.302   7.269   2.379
14676TIP3    H243986   2.255   7.213   2.512
14677TIP3   OH243987   0.327   4.314   2.183
14677TIP3    H143988   0.327   4.221   2.207
14677TIP3    H243989   0.396   4.353   2.237
14678TIP3   OH243990  -0.015   3.087   1.448
14678TIP3    H143991   0.050   3.027   1.411
14678TIP3    H243992   0.023   3.174   1.436
14679TIP3   OH243993   3.619   3.421   5.921
14679TIP3    H143994   3.593   3.338   5.960
14679TIP3    H243995   3.708   3.407   5.890
14680TIP3   OH243996   6.957   1.397   2.102
14680TIP3    H143997   6.968   1.492   2.113
14680TIP3    H243998   6.863   1.384   2.091
14681TIP3   OH243999   4.138   3.562   3.825
14681TIP3    H144000   4.116   3.536   3.914
14681TIP3    H244001   4.156   3.655   3.831
14682TIP3   OH244002   3.065   5.522   1.910
14682TIP3    H144003   3.070   5.612   1.940
14682TIP3    H244004   3.088   5.527   1.817
14683TIP3   OH244005   7.793   7.253   3.981
14683TIP3    H144006   7.733   7.325   4.000
14683TIP3    H244007   7.816   7.263   3.889
14684TIP3   OH244008   7.491   4.588   3.792
14684TIP3    H144009   7.495   4.518   3.857
14684TIP3    H244010   7.487   4.669   3.844
14685TIP3   OH244011   4.037   5.727   5.392
14685TIP3    H144012   4.084   5.644   5.394
14685TIP3    H244013   3.956   5.710   5.440
14686TIP3   OH244014   5.811   6.588   6.638
14686TIP3    H144015   5.806   6.668   6.585
14686TIP3    H244016   5.753   6.605   6.712
14687TIP3   OH244017   2.175   5.755   4.464
14687TIP3    H144018   2.227   5.675   4.463
14687TIP3    H244019   2.239   5.825   4.458
14688TIP3   OH244020   4.280   6.134   5.264
14688TIP3    H144021   4.243   6.049   5.240
14688TIP3    H244022   4.251   6.148   5.354
14689TIP3   OH244023   8.168   1.565   6.350
14689TIP3    H144024   8.081   1.605   6.350
14689TIP3    H244025   8.163   1.496   6.416
14690TIP3   OH244026   4.247   2.196   1.814
14690TIP3    H144027   4.284   2.117   1.854
14690TIP3    H244028   4.323   2.241   1.777
14691TIP3   OH244029   2.069   5.654   0.766
14691TIP3    H144030   2.005   5.725   0.764
14691TIP3    H244031   2.097   5.643   0.675
14692TIP3   OH244032   5.772   5.589   6.083
14692TIP3    H144033   5.860   5.587   6.044
14692TIP3    H244034   5.717   5.543   6.020
14693TIP3   OH244035   6.108   7.325   0.203
14693TIP3    H144036   6.046   7.300   0.271
14693TIP3    H244037   6.055   7.335   0.124
14694TIP3   OH244038   4.930   1.471   4.745
14694TIP3    H144039   4.842   1.432   4.740
14694TIP3    H244040   4.925   1.534   4.816
14695TIP3   OH244041   7.722   0.245   1.615
14695TIP3    H144042   7.761   0.329   1.591
14695TIP3    H244043   7.794   0.197   1.657
14696TIP3   OH244044   3.459   7.214   2.682
14696TIP3    H144045   3.452   7.132   2.731
14696TIP3    H244046   3.552   7.236   2.686
14697TIP3   OH244047   6.364   4.405   2.868
14697TIP3    H144048   6.415   4.334   2.908
14697TIP3    H244049   6.321   4.448   2.942
14698TIP3   OH244050   4.891   2.544   0.410
14698TIP3    H144051   4.844   2.627   0.411
14698TIP3    H244052   4.984   2.570   0.417
14699TIP3   OH244053   7.433   1.070   2.558
14699TIP3    H144054   7.431   0.981   2.522
14699TIP3    H244055   7.371   1.068   2.630
14700TIP3   OH244056   5.693   1.884   4.928
14700TIP3    H144057   5.625   1.816   4.930
14700TIP3    H244058   5.718   1.896   5.019
14701TIP3   OH244059   3.405   7.251   4.371
14701TIP3    H144060   3.338   7.311   4.402
14701TIP3    H244061   3.469   7.246   4.442
14702TIP3   OH244062   7.944   7.431   1.415
14702TIP3    H144063   7.878   7.475   1.469
14702TIP3    H244064   7.944   7.340   1.448
14703TIP3   OH244065   1.556   5.696   4.499
14703TIP3    H144066   1.584   5.612   4.462
14703TIP3    H244067   1.635   5.733   4.537
14704TIP3   OH244068   2.328   2.017   4.528
14704TIP3    H144069   2.242   2.049   4.553
14704TIP3    H244070   2.375   2.006   4.611
14705TIP3   OH244071   6.950   2.626   4.862
14705TIP3    H144072   7.002   2.549   4.839
14705TIP3    H244073   7.014   2.692   4.887
14706TIP3   OH244074   1.328   7.267   4.028
14706TIP3    H144075   1.368   7.251   4.113
14706TIP3    H244076   1.248   7.214   4.028
14707TIP3   OH244077   6.167   6.907   4.585
14707TIP3    H144078   6.139   6.961   4.659
14707TIP3    H244079   6.180   6.820   4.623
14708TIP3   OH244080   0.190   2.605   2.605
14708TIP3    H144081   0.189   2.686   2.656
14708TIP3    H244082   0.098   2.584   2.592
14709TIP3   OH244083   3.116   5.598   2.817
14709TIP3    H144084   3.025   5.623   2.798
14709TIP3    H244085   3.134   5.636   2.903
14710TIP3   OH244086   6.323   7.489   4.867
14710TIP3    H144087   6.360   7.403   4.851
14710TIP3    H244088   6.263   7.476   4.940
14711TIP3   OH244089   5.559   5.165   3.231
14711TIP3    H144090   5.584   5.098   3.295
14711TIP3    H244091   5.600   5.245   3.264
14712TIP3   OH244092   6.261   1.673   2.780
14712TIP3    H144093   6.225   1.659   2.693
14712TIP3    H244094   6.241   1.765   2.800
14713TIP3   OH244095   2.164   3.841   3.295
14713TIP3    H144096   2.075   3.818   3.267
14713TIP3    H244097   2.202   3.759   3.325
14714TIP3   OH244098   4.405   5.921   5.784
14714TIP3    H144099   4.312   5.915   5.762
14714TIP3    H244100   4.439   5.833   5.765
14715TIP3   OH244101   4.881   5.340   6.088
14715TIP3    H144102   4.914   5.326   6.000
14715TIP3    H244103   4.959   5.360   6.140
14716TIP3   OH244104   1.407   3.325   1.081
14716TIP3    H144105   1.392   3.419   1.067
14716TIP3    H244106   1.483   3.304   1.026
14717TIP3   OH244107   6.756   1.861   1.038
14717TIP3    H144108   6.768   1.775   0.999
14717TIP3    H244109   6.668   1.858   1.076
14718TIP3   OH244110   2.299   4.720   6.172
14718TIP3    H144111   2.389   4.753   6.174
14718TIP3    H244112   2.264   4.753   6.089
14719TIP3   OH244113   3.866   5.138   6.152
14719TIP3    H144114   3.818   5.055   6.151
14719TIP3    H244115   3.816   5.194   6.092
14720TIP3   OH244116   6.018   3.919   3.490
14720TIP3    H144117   5.994   3.991   3.432
14720TIP3    H244118   6.080   3.867   3.438
14721TIP3   OH244119   2.847   1.638   6.629
14721TIP3    H144120   2.899   1.688   6.566
14721TIP3    H244121   2.756   1.663   6.610
14722TIP3   OH244122   4.706   2.787   4.272
14722TIP3    H144123   4.671   2.763   4.186
14722TIP3    H244124   4.629   2.812   4.323
14723TIP3   OH244125   6.659   5.146   3.183
14723TIP3    H144126   6.600   5.131   3.257
14723TIP3    H244127   6.685   5.059   3.154
14724TIP3   OH244128   3.267   2.954   0.237
14724TIP3    H144129   3.211   2.884   0.204
14724TIP3    H244130   3.205   3.019   0.272
14725TIP3   OH244131   5.885   7.720   0.950
14725TIP3    H144132   5.809   7.705   1.006
14725TIP3    H244133   5.901   7.814   0.958
14726TIP3   OH244134   1.568   0.672   5.945
14726TIP3    H144135   1.641   0.719   5.983
14726TIP3    H244136   1.493   0.695   6.000
14727TIP3   OH244137   2.641   7.121   4.038
14727TIP3    H144138   2.701   7.057   4.078
14727TIP3    H244139   2.639   7.098   3.945
14728TIP3   OH244140   0.348   2.553   5.876
14728TIP3    H144141   0.310   2.477   5.920
14728TIP3    H244142   0.293   2.565   5.798
14729TIP3   OH244143   3.413   5.472   4.995
14729TIP3    H144144   3.352   5.406   5.028
14729TIP3    H244145   3.444   5.517   5.073
14730TIP3   OH244146   0.671   0.283   3.208
14730TIP3    H144147   0.742   0.298   3.146
14730TIP3    H244148   0.669   0.361   3.263
14731TIP3   OH244149   3.400   3.447   6.326
14731TIP3    H144150   3.430   3.513   6.389
14731TIP3    H244151   3.386   3.496   6.245
14732TIP3   OH244152   4.290   0.265   4.789
14732TIP3    H144153   4.230   0.310   4.730
14732TIP3    H244154   4.235   0.205   4.839
14733TIP3   OH244155   5.569   0.369   1.952
14733TIP3    H144156   5.547   0.426   1.878
14733TIP3    H244157   5.581   0.429   2.026
14734TIP3   OH244158   6.045   2.606   0.573
14734TIP3    H144159   6.140   2.609   0.582
14734TIP3    H244160   6.029   2.598   0.479
14735TIP3   OH244161   0.064   5.003   2.383
14735TIP3    H144162   0.056   5.073   2.448
14735TIP3    H244163  -0.005   5.022   2.319
14736TIP3   OH244164   0.124   2.877   3.530
14736TIP3    H144165   0.133   2.929   3.450
14736TIP3    H244166   0.208   2.833   3.539
14737TIP3   OH244167   2.250   7.129   6.222
14737TIP3    H144168   2.287   7.216   6.213
14737TIP3    H244169   2.181   7.139   6.288
14738TIP3   OH244170   1.967   2.246   4.917
14738TIP3    H144171   2.060   2.264   4.928
14738TIP3    H244172   1.928   2.270   5.002
14739TIP3   OH244173   7.425   2.001   1.129
14739TIP3    H144174   7.399   1.961   1.046
14739TIP3    H244175   7.460   1.929   1.181
14740TIP3   OH244176   0.713   2.543   0.051
14740TIP3    H144177   0.718   2.546  -0.044
14740TIP3    H244178   0.643   2.481   0.071
14741TIP3   OH244179   0.830   4.426   2.354
14741TIP3    H144180   0.887   4.350   2.367
14741TIP3    H244181   0.877   4.498   2.397
14742TIP3   OH244182   5.114   6.939   3.129
14742TIP3    H144183   5.043   6.943   3.193
14742TIP3    H244184   5.178   7.002   3.160
14743TIP3   OH244185   5.993   4.604   2.981
14743TIP3    H144186   5.949   4.544   3.041
14743TIP3    H244187   6.046   4.661   3.038
14744TIP3   OH244188   0.907   5.899   0.071
14744TIP3    H144189   0.878   5.983   0.107
14744TIP3    H244190   0.848   5.882  -0.002
14745TIP3   OH244191   2.874   0.417   2.850
14745TIP3    H144192   2.931   0.444   2.778
14745TIP3    H244193   2.807   0.485   2.854
14746TIP3   OH244194   4.931   4.153   5.913
14746TIP3    H144195   4.841   4.152   5.881
14746TIP3    H244196   4.948   4.063   5.939
14747TIP3   OH244197   6.467   6.486   6.460
14747TIP3    H144198   6.541   6.489   6.520
14747TIP3    H244199   6.394   6.455   6.513
14748TIP3   OH244200   2.374   2.605   2.291
14748TIP3    H144201   2.418   2.528   2.254
14748TIP3    H244202   2.346   2.576   2.378
14749TIP3   OH244203   6.221   1.519   3.736
14749TIP3    H144204   6.222   1.614   3.731
14749TIP3    H244205   6.235   1.499   3.828
14750TIP3   OH244206   3.410   3.994   4.432
14750TIP3    H144207   3.458   4.068   4.469
14750TIP3    H244208   3.475   3.945   4.383
14751TIP3   OH244209   3.806   2.762   0.147
14751TIP3    H144210   3.751   2.786   0.221
14751TIP3    H244211   3.810   2.840   0.093
14752TIP3   OH244212   4.736   7.234   1.878
14752TIP3    H144213   4.641   7.227   1.884
14752TIP3    H244214   4.769   7.150   1.908
14753TIP3   OH244215   1.352   5.957   4.349
14753TIP3    H144216   1.411   5.960   4.274
14753TIP3    H244217   1.383   6.027   4.407
14754TIP3   OH244218   2.998   2.131   3.390
14754TIP3    H144219   3.013   2.194   3.320
14754TIP3    H244220   3.078   2.078   3.392
14755TIP3   OH244221   2.941   7.237   3.953
14755TIP3    H144222   2.940   7.199   4.041
14755TIP3    H244223   2.976   7.167   3.897
14756TIP3   OH244224   6.611   6.491   4.092
14756TIP3    H144225   6.598   6.399   4.116
14756TIP3    H244226   6.660   6.487   4.010
14757TIP3   OH244227   3.165   0.460   1.725
14757TIP3    H144228   3.179   0.462   1.631
14757TIP3    H244229   3.153   0.367   1.746
14758TIP3   OH244230   5.501   6.438   0.890
14758TIP3    H144231   5.530   6.433   0.799
14758TIP3    H244232   5.494   6.346   0.918
14759TIP3   OH244233   4.402   4.129   3.566
14759TIP3    H144234   4.434   4.185   3.636
14759TIP3    H244235   4.307   4.131   3.574
14760TIP3   OH244236   1.098   3.549   4.620
14760TIP3    H144237   1.159   3.516   4.554
14760TIP3    H244238   1.056   3.624   4.578
14761TIP3   OH244239   3.924   4.398   4.740
14761TIP3    H144240   3.885   4.393   4.653
14761TIP3    H244241   3.912   4.311   4.777
14762TIP3   OH244242   0.042   6.570   0.994
14762TIP3    H144243   0.042   6.665   1.007
14762TIP3    H244244  -0.038   6.540   1.038
14763TIP3   OH244245   1.510   4.427   3.294
14763TIP3    H144246   1.415   4.421   3.305
14763TIP3    H244247   1.522   4.500   3.233
14764TIP3   OH244248   4.981   0.841   3.036
14764TIP3    H144249   4.913   0.802   3.090
14764TIP3    H244250   5.022   0.767   2.991
14765TIP3   OH244251   2.588   6.787   3.936
14765TIP3    H144252   2.539   6.707   3.916
14765TIP3    H244253   2.680   6.758   3.941
14766TIP3   OH244254   5.769   5.853   4.434
14766TIP3    H144255   5.720   5.921   4.480
14766TIP3    H244256   5.853   5.894   4.412
14767TIP3   OH244257   3.029   5.067   3.326
14767TIP3    H144258   2.981   5.018   3.393
14767TIP3    H244259   3.098   5.008   3.297
14768TIP3   OH244260   6.672   5.847   4.735
14768TIP3    H144261   6.611   5.874   4.667
14768TIP3    H244262   6.740   5.800   4.689
14769TIP3   OH244263   6.174   6.956   3.285
14769TIP3    H144264   6.263   6.922   3.290
14769TIP3    H244265   6.142   6.928   3.199
14770TIP3   OH244266   3.106   0.801   4.890
14770TIP3    H144267   3.194   0.790   4.927
14770TIP3    H244268   3.049   0.759   4.954
14771TIP3   OH244269   6.314   4.135   1.996
14771TIP3    H144270   6.409   4.133   2.009
14771TIP3    H244271   6.290   4.228   2.005
14772TIP3   OH244272   6.823   0.892   2.152
14772TIP3    H144273   6.788   0.947   2.222
14772TIP3    H244274   6.787   0.930   2.071
14773TIP3   OH244275   1.626   7.222   3.304
14773TIP3    H144276   1.536   7.215   3.272
14773TIP3    H244277   1.680   7.203   3.227
14774TIP3   OH244278   6.360   4.718   5.748
14774TIP3    H144279   6.281   4.768   5.730
14774TIP3    H244280   6.428   4.784   5.762
14775TIP3   OH244281   6.472   7.290   2.453
14775TIP3    H144282   6.503   7.201   2.466
14775TIP3    H244283   6.400   7.282   2.390
14776TIP3   OH244284   6.887   6.756   4.225
14776TIP3    H144285   6.813   6.801   4.185
14776TIP3    H244286   6.849   6.676   4.263
14777TIP3   OH244287   0.735   6.074   5.181
14777TIP3    H144288   0.806   6.136   5.169
14777TIP3    H244289   0.767   5.993   5.140
14778TIP3   OH244290   5.581   5.512   0.649
14778TIP3    H144291   5.648   5.550   0.705
14778TIP3    H244292   5.604   5.419   0.644
14779TIP3   OH244293   0.170   5.503   0.477
14779TIP3    H144294   0.107   5.465   0.539
14779TIP3    H244295   0.222   5.429   0.447
14780TIP3   OH244296   3.423   5.608   4.442
14780TIP3    H144297   3.420   5.700   4.415
14780TIP3    H244298   3.507   5.598   4.486
14781TIP3   OH244299   7.210   1.385   0.430
14781TIP3    H144300   7.259   1.322   0.378
14781TIP3    H244301   7.234   1.364   0.521
14782TIP3   OH244302   1.083   6.110   6.119
14782TIP3    H144303   1.025   6.181   6.146
14782TIP3    H244304   1.169   6.152   6.108
14783TIP3   OH244305   3.689   0.336   5.630
14783TIP3    H144306   3.613   0.395   5.633
14783TIP3    H244307   3.764   0.395   5.622
14784TIP3   OH244308   2.110   2.552   0.057
14784TIP3    H144309   2.045   2.500   0.105
14784TIP3    H244310   2.057   2.612   0.004
14785TIP3   OH244311   6.273   0.219   0.577
14785TIP3    H144312   6.288   0.286   0.644
14785TIP3    H244313   6.267   0.137   0.625
14786TIP3   OH244314   3.670   1.074   3.448
14786TIP3    H144315   3.596   1.014   3.441
14786TIP3    H244316   3.676   1.095   3.541
14787TIP3   OH244317   4.440   5.731   1.917
14787TIP3    H144318   4.499   5.708   1.846
14787TIP3    H244319   4.479   5.810   1.956
14788TIP3   OH244320   4.022   5.976   0.064
14788TIP3    H144321   3.933   6.006   0.044
14788TIP3    H244322   4.018   5.948   0.156
14789TIP3   OH244323   7.613   3.019   0.544
14789TIP3    H144324   7.677   2.975   0.487
14789TIP3    H244325   7.628   2.980   0.630
14790TIP3   OH244326   3.671   2.054   5.183
14790TIP3    H144327   3.655   2.145   5.207
14790TIP3    H244328   3.722   2.059   5.102
14791TIP3   OH244329   5.579   7.645   1.007
14791TIP3    H144330   5.540   7.598   1.081
14791TIP3    H244331   5.554   7.736   1.021
14792TIP3   OH244332   2.076   3.217   2.950
14792TIP3    H144333   2.086   3.263   2.867
14792TIP3    H244334   2.136   3.262   3.010
14793TIP3   OH244335   7.739   2.934   1.715
14793TIP3    H144336   7.772   2.958   1.629
14793TIP3    H244337   7.665   2.877   1.697
14794TIP3   OH244338   8.013   0.977   0.750
14794TIP3    H144339   8.026   0.936   0.665
14794TIP3    H244340   7.948   1.046   0.735
14795TIP3   OH244341   2.100   2.907   3.356
14795TIP3    H144342   2.154   2.831   3.376
14795TIP3    H244343   2.010   2.873   3.354
14796TIP3   OH244344   8.184   0.228   3.064
14796TIP3    H144345   8.100   0.213   3.109
14796TIP3    H244346   8.247   0.240   3.134
14797TIP3   OH244347   3.913   3.582   4.114
14797TIP3    H144348   3.826   3.542   4.116
14797TIP3    H244349   3.901   3.662   4.063
14798TIP3   OH244350   3.407   2.706   0.371
14798TIP3    H144351   3.349   2.781   0.389
14798TIP3    H244352   3.494   2.736   0.399
14799TIP3   OH244353   4.227   1.004   4.853
14799TIP3    H144354   4.318   1.028   4.873
14799TIP3    H244355   4.213   1.038   4.765
14800TIP3   OH244356   4.089   6.168   2.776
14800TIP3    H144357   4.114   6.225   2.849
14800TIP3    H244358   4.085   6.080   2.814
14801TIP3   OH244359   3.858   6.146   5.657
14801TIP3    H144360   3.921   6.103   5.599
14801TIP3    H244361   3.778   6.152   5.604
14802TIP3   OH244362   7.260   0.629   2.153
14802TIP3    H144363   7.281   0.708   2.103
14802TIP3    H244364   7.181   0.652   2.201
14803TIP3   OH244365   3.066   5.103   5.452
14803TIP3    H144366   3.064   5.180   5.510
14803TIP3    H244367   3.124   5.129   5.380
14804TIP3   OH244368   7.062   2.337   1.853
14804TIP3    H144369   7.073   2.243   1.841
14804TIP3    H244370   7.150   2.369   1.873
14805TIP3   OH244371   5.313   3.003   6.758
14805TIP3    H144372   5.349   3.069   6.818
14805TIP3    H244373   5.370   3.007   6.681
14806TIP3   OH244374   1.773   5.593   3.725
14806TIP3    H144375   1.825   5.673   3.738
14806TIP3    H244376   1.698   5.603   3.784
14807TIP3   OH244377   6.519   6.980   5.845
14807TIP3    H144378   6.550   6.954   5.931
14807TIP3    H244379   6.428   6.949   5.842
14808TIP3   OH244380   6.470   3.059   0.348
14808TIP3    H144381   6.450   3.116   0.274
14808TIP3    H244382   6.436   3.106   0.425
14809TIP3   OH244383   7.416   5.986   1.678
14809TIP3    H144384   7.378   6.021   1.598
14809TIP3    H244385   7.486   6.048   1.700
14810TIP3   OH244386   5.895   1.616   3.813
14810TIP3    H144387   5.941   1.532   3.811
14810TIP3    H244388   5.871   1.627   3.905
14811TIP3   OH244389   4.920   0.369   5.405
14811TIP3    H144390   4.836   0.323   5.408
14811TIP3    H244391   4.928   0.400   5.315
14812TIP3   OH244392   4.180   3.026   4.514
14812TIP3    H144393   4.097   2.984   4.534
14812TIP3    H244394   4.186   3.100   4.574
14813TIP3   OH244395   0.795   6.580   6.191
14813TIP3    H144396   0.859   6.517   6.157
14813TIP3    H244397   0.778   6.638   6.116
14814TIP3   OH244398   0.498   5.577   0.689
14814TIP3    H144399   0.408   5.575   0.721
14814TIP3    H244400   0.514   5.489   0.654
14815TIP3   OH244401   0.477   7.326   4.564
14815TIP3    H144402   0.472   7.231   4.555
14815TIP3    H244403   0.568   7.343   4.588
14816TIP3   OH244404   4.986   0.949   3.374
14816TIP3    H144405   4.929   0.876   3.397
14816TIP3    H244406   4.936   1.000   3.310
14817TIP3   OH244407   5.479   7.709   3.078
14817TIP3    H144408   5.522   7.744   2.999
14817TIP3    H244409   5.387   7.703   3.054
14818TIP3   OH244410   2.900   7.139   5.994
14818TIP3    H144411   2.895   7.233   6.011
14818TIP3    H244412   2.932   7.101   6.076
14819TIP3   OH244413   6.481   5.374   0.945
14819TIP3    H144414   6.531   5.389   0.865
14819TIP3    H244415   6.525   5.427   1.011
14820TIP3   OH244416   1.220   1.879   4.125
14820TIP3    H144417   1.202   1.786   4.137
14820TIP3    H244418   1.214   1.893   4.030
14821TIP3   OH244419   5.737   3.033   4.287
14821TIP3    H144420   5.789   3.064   4.361
14821TIP3    H244421   5.649   3.019   4.323
14822TIP3   OH244422   3.410   7.133   2.413
14822TIP3    H144423   3.415   7.147   2.508
14822TIP3    H244424   3.317   7.145   2.392
14823TIP3   OH244425   1.807   7.582   1.042
14823TIP3    H144426   1.803   7.661   1.097
14823TIP3    H244427   1.821   7.615   0.953
14824TIP3   OH244428   8.019   1.306   5.135
14824TIP3    H144429   8.034   1.303   5.229
14824TIP3    H244430   8.107   1.299   5.097
14825TIP3   OH244431   0.829   3.029   1.181
14825TIP3    H144432   0.749   3.025   1.233
14825TIP3    H244433   0.807   2.981   1.101
14826TIP3   OH244434   6.380   2.989   6.040
14826TIP3    H144435   6.384   2.962   6.131
14826TIP3    H244436   6.321   2.926   5.999
14827TIP3   OH244437   0.639   7.280   6.023
14827TIP3    H144438   0.574   7.345   6.052
14827TIP3    H244439   0.723   7.325   6.031
14828TIP3   OH244440   7.953   0.501   3.086
14828TIP3    H144441   7.955   0.425   3.028
14828TIP3    H244442   8.036   0.546   3.070
14829TIP3   OH244443   0.522   2.963   2.998
14829TIP3    H144444   0.474   2.917   3.067
14829TIP3    H244445   0.495   3.054   3.006
14830TIP3   OH244446   5.462   0.350   1.383
14830TIP3    H144447   5.555   0.350   1.360
14830TIP3    H244448   5.440   0.257   1.395
14831TIP3   OH244449   0.124   7.529   4.321
14831TIP3    H144450   0.153   7.524   4.412
14831TIP3    H244451   0.151   7.446   4.282
14832TIP3   OH244452   5.470   0.039   6.729
14832TIP3    H144453   5.552   0.003   6.763
14832TIP3    H244454   5.402  -0.003   6.781
14833TIP3   OH244455   3.948   4.421   0.668
14833TIP3    H144456   3.934   4.379   0.753
14833TIP3    H244457   3.900   4.503   0.673
14834TIP3   OH244458   1.453   5.427   4.494
14834TIP3    H144459   1.455   5.417   4.589
14834TIP3    H244460   1.375   5.480   4.477
14835TIP3   OH244461   5.069   5.901   2.936
14835TIP3    H144462   5.091   5.905   2.843
14835TIP3    H244463   5.064   5.808   2.955
14836TIP3   OH244464   6.562   1.592   0.105
14836TIP3    H144465   6.511   1.654   0.053
14836TIP3    H244466   6.624   1.647   0.154
14837TIP3   OH244467   5.972   5.852   1.328
14837TIP3    H144468   5.989   5.763   1.359
14837TIP3    H244469   5.903   5.884   1.387
   8.29780   7.82324   6.77512   0.00000   0.00000  -2.76593   0.00000  -2.76593  -3.91162
