Title t=  46.00000 step= 23000
44469
    1GLY      N    1   5.612   5.576   3.929
    1GLY    HT1    2   5.566   5.615   4.013
    1GLY    HT2    3   5.657   5.659   3.885
    1GLY    HT3    4   5.690   5.511   3.950
    1GLY     CA    5   5.510   5.511   3.840
    1GLY    HA1    6   5.476   5.419   3.885
    1GLY    HA2    7   5.558   5.491   3.745
    1GLY      C    8   5.389   5.598   3.816
    1GLY      O    9   5.366   5.712   3.867
    2PRO      N   10   5.297   5.556   3.721
    2PRO     CD   11   5.310   5.432   3.642
    2PRO    HD1   12   5.299   5.345   3.710
    2PRO    HD2   13   5.406   5.439   3.587
    2PRO     CA   14   5.199   5.652   3.666
    2PRO     HA   15   5.254   5.741   3.641
    2PRO     CB   16   5.163   5.585   3.533
    2PRO    HB1   17   5.225   5.617   3.447
    2PRO    HB2   18   5.058   5.596   3.498
    2PRO     CG   19   5.182   5.438   3.560
    2PRO    HG1   20   5.100   5.391   3.618
    2PRO    HG2   21   5.197   5.372   3.472
    2PRO      C   22   5.078   5.677   3.766
    2PRO      O   23   5.002   5.770   3.751
    3GLY      N   24   5.080   5.595   3.871
    3GLY     HN   25   5.138   5.515   3.869
    3GLY     CA   26   4.988   5.610   3.986
    3GLY    HA1   27   4.991   5.520   4.045
    3GLY    HA2   28   4.890   5.632   3.946
    3GLY      C   29   5.018   5.725   4.070
    3GLY      O   30   4.931   5.785   4.135
    4ASN      N   31   5.147   5.763   4.085
    4ASN     HN   32   5.220   5.715   4.036
    4ASN     CA   33   5.195   5.867   4.176
    4ASN     HA   34   5.162   5.848   4.277
    4ASN     CB   35   5.355   5.876   4.163
    4ASN    HB1   36   5.393   5.956   4.230
    4ASN    HB2   37   5.377   5.912   4.060
    4ASN     CG   38   5.439   5.753   4.185
    4ASN    OD1   39   5.558   5.744   4.146
    4ASN    ND2   40   5.381   5.650   4.241
    4ASN   HD21   41   5.417   5.561   4.212
    4ASN   HD22   42   5.291   5.648   4.284
    4ASN      C   43   5.141   6.007   4.127
    4ASN      O   44   5.123   6.015   4.008
    5PRO      N   45   5.114   6.108   4.215
    5PRO     CD   46   5.132   6.089   4.361
    5PRO    HD1   47   5.240   6.074   4.379
    5PRO    HD2   48   5.071   6.007   4.405
    5PRO     CA   49   5.084   6.248   4.180
    5PRO     HA   50   4.978   6.249   4.157
    5PRO     CB   51   5.119   6.328   4.309
    5PRO    HB1   52   5.060   6.420   4.327
    5PRO    HB2   53   5.229   6.344   4.305
    5PRO     CG   54   5.095   6.230   4.422
    5PRO    HG1   55   5.157   6.248   4.512
    5PRO    HG2   56   4.984   6.226   4.434
    5PRO      C   57   5.158   6.312   4.060
    5PRO      O   58   5.276   6.294   4.059
    6GLY      N   59   5.100   6.400   3.980
    6GLY     HN   60   5.003   6.420   3.992
    6GLY     CA   61   5.161   6.471   3.873
    6GLY    HA1   62   5.083   6.536   3.835
    6GLY    HA2   63   5.185   6.403   3.793
    6GLY      C   64   5.286   6.556   3.915
    6GLY      O   65   5.300   6.591   4.029
    7PRO      N   66   5.367   6.594   3.821
    7PRO     CD   67   5.394   6.508   3.707
    7PRO    HD1   68   5.320   6.520   3.625
    7PRO    HD2   69   5.400   6.398   3.721
    7PRO     CA   70   5.486   6.678   3.861
    7PRO     HA   71   5.556   6.618   3.917
    7PRO     CB   72   5.532   6.697   3.715
    7PRO    HB1   73   5.635   6.739   3.703
    7PRO    HB2   74   5.458   6.764   3.666
    7PRO     CG   75   5.527   6.556   3.654
    7PRO    HG1   76   5.539   6.539   3.545
    7PRO    HG2   77   5.598   6.502   3.721
    7PRO      C   78   5.470   6.810   3.931
    7PRO      O   79   5.377   6.886   3.907
    8GLY      N   80   5.560   6.849   4.022
    8GLY     HN   81   5.634   6.787   4.048
    8GLY     CA   82   5.551   6.965   4.108
    8GLY    HA1   83   5.475   7.028   4.064
    8GLY    HA2   84   5.654   6.993   4.126
    8GLY      C   85   5.489   6.928   4.244
    8GLY      O   86   5.421   6.824   4.264
    9ASN      N   87   5.499   7.020   4.346
    9ASN     HN   88   5.561   7.097   4.332
    9ASN     CA   89   5.439   7.000   4.481
    9ASN     HA   90   5.475   6.907   4.523
    9ASN     CB   91   5.483   7.108   4.583
    9ASN    HB1   92   5.452   7.082   4.687
    9ASN    HB2   93   5.430   7.196   4.540
    9ASN     CG   94   5.629   7.145   4.584
    9ASN    OD1   95   5.706   7.061   4.544
    9ASN    ND2   96   5.668   7.270   4.624
    9ASN   HD21   97   5.764   7.298   4.619
    9ASN   HD22   98   5.601   7.343   4.639
    9ASN      C   99   5.286   6.989   4.471
    9ASN      O  100   5.226   7.088   4.419
   10PRO      N  101   5.207   6.885   4.507
   10PRO     CD  102   5.260   6.759   4.563
   10PRO    HD1  103   5.295   6.774   4.667
   10PRO    HD2  104   5.334   6.709   4.496
   10PRO     CA  105   5.079   6.860   4.443
   10PRO     HA  106   5.085   6.878   4.336
   10PRO     CB  107   5.053   6.708   4.469
   10PRO    HB1  108   5.084   6.651   4.379
   10PRO    HB2  109   4.946   6.680   4.473
   10PRO     CG  110   5.140   6.664   4.581
   10PRO    HG1  111   5.086   6.714   4.665
   10PRO    HG2  112   5.166   6.559   4.607
   10PRO      C  113   4.965   6.938   4.508
   10PRO      O  114   4.984   6.991   4.620
   11GLY      N  115   4.845   6.949   4.441
   11GLY     HN  116   4.829   6.884   4.368
   11GLY     CA  117   4.740   7.043   4.486
   11GLY    HA1  118   4.681   7.062   4.397
   11GLY    HA2  119   4.784   7.130   4.532
   11GLY      C  120   4.647   6.988   4.586
   11GLY      O  121   4.670   6.875   4.639
   12PRO      N  122   4.535   7.051   4.619
   12PRO     CD  123   4.505   7.191   4.579
   12PRO    HD1  124   4.483   7.188   4.471
   12PRO    HD2  125   4.596   7.254   4.588
   12PRO     CA  126   4.422   6.985   4.680
   12PRO     HA  127   4.450   6.969   4.783
   12PRO     CB  128   4.314   7.093   4.669
   12PRO    HB1  129   4.240   7.091   4.751
   12PRO    HB2  130   4.259   7.083   4.573
   12PRO     CG  131   4.391   7.229   4.668
   12PRO    HG1  132   4.325   7.304   4.618
   12PRO    HG2  133   4.420   7.264   4.770
   12PRO      C  134   4.370   6.853   4.620
   12PRO      O  135   4.389   6.840   4.501
   13GLY      N  136   4.299   6.773   4.694
   13GLY     HN  137   4.287   6.786   4.792
   13GLY     CA  138   4.249   6.646   4.641
   13GLY    HA1  139   4.214   6.675   4.543
   13GLY    HA2  140   4.161   6.614   4.696
   13GLY      C  141   4.342   6.524   4.631
   13GLY      O  142   4.459   6.523   4.661
   14ASN      N  143   4.280   6.407   4.597
   14ASN     HN  144   4.184   6.388   4.577
   14ASN     CA  145   4.352   6.284   4.599
   14ASN     HA  146   4.451   6.299   4.639
   14ASN     CB  147   4.272   6.193   4.692
   14ASN    HB1  148   4.319   6.093   4.690
   14ASN    HB2  149   4.169   6.178   4.652
   14ASN     CG  150   4.274   6.239   4.837
   14ASN    OD1  151   4.371   6.276   4.894
   14ASN    ND2  152   4.151   6.247   4.894
   14ASN   HD21  153   4.150   6.300   4.979
   14ASN   HD22  154   4.073   6.195   4.861
   14ASN      C  155   4.352   6.214   4.460
   14ASN      O  156   4.238   6.215   4.404
   15PRO      N  157   4.461   6.177   4.396
   15PRO     CD  158   4.599   6.224   4.433
   15PRO    HD1  159   4.631   6.177   4.528
   15PRO    HD2  160   4.594   6.334   4.447
   15PRO     CA  161   4.445   6.148   4.255
   15PRO     HA  162   4.371   6.214   4.210
   15PRO     CB  163   4.576   6.190   4.193
   15PRO    HB1  164   4.563   6.293   4.153
   15PRO    HB2  165   4.608   6.118   4.115
   15PRO     CG  166   4.677   6.199   4.306
   15PRO    HG1  167   4.713   6.094   4.309
   15PRO    HG2  168   4.761   6.269   4.289
   15PRO      C  169   4.399   6.000   4.236
   15PRO    OT1  170   4.283   5.975   4.186
   15PRO    OT2  171   4.467   5.901   4.276
   16LIT    LIT  172   0.306   5.022   2.646
   17LIT    LIT  173   1.791   6.651   0.097
   18LIT    LIT  174   5.468   2.608   5.850
   19LIT    LIT  175   1.434   7.196   4.445
   20LIT    LIT  176   2.393   1.300   3.234
   21LIT    LIT  177   0.687   6.995   5.741
   22LIT    LIT  178   6.458   7.702   4.061
   23LIT    LIT  179   4.241   1.775   4.011
   24LIT    LIT  180   4.259   5.062   3.391
   25LIT    LIT  181   7.942   7.080   5.550
   26LIT    LIT  182   5.771   6.908   0.362
   27LIT    LIT  183   2.527   5.707   1.168
   28LIT    LIT  184   8.112   4.678   5.129
   29LIT    LIT  185   0.012   3.822   6.316
   30LIT    LIT  186   3.731   1.130   3.587
   31LIT    LIT  187   8.172   2.400   0.177
   32LIT    LIT  188   5.781   0.821   3.370
   33LIT    LIT  189   1.707   4.972   4.442
   34LIT    LIT  190   0.592   1.993   2.029
   35LIT    LIT  191   6.182   4.446   2.874
   36LIT    LIT  192   2.717   1.570   6.734
   37LIT    LIT  193   1.958   1.708   6.327
   38LIT    LIT  194   1.539   3.620   2.494
   39LIT    LIT  195   3.116   6.954   4.586
   40LIT    LIT  196   7.182   0.913   5.946
   41LIT    LIT  197   1.373   4.978   6.071
   42LIT    LIT  198   3.000   2.446   6.725
   43LIT    LIT  199   4.303   5.799   4.242
   44LIT    LIT  200   5.099   4.735   4.680
   45LIT    LIT  201   2.612   4.001   6.601
   46LIT    LIT  202   1.810   1.184   1.970
   47LIT    LIT  203   7.588   3.285   5.234
   48LIT    LIT  204   5.869   0.344   1.014
   49LIT    LIT  205   0.230   0.641   5.881
   50LIT    LIT  206   4.605   4.293   1.878
   51LIT    LIT  207   5.565   0.713   1.901
   52LIT    LIT  208   5.219   3.633   1.483
   53LIT    LIT  209   7.474   6.495   1.390
   54LIT    LIT  210   4.461   6.659   0.585
   55LIT    LIT  211   2.005   3.219   0.845
   56LIT    LIT  212   3.521   7.625   6.278
   57LIT    LIT  213   7.081   3.802   4.415
   58CLA    CLA  214   2.726   3.914   2.969
   59CLA    CLA  215   0.890   7.117   1.643
   60CLA    CLA  216   0.368   1.681   3.136
   61CLA    CLA  217   4.028   1.336   2.850
   62CLA    CLA  218   6.717   5.909   0.546
   63CLA    CLA  219   2.645   0.028   4.354
   64CLA    CLA  220   7.294   1.322   1.036
   65CLA    CLA  221   5.306   3.528   6.740
   66CLA    CLA  222   4.249   2.070   6.665
   67CLA    CLA  223   8.173   2.791   1.930
   68CLA    CLA  224   0.924   4.591   0.637
   69CLA    CLA  225   8.202   5.548   5.475
   70CLA    CLA  226   2.242   6.962   3.896
   71CLA    CLA  227   7.148   3.685   4.608
   72CLA    CLA  228   6.257   4.894   2.655
   73CLA    CLA  229   8.194   5.014   2.646
   74CLA    CLA  230   2.155   5.406   5.104
   75CLA    CLA  231   4.063   4.100   5.978
   76CLA    CLA  232   4.563   2.349   4.950
   77CLA    CLA  233   6.714   7.508   6.620
   78CLA    CLA  234   0.038   1.495   4.085
   79CLA    CLA  235   2.345   4.223   2.366
   80CLA    CLA  236   0.353   5.093   3.087
   81CLA    CLA  237   4.418   3.370   0.786
   82CLA    CLA  238   5.765   1.415   2.032
   83CLA    CLA  239   3.863   6.018   2.063
   84CLA    CLA  240   1.111   5.834   3.921
   85CLA    CLA  241   3.656   6.788   5.415
   86CLA    CLA  242   4.177   6.863   1.738
   87CLA    CLA  243   7.485   0.039   0.804
   88CLA    CLA  244   6.795   0.287   5.836
   89CLA    CLA  245   6.702   3.422   0.240
   90CLA    CLA  246   1.064   6.811   6.533
   91CLA    CLA  247   1.951   1.078   3.291
   92CLA    CLA  248   8.151   3.839   6.474
   93CLA    CLA  249   4.490   3.090   4.104
   94CLA    CLA  250   5.185   5.009   2.951
   95CLA    CLA  251   2.541   1.826   5.544
   96CLA    CLA  252   1.946   3.348   6.388
   97CLA    CLA  253   7.929   6.669   0.665
   98CLA    CLA  254   0.531   7.150   5.098
   99CLA    CLA  255   0.049   3.652   0.053
  100TIP3   OH2  256   5.301   0.596   5.338
  100TIP3    H1  257   5.351   0.525   5.297
  100TIP3    H2  258   5.245   0.551   5.401
  101TIP3   OH2  259   1.636   5.403   4.364
  101TIP3    H1  260   1.718   5.356   4.381
  101TIP3    H2  261   1.651   5.446   4.280
  102TIP3   OH2  262   6.180   0.897   1.086
  102TIP3    H1  263   6.235   0.918   1.010
  102TIP3    H2  264   6.107   0.847   1.050
  103TIP3   OH2  265   2.522   3.455   5.071
  103TIP3    H1  266   2.546   3.518   5.003
  103TIP3    H2  267   2.426   3.457   5.072
  104TIP3   OH2  268   0.260   3.609   0.889
  104TIP3    H1  269   0.279   3.572   0.975
  104TIP3    H2  270   0.346   3.623   0.849
  105TIP3   OH2  271   6.376   4.577   1.155
  105TIP3    H1  272   6.305   4.640   1.144
  105TIP3    H2  273   6.416   4.570   1.069
  106TIP3   OH2  274   5.402   6.428   5.583
  106TIP3    H1  275   5.393   6.514   5.624
  106TIP3    H2  276   5.489   6.398   5.611
  107TIP3   OH2  277   3.657   0.903   3.253
  107TIP3    H1  278   3.731   0.879   3.198
  107TIP3    H2  279   3.611   0.971   3.203
  108TIP3   OH2  280   4.574   3.121   0.143
  108TIP3    H1  281   4.493   3.089   0.183
  108TIP3    H2  282   4.544   3.178   0.072
  109TIP3   OH2  283   5.067   5.661   4.802
  109TIP3    H1  284   5.158   5.688   4.818
  109TIP3    H2  285   5.056   5.583   4.856
  110TIP3   OH2  286   4.918   3.557   1.131
  110TIP3    H1  287   4.935   3.481   1.076
  110TIP3    H2  288   4.893   3.626   1.070
  111TIP3   OH2  289   7.146   0.461   5.353
  111TIP3    H1  290   7.164   0.521   5.280
  111TIP3    H2  291   7.232   0.444   5.391
  112TIP3   OH2  292   3.437   2.437   5.466
  112TIP3    H1  293   3.413   2.379   5.538
  112TIP3    H2  294   3.462   2.377   5.395
  113TIP3   OH2  295   6.396   7.030   6.008
  113TIP3    H1  296   6.446   7.044   6.089
  113TIP3    H2  297   6.317   7.082   6.020
  114TIP3   OH2  298   6.875   3.535   0.014
  114TIP3    H1  299   6.808   3.499   0.072
  114TIP3    H2  300   6.875   3.629   0.032
  115TIP3   OH2  301   5.942   4.094   5.750
  115TIP3    H1  302   5.937   4.030   5.822
  115TIP3    H2  303   6.032   4.126   5.754
  116TIP3   OH2  304   4.956   3.726   2.886
  116TIP3    H1  305   4.902   3.727   2.807
  116TIP3    H2  306   5.035   3.775   2.861
  117TIP3   OH2  307   5.747   4.437   5.509
  117TIP3    H1  308   5.664   4.400   5.539
  117TIP3    H2  309   5.791   4.465   5.589
  118TIP3   OH2  310   2.599   6.764   3.230
  118TIP3    H1  311   2.656   6.772   3.307
  118TIP3    H2  312   2.524   6.821   3.250
  119TIP3   OH2  313   5.004   7.236   6.562
  119TIP3    H1  314   5.024   7.319   6.518
  119TIP3    H2  315   4.918   7.211   6.529
  120TIP3   OH2  316   0.335   0.009   4.941
  120TIP3    H1  317   0.387   0.089   4.937
  120TIP3    H2  318   0.391  -0.058   4.902
  121TIP3   OH2  319   2.493   6.558   4.051
  121TIP3    H1  320   2.478   6.463   4.055
  121TIP3    H2  321   2.554   6.575   4.122
  122TIP3   OH2  322   0.245   1.458   0.876
  122TIP3    H1  323   0.330   1.414   0.866
  122TIP3    H2  324   0.225   1.492   0.790
  123TIP3   OH2  325   0.630   7.545   5.251
  123TIP3    H1  326   0.656   7.614   5.313
  123TIP3    H2  327   0.682   7.562   5.173
  124TIP3   OH2  328   8.139   5.921   3.971
  124TIP3    H1  329   8.065   5.981   3.986
  124TIP3    H2  330   8.109   5.863   3.901
  125TIP3   OH2  331   1.263   3.078   6.567
  125TIP3    H1  332   1.213   3.121   6.498
  125TIP3    H2  333   1.237   2.986   6.562
  126TIP3   OH2  334   2.244   2.196   4.347
  126TIP3    H1  335   2.155   2.232   4.350
  126TIP3    H2  336   2.299   2.264   4.388
  127TIP3   OH2  337   1.262   2.132   4.827
  127TIP3    H1  338   1.303   2.175   4.901
  127TIP3    H2  339   1.322   2.148   4.754
  128TIP3   OH2  340   6.051   6.930   0.699
  128TIP3    H1  341   6.078   6.981   0.775
  128TIP3    H2  342   6.098   6.847   0.707
  129TIP3   OH2  343   2.705   3.273   5.128
  129TIP3    H1  344   2.785   3.254   5.177
  129TIP3    H2  345   2.692   3.368   5.139
  130TIP3   OH2  346   3.065   2.005   0.222
  130TIP3    H1  347   2.986   2.046   0.187
  130TIP3    H2  348   3.080   1.930   0.165
  131TIP3   OH2  349   1.572   1.905   4.781
  131TIP3    H1  350   1.517   1.878   4.707
  131TIP3    H2  351   1.654   1.857   4.768
  132TIP3   OH2  352   7.857   5.496   1.180
  132TIP3    H1  353   7.881   5.438   1.107
  132TIP3    H2  354   7.774   5.535   1.154
  133TIP3   OH2  355   1.607   2.856   1.138
  133TIP3    H1  356   1.530   2.911   1.151
  133TIP3    H2  357   1.641   2.881   1.052
  134TIP3   OH2  358   2.354   1.584   6.164
  134TIP3    H1  359   2.421   1.653   6.164
  134TIP3    H2  360   2.403   1.503   6.177
  135TIP3   OH2  361   4.769   2.834   1.432
  135TIP3    H1  362   4.724   2.829   1.516
  135TIP3    H2  363   4.777   2.927   1.414
  136TIP3   OH2  364   1.600   3.525   5.263
  136TIP3    H1  365   1.660   3.455   5.289
  136TIP3    H2  366   1.616   3.538   5.170
  137TIP3   OH2  367   1.328   5.749   0.800
  137TIP3    H1  368   1.292   5.811   0.737
  137TIP3    H2  369   1.388   5.694   0.749
  138TIP3   OH2  370   5.838   3.759   1.054
  138TIP3    H1  371   5.763   3.781   1.108
  138TIP3    H2  372   5.856   3.667   1.073
  139TIP3   OH2  373   7.245   0.197   6.052
  139TIP3    H1  374   7.197   0.154   5.982
  139TIP3    H2  375   7.211   0.286   6.053
  140TIP3   OH2  376   0.159   2.192   2.961
  140TIP3    H1  377   0.211   2.116   2.987
  140TIP3    H2  378   0.196   2.264   3.012
  141TIP3   OH2  379   7.107   0.617   3.230
  141TIP3    H1  380   7.015   0.618   3.203
  141TIP3    H2  381   7.106   0.650   3.320
  142TIP3   OH2  382   6.033   5.408   6.491
  142TIP3    H1  383   6.119   5.424   6.531
  142TIP3    H2  384   6.043   5.435   6.400
  143TIP3   OH2  385   4.705   1.275   0.040
  143TIP3    H1  386   4.793   1.241   0.023
  143TIP3    H2  387   4.699   1.353  -0.014
  144TIP3   OH2  388   4.937   6.507   2.494
  144TIP3    H1  389   4.877   6.557   2.439
  144TIP3    H2  390   4.880   6.456   2.552
  145TIP3   OH2  391   7.167   5.583   0.412
  145TIP3    H1  392   7.095   5.590   0.349
  145TIP3    H2  393   7.158   5.661   0.468
  146TIP3   OH2  394   3.519   2.593   3.499
  146TIP3    H1  395   3.579   2.570   3.570
  146TIP3    H2  396   3.435   2.607   3.541
  147TIP3   OH2  397   5.567   1.158   1.949
  147TIP3    H1  398   5.625   1.211   2.004
  147TIP3    H2  399   5.481   1.165   1.991
  148TIP3   OH2  400   7.154   3.969   6.617
  148TIP3    H1  401   7.160   3.879   6.648
  148TIP3    H2  402   7.184   3.966   6.526
  149TIP3   OH2  403   1.842   2.662   5.946
  149TIP3    H1  404   1.848   2.651   5.851
  149TIP3    H2  405   1.776   2.730   5.958
  150TIP3   OH2  406   7.475   4.765   6.452
  150TIP3    H1  407   7.478   4.674   6.481
  150TIP3    H2  408   7.449   4.814   6.530
  151TIP3   OH2  409   5.626   3.076   1.997
  151TIP3    H1  410   5.551   3.040   2.043
  151TIP3    H2  411   5.677   3.121   2.065
  152TIP3   OH2  412   5.755   0.797   2.826
  152TIP3    H1  413   5.722   0.753   2.747
  152TIP3    H2  414   5.692   0.867   2.842
  153TIP3   OH2  415   2.672   2.598   0.037
  153TIP3    H1  416   2.676   2.546   0.117
  153TIP3    H2  417   2.579   2.595   0.011
  154TIP3   OH2  418   6.248   4.963   4.547
  154TIP3    H1  419   6.336   4.962   4.508
  154TIP3    H2  420   6.261   4.929   4.636
  155TIP3   OH2  421   2.479   1.324   6.504
  155TIP3    H1  422   2.535   1.348   6.430
  155TIP3    H2  423   2.533   1.266   6.557
  156TIP3   OH2  424   2.291   0.208   4.415
  156TIP3    H1  425   2.232   0.280   4.437
  156TIP3    H2  426   2.371   0.228   4.463
  157TIP3   OH2  427   6.003   2.502   2.491
  157TIP3    H1  428   6.021   2.510   2.397
  157TIP3    H2  429   5.939   2.431   2.497
  158TIP3   OH2  430   1.061   2.300   6.634
  158TIP3    H1  431   1.045   2.330   6.545
  158TIP3    H2  432   1.154   2.276   6.635
  159TIP3   OH2  433   6.423   5.277   3.193
  159TIP3    H1  434   6.465   5.357   3.224
  159TIP3    H2  435   6.335   5.304   3.169
  160TIP3   OH2  436   2.636   1.734   5.278
  160TIP3    H1  437   2.601   1.781   5.353
  160TIP3    H2  438   2.719   1.698   5.309
  161TIP3   OH2  439   5.476   2.022   4.995
  161TIP3    H1  440   5.561   2.014   4.953
  161TIP3    H2  441   5.470   2.115   5.018
  162TIP3   OH2  442   1.336   5.362   3.068
  162TIP3    H1  443   1.384   5.440   3.095
  162TIP3    H2  444   1.379   5.290   3.115
  163TIP3   OH2  445   5.695   5.251   0.565
  163TIP3    H1  446   5.776   5.301   0.563
  163TIP3    H2  447   5.669   5.251   0.657
  164TIP3   OH2  448   4.812   6.383   6.330
  164TIP3    H1  449   4.827   6.385   6.236
  164TIP3    H2  450   4.894   6.353   6.368
  165TIP3   OH2  451   2.635   6.584   2.836
  165TIP3    H1  452   2.642   6.516   2.768
  165TIP3    H2  453   2.563   6.640   2.806
  166TIP3   OH2  454   3.676   0.408   0.013
  166TIP3    H1  455   3.671   0.384   0.105
  166TIP3    H2  456   3.769   0.408  -0.007
  167TIP3   OH2  457   7.279   0.690   1.039
  167TIP3    H1  458   7.247   0.606   1.073
  167TIP3    H2  459   7.261   0.686   0.945
  168TIP3   OH2  460   1.593   5.573   5.768
  168TIP3    H1  461   1.546   5.630   5.707
  168TIP3    H2  462   1.653   5.631   5.814
  169TIP3   OH2  463   0.685   0.232   5.690
  169TIP3    H1  464   0.654   0.214   5.779
  169TIP3    H2  465   0.781   0.230   5.698
  170TIP3   OH2  466   2.620   6.245   6.752
  170TIP3    H1  467   2.546   6.198   6.714
  170TIP3    H2  468   2.636   6.318   6.692
  171TIP3   OH2  469   8.249   5.284   2.541
  171TIP3    H1  470   8.168   5.333   2.531
  171TIP3    H2  471   8.222   5.201   2.580
  172TIP3   OH2  472   3.842   2.358   5.060
  172TIP3    H1  473   3.796   2.355   4.976
  172TIP3    H2  474   3.846   2.452   5.081
  173TIP3   OH2  475   7.948   2.608   2.149
  173TIP3    H1  476   7.996   2.670   2.094
  173TIP3    H2  477   7.984   2.523   2.126
  174TIP3   OH2  478   0.279   3.535   4.355
  174TIP3    H1  479   0.307   3.626   4.365
  174TIP3    H2  480   0.282   3.498   4.443
  175TIP3   OH2  481   7.663   0.082   5.579
  175TIP3    H1  482   7.611   0.031   5.642
  175TIP3    H2  483   7.656   0.033   5.497
  176TIP3   OH2  484   3.597   0.425   4.898
  176TIP3    H1  485   3.517   0.394   4.940
  176TIP3    H2  486   3.602   0.375   4.816
  177TIP3   OH2  487   0.746   7.696   5.970
  177TIP3    H1  488   0.686   7.723   6.039
  177TIP3    H2  489   0.832   7.725   6.001
  178TIP3   OH2  490   7.508   1.865   5.719
  178TIP3    H1  491   7.602   1.872   5.703
  178TIP3    H2  492   7.481   1.954   5.744
  179TIP3   OH2  493   0.834   3.335   3.835
  179TIP3    H1  494   0.742   3.330   3.808
  179TIP3    H2  495   0.883   3.307   3.758
  180TIP3   OH2  496   0.687   2.307   5.623
  180TIP3    H1  497   0.613   2.276   5.674
  180TIP3    H2  498   0.764   2.277   5.671
  181TIP3   OH2  499   2.348   0.860   3.991
  181TIP3    H1  500   2.405   0.937   3.981
  181TIP3    H2  501   2.368   0.806   3.915
  182TIP3   OH2  502   0.714   6.851  -0.002
  182TIP3    H1  503   0.766   6.921   0.038
  182TIP3    H2  504   0.624   6.872   0.020
  183TIP3   OH2  505   2.830   7.807   0.653
  183TIP3    H1  506   2.882   7.840   0.580
  183TIP3    H2  507   2.757   7.760   0.613
  184TIP3   OH2  508   3.864   6.011   1.172
  184TIP3    H1  509   3.854   5.928   1.126
  184TIP3    H2  510   3.786   6.061   1.151
  185TIP3   OH2  511   1.416   2.606   2.259
  185TIP3    H1  512   1.438   2.635   2.171
  185TIP3    H2  513   1.329   2.642   2.276
  186TIP3   OH2  514   8.242   2.458   6.734
  186TIP3    H1  515   8.267   2.370   6.761
  186TIP3    H2  516   8.320   2.511   6.751
  187TIP3   OH2  517   5.375   0.760   2.402
  187TIP3    H1  518   5.427   0.745   2.481
  187TIP3    H2  519   5.286   0.738   2.426
  188TIP3   OH2  520   6.999   3.442   4.005
  188TIP3    H1  521   7.044   3.406   4.081
  188TIP3    H2  522   6.942   3.371   3.975
  189TIP3   OH2  523   6.166   2.811   4.030
  189TIP3    H1  524   6.158   2.858   4.113
  189TIP3    H2  525   6.082   2.827   3.986
  190TIP3   OH2  526   2.646   4.737   5.151
  190TIP3    H1  527   2.629   4.664   5.211
  190TIP3    H2  528   2.652   4.814   5.207
  191TIP3   OH2  529   4.066   5.404   6.494
  191TIP3    H1  530   4.037   5.472   6.434
  191TIP3    H2  531   4.003   5.333   6.482
  192TIP3   OH2  532   2.650   1.554   1.636
  192TIP3    H1  533   2.651   1.473   1.584
  192TIP3    H2  534   2.725   1.603   1.605
  193TIP3   OH2  535   5.308   3.759   4.133
  193TIP3    H1  536   5.349   3.767   4.220
  193TIP3    H2  537   5.381   3.742   4.074
  194TIP3   OH2  538   3.536   3.555   1.595
  194TIP3    H1  539   3.527   3.644   1.630
  194TIP3    H2  540   3.629   3.535   1.604
  195TIP3   OH2  541   8.147   3.593   0.276
  195TIP3    H1  542   8.217   3.596   0.211
  195TIP3    H2  543   8.138   3.683   0.306
  196TIP3   OH2  544   7.562   6.601   4.727
  196TIP3    H1  545   7.611   6.528   4.765
  196TIP3    H2  546   7.614   6.627   4.651
  197TIP3   OH2  547   1.794   5.838   0.770
  197TIP3    H1  548   1.884   5.848   0.802
  197TIP3    H2  549   1.799   5.859   0.677
  198TIP3   OH2  550   4.296   4.039   5.249
  198TIP3    H1  551   4.290   4.134   5.258
  198TIP3    H2  552   4.332   4.010   5.333
  199TIP3   OH2  553   5.996   3.048   1.908
  199TIP3    H1  554   6.079   3.063   1.864
  199TIP3    H2  555   6.015   3.061   2.001
  200TIP3   OH2  556   5.378   4.188   1.132
  200TIP3    H1  557   5.381   4.203   1.038
  200TIP3    H2  558   5.285   4.177   1.152
  201TIP3   OH2  559   5.463   4.865   4.610
  201TIP3    H1  560   5.547   4.820   4.613
  201TIP3    H2  561   5.478   4.941   4.554
  202TIP3   OH2  562   4.965   6.516   3.261
  202TIP3    H1  563   4.994   6.444   3.318
  202TIP3    H2  564   4.907   6.474   3.198
  203TIP3   OH2  565   2.488   3.222   4.565
  203TIP3    H1  566   2.531   3.228   4.650
  203TIP3    H2  567   2.443   3.306   4.555
  204TIP3   OH2  568   1.022   0.581   4.561
  204TIP3    H1  569   1.006   0.499   4.514
  204TIP3    H2  570   0.967   0.575   4.639
  205TIP3   OH2  571   7.548   4.277   4.824
  205TIP3    H1  572   7.509   4.193   4.800
  205TIP3    H2  573   7.633   4.277   4.781
  206TIP3   OH2  574   5.331   0.075   1.981
  206TIP3    H1  575   5.300   0.105   2.066
  206TIP3    H2  576   5.288  -0.009   1.967
  207TIP3   OH2  577   6.398   1.887   4.956
  207TIP3    H1  578   6.493   1.872   4.955
  207TIP3    H2  579   6.387   1.966   4.903
  208TIP3   OH2  580   7.867   0.640   2.085
  208TIP3    H1  581   7.850   0.588   2.006
  208TIP3    H2  582   7.902   0.723   2.053
  209TIP3   OH2  583   7.751   6.249   1.341
  209TIP3    H1  584   7.763   6.260   1.247
  209TIP3    H2  585   7.817   6.185   1.366
  210TIP3   OH2  586   6.210   0.658   2.082
  210TIP3    H1  587   6.170   0.621   2.161
  210TIP3    H2  588   6.290   0.607   2.069
  211TIP3   OH2  589   6.332   5.451   0.270
  211TIP3    H1  590   6.354   5.423   0.181
  211TIP3    H2  591   6.415   5.480   0.308
  212TIP3   OH2  592   0.235   7.335   4.701
  212TIP3    H1  593   0.193   7.324   4.786
  212TIP3    H2  594   0.203   7.419   4.669
  213TIP3   OH2  595   1.099   5.276   3.136
  213TIP3    H1  596   1.177   5.324   3.109
  213TIP3    H2  597   1.128   5.224   3.211
  214TIP3   OH2  598   1.897   5.048   5.704
  214TIP3    H1  599   1.829   5.070   5.768
  214TIP3    H2  600   1.968   5.110   5.723
  215TIP3   OH2  601   7.132   7.316   5.748
  215TIP3    H1  602   7.142   7.411   5.740
  215TIP3    H2  603   7.117   7.286   5.658
  216TIP3   OH2  604   3.988   7.824   1.965
  216TIP3    H1  605   4.066   7.794   1.918
  216TIP3    H2  606   3.991   7.776   2.048
  217TIP3   OH2  607   0.567   7.442   6.679
  217TIP3    H1  608   0.609   7.362   6.712
  217TIP3    H2  609   0.608   7.513   6.729
  218TIP3   OH2  610   0.280   4.805   2.984
  218TIP3    H1  611   0.199   4.801   2.933
  218TIP3    H2  612   0.293   4.898   3.001
  219TIP3   OH2  613   6.300   2.970   3.517
  219TIP3    H1  614   6.247   2.932   3.587
  219TIP3    H2  615   6.345   3.044   3.558
  220TIP3   OH2  616   5.691   2.185   4.635
  220TIP3    H1  617   5.710   2.168   4.728
  220TIP3    H2  618   5.671   2.098   4.599
  221TIP3   OH2  619   4.274   6.995   1.991
  221TIP3    H1  620   4.321   7.071   1.956
  221TIP3    H2  621   4.245   6.947   1.913
  222TIP3   OH2  622   4.811   3.860   0.338
  222TIP3    H1  623   4.804   3.956   0.345
  222TIP3    H2  624   4.768   3.827   0.417
  223TIP3   OH2  625   0.858   0.498   4.812
  223TIP3    H1  626   0.831   0.410   4.838
  223TIP3    H2  627   0.899   0.535   4.890
  224TIP3   OH2  628   1.128   3.733   4.178
  224TIP3    H1  629   1.043   3.769   4.153
  224TIP3    H2  630   1.168   3.708   4.095
  225TIP3   OH2  631   5.520   3.406   1.677
  225TIP3    H1  632   5.547   3.316   1.695
  225TIP3    H2  633   5.537   3.418   1.583
  226TIP3   OH2  634   7.765   6.891   0.816
  226TIP3    H1  635   7.801   6.828   0.753
  226TIP3    H2  636   7.754   6.841   0.897
  227TIP3   OH2  637   0.103   5.668   0.881
  227TIP3    H1  638   0.149   5.731   0.937
  227TIP3    H2  639   0.171   5.634   0.824
  228TIP3   OH2  640   4.249   7.792   6.118
  228TIP3    H1  641   4.273   7.857   6.052
  228TIP3    H2  642   4.154   7.799   6.125
  229TIP3   OH2  643   6.309   1.354   5.455
  229TIP3    H1  644   6.226   1.388   5.489
  229TIP3    H2  645   6.377   1.402   5.502
  230TIP3   OH2  646   7.053   0.523   1.435
  230TIP3    H1  647   6.995   0.552   1.365
  230TIP3    H2  648   6.997   0.474   1.495
  231TIP3   OH2  649   8.202   1.489   5.855
  231TIP3    H1  650   8.180   1.429   5.783
  231TIP3    H2  651   8.122   1.495   5.907
  232TIP3   OH2  652   4.051   0.087   4.823
  232TIP3    H1  653   3.972   0.083   4.876
  232TIP3    H2  654   4.026   0.137   4.746
  233TIP3   OH2  655   4.441   4.564   6.732
  233TIP3    H1  656   4.464   4.506   6.805
  233TIP3    H2  657   4.350   4.589   6.749
  234TIP3   OH2  658   3.039   2.638   2.789
  234TIP3    H1  659   3.114   2.608   2.738
  234TIP3    H2  660   3.020   2.566   2.849
  235TIP3   OH2  661   2.817   0.067   1.868
  235TIP3    H1  662   2.883   0.061   1.937
  235TIP3    H2  663   2.824  -0.017   1.821
  236TIP3   OH2  664   7.533   7.682   1.699
  236TIP3    H1  665   7.503   7.593   1.718
  236TIP3    H2  666   7.570   7.713   1.782
  237TIP3   OH2  667   4.816   0.340   0.259
  237TIP3    H1  668   4.807   0.281   0.184
  237TIP3    H2  669   4.884   0.402   0.232
  238TIP3   OH2  670   1.725   0.613   0.910
  238TIP3    H1  671   1.807   0.582   0.947
  238TIP3    H2  672   1.719   0.570   0.825
  239TIP3   OH2  673   5.830   6.680   1.968
  239TIP3    H1  674   5.836   6.770   1.998
  239TIP3    H2  675   5.805   6.631   2.046
  240TIP3   OH2  676   2.980   3.578   0.855
  240TIP3    H1  677   2.971   3.555   0.948
  240TIP3    H2  678   3.055   3.636   0.852
  241TIP3   OH2  679   5.324   2.071   4.593
  241TIP3    H1  680   5.318   1.987   4.638
  241TIP3    H2  681   5.262   2.065   4.521
  242TIP3   OH2  682   1.382   3.955   3.460
  242TIP3    H1  683   1.297   3.999   3.463
  242TIP3    H2  684   1.442   4.018   3.500
  243TIP3   OH2  685   5.146   5.670   2.291
  243TIP3    H1  686   5.156   5.578   2.316
  243TIP3    H2  687   5.071   5.701   2.341
  244TIP3   OH2  688   6.888   4.630   1.125
  244TIP3    H1  689   6.973   4.630   1.081
  244TIP3    H2  690   6.866   4.537   1.135
  245TIP3   OH2  691   1.517   5.499   4.114
  245TIP3    H1  692   1.550   5.586   4.138
  245TIP3    H2  693   1.449   5.481   4.178
  246TIP3   OH2  694   1.560   1.291   5.465
  246TIP3    H1  695   1.558   1.278   5.560
  246TIP3    H2  696   1.500   1.363   5.450
  247TIP3   OH2  697   3.340   2.237   0.635
  247TIP3    H1  698   3.401   2.163   0.633
  247TIP3    H2  699   3.282   2.222   0.560
  248TIP3   OH2  700   8.205   5.946   4.986
  248TIP3    H1  701   8.216   5.852   4.967
  248TIP3    H2  702   8.291   5.984   4.965
  249TIP3   OH2  703   7.733   6.317   0.198
  249TIP3    H1  704   7.762   6.323   0.107
  249TIP3    H2  705   7.755   6.227   0.224
  250TIP3   OH2  706   4.575   4.964   1.389
  250TIP3    H1  707   4.603   5.030   1.325
  250TIP3    H2  708   4.647   4.960   1.452
  251TIP3   OH2  709   3.254   2.992   3.504
  251TIP3    H1  710   3.171   2.980   3.459
  251TIP3    H2  711   3.320   2.963   3.442
  252TIP3   OH2  712   7.775   1.343   0.599
  252TIP3    H1  713   7.818   1.278   0.654
  252TIP3    H2  714   7.682   1.324   0.607
  253TIP3   OH2  715   0.818   3.813   2.332
  253TIP3    H1  716   0.725   3.799   2.313
  253TIP3    H2  717   0.858   3.727   2.322
  254TIP3   OH2  718   2.241   6.133   2.179
  254TIP3    H1  719   2.233   6.201   2.245
  254TIP3    H2  720   2.332   6.104   2.185
  255TIP3   OH2  721   5.081   6.506   2.068
  255TIP3    H1  722   5.131   6.426   2.049
  255TIP3    H2  723   5.011   6.506   2.004
  256TIP3   OH2  724   4.448   1.371   0.756
  256TIP3    H1  725   4.453   1.386   0.662
  256TIP3    H2  726   4.528   1.323   0.777
  257TIP3   OH2  727   7.333   6.470   5.481
  257TIP3    H1  728   7.347   6.384   5.519
  257TIP3    H2  729   7.310   6.452   5.389
  258TIP3   OH2  730   0.044   6.334   4.327
  258TIP3    H1  731  -0.017   6.291   4.386
  258TIP3    H2  732   0.089   6.263   4.281
  259TIP3   OH2  733   4.479   1.537   5.435
  259TIP3    H1  734   4.508   1.625   5.460
  259TIP3    H2  735   4.529   1.516   5.357
  260TIP3   OH2  736   6.227   3.684   5.108
  260TIP3    H1  737   6.185   3.690   5.194
  260TIP3    H2  738   6.162   3.642   5.053
  261TIP3   OH2  739   5.813   7.712   0.198
  261TIP3    H1  740   5.720   7.731   0.183
  261TIP3    H2  741   5.857   7.795   0.180
  262TIP3   OH2  742   6.073   7.310   1.184
  262TIP3    H1  743   6.068   7.283   1.093
  262TIP3    H2  744   5.985   7.339   1.207
  263TIP3   OH2  745   3.500   1.270   4.994
  263TIP3    H1  746   3.520   1.253   5.086
  263TIP3    H2  747   3.514   1.364   4.983
  264TIP3   OH2  748   5.186   0.094   4.248
  264TIP3    H1  749   5.226   0.123   4.166
  264TIP3    H2  750   5.228   0.010   4.266
  265TIP3   OH2  751   1.538   4.822   0.250
  265TIP3    H1  752   1.512   4.913   0.261
  265TIP3    H2  753   1.633   4.825   0.244
  266TIP3   OH2  754   6.569   7.674   5.672
  266TIP3    H1  755   6.571   7.681   5.577
  266TIP3    H2  756   6.495   7.616   5.690
  267TIP3   OH2  757   1.924   5.288   0.369
  267TIP3    H1  758   1.968   5.371   0.350
  267TIP3    H2  759   1.869   5.271   0.293
  268TIP3   OH2  760   6.177   3.291   1.541
  268TIP3    H1  761   6.194   3.197   1.542
  268TIP3    H2  762   6.103   3.301   1.481
  269TIP3   OH2  763   8.232   5.110   6.467
  269TIP3    H1  764   8.241   5.073   6.555
  269TIP3    H2  765   8.217   5.035   6.410
  270TIP3   OH2  766   3.048   6.816   1.316
  270TIP3    H1  767   3.029   6.838   1.407
  270TIP3    H2  768   3.038   6.899   1.269
  271TIP3   OH2  769   4.262   4.148   4.060
  271TIP3    H1  770   4.294   4.060   4.041
  271TIP3    H2  771   4.340   4.197   4.086
  272TIP3   OH2  772   1.374   2.095   0.374
  272TIP3    H1  773   1.413   2.105   0.461
  272TIP3    H2  774   1.427   2.028   0.331
  273TIP3   OH2  775   1.826   2.205   1.391
  273TIP3    H1  776   1.838   2.208   1.486
  273TIP3    H2  777   1.914   2.212   1.355
  274TIP3   OH2  778   0.946   5.851   0.854
  274TIP3    H1  779   1.022   5.866   0.910
  274TIP3    H2  780   0.981   5.802   0.779
  275TIP3   OH2  781   7.165   7.844   1.959
  275TIP3    H1  782   7.178   7.753   1.931
  275TIP3    H2  783   7.088   7.873   1.911
  276TIP3   OH2  784   4.030   3.658   0.140
  276TIP3    H1  785   4.107   3.707   0.110
  276TIP3    H2  786   3.971   3.657   0.065
  277TIP3   OH2  787   6.164   1.771   5.301
  277TIP3    H1  788   6.181   1.745   5.391
  277TIP3    H2  789   6.169   1.689   5.251
  278TIP3   OH2  790   8.234   6.071   0.654
  278TIP3    H1  791   8.155   6.117   0.683
  278TIP3    H2  792   8.271   6.034   0.734
  279TIP3   OH2  793   0.511   4.720   4.914
  279TIP3    H1  794   0.472   4.709   5.000
  279TIP3    H2  795   0.495   4.812   4.891
  280TIP3   OH2  796   0.706   2.553   2.531
  280TIP3    H1  797   0.761   2.631   2.539
  280TIP3    H2  798   0.656   2.551   2.613
  281TIP3   OH2  799   3.661   3.044   5.193
  281TIP3    H1  800   3.574   3.014   5.167
  281TIP3    H2  801   3.703   3.069   5.111
  282TIP3   OH2  802   8.116   2.087   2.174
  282TIP3    H1  803   8.081   2.024   2.111
  282TIP3    H2  804   8.201   2.112   2.138
  283TIP3   OH2  805   7.043   2.384   0.833
  283TIP3    H1  806   6.963   2.415   0.790
  283TIP3    H2  807   7.015   2.306   0.882
  284TIP3   OH2  808   7.612   0.815   6.289
  284TIP3    H1  809   7.582   0.735   6.332
  284TIP3    H2  810   7.655   0.865   6.358
  285TIP3   OH2  811   4.012   7.175   1.400
  285TIP3    H1  812   4.105   7.196   1.387
  285TIP3    H2  813   3.979   7.249   1.451
  286TIP3   OH2  814   0.755   3.447   1.707
  286TIP3    H1  815   0.781   3.537   1.727
  286TIP3    H2  816   0.664   3.443   1.736
  287TIP3   OH2  817   7.833   4.103   0.402
  287TIP3    H1  818   7.915   4.152   0.410
  287TIP3    H2  819   7.850   4.041   0.332
  288TIP3   OH2  820   6.614   2.467   4.096
  288TIP3    H1  821   6.604   2.371   4.093
  288TIP3    H2  822   6.531   2.500   4.061
  289TIP3   OH2  823   1.572   0.188   0.105
  289TIP3    H1  824   1.644   0.187   0.167
  289TIP3    H2  825   1.562   0.280   0.081
  290TIP3   OH2  826   1.085   0.192   1.003
  290TIP3    H1  827   1.128   0.265   1.046
  290TIP3    H2  828   1.150   0.122   1.004
  291TIP3   OH2  829   3.246   1.737   1.938
  291TIP3    H1  830   3.179   1.677   1.971
  291TIP3    H2  831   3.295   1.687   1.874
  292TIP3   OH2  832   6.072   2.961   4.277
  292TIP3    H1  833   6.004   2.901   4.310
  292TIP3    H2  834   6.097   3.013   4.354
  293TIP3   OH2  835   2.469  -0.015   3.771
  293TIP3    H1  836   2.464   0.029   3.856
  293TIP3    H2  837   2.501  -0.103   3.791
  294TIP3   OH2  838   3.465   6.593   2.657
  294TIP3    H1  839   3.452   6.530   2.727
  294TIP3    H2  840   3.412   6.559   2.585
  295TIP3   OH2  841   7.322   4.980   2.960
  295TIP3    H1  842   7.361   4.948   3.042
  295TIP3    H2  843   7.394   5.023   2.914
  296TIP3   OH2  844   0.577   1.620   5.691
  296TIP3    H1  845   0.638   1.637   5.620
  296TIP3    H2  846   0.631   1.622   5.770
  297TIP3   OH2  847   1.848   5.726   3.151
  297TIP3    H1  848   1.839   5.634   3.176
  297TIP3    H2  849   1.932   5.752   3.189
  298TIP3   OH2  850   2.327   6.165   6.727
  298TIP3    H1  851   2.318   6.087   6.782
  298TIP3    H2  852   2.271   6.231   6.769
  299TIP3   OH2  853   0.871   1.861   1.038
  299TIP3    H1  854   0.946   1.802   1.049
  299TIP3    H2  855   0.895   1.917   0.965
  300TIP3   OH2  856   3.119   5.867   0.349
  300TIP3    H1  857   3.053   5.848   0.416
  300TIP3    H2  858   3.174   5.789   0.347
  301TIP3   OH2  859   6.152   1.778   4.887
  301TIP3    H1  860   6.236   1.761   4.929
  301TIP3    H2  861   6.145   1.873   4.884
  302TIP3   OH2  862   8.318   2.395   5.920
  302TIP3    H1  863   8.321   2.310   5.964
  302TIP3    H2  864   8.285   2.376   5.832
  303TIP3   OH2  865   1.404   5.846   0.188
  303TIP3    H1  866   1.377   5.935   0.165
  303TIP3    H2  867   1.434   5.808   0.105
  304TIP3   OH2  868   5.694   5.134   5.214
  304TIP3    H1  869   5.678   5.213   5.266
  304TIP3    H2  870   5.701   5.064   5.279
  305TIP3   OH2  871   5.220   3.999   0.568
  305TIP3    H1  872   5.302   3.970   0.607
  305TIP3    H2  873   5.214   3.950   0.486
  306TIP3   OH2  874   0.666   1.185   2.051
  306TIP3    H1  875   0.599   1.159   2.113
  306TIP3    H2  876   0.741   1.130   2.071
  307TIP3   OH2  877   0.922   1.932   6.429
  307TIP3    H1  878   0.912   1.954   6.336
  307TIP3    H2  879   1.015   1.945   6.447
  308TIP3   OH2  880   7.696   4.032   2.363
  308TIP3    H1  881   7.738   4.118   2.362
  308TIP3    H2  882   7.620   4.043   2.420
  309TIP3   OH2  883   3.576   4.524   0.789
  309TIP3    H1  884   3.599   4.482   0.706
  309TIP3    H2  885   3.625   4.606   0.789
  310TIP3   OH2  886   3.388   4.694   5.035
  310TIP3    H1  887   3.335   4.696   5.115
  310TIP3    H2  888   3.418   4.784   5.024
  311TIP3   OH2  889   0.385   3.540   1.413
  311TIP3    H1  890   0.290   3.526   1.412
  311TIP3    H2  891   0.422   3.453   1.402
  312TIP3   OH2  892   1.107   4.973   1.296
  312TIP3    H1  893   1.047   5.041   1.327
  312TIP3    H2  894   1.051   4.913   1.247
  313TIP3   OH2  895   7.123   1.304   5.303
  313TIP3    H1  896   7.162   1.221   5.330
  313TIP3    H2  897   7.029   1.287   5.300
  314TIP3   OH2  898   3.524   4.983   6.655
  314TIP3    H1  899   3.569   4.911   6.697
  314TIP3    H2  900   3.549   4.977   6.563
  315TIP3   OH2  901   1.278   2.899   5.271
  315TIP3    H1  902   1.310   2.945   5.349
  315TIP3    H2  903   1.354   2.895   5.213
  316TIP3   OH2  904   6.430   3.546   4.817
  316TIP3    H1  905   6.411   3.558   4.910
  316TIP3    H2  906   6.353   3.581   4.772
  317TIP3   OH2  907   2.285   4.589   6.121
  317TIP3    H1  908   2.347   4.540   6.175
  317TIP3    H2  909   2.267   4.532   6.047
  318TIP3   OH2  910   1.721   5.844   3.416
  318TIP3    H1  911   1.744   5.757   3.450
  318TIP3    H2  912   1.759   5.846   3.328
  319TIP3   OH2  913   4.749   1.410   4.337
  319TIP3    H1  914   4.836   1.429   4.375
  319TIP3    H2  915   4.767   1.393   4.245
  320TIP3   OH2  916   5.359   7.798   0.655
  320TIP3    H1  917   5.276   7.831   0.689
  320TIP3    H2  918   5.344   7.705   0.639
  321TIP3   OH2  919   5.822   0.318   4.385
  321TIP3    H1  920   5.771   0.255   4.437
  321TIP3    H2  921   5.868   0.371   4.450
  322TIP3   OH2  922   7.782   7.156   2.274
  322TIP3    H1  923   7.762   7.245   2.304
  322TIP3    H2  924   7.824   7.169   2.189
  323TIP3   OH2  925   2.547   5.642   5.162
  323TIP3    H1  926   2.574   5.574   5.224
  323TIP3    H2  927   2.585   5.613   5.079
  324TIP3   OH2  928   1.720   4.837   2.155
  324TIP3    H1  929   1.677   4.837   2.069
  324TIP3    H2  930   1.795   4.779   2.144
  325TIP3   OH2  931   3.217   4.167   2.264
  325TIP3    H1  932   3.185   4.081   2.292
  325TIP3    H2  933   3.312   4.157   2.257
  326TIP3   OH2  934   1.618   3.613   4.068
  326TIP3    H1  935   1.631   3.684   4.006
  326TIP3    H2  936   1.545   3.642   4.123
  327TIP3   OH2  937   7.080   3.202   4.965
  327TIP3    H1  938   6.998   3.251   4.960
  327TIP3    H2  939   7.147   3.269   4.975
  328TIP3   OH2  940   0.556   0.570   0.889
  328TIP3    H1  941   0.462   0.560   0.902
  328TIP3    H2  942   0.583   0.489   0.846
  329TIP3   OH2  943   0.438   7.368   5.334
  329TIP3    H1  944   0.507   7.430   5.309
  329TIP3    H2  945   0.439   7.302   5.265
  330TIP3   OH2  946   4.407   6.965   3.929
  330TIP3    H1  947   4.343   7.035   3.918
  330TIP3    H2  948   4.355   6.884   3.927
  331TIP3   OH2  949   6.410   6.146   6.409
  331TIP3    H1  950   6.489   6.198   6.398
  331TIP3    H2  951   6.435   6.075   6.468
  332TIP3   OH2  952   7.406   3.908   0.079
  332TIP3    H1  953   7.403   3.965   0.156
  332TIP3    H2  954   7.493   3.869   0.083
  333TIP3   OH2  955   0.002   0.697   1.612
  333TIP3    H1  956   0.067   0.627   1.615
  333TIP3    H2  957  -0.051   0.679   1.535
  334TIP3   OH2  958   6.387   1.552   3.460
  334TIP3    H1  959   6.346   1.590   3.537
  334TIP3    H2  960   6.378   1.457   3.472
  335TIP3   OH2  961   7.906   2.032   5.772
  335TIP3    H1  962   7.845   2.102   5.796
  335TIP3    H2  963   7.965   2.025   5.847
  336TIP3   OH2  964   7.205   0.854   3.760
  336TIP3    H1  965   7.143   0.927   3.768
  336TIP3    H2  966   7.291   0.896   3.759
  337TIP3   OH2  967   3.313   2.637   0.964
  337TIP3    H1  968   3.245   2.685   0.918
  337TIP3    H2  969   3.271   2.556   0.993
  338TIP3   OH2  970   8.163   5.971   2.689
  338TIP3    H1  971   8.148   6.038   2.756
  338TIP3    H2  972   8.157   6.019   2.606
  339TIP3   OH2  973   0.625   5.190   1.871
  339TIP3    H1  974   0.606   5.119   1.811
  339TIP3    H2  975   0.720   5.191   1.879
  340TIP3   OH2  976   1.303   3.294   4.460
  340TIP3    H1  977   1.228   3.335   4.417
  340TIP3    H2  978   1.379   3.337   4.422
  341TIP3   OH2  979   1.116   6.651   5.526
  341TIP3    H1  980   1.098   6.729   5.474
  341TIP3    H2  981   1.211   6.648   5.534
  342TIP3   OH2  982   0.118   4.299   1.090
  342TIP3    H1  983   0.047   4.361   1.096
  342TIP3    H2  984   0.196   4.352   1.072
  343TIP3   OH2  985   6.865   3.565   6.084
  343TIP3    H1  986   6.817   3.518   6.016
  343TIP3    H2  987   6.798   3.596   6.145
  344TIP3   OH2  988   7.840   5.937   4.090
  344TIP3    H1  989   7.806   6.016   4.047
  344TIP3    H2  990   7.830   5.868   4.024
  345TIP3   OH2  991   7.108   0.423   6.040
  345TIP3    H1  992   7.016   0.401   6.025
  345TIP3    H2  993   7.113   0.441   6.134
  346TIP3   OH2  994   1.188   3.326   2.482
  346TIP3    H1  995   1.223   3.314   2.570
  346TIP3    H2  996   1.095   3.307   2.490
  347TIP3   OH2  997   0.209   7.300   3.608
  347TIP3    H1  998   0.254   7.352   3.542
  347TIP3    H2  999   0.241   7.336   3.691
  348TIP3   OH2 1000   1.888   6.751   1.215
  348TIP3    H1 1001   1.932   6.674   1.181
  348TIP3    H2 1002   1.903   6.819   1.149
  349TIP3   OH2 1003   5.390   1.453   4.784
  349TIP3    H1 1004   5.466   1.512   4.793
  349TIP3    H2 1005   5.368   1.430   4.874
  350TIP3   OH2 1006   1.397   5.722   5.590
  350TIP3    H1 1007   1.337   5.784   5.631
  350TIP3    H2 1008   1.349   5.640   5.586
  351TIP3   OH2 1009   6.093   4.703   4.309
  351TIP3    H1 1010   6.186   4.703   4.334
  351TIP3    H2 1011   6.052   4.763   4.371
  352TIP3   OH2 1012   7.914   5.257   1.809
  352TIP3    H1 1013   8.006   5.278   1.793
  352TIP3    H2 1014   7.866   5.336   1.785
  353TIP3   OH2 1015   5.088   5.496   5.048
  353TIP3    H1 1016   5.103   5.551   5.125
  353TIP3    H2 1017   5.150   5.424   5.058
  354TIP3   OH2 1018   5.043   2.150   3.506
  354TIP3    H1 1019   4.951   2.123   3.500
  354TIP3    H2 1020   5.044   2.239   3.470
  355TIP3   OH2 1021   1.122   2.763   4.519
  355TIP3    H1 1022   1.061   2.830   4.551
  355TIP3    H2 1023   1.098   2.751   4.427
  356TIP3   OH2 1024   1.305   0.231   4.726
  356TIP3    H1 1025   1.346   0.310   4.691
  356TIP3    H2 1026   1.359   0.207   4.802
  357TIP3   OH2 1027   2.114   7.317   5.489
  357TIP3    H1 1028   2.174   7.366   5.432
  357TIP3    H2 1029   2.084   7.244   5.436
  358TIP3   OH2 1030   5.155   3.434   2.260
  358TIP3    H1 1031   5.079   3.490   2.279
  358TIP3    H2 1032   5.193   3.473   2.182
  359TIP3   OH2 1033   3.681   4.059   3.208
  359TIP3    H1 1034   3.601   4.102   3.178
  359TIP3    H2 1035   3.651   3.996   3.274
  360TIP3   OH2 1036   7.617   7.237   4.917
  360TIP3    H1 1037   7.576   7.307   4.867
  360TIP3    H2 1038   7.695   7.214   4.866
  361TIP3   OH2 1039   8.015   3.091   6.045
  361TIP3    H1 1040   8.054   3.009   6.075
  361TIP3    H2 1041   8.014   3.083   5.950
  362TIP3   OH2 1042   3.717   3.235   4.124
  362TIP3    H1 1043   3.655   3.251   4.195
  362TIP3    H2 1044   3.663   3.234   4.045
  363TIP3   OH2 1045   4.540   3.431   2.053
  363TIP3    H1 1046   4.488   3.507   2.025
  363TIP3    H2 1047   4.545   3.376   1.975
  364TIP3   OH2 1048   1.608   3.357   0.386
  364TIP3    H1 1049   1.512   3.350   0.390
  364TIP3    H2 1050   1.625   3.398   0.302
  365TIP3   OH2 1051   6.171   6.876   1.957
  365TIP3    H1 1052   6.110   6.929   1.906
  365TIP3    H2 1053   6.240   6.937   1.983
  366TIP3   OH2 1054   6.561   4.327   5.498
  366TIP3    H1 1055   6.571   4.245   5.448
  366TIP3    H2 1056   6.648   4.343   5.534
  367TIP3   OH2 1057   2.486   5.314   5.593
  367TIP3    H1 1058   2.429   5.266   5.533
  367TIP3    H2 1059   2.431   5.335   5.668
  368TIP3   OH2 1060   5.591   3.055   2.483
  368TIP3    H1 1061   5.529   3.111   2.531
  368TIP3    H2 1062   5.583   2.969   2.523
  369TIP3   OH2 1063   8.258   0.797   0.835
  369TIP3    H1 1064   8.344   0.754   0.838
  369TIP3    H2 1065   8.208   0.753   0.905
  370TIP3   OH2 1066   0.852   0.268   0.315
  370TIP3    H1 1067   0.893   0.276   0.229
  370TIP3    H2 1068   0.862   0.355   0.354
  371TIP3   OH2 1069   2.003   5.068   3.004
  371TIP3    H1 1070   1.987   4.989   3.055
  371TIP3    H2 1071   2.035   5.037   2.919
  372TIP3   OH2 1072   5.618   6.646   4.644
  372TIP3    H1 1073   5.690   6.594   4.679
  372TIP3    H2 1074   5.645   6.667   4.555
  373TIP3   OH2 1075   0.738   3.356   2.139
  373TIP3    H1 1076   0.657   3.317   2.107
  373TIP3    H2 1077   0.711   3.412   2.211
  374TIP3   OH2 1078   3.341   0.376   4.980
  374TIP3    H1 1079   3.260   0.344   5.019
  374TIP3    H2 1080   3.313   0.432   4.908
  375TIP3   OH2 1081   2.057   6.141   1.835
  375TIP3    H1 1082   1.978   6.120   1.886
  375TIP3    H2 1083   2.122   6.166   1.901
  376TIP3   OH2 1084   7.093   1.078   0.960
  376TIP3    H1 1085   7.089   1.053   0.868
  376TIP3    H2 1086   7.158   1.148   0.963
  377TIP3   OH2 1087   0.678   2.439   3.212
  377TIP3    H1 1088   0.689   2.424   3.306
  377TIP3    H2 1089   0.675   2.534   3.203
  378TIP3   OH2 1090   4.625   3.494   0.362
  378TIP3    H1 1091   4.543   3.449   0.340
  378TIP3    H2 1092   4.641   3.551   0.287
  379TIP3   OH2 1093   7.469   5.059   4.470
  379TIP3    H1 1094   7.456   5.116   4.394
  379TIP3    H2 1095   7.421   4.979   4.448
  380TIP3   OH2 1096   3.886   3.222   4.769
  380TIP3    H1 1097   3.976   3.233   4.739
  380TIP3    H2 1098   3.894   3.171   4.849
  381TIP3   OH2 1099   3.259   2.886   4.910
  381TIP3    H1 1100   3.187   2.847   4.959
  381TIP3    H2 1101   3.309   2.812   4.877
  382TIP3   OH2 1102   4.740   3.427   6.614
  382TIP3    H1 1103   4.770   3.502   6.562
  382TIP3    H2 1104   4.744   3.458   6.704
  383TIP3   OH2 1105   7.563   0.267   2.963
  383TIP3    H1 1106   7.558   0.172   2.962
  383TIP3    H2 1107   7.526   0.292   3.048
  384TIP3   OH2 1108   4.770   6.134   3.676
  384TIP3    H1 1109   4.818   6.142   3.593
  384TIP3    H2 1110   4.831   6.087   3.734
  385TIP3   OH2 1111   6.961   3.841   3.304
  385TIP3    H1 1112   6.975   3.759   3.256
  385TIP3    H2 1113   7.016   3.832   3.382
  386TIP3   OH2 1114   0.543   7.796   4.352
  386TIP3    H1 1115   0.465   7.838   4.389
  386TIP3    H2 1116   0.535   7.704   4.377
  387TIP3   OH2 1117   3.572   6.481   4.946
  387TIP3    H1 1118   3.540   6.394   4.923
  387TIP3    H2 1119   3.650   6.464   5.000
  388TIP3   OH2 1120   1.167   7.063   2.554
  388TIP3    H1 1121   1.136   6.999   2.617
  388TIP3    H2 1122   1.239   7.020   2.508
  389TIP3   OH2 1123   1.442   1.675   3.900
  389TIP3    H1 1124   1.353   1.642   3.889
  389TIP3    H2 1125   1.437   1.768   3.877
  390TIP3   OH2 1126   6.213   4.197   2.340
  390TIP3    H1 1127   6.207   4.102   2.334
  390TIP3    H2 1128   6.268   4.213   2.416
  391TIP3   OH2 1129   2.908   4.846   1.779
  391TIP3    H1 1130   2.977   4.829   1.843
  391TIP3    H2 1131   2.832   4.799   1.813
  392TIP3   OH2 1132   2.034   6.435   2.895
  392TIP3    H1 1133   2.049   6.439   2.990
  392TIP3    H2 1134   2.121   6.424   2.858
  393TIP3   OH2 1135   1.419   5.297   4.481
  393TIP3    H1 1136   1.436   5.284   4.574
  393TIP3    H2 1137   1.500   5.335   4.446
  394TIP3   OH2 1138   8.026   4.118   5.499
  394TIP3    H1 1139   8.062   4.103   5.587
  394TIP3    H2 1140   7.931   4.116   5.512
  395TIP3   OH2 1141   8.037   0.981   5.533
  395TIP3    H1 1142   8.040   1.062   5.483
  395TIP3    H2 1143   8.069   0.914   5.472
  396TIP3   OH2 1144   7.806   5.815   6.637
  396TIP3    H1 1145   7.843   5.734   6.671
  396TIP3    H2 1146   7.716   5.792   6.613
  397TIP3   OH2 1147   0.109   4.618   0.976
  397TIP3    H1 1148   0.081   4.583   1.060
  397TIP3    H2 1149   0.027   4.636   0.929
  398TIP3   OH2 1150   4.796   1.937   2.374
  398TIP3    H1 1151   4.803   1.860   2.317
  398TIP3    H2 1152   4.821   1.905   2.461
  399TIP3   OH2 1153   2.396   3.920   0.655
  399TIP3    H1 1154   2.439   3.893   0.736
  399TIP3    H2 1155   2.446   3.997   0.626
  400TIP3   OH2 1156   3.127   0.496   0.705
  400TIP3    H1 1157   3.138   0.547   0.625
  400TIP3    H2 1158   3.086   0.414   0.677
  401TIP3   OH2 1159   5.460   2.030   2.587
  401TIP3    H1 1160   5.453   2.064   2.497
  401TIP3    H2 1161   5.469   1.935   2.575
  402TIP3   OH2 1162   0.785   0.364   5.050
  402TIP3    H1 1163   0.856   0.303   5.072
  402TIP3    H2 1164   0.772   0.414   5.130
  403TIP3   OH2 1165   3.957   1.745   2.075
  403TIP3    H1 1166   3.871   1.779   2.102
  403TIP3    H2 1167   3.936   1.674   2.015
  404TIP3   OH2 1168   5.610   0.455   5.109
  404TIP3    H1 1169   5.655   0.537   5.130
  404TIP3    H2 1170   5.556   0.437   5.186
  405TIP3   OH2 1171   6.894   0.497   5.468
  405TIP3    H1 1172   6.979   0.474   5.430
  405TIP3    H2 1173   6.912   0.508   5.562
  406TIP3   OH2 1174   1.104   5.099   0.190
  406TIP3    H1 1175   1.177   5.042   0.213
  406TIP3    H2 1176   1.035   5.039   0.163
  407TIP3   OH2 1177   3.670   0.232   0.294
  407TIP3    H1 1178   3.724   0.239   0.372
  407TIP3    H2 1179   3.615   0.155   0.308
  408TIP3   OH2 1180   7.304   7.226   4.439
  408TIP3    H1 1181   7.388   7.265   4.414
  408TIP3    H2 1182   7.245   7.248   4.367
  409TIP3   OH2 1183   7.302   6.273   4.976
  409TIP3    H1 1184   7.366   6.203   4.986
  409TIP3    H2 1185   7.266   6.261   4.888
  410TIP3   OH2 1186   2.800   6.125   0.026
  410TIP3    H1 1187   2.844   6.186   0.086
  410TIP3    H2 1188   2.846   6.042   0.038
  411TIP3   OH2 1189   7.296   5.705   4.596
  411TIP3    H1 1190   7.297   5.651   4.675
  411TIP3    H2 1191   7.234   5.775   4.614
  412TIP3   OH2 1192   1.454   6.804   0.831
  412TIP3    H1 1193   1.475   6.883   0.782
  412TIP3    H2 1194   1.363   6.784   0.808
  413TIP3   OH2 1195   3.647   4.268   6.348
  413TIP3    H1 1196   3.705   4.330   6.393
  413TIP3    H2 1197   3.597   4.323   6.287
  414TIP3   OH2 1198   4.078   5.455   3.672
  414TIP3    H1 1199   4.119   5.434   3.756
  414TIP3    H2 1200   4.043   5.371   3.641
  415TIP3   OH2 1201   2.746   6.570   1.985
  415TIP3    H1 1202   2.771   6.594   1.896
  415TIP3    H2 1203   2.828   6.551   2.030
  416TIP3   OH2 1204   2.615   1.617   4.144
  416TIP3    H1 1205   2.668   1.544   4.111
  416TIP3    H2 1206   2.590   1.590   4.233
  417TIP3   OH2 1207   1.601   5.074   0.620
  417TIP3    H1 1208   1.674   5.031   0.576
  417TIP3    H2 1209   1.589   5.155   0.570
  418TIP3   OH2 1210   4.556   0.428   3.279
  418TIP3    H1 1211   4.608   0.453   3.355
  418TIP3    H2 1212   4.577   0.335   3.265
  419TIP3   OH2 1213   4.800   2.806   4.542
  419TIP3    H1 1214   4.801   2.882   4.599
  419TIP3    H2 1215   4.841   2.836   4.461
  420TIP3   OH2 1216   6.883   5.948   3.499
  420TIP3    H1 1217   6.906   5.893   3.424
  420TIP3    H2 1218   6.814   6.006   3.466
  421TIP3   OH2 1219   7.448   5.548   1.672
  421TIP3    H1 1220   7.494   5.465   1.687
  421TIP3    H2 1221   7.367   5.523   1.628
  422TIP3   OH2 1222   1.782   3.021   6.638
  422TIP3    H1 1223   1.759   3.023   6.545
  422TIP3    H2 1224   1.870   2.985   6.641
  423TIP3   OH2 1225   0.744   4.331   6.134
  423TIP3    H1 1226   0.794   4.251   6.120
  423TIP3    H2 1227   0.793   4.378   6.202
  424TIP3   OH2 1228   5.620   3.245   0.600
  424TIP3    H1 1229   5.640   3.192   0.677
  424TIP3    H2 1230   5.541   3.294   0.624
  425TIP3   OH2 1231   1.483   5.426   3.542
  425TIP3    H1 1232   1.530   5.470   3.471
  425TIP3    H2 1233   1.550   5.408   3.607
  426TIP3   OH2 1234   1.511   4.506   1.576
  426TIP3    H1 1235   1.531   4.414   1.594
  426TIP3    H2 1236   1.597   4.547   1.563
  427TIP3   OH2 1237   1.321   4.428   3.158
  427TIP3    H1 1238   1.256   4.489   3.122
  427TIP3    H2 1239   1.297   4.419   3.250
  428TIP3   OH2 1240   2.898   6.556   3.416
  428TIP3    H1 1241   2.990   6.577   3.397
  428TIP3    H2 1242   2.860   6.640   3.442
  429TIP3   OH2 1243   8.233   2.711   0.694
  429TIP3    H1 1244   8.235   2.806   0.697
  429TIP3    H2 1245   8.140   2.689   0.681
  430TIP3   OH2 1246   2.566   0.166   6.482
  430TIP3    H1 1247   2.632   0.204   6.424
  430TIP3    H2 1248   2.506   0.238   6.500
  431TIP3   OH2 1249   7.993   1.509   0.220
  431TIP3    H1 1250   7.957   1.595   0.201
  431TIP3    H2 1251   7.916   1.451   0.225
  432TIP3   OH2 1252   5.307   0.501   6.698
  432TIP3    H1 1253   5.290   0.439   6.627
  432TIP3    H2 1254   5.270   0.461   6.776
  433TIP3   OH2 1255   3.391   1.011   5.752
  433TIP3    H1 1256   3.424   1.066   5.823
  433TIP3    H2 1257   3.436   0.927   5.764
  434TIP3   OH2 1258   2.162   3.543   3.638
  434TIP3    H1 1259   2.133   3.472   3.581
  434TIP3    H2 1260   2.122   3.523   3.723
  435TIP3   OH2 1261   3.105   1.281   1.852
  435TIP3    H1 1262   3.017   1.314   1.872
  435TIP3    H2 1263   3.153   1.289   1.935
  436TIP3   OH2 1264   0.775   2.317   1.437
  436TIP3    H1 1265   0.829   2.396   1.447
  436TIP3    H2 1266   0.747   2.318   1.346
  437TIP3   OH2 1267   6.651   7.483   2.280
  437TIP3    H1 1268   6.691   7.569   2.292
  437TIP3    H2 1269   6.682   7.431   2.354
  438TIP3   OH2 1270   0.697   3.785   5.581
  438TIP3    H1 1271   0.713   3.784   5.487
  438TIP3    H2 1272   0.623   3.845   5.592
  439TIP3   OH2 1273   3.356   1.676   1.430
  439TIP3    H1 1274   3.396   1.629   1.503
  439TIP3    H2 1275   3.330   1.760   1.466
  440TIP3   OH2 1276   7.783   3.949   1.443
  440TIP3    H1 1277   7.742   3.915   1.364
  440TIP3    H2 1278   7.866   3.987   1.412
  441TIP3   OH2 1279   7.131   3.033   6.584
  441TIP3    H1 1280   7.163   2.979   6.512
  441TIP3    H2 1281   7.090   3.108   6.542
  442TIP3   OH2 1282   7.964   4.585   5.051
  442TIP3    H1 1283   7.890   4.617   5.000
  442TIP3    H2 1284   7.928   4.516   5.106
  443TIP3   OH2 1285   2.601   4.815   2.492
  443TIP3    H1 1286   2.551   4.808   2.411
  443TIP3    H2 1287   2.654   4.894   2.481
  444TIP3   OH2 1288   2.872   6.962   6.325
  444TIP3    H1 1289   2.944   6.930   6.380
  444TIP3    H2 1290   2.867   7.056   6.345
  445TIP3   OH2 1291   6.266   6.786   2.610
  445TIP3    H1 1292   6.280   6.856   2.546
  445TIP3    H2 1293   6.186   6.743   2.581
  446TIP3   OH2 1294   4.473   5.899   4.558
  446TIP3    H1 1295   4.499   5.901   4.466
  446TIP3    H2 1296   4.380   5.875   4.556
  447TIP3   OH2 1297   0.355   2.198   4.581
  447TIP3    H1 1298   0.308   2.252   4.518
  447TIP3    H2 1299   0.345   2.244   4.665
  448TIP3   OH2 1300   1.846   6.804   2.015
  448TIP3    H1 1301   1.820   6.747   1.942
  448TIP3    H2 1302   1.774   6.795   2.078
  449TIP3   OH2 1303   1.865   4.764   6.578
  449TIP3    H1 1304   1.958   4.750   6.562
  449TIP3    H2 1305   1.824   4.680   6.558
  450TIP3   OH2 1306   0.069   1.805   5.051
  450TIP3    H1 1307   0.094   1.852   5.130
  450TIP3    H2 1308   0.146   1.754   5.028
  451TIP3   OH2 1309   2.385   6.634   3.572
  451TIP3    H1 1310   2.305   6.677   3.542
  451TIP3    H2 1311   2.397   6.666   3.661
  452TIP3   OH2 1312   6.517   2.946   2.847
  452TIP3    H1 1313   6.551   3.013   2.907
  452TIP3    H2 1314   6.424   2.968   2.838
  453TIP3   OH2 1315   7.000   7.581   2.921
  453TIP3    H1 1316   6.951   7.541   2.993
  453TIP3    H2 1317   7.027   7.666   2.956
  454TIP3   OH2 1318   7.470   4.617   1.841
  454TIP3    H1 1319   7.479   4.710   1.821
  454TIP3    H2 1320   7.489   4.572   1.759
  455TIP3   OH2 1321   3.951   3.052   1.147
  455TIP3    H1 1322   3.896   3.002   1.086
  455TIP3    H2 1323   3.925   3.143   1.133
  456TIP3   OH2 1324   0.374   3.468   1.086
  456TIP3    H1 1325   0.460   3.506   1.099
  456TIP3    H2 1326   0.338   3.459   1.174
  457TIP3   OH2 1327   4.900   6.712   6.136
  457TIP3    H1 1328   4.819   6.690   6.183
  457TIP3    H2 1329   4.970   6.675   6.190
  458TIP3   OH2 1330   5.252   1.866   4.747
  458TIP3    H1 1331   5.228   1.895   4.835
  458TIP3    H2 1332   5.194   1.792   4.729
  459TIP3   OH2 1333   2.772   1.496   3.842
  459TIP3    H1 1334   2.862   1.527   3.845
  459TIP3    H2 1335   2.746   1.505   3.751
  460TIP3   OH2 1336   0.866   4.571   6.451
  460TIP3    H1 1337   0.861   4.482   6.416
  460TIP3    H2 1338   0.960   4.593   6.446
  461TIP3   OH2 1339   7.197   0.387   2.653
  461TIP3    H1 1340   7.271   0.327   2.657
  461TIP3    H2 1341   7.209   0.445   2.728
  462TIP3   OH2 1342   4.819   2.757   4.922
  462TIP3    H1 1343   4.786   2.705   4.849
  462TIP3    H2 1344   4.741   2.792   4.965
  463TIP3   OH2 1345   6.552   6.573   5.716
  463TIP3    H1 1346   6.463   6.591   5.684
  463TIP3    H2 1347   6.607   6.636   5.669
  464TIP3   OH2 1348   0.449   6.924   5.352
  464TIP3    H1 1349   0.462   6.941   5.445
  464TIP3    H2 1350   0.488   6.999   5.308
  465TIP3   OH2 1351   7.427   1.246   6.231
  465TIP3    H1 1352   7.465   1.173   6.182
  465TIP3    H2 1353   7.422   1.317   6.168
  466TIP3   OH2 1354   2.471   7.229   6.037
  466TIP3    H1 1355   2.444   7.266   5.953
  466TIP3    H2 1356   2.536   7.292   6.071
  467TIP3   OH2 1357   1.319   0.709   1.961
  467TIP3    H1 1358   1.232   0.723   1.998
  467TIP3    H2 1359   1.308   0.635   1.901
  468TIP3   OH2 1360   0.700   4.389   2.264
  468TIP3    H1 1361   0.632   4.350   2.208
  468TIP3    H2 1362   0.727   4.318   2.322
  469TIP3   OH2 1363   5.767   0.328   0.451
  469TIP3    H1 1364   5.693   0.308   0.509
  469TIP3    H2 1365   5.815   0.397   0.496
  470TIP3   OH2 1366   5.322   5.291   0.483
  470TIP3    H1 1367   5.318   5.212   0.537
  470TIP3    H2 1368   5.342   5.258   0.395
  471TIP3   OH2 1369   2.007   2.565   0.805
  471TIP3    H1 1370   2.002   2.485   0.752
  471TIP3    H2 1371   2.100   2.589   0.801
  472TIP3   OH2 1372   5.135   0.648   5.088
  472TIP3    H1 1373   5.094   0.564   5.069
  472TIP3    H2 1374   5.228   0.627   5.099
  473TIP3   OH2 1375   6.248   4.201   3.240
  473TIP3    H1 1376   6.279   4.115   3.211
  473TIP3    H2 1377   6.322   4.238   3.288
  474TIP3   OH2 1378   3.827   5.415   5.336
  474TIP3    H1 1379   3.906   5.363   5.321
  474TIP3    H2 1380   3.759   5.350   5.354
  475TIP3   OH2 1381   0.506   6.326   3.856
  475TIP3    H1 1382   0.593   6.289   3.872
  475TIP3    H2 1383   0.447   6.251   3.860
  476TIP3   OH2 1384   1.375   3.409   4.849
  476TIP3    H1 1385   1.450   3.373   4.896
  476TIP3    H2 1386   1.337   3.333   4.804
  477TIP3   OH2 1387   5.254   4.936   0.183
  477TIP3    H1 1388   5.249   4.843   0.157
  477TIP3    H2 1389   5.283   4.933   0.274
  478TIP3   OH2 1390   3.286   7.336   2.381
  478TIP3    H1 1391   3.305   7.286   2.460
  478TIP3    H2 1392   3.365   7.327   2.327
  479TIP3   OH2 1393   0.657   4.444   3.122
  479TIP3    H1 1394   0.614   4.390   3.056
  479TIP3    H2 1395   0.595   4.446   3.195
  480TIP3   OH2 1396   1.905   2.812   2.351
  480TIP3    H1 1397   1.930   2.843   2.264
  480TIP3    H2 1398   1.810   2.824   2.354
  481TIP3   OH2 1399   6.146   3.600   0.231
  481TIP3    H1 1400   6.107   3.540   0.294
  481TIP3    H2 1401   6.197   3.544   0.172
  482TIP3   OH2 1402   2.587   1.269   1.852
  482TIP3    H1 1403   2.514   1.217   1.886
  482TIP3    H2 1404   2.595   1.342   1.913
  483TIP3   OH2 1405   4.697   6.704   1.596
  483TIP3    H1 1406   4.614   6.743   1.625
  483TIP3    H2 1407   4.687   6.611   1.615
  484TIP3   OH2 1408   6.707   2.237   6.511
  484TIP3    H1 1409   6.640   2.242   6.442
  484TIP3    H2 1410   6.725   2.144   6.520
  485TIP3   OH2 1411   2.432   7.452   5.495
  485TIP3    H1 1412   2.444   7.427   5.587
  485TIP3    H2 1413   2.422   7.369   5.449
  486TIP3   OH2 1414   0.159   0.405   2.487
  486TIP3    H1 1415   0.128   0.340   2.550
  486TIP3    H2 1416   0.109   0.484   2.507
  487TIP3   OH2 1417   5.687   0.375   6.026
  487TIP3    H1 1418   5.716   0.463   6.050
  487TIP3    H2 1419   5.621   0.390   5.957
  488TIP3   OH2 1420   5.064   1.267   3.250
  488TIP3    H1 1421   5.101   1.179   3.249
  488TIP3    H2 1422   5.114   1.313   3.318
  489TIP3   OH2 1423   7.163   7.003   0.148
  489TIP3    H1 1424   7.120   7.071   0.199
  489TIP3    H2 1425   7.091   6.955   0.106
  490TIP3   OH2 1426   4.795   4.526   6.683
  490TIP3    H1 1427   4.848   4.592   6.638
  490TIP3    H2 1428   4.743   4.576   6.746
  491TIP3   OH2 1429   7.517   7.103   2.113
  491TIP3    H1 1430   7.424   7.128   2.109
  491TIP3    H2 1431   7.563   7.178   2.077
  492TIP3   OH2 1432   7.578   1.860   2.271
  492TIP3    H1 1433   7.546   1.776   2.237
  492TIP3    H2 1434   7.644   1.887   2.206
  493TIP3   OH2 1435   1.452   5.696   1.132
  493TIP3    H1 1436   1.547   5.690   1.135
  493TIP3    H2 1437   1.425   5.614   1.090
  494TIP3   OH2 1438   2.018   6.988   5.511
  494TIP3    H1 1439   1.999   6.903   5.550
  494TIP3    H2 1440   1.931   7.026   5.493
  495TIP3   OH2 1441   2.471   0.727   0.418
  495TIP3    H1 1442   2.565   0.744   0.419
  495TIP3    H2 1443   2.460   0.652   0.476
  496TIP3   OH2 1444   0.374   3.557   5.409
  496TIP3    H1 1445   0.385   3.637   5.357
  496TIP3    H2 1446   0.338   3.493   5.348
  497TIP3   OH2 1447   5.736   0.862   2.356
  497TIP3    H1 1448   5.747   0.806   2.279
  497TIP3    H2 1449   5.789   0.820   2.424
  498TIP3   OH2 1450   7.322   0.593   2.513
  498TIP3    H1 1451   7.411   0.559   2.514
  498TIP3    H2 1452   7.274   0.537   2.575
  499TIP3   OH2 1453   5.029   6.299   5.528
  499TIP3    H1 1454   4.989   6.342   5.604
  499TIP3    H2 1455   4.997   6.349   5.453
  500TIP3   OH2 1456   0.885   3.361   4.542
  500TIP3    H1 1457   0.843   3.368   4.456
  500TIP3    H2 1458   0.896   3.452   4.571
  501TIP3   OH2 1459   5.873   0.595   2.193
  501TIP3    H1 1460   5.882   0.556   2.280
  501TIP3    H2 1461   5.925   0.539   2.136
  502TIP3   OH2 1462   0.071   6.824   3.597
  502TIP3    H1 1463  -0.015   6.808   3.558
  502TIP3    H2 1464   0.133   6.808   3.525
  503TIP3   OH2 1465   7.052   1.581   3.647
  503TIP3    H1 1466   7.110   1.655   3.666
  503TIP3    H2 1467   7.082   1.549   3.561
  504TIP3   OH2 1468   5.476   4.172   2.180
  504TIP3    H1 1469   5.464   4.202   2.270
  504TIP3    H2 1470   5.400   4.118   2.162
  505TIP3   OH2 1471   3.855   4.261   0.321
  505TIP3    H1 1472   3.862   4.234   0.230
  505TIP3    H2 1473   3.852   4.180   0.370
  506TIP3   OH2 1474   5.507   2.106   1.170
  506TIP3    H1 1475   5.435   2.043   1.178
  506TIP3    H2 1476   5.488   2.153   1.089
  507TIP3   OH2 1477   2.295   2.483   1.503
  507TIP3    H1 1478   2.319   2.573   1.523
  507TIP3    H2 1479   2.369   2.448   1.454
  508TIP3   OH2 1480   2.695   0.858   4.736
  508TIP3    H1 1481   2.676   0.764   4.744
  508TIP3    H2 1482   2.682   0.892   4.825
  509TIP3   OH2 1483   7.351   6.876   5.516
  509TIP3    H1 1484   7.382   6.952   5.468
  509TIP3    H2 1485   7.329   6.811   5.449
  510TIP3   OH2 1486   7.288   0.088   1.356
  510TIP3    H1 1487   7.306  -0.005   1.372
  510TIP3    H2 1488   7.306   0.100   1.262
  511TIP3   OH2 1489   1.929   0.066   3.592
  511TIP3    H1 1490   1.893   0.147   3.555
  511TIP3    H2 1491   2.020   0.087   3.613
  512TIP3   OH2 1492   3.779   0.227   1.577
  512TIP3    H1 1493   3.744   0.310   1.545
  512TIP3    H2 1494   3.868   0.249   1.606
  513TIP3   OH2 1495   5.593   2.394   1.548
  513TIP3    H1 1496   5.584   2.486   1.574
  513TIP3    H2 1497   5.509   2.372   1.507
  514TIP3   OH2 1498   1.759   1.700   0.589
  514TIP3    H1 1499   1.830   1.637   0.602
  514TIP3    H2 1500   1.681   1.646   0.577
  515TIP3   OH2 1501   2.777   5.121   4.798
  515TIP3    H1 1502   2.808   5.125   4.707
  515TIP3    H2 1503   2.807   5.035   4.829
  516TIP3   OH2 1504   5.131   1.571   6.201
  516TIP3    H1 1505   5.146   1.511   6.274
  516TIP3    H2 1506   5.140   1.658   6.241
  517TIP3   OH2 1507   2.195   2.984   3.404
  517TIP3    H1 1508   2.178   3.006   3.496
  517TIP3    H2 1509   2.279   3.026   3.384
  518TIP3   OH2 1510   1.487   6.676   1.675
  518TIP3    H1 1511   1.493   6.761   1.630
  518TIP3    H2 1512   1.416   6.687   1.738
  519TIP3   OH2 1513   1.748   4.998   4.212
  519TIP3    H1 1514   1.763   5.081   4.168
  519TIP3    H2 1515   1.693   4.948   4.152
  520TIP3   OH2 1516   3.068   4.221   5.346
  520TIP3    H1 1517   3.052   4.257   5.258
  520TIP3    H2 1518   3.140   4.159   5.333
  521TIP3   OH2 1519   6.592   6.345   6.039
  521TIP3    H1 1520   6.553   6.384   5.960
  521TIP3    H2 1521   6.628   6.420   6.086
  522TIP3   OH2 1522   2.458   6.697   1.211
  522TIP3    H1 1523   2.459   6.678   1.304
  522TIP3    H2 1524   2.503   6.623   1.170
  523TIP3   OH2 1525   2.998   5.191   4.002
  523TIP3    H1 1526   2.994   5.159   4.092
  523TIP3    H2 1527   2.930   5.258   3.996
  524TIP3   OH2 1528   0.293   2.417   0.212
  524TIP3    H1 1529   0.373   2.391   0.258
  524TIP3    H2 1530   0.283   2.352   0.143
  525TIP3   OH2 1531   7.723   3.125   5.817
  525TIP3    H1 1532   7.734   3.220   5.830
  525TIP3    H2 1533   7.697   3.092   5.903
  526TIP3   OH2 1534   4.751   6.089   6.260
  526TIP3    H1 1535   4.691   6.126   6.195
  526TIP3    H2 1536   4.828   6.062   6.209
  527TIP3   OH2 1537   4.603   6.129   6.779
  527TIP3    H1 1538   4.644   6.057   6.827
  527TIP3    H2 1539   4.596   6.097   6.689
  528TIP3   OH2 1540   6.622   1.964   0.365
  528TIP3    H1 1541   6.618   1.920   0.450
  528TIP3    H2 1542   6.697   2.023   0.373
  529TIP3   OH2 1543   2.435   5.544   1.975
  529TIP3    H1 1544   2.370   5.544   2.045
  529TIP3    H2 1545   2.422   5.461   1.930
  530TIP3   OH2 1546   5.996   1.095   3.784
  530TIP3    H1 1547   5.928   1.075   3.848
  530TIP3    H2 1548   5.986   1.028   3.716
  531TIP3   OH2 1549   7.507   3.306   3.651
  531TIP3    H1 1550   7.460   3.353   3.721
  531TIP3    H2 1551   7.549   3.233   3.696
  532TIP3   OH2 1552   3.297   6.276   0.943
  532TIP3    H1 1553   3.223   6.254   0.888
  532TIP3    H2 1554   3.307   6.200   1.001
  533TIP3   OH2 1555   5.330   7.868   6.492
  533TIP3    H1 1556   5.401   7.847   6.431
  533TIP3    H2 1557   5.374   7.901   6.570
  534TIP3   OH2 1558   4.308   1.983   0.947
  534TIP3    H1 1559   4.266   1.906   0.986
  534TIP3    H2 1560   4.278   2.056   1.001
  535TIP3   OH2 1561   4.493   2.648   4.988
  535TIP3    H1 1562   4.402   2.620   4.991
  535TIP3    H2 1563   4.542   2.568   4.970
  536TIP3   OH2 1564   5.009   0.887   3.478
  536TIP3    H1 1565   5.023   0.973   3.516
  536TIP3    H2 1566   5.017   0.900   3.384
  537TIP3   OH2 1567   5.629   3.407   5.659
  537TIP3    H1 1568   5.546   3.434   5.698
  537TIP3    H2 1569   5.686   3.390   5.734
  538TIP3   OH2 1570   6.099   7.368   3.093
  538TIP3    H1 1571   6.018   7.327   3.123
  538TIP3    H2 1572   6.156   7.295   3.071
  539TIP3   OH2 1573   1.324   0.877   0.978
  539TIP3    H1 1574   1.271   0.870   1.058
  539TIP3    H2 1575   1.259   0.886   0.908
  540TIP3   OH2 1576   6.892   4.345   5.979
  540TIP3    H1 1577   6.921   4.255   5.997
  540TIP3    H2 1578   6.947   4.373   5.905
  541TIP3   OH2 1579   6.297   4.086   0.585
  541TIP3    H1 1580   6.268   4.139   0.510
  541TIP3    H2 1581   6.289   4.145   0.660
  542TIP3   OH2 1582   2.687   5.238   0.228
  542TIP3    H1 1583   2.775   5.203   0.238
  542TIP3    H2 1584   2.695   5.331   0.250
  543TIP3   OH2 1585   5.988   5.002   5.501
  543TIP3    H1 1586   5.929   5.027   5.430
  543TIP3    H2 1587   5.994   4.907   5.496
  544TIP3   OH2 1588   4.496   4.113   3.504
  544TIP3    H1 1589   4.428   4.066   3.552
  544TIP3    H2 1590   4.578   4.089   3.547
  545TIP3   OH2 1591   5.654   5.882   0.133
  545TIP3    H1 1592   5.689   5.816   0.193
  545TIP3    H2 1593   5.561   5.888   0.155
  546TIP3   OH2 1594   3.981   0.758   3.720
  546TIP3    H1 1595   3.968   0.711   3.637
  546TIP3    H2 1596   3.967   0.691   3.787
  547TIP3   OH2 1597   1.727   0.058   6.674
  547TIP3    H1 1598   1.783   0.118   6.723
  547TIP3    H2 1599   1.639   0.096   6.681
  548TIP3   OH2 1600   4.351   1.780   1.958
  548TIP3    H1 1601   4.308   1.845   1.903
  548TIP3    H2 1602   4.431   1.757   1.911
  549TIP3   OH2 1603   3.913   5.089   5.192
  549TIP3    H1 1604   3.987   5.127   5.239
  549TIP3    H2 1605   3.841   5.092   5.255
  550TIP3   OH2 1606   6.250   2.534   5.018
  550TIP3    H1 1607   6.251   2.451   5.065
  550TIP3    H2 1608   6.338   2.569   5.030
  551TIP3   OH2 1609   5.744   3.793   0.584
  551TIP3    H1 1610   5.781   3.723   0.531
  551TIP3    H2 1611   5.722   3.750   0.668
  552TIP3   OH2 1612   1.977   0.799   3.662
  552TIP3    H1 1613   2.023   0.846   3.732
  552TIP3    H2 1614   1.963   0.711   3.697
  553TIP3   OH2 1615   6.597   2.807   3.577
  553TIP3    H1 1616   6.677   2.760   3.602
  553TIP3    H2 1617   6.547   2.814   3.658
  554TIP3   OH2 1618   1.474   0.441   0.100
  554TIP3    H1 1619   1.398   0.454   0.042
  554TIP3    H2 1620   1.480   0.523   0.149
  555TIP3   OH2 1621   5.696   5.419   1.163
  555TIP3    H1 1622   5.771   5.405   1.106
  555TIP3    H2 1623   5.703   5.350   1.229
  556TIP3   OH2 1624   1.581   3.757   0.367
  556TIP3    H1 1625   1.545   3.748   0.279
  556TIP3    H2 1626   1.504   3.770   0.423
  557TIP3   OH2 1627   0.628   6.812   2.783
  557TIP3    H1 1628   0.620   6.739   2.722
  557TIP3    H2 1629   0.567   6.878   2.749
  558TIP3   OH2 1630   3.670   0.384   0.731
  558TIP3    H1 1631   3.710   0.363   0.816
  558TIP3    H2 1632   3.705   0.318   0.671
  559TIP3   OH2 1633   4.091   1.795   4.147
  559TIP3    H1 1634   4.062   1.874   4.193
  559TIP3    H2 1635   4.035   1.725   4.181
  560TIP3   OH2 1636   3.559   4.481   2.055
  560TIP3    H1 1637   3.494   4.431   2.006
  560TIP3    H2 1638   3.550   4.571   2.024
  561TIP3   OH2 1639   5.539   7.588   0.374
  561TIP3    H1 1640   5.528   7.683   0.364
  561TIP3    H2 1641   5.485   7.566   0.450
  562TIP3   OH2 1642   1.196   2.492   3.711
  562TIP3    H1 1643   1.277   2.532   3.679
  562TIP3    H2 1644   1.225   2.430   3.777
  563TIP3   OH2 1645   5.004   2.886   3.411
  563TIP3    H1 1646   5.040   2.974   3.420
  563TIP3    H2 1647   4.925   2.898   3.358
  564TIP3   OH2 1648   5.111   7.060   6.152
  564TIP3    H1 1649   5.204   7.076   6.169
  564TIP3    H2 1650   5.067   7.136   6.188
  565TIP3   OH2 1651   3.137   2.246   3.657
  565TIP3    H1 1652   3.092   2.296   3.724
  565TIP3    H2 1653   3.219   2.294   3.642
  566TIP3   OH2 1654   6.700   1.661   5.204
  566TIP3    H1 1655   6.695   1.666   5.300
  566TIP3    H2 1656   6.639   1.590   5.181
  567TIP3   OH2 1657   0.972   3.918   4.935
  567TIP3    H1 1658   0.985   3.897   5.027
  567TIP3    H2 1659   0.919   3.998   4.935
  568TIP3   OH2 1660   0.290   3.840   6.552
  568TIP3    H1 1661   0.297   3.894   6.630
  568TIP3    H2 1662   0.235   3.766   6.579
  569TIP3   OH2 1663   2.392   7.694   4.093
  569TIP3    H1 1664   2.389   7.603   4.123
  569TIP3    H2 1665   2.439   7.690   4.010
  570TIP3   OH2 1666   2.619   5.581   4.919
  570TIP3    H1 1667   2.532   5.547   4.898
  570TIP3    H2 1668   2.679   5.526   4.868
  571TIP3   OH2 1669   3.778   7.467   5.779
  571TIP3    H1 1670   3.841   7.466   5.707
  571TIP3    H2 1671   3.712   7.531   5.753
  572TIP3   OH2 1672   4.239   3.458   2.545
  572TIP3    H1 1673   4.330   3.465   2.517
  572TIP3    H2 1674   4.235   3.376   2.595
  573TIP3   OH2 1675   7.279   4.522   2.316
  573TIP3    H1 1676   7.286   4.547   2.224
  573TIP3    H2 1677   7.188   4.495   2.327
  574TIP3   OH2 1678   2.883   5.249   2.516
  574TIP3    H1 1679   2.950   5.317   2.512
  574TIP3    H2 1680   2.862   5.242   2.609
  575TIP3   OH2 1681   0.439   3.334   2.187
  575TIP3    H1 1682   0.344   3.339   2.201
  575TIP3    H2 1683   0.448   3.297   2.099
  576TIP3   OH2 1684   0.067   7.434   0.607
  576TIP3    H1 1685   0.152   7.470   0.583
  576TIP3    H2 1686   0.021   7.422   0.524
  577TIP3   OH2 1687   7.392   0.725   2.288
  577TIP3    H1 1688   7.343   0.698   2.365
  577TIP3    H2 1689   7.482   0.697   2.304
  578TIP3   OH2 1690   1.665   3.519   4.983
  578TIP3    H1 1691   1.642   3.432   4.952
  578TIP3    H2 1692   1.741   3.545   4.930
  579TIP3   OH2 1693   8.176   3.992   6.758
  579TIP3    H1 1694   8.088   4.029   6.762
  579TIP3    H2 1695   8.176   3.939   6.678
  580TIP3   OH2 1696   0.171   3.369   1.265
  580TIP3    H1 1697   0.165   3.371   1.360
  580TIP3    H2 1698   0.221   3.289   1.246
  581TIP3   OH2 1699   6.737   0.529   0.149
  581TIP3    H1 1700   6.816   0.474   0.139
  581TIP3    H2 1701   6.712   0.550   0.059
  582TIP3   OH2 1702   7.073   3.750   1.855
  582TIP3    H1 1703   7.007   3.802   1.810
  582TIP3    H2 1704   7.064   3.774   1.948
  583TIP3   OH2 1705   3.375   5.174   3.263
  583TIP3    H1 1706   3.412   5.089   3.288
  583TIP3    H2 1707   3.328   5.157   3.182
  584TIP3   OH2 1708   3.074   7.370   6.759
  584TIP3    H1 1709   3.097   7.349   6.849
  584TIP3    H2 1710   2.990   7.416   6.765
  585TIP3   OH2 1711   0.638   4.967   4.541
  585TIP3    H1 1712   0.628   5.035   4.474
  585TIP3    H2 1713   0.687   5.010   4.611
  586TIP3   OH2 1714   5.178   0.349   6.536
  586TIP3    H1 1715   5.102   0.354   6.594
  586TIP3    H2 1716   5.163   0.417   6.470
  587TIP3   OH2 1717   3.656   2.674   4.736
  587TIP3    H1 1718   3.733   2.696   4.787
  587TIP3    H2 1719   3.657   2.734   4.662
  588TIP3   OH2 1720   1.029   7.396   1.261
  588TIP3    H1 1721   1.050   7.484   1.232
  588TIP3    H2 1722   1.011   7.405   1.355
  589TIP3   OH2 1723   2.980   7.513   1.675
  589TIP3    H1 1724   2.928   7.438   1.702
  589TIP3    H2 1725   3.066   7.498   1.714
  590TIP3   OH2 1726   3.520   0.355   3.796
  590TIP3    H1 1727   3.536   0.448   3.786
  590TIP3    H2 1728   3.551   0.316   3.714
  591TIP3   OH2 1729   5.668   1.860   5.243
  591TIP3    H1 1730   5.708   1.830   5.162
  591TIP3    H2 1731   5.741   1.883   5.300
  592TIP3   OH2 1732   1.630   2.689   1.359
  592TIP3    H1 1733   1.603   2.605   1.321
  592TIP3    H2 1734   1.630   2.750   1.285
  593TIP3   OH2 1735   6.458   3.599   0.251
  593TIP3    H1 1736   6.548   3.593   0.219
  593TIP3    H2 1737   6.430   3.508   0.260
  594TIP3   OH2 1738   7.471   4.525   6.659
  594TIP3    H1 1739   7.383   4.523   6.621
  594TIP3    H2 1740   7.457   4.506   6.752
  595TIP3   OH2 1741   4.598   1.284   6.416
  595TIP3    H1 1742   4.645   1.334   6.482
  595TIP3    H2 1743   4.602   1.193   6.447
  596TIP3   OH2 1744   6.594   6.934   0.343
  596TIP3    H1 1745   6.635   6.951   0.428
  596TIP3    H2 1746   6.663   6.891   0.292
  597TIP3   OH2 1747   7.596   6.036   3.902
  597TIP3    H1 1748   7.653   6.094   3.851
  597TIP3    H2 1749   7.516   6.030   3.850
  598TIP3   OH2 1750   2.049   2.283   3.335
  598TIP3    H1 1751   2.038   2.305   3.243
  598TIP3    H2 1752   1.969   2.234   3.357
  599TIP3   OH2 1753   0.013   4.483   3.870
  599TIP3    H1 1754   0.086   4.429   3.898
  599TIP3    H2 1755  -0.062   4.424   3.868
  600TIP3   OH2 1756   5.340   5.713   5.871
  600TIP3    H1 1757   5.343   5.764   5.952
  600TIP3    H2 1758   5.367   5.775   5.803
  601TIP3   OH2 1759   7.967   0.605   4.895
  601TIP3    H1 1760   8.006   0.535   4.948
  601TIP3    H2 1761   8.039   0.635   4.840
  602TIP3   OH2 1762   3.242   6.674   2.948
  602TIP3    H1 1763   3.186   6.726   2.891
  602TIP3    H2 1764   3.313   6.733   2.972
  603TIP3   OH2 1765   1.244   1.436   5.457
  603TIP3    H1 1766   1.315   1.498   5.474
  603TIP3    H2 1767   1.173   1.464   5.515
  604TIP3   OH2 1768   7.416   5.256   3.562
  604TIP3    H1 1769   7.481   5.273   3.630
  604TIP3    H2 1770   7.334   5.287   3.599
  605TIP3   OH2 1771   5.680   7.015   1.124
  605TIP3    H1 1772   5.729   7.086   1.082
  605TIP3    H2 1773   5.605   7.058   1.165
  606TIP3   OH2 1774   6.909   0.264   1.052
  606TIP3    H1 1775   6.828   0.313   1.066
  606TIP3    H2 1776   6.914   0.252   0.957
  607TIP3   OH2 1777   5.981   4.952   0.296
  607TIP3    H1 1778   5.914   4.917   0.237
  607TIP3    H2 1779   5.994   5.042   0.267
  608TIP3   OH2 1780   7.649   3.833   0.210
  608TIP3    H1 1781   7.634   3.801   0.299
  608TIP3    H2 1782   7.719   3.776   0.175
  609TIP3   OH2 1783   1.388   2.990   5.511
  609TIP3    H1 1784   1.326   3.000   5.583
  609TIP3    H2 1785   1.448   3.063   5.521
  610TIP3   OH2 1786   4.814   3.813   0.076
  610TIP3    H1 1787   4.896   3.783   0.038
  610TIP3    H2 1788   4.837   3.841   0.165
  611TIP3   OH2 1789   3.000   6.607   4.294
  611TIP3    H1 1790   3.070   6.562   4.341
  611TIP3    H2 1791   2.989   6.557   4.213
  612TIP3   OH2 1792   4.416   0.493   2.129
  612TIP3    H1 1793   4.412   0.440   2.208
  612TIP3    H2 1794   4.451   0.577   2.158
  613TIP3   OH2 1795   1.515   2.013   0.592
  613TIP3    H1 1796   1.459   1.936   0.585
  613TIP3    H2 1797   1.587   1.996   0.531
  614TIP3   OH2 1798   7.702   4.729   4.655
  614TIP3    H1 1799   7.751   4.810   4.640
  614TIP3    H2 1800   7.769   4.661   4.656
  615TIP3   OH2 1801   6.012   7.362   4.010
  615TIP3    H1 1802   5.992   7.281   3.964
  615TIP3    H2 1803   6.003   7.430   3.943
  616TIP3   OH2 1804   7.683   4.551   4.964
  616TIP3    H1 1805   7.674   4.505   5.047
  616TIP3    H2 1806   7.630   4.499   4.903
  617TIP3   OH2 1807   8.195   0.191   5.594
  617TIP3    H1 1808   8.171   0.107   5.555
  617TIP3    H2 1809   8.230   0.168   5.680
  618TIP3   OH2 1810   6.787   4.019   1.995
  618TIP3    H1 1811   6.763   4.101   2.038
  618TIP3    H2 1812   6.707   3.966   2.000
  619TIP3   OH2 1813   1.977   4.037   4.235
  619TIP3    H1 1814   2.065   4.075   4.247
  619TIP3    H2 1815   1.918   4.102   4.273
  620TIP3   OH2 1816   3.868   2.060   4.961
  620TIP3    H1 1817   3.881   2.143   5.007
  620TIP3    H2 1818   3.903   2.074   4.873
  621TIP3   OH2 1819   3.184   5.003   0.427
  621TIP3    H1 1820   3.229   4.929   0.388
  621TIP3    H2 1821   3.196   4.991   0.522
  622TIP3   OH2 1822   4.865   1.303   3.474
  622TIP3    H1 1823   4.905   1.321   3.389
  622TIP3    H2 1824   4.773   1.327   3.463
  623TIP3   OH2 1825   5.537   4.083   2.961
  623TIP3    H1 1826   5.472   4.013   2.970
  623TIP3    H2 1827   5.583   4.084   3.045
  624TIP3   OH2 1828   3.871   5.894   0.809
  624TIP3    H1 1829   3.812   5.969   0.801
  624TIP3    H2 1830   3.818   5.824   0.847
  625TIP3   OH2 1831   0.345   0.013   2.065
  625TIP3    H1 1832   0.346  -0.033   2.149
  625TIP3    H2 1833   0.313   0.100   2.085
  626TIP3   OH2 1834   2.817   1.660   5.048
  626TIP3    H1 1835   2.781   1.653   5.136
  626TIP3    H2 1836   2.898   1.609   5.050
  627TIP3   OH2 1837   0.901   2.901   5.806
  627TIP3    H1 1838   0.934   2.989   5.826
  627TIP3    H2 1839   0.921   2.850   5.885
  628TIP3   OH2 1840   0.928   0.334   0.831
  628TIP3    H1 1841   0.963   0.290   0.753
  628TIP3    H2 1842   0.993   0.316   0.899
  629TIP3   OH2 1843   1.481   7.085   2.150
  629TIP3    H1 1844   1.565   7.131   2.154
  629TIP3    H2 1845   1.426   7.140   2.095
  630TIP3   OH2 1846   0.037   2.677   5.349
  630TIP3    H1 1847   0.052   2.592   5.390
  630TIP3    H2 1848   0.119   2.697   5.305
  631TIP3   OH2 1849   4.551   6.509   5.430
  631TIP3    H1 1850   4.547   6.600   5.459
  631TIP3    H2 1851   4.462   6.491   5.398
  632TIP3   OH2 1852   5.853   5.010   6.192
  632TIP3    H1 1853   5.944   5.038   6.203
  632TIP3    H2 1854   5.806   5.052   6.263
  633TIP3   OH2 1855   7.443   5.175   5.973
  633TIP3    H1 1856   7.474   5.088   5.997
  633TIP3    H2 1857   7.355   5.161   5.939
  634TIP3   OH2 1858   8.008   7.010   2.896
  634TIP3    H1 1859   8.004   6.989   2.802
  634TIP3    H2 1860   8.058   7.092   2.900
  635TIP3   OH2 1861   6.775   5.845   4.960
  635TIP3    H1 1862   6.836   5.807   5.023
  635TIP3    H2 1863   6.829   5.871   4.886
  636TIP3   OH2 1864   0.744   0.175   4.331
  636TIP3    H1 1865   0.681   0.243   4.354
  636TIP3    H2 1866   0.705   0.094   4.363
  637TIP3   OH2 1867   1.381   6.145   3.281
  637TIP3    H1 1868   1.373   6.109   3.369
  637TIP3    H2 1869   1.347   6.234   3.288
  638TIP3   OH2 1870   1.962   7.584   3.912
  638TIP3    H1 1871   1.926   7.592   3.824
  638TIP3    H2 1872   2.018   7.507   3.909
  639TIP3   OH2 1873   1.885   6.034   1.378
  639TIP3    H1 1874   1.810   6.001   1.327
  639TIP3    H2 1875   1.879   6.129   1.370
  640TIP3   OH2 1876   1.349   4.920   3.170
  640TIP3    H1 1877   1.287   4.986   3.202
  640TIP3    H2 1878   1.426   4.970   3.144
  641TIP3   OH2 1879   5.491   5.939   1.019
  641TIP3    H1 1880   5.409   5.984   1.038
  641TIP3    H2 1881   5.513   5.895   1.101
  642TIP3   OH2 1882   7.164   2.845   3.564
  642TIP3    H1 1883   7.126   2.801   3.640
  642TIP3    H2 1884   7.123   2.803   3.489
  643TIP3   OH2 1885   3.256   5.862   6.306
  643TIP3    H1 1886   3.333   5.917   6.294
  643TIP3    H2 1887   3.206   5.905   6.375
  644TIP3   OH2 1888   3.545   5.627   6.485
  644TIP3    H1 1889   3.630   5.608   6.445
  644TIP3    H2 1890   3.484   5.625   6.411
  645TIP3   OH2 1891   3.441   3.924   3.431
  645TIP3    H1 1892   3.410   3.853   3.374
  645TIP3    H2 1893   3.443   3.884   3.519
  646TIP3   OH2 1894   0.149   0.619   6.066
  646TIP3    H1 1895   0.193   0.614   6.151
  646TIP3    H2 1896   0.057   0.600   6.085
  647TIP3   OH2 1897   2.318   6.072   1.384
  647TIP3    H1 1898   2.236   6.079   1.433
  647TIP3    H2 1899   2.327   5.978   1.365
  648TIP3   OH2 1900   6.285   2.569   2.642
  648TIP3    H1 1901   6.198   2.557   2.678
  648TIP3    H2 1902   6.301   2.490   2.590
  649TIP3   OH2 1903   2.111   6.822   3.653
  649TIP3    H1 1904   2.146   6.862   3.733
  649TIP3    H2 1905   2.016   6.826   3.664
  650TIP3   OH2 1906   0.095   6.654   5.117
  650TIP3    H1 1907   0.187   6.640   5.092
  650TIP3    H2 1908   0.098   6.663   5.212
  651TIP3   OH2 1909   4.731   5.004   4.857
  651TIP3    H1 1910   4.818   5.017   4.818
  651TIP3    H2 1911   4.686   5.087   4.843
  652TIP3   OH2 1912   0.039   0.342   0.898
  652TIP3    H1 1913   0.108   0.397   0.934
  652TIP3    H2 1914  -0.038   0.362   0.951
  653TIP3   OH2 1915   0.599   2.749   4.130
  653TIP3    H1 1916   0.544   2.733   4.053
  653TIP3    H2 1917   0.571   2.682   4.193
  654TIP3   OH2 1918   5.371   1.962   6.622
  654TIP3    H1 1919   5.334   2.019   6.555
  654TIP3    H2 1920   5.314   1.885   6.621
  655TIP3   OH2 1921   7.420   0.200   2.100
  655TIP3    H1 1922   7.345   0.255   2.123
  655TIP3    H2 1923   7.483   0.261   2.062
  656TIP3   OH2 1924   4.405   4.645   5.376
  656TIP3    H1 1925   4.434   4.692   5.454
  656TIP3    H2 1926   4.413   4.709   5.305
  657TIP3   OH2 1927   7.414   0.603   0.442
  657TIP3    H1 1928   7.458   0.531   0.487
  657TIP3    H2 1929   7.474   0.677   0.453
  658TIP3   OH2 1930   7.577   1.876   6.761
  658TIP3    H1 1931   7.663   1.854   6.798
  658TIP3    H2 1932   7.553   1.798   6.712
  659TIP3   OH2 1933   6.879   1.432   0.911
  659TIP3    H1 1934   6.802   1.409   0.860
  659TIP3    H2 1935   6.899   1.354   0.962
  660TIP3   OH2 1936   6.173   7.710   5.117
  660TIP3    H1 1937   6.259   7.692   5.080
  660TIP3    H2 1938   6.172   7.806   5.127
  661TIP3   OH2 1939   7.847   3.257   6.196
  661TIP3    H1 1940   7.916   3.225   6.137
  661TIP3    H2 1941   7.891   3.268   6.280
  662TIP3   OH2 1942   2.652   7.025   5.963
  662TIP3    H1 1943   2.627   7.053   6.051
  662TIP3    H2 1944   2.569   7.019   5.915
  663TIP3   OH2 1945   1.968   0.712   5.053
  663TIP3    H1 1946   1.886   0.759   5.065
  663TIP3    H2 1947   1.960   0.671   4.967
  664TIP3   OH2 1948   5.970   3.831   4.897
  664TIP3    H1 1949   6.061   3.853   4.875
  664TIP3    H2 1950   5.973   3.739   4.922
  665TIP3   OH2 1951   3.796   2.053   3.327
  665TIP3    H1 1952   3.787   2.125   3.390
  665TIP3    H2 1953   3.870   2.079   3.272
  666TIP3   OH2 1954   8.016   0.771   1.739
  666TIP3    H1 1955   7.986   0.819   1.816
  666TIP3    H2 1956   7.949   0.788   1.672
  667TIP3   OH2 1957   2.371   3.127   4.231
  667TIP3    H1 1958   2.365   3.071   4.309
  667TIP3    H2 1959   2.283   3.165   4.222
  668TIP3   OH2 1960   7.934   2.880   1.083
  668TIP3    H1 1961   7.890   2.941   1.143
  668TIP3    H2 1962   8.004   2.932   1.045
  669TIP3   OH2 1963   6.400   5.130   3.970
  669TIP3    H1 1964   6.473   5.159   3.916
  669TIP3    H2 1965   6.349   5.209   3.986
  670TIP3   OH2 1966   7.051   5.356   5.968
  670TIP3    H1 1967   7.031   5.337   6.060
  670TIP3    H2 1968   7.147   5.360   5.965
  671TIP3   OH2 1969   1.301   2.310   3.454
  671TIP3    H1 1970   1.315   2.353   3.369
  671TIP3    H2 1971   1.232   2.361   3.496
  672TIP3   OH2 1972   5.826   4.556   4.928
  672TIP3    H1 1973   5.795   4.471   4.897
  672TIP3    H2 1974   5.863   4.538   5.015
  673TIP3   OH2 1975   4.868   1.737   6.556
  673TIP3    H1 1976   4.836   1.803   6.618
  673TIP3    H2 1977   4.843   1.770   6.470
  674TIP3   OH2 1978   5.006   7.242   2.330
  674TIP3    H1 1979   5.011   7.306   2.258
  674TIP3    H2 1980   5.011   7.296   2.409
  675TIP3   OH2 1981   4.817   0.185   3.435
  675TIP3    H1 1982   4.758   0.235   3.379
  675TIP3    H2 1983   4.838   0.106   3.385
  676TIP3   OH2 1984   3.321   5.685   5.833
  676TIP3    H1 1985   3.231   5.716   5.845
  676TIP3    H2 1986   3.326   5.604   5.883
  677TIP3   OH2 1987   4.058   0.761   1.946
  677TIP3    H1 1988   4.087   0.694   2.008
  677TIP3    H2 1989   4.015   0.827   2.001
  678TIP3   OH2 1990   5.742   0.357   4.872
  678TIP3    H1 1991   5.721   0.448   4.849
  678TIP3    H2 1992   5.724   0.351   4.966
  679TIP3   OH2 1993   3.888   5.430   4.844
  679TIP3    H1 1994   3.793   5.436   4.835
  679TIP3    H2 1995   3.917   5.393   4.760
  680TIP3   OH2 1996   2.319   4.844   5.356
  680TIP3    H1 1997   2.409   4.860   5.384
  680TIP3    H2 1998   2.265   4.884   5.424
  681TIP3   OH2 1999   1.897   7.620   1.476
  681TIP3    H1 2000   1.882   7.552   1.542
  681TIP3    H2 2001   1.981   7.597   1.437
  682TIP3   OH2 2002   2.864   2.471   3.573
  682TIP3    H1 2003   2.930   2.478   3.643
  682TIP3    H2 2004   2.782   2.455   3.620
  683TIP3   OH2 2005   4.786   2.117   6.321
  683TIP3    H1 2006   4.806   2.151   6.234
  683TIP3    H2 2007   4.774   2.023   6.309
  684TIP3   OH2 2008   3.220   0.689   3.424
  684TIP3    H1 2009   3.229   0.713   3.332
  684TIP3    H2 2010   3.142   0.633   3.427
  685TIP3   OH2 2011   1.881   5.277   1.600
  685TIP3    H1 2012   1.787   5.296   1.604
  685TIP3    H2 2013   1.899   5.224   1.677
  686TIP3   OH2 2014   4.040   5.693   3.551
  686TIP3    H1 2015   4.066   5.607   3.584
  686TIP3    H2 2016   4.119   5.728   3.509
  687TIP3   OH2 2017   1.089   3.189   4.991
  687TIP3    H1 2018   1.028   3.195   4.917
  687TIP3    H2 2019   1.127   3.277   4.997
  688TIP3   OH2 2020   5.519   4.386   6.580
  688TIP3    H1 2021   5.597   4.340   6.610
  688TIP3    H2 2022   5.551   4.469   6.546
  689TIP3   OH2 2023   4.117   4.830   4.600
  689TIP3    H1 2024   4.077   4.890   4.662
  689TIP3    H2 2025   4.121   4.879   4.518
  690TIP3   OH2 2026   6.243   5.257   4.371
  690TIP3    H1 2027   6.193   5.202   4.310
  690TIP3    H2 2028   6.279   5.194   4.434
  691TIP3   OH2 2029   1.579   1.824   2.095
  691TIP3    H1 2030   1.507   1.798   2.153
  691TIP3    H2 2031   1.541   1.887   2.034
  692TIP3   OH2 2032   0.131   3.308   3.025
  692TIP3    H1 2033   0.166   3.379   3.079
  692TIP3    H2 2034   0.099   3.353   2.946
  693TIP3   OH2 2035   0.540   1.357   0.776
  693TIP3    H1 2036   0.505   1.268   0.774
  693TIP3    H2 2037   0.554   1.375   0.869
  694TIP3   OH2 2038   7.224   7.499   1.227
  694TIP3    H1 2039   7.255   7.535   1.310
  694TIP3    H2 2040   7.163   7.565   1.194
  695TIP3   OH2 2041   0.867   7.757   4.275
  695TIP3    H1 2042   0.889   7.833   4.221
  695TIP3    H2 2043   0.789   7.720   4.233
  696TIP3   OH2 2044   2.749   5.487   6.566
  696TIP3    H1 2045   2.704   5.424   6.510
  696TIP3    H2 2046   2.839   5.490   6.532
  697TIP3   OH2 2047   1.240   5.342   4.056
  697TIP3    H1 2048   1.145   5.331   4.053
  697TIP3    H2 2049   1.253   5.428   4.095
  698TIP3   OH2 2050   7.361   2.092   4.747
  698TIP3    H1 2051   7.309   2.043   4.810
  698TIP3    H2 2052   7.298   2.152   4.706
  699TIP3   OH2 2053   8.083   0.696   4.600
  699TIP3    H1 2054   7.992   0.668   4.584
  699TIP3    H2 2055   8.133   0.660   4.527
  700TIP3   OH2 2056   6.424   0.691   4.134
  700TIP3    H1 2057   6.513   0.682   4.167
  700TIP3    H2 2058   6.420   0.780   4.098
  701TIP3   OH2 2059   6.811   5.990   2.942
  701TIP3    H1 2060   6.817   5.911   2.888
  701TIP3    H2 2061   6.811   5.957   3.032
  702TIP3   OH2 2062   4.114   3.271   0.904
  702TIP3    H1 2063   4.095   3.326   0.980
  702TIP3    H2 2064   4.209   3.275   0.895
  703TIP3   OH2 2065   7.667   4.330   6.611
  703TIP3    H1 2066   7.623   4.379   6.681
  703TIP3    H2 2067   7.691   4.247   6.652
  704TIP3   OH2 2068   6.705   0.007   0.050
  704TIP3    H1 2069   6.683   0.045  -0.035
  704TIP3    H2 2070   6.703   0.081   0.111
  705TIP3   OH2 2071   0.384   7.022   1.233
  705TIP3    H1 2072   0.358   7.057   1.319
  705TIP3    H2 2073   0.325   7.066   1.171
  706TIP3   OH2 2074   4.544   2.135   4.738
  706TIP3    H1 2075   4.448   2.142   4.732
  706TIP3    H2 2076   4.568   2.195   4.809
  707TIP3   OH2 2077   8.265   0.649   3.582
  707TIP3    H1 2078   8.240   0.605   3.663
  707TIP3    H2 2079   8.352   0.684   3.599
  708TIP3   OH2 2080   6.911   6.185   5.594
  708TIP3    H1 2081   6.982   6.193   5.657
  708TIP3    H2 2082   6.940   6.116   5.533
  709TIP3   OH2 2083   3.744   4.863   4.934
  709TIP3    H1 2084   3.699   4.792   4.980
  709TIP3    H2 2085   3.814   4.819   4.884
  710TIP3   OH2 2086   0.895   6.598   3.816
  710TIP3    H1 2087   0.984   6.590   3.779
  710TIP3    H2 2088   0.895   6.538   3.891
  711TIP3   OH2 2089   7.578   1.369   3.477
  711TIP3    H1 2090   7.537   1.372   3.390
  711TIP3    H2 2091   7.639   1.296   3.472
  712TIP3   OH2 2092   6.456   2.929   4.390
  712TIP3    H1 2093   6.427   2.839   4.404
  712TIP3    H2 2094   6.375   2.978   4.373
  713TIP3   OH2 2095   6.815   2.513   5.599
  713TIP3    H1 2096   6.798   2.522   5.693
  713TIP3    H2 2097   6.816   2.418   5.583
  714TIP3   OH2 2098   3.874   5.645   5.631
  714TIP3    H1 2099   3.891   5.715   5.694
  714TIP3    H2 2100   3.796   5.601   5.666
  715TIP3   OH2 2101   2.775   5.491   4.327
  715TIP3    H1 2102   2.763   5.574   4.373
  715TIP3    H2 2103   2.739   5.425   4.387
  716TIP3   OH2 2104   1.468   2.650   5.855
  716TIP3    H1 2105   1.513   2.580   5.808
  716TIP3    H2 2106   1.392   2.669   5.800
  717TIP3   OH2 2107   8.100   7.066   3.169
  717TIP3    H1 2108   8.142   7.112   3.096
  717TIP3    H2 2109   8.020   7.116   3.185
  718TIP3   OH2 2110   6.380   3.636   1.868
  718TIP3    H1 2111   6.328   3.601   1.796
  718TIP3    H2 2112   6.424   3.560   1.906
  719TIP3   OH2 2113   7.217   3.696   2.497
  719TIP3    H1 2114   7.272   3.640   2.551
  719TIP3    H2 2115   7.229   3.663   2.408
  720TIP3   OH2 2116   7.531   7.159   1.703
  720TIP3    H1 2117   7.472   7.107   1.758
  720TIP3    H2 2118   7.479   7.235   1.677
  721TIP3   OH2 2119   7.509   0.777   0.764
  721TIP3    H1 2120   7.501   0.827   0.845
  721TIP3    H2 2121   7.603   0.763   0.753
  722TIP3   OH2 2122   7.436   2.833   3.355
  722TIP3    H1 2123   7.353   2.862   3.318
  722TIP3    H2 2124   7.419   2.823   3.448
  723TIP3   OH2 2125   1.109   2.117   6.202
  723TIP3    H1 2126   1.094   2.146   6.112
  723TIP3    H2 2127   1.046   2.167   6.254
  724TIP3   OH2 2128   1.911   3.462   0.403
  724TIP3    H1 2129   1.845   3.510   0.453
  724TIP3    H2 2130   1.896   3.370   0.424
  725TIP3   OH2 2131   6.503   3.662   5.495
  725TIP3    H1 2132   6.569   3.606   5.454
  725TIP3    H2 2133   6.523   3.750   5.463
  726TIP3   OH2 2134   4.133   6.757   3.203
  726TIP3    H1 2135   4.218   6.776   3.242
  726TIP3    H2 2136   4.089   6.701   3.267
  727TIP3   OH2 2137   8.023   2.499   5.826
  727TIP3    H1 2138   8.063   2.476   5.742
  727TIP3    H2 2139   7.978   2.582   5.810
  728TIP3   OH2 2140   7.702   4.854   3.332
  728TIP3    H1 2141   7.792   4.853   3.364
  728TIP3    H2 2142   7.674   4.945   3.339
  729TIP3   OH2 2143   0.398   2.935   1.496
  729TIP3    H1 2144   0.352   2.881   1.560
  729TIP3    H2 2145   0.385   2.890   1.413
  730TIP3   OH2 2146   4.818   4.359   1.354
  730TIP3    H1 2147   4.758   4.433   1.351
  730TIP3    H2 2148   4.902   4.394   1.325
  731TIP3   OH2 2149   6.635   0.179   2.104
  731TIP3    H1 2150   6.638   0.125   2.025
  731TIP3    H2 2151   6.660   0.266   2.074
  732TIP3   OH2 2152   2.112   3.619   5.834
  732TIP3    H1 2153   2.087   3.587   5.921
  732TIP3    H2 2154   2.040   3.677   5.809
  733TIP3   OH2 2155   7.491   2.208   2.492
  733TIP3    H1 2156   7.434   2.180   2.563
  733TIP3    H2 2157   7.431   2.248   2.428
  734TIP3   OH2 2158   5.178   0.116   2.696
  734TIP3    H1 2159   5.235   0.192   2.681
  734TIP3    H2 2160   5.220   0.069   2.769
  735TIP3   OH2 2161   3.390   5.948   1.814
  735TIP3    H1 2162   3.387   6.028   1.761
  735TIP3    H2 2163   3.409   5.979   1.903
  736TIP3   OH2 2164   6.535   4.053   6.468
  736TIP3    H1 2165   6.585   4.120   6.421
  736TIP3    H2 2166   6.451   4.094   6.485
  737TIP3   OH2 2167   7.014   6.399   3.048
  737TIP3    H1 2168   7.087   6.338   3.060
  737TIP3    H2 2169   7.031   6.439   2.963
  738TIP3   OH2 2170   7.833   5.027   4.150
  738TIP3    H1 2171   7.866   5.003   4.063
  738TIP3    H2 2172   7.888   5.101   4.176
  739TIP3   OH2 2173   6.769   4.104   3.503
  739TIP3    H1 2174   6.795   4.019   3.470
  739TIP3    H2 2175   6.714   4.085   3.579
  740TIP3   OH2 2176   8.128   7.691   2.142
  740TIP3    H1 2177   8.215   7.660   2.117
  740TIP3    H2 2178   8.068   7.643   2.085
  741TIP3   OH2 2179   2.526   1.427   3.601
  741TIP3    H1 2180   2.567   1.361   3.658
  741TIP3    H2 2181   2.598   1.485   3.577
  742TIP3   OH2 2182   7.420   0.597   2.035
  742TIP3    H1 2183   7.366   0.532   2.082
  742TIP3    H2 2184   7.439   0.664   2.101
  743TIP3   OH2 2185   0.614   4.280   3.374
  743TIP3    H1 2186   0.524   4.302   3.397
  743TIP3    H2 2187   0.668   4.323   3.440
  744TIP3   OH2 2188   2.987   5.396   6.479
  744TIP3    H1 2189   3.025   5.367   6.396
  744TIP3    H2 2190   2.983   5.317   6.533
  745TIP3   OH2 2191   1.972   4.735   4.596
  745TIP3    H1 2192   2.016   4.653   4.621
  745TIP3    H2 2193   1.883   4.725   4.629
  746TIP3   OH2 2194   1.303   4.934   1.516
  746TIP3    H1 2195   1.334   4.849   1.487
  746TIP3    H2 2196   1.219   4.946   1.471
  747TIP3   OH2 2197   3.494   6.026   5.114
  747TIP3    H1 2198   3.568   5.970   5.138
  747TIP3    H2 2199   3.417   5.975   5.140
  748TIP3   OH2 2200   7.331   1.082   2.815
  748TIP3    H1 2201   7.316   1.066   2.721
  748TIP3    H2 2202   7.380   1.005   2.844
  749TIP3   OH2 2203   8.061   1.283   2.283
  749TIP3    H1 2204   8.025   1.346   2.346
  749TIP3    H2 2205   8.019   1.306   2.200
  750TIP3   OH2 2206   0.490   5.500   0.602
  750TIP3    H1 2207   0.513   5.412   0.633
  750TIP3    H2 2208   0.574   5.539   0.577
  751TIP3   OH2 2209   2.412   7.352   2.637
  751TIP3    H1 2210   2.356   7.374   2.562
  751TIP3    H2 2211   2.497   7.392   2.616
  752TIP3   OH2 2212   4.468   6.070   2.019
  752TIP3    H1 2213   4.375   6.050   2.033
  752TIP3    H2 2214   4.515   5.995   2.055
  753TIP3   OH2 2215   6.970   5.088   4.404
  753TIP3    H1 2216   6.984   5.181   4.385
  753TIP3    H2 2217   6.944   5.049   4.321
  754TIP3   OH2 2218   2.106   6.987   5.936
  754TIP3    H1 2219   2.122   7.060   5.876
  754TIP3    H2 2220   2.175   6.995   6.002
  755TIP3   OH2 2221   4.676   7.173   3.375
  755TIP3    H1 2222   4.705   7.097   3.324
  755TIP3    H2 2223   4.691   7.147   3.466
  756TIP3   OH2 2224   7.263   0.673   5.144
  756TIP3    H1 2225   7.347   0.716   5.126
  756TIP3    H2 2226   7.229   0.717   5.222
  757TIP3   OH2 2227   7.197   1.008   4.316
  757TIP3    H1 2228   7.261   0.982   4.249
  757TIP3    H2 2229   7.241   0.991   4.399
  758TIP3   OH2 2230   3.209   4.838   1.636
  758TIP3    H1 2231   3.146   4.846   1.707
  758TIP3    H2 2232   3.295   4.846   1.679
  759TIP3   OH2 2233   1.124   6.082   1.997
  759TIP3    H1 2234   1.068   6.152   1.964
  759TIP3    H2 2235   1.207   6.126   2.017
  760TIP3   OH2 2236   6.570   5.194   3.552
  760TIP3    H1 2237   6.543   5.131   3.485
  760TIP3    H2 2238   6.602   5.270   3.503
  761TIP3   OH2 2239   8.347   0.184   2.631
  761TIP3    H1 2240   8.368   0.178   2.724
  761TIP3    H2 2241   8.257   0.155   2.624
  762TIP3   OH2 2242   0.677   0.501   0.112
  762TIP3    H1 2243   0.635   0.496   0.198
  762TIP3    H2 2244   0.710   0.591   0.107
  763TIP3   OH2 2245   0.911   6.595   4.965
  763TIP3    H1 2246   0.929   6.608   4.872
  763TIP3    H2 2247   0.995   6.612   5.008
  764TIP3   OH2 2248   0.294   4.455   3.104
  764TIP3    H1 2249   0.232   4.458   3.031
  764TIP3    H2 2250   0.351   4.381   3.084
  765TIP3   OH2 2251   3.638   1.999   3.077
  765TIP3    H1 2252   3.682   1.916   3.064
  765TIP3    H2 2253   3.707   2.065   3.073
  766TIP3   OH2 2254   7.651   5.050   0.521
  766TIP3    H1 2255   7.572   5.104   0.517
  766TIP3    H2 2256   7.707   5.083   0.451
  767TIP3   OH2 2257   5.785   7.061   0.761
  767TIP3    H1 2258   5.867   7.110   0.750
  767TIP3    H2 2259   5.813   6.971   0.775
  768TIP3   OH2 2260   2.503   2.166   2.218
  768TIP3    H1 2261   2.500   2.261   2.222
  768TIP3    H2 2262   2.524   2.146   2.127
  769TIP3   OH2 2263   2.561   2.084   5.042
  769TIP3    H1 2264   2.564   2.179   5.046
  769TIP3    H2 2265   2.491   2.059   5.101
  770TIP3   OH2 2266   0.850   4.599   2.180
  770TIP3    H1 2267   0.808   4.514   2.199
  770TIP3    H2 2268   0.943   4.583   2.198
  771TIP3   OH2 2269   3.051   2.527   5.352
  771TIP3    H1 2270   2.997   2.564   5.422
  771TIP3    H2 2271   3.025   2.435   5.348
  772TIP3   OH2 2272   4.119   4.080   3.639
  772TIP3    H1 2273   4.072   4.049   3.716
  772TIP3    H2 2274   4.052   4.091   3.572
  773TIP3   OH2 2275   2.798   0.460   4.771
  773TIP3    H1 2276   2.808   0.390   4.835
  773TIP3    H2 2277   2.810   0.540   4.821
  774TIP3   OH2 2278   7.302   6.066   3.764
  774TIP3    H1 2279   7.244   5.994   3.789
  774TIP3    H2 2280   7.309   6.119   3.844
  775TIP3   OH2 2281   1.696   6.426   3.473
  775TIP3    H1 2282   1.620   6.483   3.481
  775TIP3    H2 2283   1.704   6.384   3.559
  776TIP3   OH2 2284   7.347   1.765   1.308
  776TIP3    H1 2285   7.402   1.716   1.247
  776TIP3    H2 2286   7.302   1.697   1.359
  777TIP3   OH2 2287   6.923   7.143   0.765
  777TIP3    H1 2288   6.887   7.168   0.680
  777TIP3    H2 2289   6.972   7.062   0.748
  778TIP3   OH2 2290   7.175   1.151   5.630
  778TIP3    H1 2291   7.219   1.207   5.565
  778TIP3    H2 2292   7.205   1.063   5.609
  779TIP3   OH2 2293   1.197   7.660   5.533
  779TIP3    H1 2294   1.208   7.646   5.439
  779TIP3    H2 2295   1.109   7.628   5.552
  780TIP3   OH2 2296   6.145   0.854   3.600
  780TIP3    H1 2297   6.054   0.842   3.572
  780TIP3    H2 2298   6.183   0.766   3.596
  781TIP3   OH2 2299   7.130   0.966   5.046
  781TIP3    H1 2300   7.142   0.871   5.044
  781TIP3    H2 2301   7.218   1.002   5.054
  782TIP3   OH2 2302   4.110   1.773   3.343
  782TIP3    H1 2303   4.131   1.684   3.369
  782TIP3    H2 2304   4.115   1.773   3.247
  783TIP3   OH2 2305   3.720   2.967   2.233
  783TIP3    H1 2306   3.655   2.897   2.224
  783TIP3    H2 2307   3.730   3.001   2.144
  784TIP3   OH2 2308   5.780   5.241   1.377
  784TIP3    H1 2309   5.785   5.310   1.442
  784TIP3    H2 2310   5.852   5.182   1.399
  785TIP3   OH2 2311   1.722   5.500   2.988
  785TIP3    H1 2312   1.700   5.469   3.075
  785TIP3    H2 2313   1.792   5.442   2.958
  786TIP3   OH2 2314   7.874   5.550   0.588
  786TIP3    H1 2315   7.922   5.563   0.670
  786TIP3    H2 2316   7.807   5.619   0.587
  787TIP3   OH2 2317   7.279   2.730   4.969
  787TIP3    H1 2318   7.230   2.750   5.049
  787TIP3    H2 2319   7.212   2.723   4.901
  788TIP3   OH2 2320   0.259   6.749   4.305
  788TIP3    H1 2321   0.163   6.747   4.307
  788TIP3    H2 2322   0.285   6.660   4.327
  789TIP3   OH2 2323   2.706   6.830   4.645
  789TIP3    H1 2324   2.643   6.899   4.624
  789TIP3    H2 2325   2.655   6.764   4.693
  790TIP3   OH2 2326   0.947   1.270   2.560
  790TIP3    H1 2327   0.899   1.218   2.624
  790TIP3    H2 2328   0.895   1.350   2.550
  791TIP3   OH2 2329   4.654   4.273   4.672
  791TIP3    H1 2330   4.596   4.289   4.598
  791TIP3    H2 2331   4.615   4.324   4.744
  792TIP3   OH2 2332   0.736   1.464   3.623
  792TIP3    H1 2333   0.792   1.407   3.570
  792TIP3    H2 2334   0.775   1.551   3.613
  793TIP3   OH2 2335   7.685   2.582   2.322
  793TIP3    H1 2336   7.592   2.576   2.299
  793TIP3    H2 2337   7.729   2.605   2.241
  794TIP3   OH2 2338   3.107   4.936   0.717
  794TIP3    H1 2339   3.178   4.877   0.742
  794TIP3    H2 2340   3.080   4.977   0.799
  795TIP3   OH2 2341   5.286   1.374   5.040
  795TIP3    H1 2342   5.247   1.287   5.031
  795TIP3    H2 2343   5.351   1.364   5.109
  796TIP3   OH2 2344   5.044   4.798   1.383
  796TIP3    H1 2345   5.132   4.766   1.363
  796TIP3    H2 2346   5.039   4.797   1.478
  797TIP3   OH2 2347   3.942   7.382   5.079
  797TIP3    H1 2348   3.978   7.362   4.993
  797TIP3    H2 2349   3.881   7.454   5.063
  798TIP3   OH2 2350   1.513   7.280   6.628
  798TIP3    H1 2351   1.598   7.314   6.656
  798TIP3    H2 2352   1.451   7.318   6.689
  799TIP3   OH2 2353   7.682   5.738   0.824
  799TIP3    H1 2354   7.655   5.748   0.733
  799TIP3    H2 2355   7.668   5.824   0.863
  800TIP3   OH2 2356   5.013   0.103   0.814
  800TIP3    H1 2357   4.978   0.140   0.733
  800TIP3    H2 2358   5.043   0.179   0.864
  801TIP3   OH2 2359   6.609   2.905   4.688
  801TIP3    H1 2360   6.532   2.869   4.645
  801TIP3    H2 2361   6.614   2.859   4.771
  802TIP3   OH2 2362   6.693   5.781   6.683
  802TIP3    H1 2363   6.776   5.771   6.729
  802TIP3    H2 2364   6.626   5.757   6.748
  803TIP3   OH2 2365   4.866   7.331   1.651
  803TIP3    H1 2366   4.811   7.279   1.709
  803TIP3    H2 2367   4.883   7.412   1.699
  804TIP3   OH2 2368   2.380   5.814   1.490
  804TIP3    H1 2369   2.316   5.787   1.556
  804TIP3    H2 2370   2.444   5.867   1.538
  805TIP3   OH2 2371   6.128   0.607   3.362
  805TIP3    H1 2372   6.179   0.606   3.443
  805TIP3    H2 2373   6.163   0.681   3.313
  806TIP3   OH2 2374   8.097   0.895   6.204
  806TIP3    H1 2375   8.039   0.827   6.168
  806TIP3    H2 2376   8.043   0.942   6.267
  807TIP3   OH2 2377   4.020   6.109   0.406
  807TIP3    H1 2378   3.969   6.127   0.327
  807TIP3    H2 2379   3.956   6.111   0.477
  808TIP3   OH2 2380   7.700   1.702   2.547
  808TIP3    H1 2381   7.605   1.714   2.552
  808TIP3    H2 2382   7.733   1.788   2.520
  809TIP3   OH2 2383   3.637   0.832   6.060
  809TIP3    H1 2384   3.695   0.757   6.049
  809TIP3    H2 2385   3.553   0.793   6.086
  810TIP3   OH2 2386   6.617   7.677   3.111
  810TIP3    H1 2387   6.662   7.684   3.026
  810TIP3    H2 2388   6.596   7.583   3.119
  811TIP3   OH2 2389   2.495   7.040   1.687
  811TIP3    H1 2390   2.533   7.013   1.770
  811TIP3    H2 2391   2.435   7.112   1.710
  812TIP3   OH2 2392   5.069   6.707   3.563
  812TIP3    H1 2393   5.100   6.749   3.644
  812TIP3    H2 2394   5.108   6.759   3.493
  813TIP3   OH2 2395   7.850   0.529   0.707
  813TIP3    H1 2396   7.860   0.525   0.802
  813TIP3    H2 2397   7.833   0.621   0.689
  814TIP3   OH2 2398   7.613   5.351   0.051
  814TIP3    H1 2399   7.553   5.406   0.100
  814TIP3    H2 2400   7.680   5.324   0.114
  815TIP3   OH2 2401   1.599   6.040   0.431
  815TIP3    H1 2402   1.576   5.980   0.360
  815TIP3    H2 2403   1.680   6.005   0.467
  816TIP3   OH2 2404   7.857   0.780   4.042
  816TIP3    H1 2405   7.925   0.770   3.976
  816TIP3    H2 2406   7.795   0.709   4.025
  817TIP3   OH2 2407   0.963   1.004   0.193
  817TIP3    H1 2408   0.960   1.093   0.158
  817TIP3    H2 2409   0.953   0.948   0.116
  818TIP3   OH2 2410   5.933   5.806   3.691
  818TIP3    H1 2411   5.948   5.896   3.720
  818TIP3    H2 2412   5.950   5.808   3.597
  819TIP3   OH2 2413   3.364   4.956   5.516
  819TIP3    H1 2414   3.273   4.937   5.495
  819TIP3    H2 2415   3.388   5.029   5.458
  820TIP3   OH2 2416   5.282   6.103   0.314
  820TIP3    H1 2417   5.268   6.159   0.390
  820TIP3    H2 2418   5.211   6.039   0.317
  821TIP3   OH2 2419   6.512   4.128   5.147
  821TIP3    H1 2420   6.461   4.199   5.109
  821TIP3    H2 2421   6.567   4.097   5.075
  822TIP3   OH2 2422   0.080   1.212   5.253
  822TIP3    H1 2423   0.054   1.303   5.240
  822TIP3    H2 2424   0.159   1.202   5.200
  823TIP3   OH2 2425   0.246   1.195   3.448
  823TIP3    H1 2426   0.169   1.237   3.485
  823TIP3    H2 2427   0.312   1.199   3.517
  824TIP3   OH2 2428   0.876   0.505   0.441
  824TIP3    H1 2429   0.837   0.581   0.485
  824TIP3    H2 2430   0.967   0.504   0.470
  825TIP3   OH2 2431   2.089   4.581   0.865
  825TIP3    H1 2432   2.014   4.523   0.871
  825TIP3    H2 2433   2.148   4.552   0.935
  826TIP3   OH2 2434   2.406   5.443   4.055
  826TIP3    H1 2435   2.410   5.359   4.101
  826TIP3    H2 2436   2.342   5.494   4.104
  827TIP3   OH2 2437   0.137   6.909   1.216
  827TIP3    H1 2438   0.205   6.927   1.151
  827TIP3    H2 2439   0.145   6.981   1.280
  828TIP3   OH2 2440   5.534   4.704   6.647
  828TIP3    H1 2441   5.451   4.713   6.599
  828TIP3    H2 2442   5.587   4.777   6.617
  829TIP3   OH2 2443   4.274   5.305   0.819
  829TIP3    H1 2444   4.356   5.319   0.865
  829TIP3    H2 2445   4.247   5.216   0.843
  830TIP3   OH2 2446   6.963   1.115   5.210
  830TIP3    H1 2447   6.889   1.056   5.225
  830TIP3    H2 2448   7.021   1.067   5.152
  831TIP3   OH2 2449   5.640   6.421   1.357
  831TIP3    H1 2450   5.719   6.465   1.325
  831TIP3    H2 2451   5.621   6.355   1.290
  832TIP3   OH2 2452   1.661   1.447   3.075
  832TIP3    H1 2453   1.722   1.495   3.132
  832TIP3    H2 2454   1.644   1.365   3.122
  833TIP3   OH2 2455   1.862   5.580   3.541
  833TIP3    H1 2456   1.804   5.521   3.590
  833TIP3    H2 2457   1.890   5.527   3.466
  834TIP3   OH2 2458   6.185   7.531   6.231
  834TIP3    H1 2459   6.269   7.488   6.215
  834TIP3    H2 2460   6.173   7.589   6.156
  835TIP3   OH2 2461   3.212   5.472   2.851
  835TIP3    H1 2462   3.122   5.500   2.868
  835TIP3    H2 2463   3.214   5.381   2.879
  836TIP3   OH2 2464   3.798   4.383   1.986
  836TIP3    H1 2465   3.812   4.405   1.894
  836TIP3    H2 2466   3.710   4.417   2.005
  837TIP3   OH2 2467   4.607   3.253   1.847
  837TIP3    H1 2468   4.564   3.305   1.779
  837TIP3    H2 2469   4.552   3.175   1.855
  838TIP3   OH2 2470   0.830   0.842   3.565
  838TIP3    H1 2471   0.739   0.844   3.535
  838TIP3    H2 2472   0.853   0.934   3.577
  839TIP3   OH2 2473   4.566   0.087   6.574
  839TIP3    H1 2474   4.591   0.100   6.665
  839TIP3    H2 2475   4.475   0.059   6.577
  840TIP3   OH2 2476   6.942   2.144   1.596
  840TIP3    H1 2477   6.859   2.191   1.589
  840TIP3    H2 2478   6.963   2.146   1.690
  841TIP3   OH2 2479   5.504   4.732   3.544
  841TIP3    H1 2480   5.589   4.697   3.569
  841TIP3    H2 2481   5.441   4.679   3.594
  842TIP3   OH2 2482   3.761   2.427   1.858
  842TIP3    H1 2483   3.761   2.430   1.763
  842TIP3    H2 2484   3.703   2.499   1.885
  843TIP3   OH2 2485   6.564   4.518   4.527
  843TIP3    H1 2486   6.580   4.538   4.619
  843TIP3    H2 2487   6.651   4.515   4.487
  844TIP3   OH2 2488   5.008   6.558   5.403
  844TIP3    H1 2489   4.959   6.610   5.338
  844TIP3    H2 2490   4.954   6.561   5.482
  845TIP3   OH2 2491   3.925   6.303   6.252
  845TIP3    H1 2492   4.002   6.295   6.196
  845TIP3    H2 2493   3.851   6.279   6.196
  846TIP3   OH2 2494   0.669   3.226   4.124
  846TIP3    H1 2495   0.595   3.171   4.099
  846TIP3    H2 2496   0.630   3.312   4.139
  847TIP3   OH2 2497   0.679   4.918   3.850
  847TIP3    H1 2498   0.756   4.972   3.868
  847TIP3    H2 2499   0.612   4.951   3.910
  848TIP3   OH2 2500   4.999   0.997   5.280
  848TIP3    H1 2501   4.943   1.067   5.314
  848TIP3    H2 2502   4.969   0.918   5.325
  849TIP3   OH2 2503   6.253   6.706   4.652
  849TIP3    H1 2504   6.211   6.673   4.731
  849TIP3    H2 2505   6.232   6.799   4.650
  850TIP3   OH2 2506   0.211   4.226   2.188
  850TIP3    H1 2507   0.129   4.224   2.139
  850TIP3    H2 2508   0.216   4.141   2.230
  851TIP3   OH2 2509   4.592   2.555   4.154
  851TIP3    H1 2510   4.661   2.505   4.199
  851TIP3    H2 2511   4.628   2.643   4.147
  852TIP3   OH2 2512   5.442   0.446   0.704
  852TIP3    H1 2513   5.462   0.534   0.672
  852TIP3    H2 2514   5.395   0.405   0.631
  853TIP3   OH2 2515   7.151   5.488   5.690
  853TIP3    H1 2516   7.185   5.533   5.767
  853TIP3    H2 2517   7.111   5.408   5.724
  854TIP3   OH2 2518   3.549   1.245   5.271
  854TIP3    H1 2519   3.499   1.197   5.337
  854TIP3    H2 2520   3.513   1.334   5.273
  855TIP3   OH2 2521   2.590   0.159   4.832
  855TIP3    H1 2522   2.543   0.117   4.760
  855TIP3    H2 2523   2.566   0.109   4.909
  856TIP3   OH2 2524   0.174   2.856   6.453
  856TIP3    H1 2525   0.134   2.937   6.422
  856TIP3    H2 2526   0.100   2.799   6.473
  857TIP3   OH2 2527   5.825   1.107   6.528
  857TIP3    H1 2528   5.859   1.086   6.441
  857TIP3    H2 2529   5.829   1.024   6.576
  858TIP3   OH2 2530   7.138   2.271   1.835
  858TIP3    H1 2531   7.180   2.185   1.841
  858TIP3    H2 2532   7.211   2.333   1.841
  859TIP3   OH2 2533   4.102   6.274   5.220
  859TIP3    H1 2534   4.022   6.222   5.207
  859TIP3    H2 2535   4.120   6.266   5.313
  860TIP3   OH2 2536   3.903   5.400   2.730
  860TIP3    H1 2537   3.915   5.347   2.809
  860TIP3    H2 2538   3.812   5.431   2.736
  861TIP3   OH2 2539   1.292   5.047   6.473
  861TIP3    H1 2540   1.336   4.963   6.483
  861TIP3    H2 2541   1.342   5.108   6.527
  862TIP3   OH2 2542   6.677   7.529   5.188
  862TIP3    H1 2543   6.742   7.491   5.247
  862TIP3    H2 2544   6.713   7.517   5.100
  863TIP3   OH2 2545   7.726   2.263   6.126
  863TIP3    H1 2546   7.799   2.208   6.156
  863TIP3    H2 2547   7.756   2.297   6.042
  864TIP3   OH2 2548   7.409   1.566   4.272
  864TIP3    H1 2549   7.502   1.591   4.272
  864TIP3    H2 2550   7.385   1.565   4.179
  865TIP3   OH2 2551   6.803   0.139   3.764
  865TIP3    H1 2552   6.829   0.186   3.844
  865TIP3    H2 2553   6.787   0.209   3.700
  866TIP3   OH2 2554   1.545   4.574   4.441
  866TIP3    H1 2555   1.483   4.572   4.514
  866TIP3    H2 2556   1.624   4.614   4.478
  867TIP3   OH2 2557   4.654   5.305   5.368
  867TIP3    H1 2558   4.571   5.291   5.415
  867TIP3    H2 2559   4.717   5.325   5.437
  868TIP3   OH2 2560   4.951   3.115   2.201
  868TIP3    H1 2561   5.013   3.154   2.138
  868TIP3    H2 2562   4.867   3.119   2.157
  869TIP3   OH2 2563   0.258   6.497   2.874
  869TIP3    H1 2564   0.232   6.588   2.889
  869TIP3    H2 2565   0.244   6.454   2.959
  870TIP3   OH2 2566   5.857   6.407   5.857
  870TIP3    H1 2567   5.786   6.465   5.828
  870TIP3    H2 2568   5.889   6.447   5.937
  871TIP3   OH2 2569   5.273   5.466   6.220
  871TIP3    H1 2570   5.350   5.521   6.208
  871TIP3    H2 2571   5.307   5.377   6.221
  872TIP3   OH2 2572   5.133   4.659   0.168
  872TIP3    H1 2573   5.087   4.578   0.148
  872TIP3    H2 2574   5.159   4.694   0.083
  873TIP3   OH2 2575   0.270   6.363   6.505
  873TIP3    H1 2576   0.341   6.418   6.537
  873TIP3    H2 2577   0.270   6.287   6.564
  874TIP3   OH2 2578   1.627   0.924   0.225
  874TIP3    H1 2579   1.564   0.987   0.189
  874TIP3    H2 2580   1.660   0.966   0.304
  875TIP3   OH2 2581   3.856   3.901   2.628
  875TIP3    H1 2582   3.923   3.833   2.622
  875TIP3    H2 2583   3.904   3.980   2.651
  876TIP3   OH2 2584   4.664   1.910   1.502
  876TIP3    H1 2585   4.674   1.836   1.561
  876TIP3    H2 2586   4.689   1.986   1.554
  877TIP3   OH2 2587   4.019   7.685   0.655
  877TIP3    H1 2588   4.084   7.660   0.590
  877TIP3    H2 2589   3.955   7.736   0.606
  878TIP3   OH2 2590   1.677   7.300   2.910
  878TIP3    H1 2591   1.675   7.252   2.993
  878TIP3    H2 2592   1.716   7.239   2.848
  879TIP3   OH2 2593   5.926   5.549   5.168
  879TIP3    H1 2594   5.906   5.611   5.238
  879TIP3    H2 2595   5.859   5.565   5.102
  880TIP3   OH2 2596   4.021   3.708   3.131
  880TIP3    H1 2597   4.063   3.645   3.189
  880TIP3    H2 2598   4.068   3.790   3.148
  881TIP3   OH2 2599   4.306   0.139   2.247
  881TIP3    H1 2600   4.297   0.102   2.335
  881TIP3    H2 2601   4.221   0.180   2.229
  882TIP3   OH2 2602   0.467   1.899   5.365
  882TIP3    H1 2603   0.533   1.835   5.340
  882TIP3    H2 2604   0.435   1.870   5.450
  883TIP3   OH2 2605   5.408   2.578   4.358
  883TIP3    H1 2606   5.465   2.516   4.402
  883TIP3    H2 2607   5.419   2.660   4.407
  884TIP3   OH2 2608   1.990   6.664   6.571
  884TIP3    H1 2609   1.955   6.750   6.596
  884TIP3    H2 2610   1.969   6.656   6.478
  885TIP3   OH2 2611   7.783   4.978   4.740
  885TIP3    H1 2612   7.843   5.019   4.802
  885TIP3    H2 2613   7.706   5.035   4.739
  886TIP3   OH2 2614   5.620   5.512   4.586
  886TIP3    H1 2615   5.688   5.451   4.557
  886TIP3    H2 2616   5.624   5.584   4.523
  887TIP3   OH2 2617   0.296   2.297   3.493
  887TIP3    H1 2618   0.278   2.236   3.564
  887TIP3    H2 2619   0.277   2.247   3.413
  888TIP3   OH2 2620   7.285   4.828   3.216
  888TIP3    H1 2621   7.206   4.819   3.269
  888TIP3    H2 2622   7.287   4.750   3.161
  889TIP3   OH2 2623   6.340   2.173   3.743
  889TIP3    H1 2624   6.370   2.086   3.718
  889TIP3    H2 2625   6.328   2.219   3.659
  890TIP3   OH2 2626   6.832   7.081   3.399
  890TIP3    H1 2627   6.845   6.998   3.445
  890TIP3    H2 2628   6.912   7.131   3.416
  891TIP3   OH2 2629   3.501   3.533   3.819
  891TIP3    H1 2630   3.435   3.542   3.750
  891TIP3    H2 2631   3.459   3.572   3.897
  892TIP3   OH2 2632   3.271   7.171   3.657
  892TIP3    H1 2633   3.249   7.080   3.680
  892TIP3    H2 2634   3.232   7.223   3.727
  893TIP3   OH2 2635   7.490   5.794   3.240
  893TIP3    H1 2636   7.558   5.745   3.195
  893TIP3    H2 2637   7.435   5.728   3.282
  894TIP3   OH2 2638   7.793   5.465   1.731
  894TIP3    H1 2639   7.707   5.424   1.738
  894TIP3    H2 2640   7.774   5.559   1.728
  895TIP3   OH2 2641   6.771   2.657   5.168
  895TIP3    H1 2642   6.688   2.701   5.148
  895TIP3    H2 2643   6.756   2.565   5.145
  896TIP3   OH2 2644   4.331   0.857   6.547
  896TIP3    H1 2645   4.276   0.816   6.614
  896TIP3    H2 2646   4.385   0.786   6.513
  897TIP3   OH2 2647   5.905   1.172   3.154
  897TIP3    H1 2648   5.983   1.220   3.128
  897TIP3    H2 2649   5.833   1.214   3.106
  898TIP3   OH2 2650   5.991   6.410   2.590
  898TIP3    H1 2651   6.082   6.386   2.568
  898TIP3    H2 2652   5.938   6.342   2.547
  899TIP3   OH2 2653   4.350   7.521   0.851
  899TIP3    H1 2654   4.373   7.571   0.773
  899TIP3    H2 2655   4.298   7.581   0.904
  900TIP3   OH2 2656   0.128   2.543   3.870
  900TIP3    H1 2657   0.180   2.554   3.950
  900TIP3    H2 2658   0.177   2.478   3.819
  901TIP3   OH2 2659   2.024   0.479   1.855
  901TIP3    H1 2660   1.973   0.553   1.888
  901TIP3    H2 2661   2.114   0.511   1.851
  902TIP3   OH2 2662   3.317   6.526   0.208
  902TIP3    H1 2663   3.390   6.586   0.221
  902TIP3    H2 2664   3.268   6.530   0.290
  903TIP3   OH2 2665   3.293   5.257   1.252
  903TIP3    H1 2666   3.315   5.231   1.162
  903TIP3    H2 2667   3.258   5.178   1.292
  904TIP3   OH2 2668   0.949   5.238   4.927
  904TIP3    H1 2669   0.974   5.330   4.938
  904TIP3    H2 2670   0.984   5.194   5.004
  905TIP3   OH2 2671   2.191   4.056   6.200
  905TIP3    H1 2672   2.139   3.978   6.218
  905TIP3    H2 2673   2.148   4.097   6.124
  906TIP3   OH2 2674   8.231   2.083   0.398
  906TIP3    H1 2675   8.221   2.016   0.466
  906TIP3    H2 2676   8.251   2.034   0.318
  907TIP3   OH2 2677   5.995   5.869   1.998
  907TIP3    H1 2678   5.983   5.806   1.927
  907TIP3    H2 2679   5.931   5.843   2.064
  908TIP3   OH2 2680   2.705   2.439   0.258
  908TIP3    H1 2681   2.706   2.386   0.338
  908TIP3    H2 2682   2.785   2.413   0.211
  909TIP3   OH2 2683   6.475   4.890   5.478
  909TIP3    H1 2684   6.489   4.918   5.568
  909TIP3    H2 2685   6.395   4.935   5.451
  910TIP3   OH2 2686   8.047   0.412   5.507
  910TIP3    H1 2687   8.088   0.342   5.558
  910TIP3    H2 2688   8.017   0.369   5.427
  911TIP3   OH2 2689   1.788   6.777   5.301
  911TIP3    H1 2690   1.746   6.692   5.313
  911TIP3    H2 2691   1.863   6.776   5.361
  912TIP3   OH2 2692   1.719   0.854   4.387
  912TIP3    H1 2693   1.731   0.836   4.294
  912TIP3    H2 2694   1.684   0.773   4.423
  913TIP3   OH2 2695   5.834   0.841   3.565
  913TIP3    H1 2696   5.768   0.853   3.634
  913TIP3    H2 2697   5.878   0.759   3.588
  914TIP3   OH2 2698   6.238   1.268   0.253
  914TIP3    H1 2699   6.315   1.258   0.198
  914TIP3    H2 2700   6.184   1.332   0.207
  915TIP3   OH2 2701   5.190   7.102   4.919
  915TIP3    H1 2702   5.172   7.187   4.879
  915TIP3    H2 2703   5.285   7.102   4.933
  916TIP3   OH2 2704   1.258   3.560   3.480
  916TIP3    H1 2705   1.218   3.640   3.515
  916TIP3    H2 2706   1.330   3.592   3.425
  917TIP3   OH2 2707   5.561   3.764   1.123
  917TIP3    H1 2708   5.538   3.824   1.195
  917TIP3    H2 2709   5.540   3.677   1.157
  918TIP3   OH2 2710   7.806   1.798   3.733
  918TIP3    H1 2711   7.783   1.877   3.782
  918TIP3    H2 2712   7.823   1.733   3.801
  919TIP3   OH2 2713   4.866   1.963   1.071
  919TIP3    H1 2714   4.951   1.918   1.073
  919TIP3    H2 2715   4.861   2.008   1.155
  920TIP3   OH2 2716   6.690   1.939   5.306
  920TIP3    H1 2717   6.740   1.955   5.386
  920TIP3    H2 2718   6.721   1.853   5.275
  921TIP3   OH2 2719   5.616   5.001   1.308
  921TIP3    H1 2720   5.697   4.950   1.312
  921TIP3    H2 2721   5.644   5.092   1.314
  922TIP3   OH2 2722   0.681   5.420   3.545
  922TIP3    H1 2723   0.692   5.500   3.493
  922TIP3    H2 2724   0.700   5.448   3.635
  923TIP3   OH2 2725   7.125   5.146   5.499
  923TIP3    H1 2726   7.057   5.188   5.553
  923TIP3    H2 2727   7.189   5.114   5.562
  924TIP3   OH2 2728   2.296   5.352   2.333
  924TIP3    H1 2729   2.294   5.434   2.283
  924TIP3    H2 2730   2.228   5.298   2.292
  925TIP3   OH2 2731   4.538   4.911   2.756
  925TIP3    H1 2732   4.467   4.973   2.738
  925TIP3    H2 2733   4.508   4.829   2.718
  926TIP3   OH2 2734   7.723   1.609   2.916
  926TIP3    H1 2735   7.784   1.559   2.862
  926TIP3    H2 2736   7.744   1.584   3.006
  927TIP3   OH2 2737   0.533   1.396   3.092
  927TIP3    H1 2738   0.481   1.474   3.109
  927TIP3    H2 2739   0.544   1.355   3.178
  928TIP3   OH2 2740   3.305   7.071   6.812
  928TIP3    H1 2741   3.310   7.003   6.745
  928TIP3    H2 2742   3.264   7.028   6.887
  929TIP3   OH2 2743   4.662   4.833   1.614
  929TIP3    H1 2744   4.638   4.765   1.678
  929TIP3    H2 2745   4.593   4.899   1.622
  930TIP3   OH2 2746   1.520   4.990   6.210
  930TIP3    H1 2747   1.585   5.060   6.211
  930TIP3    H2 2748   1.545   4.932   6.283
  931TIP3   OH2 2749   0.048   0.090   2.892
  931TIP3    H1 2750   0.001   0.015   2.855
  931TIP3    H2 2751  -0.018   0.135   2.945
  932TIP3   OH2 2752   2.619   2.559   4.458
  932TIP3    H1 2753   2.649   2.616   4.528
  932TIP3    H2 2754   2.530   2.535   4.482
  933TIP3   OH2 2755   2.405   0.825   6.696
  933TIP3    H1 2756   2.321   0.870   6.693
  933TIP3    H2 2757   2.459   0.871   6.632
  934TIP3   OH2 2758   4.303   6.486   5.628
  934TIP3    H1 2759   4.294   6.544   5.704
  934TIP3    H2 2760   4.214   6.458   5.609
  935TIP3   OH2 2761   2.341   0.892   1.348
  935TIP3    H1 2762   2.431   0.897   1.317
  935TIP3    H2 2763   2.313   0.983   1.357
  936TIP3   OH2 2764   1.905   2.210   6.025
  936TIP3    H1 2765   1.949   2.149   6.085
  936TIP3    H2 2766   1.965   2.284   6.018
  937TIP3   OH2 2767   3.583   0.315   4.604
  937TIP3    H1 2768   3.507   0.372   4.588
  937TIP3    H2 2769   3.568   0.239   4.548
  938TIP3   OH2 2770   7.045   5.755   4.418
  938TIP3    H1 2771   6.973   5.788   4.365
  938TIP3    H2 2772   7.003   5.712   4.493
  939TIP3   OH2 2773   7.297   6.743   5.292
  939TIP3    H1 2774   7.237   6.669   5.296
  939TIP3    H2 2775   7.250   6.810   5.242
  940TIP3   OH2 2776   4.581   3.652   3.925
  940TIP3    H1 2777   4.637   3.604   3.865
  940TIP3    H2 2778   4.493   3.642   3.888
  941TIP3   OH2 2779   4.371   3.388   6.062
  941TIP3    H1 2780   4.317   3.460   6.094
  941TIP3    H2 2781   4.309   3.330   6.016
  942TIP3   OH2 2782   3.942   2.696   1.314
  942TIP3    H1 2783   3.884   2.769   1.294
  942TIP3    H2 2784   3.890   2.618   1.295
  943TIP3   OH2 2785   4.755   4.992   0.308
  943TIP3    H1 2786   4.706   4.949   0.379
  943TIP3    H2 2787   4.800   4.921   0.263
  944TIP3   OH2 2788   3.008   4.163   6.632
  944TIP3    H1 2789   3.054   4.218   6.696
  944TIP3    H2 2790   3.050   4.078   6.638
  945TIP3   OH2 2791   0.310   2.472   4.894
  945TIP3    H1 2792   0.383   2.430   4.849
  945TIP3    H2 2793   0.322   2.565   4.877
  946TIP3   OH2 2794   6.055   0.999   4.623
  946TIP3    H1 2795   6.059   0.905   4.603
  946TIP3    H2 2796   5.962   1.022   4.615
  947TIP3   OH2 2797   3.065   3.866   1.346
  947TIP3    H1 2798   3.156   3.857   1.376
  947TIP3    H2 2799   3.014   3.812   1.407
  948TIP3   OH2 2800   3.479   3.735   0.634
  948TIP3    H1 2801   3.564   3.700   0.660
  948TIP3    H2 2802   3.436   3.662   0.589
  949TIP3   OH2 2803   5.496   7.376   2.231
  949TIP3    H1 2804   5.405   7.398   2.215
  949TIP3    H2 2805   5.541   7.460   2.238
  950TIP3   OH2 2806   6.145   3.784   5.905
  950TIP3    H1 2807   6.232   3.824   5.900
  950TIP3    H2 2808   6.161   3.696   5.941
  951TIP3   OH2 2809   4.289   0.279   0.839
  951TIP3    H1 2810   4.365   0.232   0.804
  951TIP3    H2 2811   4.223   0.212   0.854
  952TIP3   OH2 2812   4.065   4.568   0.345
  952TIP3    H1 2813   4.123   4.643   0.359
  952TIP3    H2 2814   3.990   4.584   0.402
  953TIP3   OH2 2815   2.947   6.946   4.701
  953TIP3    H1 2816   2.925   7.038   4.714
  953TIP3    H2 2817   2.863   6.902   4.690
  954TIP3   OH2 2818   4.772   5.491   0.769
  954TIP3    H1 2819   4.850   5.545   0.750
  954TIP3    H2 2820   4.804   5.425   0.830
  955TIP3   OH2 2821   6.437   3.472   5.088
  955TIP3    H1 2822   6.382   3.424   5.150
  955TIP3    H2 2823   6.428   3.564   5.115
  956TIP3   OH2 2824   3.342   0.501   0.399
  956TIP3    H1 2825   3.424   0.506   0.349
  956TIP3    H2 2826   3.353   0.424   0.455
  957TIP3   OH2 2827   6.472   4.813   4.523
  957TIP3    H1 2828   6.548   4.868   4.545
  957TIP3    H2 2829   6.499   4.765   4.445
  958TIP3   OH2 2830   2.785   0.662   0.379
  958TIP3    H1 2831   2.860   0.608   0.405
  958TIP3    H2 2832   2.768   0.636   0.288
  959TIP3   OH2 2833   2.704   3.053   4.765
  959TIP3    H1 2834   2.763   3.080   4.695
  959TIP3    H2 2835   2.761   3.015   4.832
  960TIP3   OH2 2836   1.278   3.359   0.876
  960TIP3    H1 2837   1.343   3.310   0.927
  960TIP3    H2 2838   1.251   3.299   0.807
  961TIP3   OH2 2839   0.131   7.707   6.462
  961TIP3    H1 2840   0.224   7.719   6.442
  961TIP3    H2 2841   0.114   7.767   6.534
  962TIP3   OH2 2842   3.666   4.121   0.726
  962TIP3    H1 2843   3.579   4.085   0.706
  962TIP3    H2 2844   3.660   4.213   0.702
  963TIP3   OH2 2845   4.330   6.778   5.019
  963TIP3    H1 2846   4.253   6.731   5.052
  963TIP3    H2 2847   4.354   6.838   5.089
  964TIP3   OH2 2848   7.191   5.112   2.179
  964TIP3    H1 2849   7.175   5.137   2.270
  964TIP3    H2 2850   7.199   5.196   2.133
  965TIP3   OH2 2851   0.719   2.242   4.066
  965TIP3    H1 2852   0.770   2.166   4.095
  965TIP3    H2 2853   0.637   2.205   4.033
  966TIP3   OH2 2854   5.572   3.314   3.363
  966TIP3    H1 2855   5.538   3.374   3.297
  966TIP3    H2 2856   5.511   3.322   3.436
  967TIP3   OH2 2857   7.220   4.911   4.430
  967TIP3    H1 2858   7.148   4.972   4.448
  967TIP3    H2 2859   7.240   4.872   4.516
  968TIP3   OH2 2860   1.206   5.565   0.165
  968TIP3    H1 2861   1.224   5.615   0.085
  968TIP3    H2 2862   1.266   5.491   0.160
  969TIP3   OH2 2863   3.153   6.359   6.212
  969TIP3    H1 2864   3.095   6.323   6.280
  969TIP3    H2 2865   3.228   6.394   6.259
  970TIP3   OH2 2866   5.309   6.180   5.578
  970TIP3    H1 2867   5.219   6.195   5.605
  970TIP3    H2 2868   5.348   6.267   5.576
  971TIP3   OH2 2869   2.477   1.855   3.918
  971TIP3    H1 2870   2.448   1.770   3.950
  971TIP3    H2 2871   2.397   1.909   3.917
  972TIP3   OH2 2872   0.145   7.406   0.868
  972TIP3    H1 2873   0.215   7.347   0.841
  972TIP3    H2 2874   0.090   7.414   0.789
  973TIP3   OH2 2875   1.206   3.492   4.302
  973TIP3    H1 2876   1.211   3.562   4.367
  973TIP3    H2 2877   1.167   3.535   4.225
  974TIP3   OH2 2878   6.824   6.049   0.802
  974TIP3    H1 2879   6.841   5.966   0.846
  974TIP3    H2 2880   6.755   6.029   0.738
  975TIP3   OH2 2881   0.305   5.487   4.774
  975TIP3    H1 2882   0.335   5.570   4.736
  975TIP3    H2 2883   0.302   5.503   4.868
  976TIP3   OH2 2884   3.849   3.376   3.185
  976TIP3    H1 2885   3.770   3.323   3.175
  976TIP3    H2 2886   3.852   3.395   3.279
  977TIP3   OH2 2887   5.111   3.261   3.061
  977TIP3    H1 2888   5.099   3.338   3.117
  977TIP3    H2 2889   5.022   3.235   3.037
  978TIP3   OH2 2890   3.191   7.757   5.549
  978TIP3    H1 2891   3.103   7.793   5.535
  978TIP3    H2 2892   3.179   7.662   5.546
  979TIP3   OH2 2893   1.122   5.965   5.017
  979TIP3    H1 2894   1.145   5.879   5.054
  979TIP3    H2 2895   1.079   5.944   4.935
  980TIP3   OH2 2896   5.484   6.674   1.450
  980TIP3    H1 2897   5.511   6.766   1.457
  980TIP3    H2 2898   5.553   6.626   1.495
  981TIP3   OH2 2899   4.003   2.219   3.629
  981TIP3    H1 2900   3.932   2.203   3.567
  981TIP3    H2 2901   3.971   2.291   3.684
  982TIP3   OH2 2902   8.221   6.648   0.902
  982TIP3    H1 2903   8.203   6.693   0.820
  982TIP3    H2 2904   8.280   6.577   0.877
  983TIP3   OH2 2905   5.700   7.140   5.445
  983TIP3    H1 2906   5.638   7.148   5.373
  983TIP3    H2 2907   5.685   7.218   5.499
  984TIP3   OH2 2908   5.281   4.361   4.992
  984TIP3    H1 2909   5.265   4.372   4.898
  984TIP3    H2 2910   5.327   4.278   4.999
  985TIP3   OH2 2911   3.787   1.135   3.765
  985TIP3    H1 2912   3.790   1.184   3.848
  985TIP3    H2 2913   3.835   1.054   3.783
  986TIP3   OH2 2914   0.371   0.073   4.056
  986TIP3    H1 2915   0.317   0.070   3.977
  986TIP3    H2 2916   0.421  -0.009   4.053
  987TIP3   OH2 2917   7.579   3.052   6.698
  987TIP3    H1 2918   7.642   3.086   6.762
  987TIP3    H2 2919   7.605   3.092   6.615
  988TIP3   OH2 2920   6.868   2.641   1.398
  988TIP3    H1 2921   6.891   2.648   1.491
  988TIP3    H2 2922   6.775   2.617   1.398
  989TIP3   OH2 2923   1.371   6.188   2.086
  989TIP3    H1 2924   1.418   6.137   2.152
  989TIP3    H2 2925   1.390   6.279   2.109
  990TIP3   OH2 2926   8.026   4.674   3.998
  990TIP3    H1 2927   8.116   4.704   3.981
  990TIP3    H2 2928   7.971   4.748   3.972
  991TIP3   OH2 2929   2.435   3.319   6.064
  991TIP3    H1 2930   2.461   3.234   6.028
  991TIP3    H2 2931   2.343   3.308   6.086
  992TIP3   OH2 2932   2.744   4.959   4.294
  992TIP3    H1 2933   2.734   4.868   4.319
  992TIP3    H2 2934   2.698   5.008   4.362
  993TIP3   OH2 2935   0.239   0.107   3.586
  993TIP3    H1 2936   0.187   0.177   3.545
  993TIP3    H2 2937   0.259   0.047   3.514
  994TIP3   OH2 2938   5.061   7.364   6.000
  994TIP3    H1 2939   5.049   7.369   5.905
  994TIP3    H2 2940   5.149   7.329   6.012
  995TIP3   OH2 2941   1.355   1.545   6.562
  995TIP3    H1 2942   1.327   1.454   6.575
  995TIP3    H2 2943   1.276   1.590   6.531
  996TIP3   OH2 2944   4.940   0.376   6.265
  996TIP3    H1 2945   5.024   0.402   6.303
  996TIP3    H2 2946   4.876   0.392   6.334
  997TIP3   OH2 2947   3.277   1.329   3.288
  997TIP3    H1 2948   3.369   1.331   3.259
  997TIP3    H2 2949   3.281   1.299   3.378
  998TIP3   OH2 2950   7.390   6.120   3.506
  998TIP3    H1 2951   7.305   6.145   3.471
  998TIP3    H2 2952   7.372   6.088   3.595
  999TIP3   OH2 2953   1.002   6.715   4.745
  999TIP3    H1 2954   1.080   6.695   4.694
  999TIP3    H2 2955   0.938   6.746   4.681
 1000TIP3   OH2 2956   1.333   2.892   0.913
 1000TIP3    H1 2957   1.286   2.866   0.833
 1000TIP3    H2 2958   1.421   2.857   0.901
 1001TIP3   OH2 2959   7.247   4.888   2.058
 1001TIP3    H1 2960   7.294   4.942   1.995
 1001TIP3    H2 2961   7.217   4.949   2.125
 1002TIP3   OH2 2962   6.042   4.237   1.462
 1002TIP3    H1 2963   6.114   4.237   1.399
 1002TIP3    H2 2964   6.010   4.327   1.462
 1003TIP3   OH2 2965   1.045   3.176   5.821
 1003TIP3    H1 2966   1.052   3.244   5.888
 1003TIP3    H2 2967   1.048   3.223   5.738
 1004TIP3   OH2 2968   4.533   0.435   0.895
 1004TIP3    H1 2969   4.488   0.361   0.854
 1004TIP3    H2 2970   4.562   0.489   0.821
 1005TIP3   OH2 2971   1.785   7.554   2.984
 1005TIP3    H1 2972   1.780   7.460   2.971
 1005TIP3    H2 2973   1.706   7.589   2.943
 1006TIP3   OH2 2974   3.253   1.702   0.460
 1006TIP3    H1 2975   3.282   1.770   0.399
 1006TIP3    H2 2976   3.334   1.672   0.502
 1007TIP3   OH2 2977   5.931   7.006   4.832
 1007TIP3    H1 2978   6.015   7.043   4.805
 1007TIP3    H2 2979   5.946   6.911   4.834
 1008TIP3   OH2 2980   3.927   4.426   3.417
 1008TIP3    H1 2981   3.912   4.520   3.409
 1008TIP3    H2 2982   4.023   4.418   3.422
 1009TIP3   OH2 2983   7.979   4.224   2.464
 1009TIP3    H1 2984   7.906   4.267   2.419
 1009TIP3    H2 2985   7.985   4.269   2.548
 1010TIP3   OH2 2986   0.192   1.204   2.502
 1010TIP3    H1 2987   0.131   1.266   2.462
 1010TIP3    H2 2988   0.143   1.123   2.509
 1011TIP3   OH2 2989   1.188   7.561   3.917
 1011TIP3    H1 2990   1.264   7.602   3.876
 1011TIP3    H2 2991   1.225   7.499   3.980
 1012TIP3   OH2 2992   5.715   1.084   3.392
 1012TIP3    H1 2993   5.735   1.174   3.419
 1012TIP3    H2 2994   5.637   1.061   3.443
 1013TIP3   OH2 2995   1.873   2.084   3.360
 1013TIP3    H1 2996   1.917   2.034   3.428
 1013TIP3    H2 2997   1.781   2.058   3.366
 1014TIP3   OH2 2998   5.115   0.440   2.194
 1014TIP3    H1 2999   5.112   0.411   2.286
 1014TIP3    H2 3000   5.035   0.404   2.156
 1015TIP3   OH2 3001   3.034   5.473   2.493
 1015TIP3    H1 3002   3.007   5.558   2.527
 1015TIP3    H2 3003   3.120   5.489   2.454
 1016TIP3   OH2 3004   7.613   1.685   6.186
 1016TIP3    H1 3005   7.588   1.645   6.102
 1016TIP3    H2 3006   7.705   1.708   6.174
 1017TIP3   OH2 3007   3.610   5.584   1.813
 1017TIP3    H1 3008   3.610   5.492   1.840
 1017TIP3    H2 3009   3.701   5.604   1.793
 1018TIP3   OH2 3010   5.412   6.647   1.172
 1018TIP3    H1 3011   5.484   6.629   1.111
 1018TIP3    H2 3012   5.456   6.666   1.255
 1019TIP3   OH2 3013   3.715   6.542   4.544
 1019TIP3    H1 3014   3.799   6.584   4.523
 1019TIP3    H2 3015   3.660   6.559   4.468
 1020TIP3   OH2 3016   4.176   3.232   1.626
 1020TIP3    H1 3017   4.121   3.296   1.580
 1020TIP3    H2 3018   4.256   3.227   1.573
 1021TIP3   OH2 3019   3.806   5.450   4.471
 1021TIP3    H1 3020   3.738   5.457   4.404
 1021TIP3    H2 3021   3.775   5.380   4.528
 1022TIP3   OH2 3022   3.288   5.662   4.268
 1022TIP3    H1 3023   3.233   5.711   4.208
 1022TIP3    H2 3024   3.374   5.703   4.262
 1023TIP3   OH2 3025   4.284   1.586   3.988
 1023TIP3    H1 3026   4.331   1.546   4.061
 1023TIP3    H2 3027   4.277   1.517   3.923
 1024TIP3   OH2 3028   1.283   3.824   5.232
 1024TIP3    H1 3029   1.348   3.895   5.242
 1024TIP3    H2 3030   1.277   3.810   5.138
 1025TIP3   OH2 3031   0.782   3.126   0.848
 1025TIP3    H1 3032   0.823   3.076   0.778
 1025TIP3    H2 3033   0.763   3.211   0.809
 1026TIP3   OH2 3034   7.267   1.877   3.959
 1026TIP3    H1 3035   7.319   1.903   4.035
 1026TIP3    H2 3036   7.225   1.957   3.929
 1027TIP3   OH2 3037   6.666   5.526   1.109
 1027TIP3    H1 3038   6.692   5.451   1.163
 1027TIP3    H2 3039   6.686   5.498   1.019
 1028TIP3   OH2 3040   0.283   4.857   1.399
 1028TIP3    H1 3041   0.219   4.923   1.427
 1028TIP3    H2 3042   0.244   4.773   1.425
 1029TIP3   OH2 3043   6.189   3.125   3.334
 1029TIP3    H1 3044   6.238   3.063   3.388
 1029TIP3    H2 3045   6.212   3.211   3.370
 1030TIP3   OH2 3046   0.122   1.698   4.610
 1030TIP3    H1 3047   0.139   1.685   4.517
 1030TIP3    H2 3048   0.156   1.786   4.628
 1031TIP3   OH2 3049   4.648   0.662   5.723
 1031TIP3    H1 3050   4.594   0.704   5.656
 1031TIP3    H2 3051   4.619   0.700   5.805
 1032TIP3   OH2 3052   1.279   7.827   4.276
 1032TIP3    H1 3053   1.348   7.887   4.305
 1032TIP3    H2 3054   1.321   7.773   4.209
 1033TIP3   OH2 3055   1.178   6.821   3.898
 1033TIP3    H1 3056   1.210   6.742   3.940
 1033TIP3    H2 3057   1.108   6.852   3.955
 1034TIP3   OH2 3058   6.763   7.309   1.529
 1034TIP3    H1 3059   6.853   7.303   1.562
 1034TIP3    H2 3060   6.740   7.219   1.506
 1035TIP3   OH2 3061   3.704   2.704   3.949
 1035TIP3    H1 3062   3.697   2.704   4.045
 1035TIP3    H2 3063   3.694   2.796   3.924
 1036TIP3   OH2 3064   7.027   0.566   3.947
 1036TIP3    H1 3065   7.120   0.589   3.951
 1036TIP3    H2 3066   6.986   0.623   4.011
 1037TIP3   OH2 3067   2.204   4.058   6.526
 1037TIP3    H1 3068   2.182   4.023   6.440
 1037TIP3    H2 3069   2.125   4.043   6.578
 1038TIP3   OH2 3070   0.324   3.235   3.299
 1038TIP3    H1 3071   0.289   3.156   3.342
 1038TIP3    H2 3072   0.346   3.294   3.371
 1039TIP3   OH2 3073   0.081   2.195   5.271
 1039TIP3    H1 3074   0.026   2.190   5.350
 1039TIP3    H2 3075   0.147   2.127   5.284
 1040TIP3   OH2 3076   0.814   3.126   4.363
 1040TIP3    H1 3077   0.897   3.108   4.319
 1040TIP3    H2 3078   0.764   3.176   4.298
 1041TIP3   OH2 3079   2.499   5.042   6.665
 1041TIP3    H1 3080   2.474   4.949   6.664
 1041TIP3    H2 3081   2.594   5.041   6.675
 1042TIP3   OH2 3082   5.855   5.740   5.339
 1042TIP3    H1 3083   5.781   5.782   5.295
 1042TIP3    H2 3084   5.926   5.804   5.334
 1043TIP3   OH2 3085   0.466   4.880   5.760
 1043TIP3    H1 3086   0.503   4.811   5.815
 1043TIP3    H2 3087   0.391   4.913   5.809
 1044TIP3   OH2 3088   1.828   3.843   3.437
 1044TIP3    H1 3089   1.849   3.756   3.404
 1044TIP3    H2 3090   1.823   3.833   3.532
 1045TIP3   OH2 3091   0.079   0.246   6.540
 1045TIP3    H1 3092   0.010   0.307   6.567
 1045TIP3    H2 3093   0.091   0.188   6.616
 1046TIP3   OH2 3094   1.465   1.641   4.990
 1046TIP3    H1 3095   1.477   1.703   5.062
 1046TIP3    H2 3096   1.384   1.594   5.012
 1047TIP3   OH2 3097   2.869   7.395   5.354
 1047TIP3    H1 3098   2.947   7.444   5.381
 1047TIP3    H2 3099   2.874   7.312   5.403
 1048TIP3   OH2 3100   0.483   5.826   3.250
 1048TIP3    H1 3101   0.524   5.873   3.178
 1048TIP3    H2 3102   0.419   5.768   3.209
 1049TIP3   OH2 3103   1.151   5.534   0.863
 1049TIP3    H1 3104   1.166   5.493   0.778
 1049TIP3    H2 3105   1.186   5.622   0.854
 1050TIP3   OH2 3106   2.924   4.430   5.503
 1050TIP3    H1 3107   2.955   4.391   5.422
 1050TIP3    H2 3108   2.962   4.376   5.572
 1051TIP3   OH2 3109   0.107   5.274   5.009
 1051TIP3    H1 3110   0.171   5.344   4.998
 1051TIP3    H2 3111   0.028   5.318   5.042
 1052TIP3   OH2 3112   6.888   4.095   4.625
 1052TIP3    H1 3113   6.973   4.050   4.620
 1052TIP3    H2 3114   6.911   4.188   4.631
 1053TIP3   OH2 3115   6.355   2.305   6.741
 1053TIP3    H1 3116   6.366   2.400   6.737
 1053TIP3    H2 3117   6.348   2.285   6.834
 1054TIP3   OH2 3118   6.019   1.354   4.829
 1054TIP3    H1 3119   6.078   1.318   4.763
 1054TIP3    H2 3120   6.060   1.437   4.855
 1055TIP3   OH2 3121   2.249   2.814   4.534
 1055TIP3    H1 3122   2.297   2.779   4.610
 1055TIP3    H2 3123   2.244   2.908   4.551
 1056TIP3   OH2 3124   3.933   6.506   3.872
 1056TIP3    H1 3125   3.862   6.451   3.840
 1056TIP3    H2 3126   3.997   6.507   3.800
 1057TIP3   OH2 3127   2.015   7.276   1.530
 1057TIP3    H1 3128   2.108   7.290   1.510
 1057TIP3    H2 3129   1.987   7.210   1.466
 1058TIP3   OH2 3130   4.567   7.300   6.317
 1058TIP3    H1 3131   4.523   7.369   6.367
 1058TIP3    H2 3132   4.625   7.258   6.380
 1059TIP3   OH2 3133   3.865   5.220   6.413
 1059TIP3    H1 3134   3.771   5.205   6.401
 1059TIP3    H2 3135   3.901   5.221   6.325
 1060TIP3   OH2 3136   1.002   2.558   2.974
 1060TIP3    H1 3137   1.038   2.587   2.891
 1060TIP3    H2 3138   0.914   2.594   2.977
 1061TIP3   OH2 3139   6.389   0.506   5.066
 1061TIP3    H1 3140   6.379   0.428   5.010
 1061TIP3    H2 3141   6.420   0.471   5.150
 1062TIP3   OH2 3142   2.295   3.181   6.497
 1062TIP3    H1 3143   2.359   3.185   6.568
 1062TIP3    H2 3144   2.326   3.245   6.433
 1063TIP3   OH2 3145   6.239   1.084   2.251
 1063TIP3    H1 3146   6.311   1.145   2.236
 1063TIP3    H2 3147   6.170   1.115   2.191
 1064TIP3   OH2 3148   6.329   0.333   2.506
 1064TIP3    H1 3149   6.321   0.428   2.516
 1064TIP3    H2 3150   6.389   0.321   2.433
 1065TIP3   OH2 3151   7.559   0.738   1.647
 1065TIP3    H1 3152   7.476   0.755   1.603
 1065TIP3    H2 3153   7.543   0.760   1.739
 1066TIP3   OH2 3154   3.545   2.762   0.887
 1066TIP3    H1 3155   3.515   2.842   0.843
 1066TIP3    H2 3156   3.464   2.717   0.910
 1067TIP3   OH2 3157   7.137   5.361   0.883
 1067TIP3    H1 3158   7.178   5.281   0.849
 1067TIP3    H2 3159   7.051   5.331   0.915
 1068TIP3   OH2 3160   4.992   4.421   6.236
 1068TIP3    H1 3161   4.898   4.439   6.233
 1068TIP3    H2 3162   5.033   4.502   6.205
 1069TIP3   OH2 3163   3.545   5.697   4.368
 1069TIP3    H1 3164   3.611   5.657   4.312
 1069TIP3    H2 3165   3.579   5.785   4.385
 1070TIP3   OH2 3166   0.223   2.924   2.502
 1070TIP3    H1 3167   0.290   2.859   2.480
 1070TIP3    H2 3168   0.245   3.000   2.449
 1071TIP3   OH2 3169   0.654   4.780   4.357
 1071TIP3    H1 3170   0.653   4.846   4.427
 1071TIP3    H2 3171   0.570   4.792   4.313
 1072TIP3   OH2 3172   3.300   6.293   2.008
 1072TIP3    H1 3173   3.370   6.267   2.067
 1072TIP3    H2 3174   3.225   6.239   2.035
 1073TIP3   OH2 3175   5.622   2.958   1.193
 1073TIP3    H1 3176   5.547   3.016   1.185
 1073TIP3    H2 3177   5.585   2.870   1.182
 1074TIP3   OH2 3178   7.533   7.829   1.214
 1074TIP3    H1 3179   7.556   7.752   1.266
 1074TIP3    H2 3180   7.613   7.882   1.212
 1075TIP3   OH2 3181   2.631   1.537   5.605
 1075TIP3    H1 3182   2.539   1.525   5.627
 1075TIP3    H2 3183   2.644   1.632   5.601
 1076TIP3   OH2 3184   3.500   4.440   5.829
 1076TIP3    H1 3185   3.582   4.392   5.826
 1076TIP3    H2 3186   3.515   4.517   5.774
 1077TIP3   OH2 3187   3.309   3.977   0.986
 1077TIP3    H1 3188   3.292   3.909   1.051
 1077TIP3    H2 3189   3.394   4.013   1.009
 1078TIP3   OH2 3190   4.045   3.163   2.567
 1078TIP3    H1 3191   4.019   3.238   2.620
 1078TIP3    H2 3192   3.976   3.154   2.501
 1079TIP3   OH2 3193   3.605   7.003   4.492
 1079TIP3    H1 3194   3.694   6.969   4.485
 1079TIP3    H2 3195   3.549   6.927   4.476
 1080TIP3   OH2 3196   4.041   2.343   1.572
 1080TIP3    H1 3197   3.983   2.304   1.507
 1080TIP3    H2 3198   4.012   2.434   1.578
 1081TIP3   OH2 3199   5.693   7.582   1.679
 1081TIP3    H1 3200   5.622   7.628   1.633
 1081TIP3    H2 3201   5.691   7.617   1.768
 1082TIP3   OH2 3202   2.192   5.126   5.535
 1082TIP3    H1 3203   2.119   5.188   5.540
 1082TIP3    H2 3204   2.152   5.043   5.509
 1083TIP3   OH2 3205   0.763   0.327   1.550
 1083TIP3    H1 3206   0.760   0.238   1.514
 1083TIP3    H2 3207   0.827   0.372   1.495
 1084TIP3   OH2 3208   7.322   0.773   1.519
 1084TIP3    H1 3209   7.254   0.840   1.518
 1084TIP3    H2 3210   7.336   0.751   1.427
 1085TIP3   OH2 3211   2.105   2.591   4.470
 1085TIP3    H1 3212   2.144   2.661   4.523
 1085TIP3    H2 3213   2.011   2.602   4.481
 1086TIP3   OH2 3214   6.967   2.346   6.552
 1086TIP3    H1 3215   6.996   2.380   6.467
 1086TIP3    H2 3216   6.877   2.318   6.536
 1087TIP3   OH2 3217   6.177   3.920   5.596
 1087TIP3    H1 3218   6.199   3.974   5.672
 1087TIP3    H2 3219   6.221   3.837   5.612
 1088TIP3   OH2 3220   2.506   6.295   4.135
 1088TIP3    H1 3221   2.583   6.273   4.188
 1088TIP3    H2 3222   2.508   6.232   4.063
 1089TIP3   OH2 3223   7.112   1.834   1.121
 1089TIP3    H1 3224   7.033   1.813   1.172
 1089TIP3    H2 3225   7.185   1.804   1.176
 1090TIP3   OH2 3226   1.257   3.588   1.515
 1090TIP3    H1 3227   1.220   3.504   1.544
 1090TIP3    H2 3228   1.182   3.635   1.478
 1091TIP3   OH2 3229   0.639   6.642   2.306
 1091TIP3    H1 3230   0.572   6.578   2.283
 1091TIP3    H2 3231   0.637   6.705   2.234
 1092TIP3   OH2 3232   2.852   5.185   2.798
 1092TIP3    H1 3233   2.880   5.213   2.885
 1092TIP3    H2 3234   2.761   5.158   2.810
 1093TIP3   OH2 3235   6.111   2.225   6.449
 1093TIP3    H1 3236   6.181   2.164   6.471
 1093TIP3    H2 3237   6.142   2.310   6.480
 1094TIP3   OH2 3238   6.837   7.378   0.201
 1094TIP3    H1 3239   6.765   7.380   0.138
 1094TIP3    H2 3240   6.904   7.435   0.163
 1095TIP3   OH2 3241   4.742   2.499   2.319
 1095TIP3    H1 3242   4.689   2.426   2.288
 1095TIP3    H2 3243   4.819   2.458   2.357
 1096TIP3   OH2 3244   6.092   6.633   6.533
 1096TIP3    H1 3245   6.159   6.696   6.507
 1096TIP3    H2 3246   6.132   6.584   6.605
 1097TIP3   OH2 3247   6.087   1.944   0.622
 1097TIP3    H1 3248   6.154   1.951   0.690
 1097TIP3    H2 3249   6.135   1.923   0.542
 1098TIP3   OH2 3250   6.321   2.894   3.243
 1098TIP3    H1 3251   6.233   2.878   3.211
 1098TIP3    H2 3252   6.308   2.931   3.331
 1099TIP3   OH2 3253   4.875   4.826   0.729
 1099TIP3    H1 3254   4.948   4.813   0.788
 1099TIP3    H2 3255   4.892   4.910   0.686
 1100TIP3   OH2 3256   8.029   6.463   2.579
 1100TIP3    H1 3257   7.940   6.461   2.544
 1100TIP3    H2 3258   8.017   6.476   2.673
 1101TIP3   OH2 3259   3.777   5.810   6.486
 1101TIP3    H1 3260   3.826   5.728   6.472
 1101TIP3    H2 3261   3.829   5.877   6.443
 1102TIP3   OH2 3262   5.199   6.664   2.514
 1102TIP3    H1 3263   5.198   6.667   2.609
 1102TIP3    H2 3264   5.174   6.574   2.492
 1103TIP3   OH2 3265   7.429   0.084   5.805
 1103TIP3    H1 3266   7.470  -0.003   5.807
 1103TIP3    H2 3267   7.381   0.084   5.722
 1104TIP3   OH2 3268   0.530   0.268   4.946
 1104TIP3    H1 3269   0.618   0.297   4.971
 1104TIP3    H2 3270   0.524   0.288   4.853
 1105TIP3   OH2 3271   3.184   1.793   3.066
 1105TIP3    H1 3272   3.209   1.883   3.046
 1105TIP3    H2 3273   3.233   1.771   3.145
 1106TIP3   OH2 3274   6.058   4.320   2.142
 1106TIP3    H1 3275   6.088   4.282   2.225
 1106TIP3    H2 3276   6.116   4.281   2.076
 1107TIP3   OH2 3277   3.986   6.735   3.460
 1107TIP3    H1 3278   4.009   6.669   3.526
 1107TIP3    H2 3279   4.016   6.818   3.498
 1108TIP3   OH2 3280   3.622   7.310   3.121
 1108TIP3    H1 3281   3.623   7.308   3.216
 1108TIP3    H2 3282   3.704   7.267   3.095
 1109TIP3   OH2 3283   6.021   0.379   2.040
 1109TIP3    H1 3284   6.003   0.357   1.949
 1109TIP3    H2 3285   6.099   0.328   2.062
 1110TIP3   OH2 3286   7.601   6.993   6.200
 1110TIP3    H1 3287   7.663   7.064   6.216
 1110TIP3    H2 3288   7.626   6.925   6.263
 1111TIP3   OH2 3289   5.437   2.258   4.254
 1111TIP3    H1 3290   5.518   2.298   4.223
 1111TIP3    H2 3291   5.429   2.290   4.344
 1112TIP3   OH2 3292   2.951   0.613   4.391
 1112TIP3    H1 3293   2.912   0.680   4.447
 1112TIP3    H2 3294   3.042   0.639   4.382
 1113TIP3   OH2 3295   2.086   1.738   4.429
 1113TIP3    H1 3296   2.076   1.729   4.334
 1113TIP3    H2 3297   2.118   1.827   4.441
 1114TIP3   OH2 3298   6.413   7.391   6.115
 1114TIP3    H1 3299   6.455   7.334   6.180
 1114TIP3    H2 3300   6.341   7.339   6.080
 1115TIP3   OH2 3301   2.087   7.764   3.328
 1115TIP3    H1 3302   2.142   7.724   3.260
 1115TIP3    H2 3303   2.010   7.707   3.332
 1116TIP3   OH2 3304   6.846   7.445   0.905
 1116TIP3    H1 3305   6.914   7.507   0.877
 1116TIP3    H2 3306   6.781   7.449   0.835
 1117TIP3   OH2 3307   1.680   6.926   1.059
 1117TIP3    H1 3308   1.678   6.891   1.148
 1117TIP3    H2 3309   1.657   6.852   1.003
 1118TIP3   OH2 3310   0.324   2.124   0.070
 1118TIP3    H1 3311   0.311   2.109   0.164
 1118TIP3    H2 3312   0.389   2.058   0.045
 1119TIP3   OH2 3313   1.654   3.084   2.028
 1119TIP3    H1 3314   1.739   3.043   2.043
 1119TIP3    H2 3315   1.674   3.174   2.003
 1120TIP3   OH2 3316   7.471   2.873   5.911
 1120TIP3    H1 3317   7.436   2.957   5.881
 1120TIP3    H2 3318   7.540   2.896   5.972
 1121TIP3   OH2 3319   0.316   2.115   5.406
 1121TIP3    H1 3320   0.384   2.051   5.385
 1121TIP3    H2 3321   0.356   2.199   5.388
 1122TIP3   OH2 3322   6.537   6.578   4.170
 1122TIP3    H1 3323   6.491   6.659   4.146
 1122TIP3    H2 3324   6.482   6.508   4.136
 1123TIP3   OH2 3325   1.379   7.234   0.505
 1123TIP3    H1 3326   1.428   7.157   0.476
 1123TIP3    H2 3327   1.291   7.222   0.469
 1124TIP3   OH2 3328   1.549   6.779   2.470
 1124TIP3    H1 3329   1.629   6.730   2.487
 1124TIP3    H2 3330   1.478   6.717   2.487
 1125TIP3   OH2 3331   2.113   0.704   5.277
 1125TIP3    H1 3332   2.132   0.610   5.280
 1125TIP3    H2 3333   2.066   0.716   5.194
 1126TIP3   OH2 3334   4.239   2.892   3.945
 1126TIP3    H1 3335   4.295   2.905   3.868
 1126TIP3    H2 3336   4.189   2.974   3.951
 1127TIP3   OH2 3337   8.246   7.239   0.737
 1127TIP3    H1 3338   8.331   7.198   0.753
 1127TIP3    H2 3339   8.266   7.312   0.679
 1128TIP3   OH2 3340   7.879   0.058   0.242
 1128TIP3    H1 3341   7.871   0.005   0.322
 1128TIP3    H2 3342   7.956   0.112   0.257
 1129TIP3   OH2 3343   5.597   7.275   4.234
 1129TIP3    H1 3344   5.502   7.274   4.248
 1129TIP3    H2 3345   5.607   7.292   4.141
 1130TIP3   OH2 3346   1.881   0.642   3.139
 1130TIP3    H1 3347   1.894   0.547   3.147
 1130TIP3    H2 3348   1.899   0.675   3.227
 1131TIP3   OH2 3349   8.116   1.638   4.408
 1131TIP3    H1 3350   8.211   1.652   4.409
 1131TIP3    H2 3351   8.092   1.648   4.315
 1132TIP3   OH2 3352   3.738   0.924   0.981
 1132TIP3    H1 3353   3.705   0.854   1.037
 1132TIP3    H2 3354   3.774   0.988   1.042
 1133TIP3   OH2 3355   0.484   0.345   1.961
 1133TIP3    H1 3356   0.527   0.362   2.045
 1133TIP3    H2 3357   0.548   0.373   1.895
 1134TIP3   OH2 3358   5.247   1.512   4.169
 1134TIP3    H1 3359   5.290   1.467   4.242
 1134TIP3    H2 3360   5.192   1.446   4.128
 1135TIP3   OH2 3361   2.060   2.432   3.554
 1135TIP3    H1 3362   2.145   2.472   3.572
 1135TIP3    H2 3363   2.074   2.382   3.473
 1136TIP3   OH2 3364   6.506   0.631   2.018
 1136TIP3    H1 3365   6.525   0.713   2.063
 1136TIP3    H2 3366   6.579   0.620   1.956
 1137TIP3   OH2 3367   7.887   2.707   0.284
 1137TIP3    H1 3368   7.831   2.653   0.228
 1137TIP3    H2 3369   7.865   2.797   0.260
 1138TIP3   OH2 3370   6.299   2.878   5.047
 1138TIP3    H1 3371   6.332   2.926   4.971
 1138TIP3    H2 3372   6.217   2.840   5.017
 1139TIP3   OH2 3373   2.951   2.165   4.041
 1139TIP3    H1 3374   2.874   2.138   3.991
 1139TIP3    H2 3375   3.001   2.085   4.054
 1140TIP3   OH2 3376   7.532   4.771   5.798
 1140TIP3    H1 3377   7.540   4.675   5.800
 1140TIP3    H2 3378   7.447   4.788   5.838
 1141TIP3   OH2 3379   2.072   6.716   3.082
 1141TIP3    H1 3380   2.094   6.723   2.989
 1141TIP3    H2 3381   2.067   6.622   3.098
 1142TIP3   OH2 3382   8.220   6.397   3.217
 1142TIP3    H1 3383   8.261   6.480   3.239
 1142TIP3    H2 3384   8.286   6.349   3.167
 1143TIP3   OH2 3385   1.342   6.774   5.021
 1143TIP3    H1 3386   1.310   6.821   4.943
 1143TIP3    H2 3387   1.368   6.688   4.988
 1144TIP3   OH2 3388   6.062   2.621   2.824
 1144TIP3    H1 3389   6.016   2.668   2.755
 1144TIP3    H2 3390   6.077   2.687   2.892
 1145TIP3   OH2 3391   3.027   1.227   1.559
 1145TIP3    H1 3392   3.074   1.245   1.640
 1145TIP3    H2 3393   2.973   1.151   1.579
 1146TIP3   OH2 3394   1.361   3.409   2.832
 1146TIP3    H1 3395   1.312   3.327   2.827
 1146TIP3    H2 3396   1.348   3.439   2.922
 1147TIP3   OH2 3397   5.473   3.497   3.162
 1147TIP3    H1 3398   5.420   3.575   3.174
 1147TIP3    H2 3399   5.426   3.447   3.095
 1148TIP3   OH2 3400   5.744   2.657   3.187
 1148TIP3    H1 3401   5.779   2.629   3.103
 1148TIP3    H2 3402   5.785   2.741   3.204
 1149TIP3   OH2 3403  -0.007   2.358   3.345
 1149TIP3    H1 3404   0.088   2.360   3.357
 1149TIP3    H2 3405  -0.034   2.274   3.382
 1150TIP3   OH2 3406   6.239   1.987   5.161
 1150TIP3    H1 3407   6.331   1.972   5.139
 1150TIP3    H2 3408   6.214   1.912   5.214
 1151TIP3   OH2 3409   1.781   5.291   4.766
 1151TIP3    H1 3410   1.790   5.202   4.731
 1151TIP3    H2 3411   1.842   5.343   4.715
 1152TIP3   OH2 3412   7.907   7.016   1.849
 1152TIP3    H1 3413   7.905   6.927   1.814
 1152TIP3    H2 3414   7.934   7.070   1.774
 1153TIP3   OH2 3415   6.030   3.635   6.296
 1153TIP3    H1 3416   6.035   3.560   6.237
 1153TIP3    H2 3417   5.952   3.683   6.268
 1154TIP3   OH2 3418   6.976   2.654   6.185
 1154TIP3    H1 3419   6.890   2.621   6.211
 1154TIP3    H2 3420   6.957   2.735   6.137
 1155TIP3   OH2 3421   2.618   7.240   0.256
 1155TIP3    H1 3422   2.647   7.166   0.203
 1155TIP3    H2 3423   2.700   7.283   0.283
 1156TIP3   OH2 3424   7.847   1.073   5.762
 1156TIP3    H1 3425   7.866   0.985   5.730
 1156TIP3    H2 3426   7.928   1.122   5.748
 1157TIP3   OH2 3427   7.718   1.965   3.965
 1157TIP3    H1 3428   7.786   1.907   3.998
 1157TIP3    H2 3429   7.717   2.038   4.027
 1158TIP3   OH2 3430   6.877   7.500   3.315
 1158TIP3    H1 3431   6.832   7.468   3.237
 1158TIP3    H2 3432   6.960   7.452   3.316
 1159TIP3   OH2 3433   5.398   2.852   4.418
 1159TIP3    H1 3434   5.329   2.834   4.354
 1159TIP3    H2 3435   5.439   2.933   4.389
 1160TIP3   OH2 3436   1.015   0.673   2.846
 1160TIP3    H1 3437   1.089   0.734   2.849
 1160TIP3    H2 3438   0.972   0.684   2.932
 1161TIP3   OH2 3439   4.798   7.784   5.095
 1161TIP3    H1 3440   4.849   7.721   5.044
 1161TIP3    H2 3441   4.717   7.795   5.045
 1162TIP3   OH2 3442   4.840   0.108   5.009
 1162TIP3    H1 3443   4.867   0.198   5.025
 1162TIP3    H2 3444   4.780   0.087   5.080
 1163TIP3   OH2 3445   7.489   7.532   0.066
 1163TIP3    H1 3446   7.472   7.614   0.019
 1163TIP3    H2 3447   7.520   7.559   0.152
 1164TIP3   OH2 3448   2.520   6.390   5.420
 1164TIP3    H1 3449   2.592   6.343   5.460
 1164TIP3    H2 3450   2.445   6.330   5.427
 1165TIP3   OH2 3451   5.265   2.770   1.186
 1165TIP3    H1 3452   5.312   2.779   1.103
 1165TIP3    H2 3453   5.287   2.682   1.216
 1166TIP3   OH2 3454   1.865   3.526   1.871
 1166TIP3    H1 3455   1.888   3.601   1.927
 1166TIP3    H2 3456   1.818   3.467   1.930
 1167TIP3   OH2 3457   4.796   2.700   1.769
 1167TIP3    H1 3458   4.724   2.684   1.831
 1167TIP3    H2 3459   4.774   2.646   1.693
 1168TIP3   OH2 3460   0.678   1.304   2.365
 1168TIP3    H1 3461   0.641   1.232   2.314
 1168TIP3    H2 3462   0.665   1.278   2.456
 1169TIP3   OH2 3463   1.663   1.579   2.393
 1169TIP3    H1 3464   1.574   1.577   2.429
 1169TIP3    H2 3465   1.720   1.587   2.469
 1170TIP3   OH2 3466   1.431   3.773   1.629
 1170TIP3    H1 3467   1.363   3.723   1.583
 1170TIP3    H2 3468   1.398   3.862   1.631
 1171TIP3   OH2 3469   0.758   0.514   3.269
 1171TIP3    H1 3470   0.756   0.501   3.364
 1171TIP3    H2 3471   0.768   0.426   3.233
 1172TIP3   OH2 3472   2.462   7.543   6.021
 1172TIP3    H1 3473   2.470   7.569   6.113
 1172TIP3    H2 3474   2.368   7.536   6.006
 1173TIP3   OH2 3475   4.328   2.675   3.569
 1173TIP3    H1 3476   4.401   2.707   3.517
 1173TIP3    H2 3477   4.348   2.583   3.586
 1174TIP3   OH2 3478   0.034   7.695   2.494
 1174TIP3    H1 3479   0.084   7.684   2.413
 1174TIP3    H2 3480  -0.050   7.730   2.466
 1175TIP3   OH2 3481   1.658   2.211   5.851
 1175TIP3    H1 3482   1.730   2.234   5.910
 1175TIP3    H2 3483   1.581   2.255   5.887
 1176TIP3   OH2 3484   7.090   7.170   2.620
 1176TIP3    H1 3485   7.063   7.139   2.706
 1176TIP3    H2 3486   7.174   7.213   2.636
 1177TIP3   OH2 3487   0.736   2.689   1.563
 1177TIP3    H1 3488   0.700   2.628   1.628
 1177TIP3    H2 3489   0.727   2.775   1.604
 1178TIP3   OH2 3490   6.133   1.052   0.369
 1178TIP3    H1 3491   6.166   1.134   0.334
 1178TIP3    H2 3492   6.040   1.068   0.386
 1179TIP3   OH2 3493   4.734   1.452   5.627
 1179TIP3    H1 3494   4.812   1.498   5.657
 1179TIP3    H2 3495   4.669   1.467   5.696
 1180TIP3   OH2 3496   5.855   1.378   5.938
 1180TIP3    H1 3497   5.898   1.460   5.962
 1180TIP3    H2 3498   5.780   1.372   5.997
 1181TIP3   OH2 3499   0.232   4.328   3.921
 1181TIP3    H1 3500   0.303   4.286   3.871
 1181TIP3    H2 3501   0.185   4.254   3.960
 1182TIP3   OH2 3502   1.774   4.304   1.246
 1182TIP3    H1 3503   1.812   4.268   1.326
 1182TIP3    H2 3504   1.687   4.265   1.241
 1183TIP3   OH2 3505   2.628   6.475   1.147
 1183TIP3    H1 3506   2.620   6.394   1.198
 1183TIP3    H2 3507   2.630   6.446   1.056
 1184TIP3   OH2 3508   4.778   7.152   2.167
 1184TIP3    H1 3509   4.820   7.072   2.135
 1184TIP3    H2 3510   4.822   7.171   2.250
 1185TIP3   OH2 3511   7.161   2.279   1.515
 1185TIP3    H1 3512   7.220   2.204   1.521
 1185TIP3    H2 3513   7.074   2.243   1.534
 1186TIP3   OH2 3514   2.698   7.769   3.877
 1186TIP3    H1 3515   2.733   7.815   3.801
 1186TIP3    H2 3516   2.633   7.708   3.842
 1187TIP3   OH2 3517   4.205   3.834   1.475
 1187TIP3    H1 3518   4.297   3.833   1.500
 1187TIP3    H2 3519   4.166   3.900   1.532
 1188TIP3   OH2 3520   7.148   5.540   5.418
 1188TIP3    H1 3521   7.130   5.537   5.512
 1188TIP3    H2 3522   7.069   5.505   5.377
 1189TIP3   OH2 3523   6.605   7.584   4.799
 1189TIP3    H1 3524   6.625   7.516   4.734
 1189TIP3    H2 3525   6.683   7.638   4.802
 1190TIP3   OH2 3526   7.632   1.756   6.505
 1190TIP3    H1 3527   7.693   1.828   6.517
 1190TIP3    H2 3528   7.570   1.788   6.439
 1191TIP3   OH2 3529   7.565   2.834   1.780
 1191TIP3    H1 3530   7.558   2.849   1.874
 1191TIP3    H2 3531   7.642   2.778   1.771
 1192TIP3   OH2 3532   6.226   7.258   1.891
 1192TIP3    H1 3533   6.227   7.226   1.800
 1192TIP3    H2 3534   6.149   7.315   1.896
 1193TIP3   OH2 3535   7.489   1.390   5.330
 1193TIP3    H1 3536   7.521   1.301   5.345
 1193TIP3    H2 3537   7.548   1.426   5.264
 1194TIP3   OH2 3538   7.412   0.086   1.098
 1194TIP3    H1 3539   7.433   0.179   1.101
 1194TIP3    H2 3540   7.409   0.065   1.004
 1195TIP3   OH2 3541   1.931   3.891   1.158
 1195TIP3    H1 3542   1.988   3.952   1.205
 1195TIP3    H2 3543   1.936   3.919   1.067
 1196TIP3   OH2 3544   0.697   4.854   1.855
 1196TIP3    H1 3545   0.700   4.847   1.760
 1196TIP3    H2 3546   0.749   4.932   1.875
 1197TIP3   OH2 3547   2.264   6.278   2.485
 1197TIP3    H1 3548   2.172   6.250   2.485
 1197TIP3    H2 3549   2.266   6.351   2.547
 1198TIP3   OH2 3550   1.786   1.250   5.021
 1198TIP3    H1 3551   1.717   1.229   5.083
 1198TIP3    H2 3552   1.741   1.296   4.949
 1199TIP3   OH2 3553   2.997   0.857   6.340
 1199TIP3    H1 3554   3.060   0.786   6.338
 1199TIP3    H2 3555   3.013   0.906   6.259
 1200TIP3   OH2 3556   3.560   4.126   5.511
 1200TIP3    H1 3557   3.535   4.068   5.583
 1200TIP3    H2 3558   3.602   4.068   5.448
 1201TIP3   OH2 3559   7.826   4.071   1.971
 1201TIP3    H1 3560   7.887   4.010   2.011
 1201TIP3    H2 3561   7.812   4.037   1.883
 1202TIP3   OH2 3562   3.344   3.471   1.828
 1202TIP3    H1 3563   3.407   3.491   1.759
 1202TIP3    H2 3564   3.394   3.479   1.910
 1203TIP3   OH2 3565   7.983   4.429   2.892
 1203TIP3    H1 3566   7.918   4.492   2.861
 1203TIP3    H2 3567   7.947   4.344   2.870
 1204TIP3   OH2 3568   3.544   6.337   5.616
 1204TIP3    H1 3569   3.516   6.302   5.532
 1204TIP3    H2 3570   3.531   6.432   5.608
 1205TIP3   OH2 3571   4.957   5.075   0.611
 1205TIP3    H1 3572   4.911   5.153   0.641
 1205TIP3    H2 3573   4.916   5.054   0.527
 1206TIP3   OH2 3574   0.034   7.804   1.562
 1206TIP3    H1 3575  -0.046   7.810   1.510
 1206TIP3    H2 3576   0.013   7.743   1.633
 1207TIP3   OH2 3577   3.919   2.671   5.866
 1207TIP3    H1 3578   3.830   2.655   5.899
 1207TIP3    H2 3579   3.952   2.742   5.921
 1208TIP3   OH2 3580   5.276   1.201   2.746
 1208TIP3    H1 3581   5.293   1.184   2.839
 1208TIP3    H2 3582   5.359   1.236   2.713
 1209TIP3   OH2 3583   0.150   4.546   0.324
 1209TIP3    H1 3584   0.242   4.520   0.330
 1209TIP3    H2 3585   0.131   4.550   0.231
 1210TIP3   OH2 3586   5.214   1.628   2.593
 1210TIP3    H1 3587   5.182   1.711   2.557
 1210TIP3    H2 3588   5.135   1.576   2.606
 1211TIP3   OH2 3589   4.644   1.913   0.344
 1211TIP3    H1 3590   4.636   1.971   0.420
 1211TIP3    H2 3591   4.722   1.945   0.298
 1212TIP3   OH2 3592   2.013   3.860   6.293
 1212TIP3    H1 3593   1.944   3.927   6.291
 1212TIP3    H2 3594   2.017   3.832   6.385
 1213TIP3   OH2 3595   6.864   5.253   6.667
 1213TIP3    H1 3596   6.868   5.284   6.757
 1213TIP3    H2 3597   6.780   5.206   6.662
 1214TIP3   OH2 3598   2.456   4.397   6.492
 1214TIP3    H1 3599   2.536   4.376   6.444
 1214TIP3    H2 3600   2.446   4.491   6.482
 1215TIP3   OH2 3601   6.541   5.447   0.532
 1215TIP3    H1 3602   6.530   5.353   0.517
 1215TIP3    H2 3603   6.627   5.468   0.496
 1216TIP3   OH2 3604   0.877   5.938   6.317
 1216TIP3    H1 3605   0.918   6.000   6.377
 1216TIP3    H2 3606   0.946   5.876   6.294
 1217TIP3   OH2 3607   1.659   2.242   6.204
 1217TIP3    H1 3608   1.705   2.190   6.138
 1217TIP3    H2 3609   1.578   2.193   6.221
 1218TIP3   OH2 3610   5.298   7.192   1.932
 1218TIP3    H1 3611   5.333   7.255   1.869
 1218TIP3    H2 3612   5.274   7.116   1.879
 1219TIP3   OH2 3613   8.335   4.229   6.773
 1219TIP3    H1 3614   8.285   4.276   6.706
 1219TIP3    H2 3615   8.288   4.147   6.785
 1220TIP3   OH2 3616   2.109   5.685   5.430
 1220TIP3    H1 3617   2.077   5.599   5.459
 1220TIP3    H2 3618   2.185   5.665   5.376
 1221TIP3   OH2 3619   1.687   1.365   0.508
 1221TIP3    H1 3620   1.653   1.293   0.562
 1221TIP3    H2 3621   1.622   1.435   0.519
 1222TIP3   OH2 3622   5.155   0.379   3.038
 1222TIP3    H1 3623   5.101   0.319   3.088
 1222TIP3    H2 3624   5.189   0.441   3.102
 1223TIP3   OH2 3625   4.026   5.240   4.362
 1223TIP3    H1 3626   4.055   5.149   4.351
 1223TIP3    H2 3627   3.946   5.246   4.309
 1224TIP3   OH2 3628   3.745   6.515   1.262
 1224TIP3    H1 3629   3.805   6.440   1.256
 1224TIP3    H2 3630   3.692   6.509   1.182
 1225TIP3   OH2 3631   4.553   0.430   1.902
 1225TIP3    H1 3632   4.578   0.344   1.936
 1225TIP3    H2 3633   4.506   0.472   1.974
 1226TIP3   OH2 3634   6.634   4.065   3.971
 1226TIP3    H1 3635   6.574   4.001   3.933
 1226TIP3    H2 3636   6.716   4.018   3.984
 1227TIP3   OH2 3637   4.886   3.728   1.782
 1227TIP3    H1 3638   4.981   3.719   1.790
 1227TIP3    H2 3639   4.872   3.823   1.774
 1228TIP3   OH2 3640   0.408   4.850   6.543
 1228TIP3    H1 3641   0.339   4.792   6.512
 1228TIP3    H2 3642   0.478   4.790   6.571
 1229TIP3   OH2 3643   4.556   5.621   3.438
 1229TIP3    H1 3644   4.587   5.689   3.497
 1229TIP3    H2 3645   4.635   5.577   3.408
 1230TIP3   OH2 3646   5.078   6.132   2.465
 1230TIP3    H1 3647   5.092   6.163   2.376
 1230TIP3    H2 3648   5.116   6.200   2.521
 1231TIP3   OH2 3649   7.064   1.986   1.967
 1231TIP3    H1 3650   7.130   1.923   1.996
 1231TIP3    H2 3651   6.985   1.934   1.954
 1232TIP3   OH2 3652   4.196   6.928   6.536
 1232TIP3    H1 3653   4.266   6.880   6.580
 1232TIP3    H2 3654   4.116   6.883   6.561
 1233TIP3   OH2 3655   0.924   2.769   3.201
 1233TIP3    H1 3656   0.938   2.772   3.296
 1233TIP3    H2 3657   1.004   2.804   3.163
 1234TIP3   OH2 3658   7.228   0.098   3.788
 1234TIP3    H1 3659   7.226   0.146   3.706
 1234TIP3    H2 3660   7.292   0.028   3.773
 1235TIP3   OH2 3661   4.902   2.385   3.661
 1235TIP3    H1 3662   4.817   2.414   3.627
 1235TIP3    H2 3663   4.894   2.394   3.756
 1236TIP3   OH2 3664   8.245   6.963   4.736
 1236TIP3    H1 3665   8.336   6.989   4.719
 1236TIP3    H2 3666   8.216   7.021   4.807
 1237TIP3   OH2 3667   1.152   4.103   3.509
 1237TIP3    H1 3668   1.087   4.128   3.444
 1237TIP3    H2 3669   1.112   4.124   3.594
 1238TIP3   OH2 3670   7.477   7.441   4.498
 1238TIP3    H1 3671   7.553   7.382   4.496
 1238TIP3    H2 3672   7.487   7.497   4.421
 1239TIP3   OH2 3673   6.144   5.445   4.754
 1239TIP3    H1 3674   6.128   5.357   4.787
 1239TIP3    H2 3675   6.059   5.473   4.719
 1240TIP3   OH2 3676   5.837   2.698   3.825
 1240TIP3    H1 3677   5.854   2.747   3.906
 1240TIP3    H2 3678   5.807   2.613   3.855
 1241TIP3   OH2 3679   5.243   1.114   5.283
 1241TIP3    H1 3680   5.160   1.070   5.301
 1241TIP3    H2 3681   5.250   1.114   5.188
 1242TIP3   OH2 3682   7.533   5.442   1.395
 1242TIP3    H1 3683   7.575   5.356   1.386
 1242TIP3    H2 3684   7.603   5.498   1.429
 1243TIP3   OH2 3685   0.970   3.049   0.617
 1243TIP3    H1 3686   0.996   2.973   0.565
 1243TIP3    H2 3687   0.920   3.103   0.557
 1244TIP3   OH2 3688   1.173   7.069   1.451
 1244TIP3    H1 3689   1.175   6.974   1.455
 1244TIP3    H2 3690   1.129   7.096   1.532
 1245TIP3   OH2 3691   4.241   2.734   1.205
 1245TIP3    H1 3692   4.146   2.735   1.217
 1245TIP3    H2 3693   4.256   2.777   1.121
 1246TIP3   OH2 3694   6.473   3.635   0.821
 1246TIP3    H1 3695   6.518   3.645   0.905
 1246TIP3    H2 3696   6.467   3.723   0.786
 1247TIP3   OH2 3697   0.942   6.853   3.298
 1247TIP3    H1 3698   0.870   6.794   3.281
 1247TIP3    H2 3699   1.014   6.820   3.245
 1248TIP3   OH2 3700   0.739   6.028   4.744
 1248TIP3    H1 3701   0.812   6.079   4.709
 1248TIP3    H2 3702   0.725   6.062   4.832
 1249TIP3   OH2 3703   3.378   0.799   6.466
 1249TIP3    H1 3704   3.311   0.867   6.479
 1249TIP3    H2 3705   3.458   0.837   6.502
 1250TIP3   OH2 3706   6.394   2.687   2.877
 1250TIP3    H1 3707   6.429   2.775   2.861
 1250TIP3    H2 3708   6.361   2.659   2.791
 1251TIP3   OH2 3709   1.804   4.353   6.313
 1251TIP3    H1 3710   1.815   4.335   6.406
 1251TIP3    H2 3711   1.879   4.408   6.290
 1252TIP3   OH2 3712   8.212   1.927   4.826
 1252TIP3    H1 3713   8.233   1.965   4.911
 1252TIP3    H2 3714   8.289   1.875   4.803
 1253TIP3   OH2 3715   6.826   2.687   3.633
 1253TIP3    H1 3716   6.907   2.729   3.663
 1253TIP3    H2 3717   6.852   2.637   3.556
 1254TIP3   OH2 3718   6.816   3.712   6.543
 1254TIP3    H1 3719   6.748   3.715   6.611
 1254TIP3    H2 3720   6.835   3.804   6.525
 1255TIP3   OH2 3721   3.622   3.743   2.568
 1255TIP3    H1 3722   3.687   3.794   2.617
 1255TIP3    H2 3723   3.539   3.760   2.613
 1256TIP3   OH2 3724   2.064   0.434   5.302
 1256TIP3    H1 3725   2.010   0.356   5.296
 1256TIP3    H2 3726   2.119   0.432   5.224
 1257TIP3   OH2 3727   1.324   5.668   1.861
 1257TIP3    H1 3728   1.358   5.656   1.772
 1257TIP3    H2 3729   1.345   5.587   1.906
 1258TIP3   OH2 3730   7.315   5.404   5.917
 1258TIP3    H1 3731   7.384   5.415   5.852
 1258TIP3    H2 3732   7.352   5.343   5.981
 1259TIP3   OH2 3733   7.330   0.345   1.824
 1259TIP3    H1 3734   7.319   0.439   1.841
 1259TIP3    H2 3735   7.290   0.331   1.738
 1260TIP3   OH2 3736   0.844   1.534   2.504
 1260TIP3    H1 3737   0.837   1.539   2.409
 1260TIP3    H2 3738   0.755   1.519   2.534
 1261TIP3   OH2 3739   1.388   4.726   4.081
 1261TIP3    H1 3740   1.416   4.664   4.148
 1261TIP3    H2 3741   1.357   4.671   4.009
 1262TIP3   OH2 3742   3.234   4.123   4.428
 1262TIP3    H1 3743   3.291   4.150   4.356
 1262TIP3    H2 3744   3.286   4.138   4.507
 1263TIP3   OH2 3745   2.085   0.111   5.459
 1263TIP3    H1 3746   2.170   0.125   5.418
 1263TIP3    H2 3747   2.066   0.018   5.446
 1264TIP3   OH2 3748   4.013   1.947   2.917
 1264TIP3    H1 3749   4.077   1.981   2.979
 1264TIP3    H2 3750   4.005   2.017   2.851
 1265TIP3   OH2 3751   7.092   6.202   1.412
 1265TIP3    H1 3752   7.049   6.138   1.469
 1265TIP3    H2 3753   7.021   6.257   1.380
 1266TIP3   OH2 3754   1.290   0.652   5.032
 1266TIP3    H1 3755   1.335   0.728   4.996
 1266TIP3    H2 3756   1.359   0.587   5.044
 1267TIP3   OH2 3757   0.568   0.587   2.388
 1267TIP3    H1 3758   0.581   0.653   2.320
 1267TIP3    H2 3759   0.523   0.633   2.458
 1268TIP3   OH2 3760   6.769   0.714   5.129
 1268TIP3    H1 3761   6.822   0.651   5.080
 1268TIP3    H2 3762   6.731   0.663   5.200
 1269TIP3   OH2 3763   6.807   2.107   3.342
 1269TIP3    H1 3764   6.822   2.142   3.254
 1269TIP3    H2 3765   6.811   2.012   3.331
 1270TIP3   OH2 3766   5.781   6.808   1.260
 1270TIP3    H1 3767   5.762   6.843   1.347
 1270TIP3    H2 3768   5.740   6.871   1.200
 1271TIP3   OH2 3769   8.185   4.518   2.481
 1271TIP3    H1 3770   8.095   4.551   2.492
 1271TIP3    H2 3771   8.192   4.500   2.387
 1272TIP3   OH2 3772   2.960   1.354   2.675
 1272TIP3    H1 3773   2.922   1.271   2.706
 1272TIP3    H2 3774   3.032   1.327   2.619
 1273TIP3   OH2 3775   2.968   5.220   4.620
 1273TIP3    H1 3776   3.010   5.296   4.662
 1273TIP3    H2 3777   3.041   5.169   4.585
 1274TIP3   OH2 3778   2.038   6.447   3.168
 1274TIP3    H1 3779   1.946   6.469   3.183
 1274TIP3    H2 3780   2.078   6.451   3.255
 1275TIP3   OH2 3781   5.563   2.198   5.695
 1275TIP3    H1 3782   5.541   2.116   5.651
 1275TIP3    H2 3783   5.571   2.262   5.624
 1276TIP3   OH2 3784   6.903   6.219   2.814
 1276TIP3    H1 3785   6.859   6.143   2.853
 1276TIP3    H2 3786   6.989   6.222   2.857
 1277TIP3   OH2 3787   0.935   0.204   2.726
 1277TIP3    H1 3788   0.904   0.132   2.781
 1277TIP3    H2 3789   0.900   0.185   2.639
 1278TIP3   OH2 3790   4.615   1.092   1.190
 1278TIP3    H1 3791   4.678   1.109   1.260
 1278TIP3    H2 3792   4.668   1.079   1.112
 1279TIP3   OH2 3793   0.742   2.920   6.513
 1279TIP3    H1 3794   0.666   2.888   6.560
 1279TIP3    H2 3795   0.814   2.863   6.542
 1280TIP3   OH2 3796   5.748   0.676   5.197
 1280TIP3    H1 3797   5.817   0.740   5.212
 1280TIP3    H2 3798   5.777   0.597   5.242
 1281TIP3   OH2 3799   0.906   2.235   4.327
 1281TIP3    H1 3800   0.929   2.169   4.261
 1281TIP3    H2 3801   0.969   2.221   4.397
 1282TIP3   OH2 3802   4.276   7.270   5.443
 1282TIP3    H1 3803   4.218   7.208   5.400
 1282TIP3    H2 3804   4.362   7.254   5.405
 1283TIP3   OH2 3805   2.058   6.364   5.353
 1283TIP3    H1 3806   1.991   6.297   5.344
 1283TIP3    H2 3807   2.037   6.430   5.287
 1284TIP3   OH2 3808   7.124   0.742   3.505
 1284TIP3    H1 3809   7.182   0.804   3.549
 1284TIP3    H2 3810   7.062   0.715   3.572
 1285TIP3   OH2 3811   7.166   2.574   5.341
 1285TIP3    H1 3812   7.145   2.638   5.409
 1285TIP3    H2 3813   7.120   2.606   5.263
 1286TIP3   OH2 3814   2.687   7.416   0.788
 1286TIP3    H1 3815   2.683   7.443   0.879
 1286TIP3    H2 3816   2.645   7.330   0.786
 1287TIP3   OH2 3817   1.450   7.373   3.702
 1287TIP3    H1 3818   1.480   7.458   3.733
 1287TIP3    H2 3819   1.460   7.314   3.777
 1288TIP3   OH2 3820   7.079   2.328   6.272
 1288TIP3    H1 3821   7.045   2.327   6.182
 1288TIP3    H2 3822   7.149   2.393   6.271
 1289TIP3   OH2 3823   3.123   2.158   1.959
 1289TIP3    H1 3824   3.128   2.149   2.055
 1289TIP3    H2 3825   3.115   2.252   1.944
 1290TIP3   OH2 3826   3.668   7.510   6.317
 1290TIP3    H1 3827   3.733   7.461   6.267
 1290TIP3    H2 3828   3.694   7.498   6.408
 1291TIP3   OH2 3829   5.707   1.863   1.638
 1291TIP3    H1 3830   5.737   1.789   1.691
 1291TIP3    H2 3831   5.615   1.844   1.620
 1292TIP3   OH2 3832   8.193   1.212   4.221
 1292TIP3    H1 3833   8.235   1.296   4.240
 1292TIP3    H2 3834   8.224   1.154   4.290
 1293TIP3   OH2 3835   4.781   0.605   3.919
 1293TIP3    H1 3836   4.827   0.538   3.868
 1293TIP3    H2 3837   4.688   0.583   3.910
 1294TIP3   OH2 3838   2.683   5.032   5.107
 1294TIP3    H1 3839   2.611   5.064   5.052
 1294TIP3    H2 3840   2.668   5.071   5.193
 1295TIP3   OH2 3841   4.882   4.590   0.553
 1295TIP3    H1 3842   4.963   4.614   0.508
 1295TIP3    H2 3843   4.869   4.658   0.618
 1296TIP3   OH2 3844   7.045   3.870   2.846
 1296TIP3    H1 3845   6.953   3.862   2.871
 1296TIP3    H2 3846   7.093   3.872   2.929
 1297TIP3   OH2 3847   5.773   4.836   3.118
 1297TIP3    H1 3848   5.802   4.895   3.187
 1297TIP3    H2 3849   5.838   4.766   3.118
 1298TIP3   OH2 3850   5.834   5.357   1.607
 1298TIP3    H1 3851   5.791   5.412   1.672
 1298TIP3    H2 3852   5.890   5.298   1.658
 1299TIP3   OH2 3853   0.129   0.018   1.085
 1299TIP3    H1 3854   0.136   0.058   0.998
 1299TIP3    H2 3855   0.066  -0.054   1.073
 1300TIP3   OH2 3856   2.243   1.968   6.600
 1300TIP3    H1 3857   2.295   2.003   6.673
 1300TIP3    H2 3858   2.153   1.993   6.620
 1301TIP3   OH2 3859   8.108   5.707   3.763
 1301TIP3    H1 3860   8.119   5.634   3.825
 1301TIP3    H2 3861   8.086   5.664   3.680
 1302TIP3   OH2 3862   1.828   1.596   3.326
 1302TIP3    H1 3863   1.817   1.650   3.404
 1302TIP3    H2 3864   1.864   1.514   3.358
 1303TIP3   OH2 3865   4.926   5.921   3.534
 1303TIP3    H1 3866   4.993   5.988   3.548
 1303TIP3    H2 3867   4.929   5.868   3.613
 1304TIP3   OH2 3868   4.992   7.219   4.240
 1304TIP3    H1 3869   5.015   7.169   4.162
 1304TIP3    H2 3870   5.038   7.174   4.311
 1305TIP3   OH2 3871   7.059   0.076   5.868
 1305TIP3    H1 3872   7.057   0.034   5.782
 1305TIP3    H2 3873   6.991   0.143   5.864
 1306TIP3   OH2 3874   2.071   4.074   1.906
 1306TIP3    H1 3875   2.119   4.099   1.828
 1306TIP3    H2 3876   2.118   4.116   1.978
 1307TIP3   OH2 3877   3.177   5.162   1.601
 1307TIP3    H1 3878   3.246   5.223   1.577
 1307TIP3    H2 3879   3.215   5.110   1.673
 1308TIP3   OH2 3880   0.126   4.699   2.483
 1308TIP3    H1 3881   0.084   4.614   2.475
 1308TIP3    H2 3882   0.054   4.761   2.487
 1309TIP3   OH2 3883   0.603   3.481   2.400
 1309TIP3    H1 3884   0.578   3.443   2.315
 1309TIP3    H2 3885   0.530   3.538   2.423
 1310TIP3   OH2 3886   0.710   2.961   3.800
 1310TIP3    H1 3887   0.653   3.032   3.770
 1310TIP3    H2 3888   0.651   2.891   3.826
 1311TIP3   OH2 3889   6.013   2.187   4.167
 1311TIP3    H1 3890   6.087   2.168   4.110
 1311TIP3    H2 3891   5.937   2.191   4.108
 1312TIP3   OH2 3892   6.466   1.865   5.685
 1312TIP3    H1 3893   6.513   1.914   5.753
 1312TIP3    H2 3894   6.478   1.773   5.709
 1313TIP3   OH2 3895   7.859   7.315   2.567
 1313TIP3    H1 3896   7.827   7.344   2.652
 1313TIP3    H2 3897   7.798   7.352   2.504
 1314TIP3   OH2 3898   6.502   4.621   2.890
 1314TIP3    H1 3899   6.482   4.645   2.981
 1314TIP3    H2 3900   6.580   4.567   2.897
 1315TIP3   OH2 3901   2.111   0.868   6.456
 1315TIP3    H1 3902   2.094   0.936   6.521
 1315TIP3    H2 3903   2.176   0.906   6.398
 1316TIP3   OH2 3904   4.009   6.394   4.478
 1316TIP3    H1 3905   4.071   6.400   4.406
 1316TIP3    H2 3906   3.995   6.485   4.505
 1317TIP3   OH2 3907   4.556   5.771   2.442
 1317TIP3    H1 3908   4.641   5.729   2.430
 1317TIP3    H2 3909   4.494   5.710   2.403
 1318TIP3   OH2 3910   0.700   5.680   0.522
 1318TIP3    H1 3911   0.769   5.656   0.584
 1318TIP3    H2 3912   0.665   5.763   0.556
 1319TIP3   OH2 3913   8.069   4.994   0.215
 1319TIP3    H1 3914   8.029   4.972   0.130
 1319TIP3    H2 3915   8.106   5.081   0.202
 1320TIP3   OH2 3916   8.232   3.582   5.389
 1320TIP3    H1 3917   8.294   3.543   5.451
 1320TIP3    H2 3918   8.276   3.577   5.305
 1321TIP3   OH2 3919   2.429   7.426   0.181
 1321TIP3    H1 3920   2.461   7.336   0.188
 1321TIP3    H2 3921   2.505   7.476   0.150
 1322TIP3   OH2 3922   6.502   0.287   3.733
 1322TIP3    H1 3923   6.595   0.295   3.711
 1322TIP3    H2 3924   6.486   0.357   3.796
 1323TIP3   OH2 3925   0.939   7.258   4.759
 1323TIP3    H1 3926   0.886   7.319   4.707
 1323TIP3    H2 3927   0.907   7.267   4.848
 1324TIP3   OH2 3928   2.604   5.865   3.777
 1324TIP3    H1 3929   2.627   5.903   3.692
 1324TIP3    H2 3930   2.659   5.786   3.783
 1325TIP3   OH2 3931   0.507   7.566   3.195
 1325TIP3    H1 3932   0.545   7.498   3.139
 1325TIP3    H2 3933   0.582   7.605   3.240
 1326TIP3   OH2 3934   3.145   5.486   1.604
 1326TIP3    H1 3935   3.208   5.519   1.668
 1326TIP3    H2 3936   3.195   5.427   1.549
 1327TIP3   OH2 3937   3.752   3.594   3.921
 1327TIP3    H1 3938   3.793   3.679   3.910
 1327TIP3    H2 3939   3.658   3.611   3.913
 1328TIP3   OH2 3940   6.835   6.881   6.002
 1328TIP3    H1 3941   6.900   6.844   6.062
 1328TIP3    H2 3942   6.752   6.843   6.032
 1329TIP3   OH2 3943   6.903   5.421   0.224
 1329TIP3    H1 3944   6.908   5.515   0.243
 1329TIP3    H2 3945   6.971   5.407   0.159
 1330TIP3   OH2 3946   6.436   0.348   2.239
 1330TIP3    H1 3947   6.354   0.302   2.221
 1330TIP3    H2 3948   6.502   0.300   2.190
 1331TIP3   OH2 3949   0.127   7.530   6.159
 1331TIP3    H1 3950   0.036   7.548   6.139
 1331TIP3    H2 3951   0.132   7.530   6.255
 1332TIP3   OH2 3952   8.265   4.713   5.576
 1332TIP3    H1 3953   8.183   4.691   5.533
 1332TIP3    H2 3954   8.292   4.631   5.618
 1333TIP3   OH2 3955   1.410   6.225   3.826
 1333TIP3    H1 3956   1.419   6.139   3.785
 1333TIP3    H2 3957   1.363   6.278   3.762
 1334TIP3   OH2 3958   2.346   0.340   6.539
 1334TIP3    H1 3959   2.389   0.417   6.578
 1334TIP3    H2 3960   2.261   0.337   6.582
 1335TIP3   OH2 3961   2.047   1.202   1.557
 1335TIP3    H1 3962   1.986   1.207   1.484
 1335TIP3    H2 3963   2.067   1.109   1.566
 1336TIP3   OH2 3964   5.948   1.331   3.985
 1336TIP3    H1 3965   5.895   1.252   3.997
 1336TIP3    H2 3966   5.907   1.377   3.912
 1337TIP3   OH2 3967   2.737   4.149   4.864
 1337TIP3    H1 3968   2.709   4.062   4.893
 1337TIP3    H2 3969   2.717   4.152   4.771
 1338TIP3   OH2 3970   4.297   4.906   2.545
 1338TIP3    H1 3971   4.300   4.816   2.510
 1338TIP3    H2 3972   4.257   4.897   2.631
 1339TIP3   OH2 3973   7.363   4.988  -0.028
 1339TIP3    H1 3974   7.389   4.900  -0.004
 1339TIP3    H2 3975   7.268   4.988  -0.018
 1340TIP3   OH2 3976   5.562   0.757   5.006
 1340TIP3    H1 3977   5.574   0.734   5.098
 1340TIP3    H2 3978   5.611   0.839   4.995
 1341TIP3   OH2 3979   1.523   1.936   1.424
 1341TIP3    H1 3980   1.532   2.002   1.492
 1341TIP3    H2 3981   1.469   1.978   1.357
 1342TIP3   OH2 3982   2.727   2.099   1.475
 1342TIP3    H1 3983   2.739   2.034   1.406
 1342TIP3    H2 3984   2.776   2.064   1.550
 1343TIP3   OH2 3985   6.442   5.083   0.744
 1343TIP3    H1 3986   6.370   5.146   0.747
 1343TIP3    H2 3987   6.421   5.019   0.812
 1344TIP3   OH2 3988   2.633   7.679   6.604
 1344TIP3    H1 3989   2.570   7.623   6.650
 1344TIP3    H2 3990   2.714   7.670   6.654
 1345TIP3   OH2 3991   8.259   5.849   4.640
 1345TIP3    H1 3992   8.247   5.772   4.696
 1345TIP3    H2 3993   8.319   5.820   4.571
 1346TIP3   OH2 3994   0.349   1.842   1.485
 1346TIP3    H1 3995   0.408   1.770   1.463
 1346TIP3    H2 3996   0.261   1.805   1.472
 1347TIP3   OH2 3997   3.363   1.255   0.135
 1347TIP3    H1 3998   3.445   1.241   0.182
 1347TIP3    H2 3999   3.388   1.302   0.056
 1348TIP3   OH2 4000   6.097   0.956   6.024
 1348TIP3    H1 4001   6.101   1.029   5.962
 1348TIP3    H2 4002   6.145   0.987   6.101
 1349TIP3   OH2 4003   5.036   4.579   5.073
 1349TIP3    H1 4004   5.099   4.506   5.075
 1349TIP3    H2 4005   5.050   4.624   5.156
 1350TIP3   OH2 4006   2.781   4.053   6.521
 1350TIP3    H1 4007   2.856   4.096   6.562
 1350TIP3    H2 4008   2.820   4.001   6.450
 1351TIP3   OH2 4009   5.963   3.171   0.288
 1351TIP3    H1 4010   5.982   3.154   0.196
 1351TIP3    H2 4011   5.870   3.153   0.297
 1352TIP3   OH2 4012   3.611   0.555   2.374
 1352TIP3    H1 4013   3.625   0.642   2.337
 1352TIP3    H2 4014   3.523   0.530   2.346
 1353TIP3   OH2 4015   2.189   0.963   3.422
 1353TIP3    H1 4016   2.120   0.998   3.366
 1353TIP3    H2 4017   2.191   1.022   3.498
 1354TIP3   OH2 4018   2.674   2.743   3.541
 1354TIP3    H1 4019   2.602   2.806   3.540
 1354TIP3    H2 4020   2.748   2.792   3.577
 1355TIP3   OH2 4021   5.227   6.036   2.098
 1355TIP3    H1 4022   5.267   6.122   2.112
 1355TIP3    H2 4023   5.138   6.055   2.068
 1356TIP3   OH2 4024   6.903   4.846   1.386
 1356TIP3    H1 4025   6.868   4.787   1.452
 1356TIP3    H2 4026   6.989   4.873   1.420
 1357TIP3   OH2 4027   2.999   2.698   5.172
 1357TIP3    H1 4028   3.059   2.646   5.117
 1357TIP3    H2 4029   3.012   2.664   5.260
 1358TIP3   OH2 4030   0.175   3.623   5.601
 1358TIP3    H1 4031   0.218   3.709   5.592
 1358TIP3    H2 4032   0.224   3.566   5.543
 1359TIP3   OH2 4033   6.145   4.446   6.597
 1359TIP3    H1 4034   6.193   4.509   6.651
 1359TIP3    H2 4035   6.065   4.428   6.646
 1360TIP3   OH2 4036   1.847   4.699   4.143
 1360TIP3    H1 4037   1.879   4.616   4.107
 1360TIP3    H2 4038   1.763   4.713   4.098
 1361TIP3   OH2 4039   1.028   2.357   6.355
 1361TIP3    H1 4040   0.945   2.401   6.336
 1361TIP3    H2 4041   1.080   2.370   6.276
 1362TIP3   OH2 4042   5.581   4.780   4.233
 1362TIP3    H1 4043   5.514   4.712   4.240
 1362TIP3    H2 4044   5.663   4.733   4.224
 1363TIP3   OH2 4045   7.446   6.359   0.370
 1363TIP3    H1 4046   7.524   6.321   0.410
 1363TIP3    H2 4047   7.471   6.449   0.350
 1364TIP3   OH2 4048   3.216   6.751   0.053
 1364TIP3    H1 4049   3.309   6.768   0.041
 1364TIP3    H2 4050   3.212   6.661   0.086
 1365TIP3   OH2 4051   3.249   6.300   5.605
 1365TIP3    H1 4052   3.253   6.218   5.555
 1365TIP3    H2 4053   3.259   6.368   5.539
 1366TIP3   OH2 4054   4.537   5.669   5.818
 1366TIP3    H1 4055   4.632   5.682   5.816
 1366TIP3    H2 4056   4.504   5.722   5.745
 1367TIP3   OH2 4057   2.460   3.712   4.888
 1367TIP3    H1 4058   2.443   3.731   4.795
 1367TIP3    H2 4059   2.374   3.711   4.928
 1368TIP3   OH2 4060   5.914   0.020   3.502
 1368TIP3    H1 4061   6.002   0.057   3.505
 1368TIP3    H2 4062   5.913  -0.034   3.423
 1369TIP3   OH2 4063   1.500   1.357   1.915
 1369TIP3    H1 4064   1.526   1.397   1.998
 1369TIP3    H2 4065   1.537   1.415   1.848
 1370TIP3   OH2 4066   5.702   1.761   6.137
 1370TIP3    H1 4067   5.682   1.808   6.218
 1370TIP3    H2 4068   5.616   1.737   6.102
 1371TIP3   OH2 4069   3.223   2.333   1.528
 1371TIP3    H1 4070   3.174   2.388   1.467
 1371TIP3    H2 4071   3.265   2.267   1.474
 1372TIP3   OH2 4072   1.500   4.279   4.056
 1372TIP3    H1 4073   1.435   4.214   4.029
 1372TIP3    H2 4074   1.509   4.337   3.980
 1373TIP3   OH2 4075   2.884   5.620   0.074
 1373TIP3    H1 4076   2.931   5.537   0.080
 1373TIP3    H2 4077   2.910   5.657  -0.011
 1374TIP3   OH2 4078   3.334   3.709   2.325
 1374TIP3    H1 4079   3.361   3.631   2.373
 1374TIP3    H2 4080   3.247   3.689   2.292
 1375TIP3   OH2 4081   3.749   5.887   0.126
 1375TIP3    H1 4082   3.817   5.955   0.127
 1375TIP3    H2 4083   3.681   5.920   0.184
 1376TIP3   OH2 4084   1.092   2.163   5.171
 1376TIP3    H1 4085   1.098   2.258   5.170
 1376TIP3    H2 4086   1.000   2.145   5.188
 1377TIP3   OH2 4087   8.089   3.454   2.971
 1377TIP3    H1 4088   8.097   3.474   2.878
 1377TIP3    H2 4089   8.125   3.366   2.979
 1378TIP3   OH2 4090   6.216   1.887   2.735
 1378TIP3    H1 4091   6.154   1.958   2.750
 1378TIP3    H2 4092   6.166   1.820   2.688
 1379TIP3   OH2 4093   8.064   1.107   1.959
 1379TIP3    H1 4094   8.000   1.145   2.020
 1379TIP3    H2 4095   8.115   1.046   2.013
 1380TIP3   OH2 4096   2.685   2.762   5.144
 1380TIP3    H1 4097   2.763   2.780   5.196
 1380TIP3    H2 4098   2.709   2.687   5.089
 1381TIP3   OH2 4099   1.207   2.381   2.756
 1381TIP3    H1 4100   1.183   2.438   2.683
 1381TIP3    H2 4101   1.124   2.348   2.790
 1382TIP3   OH2 4102   4.952   7.356   1.386
 1382TIP3    H1 4103   4.894   7.332   1.459
 1382TIP3    H2 4104   4.982   7.273   1.351
 1383TIP3   OH2 4105   1.150   6.174   5.872
 1383TIP3    H1 4106   1.146   6.226   5.952
 1383TIP3    H2 4107   1.103   6.227   5.807
 1384TIP3   OH2 4108   6.662   6.278   6.445
 1384TIP3    H1 4109   6.745   6.278   6.493
 1384TIP3    H2 4110   6.683   6.236   6.362
 1385TIP3   OH2 4111   6.295   4.406   3.040
 1385TIP3    H1 4112   6.307   4.312   3.048
 1385TIP3    H2 4113   6.304   4.439   3.130
 1386TIP3   OH2 4114   2.114   7.676   1.894
 1386TIP3    H1 4115   2.175   7.696   1.822
 1386TIP3    H2 4116   2.125   7.749   1.955
 1387TIP3   OH2 4117   1.057   6.908   5.408
 1387TIP3    H1 4118   1.132   6.955   5.442
 1387TIP3    H2 4119   1.011   6.971   5.352
 1388TIP3   OH2 4120   0.184   3.125   0.913
 1388TIP3    H1 4121   0.274   3.148   0.937
 1388TIP3    H2 4122   0.186   3.030   0.903
 1389TIP3   OH2 4123   2.142   1.159   4.730
 1389TIP3    H1 4124   2.199   1.203   4.793
 1389TIP3    H2 4125   2.095   1.094   4.782
 1390TIP3   OH2 4126   1.424   3.607   2.332
 1390TIP3    H1 4127   1.343   3.556   2.337
 1390TIP3    H2 4128   1.436   3.623   2.238
 1391TIP3   OH2 4129   2.828   0.105   0.250
 1391TIP3    H1 4130   2.756   0.042   0.245
 1391TIP3    H2 4131   2.785   0.190   0.243
 1392TIP3   OH2 4132   1.703   5.518   1.854
 1392TIP3    H1 4133   1.719   5.471   1.772
 1392TIP3    H2 4134   1.659   5.455   1.910
 1393TIP3   OH2 4135   6.878   6.514   2.674
 1393TIP3    H1 4136   6.892   6.440   2.615
 1393TIP3    H2 4137   6.824   6.575   2.623
 1394TIP3   OH2 4138   6.033   4.511   1.463
 1394TIP3    H1 4139   5.990   4.508   1.377
 1394TIP3    H2 4140   6.112   4.563   1.449
 1395TIP3   OH2 4141   1.165   5.585   5.632
 1395TIP3    H1 4142   1.110   5.652   5.672
 1395TIP3    H2 4143   1.197   5.532   5.705
 1396TIP3   OH2 4144   7.884   7.144   3.328
 1396TIP3    H1 4145   7.817   7.155   3.395
 1396TIP3    H2 4146   7.967   7.149   3.377
 1397TIP3   OH2 4147   6.278   6.130   4.838
 1397TIP3    H1 4148   6.187   6.112   4.817
 1397TIP3    H2 4149   6.291   6.221   4.809
 1398TIP3   OH2 4150   8.266   7.551   2.944
 1398TIP3    H1 4151   8.289   7.552   2.851
 1398TIP3    H2 4152   8.242   7.642   2.963
 1399TIP3   OH2 4153   3.849   1.472   5.968
 1399TIP3    H1 4154   3.918   1.512   5.915
 1399TIP3    H2 4155   3.795   1.425   5.905
 1400TIP3   OH2 4156   8.243   0.200   4.270
 1400TIP3    H1 4157   8.296   0.163   4.341
 1400TIP3    H2 4158   8.258   0.294   4.275
 1401TIP3   OH2 4159   6.655   1.648   4.436
 1401TIP3    H1 4160   6.662   1.552   4.437
 1401TIP3    H2 4161   6.567   1.664   4.400
 1402TIP3   OH2 4162   8.080   4.974   0.540
 1402TIP3    H1 4163   8.047   4.933   0.460
 1402TIP3    H2 4164   8.173   4.955   0.540
 1403TIP3   OH2 4165   7.696   4.219   3.438
 1403TIP3    H1 4166   7.698   4.270   3.519
 1403TIP3    H2 4167   7.766   4.256   3.384
 1404TIP3   OH2 4168   0.365   4.337   2.662
 1404TIP3    H1 4169   0.309   4.351   2.587
 1404TIP3    H2 4170   0.343   4.407   2.723
 1405TIP3   OH2 4171   6.931   7.304   5.240
 1405TIP3    H1 4172   6.967   7.215   5.239
 1405TIP3    H2 4173   6.914   7.325   5.148
 1406TIP3   OH2 4174   5.992   4.658   3.916
 1406TIP3    H1 4175   6.002   4.612   3.999
 1406TIP3    H2 4176   6.017   4.748   3.935
 1407TIP3   OH2 4177   8.208   3.008   2.420
 1407TIP3    H1 4178   8.226   2.943   2.352
 1407TIP3    H2 4179   8.290   3.055   2.431
 1408TIP3   OH2 4180   7.983   0.479   4.333
 1408TIP3    H1 4181   8.023   0.410   4.385
 1408TIP3    H2 4182   8.048   0.500   4.266
 1409TIP3   OH2 4183   4.197   2.895   2.157
 1409TIP3    H1 4184   4.180   2.948   2.079
 1409TIP3    H2 4185   4.190   2.956   2.230
 1410TIP3   OH2 4186   5.676   3.826   4.932
 1410TIP3    H1 4187   5.762   3.840   4.893
 1410TIP3    H2 4188   5.694   3.777   5.013
 1411TIP3   OH2 4189   4.493   3.719   3.198
 1411TIP3    H1 4190   4.461   3.686   3.282
 1411TIP3    H2 4191   4.561   3.783   3.222
 1412TIP3   OH2 4192   5.159   0.977   2.616
 1412TIP3    H1 4193   5.095   0.956   2.684
 1412TIP3    H2 4194   5.208   1.051   2.650
 1413TIP3   OH2 4195   1.677   7.111   1.660
 1413TIP3    H1 4196   1.659   7.113   1.753
 1413TIP3    H2 4197   1.692   7.203   1.637
 1414TIP3   OH2 4198   2.538   5.636   1.343
 1414TIP3    H1 4199   2.478   5.690   1.394
 1414TIP3    H2 4200   2.551   5.558   1.397
 1415TIP3   OH2 4201   7.807   1.329   0.295
 1415TIP3    H1 4202   7.802   1.365   0.384
 1415TIP3    H2 4203   7.724   1.352   0.255
 1416TIP3   OH2 4204   2.369   6.417   4.333
 1416TIP3    H1 4205   2.400   6.507   4.339
 1416TIP3    H2 4206   2.402   6.386   4.249
 1417TIP3   OH2 4207   6.440   0.586   3.143
 1417TIP3    H1 4208   6.470   0.512   3.196
 1417TIP3    H2 4209   6.518   0.614   3.094
 1418TIP3   OH2 4210   0.986   2.156   0.100
 1418TIP3    H1 4211   1.026   2.203   0.173
 1418TIP3    H2 4212   1.057   2.102   0.065
 1419TIP3   OH2 4213   4.912   5.211   3.967
 1419TIP3    H1 4214   4.948   5.256   4.043
 1419TIP3    H2 4215   4.877   5.282   3.912
 1420TIP3   OH2 4216   5.990   3.773   3.354
 1420TIP3    H1 4217   5.935   3.846   3.384
 1420TIP3    H2 4218   6.041   3.810   3.282
 1421TIP3   OH2 4219   1.308   1.399   4.668
 1421TIP3    H1 4220   1.331   1.393   4.760
 1421TIP3    H2 4221   1.319   1.310   4.634
 1422TIP3   OH2 4222   4.763   5.829   4.928
 1422TIP3    H1 4223   4.694   5.836   4.994
 1422TIP3    H2 4224   4.841   5.864   4.972
 1423TIP3   OH2 4225   1.065   3.036   4.295
 1423TIP3    H1 4226   1.158   3.021   4.311
 1423TIP3    H2 4227   1.060   3.060   4.203
 1424TIP3   OH2 4228   5.298   1.111   3.452
 1424TIP3    H1 4229   5.216   1.119   3.500
 1424TIP3    H2 4230   5.305   1.193   3.403
 1425TIP3   OH2 4231   3.457   4.492   1.021
 1425TIP3    H1 4232   3.494   4.504   0.934
 1425TIP3    H2 4233   3.369   4.529   1.016
 1426TIP3   OH2 4234   7.537   5.584   1.970
 1426TIP3    H1 4235   7.469   5.609   2.032
 1426TIP3    H2 4236   7.492   5.574   1.886
 1427TIP3   OH2 4237   2.855   6.051   6.320
 1427TIP3    H1 4238   2.903   6.032   6.240
 1427TIP3    H2 4239   2.800   6.126   6.299
 1428TIP3   OH2 4240   5.935   5.496   2.043
 1428TIP3    H1 4241   5.945   5.567   1.980
 1428TIP3    H2 4242   6.025   5.471   2.065
 1429TIP3   OH2 4243   0.583   6.597   2.010
 1429TIP3    H1 4244   0.568   6.551   1.928
 1429TIP3    H2 4245   0.581   6.529   2.077
 1430TIP3   OH2 4246   1.124   0.194   6.394
 1430TIP3    H1 4247   1.043   0.143   6.397
 1430TIP3    H2 4248   1.098   0.278   6.354
 1431TIP3   OH2 4249   0.170   3.083   2.083
 1431TIP3    H1 4250   0.186   3.060   1.991
 1431TIP3    H2 4251   0.077   3.104   2.086
 1432TIP3   OH2 4252   7.881   2.097   4.724
 1432TIP3    H1 4253   7.786   2.109   4.726
 1432TIP3    H2 4254   7.896   2.015   4.771
 1433TIP3   OH2 4255   6.780   6.172   0.326
 1433TIP3    H1 4256   6.756   6.095   0.378
 1433TIP3    H2 4257   6.845   6.139   0.264
 1434TIP3   OH2 4258   2.018   1.895   2.607
 1434TIP3    H1 4259   2.009   1.985   2.574
 1434TIP3    H2 4260   2.030   1.842   2.528
 1435TIP3   OH2 4261   1.581   3.166   0.727
 1435TIP3    H1 4262   1.509   3.202   0.675
 1435TIP3    H2 4263   1.543   3.154   0.815
 1436TIP3   OH2 4264   5.450   4.082   4.972
 1436TIP3    H1 4265   5.489   4.048   4.891
 1436TIP3    H2 4266   5.459   4.011   5.035
 1437TIP3   OH2 4267   3.327   4.858   2.990
 1437TIP3    H1 4268   3.411   4.827   2.958
 1437TIP3    H2 4269   3.267   4.784   2.975
 1438TIP3   OH2 4270   4.995   2.664   5.762
 1438TIP3    H1 4271   4.975   2.705   5.678
 1438TIP3    H2 4272   5.015   2.737   5.820
 1439TIP3   OH2 4273   4.257   3.857   4.968
 1439TIP3    H1 4274   4.323   3.920   4.994
 1439TIP3    H2 4275   4.223   3.822   5.051
 1440TIP3   OH2 4276   5.175   2.446   5.830
 1440TIP3    H1 4277   5.133   2.491   5.757
 1440TIP3    H2 4278   5.126   2.475   5.907
 1441TIP3   OH2 4279   1.634   6.518   5.609
 1441TIP3    H1 4280   1.671   6.433   5.635
 1441TIP3    H2 4281   1.673   6.581   5.670
 1442TIP3   OH2 4282   5.006   4.977   6.217
 1442TIP3    H1 4283   5.087   4.934   6.243
 1442TIP3    H2 4284   4.999   4.961   6.123
 1443TIP3   OH2 4285   5.531   5.840   6.024
 1443TIP3    H1 4286   5.609   5.858   5.971
 1443TIP3    H2 4287   5.507   5.924   6.061
 1444TIP3   OH2 4288   6.484   7.452   1.071
 1444TIP3    H1 4289   6.427   7.410   1.135
 1444TIP3    H2 4290   6.435   7.529   1.042
 1445TIP3   OH2 4291   0.430   1.289   6.732
 1445TIP3    H1 4292   0.475   1.302   6.816
 1445TIP3    H2 4293   0.447   1.369   6.683
 1446TIP3   OH2 4294   4.570   0.234   2.751
 1446TIP3    H1 4295   4.632   0.257   2.681
 1446TIP3    H2 4296   4.602   0.283   2.827
 1447TIP3   OH2 4297   5.386   5.068   2.703
 1447TIP3    H1 4298   5.327   5.053   2.776
 1447TIP3    H2 4299   5.457   5.120   2.740
 1448TIP3   OH2 4300   7.114   6.634   4.860
 1448TIP3    H1 4301   7.200   6.605   4.892
 1448TIP3    H2 4302   7.132   6.668   4.772
 1449TIP3   OH2 4303   4.637   1.882   4.675
 1449TIP3    H1 4304   4.562   1.823   4.682
 1449TIP3    H2 4305   4.598   1.968   4.657
 1450TIP3   OH2 4306   6.552   3.452   2.605
 1450TIP3    H1 4307   6.507   3.372   2.633
 1450TIP3    H2 4308   6.482   3.517   2.599
 1451TIP3   OH2 4309   4.839   6.345   0.286
 1451TIP3    H1 4310   4.821   6.324   0.378
 1451TIP3    H2 4311   4.928   6.312   0.271
 1452TIP3   OH2 4312   6.887   6.271   2.521
 1452TIP3    H1 4313   6.902   6.226   2.605
 1452TIP3    H2 4314   6.888   6.200   2.456
 1453TIP3   OH2 4315   3.153   5.063   3.089
 1453TIP3    H1 4316   3.066   5.025   3.105
 1453TIP3    H2 4317   3.212   4.988   3.089
 1454TIP3   OH2 4318   0.787   3.039   2.761
 1454TIP3    H1 4319   0.699   3.023   2.794
 1454TIP3    H2 4320   0.842   3.039   2.839
 1455TIP3   OH2 4321   5.209   3.979   3.972
 1455TIP3    H1 4322   5.221   3.912   4.040
 1455TIP3    H2 4323   5.132   4.028   4.001
 1456TIP3   OH2 4324   3.216   7.153   2.848
 1456TIP3    H1 4325   3.209   7.186   2.938
 1456TIP3    H2 4326   3.309   7.131   2.837
 1457TIP3   OH2 4327   4.112   0.241   5.574
 1457TIP3    H1 4328   4.086   0.328   5.545
 1457TIP3    H2 4329   4.197   0.253   5.616
 1458TIP3   OH2 4330   7.537   1.825   1.943
 1458TIP3    H1 4331   7.597   1.900   1.953
 1458TIP3    H2 4332   7.570   1.760   2.005
 1459TIP3   OH2 4333   0.302   7.662   0.822
 1459TIP3    H1 4334   0.361   7.646   0.748
 1459TIP3    H2 4335   0.303   7.580   0.871
 1460TIP3   OH2 4336   4.680   3.901   3.179
 1460TIP3    H1 4337   4.760   3.909   3.230
 1460TIP3    H2 4338   4.652   3.991   3.163
 1461TIP3   OH2 4339   4.186   4.899   5.558
 1461TIP3    H1 4340   4.147   4.895   5.645
 1461TIP3    H2 4341   4.249   4.828   5.556
 1462TIP3   OH2 4342   2.973   5.761   2.531
 1462TIP3    H1 4343   2.893   5.764   2.583
 1462TIP3    H2 4344   3.042   5.789   2.592
 1463TIP3   OH2 4345   0.480   6.193   2.796
 1463TIP3    H1 4346   0.496   6.240   2.877
 1463TIP3    H2 4347   0.426   6.252   2.744
 1464TIP3   OH2 4348   4.040   5.527   4.275
 1464TIP3    H1 4349   4.050   5.477   4.356
 1464TIP3    H2 4350   3.965   5.584   4.291
 1465TIP3   OH2 4351   3.784   0.502   2.765
 1465TIP3    H1 4352   3.853   0.472   2.824
 1465TIP3    H2 4353   3.770   0.429   2.704
 1466TIP3   OH2 4354   7.635   0.763   0.476
 1466TIP3    H1 4355   7.630   0.858   0.467
 1466TIP3    H2 4356   7.725   0.746   0.501
 1467TIP3   OH2 4357   5.971   3.024   2.188
 1467TIP3    H1 4358   5.877   3.042   2.196
 1467TIP3    H2 4359   6.003   3.024   2.278
 1468TIP3   OH2 4360   7.871   7.706   3.036
 1468TIP3    H1 4361   7.965   7.714   3.052
 1468TIP3    H2 4362   7.856   7.753   2.954
 1469TIP3   OH2 4363   0.844   3.017   4.909
 1469TIP3    H1 4364   0.782   3.074   4.953
 1469TIP3    H2 4365   0.851   2.940   4.966
 1470TIP3   OH2 4366   6.436   2.179   4.848
 1470TIP3    H1 4367   6.404   2.206   4.762
 1470TIP3    H2 4368   6.529   2.162   4.835
 1471TIP3   OH2 4369   1.571   0.992   6.404
 1471TIP3    H1 4370   1.665   0.975   6.408
 1471TIP3    H2 4371   1.530   0.916   6.446
 1472TIP3   OH2 4372   2.358   2.811   3.826
 1472TIP3    H1 4373   2.293   2.743   3.846
 1472TIP3    H2 4374   2.369   2.859   3.908
 1473TIP3   OH2 4375   1.326   5.735   6.444
 1473TIP3    H1 4376   1.390   5.767   6.507
 1473TIP3    H2 4377   1.360   5.649   6.416
 1474TIP3   OH2 4378   2.147   6.692   6.255
 1474TIP3    H1 4379   2.172   6.729   6.171
 1474TIP3    H2 4380   2.123   6.767   6.309
 1475TIP3   OH2 4381   2.571   6.767   1.745
 1475TIP3    H1 4382   2.648   6.806   1.786
 1475TIP3    H2 4383   2.511   6.751   1.817
 1476TIP3   OH2 4384   8.239   6.698   2.236
 1476TIP3    H1 4385   8.174   6.630   2.254
 1476TIP3    H2 4386   8.203   6.776   2.278
 1477TIP3   OH2 4387   1.356   2.109   1.633
 1477TIP3    H1 4388   1.280   2.160   1.662
 1477TIP3    H2 4389   1.424   2.174   1.615
 1478TIP3   OH2 4390   3.579   7.154   2.854
 1478TIP3    H1 4391   3.559   7.129   2.944
 1478TIP3    H2 4392   3.618   7.241   2.861
 1479TIP3   OH2 4393   5.708   0.134   5.843
 1479TIP3    H1 4394   5.713   0.083   5.924
 1479TIP3    H2 4395   5.615   0.144   5.827
 1480TIP3   OH2 4396   5.710   3.475   6.222
 1480TIP3    H1 4397   5.640   3.527   6.181
 1480TIP3    H2 4398   5.720   3.514   6.309
 1481TIP3   OH2 4399   4.901   7.316   2.674
 1481TIP3    H1 4400   4.909   7.407   2.704
 1481TIP3    H2 4401   4.809   7.294   2.689
 1482TIP3   OH2 4402   7.396   0.094   6.270
 1482TIP3    H1 4403   7.359   0.136   6.193
 1482TIP3    H2 4404   7.486   0.126   6.274
 1483TIP3   OH2 4405   4.851   1.982   0.153
 1483TIP3    H1 4406   4.830   2.073   0.136
 1483TIP3    H2 4407   4.796   1.933   0.092
 1484TIP3   OH2 4408   6.739   3.487   0.977
 1484TIP3    H1 4409   6.646   3.493   1.000
 1484TIP3    H2 4410   6.785   3.512   1.056
 1485TIP3   OH2 4411   1.352   2.911   1.512
 1485TIP3    H1 4412   1.441   2.946   1.504
 1485TIP3    H2 4413   1.310   2.932   1.428
 1486TIP3   OH2 4414   6.572   1.426   1.377
 1486TIP3    H1 4415   6.624   1.477   1.439
 1486TIP3    H2 4416   6.627   1.349   1.358
 1487TIP3   OH2 4417   4.853   7.062   5.698
 1487TIP3    H1 4418   4.922   7.045   5.634
 1487TIP3    H2 4419   4.869   7.000   5.768
 1488TIP3   OH2 4420   1.446   3.349   4.205
 1488TIP3    H1 4421   1.399   3.419   4.159
 1488TIP3    H2 4422   1.406   3.268   4.172
 1489TIP3   OH2 4423   1.067   1.642   1.044
 1489TIP3    H1 4424   1.067   1.592   0.962
 1489TIP3    H2 4425   1.159   1.646   1.070
 1490TIP3   OH2 4426   7.941   5.124   4.982
 1490TIP3    H1 4427   7.985   5.204   5.011
 1490TIP3    H2 4428   8.001   5.084   4.919
 1491TIP3   OH2 4429   2.859   3.467   1.326
 1491TIP3    H1 4430   2.900   3.453   1.412
 1491TIP3    H2 4431   2.810   3.387   1.310
 1492TIP3   OH2 4432   4.531   0.318   1.180
 1492TIP3    H1 4433   4.528   0.224   1.160
 1492TIP3    H2 4434   4.470   0.358   1.118
 1493TIP3   OH2 4435   0.935   4.451   3.499
 1493TIP3    H1 4436   0.866   4.507   3.464
 1493TIP3    H2 4437   0.895   4.406   3.573
 1494TIP3   OH2 4438   7.461   3.925   1.177
 1494TIP3    H1 4439   7.390   3.887   1.126
 1494TIP3    H2 4440   7.429   3.926   1.267
 1495TIP3   OH2 4441   6.725   2.709   2.429
 1495TIP3    H1 4442   6.813   2.714   2.391
 1495TIP3    H2 4443   6.702   2.616   2.424
 1496TIP3   OH2 4444   8.209   1.163   1.681
 1496TIP3    H1 4445   8.136   1.142   1.739
 1496TIP3    H2 4446   8.179   1.139   1.594
 1497TIP3   OH2 4447   1.521   2.150   3.344
 1497TIP3    H1 4448   1.438   2.188   3.316
 1497TIP3    H2 4449   1.556   2.108   3.265
 1498TIP3   OH2 4450   1.892   6.143   4.294
 1498TIP3    H1 4451   1.858   6.212   4.236
 1498TIP3    H2 4452   1.966   6.184   4.338
 1499TIP3   OH2 4453   6.118   2.463   2.225
 1499TIP3    H1 4454   6.197   2.515   2.211
 1499TIP3    H2 4455   6.151   2.376   2.251
 1500TIP3   OH2 4456   7.389   0.981   5.131
 1500TIP3    H1 4457   7.460   0.927   5.095
 1500TIP3    H2 4458   7.417   1.071   5.116
 1501TIP3   OH2 4459   2.717   1.843   4.040
 1501TIP3    H1 4460   2.643   1.826   3.981
 1501TIP3    H2 4461   2.707   1.778   4.110
 1502TIP3   OH2 4462   4.254   1.902   4.976
 1502TIP3    H1 4463   4.252   1.965   5.048
 1502TIP3    H2 4464   4.222   1.820   5.013
 1503TIP3   OH2 4465   0.698   3.711   2.974
 1503TIP3    H1 4466   0.720   3.709   3.068
 1503TIP3    H2 4467   0.759   3.775   2.937
 1504TIP3   OH2 4468   2.186   4.861   6.316
 1504TIP3    H1 4469   2.109   4.889   6.267
 1504TIP3    H2 4470   2.224   4.943   6.349
 1505TIP3   OH2 4471   6.985   0.397   2.921
 1505TIP3    H1 4472   7.048   0.365   2.984
 1505TIP3    H2 4473   6.926   0.323   2.905
 1506TIP3   OH2 4474   2.027   2.955   5.947
 1506TIP3    H1 4475   2.013   2.951   6.041
 1506TIP3    H2 4476   2.090   2.885   5.929
 1507TIP3   OH2 4477   4.603   6.533   3.342
 1507TIP3    H1 4478   4.578   6.451   3.385
 1507TIP3    H2 4479   4.649   6.583   3.410
 1508TIP3   OH2 4480   7.840   0.017   6.396
 1508TIP3    H1 4481   7.822   0.100   6.352
 1508TIP3    H2 4482   7.926   0.030   6.437
 1509TIP3   OH2 4483   2.490   4.365   3.268
 1509TIP3    H1 4484   2.406   4.337   3.232
 1509TIP3    H2 4485   2.554   4.330   3.206
 1510TIP3   OH2 4486   7.021   5.908   2.591
 1510TIP3    H1 4487   6.941   5.906   2.538
 1510TIP3    H2 4488   7.061   5.823   2.578
 1511TIP3   OH2 4489   0.538   7.530   4.334
 1511TIP3    H1 4490   0.516   7.460   4.273
 1511TIP3    H2 4491   0.458   7.542   4.386
 1512TIP3   OH2 4492   6.030   1.450   0.035
 1512TIP3    H1 4493   5.975   1.404  -0.029
 1512TIP3    H2 4494   5.969   1.489   0.096
 1513TIP3   OH2 4495   2.229   4.810   1.352
 1513TIP3    H1 4496   2.197   4.774   1.435
 1513TIP3    H2 4497   2.284   4.884   1.378
 1514TIP3   OH2 4498   4.460   2.391   4.468
 1514TIP3    H1 4499   4.493   2.480   4.470
 1514TIP3    H2 4500   4.526   2.342   4.419
 1515TIP3   OH2 4501   3.419   6.197   4.938
 1515TIP3    H1 4502   3.432   6.161   4.850
 1515TIP3    H2 4503   3.463   6.135   4.995
 1516TIP3   OH2 4504   5.651   6.162   4.861
 1516TIP3    H1 4505   5.709   6.095   4.824
 1516TIP3    H2 4506   5.647   6.141   4.954
 1517TIP3   OH2 4507   1.651   2.087   1.628
 1517TIP3    H1 4508   1.742   2.117   1.629
 1517TIP3    H2 4509   1.630   2.072   1.720
 1518TIP3   OH2 4510   5.001   0.450   5.877
 1518TIP3    H1 4511   4.980   0.496   5.796
 1518TIP3    H2 4512   5.064   0.507   5.921
 1519TIP3   OH2 4513   4.873   7.584   2.807
 1519TIP3    H1 4514   4.872   7.602   2.901
 1519TIP3    H2 4515   4.782   7.597   2.779
 1520TIP3   OH2 4516   2.358   2.742   0.165
 1520TIP3    H1 4517   2.378   2.816   0.108
 1520TIP3    H2 4518   2.359   2.779   0.253
 1521TIP3   OH2 4519   3.768   2.343   0.527
 1521TIP3    H1 4520   3.716   2.389   0.593
 1521TIP3    H2 4521   3.729   2.255   0.523
 1522TIP3   OH2 4522   5.820   0.051   0.457
 1522TIP3    H1 4523   5.862   0.030   0.541
 1522TIP3    H2 4524   5.821   0.146   0.453
 1523TIP3   OH2 4525   7.471   4.366   3.826
 1523TIP3    H1 4526   7.408   4.296   3.807
 1523TIP3    H2 4527   7.425   4.446   3.802
 1524TIP3   OH2 4528   5.274   6.048   1.140
 1524TIP3    H1 4529   5.288   5.958   1.168
 1524TIP3    H2 4530   5.246   6.094   1.219
 1525TIP3   OH2 4531   0.439   3.779   3.268
 1525TIP3    H1 4532   0.440   3.872   3.245
 1525TIP3    H2 4533   0.422   3.734   3.185
 1526TIP3   OH2 4534   5.693   7.024   0.236
 1526TIP3    H1 4535   5.656   7.109   0.263
 1526TIP3    H2 4536   5.692   7.027   0.140
 1527TIP3   OH2 4537   6.239   7.717   1.312
 1527TIP3    H1 4538   6.264   7.674   1.230
 1527TIP3    H2 4539   6.166   7.664   1.345
 1528TIP3   OH2 4540   3.702   1.107   2.517
 1528TIP3    H1 4541   3.681   1.119   2.424
 1528TIP3    H2 4542   3.773   1.042   2.517
 1529TIP3   OH2 4543   0.333   1.433   4.388
 1529TIP3    H1 4544   0.375   1.453   4.304
 1529TIP3    H2 4545   0.398   1.458   4.454
 1530TIP3   OH2 4546   6.463   7.268   4.988
 1530TIP3    H1 4547   6.430   7.273   5.078
 1530TIP3    H2 4548   6.403   7.323   4.937
 1531TIP3   OH2 4549   5.533   1.482   1.839
 1531TIP3    H1 4550   5.602   1.458   1.900
 1531TIP3    H2 4551   5.475   1.539   1.890
 1532TIP3   OH2 4552   0.743   4.418   0.455
 1532TIP3    H1 4553   0.736   4.331   0.495
 1532TIP3    H2 4554   0.806   4.465   0.510
 1533TIP3   OH2 4555   5.927   4.376   0.272
 1533TIP3    H1 4556   5.895   4.429   0.345
 1533TIP3    H2 4557   6.017   4.406   0.258
 1534TIP3   OH2 4558   1.770   4.188   3.862
 1534TIP3    H1 4559   1.755   4.232   3.778
 1534TIP3    H2 4560   1.844   4.131   3.846
 1535TIP3   OH2 4561   7.984   4.663   5.769
 1535TIP3    H1 4562   8.042   4.607   5.819
 1535TIP3    H2 4563   7.993   4.749   5.810
 1536TIP3   OH2 4564   7.952   6.015   6.565
 1536TIP3    H1 4565   7.898   5.940   6.590
 1536TIP3    H2 4566   8.035   5.976   6.535
 1537TIP3   OH2 4567   7.128   1.078   4.007
 1537TIP3    H1 4568   7.219   1.082   4.039
 1537TIP3    H2 4569   7.112   1.165   3.971
 1538TIP3   OH2 4570   1.836   4.519   2.054
 1538TIP3    H1 4571   1.767   4.532   2.119
 1538TIP3    H2 4572   1.790   4.517   1.970
 1539TIP3   OH2 4573   6.136   0.094   3.245
 1539TIP3    H1 4574   6.160   0.079   3.337
 1539TIP3    H2 4575   6.106   0.184   3.242
 1540TIP3   OH2 4576   4.908   7.743   3.053
 1540TIP3    H1 4577   4.839   7.806   3.072
 1540TIP3    H2 4578   4.898   7.676   3.121
 1541TIP3   OH2 4579   2.569   6.326   5.844
 1541TIP3    H1 4580   2.510   6.346   5.917
 1541TIP3    H2 4581   2.511   6.303   5.771
 1542TIP3   OH2 4582   1.375   1.280   2.950
 1542TIP3    H1 4583   1.284   1.252   2.960
 1542TIP3    H2 4584   1.386   1.349   3.016
 1543TIP3   OH2 4585   2.526   3.930   2.724
 1543TIP3    H1 4586   2.440   3.952   2.761
 1543TIP3    H2 4587   2.585   3.928   2.799
 1544TIP3   OH2 4588   5.601   5.109   0.141
 1544TIP3    H1 4589   5.622   5.109   0.235
 1544TIP3    H2 4590   5.667   5.165   0.102
 1545TIP3   OH2 4591   0.667   0.807   2.221
 1545TIP3    H1 4592   0.752   0.797   2.264
 1545TIP3    H2 4593   0.661   0.901   2.203
 1546TIP3   OH2 4594   4.458   3.675   5.554
 1546TIP3    H1 4595   4.503   3.603   5.510
 1546TIP3    H2 4596   4.513   3.695   5.630
 1547TIP3   OH2 4597   3.695   3.193   6.611
 1547TIP3    H1 4598   3.688   3.289   6.605
 1547TIP3    H2 4599   3.634   3.161   6.545
 1548TIP3   OH2 4600   7.918   1.654   1.986
 1548TIP3    H1 4601   7.842   1.599   1.969
 1548TIP3    H2 4602   7.992   1.594   1.985
 1549TIP3   OH2 4603   6.235   7.189   2.256
 1549TIP3    H1 4604   6.172   7.261   2.253
 1549TIP3    H2 4605   6.230   7.149   2.169
 1550TIP3   OH2 4606   6.061   5.082   1.025
 1550TIP3    H1 4607   6.081   5.144   0.955
 1550TIP3    H2 4608   6.103   5.118   1.103
 1551TIP3   OH2 4609   7.531   3.498   3.386
 1551TIP3    H1 4610   7.502   3.478   3.475
 1551TIP3    H2 4611   7.451   3.501   3.335
 1552TIP3   OH2 4612   7.133   3.920   6.317
 1552TIP3    H1 4613   7.052   3.957   6.284
 1552TIP3    H2 4614   7.125   3.826   6.302
 1553TIP3   OH2 4615   4.434   5.409   3.174
 1553TIP3    H1 4616   4.419   5.501   3.152
 1553TIP3    H2 4617   4.436   5.365   3.089
 1554TIP3   OH2 4618   7.017   4.688   5.601
 1554TIP3    H1 4619   7.025   4.722   5.512
 1554TIP3    H2 4620   7.026   4.765   5.657
 1555TIP3   OH2 4621   7.058   7.074   5.216
 1555TIP3    H1 4622   6.990   7.024   5.171
 1555TIP3    H2 4623   7.101   7.009   5.273
 1556TIP3   OH2 4624   4.607   6.555   2.922
 1556TIP3    H1 4625   4.641   6.554   2.832
 1556TIP3    H2 4626   4.545   6.628   2.923
 1557TIP3   OH2 4627   3.595   6.366   3.314
 1557TIP3    H1 4628   3.588   6.291   3.256
 1557TIP3    H2 4629   3.684   6.398   3.302
 1558TIP3   OH2 4630   2.204  -0.048   4.462
 1558TIP3    H1 4631   2.292  -0.011   4.453
 1558TIP3    H2 4632   2.146   0.028   4.462
 1559TIP3   OH2 4633   1.849   1.218   1.362
 1559TIP3    H1 4634   1.796   1.138   1.360
 1559TIP3    H2 4635   1.807   1.273   1.428
 1560TIP3   OH2 4636   2.824   3.823   4.204
 1560TIP3    H1 4637   2.875   3.776   4.138
 1560TIP3    H2 4638   2.768   3.882   4.154
 1561TIP3   OH2 4639   6.242   5.203   3.639
 1561TIP3    H1 4640   6.161   5.191   3.688
 1561TIP3    H2 4641   6.302   5.138   3.675
 1562TIP3   OH2 4642   2.638   7.387   1.356
 1562TIP3    H1 4643   2.683   7.344   1.429
 1562TIP3    H2 4644   2.670   7.341   1.278
 1563TIP3   OH2 4645   2.433   7.605   0.418
 1563TIP3    H1 4646   2.428   7.556   0.336
 1563TIP3    H2 4647   2.346   7.598   0.456
 1564TIP3   OH2 4648   1.279   2.112   5.777
 1564TIP3    H1 4649   1.232   2.191   5.750
 1564TIP3    H2 4650   1.325   2.138   5.857
 1565TIP3   OH2 4651   0.245   0.808   5.767
 1565TIP3    H1 4652   0.316   0.833   5.708
 1565TIP3    H2 4653   0.209   0.891   5.798
 1566TIP3   OH2 4654   3.718   7.805   0.753
 1566TIP3    H1 4655   3.713   7.736   0.687
 1566TIP3    H2 4656   3.804   7.844   0.740
 1567TIP3   OH2 4657   1.636   1.096   2.005
 1567TIP3    H1 4658   1.608   1.007   2.028
 1567TIP3    H2 4659   1.554   1.145   1.997
 1568TIP3   OH2 4660   7.576   7.606   3.661
 1568TIP3    H1 4661   7.634   7.682   3.661
 1568TIP3    H2 4662   7.551   7.594   3.753
 1569TIP3   OH2 4663   7.242   2.314   5.045
 1569TIP3    H1 4664   7.232   2.222   5.068
 1569TIP3    H2 4665   7.172   2.332   4.983
 1570TIP3   OH2 4666   4.610   3.143   2.178
 1570TIP3    H1 4667   4.638   3.235   2.181
 1570TIP3    H2 4668   4.661   3.105   2.106
 1571TIP3   OH2 4669   8.203   4.812   5.935
 1571TIP3    H1 4670   8.138   4.842   5.871
 1571TIP3    H2 4671   8.181   4.859   6.015
 1572TIP3   OH2 4672   2.280   6.919   0.590
 1572TIP3    H1 4673   2.237   6.995   0.550
 1572TIP3    H2 4674   2.321   6.953   0.669
 1573TIP3   OH2 4675   8.232   6.610   4.471
 1573TIP3    H1 4676   8.199   6.523   4.495
 1573TIP3    H2 4677   8.284   6.595   4.392
 1574TIP3   OH2 4678   7.115   2.242   3.025
 1574TIP3    H1 4679   7.192   2.287   2.989
 1574TIP3    H2 4680   7.080   2.303   3.090
 1575TIP3   OH2 4681   1.183   6.371   2.637
 1575TIP3    H1 4682   1.116   6.415   2.586
 1575TIP3    H2 4683   1.235   6.322   2.573
 1576TIP3   OH2 4684   7.885   1.216   4.451
 1576TIP3    H1 4685   7.916   1.187   4.365
 1576TIP3    H2 4686   7.803   1.168   4.464
 1577TIP3   OH2 4687   2.889   6.682   0.339
 1577TIP3    H1 4688   2.907   6.656   0.249
 1577TIP3    H2 4689   2.794   6.694   0.342
 1578TIP3   OH2 4690   3.666   2.699   1.522
 1578TIP3    H1 4691   3.666   2.683   1.617
 1578TIP3    H2 4692   3.695   2.790   1.513
 1579TIP3   OH2 4693   3.172   5.007   6.444
 1579TIP3    H1 4694   3.139   4.997   6.355
 1579TIP3    H2 4695   3.260   5.045   6.433
 1580TIP3   OH2 4696   4.659   2.690   5.752
 1580TIP3    H1 4697   4.620   2.777   5.739
 1580TIP3    H2 4698   4.753   2.704   5.740
 1581TIP3   OH2 4699   1.060   3.557   0.655
 1581TIP3    H1 4700   0.996   3.627   0.661
 1581TIP3    H2 4701   1.141   3.595   0.689
 1582TIP3   OH2 4702   8.014   7.815   4.652
 1582TIP3    H1 4703   7.974   7.729   4.664
 1582TIP3    H2 4704   8.046   7.814   4.562
 1583TIP3   OH2 4705   4.144   4.491   4.357
 1583TIP3    H1 4706   4.134   4.460   4.267
 1583TIP3    H2 4707   4.123   4.415   4.411
 1584TIP3   OH2 4708   6.183   6.623   6.237
 1584TIP3    H1 4709   6.245   6.556   6.266
 1584TIP3    H2 4710   6.190   6.691   6.304
 1585TIP3   OH2 4711   5.277   7.375   6.441
 1585TIP3    H1 4712   5.188   7.370   6.408
 1585TIP3    H2 4713   5.331   7.394   6.364
 1586TIP3   OH2 4714   8.248   0.567   6.420
 1586TIP3    H1 4715   8.308   0.637   6.445
 1586TIP3    H2 4716   8.266   0.551   6.327
 1587TIP3   OH2 4717   7.425   3.199   3.172
 1587TIP3    H1 4718   7.476   3.280   3.165
 1587TIP3    H2 4719   7.488   3.130   3.148
 1588TIP3   OH2 4720   5.038   4.150   4.728
 1588TIP3    H1 4721   5.059   4.080   4.790
 1588TIP3    H2 4722   5.121   4.193   4.711
 1589TIP3   OH2 4723   4.519   1.558   2.113
 1589TIP3    H1 4724   4.471   1.493   2.062
 1589TIP3    H2 4725   4.478   1.641   2.091
 1590TIP3   OH2 4726   2.080   3.780   2.606
 1590TIP3    H1 4727   2.052   3.730   2.682
 1590TIP3    H2 4728   2.165   3.743   2.583
 1591TIP3   OH2 4729   4.773   4.722   2.593
 1591TIP3    H1 4730   4.794   4.682   2.677
 1591TIP3    H2 4731   4.683   4.694   2.576
 1592TIP3   OH2 4732   7.577   6.062   1.520
 1592TIP3    H1 4733   7.501   6.104   1.480
 1592TIP3    H2 4734   7.565   5.969   1.502
 1593TIP3   OH2 4735   1.975   6.510   1.082
 1593TIP3    H1 4736   2.040   6.530   1.015
 1593TIP3    H2 4737   1.904   6.466   1.035
 1594TIP3   OH2 4738   4.790   5.458   3.133
 1594TIP3    H1 4739   4.799   5.510   3.212
 1594TIP3    H2 4740   4.751   5.518   3.069
 1595TIP3   OH2 4741   0.361   1.686   4.986
 1595TIP3    H1 4742   0.434   1.644   5.031
 1595TIP3    H2 4743   0.310   1.614   4.949
 1596TIP3   OH2 4744   7.330   2.247   4.349
 1596TIP3    H1 4745   7.290   2.258   4.435
 1596TIP3    H2 4746   7.409   2.301   4.352
 1597TIP3   OH2 4747   1.571   6.198   2.688
 1597TIP3    H1 4748   1.541   6.254   2.617
 1597TIP3    H2 4749   1.662   6.224   2.703
 1598TIP3   OH2 4750   8.145   7.425   2.627
 1598TIP3    H1 4751   8.061   7.399   2.588
 1598TIP3    H2 4752   8.133   7.517   2.649
 1599TIP3   OH2 4753   3.668   1.257   0.989
 1599TIP3    H1 4754   3.668   1.348   1.020
 1599TIP3    H2 4755   3.648   1.205   1.067
 1600TIP3   OH2 4756   0.208   1.732   6.604
 1600TIP3    H1 4757   0.210   1.813   6.554
 1600TIP3    H2 4758   0.144   1.677   6.558
 1601TIP3   OH2 4759   3.499   5.671   3.977
 1601TIP3    H1 4760   3.424   5.689   3.921
 1601TIP3    H2 4761   3.567   5.640   3.917
 1602TIP3   OH2 4762   3.695   0.609   3.612
 1602TIP3    H1 4763   3.750   0.532   3.616
 1602TIP3    H2 4764   3.655   0.614   3.699
 1603TIP3   OH2 4765   6.307   0.421   6.143
 1603TIP3    H1 4766   6.304   0.406   6.048
 1603TIP3    H2 4767   6.234   0.480   6.160
 1604TIP3   OH2 4768   0.362   7.648   4.990
 1604TIP3    H1 4769   0.386   7.684   4.905
 1604TIP3    H2 4770   0.408   7.564   4.995
 1605TIP3   OH2 4771   7.978   5.913   6.084
 1605TIP3    H1 4772   7.925   5.980   6.126
 1605TIP3    H2 4773   7.998   5.949   5.998
 1606TIP3   OH2 4774   5.369   1.688   3.992
 1606TIP3    H1 4775   5.335   1.637   4.065
 1606TIP3    H2 4776   5.329   1.775   4.002
 1607TIP3   OH2 4777   2.840   1.410   1.819
 1607TIP3    H1 4778   2.864   1.470   1.749
 1607TIP3    H2 4779   2.754   1.377   1.794
 1608TIP3   OH2 4780   0.995   3.677   5.123
 1608TIP3    H1 4781   1.075   3.670   5.072
 1608TIP3    H2 4782   0.930   3.626   5.074
 1609TIP3   OH2 4783   2.287   0.368   1.158
 1609TIP3    H1 4784   2.363   0.412   1.196
 1609TIP3    H2 4785   2.236   0.439   1.118
 1610TIP3   OH2 4786   4.476   6.334   2.038
 1610TIP3    H1 4787   4.516   6.365   2.120
 1610TIP3    H2 4788   4.475   6.238   2.047
 1611TIP3   OH2 4789   2.606   4.243   2.135
 1611TIP3    H1 4790   2.539   4.210   2.194
 1611TIP3    H2 4791   2.564   4.244   2.049
 1612TIP3   OH2 4792   2.988   2.259   5.131
 1612TIP3    H1 4793   2.901   2.294   5.147
 1612TIP3    H2 4794   2.987   2.232   5.039
 1613TIP3   OH2 4795   2.482   3.129   5.162
 1613TIP3    H1 4796   2.411   3.187   5.133
 1613TIP3    H2 4797   2.561   3.166   5.123
 1614TIP3   OH2 4798   7.306   6.966   3.436
 1614TIP3    H1 4799   7.326   6.941   3.526
 1614TIP3    H2 4800   7.289   6.883   3.391
 1615TIP3   OH2 4801   4.574   4.169   5.632
 1615TIP3    H1 4802   4.599   4.229   5.562
 1615TIP3    H2 4803   4.587   4.082   5.594
 1616TIP3   OH2 4804   0.949   3.713   2.670
 1616TIP3    H1 4805   1.037   3.709   2.708
 1616TIP3    H2 4806   0.947   3.796   2.624
 1617TIP3   OH2 4807   7.576   0.912   5.721
 1617TIP3    H1 4808   7.598   0.947   5.634
 1617TIP3    H2 4809   7.642   0.845   5.737
 1618TIP3   OH2 4810   2.920   1.055   4.338
 1618TIP3    H1 4811   2.979   1.124   4.369
 1618TIP3    H2 4812   2.833   1.085   4.364
 1619TIP3   OH2 4813   2.873   6.084   5.810
 1619TIP3    H1 4814   2.894   6.166   5.763
 1619TIP3    H2 4815   2.921   6.091   5.892
 1620TIP3   OH2 4816   1.754   0.554   3.641
 1620TIP3    H1 4817   1.758   0.546   3.546
 1620TIP3    H2 4818   1.661   0.554   3.662
 1621TIP3   OH2 4819   6.467   4.356   1.513
 1621TIP3    H1 4820   6.401   4.405   1.562
 1621TIP3    H2 4821   6.531   4.423   1.487
 1622TIP3   OH2 4822   3.328   0.747   0.226
 1622TIP3    H1 4823   3.312   0.841   0.234
 1622TIP3    H2 4824   3.362   0.721   0.311
 1623TIP3   OH2 4825   7.457   0.203   3.292
 1623TIP3    H1 4826   7.373   0.249   3.300
 1623TIP3    H2 4827   7.439   0.115   3.325
 1624TIP3   OH2 4828   5.019   1.095   6.264
 1624TIP3    H1 4829   4.985   1.127   6.348
 1624TIP3    H2 4830   5.105   1.135   6.257
 1625TIP3   OH2 4831   2.484   3.086   0.208
 1625TIP3    H1 4832   2.442   3.062   0.125
 1625TIP3    H2 4833   2.416   3.132   0.257
 1626TIP3   OH2 4834   2.506  -0.018   0.999
 1626TIP3    H1 4835   2.534  -0.096   1.047
 1626TIP3    H2 4836   2.551   0.054   1.042
 1627TIP3   OH2 4837   7.446   7.052   5.331
 1627TIP3    H1 4838   7.484   6.974   5.289
 1627TIP3    H2 4839   7.404   7.099   5.259
 1628TIP3   OH2 4840   4.914   4.244   0.397
 1628TIP3    H1 4841   4.990   4.296   0.420
 1628TIP3    H2 4842   4.930   4.214   0.308
 1629TIP3   OH2 4843   7.385   0.941   4.820
 1629TIP3    H1 4844   7.402   0.854   4.856
 1629TIP3    H2 4845   7.425   1.001   4.883
 1630TIP3   OH2 4846   7.883   6.959   5.419
 1630TIP3    H1 4847   7.881   6.977   5.325
 1630TIP3    H2 4848   7.826   6.882   5.430
 1631TIP3   OH2 4849   2.883   2.458   4.463
 1631TIP3    H1 4850   2.917   2.479   4.376
 1631TIP3    H2 4851   2.789   2.475   4.456
 1632TIP3   OH2 4852   6.315   5.482   6.550
 1632TIP3    H1 4853   6.369   5.483   6.471
 1632TIP3    H2 4854   6.323   5.393   6.584
 1633TIP3   OH2 4855   0.564   6.411   5.860
 1633TIP3    H1 4856   0.564   6.472   5.786
 1633TIP3    H2 4857   0.654   6.413   5.893
 1634TIP3   OH2 4858   5.710  -0.020   2.042
 1634TIP3    H1 4859   5.725   0.072   2.062
 1634TIP3    H2 4860   5.632  -0.020   1.986
 1635TIP3   OH2 4861   2.658   7.177   5.128
 1635TIP3    H1 4862   2.659   7.264   5.168
 1635TIP3    H2 4863   2.590   7.182   5.062
 1636TIP3   OH2 4864   1.560   4.100   2.711
 1636TIP3    H1 4865   1.587   4.171   2.653
 1636TIP3    H2 4866   1.475   4.128   2.745
 1637TIP3   OH2 4867   5.713   1.346   1.444
 1637TIP3    H1 4868   5.795   1.318   1.402
 1637TIP3    H2 4869   5.714   1.442   1.437
 1638TIP3   OH2 4870   0.203   0.029   2.512
 1638TIP3    H1 4871   0.155   0.086   2.571
 1638TIP3    H2 4872   0.295   0.043   2.535
 1639TIP3   OH2 4873   6.065   0.589   6.084
 1639TIP3    H1 4874   6.027   0.629   6.162
 1639TIP3    H2 4875   5.990   0.575   6.025
 1640TIP3   OH2 4876   7.280   6.466   5.223
 1640TIP3    H1 4877   7.210   6.409   5.191
 1640TIP3    H2 4878   7.326   6.495   5.144
 1641TIP3   OH2 4879   5.748   4.398   4.070
 1641TIP3    H1 4880   5.781   4.480   4.106
 1641TIP3    H2 4881   5.818   4.368   4.012
 1642TIP3   OH2 4882   1.221   0.642   3.244
 1642TIP3    H1 4883   1.142   0.682   3.279
 1642TIP3    H2 4884   1.288   0.709   3.254
 1643TIP3   OH2 4885   8.159   0.976   4.592
 1643TIP3    H1 4886   8.151   0.881   4.583
 1643TIP3    H2 4887   8.216   1.002   4.520
 1644TIP3   OH2 4888   2.764   1.227   2.909
 1644TIP3    H1 4889   2.846   1.201   2.952
 1644TIP3    H2 4890   2.762   1.322   2.918
 1645TIP3   OH2 4891   5.406   2.666   5.663
 1645TIP3    H1 4892   5.458   2.708   5.594
 1645TIP3    H2 4893   5.349   2.605   5.616
 1646TIP3   OH2 4894   1.242   5.380   3.406
 1646TIP3    H1 4895   1.242   5.458   3.352
 1646TIP3    H2 4896   1.315   5.393   3.467
 1647TIP3   OH2 4897   0.565   5.620   6.292
 1647TIP3    H1 4898   0.640   5.610   6.351
 1647TIP3    H2 4899   0.600   5.666   6.216
 1648TIP3   OH2 4900   1.729   4.338   5.575
 1648TIP3    H1 4901   1.715   4.252   5.616
 1648TIP3    H2 4902   1.671   4.397   5.623
 1649TIP3   OH2 4903   5.019   5.286   6.525
 1649TIP3    H1 4904   4.951   5.339   6.569
 1649TIP3    H2 4905   4.993   5.196   6.543
 1650TIP3   OH2 4906   6.113   3.896   6.455
 1650TIP3    H1 4907   6.160   3.883   6.372
 1650TIP3    H2 4908   6.073   3.812   6.473
 1651TIP3   OH2 4909   3.307   3.933   1.511
 1651TIP3    H1 4910   3.381   3.890   1.469
 1651TIP3    H2 4911   3.314   3.909   1.604
 1652TIP3   OH2 4912   6.684   5.547   2.348
 1652TIP3    H1 4913   6.717   5.466   2.387
 1652TIP3    H2 4914   6.598   5.525   2.314
 1653TIP3   OH2 4915   7.358   1.715   3.288
 1653TIP3    H1 4916   7.297   1.783   3.317
 1653TIP3    H2 4917   7.389   1.745   3.203
 1654TIP3   OH2 4918   7.413   2.802   3.648
 1654TIP3    H1 4919   7.431   2.717   3.688
 1654TIP3    H2 4920   7.320   2.799   3.627
 1655TIP3   OH2 4921   5.893   0.110   5.125
 1655TIP3    H1 4922   5.852   0.035   5.082
 1655TIP3    H2 4923   5.949   0.071   5.192
 1656TIP3   OH2 4924   1.851   6.213   3.434
 1656TIP3    H1 4925   1.807   6.298   3.436
 1656TIP3    H2 4926   1.797   6.156   3.489
 1657TIP3   OH2 4927   6.718   6.502   5.325
 1657TIP3    H1 4928   6.673   6.579   5.358
 1657TIP3    H2 4929   6.649   6.437   5.313
 1658TIP3   OH2 4930   7.351   7.284   3.183
 1658TIP3    H1 4931   7.403   7.241   3.251
 1658TIP3    H2 4932   7.407   7.285   3.106
 1659TIP3   OH2 4933   5.510   4.872   3.300
 1659TIP3    H1 4934   5.557   4.823   3.233
 1659TIP3    H2 4935   5.524   4.823   3.381
 1660TIP3   OH2 4936   7.449   1.848   2.529
 1660TIP3    H1 4937   7.377   1.801   2.487
 1660TIP3    H2 4938   7.481   1.908   2.462
 1661TIP3   OH2 4939   2.438   4.867   2.079
 1661TIP3    H1 4940   2.525   4.907   2.086
 1661TIP3    H2 4941   2.437   4.800   2.148
 1662TIP3   OH2 4942   2.500   1.360   6.204
 1662TIP3    H1 4943   2.455   1.293   6.152
 1662TIP3    H2 4944   2.582   1.320   6.231
 1663TIP3   OH2 4945   2.235   7.242   2.139
 1663TIP3    H1 4946   2.174   7.167   2.142
 1663TIP3    H2 4947   2.315   7.206   2.101
 1664TIP3   OH2 4948   0.263   1.739   2.066
 1664TIP3    H1 4949   0.207   1.727   1.989
 1664TIP3    H2 4950   0.343   1.690   2.046
 1665TIP3   OH2 4951   2.382   6.107   4.354
 1665TIP3    H1 4952   2.457   6.048   4.349
 1665TIP3    H2 4953   2.419   6.192   4.379
 1666TIP3   OH2 4954   4.577   0.115   0.428
 1666TIP3    H1 4955   4.611   0.199   0.460
 1666TIP3    H2 4956   4.647   0.052   0.447
 1667TIP3   OH2 4957   2.059   1.534   0.957
 1667TIP3    H1 4958   2.136   1.575   0.997
 1667TIP3    H2 4959   2.084   1.442   0.945
 1668TIP3   OH2 4960   7.986   4.901   5.500
 1668TIP3    H1 4961   7.954   4.983   5.538
 1668TIP3    H2 4962   7.994   4.841   5.575
 1669TIP3   OH2 4963   8.228   3.391   4.021
 1669TIP3    H1 4964   8.246   3.325   4.088
 1669TIP3    H2 4965   8.164   3.350   3.963
 1670TIP3   OH2 4966   3.546   1.455   1.165
 1670TIP3    H1 4967   3.477   1.388   1.175
 1670TIP3    H2 4968   3.498   1.538   1.162
 1671TIP3   OH2 4969   0.420   0.282   2.340
 1671TIP3    H1 4970   0.371   0.363   2.322
 1671TIP3    H2 4971   0.508   0.299   2.307
 1672TIP3   OH2 4972   1.650   0.855   0.686
 1672TIP3    H1 4973   1.591   0.811   0.624
 1672TIP3    H2 4974   1.640   0.806   0.767
 1673TIP3   OH2 4975   7.995   1.758   0.093
 1673TIP3    H1 4976   8.032   1.747   0.005
 1673TIP3    H2 4977   7.914   1.807   0.079
 1674TIP3   OH2 4978   6.612   6.348   4.633
 1674TIP3    H1 4979   6.543   6.373   4.571
 1674TIP3    H2 4980   6.591   6.257   4.657
 1675TIP3   OH2 4981   5.297   5.249   4.771
 1675TIP3    H1 4982   5.302   5.338   4.737
 1675TIP3    H2 4983   5.373   5.205   4.734
 1676TIP3   OH2 4984   3.633   6.518   5.901
 1676TIP3    H1 4985   3.540   6.510   5.879
 1676TIP3    H2 4986   3.635   6.516   5.997
 1677TIP3   OH2 4987   5.747   2.393   3.271
 1677TIP3    H1 4988   5.735   2.484   3.245
 1677TIP3    H2 4989   5.828   2.366   3.227
 1678TIP3   OH2 4990   6.490   1.315   4.288
 1678TIP3    H1 4991   6.457   1.226   4.275
 1678TIP3    H2 4992   6.429   1.355   4.350
 1679TIP3   OH2 4993   3.999   7.473   3.921
 1679TIP3    H1 4994   4.069   7.469   3.856
 1679TIP3    H2 4995   3.958   7.559   3.906
 1680TIP3   OH2 4996   4.111   1.478   4.795
 1680TIP3    H1 4997   4.112   1.406   4.858
 1680TIP3    H2 4998   4.018   1.503   4.788
 1681TIP3   OH2 4999   1.638   5.971   6.343
 1681TIP3    H1 5000   1.550   6.008   6.341
 1681TIP3    H2 5001   1.629   5.890   6.393
 1682TIP3   OH2 5002   5.740   0.081   5.566
 1682TIP3    H1 5003   5.720   0.134   5.643
 1682TIP3    H2 5004   5.680   0.113   5.499
 1683TIP3   OH2 5005   0.884   7.584   5.729
 1683TIP3    H1 5006   0.852   7.646   5.795
 1683TIP3    H2 5007   0.848   7.500   5.757
 1684TIP3   OH2 5008   2.050   0.058   6.595
 1684TIP3    H1 5009   1.958   0.044   6.620
 1684TIP3    H2 5010   2.098  -0.006   6.648
 1685TIP3   OH2 5011   3.331   5.152   2.390
 1685TIP3    H1 5012   3.354   5.176   2.301
 1685TIP3    H2 5013   3.312   5.235   2.433
 1686TIP3   OH2 5014   4.314   0.204   0.507
 1686TIP3    H1 5015   4.327   0.294   0.478
 1686TIP3    H2 5016   4.339   0.150   0.432
 1687TIP3   OH2 5017   7.979   4.530   4.622
 1687TIP3    H1 5018   8.055   4.479   4.592
 1687TIP3    H2 5019   8.017   4.613   4.651
 1688TIP3   OH2 5020   3.976   1.759   0.638
 1688TIP3    H1 5021   4.069   1.773   0.616
 1688TIP3    H2 5022   3.936   1.845   0.626
 1689TIP3   OH2 5023   4.157   4.544   0.077
 1689TIP3    H1 5024   4.135   4.495   0.157
 1689TIP3    H2 5025   4.080   4.534   0.021
 1690TIP3   OH2 5026   1.039   2.626   1.067
 1690TIP3    H1 5027   1.133   2.611   1.075
 1690TIP3    H2 5028   0.999   2.543   1.093
 1691TIP3   OH2 5029   2.537   0.033   0.436
 1691TIP3    H1 5030   2.495   0.114   0.408
 1691TIP3    H2 5031   2.534  -0.023   0.359
 1692TIP3   OH2 5032   2.077   4.867   5.550
 1692TIP3    H1 5033   2.014   4.920   5.598
 1692TIP3    H2 5034   2.032   4.839   5.471
 1693TIP3   OH2 5035   0.391   5.470   3.725
 1693TIP3    H1 5036   0.354   5.527   3.792
 1693TIP3    H2 5037   0.486   5.483   3.732
 1694TIP3   OH2 5038   0.085   4.622   0.058
 1694TIP3    H1 5039   0.036   4.604  -0.022
 1694TIP3    H2 5040   0.122   4.710   0.044
 1695TIP3   OH2 5041   6.033   5.219   2.983
 1695TIP3    H1 5042   6.126   5.200   2.974
 1695TIP3    H2 5043   6.022   5.306   2.943
 1696TIP3   OH2 5044   8.161   0.352   1.153
 1696TIP3    H1 5045   8.253   0.372   1.170
 1696TIP3    H2 5046   8.118   0.367   1.237
 1697TIP3   OH2 5047   4.180   6.968   3.730
 1697TIP3    H1 5048   4.111   7.024   3.765
 1697TIP3    H2 5049   4.164   6.966   3.635
 1698TIP3   OH2 5050   3.502   0.096   2.241
 1698TIP3    H1 5051   3.476   0.066   2.154
 1698TIP3    H2 5052   3.419   0.115   2.285
 1699TIP3   OH2 5053   1.153   6.316   0.635
 1699TIP3    H1 5054   1.217   6.245   0.635
 1699TIP3    H2 5055   1.068   6.272   0.643
 1700TIP3   OH2 5056   6.752   4.473   2.393
 1700TIP3    H1 5057   6.778   4.564   2.412
 1700TIP3    H2 5058   6.724   4.439   2.478
 1701TIP3   OH2 5059   1.319   6.292   6.793
 1701TIP3    H1 5060   1.227   6.318   6.792
 1701TIP3    H2 5061   1.335   6.260   6.704
 1702TIP3   OH2 5062   2.340   1.919   0.335
 1702TIP3    H1 5063   2.375   1.843   0.381
 1702TIP3    H2 5064   2.417   1.965   0.302
 1703TIP3   OH2 5065   3.732   4.411   1.059
 1703TIP3    H1 5066   3.676   4.374   0.991
 1703TIP3    H2 5067   3.689   4.492   1.084
 1704TIP3   OH2 5068   2.559   3.098   1.235
 1704TIP3    H1 5069   2.471   3.119   1.268
 1704TIP3    H2 5070   2.552   3.008   1.205
 1705TIP3   OH2 5071   7.542   4.429   4.495
 1705TIP3    H1 5072   7.614   4.405   4.552
 1705TIP3    H2 5073   7.583   4.475   4.422
 1706TIP3   OH2 5074   7.019   4.601   1.820
 1706TIP3    H1 5075   6.960   4.564   1.885
 1706TIP3    H2 5076   6.973   4.680   1.789
 1707TIP3   OH2 5077   8.131   6.436   5.402
 1707TIP3    H1 5078   8.156   6.362   5.457
 1707TIP3    H2 5079   8.201   6.443   5.337
 1708TIP3   OH2 5080   2.878   2.961   1.438
 1708TIP3    H1 5081   2.849   2.927   1.353
 1708TIP3    H2 5082   2.831   3.044   1.447
 1709TIP3   OH2 5083   8.155   0.115   0.959
 1709TIP3    H1 5084   8.179   0.184   1.020
 1709TIP3    H2 5085   8.232   0.104   0.904
 1710TIP3   OH2 5086   4.811   4.956   2.229
 1710TIP3    H1 5087   4.756   4.953   2.307
 1710TIP3    H2 5088   4.889   4.906   2.253
 1711TIP3   OH2 5089   1.838   5.915   0.522
 1711TIP3    H1 5090   1.923   5.918   0.477
 1711TIP3    H2 5091   1.802   5.829   0.498
 1712TIP3   OH2 5092   7.740   5.746   2.035
 1712TIP3    H1 5093   7.662   5.692   2.024
 1712TIP3    H2 5094   7.726   5.794   2.117
 1713TIP3   OH2 5095   3.510   2.785   0.458
 1713TIP3    H1 5096   3.446   2.741   0.514
 1713TIP3    H2 5097   3.583   2.805   0.517
 1714TIP3   OH2 5098   5.040   0.346   3.501
 1714TIP3    H1 5099   4.968   0.284   3.487
 1714TIP3    H2 5100   5.004   0.430   3.471
 1715TIP3   OH2 5101   7.203   3.628   4.023
 1715TIP3    H1 5102   7.132   3.583   3.977
 1715TIP3    H2 5103   7.272   3.562   4.031
 1716TIP3   OH2 5104   7.068   4.108   5.994
 1716TIP3    H1 5105   7.125   4.185   5.996
 1716TIP3    H2 5106   7.127   4.034   5.985
 1717TIP3   OH2 5107   5.251   5.884   5.120
 1717TIP3    H1 5108   5.255   5.965   5.068
 1717TIP3    H2 5109   5.329   5.887   5.175
 1718TIP3   OH2 5110   6.357   5.199   2.614
 1718TIP3    H1 5111   6.299   5.123   2.622
 1718TIP3    H2 5112   6.307   5.262   2.562
 1719TIP3   OH2 5113   2.377   5.161   2.529
 1719TIP3    H1 5114   2.452   5.139   2.473
 1719TIP3    H2 5115   2.339   5.239   2.487
 1720TIP3   OH2 5116   0.180   5.909   1.824
 1720TIP3    H1 5117   0.146   5.987   1.782
 1720TIP3    H2 5118   0.116   5.840   1.804
 1721TIP3   OH2 5119   8.028   5.923   4.756
 1721TIP3    H1 5120   8.109   5.907   4.707
 1721TIP3    H2 5121   8.058   5.940   4.846
 1722TIP3   OH2 5122   3.904   0.129   6.377
 1722TIP3    H1 5123   3.835   0.067   6.399
 1722TIP3    H2 5124   3.886   0.154   6.286
 1723TIP3   OH2 5125   2.732   3.882   1.519
 1723TIP3    H1 5126   2.793   3.815   1.487
 1723TIP3    H2 5127   2.669   3.835   1.573
 1724TIP3   OH2 5128   4.358   0.402   2.372
 1724TIP3    H1 5129   4.306   0.343   2.426
 1724TIP3    H2 5130   4.312   0.486   2.376
 1725TIP3   OH2 5131   4.485   1.474   5.132
 1725TIP3    H1 5132   4.460   1.387   5.163
 1725TIP3    H2 5133   4.473   1.470   5.037
 1726TIP3   OH2 5134   5.377   7.080   1.566
 1726TIP3    H1 5135   5.374   7.169   1.601
 1726TIP3    H2 5136   5.343   7.025   1.637
 1727TIP3   OH2 5137   2.394   6.105   6.477
 1727TIP3    H1 5138   2.435   6.025   6.508
 1727TIP3    H2 5139   2.359   6.146   6.556
 1728TIP3   OH2 5140   8.171   4.540   5.257
 1728TIP3    H1 5141   8.251   4.487   5.263
 1728TIP3    H2 5142   8.126   4.524   5.340
 1729TIP3   OH2 5143   4.060   5.958   4.353
 1729TIP3    H1 5144   4.017   6.037   4.386
 1729TIP3    H2 5145   4.142   5.990   4.314
 1730TIP3   OH2 5146   0.538   4.684   5.955
 1730TIP3    H1 5147   0.504   4.698   6.043
 1730TIP3    H2 5148   0.633   4.689   5.965
 1731TIP3   OH2 5149   4.363   7.579   6.307
 1731TIP3    H1 5150   4.449   7.600   6.271
 1731TIP3    H2 5151   4.301   7.626   6.251
 1732TIP3   OH2 5152   4.501   1.522   4.159
 1732TIP3    H1 5153   4.553   1.443   4.142
 1732TIP3    H2 5154   4.566   1.590   4.174
 1733TIP3   OH2 5155   1.470   2.401   0.573
 1733TIP3    H1 5156   1.546   2.359   0.532
 1733TIP3    H2 5157   1.437   2.461   0.506
 1734TIP3   OH2 5158   4.829   5.679   3.291
 1734TIP3    H1 5159   4.879   5.732   3.353
 1734TIP3    H2 5160   4.854   5.712   3.205
 1735TIP3   OH2 5161   0.686   7.098   4.207
 1735TIP3    H1 5162   0.718   7.012   4.179
 1735TIP3    H2 5163   0.676   7.090   4.302
 1736TIP3   OH2 5164   2.375   3.094   0.885
 1736TIP3    H1 5165   2.320   3.107   0.963
 1736TIP3    H2 5166   2.397   3.182   0.857
 1737TIP3   OH2 5167   2.509   4.927   0.037
 1737TIP3    H1 5168   2.577   4.905   0.101
 1737TIP3    H2 5169   2.444   4.976   0.088
 1738TIP3   OH2 5170   6.039   7.803   5.839
 1738TIP3    H1 5171   6.024   7.808   5.745
 1738TIP3    H2 5172   5.978   7.865   5.877
 1739TIP3   OH2 5173  -0.012   6.444   3.787
 1739TIP3    H1 5174   0.050   6.381   3.749
 1739TIP3    H2 5175   0.043   6.519   3.812
 1740TIP3   OH2 5176   3.732   7.634   0.114
 1740TIP3    H1 5177   3.746   7.556   0.061
 1740TIP3    H2 5178   3.776   7.704   0.066
 1741TIP3   OH2 5179   3.716   0.400   4.022
 1741TIP3    H1 5180   3.798   0.357   4.047
 1741TIP3    H2 5181   3.656   0.329   4.002
 1742TIP3   OH2 5182   8.231   0.786   4.295
 1742TIP3    H1 5183   8.168   0.788   4.223
 1742TIP3    H2 5184   8.292   0.857   4.275
 1743TIP3   OH2 5185   1.448   3.078   4.564
 1743TIP3    H1 5186   1.388   3.015   4.524
 1743TIP3    H2 5187   1.416   3.163   4.535
 1744TIP3   OH2 5188   1.569   1.804   5.266
 1744TIP3    H1 5189   1.648   1.819   5.319
 1744TIP3    H2 5190   1.568   1.877   5.204
 1745TIP3   OH2 5191   2.700   0.616   5.732
 1745TIP3    H1 5192   2.790   0.582   5.733
 1745TIP3    H2 5193   2.710   0.708   5.706
 1746TIP3   OH2 5194   5.188   5.630   1.818
 1746TIP3    H1 5195   5.133   5.699   1.781
 1746TIP3    H2 5196   5.234   5.593   1.743
 1747TIP3   OH2 5197   7.888   2.273   6.687
 1747TIP3    H1 5198   7.819   2.218   6.650
 1747TIP3    H2 5199   7.945   2.211   6.734
 1748TIP3   OH2 5200   3.786   5.494   0.620
 1748TIP3    H1 5201   3.873   5.523   0.648
 1748TIP3    H2 5202   3.795   5.400   0.607
 1749TIP3   OH2 5203   1.989   4.779   1.174
 1749TIP3    H1 5204   2.063   4.806   1.228
 1749TIP3    H2 5205   1.986   4.683   1.184
 1750TIP3   OH2 5206   5.696   1.071   5.912
 1750TIP3    H1 5207   5.696   1.166   5.929
 1750TIP3    H2 5208   5.625   1.058   5.849
 1751TIP3   OH2 5209   2.785   5.396   4.838
 1751TIP3    H1 5210   2.798   5.302   4.848
 1751TIP3    H2 5211   2.855   5.436   4.889
 1752TIP3   OH2 5212   5.258   7.511   2.176
 1752TIP3    H1 5213   5.286   7.596   2.143
 1752TIP3    H2 5214   5.197   7.478   2.110
 1753TIP3   OH2 5215   2.459   3.570   0.180
 1753TIP3    H1 5216   2.407   3.545   0.256
 1753TIP3    H2 5217   2.395   3.599   0.115
 1754TIP3   OH2 5218   7.066   6.647   0.787
 1754TIP3    H1 5219   7.103   6.590   0.855
 1754TIP3    H2 5220   6.980   6.610   0.769
 1755TIP3   OH2 5221   7.509   4.037   3.003
 1755TIP3    H1 5222   7.517   4.080   3.089
 1755TIP3    H2 5223   7.592   4.057   2.959
 1756TIP3   OH2 5224   3.736   3.129   2.924
 1756TIP3    H1 5225   3.679   3.086   2.987
 1756TIP3    H2 5226   3.822   3.090   2.939
 1757TIP3   OH2 5227   4.142   6.966   3.459
 1757TIP3    H1 5228   4.114   7.033   3.397
 1757TIP3    H2 5229   4.201   6.910   3.409
 1758TIP3   OH2 5230   2.360   2.523   2.324
 1758TIP3    H1 5231   2.287   2.466   2.350
 1758TIP3    H2 5232   2.375   2.502   2.232
 1759TIP3   OH2 5233   7.915   2.539   4.424
 1759TIP3    H1 5234   7.952   2.509   4.507
 1759TIP3    H2 5235   7.939   2.472   4.360
 1760TIP3   OH2 5236   3.519   6.818   2.142
 1760TIP3    H1 5237   3.583   6.817   2.072
 1760TIP3    H2 5238   3.571   6.806   2.222
 1761TIP3   OH2 5239   4.593   3.278   4.790
 1761TIP3    H1 5240   4.686   3.288   4.769
 1761TIP3    H2 5241   4.590   3.264   4.885
 1762TIP3   OH2 5242   3.879   0.774   0.768
 1762TIP3    H1 5243   3.844   0.811   0.849
 1762TIP3    H2 5244   3.901   0.684   0.790
 1763TIP3   OH2 5245   4.937   5.221   2.163
 1763TIP3    H1 5246   4.897   5.143   2.202
 1763TIP3    H2 5247   4.920   5.291   2.225
 1764TIP3   OH2 5248   8.169   3.995   4.024
 1764TIP3    H1 5249   8.168   4.040   3.939
 1764TIP3    H2 5250   8.117   3.917   4.010
 1765TIP3   OH2 5251   7.937   1.444   3.347
 1765TIP3    H1 5252   8.029   1.467   3.360
 1765TIP3    H2 5253   7.893   1.477   3.425
 1766TIP3   OH2 5254   6.097   0.611   0.689
 1766TIP3    H1 5255   6.169   0.637   0.632
 1766TIP3    H2 5256   6.117   0.521   0.714
 1767TIP3   OH2 5257   6.201   2.238   2.338
 1767TIP3    H1 5258   6.210   2.256   2.432
 1767TIP3    H2 5259   6.291   2.221   2.309
 1768TIP3   OH2 5260   2.371   2.393   2.081
 1768TIP3    H1 5261   2.356   2.367   1.990
 1768TIP3    H2 5262   2.292   2.366   2.127
 1769TIP3   OH2 5263   7.413   1.516   0.467
 1769TIP3    H1 5264   7.357   1.530   0.391
 1769TIP3    H2 5265   7.367   1.450   0.519
 1770TIP3   OH2 5266   8.243   1.914   2.402
 1770TIP3    H1 5267   8.205   1.972   2.467
 1770TIP3    H2 5268   8.171   1.855   2.377
 1771TIP3   OH2 5269   4.190   1.053   2.610
 1771TIP3    H1 5270   4.137   0.982   2.646
 1771TIP3    H2 5271   4.126   1.115   2.574
 1772TIP3   OH2 5272   4.176   2.613   1.450
 1772TIP3    H1 5273   4.225   2.672   1.394
 1772TIP3    H2 5274   4.085   2.643   1.442
 1773TIP3   OH2 5275   2.614   6.611   5.564
 1773TIP3    H1 5276   2.594   6.553   5.490
 1773TIP3    H2 5277   2.705   6.594   5.585
 1774TIP3   OH2 5278   1.916   2.423   5.205
 1774TIP3    H1 5279   1.895   2.413   5.113
 1774TIP3    H2 5280   2.004   2.462   5.206
 1775TIP3   OH2 5281   4.996   2.413   1.168
 1775TIP3    H1 5282   4.925   2.352   1.148
 1775TIP3    H2 5283   4.954   2.483   1.219
 1776TIP3   OH2 5284   4.343   2.363   0.635
 1776TIP3    H1 5285   4.269   2.316   0.674
 1776TIP3    H2 5286   4.418   2.339   0.688
 1777TIP3   OH2 5287   1.741   2.769   6.314
 1777TIP3    H1 5288   1.726   2.752   6.407
 1777TIP3    H2 5289   1.715   2.687   6.271
 1778TIP3   OH2 5290   3.549   4.808   2.554
 1778TIP3    H1 5291   3.461   4.844   2.563
 1778TIP3    H2 5292   3.542   4.717   2.582
 1779TIP3   OH2 5293   4.168   7.349   4.382
 1779TIP3    H1 5294   4.095   7.294   4.355
 1779TIP3    H2 5295   4.222   7.358   4.304
 1780TIP3   OH2 5296   7.899   5.711   2.957
 1780TIP3    H1 5297   7.813   5.674   2.976
 1780TIP3    H2 5298   7.955   5.635   2.941
 1781TIP3   OH2 5299   7.416   6.953   2.733
 1781TIP3    H1 5300   7.435   7.042   2.704
 1781TIP3    H2 5301   7.331   6.933   2.693
 1782TIP3   OH2 5302   2.562   4.260   2.589
 1782TIP3    H1 5303   2.485   4.259   2.532
 1782TIP3    H2 5304   2.636   4.259   2.529
 1783TIP3   OH2 5305   2.693   6.881   0.986
 1783TIP3    H1 5306   2.606   6.919   0.985
 1783TIP3    H2 5307   2.707   6.856   1.078
 1784TIP3   OH2 5308   5.017   7.715   2.610
 1784TIP3    H1 5309   4.976   7.682   2.690
 1784TIP3    H2 5310   5.077   7.645   2.583
 1785TIP3   OH2 5311   7.082   6.950   1.694
 1785TIP3    H1 5312   7.133   7.022   1.658
 1785TIP3    H2 5313   6.992   6.970   1.670
 1786TIP3   OH2 5314   6.153   6.204   3.207
 1786TIP3    H1 5315   6.152   6.122   3.156
 1786TIP3    H2 5316   6.238   6.244   3.185
 1787TIP3   OH2 5317   0.899   2.307   3.879
 1787TIP3    H1 5318   0.841   2.276   3.949
 1787TIP3    H2 5319   0.973   2.345   3.924
 1788TIP3   OH2 5320   6.199   7.841   1.751
 1788TIP3    H1 5321   6.108   7.817   1.734
 1788TIP3    H2 5322   6.224   7.789   1.828
 1789TIP3   OH2 5323   1.536   7.783   0.213
 1789TIP3    H1 5324   1.491   7.834   0.146
 1789TIP3    H2 5325   1.503   7.694   0.202
 1790TIP3   OH2 5326   8.043   3.998   1.384
 1790TIP3    H1 5327   8.076   4.037   1.304
 1790TIP3    H2 5328   8.103   3.926   1.403
 1791TIP3   OH2 5329   7.617   7.670   6.072
 1791TIP3    H1 5330   7.668   7.675   6.153
 1791TIP3    H2 5331   7.592   7.760   6.053
 1792TIP3   OH2 5332   3.571   1.474   4.647
 1792TIP3    H1 5333   3.500   1.537   4.656
 1792TIP3    H2 5334   3.593   1.475   4.554
 1793TIP3   OH2 5335   5.360   0.853   0.367
 1793TIP3    H1 5336   5.310   0.810   0.437
 1793TIP3    H2 5337   5.366   0.788   0.298
 1794TIP3   OH2 5338   7.089   4.782   5.334
 1794TIP3    H1 5339   7.093   4.833   5.253
 1794TIP3    H2 5340   7.134   4.837   5.399
 1795TIP3   OH2 5341   6.168   5.160   1.318
 1795TIP3    H1 5342   6.186   5.068   1.337
 1795TIP3    H2 5343   6.165   5.202   1.404
 1796TIP3   OH2 5344   6.952   4.623   0.798
 1796TIP3    H1 5345   7.010   4.560   0.754
 1796TIP3    H2 5346   6.965   4.607   0.891
 1797TIP3   OH2 5347   0.117   0.714   2.421
 1797TIP3    H1 5348   0.025   0.710   2.394
 1797TIP3    H2 5349   0.118   0.776   2.495
 1798TIP3   OH2 5350   5.464   1.696   2.634
 1798TIP3    H1 5351   5.487   1.634   2.704
 1798TIP3    H2 5352   5.380   1.664   2.601
 1799TIP3   OH2 5353   5.940   0.943   2.689
 1799TIP3    H1 5354   5.869   0.898   2.736
 1799TIP3    H2 5355   5.995   0.979   2.758
 1800TIP3   OH2 5356   5.379   1.293   1.460
 1800TIP3    H1 5357   5.423   1.288   1.544
 1800TIP3    H2 5358   5.321   1.217   1.458
 1801TIP3   OH2 5359   2.860   5.453   3.620
 1801TIP3    H1 5360   2.888   5.365   3.642
 1801TIP3    H2 5361   2.815   5.444   3.536
 1802TIP3   OH2 5362   1.752   3.380   3.663
 1802TIP3    H1 5363   1.681   3.354   3.721
 1802TIP3    H2 5364   1.740   3.327   3.584
 1803TIP3   OH2 5365   0.469   1.207   3.592
 1803TIP3    H1 5366   0.410   1.184   3.664
 1803TIP3    H2 5367   0.557   1.193   3.627
 1804TIP3   OH2 5368   7.331   5.621   1.330
 1804TIP3    H1 5369   7.248   5.628   1.379
 1804TIP3    H2 5370   7.365   5.535   1.355
 1805TIP3   OH2 5371   7.017   2.900   6.042
 1805TIP3    H1 5372   7.048   2.964   6.107
 1805TIP3    H2 5373   6.981   2.953   5.971
 1806TIP3   OH2 5374   2.964   2.786   2.485
 1806TIP3    H1 5375   2.902   2.830   2.543
 1806TIP3    H2 5376   3.025   2.854   2.459
 1807TIP3   OH2 5377   7.336   4.483   0.983
 1807TIP3    H1 5378   7.350   4.388   0.980
 1807TIP3    H2 5379   7.418   4.520   0.952
 1808TIP3   OH2 5380   2.585   5.604   2.242
 1808TIP3    H1 5381   2.500   5.613   2.200
 1808TIP3    H2 5382   2.566   5.595   2.335
 1809TIP3   OH2 5383   5.003   0.493   4.230
 1809TIP3    H1 5384   5.018   0.412   4.182
 1809TIP3    H2 5385   4.980   0.465   4.319
 1810TIP3   OH2 5386   2.287   7.163   5.622
 1810TIP3    H1 5387   2.255   7.113   5.548
 1810TIP3    H2 5388   2.251   7.251   5.610
 1811TIP3   OH2 5389   1.038   4.278   3.970
 1811TIP3    H1 5390   1.098   4.315   4.036
 1811TIP3    H2 5391   1.031   4.186   3.994
 1812TIP3   OH2 5392   7.798   3.470   2.269
 1812TIP3    H1 5393   7.797   3.489   2.175
 1812TIP3    H2 5394   7.710   3.438   2.288
 1813TIP3   OH2 5395   7.427   0.278   2.695
 1813TIP3    H1 5396   7.500   0.241   2.645
 1813TIP3    H2 5397   7.453   0.271   2.786
 1814TIP3   OH2 5398   7.157   3.274   4.168
 1814TIP3    H1 5399   7.185   3.216   4.097
 1814TIP3    H2 5400   7.229   3.272   4.230
 1815TIP3   OH2 5401   2.802   3.998   0.467
 1815TIP3    H1 5402   2.889   3.962   0.449
 1815TIP3    H2 5403   2.796   4.000   0.562
 1816TIP3   OH2 5404   3.092   3.412   3.372
 1816TIP3    H1 5405   2.998   3.390   3.375
 1816TIP3    H2 5406   3.129   3.369   3.449
 1817TIP3   OH2 5407   7.418   0.917   1.860
 1817TIP3    H1 5408   7.394   0.912   1.952
 1817TIP3    H2 5409   7.342   0.959   1.818
 1818TIP3   OH2 5410   7.398   1.404   2.018
 1818TIP3    H1 5411   7.303   1.409   2.031
 1818TIP3    H2 5412   7.412   1.439   1.930
 1819TIP3   OH2 5413   7.814   0.488   1.863
 1819TIP3    H1 5414   7.766   0.460   1.785
 1819TIP3    H2 5415   7.906   0.484   1.837
 1820TIP3   OH2 5416   4.750   2.821   5.301
 1820TIP3    H1 5417   4.792   2.736   5.291
 1820TIP3    H2 5418   4.704   2.836   5.219
 1821TIP3   OH2 5419   4.732   2.898   4.059
 1821TIP3    H1 5420   4.647   2.937   4.040
 1821TIP3    H2 5421   4.738   2.900   4.155
 1822TIP3   OH2 5422   1.017   3.906   5.311
 1822TIP3    H1 5423   0.951   3.840   5.334
 1822TIP3    H2 5424   1.079   3.859   5.256
 1823TIP3   OH2 5425   2.849   0.652   4.979
 1823TIP3    H1 5426   2.944   0.649   4.972
 1823TIP3    H2 5427   2.832   0.701   5.059
 1824TIP3   OH2 5428   7.481   6.629   0.365
 1824TIP3    H1 5429   7.520   6.682   0.434
 1824TIP3    H2 5430   7.402   6.677   0.339
 1825TIP3   OH2 5431   3.850   7.116   6.622
 1825TIP3    H1 5432   3.882   7.028   6.598
 1825TIP3    H2 5433   3.929   7.170   6.626
 1826TIP3   OH2 5434   0.800   1.214   1.528
 1826TIP3    H1 5435   0.770   1.131   1.565
 1826TIP3    H2 5436   0.893   1.219   1.551
 1827TIP3   OH2 5437   8.098   3.024   0.127
 1827TIP3    H1 5438   8.173   3.024   0.187
 1827TIP3    H2 5439   8.069   3.115   0.126
 1828TIP3   OH2 5440   6.815   6.928   5.467
 1828TIP3    H1 5441   6.762   6.851   5.447
 1828TIP3    H2 5442   6.755   7.002   5.455
 1829TIP3   OH2 5443   3.570   6.013   2.523
 1829TIP3    H1 5444   3.637   5.991   2.458
 1829TIP3    H2 5445   3.563   5.934   2.577
 1830TIP3   OH2 5446   7.621   5.953   3.419
 1830TIP3    H1 5447   7.560   6.023   3.440
 1830TIP3    H2 5448   7.577   5.902   3.351
 1831TIP3   OH2 5449   0.117   5.081   5.431
 1831TIP3    H1 5450   0.101   5.030   5.351
 1831TIP3    H2 5451   0.039   5.069   5.484
 1832TIP3   OH2 5452   4.628   5.306   0.615
 1832TIP3    H1 5453   4.657   5.291   0.525
 1832TIP3    H2 5454   4.678   5.383   0.644
 1833TIP3   OH2 5455   0.931   6.890   4.021
 1833TIP3    H1 5456   0.885   6.839   3.954
 1833TIP3    H2 5457   0.914   6.981   3.997
 1834TIP3   OH2 5458   6.817   6.552   0.331
 1834TIP3    H1 5459   6.744   6.531   0.272
 1834TIP3    H2 5460   6.810   6.489   0.402
 1835TIP3   OH2 5461   2.349   2.455   4.494
 1835TIP3    H1 5462   2.253   2.461   4.501
 1835TIP3    H2 5463   2.373   2.385   4.554
 1836TIP3   OH2 5464   5.399   6.513   1.788
 1836TIP3    H1 5465   5.366   6.600   1.812
 1836TIP3    H2 5466   5.468   6.495   1.852
 1837TIP3   OH2 5467   4.926   5.187   1.859
 1837TIP3    H1 5468   4.917   5.094   1.840
 1837TIP3    H2 5469   4.936   5.192   1.954
 1838TIP3   OH2 5470   7.492   1.480   2.592
 1838TIP3    H1 5471   7.440   1.507   2.667
 1838TIP3    H2 5472   7.572   1.533   2.597
 1839TIP3   OH2 5473   5.139   6.364   2.604
 1839TIP3    H1 5474   5.070   6.419   2.567
 1839TIP3    H2 5475   5.133   6.377   2.699
 1840TIP3   OH2 5476   1.014   0.836   4.449
 1840TIP3    H1 5477   0.998   0.765   4.511
 1840TIP3    H2 5478   1.041   0.910   4.503
 1841TIP3   OH2 5479   3.477   1.127   1.176
 1841TIP3    H1 5480   3.453   1.035   1.187
 1841TIP3    H2 5481   3.470   1.165   1.263
 1842TIP3   OH2 5482   6.238   6.344   5.439
 1842TIP3    H1 5483   6.232   6.426   5.488
 1842TIP3    H2 5484   6.328   6.313   5.455
 1843TIP3   OH2 5485   4.435   5.822   1.737
 1843TIP3    H1 5486   4.415   5.903   1.689
 1843TIP3    H2 5487   4.349   5.780   1.747
 1844TIP3   OH2 5488   4.136   6.633   0.258
 1844TIP3    H1 5489   4.175   6.694   0.196
 1844TIP3    H2 5490   4.154   6.547   0.221
 1845TIP3   OH2 5491   0.564   7.165   0.255
 1845TIP3    H1 5492   0.611   7.178   0.338
 1845TIP3    H2 5493   0.472   7.178   0.277
 1846TIP3   OH2 5494   7.719   7.195   0.522
 1846TIP3    H1 5495   7.813   7.189   0.541
 1846TIP3    H2 5496   7.678   7.207   0.607
 1847TIP3   OH2 5497   7.820   5.873   4.600
 1847TIP3    H1 5498   7.836   5.899   4.510
 1847TIP3    H2 5499   7.904   5.888   4.644
 1848TIP3   OH2 5500   7.308   1.599   4.005
 1848TIP3    H1 5501   7.247   1.620   4.077
 1848TIP3    H2 5502   7.324   1.683   3.962
 1849TIP3   OH2 5503   1.868   2.336   1.648
 1849TIP3    H1 5504   1.908   2.367   1.729
 1849TIP3    H2 5505   1.941   2.326   1.587
 1850TIP3   OH2 5506   4.315   7.356   1.807
 1850TIP3    H1 5507   4.365   7.299   1.866
 1850TIP3    H2 5508   4.301   7.304   1.729
 1851TIP3   OH2 5509   7.382   5.408   5.479
 1851TIP3    H1 5510   7.450   5.475   5.467
 1851TIP3    H2 5511   7.300   5.456   5.475
 1852TIP3   OH2 5512   4.568   0.425   6.134
 1852TIP3    H1 5513   4.555   0.375   6.215
 1852TIP3    H2 5514   4.662   0.443   6.132
 1853TIP3   OH2 5515   5.989   7.038   4.223
 1853TIP3    H1 5516   5.985   7.002   4.312
 1853TIP3    H2 5517   5.999   7.132   4.236
 1854TIP3   OH2 5518   2.289   1.648   1.038
 1854TIP3    H1 5519   2.340   1.595   1.100
 1854TIP3    H2 5520   2.344   1.653   0.960
 1855TIP3   OH2 5521   3.025   0.357   4.562
 1855TIP3    H1 5522   2.996   0.410   4.487
 1855TIP3    H2 5523   2.953   0.296   4.578
 1856TIP3   OH2 5524   3.306   7.527   4.930
 1856TIP3    H1 5525   3.267   7.469   4.864
 1856TIP3    H2 5526   3.398   7.501   4.932
 1857TIP3   OH2 5527   3.995   5.826   0.400
 1857TIP3    H1 5528   4.006   5.920   0.388
 1857TIP3    H2 5529   3.901   5.811   0.387
 1858TIP3   OH2 5530   1.164   4.433   5.499
 1858TIP3    H1 5531   1.088   4.487   5.520
 1858TIP3    H2 5532   1.139   4.345   5.528
 1859TIP3   OH2 5533   0.861   1.008   2.134
 1859TIP3    H1 5534   0.876   1.018   2.228
 1859TIP3    H2 5535   0.925   1.067   2.093
 1860TIP3   OH2 5536   7.708   4.954   3.710
 1860TIP3    H1 5537   7.635   4.935   3.769
 1860TIP3    H2 5538   7.763   4.877   3.714
 1861TIP3   OH2 5539   5.354   7.234   0.494
 1861TIP3    H1 5540   5.363   7.180   0.416
 1861TIP3    H2 5541   5.435   7.218   0.543
 1862TIP3   OH2 5542   5.563   0.307   2.853
 1862TIP3    H1 5543   5.621   0.230   2.854
 1862TIP3    H2 5544   5.622   0.381   2.848
 1863TIP3   OH2 5545   4.915   5.272   2.986
 1863TIP3    H1 5546   4.869   5.355   2.992
 1863TIP3    H2 5547   4.963   5.265   3.069
 1864TIP3   OH2 5548   3.059   2.032   1.270
 1864TIP3    H1 5549   3.012   2.076   1.199
 1864TIP3    H2 5550   3.069   1.942   1.240
 1865TIP3   OH2 5551   1.335   4.689   3.315
 1865TIP3    H1 5552   1.251   4.658   3.280
 1865TIP3    H2 5553   1.344   4.777   3.278
 1866TIP3   OH2 5554   4.063   3.973   1.108
 1866TIP3    H1 5555   4.022   4.059   1.119
 1866TIP3    H2 5556   4.156   3.992   1.095
 1867TIP3   OH2 5557   5.319   3.446   2.924
 1867TIP3    H1 5558   5.231   3.438   2.961
 1867TIP3    H2 5559   5.307   3.427   2.831
 1868TIP3   OH2 5560   3.497   5.158   4.362
 1868TIP3    H1 5561   3.590   5.175   4.377
 1868TIP3    H2 5562   3.486   5.064   4.378
 1869TIP3   OH2 5563   2.793   6.811   5.984
 1869TIP3    H1 5564   2.767   6.783   5.896
 1869TIP3    H2 5565   2.766   6.902   5.989
 1870TIP3   OH2 5566   5.132   1.950   3.676
 1870TIP3    H1 5567   5.125   2.012   3.604
 1870TIP3    H2 5568   5.106   1.999   3.754
 1871TIP3   OH2 5569   3.399   6.191   2.266
 1871TIP3    H1 5570   3.419   6.223   2.354
 1871TIP3    H2 5571   3.381   6.098   2.277
 1872TIP3   OH2 5572   5.938   6.017   2.912
 1872TIP3    H1 5573   5.902   5.937   2.875
 1872TIP3    H2 5574   5.931   6.005   3.006
 1873TIP3   OH2 5575   6.487   2.460   1.727
 1873TIP3    H1 5576   6.525   2.459   1.815
 1873TIP3    H2 5577   6.392   2.459   1.743
 1874TIP3   OH2 5578   2.988   5.874   1.954
 1874TIP3    H1 5579   2.954   5.879   2.044
 1874TIP3    H2 5580   3.082   5.862   1.965
 1875TIP3   OH2 5581   1.288   0.202   0.135
 1875TIP3    H1 5582   1.274   0.121   0.085
 1875TIP3    H2 5583   1.382   0.218   0.130
 1876TIP3   OH2 5584   2.896   2.461   4.727
 1876TIP3    H1 5585   2.962   2.522   4.760
 1876TIP3    H2 5586   2.895   2.475   4.632
 1877TIP3   OH2 5587   5.875   4.933   4.312
 1877TIP3    H1 5588   5.871   4.887   4.396
 1877TIP3    H2 5589   5.797   4.989   4.311
 1878TIP3   OH2 5590   5.180   7.456   0.830
 1878TIP3    H1 5591   5.115   7.452   0.901
 1878TIP3    H2 5592   5.258   7.491   0.871
 1879TIP3   OH2 5593   4.782   5.457   6.602
 1879TIP3    H1 5594   4.727   5.467   6.524
 1879TIP3    H2 5595   4.813   5.546   6.621
 1880TIP3   OH2 5596   6.587   1.614   3.287
 1880TIP3    H1 5597   6.660   1.552   3.287
 1880TIP3    H2 5598   6.532   1.587   3.361
 1881TIP3   OH2 5599   4.685   2.768   2.180
 1881TIP3    H1 5600   4.718   2.839   2.235
 1881TIP3    H2 5601   4.725   2.689   2.216
 1882TIP3   OH2 5602   0.027   4.498   3.586
 1882TIP3    H1 5603   0.028   4.403   3.593
 1882TIP3    H2 5604   0.027   4.529   3.677
 1883TIP3   OH2 5605   3.305   1.772   2.492
 1883TIP3    H1 5606   3.399   1.789   2.501
 1883TIP3    H2 5607   3.298   1.726   2.408
 1884TIP3   OH2 5608   4.947   0.725   1.949
 1884TIP3    H1 5609   4.947   0.651   1.889
 1884TIP3    H2 5610   4.899   0.694   2.026
 1885TIP3   OH2 5611   0.600   0.385   1.190
 1885TIP3    H1 5612   0.657   0.462   1.196
 1885TIP3    H2 5613   0.655   0.319   1.148
 1886TIP3   OH2 5614   7.312   2.018   6.657
 1886TIP3    H1 5615   7.281   2.086   6.598
 1886TIP3    H2 5616   7.406   2.034   6.665
 1887TIP3   OH2 5617   2.378   2.667   6.618
 1887TIP3    H1 5618   2.356   2.740   6.675
 1887TIP3    H2 5619   2.390   2.593   6.677
 1888TIP3   OH2 5620   1.396   3.829   0.967
 1888TIP3    H1 5621   1.490   3.821   0.958
 1888TIP3    H2 5622   1.384   3.907   1.021
 1889TIP3   OH2 5623   1.691   4.458   3.666
 1889TIP3    H1 5624   1.770   4.512   3.676
 1889TIP3    H2 5625   1.636   4.507   3.605
 1890TIP3   OH2 5626   5.027   0.334   1.504
 1890TIP3    H1 5627   5.013   0.245   1.536
 1890TIP3    H2 5628   4.941   0.362   1.472
 1891TIP3   OH2 5629   2.723   1.222   6.258
 1891TIP3    H1 5630   2.813   1.240   6.286
 1891TIP3    H2 5631   2.713   1.128   6.270
 1892TIP3   OH2 5632   6.776   3.009   5.058
 1892TIP3    H1 5633   6.771   2.948   4.985
 1892TIP3    H2 5634   6.867   3.006   5.086
 1893TIP3   OH2 5635   6.995   2.608   6.610
 1893TIP3    H1 5636   6.986   2.514   6.624
 1893TIP3    H2 5637   7.049   2.616   6.532
 1894TIP3   OH2 5638   4.457   3.545   2.934
 1894TIP3    H1 5639   4.466   3.597   3.015
 1894TIP3    H2 5640   4.387   3.588   2.886
 1895TIP3   OH2 5641   6.532   5.198   1.651
 1895TIP3    H1 5642   6.456   5.144   1.628
 1895TIP3    H2 5643   6.559   5.237   1.568
 1896TIP3   OH2 5644   0.977   0.550   5.887
 1896TIP3    H1 5645   0.914   0.618   5.864
 1896TIP3    H2 5646   1.057   0.599   5.909
 1897TIP3   OH2 5647   1.391   6.167   1.820
 1897TIP3    H1 5648   1.355   6.079   1.814
 1897TIP3    H2 5649   1.404   6.182   1.914
 1898TIP3   OH2 5650   2.267   1.924   3.443
 1898TIP3    H1 5651   2.300   1.905   3.531
 1898TIP3    H2 5652   2.315   1.864   3.386
 1899TIP3   OH2 5653   1.326   2.292   6.601
 1899TIP3    H1 5654   1.359   2.377   6.571
 1899TIP3    H2 5655   1.390   2.229   6.570
 1900TIP3   OH2 5656   8.249   5.985   0.892
 1900TIP3    H1 5657   8.171   6.014   0.941
 1900TIP3    H2 5658   8.310   5.956   0.960
 1901TIP3   OH2 5659   5.406   2.004   2.890
 1901TIP3    H1 5660   5.398   2.087   2.937
 1901TIP3    H2 5661   5.448   2.027   2.807
 1902TIP3   OH2 5662   6.858   2.813   6.735
 1902TIP3    H1 5663   6.925   2.777   6.677
 1902TIP3    H2 5664   6.908   2.864   6.799
 1903TIP3   OH2 5665   1.856   6.151   3.171
 1903TIP3    H1 5666   1.866   6.173   3.263
 1903TIP3    H2 5667   1.761   6.141   3.159
 1904TIP3   OH2 5668   4.328   2.635   2.143
 1904TIP3    H1 5669   4.290   2.723   2.139
 1904TIP3    H2 5670   4.286   2.588   2.071
 1905TIP3   OH2 5671   2.075   6.732   2.414
 1905TIP3    H1 5672   2.057   6.654   2.361
 1905TIP3    H2 5673   2.001   6.738   2.475
 1906TIP3   OH2 5674   7.087   2.681   4.765
 1906TIP3    H1 5675   7.107   2.756   4.709
 1906TIP3    H2 5676   7.009   2.641   4.725
 1907TIP3   OH2 5677   8.298   7.268   3.437
 1907TIP3    H1 5678   8.378   7.260   3.489
 1907TIP3    H2 5679   8.245   7.192   3.463
 1908TIP3   OH2 5680   7.613   2.260   2.161
 1908TIP3    H1 5681   7.600   2.292   2.071
 1908TIP3    H2 5682   7.646   2.171   2.150
 1909TIP3   OH2 5683   5.468   6.971   2.831
 1909TIP3    H1 5684   5.429   6.885   2.817
 1909TIP3    H2 5685   5.557   6.964   2.797
 1910TIP3   OH2 5686   0.324   3.538   5.023
 1910TIP3    H1 5687   0.331   3.444   5.005
 1910TIP3    H2 5688   0.288   3.575   4.943
 1911TIP3   OH2 5689   2.958   1.811   3.412
 1911TIP3    H1 5690   2.869   1.778   3.423
 1911TIP3    H2 5691   2.967   1.879   3.479
 1912TIP3   OH2 5692   0.361   0.604   4.611
 1912TIP3    H1 5693   0.439   0.588   4.664
 1912TIP3    H2 5694   0.393   0.613   4.522
 1913TIP3   OH2 5695   1.350   2.368   3.184
 1913TIP3    H1 5696   1.400   2.374   3.102
 1913TIP3    H2 5697   1.265   2.333   3.158
 1914TIP3   OH2 5698   1.592   6.816   3.376
 1914TIP3    H1 5699   1.622   6.905   3.396
 1914TIP3    H2 5700   1.522   6.829   3.313
 1915TIP3   OH2 5701   3.600   0.469   4.305
 1915TIP3    H1 5702   3.609   0.560   4.333
 1915TIP3    H2 5703   3.552   0.474   4.223
 1916TIP3   OH2 5704   2.652   6.803   3.721
 1916TIP3    H1 5705   2.638   6.897   3.736
 1916TIP3    H2 5706   2.572   6.761   3.750
 1917TIP3   OH2 5707   2.027   2.548   4.201
 1917TIP3    H1 5708   2.024   2.624   4.143
 1917TIP3    H2 5709   2.068   2.582   4.281
 1918TIP3   OH2 5710   4.126   4.736   3.561
 1918TIP3    H1 5711   4.099   4.651   3.595
 1918TIP3    H2 5712   4.219   4.741   3.581
 1919TIP3   OH2 5713   2.229   0.763   0.753
 1919TIP3    H1 5714   2.134   0.761   0.760
 1919TIP3    H2 5715   2.258   0.809   0.832
 1920TIP3   OH2 5716   1.055   0.386   2.531
 1920TIP3    H1 5717   1.022   0.340   2.608
 1920TIP3    H2 5718   1.123   0.329   2.496
 1921TIP3   OH2 5719   6.074   6.683   5.319
 1921TIP3    H1 5720   6.045   6.762   5.272
 1921TIP3    H2 5721   6.081   6.616   5.251
 1922TIP3   OH2 5722   5.604   3.563   4.210
 1922TIP3    H1 5723   5.548   3.623   4.259
 1922TIP3    H2 5724   5.660   3.620   4.157
 1923TIP3   OH2 5725   3.424   7.170   1.545
 1923TIP3    H1 5726   3.517   7.170   1.568
 1923TIP3    H2 5727   3.383   7.221   1.614
 1924TIP3   OH2 5728   6.606   2.157   6.769
 1924TIP3    H1 5729   6.625   2.176   6.678
 1924TIP3    H2 5730   6.536   2.218   6.792
 1925TIP3   OH2 5731   0.980   4.329   1.531
 1925TIP3    H1 5732   0.992   4.287   1.616
 1925TIP3    H2 5733   0.983   4.257   1.468
 1926TIP3   OH2 5734   2.535   0.493   1.298
 1926TIP3    H1 5735   2.618   0.497   1.252
 1926TIP3    H2 5736   2.558   0.484   1.390
 1927TIP3   OH2 5737   6.201   5.485   5.165
 1927TIP3    H1 5738   6.253   5.543   5.222
 1927TIP3    H2 5739   6.119   5.533   5.152
 1928TIP3   OH2 5740   4.805   7.768   5.382
 1928TIP3    H1 5741   4.766   7.682   5.398
 1928TIP3    H2 5742   4.788   7.785   5.289
 1929TIP3   OH2 5743   4.778   2.446   2.741
 1929TIP3    H1 5744   4.724   2.367   2.740
 1929TIP3    H2 5745   4.722   2.513   2.702
 1930TIP3   OH2 5746   0.590   2.959   2.359
 1930TIP3    H1 5747   0.592   3.021   2.432
 1930TIP3    H2 5748   0.504   2.971   2.319
 1931TIP3   OH2 5749   6.323   2.034   1.327
 1931TIP3    H1 5750   6.339   1.943   1.302
 1931TIP3    H2 5751   6.288   2.075   1.248
 1932TIP3   OH2 5752   7.544   0.489   3.874
 1932TIP3    H1 5753   7.625   0.501   3.924
 1932TIP3    H2 5754   7.475   0.491   3.940
 1933TIP3   OH2 5755   6.662   1.803   6.055
 1933TIP3    H1 5756   6.575   1.805   6.015
 1933TIP3    H2 5757   6.675   1.712   6.079
 1934TIP3   OH2 5758   1.206   5.872   1.042
 1934TIP3    H1 5759   1.160   5.814   1.103
 1934TIP3    H2 5760   1.281   5.822   1.012
 1935TIP3   OH2 5761   3.032   6.065   3.930
 1935TIP3    H1 5762   3.004   6.055   3.839
 1935TIP3    H2 5763   3.127   6.050   3.928
 1936TIP3   OH2 5764   0.234   4.558   6.647
 1936TIP3    H1 5765   0.199   4.630   6.595
 1936TIP3    H2 5766   0.247   4.596   6.734
 1937TIP3   OH2 5767   7.450   2.205   1.661
 1937TIP3    H1 5768   7.402   2.174   1.738
 1937TIP3    H2 5769   7.471   2.126   1.612
 1938TIP3   OH2 5770   6.333   4.953   0.968
 1938TIP3    H1 5771   6.244   4.964   1.004
 1938TIP3    H2 5772   6.329   4.870   0.921
 1939TIP3   OH2 5773   4.024   7.330   6.585
 1939TIP3    H1 5774   4.102   7.385   6.575
 1939TIP3    H2 5775   3.958   7.389   6.622
 1940TIP3   OH2 5776   5.744   5.410   2.649
 1940TIP3    H1 5777   5.733   5.319   2.622
 1940TIP3    H2 5778   5.721   5.461   2.571
 1941TIP3   OH2 5779   3.491   7.390   2.233
 1941TIP3    H1 5780   3.479   7.480   2.202
 1941TIP3    H2 5781   3.578   7.389   2.272
 1942TIP3   OH2 5782   6.704   5.622   4.807
 1942TIP3    H1 5783   6.702   5.696   4.868
 1942TIP3    H2 5784   6.614   5.614   4.776
 1943TIP3   OH2 5785   6.593   7.027   6.576
 1943TIP3    H1 5786   6.640   7.037   6.493
 1943TIP3    H2 5787   6.637   7.087   6.636
 1944TIP3   OH2 5788   6.370   7.393   5.497
 1944TIP3    H1 5789   6.350   7.415   5.588
 1944TIP3    H2 5790   6.465   7.383   5.495
 1945TIP3   OH2 5791   2.792   5.209   0.996
 1945TIP3    H1 5792   2.873   5.160   0.985
 1945TIP3    H2 5793   2.759   5.183   1.082
 1946TIP3   OH2 5794   6.319   7.568   0.651
 1946TIP3    H1 5795   6.313   7.625   0.575
 1946TIP3    H2 5796   6.313   7.479   0.615
 1947TIP3   OH2 5797   0.512   4.650   2.889
 1947TIP3    H1 5798   0.510   4.569   2.940
 1947TIP3    H2 5799   0.435   4.700   2.919
 1948TIP3   OH2 5800   6.039   1.887   2.342
 1948TIP3    H1 5801   5.955   1.865   2.300
 1948TIP3    H2 5802   6.088   1.932   2.274
 1949TIP3   OH2 5803   0.737   0.893   2.936
 1949TIP3    H1 5804   0.647   0.871   2.962
 1949TIP3    H2 5805   0.792   0.841   2.994
 1950TIP3   OH2 5806   1.189   0.748   3.931
 1950TIP3    H1 5807   1.144   0.664   3.926
 1950TIP3    H2 5808   1.179   0.786   3.843
 1951TIP3   OH2 5809   0.797   7.805   4.770
 1951TIP3    H1 5810   0.891   7.788   4.774
 1951TIP3    H2 5811   0.785   7.857   4.690
 1952TIP3   OH2 5812   6.022   1.247   5.161
 1952TIP3    H1 5813   5.975   1.232   5.079
 1952TIP3    H2 5814   5.955   1.282   5.220
 1953TIP3   OH2 5815   7.898   3.520   4.984
 1953TIP3    H1 5816   7.871   3.541   4.895
 1953TIP3    H2 5817   7.915   3.426   4.982
 1954TIP3   OH2 5818   6.851   2.393   3.571
 1954TIP3    H1 5819   6.913   2.320   3.568
 1954TIP3    H2 5820   6.893   2.458   3.627
 1955TIP3   OH2 5821   7.968   0.365   0.114
 1955TIP3    H1 5822   8.051   0.411   0.100
 1955TIP3    H2 5823   7.921   0.420   0.176
 1956TIP3   OH2 5824   0.147   1.035   0.742
 1956TIP3    H1 5825   0.184   1.032   0.654
 1956TIP3    H2 5826   0.053   1.040   0.728
 1957TIP3   OH2 5827   0.666   6.567   4.101
 1957TIP3    H1 5828   0.748   6.518   4.094
 1957TIP3    H2 5829   0.610   6.512   4.156
 1958TIP3   OH2 5830   7.562   6.208   2.940
 1958TIP3    H1 5831   7.649   6.193   2.977
 1958TIP3    H2 5832   7.535   6.291   2.978
 1959TIP3   OH2 5833   0.837   3.632   4.794
 1959TIP3    H1 5834   0.902   3.702   4.788
 1959TIP3    H2 5835   0.882   3.563   4.843
 1960TIP3   OH2 5836   4.349   5.894   0.300
 1960TIP3    H1 5837   4.289   5.872   0.372
 1960TIP3    H2 5838   4.430   5.920   0.343
 1961TIP3   OH2 5839   3.667   2.991   4.718
 1961TIP3    H1 5840   3.731   2.956   4.655
 1961TIP3    H2 5841   3.694   2.954   4.802
 1962TIP3   OH2 5842   2.591   4.706   1.094
 1962TIP3    H1 5843   2.563   4.691   1.185
 1962TIP3    H2 5844   2.617   4.619   1.064
 1963TIP3   OH2 5845   6.281   0.520   4.278
 1963TIP3    H1 5846   6.333   0.574   4.218
 1963TIP3    H2 5847   6.330   0.524   4.360
 1964TIP3   OH2 5848   2.612   6.967   6.266
 1964TIP3    H1 5849   2.693   6.964   6.317
 1964TIP3    H2 5850   2.612   6.887   6.215
 1965TIP3   OH2 5851   6.182   4.314   2.737
 1965TIP3    H1 5852   6.106   4.333   2.681
 1965TIP3    H2 5853   6.231   4.247   2.689
 1966TIP3   OH2 5854   3.072   1.845   2.331
 1966TIP3    H1 5855   3.077   1.773   2.269
 1966TIP3    H2 5856   3.146   1.830   2.391
 1967TIP3   OH2 5857   8.176   2.787   6.502
 1967TIP3    H1 5858   8.130   2.703   6.508
 1967TIP3    H2 5859   8.124   2.839   6.441
 1968TIP3   OH2 5860   5.860   1.446   2.760
 1968TIP3    H1 5861   5.825   1.405   2.681
 1968TIP3    H2 5862   5.794   1.510   2.786
 1969TIP3   OH2 5863   2.952   2.521   2.439
 1969TIP3    H1 5864   2.959   2.613   2.465
 1969TIP3    H2 5865   3.012   2.475   2.497
 1970TIP3   OH2 5866   5.071   2.188   0.384
 1970TIP3    H1 5867   5.015   2.159   0.312
 1970TIP3    H2 5868   5.020   2.257   0.427
 1971TIP3   OH2 5869   3.360   1.850   2.162
 1971TIP3    H1 5870   3.325   1.834   2.074
 1971TIP3    H2 5871   3.367   1.764   2.202
 1972TIP3   OH2 5872   2.917   1.001   4.805
 1972TIP3    H1 5873   2.853   0.942   4.766
 1972TIP3    H2 5874   2.895   1.003   4.898
 1973TIP3   OH2 5875   4.105   3.996   0.534
 1973TIP3    H1 5876   4.127   4.011   0.443
 1973TIP3    H2 5877   4.061   4.076   0.562
 1974TIP3   OH2 5878   0.948   5.237   6.005
 1974TIP3    H1 5879   0.962   5.143   5.998
 1974TIP3    H2 5880   0.891   5.258   5.932
 1975TIP3   OH2 5881   0.385   1.039   0.237
 1975TIP3    H1 5882   0.411   1.002   0.153
 1975TIP3    H2 5883   0.378   1.133   0.220
 1976TIP3   OH2 5884   1.180   5.903   2.208
 1976TIP3    H1 5885   1.264   5.938   2.238
 1976TIP3    H2 5886   1.149   5.966   2.143
 1977TIP3   OH2 5887   6.815   3.499   5.649
 1977TIP3    H1 5888   6.782   3.456   5.728
 1977TIP3    H2 5889   6.794   3.591   5.661
 1978TIP3   OH2 5890   3.585   7.698   5.237
 1978TIP3    H1 5891   3.581   7.781   5.189
 1978TIP3    H2 5892   3.495   7.666   5.236
 1979TIP3   OH2 5893   0.692   5.435   1.493
 1979TIP3    H1 5894   0.717   5.410   1.404
 1979TIP3    H2 5895   0.701   5.355   1.544
 1980TIP3   OH2 5896   0.564   3.765   2.239
 1980TIP3    H1 5897   0.527   3.717   2.164
 1980TIP3    H2 5898   0.580   3.853   2.205
 1981TIP3   OH2 5899   1.276   2.818   3.361
 1981TIP3    H1 5900   1.304   2.905   3.331
 1981TIP3    H2 5901   1.252   2.771   3.281
 1982TIP3   OH2 5902   0.558   0.041   2.414
 1982TIP3    H1 5903   0.545   0.044   2.509
 1982TIP3    H2 5904   0.504   0.112   2.381
 1983TIP3   OH2 5905   6.123   6.926   2.817
 1983TIP3    H1 5906   6.062   6.981   2.769
 1983TIP3    H2 5907   6.176   6.882   2.750
 1984TIP3   OH2 5908   7.256   0.228   3.522
 1984TIP3    H1 5909   7.235   0.265   3.436
 1984TIP3    H2 5910   7.304   0.298   3.566
 1985TIP3   OH2 5911   2.979   0.134   4.079
 1985TIP3    H1 5912   2.975   0.199   4.149
 1985TIP3    H2 5913   3.033   0.064   4.115
 1986TIP3   OH2 5914   4.733   5.151   1.244
 1986TIP3    H1 5915   4.797   5.222   1.251
 1986TIP3    H2 5916   4.651   5.195   1.221
 1987TIP3   OH2 5917   5.380   4.211   2.459
 1987TIP3    H1 5918   5.436   4.162   2.520
 1987TIP3    H2 5919   5.385   4.301   2.490
 1988TIP3   OH2 5920   1.360   2.997   4.879
 1988TIP3    H1 5921   1.269   2.965   4.884
 1988TIP3    H2 5922   1.357   3.067   4.814
 1989TIP3   OH2 5923   3.821   4.506   6.354
 1989TIP3    H1 5924   3.904   4.516   6.399
 1989TIP3    H2 5925   3.840   4.449   6.280
 1990TIP3   OH2 5926   7.630   1.760   3.175
 1990TIP3    H1 5927   7.581   1.798   3.249
 1990TIP3    H2 5928   7.582   1.789   3.097
 1991TIP3   OH2 5929   3.446   0.625   4.701
 1991TIP3    H1 5930   3.468   0.582   4.784
 1991TIP3    H2 5931   3.440   0.718   4.723
 1992TIP3   OH2 5932   1.725   0.895   5.048
 1992TIP3    H1 5933   1.766   0.952   5.113
 1992TIP3    H2 5934   1.766   0.920   4.965
 1993TIP3   OH2 5935   4.594   5.980   3.088
 1993TIP3    H1 5936   4.659   6.023   3.033
 1993TIP3    H2 5937   4.616   6.007   3.177
 1994TIP3   OH2 5938   6.228   0.680   2.445
 1994TIP3    H1 5939   6.228   0.630   2.527
 1994TIP3    H2 5940   6.248   0.769   2.471
 1995TIP3   OH2 5941   4.870   4.173   0.121
 1995TIP3    H1 5942   4.818   4.183   0.041
 1995TIP3    H2 5943   4.961   4.179   0.092
 1996TIP3   OH2 5944   2.906   0.394   5.353
 1996TIP3    H1 5945   2.999   0.371   5.361
 1996TIP3    H2 5946   2.863   0.346   5.424
 1997TIP3   OH2 5947   0.835   3.517   2.857
 1997TIP3    H1 5948   0.795   3.565   2.929
 1997TIP3    H2 5949   0.851   3.583   2.789
 1998TIP3   OH2 5950   3.533   5.394   3.193
 1998TIP3    H1 5951   3.460   5.348   3.233
 1998TIP3    H2 5952   3.562   5.336   3.123
 1999TIP3   OH2 5953   1.790   6.991   6.131
 1999TIP3    H1 5954   1.776   6.897   6.145
 1999TIP3    H2 5955   1.705   7.024   6.102
 2000TIP3   OH2 5956   0.911   4.607   0.291
 2000TIP3    H1 5957   0.884   4.698   0.274
 2000TIP3    H2 5958   0.838   4.570   0.341
 2001TIP3   OH2 5959   7.041   5.394   4.612
 2001TIP3    H1 5960   7.088   5.335   4.672
 2001TIP3    H2 5961   7.043   5.479   4.656
 2002TIP3   OH2 5962   1.526   7.173   4.954
 2002TIP3    H1 5963   1.521   7.127   5.038
 2002TIP3    H2 5964   1.436   7.179   4.924
 2003TIP3   OH2 5965   5.163   5.576   6.697
 2003TIP3    H1 5966   5.235   5.535   6.650
 2003TIP3    H2 5967   5.110   5.503   6.728
 2004TIP3   OH2 5968   5.859   2.032   2.517
 2004TIP3    H1 5969   5.787   1.979   2.549
 2004TIP3    H2 5970   5.910   1.973   2.461
 2005TIP3   OH2 5971   5.360   7.520   0.568
 2005TIP3    H1 5972   5.270   7.521   0.537
 2005TIP3    H2 5973   5.383   7.428   0.572
 2006TIP3   OH2 5974   7.109   7.700   2.692
 2006TIP3    H1 5975   7.092   7.658   2.777
 2006TIP3    H2 5976   7.195   7.668   2.666
 2007TIP3   OH2 5977   8.163   4.006   0.791
 2007TIP3    H1 5978   8.159   4.086   0.739
 2007TIP3    H2 5979   8.103   4.021   0.864
 2008TIP3   OH2 5980   5.260   0.043   1.586
 2008TIP3    H1 5981   5.283  -0.021   1.519
 2008TIP3    H2 5982   5.328   0.110   1.580
 2009TIP3   OH2 5983   1.189   3.136   0.739
 2009TIP3    H1 5984   1.248   3.114   0.668
 2009TIP3    H2 5985   1.104   3.102   0.712
 2010TIP3   OH2 5986   2.902   7.632   4.263
 2010TIP3    H1 5987   2.837   7.565   4.240
 2010TIP3    H2 5988   2.889   7.701   4.198
 2011TIP3   OH2 5989   7.656   6.435   3.265
 2011TIP3    H1 5990   7.736   6.474   3.229
 2011TIP3    H2 5991   7.658   6.344   3.234
 2012TIP3   OH2 5992   4.174   1.820   3.836
 2012TIP3    H1 5993   4.088   1.860   3.852
 2012TIP3    H2 5994   4.187   1.828   3.742
 2013TIP3   OH2 5995   3.643   3.740   4.780
 2013TIP3    H1 5996   3.658   3.683   4.856
 2013TIP3    H2 5997   3.615   3.681   4.710
 2014TIP3   OH2 5998   7.345   2.353   3.515
 2014TIP3    H1 5999   7.349   2.306   3.432
 2014TIP3    H2 6000   7.414   2.315   3.568
 2015TIP3   OH2 6001   5.963   5.379   0.513
 2015TIP3    H1 6002   5.924   5.403   0.429
 2015TIP3    H2 6003   6.054   5.410   0.507
 2016TIP3   OH2 6004   5.223   5.076   5.707
 2016TIP3    H1 6005   5.130   5.088   5.726
 2016TIP3    H2 6006   5.265   5.072   5.793
 2017TIP3   OH2 6007   2.672   2.750   0.674
 2017TIP3    H1 6008   2.607   2.821   0.668
 2017TIP3    H2 6009   2.692   2.728   0.583
 2018TIP3   OH2 6010   6.148   4.817   3.066
 2018TIP3    H1 6011   6.098   4.840   2.987
 2018TIP3    H2 6012   6.228   4.869   3.059
 2019TIP3   OH2 6013   0.198   5.793   4.872
 2019TIP3    H1 6014   0.197   5.849   4.949
 2019TIP3    H2 6015   0.270   5.826   4.818
 2020TIP3   OH2 6016   5.543   2.658   1.601
 2020TIP3    H1 6017   5.600   2.716   1.550
 2020TIP3    H2 6018   5.552   2.688   1.691
 2021TIP3   OH2 6019   0.830   4.225   2.444
 2021TIP3    H1 6020   0.759   4.196   2.501
 2021TIP3    H2 6021   0.848   4.315   2.472
 2022TIP3   OH2 6022   3.832   1.722   5.212
 2022TIP3    H1 6023   3.900   1.788   5.227
 2022TIP3    H2 6024   3.751   1.772   5.203
 2023TIP3   OH2 6025   4.932   0.062   2.060
 2023TIP3    H1 6026   4.981   0.115   1.997
 2023TIP3    H2 6027   4.860   0.118   2.087
 2024TIP3   OH2 6028   4.897   3.798   5.710
 2024TIP3    H1 6029   4.959   3.733   5.741
 2024TIP3    H2 6030   4.945   3.846   5.641
 2025TIP3   OH2 6031   0.729   5.496   2.510
 2025TIP3    H1 6032   0.744   5.569   2.449
 2025TIP3    H2 6033   0.706   5.422   2.454
 2026TIP3   OH2 6034   6.342   5.768   4.441
 2026TIP3    H1 6035   6.344   5.672   4.442
 2026TIP3    H2 6036   6.434   5.794   4.440
 2027TIP3   OH2 6037   7.403   1.635   0.186
 2027TIP3    H1 6038   7.444   1.714   0.151
 2027TIP3    H2 6039   7.309   1.650   0.178
 2028TIP3   OH2 6040   2.694   0.877   5.623
 2028TIP3    H1 6041   2.725   0.904   5.537
 2028TIP3    H2 6042   2.705   0.954   5.679
 2029TIP3   OH2 6043   3.148   1.881   2.686
 2029TIP3    H1 6044   3.167   1.821   2.759
 2029TIP3    H2 6045   3.179   1.834   2.608
 2030TIP3   OH2 6046   6.102   5.640   2.872
 2030TIP3    H1 6047   6.121   5.717   2.818
 2030TIP3    H2 6048   6.052   5.674   2.946
 2031TIP3   OH2 6049   4.977   5.905   5.054
 2031TIP3    H1 6050   5.062   5.861   5.057
 2031TIP3    H2 6051   4.963   5.936   5.144
 2032TIP3   OH2 6052   0.250   1.366   2.012
 2032TIP3    H1 6053   0.270   1.434   1.948
 2032TIP3    H2 6054   0.176   1.319   1.974
 2033TIP3   OH2 6055   5.001   0.258   4.112
 2033TIP3    H1 6056   5.096   0.257   4.120
 2033TIP3    H2 6057   4.980   0.181   4.060
 2034TIP3   OH2 6058   0.890   6.210   1.133
 2034TIP3    H1 6059   0.970   6.175   1.094
 2034TIP3    H2 6060   0.904   6.305   1.135
 2035TIP3   OH2 6061   3.190   7.389   1.241
 2035TIP3    H1 6062   3.217   7.405   1.332
 2035TIP3    H2 6063   3.116   7.448   1.228
 2036TIP3   OH2 6064   4.155   6.527   3.719
 2036TIP3    H1 6065   4.229   6.522   3.658
 2036TIP3    H2 6066   4.179   6.597   3.780
 2037TIP3   OH2 6067   7.694   3.006   6.062
 2037TIP3    H1 6068   7.760   3.051   6.115
 2037TIP3    H2 6069   7.722   2.914   6.063
 2038TIP3   OH2 6070   7.545   2.016   3.034
 2038TIP3    H1 6071   7.526   1.969   2.953
 2038TIP3    H2 6072   7.641   2.015   3.040
 2039TIP3   OH2 6073   0.891   6.814   1.710
 2039TIP3    H1 6074   0.981   6.797   1.683
 2039TIP3    H2 6075   0.885   6.910   1.714
 2040TIP3   OH2 6076   0.541   2.998   2.869
 2040TIP3    H1 6077   0.465   3.054   2.886
 2040TIP3    H2 6078   0.512   2.911   2.896
 2041TIP3   OH2 6079   0.213   7.110   0.674
 2041TIP3    H1 6080   0.184   7.055   0.747
 2041TIP3    H2 6081   0.146   7.096   0.606
 2042TIP3   OH2 6082   5.378   0.771   2.833
 2042TIP3    H1 6083   5.416   0.771   2.745
 2042TIP3    H2 6084   5.299   0.718   2.824
 2043TIP3   OH2 6085   4.146   2.536   6.461
 2043TIP3    H1 6086   4.153   2.480   6.538
 2043TIP3    H2 6087   4.190   2.617   6.486
 2044TIP3   OH2 6088   4.727   4.224   4.001
 2044TIP3    H1 6089   4.699   4.313   3.981
 2044TIP3    H2 6090   4.690   4.206   4.088
 2045TIP3   OH2 6091   0.249   0.835   1.322
 2045TIP3    H1 6092   0.267   0.866   1.233
 2045TIP3    H2 6093   0.154   0.828   1.326
 2046TIP3   OH2 6094   7.771   2.453   5.920
 2046TIP3    H1 6095   7.865   2.467   5.914
 2046TIP3    H2 6096   7.737   2.478   5.834
 2047TIP3   OH2 6097   1.147   4.229   1.178
 2047TIP3    H1 6098   1.060   4.231   1.216
 2047TIP3    H2 6099   1.134   4.254   1.087
 2048TIP3   OH2 6100   7.117   6.105   3.476
 2048TIP3    H1 6101   7.038   6.087   3.527
 2048TIP3    H2 6102   7.118   6.037   3.409
 2049TIP3   OH2 6103   5.696   1.642   2.977
 2049TIP3    H1 6104   5.755   1.713   2.951
 2049TIP3    H2 6105   5.699   1.643   3.073
 2050TIP3   OH2 6106   1.910   7.224   0.155
 2050TIP3    H1 6107   1.941   7.220   0.064
 2050TIP3    H2 6108   1.970   7.285   0.198
 2051TIP3   OH2 6109   0.911   0.773   0.984
 2051TIP3    H1 6110   0.816   0.781   0.973
 2051TIP3    H2 6111   0.934   0.844   1.044
 2052TIP3   OH2 6112   7.557   6.584   5.279
 2052TIP3    H1 6113   7.478   6.639   5.284
 2052TIP3    H2 6114   7.553   6.529   5.357
 2053TIP3   OH2 6115   5.310   3.111   0.976
 2053TIP3    H1 6116   5.272   3.157   1.051
 2053TIP3    H2 6117   5.236   3.096   0.917
 2054TIP3   OH2 6118   0.488   1.780   4.750
 2054TIP3    H1 6119   0.434   1.739   4.818
 2054TIP3    H2 6120   0.467   1.732   4.670
 2055TIP3   OH2 6121   4.725   0.622   2.082
 2055TIP3    H1 6122   4.686   0.576   2.008
 2055TIP3    H2 6123   4.654   0.675   2.118
 2056TIP3   OH2 6124   0.831   1.553   3.944
 2056TIP3    H1 6125   0.744   1.524   3.915
 2056TIP3    H2 6126   0.813   1.624   4.006
 2057TIP3   OH2 6127   7.541   0.352   1.261
 2057TIP3    H1 6128   7.591   0.302   1.326
 2057TIP3    H2 6129   7.463   0.381   1.308
 2058TIP3   OH2 6130   2.436   0.422   5.448
 2058TIP3    H1 6131   2.443   0.427   5.543
 2058TIP3    H2 6132   2.359   0.475   5.427
 2059TIP3   OH2 6133   3.134   4.070   2.013
 2059TIP3    H1 6134   3.055   4.026   2.044
 2059TIP3    H2 6135   3.185   4.087   2.092
 2060TIP3   OH2 6136   6.127   6.550   2.276
 2060TIP3    H1 6137   6.220   6.528   2.271
 2060TIP3    H2 6138   6.126   6.645   2.293
 2061TIP3   OH2 6139   0.563   6.800   6.752
 2061TIP3    H1 6140   0.543   6.719   6.705
 2061TIP3    H2 6141   0.557   6.775   6.845
 2062TIP3   OH2 6142   5.301   1.390   6.712
 2062TIP3    H1 6143   5.219   1.436   6.726
 2062TIP3    H2 6144   5.339   1.432   6.635
 2063TIP3   OH2 6145   3.497   5.766   2.010
 2063TIP3    H1 6146   3.548   5.726   1.939
 2063TIP3    H2 6147   3.525   5.857   2.011
 2064TIP3   OH2 6148   1.555   2.941   6.202
 2064TIP3    H1 6149   1.584   3.029   6.178
 2064TIP3    H2 6150   1.619   2.911   6.267
 2065TIP3   OH2 6151   4.292   4.712   0.762
 2065TIP3    H1 6152   4.321   4.760   0.684
 2065TIP3    H2 6153   4.369   4.663   0.790
 2066TIP3   OH2 6154   2.684   7.344   6.650
 2066TIP3    H1 6155   2.682   7.253   6.679
 2066TIP3    H2 6156   2.721   7.392   6.725
 2067TIP3   OH2 6157   3.494   2.982   3.706
 2067TIP3    H1 6158   3.465   2.967   3.616
 2067TIP3    H2 6159   3.586   2.955   3.705
 2068TIP3   OH2 6160   7.943   2.190   3.341
 2068TIP3    H1 6161   7.847   2.183   3.347
 2068TIP3    H2 6162   7.958   2.274   3.297
 2069TIP3   OH2 6163   4.265   2.868   4.485
 2069TIP3    H1 6164   4.319   2.839   4.558
 2069TIP3    H2 6165   4.320   2.856   4.408
 2070TIP3   OH2 6166   7.304   7.409   5.009
 2070TIP3    H1 6167   7.215   7.426   4.977
 2070TIP3    H2 6168   7.359   7.415   4.931
 2071TIP3   OH2 6169   0.020   1.419   2.643
 2071TIP3    H1 6170   0.005   1.370   2.563
 2071TIP3    H2 6171  -0.035   1.497   2.635
 2072TIP3   OH2 6172   1.271   7.186   4.295
 2072TIP3    H1 6173   1.267   7.267   4.245
 2072TIP3    H2 6174   1.191   7.187   4.348
 2073TIP3   OH2 6175   0.092   6.008   6.069
 2073TIP3    H1 6176   0.174   6.006   6.117
 2073TIP3    H2 6177   0.050   6.089   6.095
 2074TIP3   OH2 6178   3.570   4.408   5.452
 2074TIP3    H1 6179   3.482   4.433   5.423
 2074TIP3    H2 6180   3.565   4.313   5.461
 2075TIP3   OH2 6181   6.763   7.300   6.286
 2075TIP3    H1 6182   6.774   7.355   6.208
 2075TIP3    H2 6183   6.694   7.343   6.336
 2076TIP3   OH2 6184   2.523   7.153   2.987
 2076TIP3    H1 6185   2.482   7.151   2.900
 2076TIP3    H2 6186   2.515   7.244   3.015
 2077TIP3   OH2 6187   3.485   0.876   1.371
 2077TIP3    H1 6188   3.411   0.824   1.339
 2077TIP3    H2 6189   3.558   0.850   1.315
 2078TIP3   OH2 6190   2.296   2.014   6.245
 2078TIP3    H1 6191   2.245   1.981   6.171
 2078TIP3    H2 6192   2.372   1.956   6.250
 2079TIP3   OH2 6193   5.961   3.993   6.000
 2079TIP3    H1 6194   5.880   3.950   6.028
 2079TIP3    H2 6195   6.015   3.922   5.964
 2080TIP3   OH2 6196   4.891   3.039   4.937
 2080TIP3    H1 6197   4.832   3.036   4.862
 2080TIP3    H2 6198   4.890   2.950   4.972
 2081TIP3   OH2 6199   3.930   6.915   4.779
 2081TIP3    H1 6200   3.919   6.834   4.830
 2081TIP3    H2 6201   3.859   6.971   4.809
 2082TIP3   OH2 6202   2.917   2.619   0.683
 2082TIP3    H1 6203   2.836   2.669   0.691
 2082TIP3    H2 6204   2.902   2.560   0.609
 2083TIP3   OH2 6205   1.745   0.584   5.880
 2083TIP3    H1 6206   1.685   0.592   5.806
 2083TIP3    H2 6207   1.706   0.517   5.936
 2084TIP3   OH2 6208   7.253   2.570   2.431
 2084TIP3    H1 6209   7.258   2.510   2.506
 2084TIP3    H2 6210   7.313   2.641   2.454
 2085TIP3   OH2 6211   6.123   0.628   2.827
 2085TIP3    H1 6212   6.089   0.551   2.873
 2085TIP3    H2 6213   6.184   0.593   2.763
 2086TIP3   OH2 6214   5.847   3.181   1.611
 2086TIP3    H1 6215   5.767   3.129   1.621
 2086TIP3    H2 6216   5.852   3.232   1.692
 2087TIP3   OH2 6217   5.010   5.807   1.113
 2087TIP3    H1 6218   4.931   5.860   1.100
 2087TIP3    H2 6219   4.995   5.762   1.195
 2088TIP3   OH2 6220   6.373   7.263   5.260
 2088TIP3    H1 6221   6.430   7.200   5.304
 2088TIP3    H2 6222   6.354   7.328   5.328
 2089TIP3   OH2 6223   1.406   4.244   6.282
 2089TIP3    H1 6224   1.329   4.197   6.247
 2089TIP3    H2 6225   1.426   4.310   6.216
 2090TIP3   OH2 6226   2.982   0.517   5.680
 2090TIP3    H1 6227   3.034   0.578   5.732
 2090TIP3    H2 6228   3.046   0.472   5.625
 2091TIP3   OH2 6229   4.142   1.739   0.036
 2091TIP3    H1 6230   4.151   1.791   0.115
 2091TIP3    H2 6231   4.119   1.651   0.068
 2092TIP3   OH2 6232   5.549   3.811   2.712
 2092TIP3    H1 6233   5.581   3.750   2.779
 2092TIP3    H2 6234   5.508   3.755   2.646
 2093TIP3   OH2 6235   4.353   4.603   6.007
 2093TIP3    H1 6236   4.427   4.553   6.041
 2093TIP3    H2 6237   4.279   4.574   6.060
 2094TIP3   OH2 6238   3.419   1.224   2.578
 2094TIP3    H1 6239   3.438   1.309   2.618
 2094TIP3    H2 6240   3.497   1.172   2.594
 2095TIP3   OH2 6241   3.676   2.557   5.378
 2095TIP3    H1 6242   3.626   2.582   5.456
 2095TIP3    H2 6243   3.694   2.464   5.390
 2096TIP3   OH2 6244   2.686   6.971   1.508
 2096TIP3    H1 6245   2.700   7.066   1.510
 2096TIP3    H2 6246   2.615   6.956   1.570
 2097TIP3   OH2 6247   2.228   3.472   0.947
 2097TIP3    H1 6248   2.227   3.552   0.894
 2097TIP3    H2 6249   2.294   3.417   0.906
 2098TIP3   OH2 6250   6.572   2.774   0.413
 2098TIP3    H1 6251   6.579   2.713   0.338
 2098TIP3    H2 6252   6.569   2.717   0.489
 2099TIP3   OH2 6253   4.768   6.451   3.584
 2099TIP3    H1 6254   4.791   6.422   3.672
 2099TIP3    H2 6255   4.741   6.372   3.538
 2100TIP3   OH2 6256   0.148   7.568   5.131
 2100TIP3    H1 6257   0.234   7.595   5.098
 2100TIP3    H2 6258   0.086   7.613   5.073
 2101TIP3   OH2 6259   1.807   4.060   6.289
 2101TIP3    H1 6260   1.750   4.071   6.365
 2101TIP3    H2 6261   1.811   4.146   6.248
 2102TIP3   OH2 6262   7.267   2.716   0.684
 2102TIP3    H1 6263   7.200   2.674   0.737
 2102TIP3    H2 6264   7.264   2.809   0.710
 2103TIP3   OH2 6265   8.312   4.231   3.548
 2103TIP3    H1 6266   8.379   4.163   3.550
 2103TIP3    H2 6267   8.242   4.194   3.495
 2104TIP3   OH2 6268   2.592   3.639   4.156
 2104TIP3    H1 6269   2.653   3.661   4.226
 2104TIP3    H2 6270   2.563   3.550   4.177
 2105TIP3   OH2 6271   0.277   2.087   6.677
 2105TIP3    H1 6272   0.333   2.163   6.694
 2105TIP3    H2 6273   0.243   2.063   6.763
 2106TIP3   OH2 6274   1.601   5.923   0.939
 2106TIP3    H1 6275   1.665   5.913   0.868
 2106TIP3    H2 6276   1.540   5.850   0.926
 2107TIP3   OH2 6277   4.342   7.144   0.703
 2107TIP3    H1 6278   4.274   7.136   0.636
 2107TIP3    H2 6279   4.297   7.182   0.778
 2108TIP3   OH2 6280   2.664   7.030   3.249
 2108TIP3    H1 6281   2.590   6.987   3.292
 2108TIP3    H2 6282   2.627   7.067   3.169
 2109TIP3   OH2 6283   1.109   4.570   5.139
 2109TIP3    H1 6284   1.075   4.646   5.092
 2109TIP3    H2 6285   1.183   4.604   5.189
 2110TIP3   OH2 6286   5.765   2.691   4.644
 2110TIP3    H1 6287   5.796   2.602   4.662
 2110TIP3    H2 6288   5.740   2.726   4.729
 2111TIP3   OH2 6289   4.901   2.311   2.439
 2111TIP3    H1 6290   4.830   2.247   2.431
 2111TIP3    H2 6291   4.892   2.347   2.527
 2112TIP3   OH2 6292   7.846   0.458   3.947
 2112TIP3    H1 6293   7.836   0.472   3.852
 2112TIP3    H2 6294   7.909   0.387   3.954
 2113TIP3   OH2 6295   7.339   7.608   1.472
 2113TIP3    H1 6296   7.404   7.538   1.468
 2113TIP3    H2 6297   7.334   7.632   1.564
 2114TIP3   OH2 6298   8.143   6.130   1.161
 2114TIP3    H1 6299   8.104   6.092   1.239
 2114TIP3    H2 6300   8.235   6.144   1.186
 2115TIP3   OH2 6301   5.847   2.444   4.684
 2115TIP3    H1 6302   5.844   2.353   4.654
 2115TIP3    H2 6303   5.810   2.441   4.772
 2116TIP3   OH2 6304   4.484   0.745   4.041
 2116TIP3    H1 6305   4.514   0.675   3.983
 2116TIP3    H2 6306   4.425   0.703   4.103
 2117TIP3   OH2 6307   4.553   1.509   0.999
 2117TIP3    H1 6308   4.527   1.488   0.910
 2117TIP3    H2 6309   4.627   1.451   1.017
 2118TIP3   OH2 6310   2.788   6.743   2.313
 2118TIP3    H1 6311   2.790   6.651   2.285
 2118TIP3    H2 6312   2.868   6.781   2.278
 2119TIP3   OH2 6313   8.100   2.791   5.360
 2119TIP3    H1 6314   8.054   2.709   5.340
 2119TIP3    H2 6315   8.193   2.765   5.362
 2120TIP3   OH2 6316   1.426   7.767   1.575
 2120TIP3    H1 6317   1.511   7.724   1.576
 2120TIP3    H2 6318   1.445   7.860   1.586
 2121TIP3   OH2 6319   2.541   5.064   2.344
 2121TIP3    H1 6320   2.535   5.042   2.251
 2121TIP3    H2 6321   2.587   5.148   2.347
 2122TIP3   OH2 6322   7.510   5.367   0.310
 2122TIP3    H1 6323   7.477   5.290   0.358
 2122TIP3    H2 6324   7.581   5.400   0.365
 2123TIP3   OH2 6325   2.811   5.725   6.732
 2123TIP3    H1 6326   2.771   5.646   6.695
 2123TIP3    H2 6327   2.797   5.793   6.666
 2124TIP3   OH2 6328   2.500   4.226   1.100
 2124TIP3    H1 6329   2.442   4.165   1.054
 2124TIP3    H2 6330   2.471   4.223   1.191
 2125TIP3   OH2 6331   6.121   1.067   2.848
 2125TIP3    H1 6332   6.129   1.150   2.895
 2125TIP3    H2 6333   6.178   1.076   2.772
 2126TIP3   OH2 6334   3.109   0.599   2.869
 2126TIP3    H1 6335   3.029   0.641   2.838
 2126TIP3    H2 6336   3.085   0.508   2.885
 2127TIP3   OH2 6337   1.538   3.070   3.445
 2127TIP3    H1 6338   1.616   3.118   3.418
 2127TIP3    H2 6339   1.561   2.977   3.434
 2128TIP3   OH2 6340   3.877   0.417   3.626
 2128TIP3    H1 6341   3.960   0.459   3.648
 2128TIP3    H2 6342   3.902   0.333   3.587
 2129TIP3   OH2 6343   6.958   3.606   3.156
 2129TIP3    H1 6344   7.015   3.602   3.079
 2129TIP3    H2 6345   6.872   3.581   3.124
 2130TIP3   OH2 6346   3.747   4.038   6.039
 2130TIP3    H1 6347   3.708   4.004   6.119
 2130TIP3    H2 6348   3.836   4.063   6.064
 2131TIP3   OH2 6349   1.630   4.324   5.976
 2131TIP3    H1 6350   1.624   4.241   6.024
 2131TIP3    H2 6351   1.622   4.299   5.884
 2132TIP3   OH2 6352   1.241   4.370   1.706
 2132TIP3    H1 6353   1.177   4.310   1.743
 2132TIP3    H2 6354   1.194   4.414   1.635
 2133TIP3   OH2 6355   1.390   6.690   6.594
 2133TIP3    H1 6356   1.308   6.726   6.560
 2133TIP3    H2 6357   1.423   6.758   6.652
 2134TIP3   OH2 6358   0.509   4.368   5.137
 2134TIP3    H1 6359   0.470   4.442   5.183
 2134TIP3    H2 6360   0.594   4.356   5.177
 2135TIP3   OH2 6361   3.131   1.011   6.162
 2135TIP3    H1 6362   3.217   1.037   6.195
 2135TIP3    H2 6363   3.150   0.956   6.086
 2136TIP3   OH2 6364   4.492   0.316   5.056
 2136TIP3    H1 6365   4.398   0.298   5.064
 2136TIP3    H2 6366   4.534   0.233   5.078
 2137TIP3   OH2 6367   7.015   5.425   1.752
 2137TIP3    H1 6368   6.924   5.411   1.777
 2137TIP3    H2 6369   7.063   5.352   1.792
 2138TIP3   OH2 6370   1.872   0.362   3.139
 2138TIP3    H1 6371   1.962   0.332   3.152
 2138TIP3    H2 6372   1.847   0.329   3.053
 2139TIP3   OH2 6373   5.166   4.269   1.608
 2139TIP3    H1 6374   5.137   4.361   1.607
 2139TIP3    H2 6375   5.230   4.263   1.538
 2140TIP3   OH2 6376   2.973   4.508   3.770
 2140TIP3    H1 6377   2.964   4.415   3.754
 2140TIP3    H2 6378   2.967   4.549   3.684
 2141TIP3   OH2 6379   4.946   7.744   4.414
 2141TIP3    H1 6380   5.010   7.815   4.424
 2141TIP3    H2 6381   4.999   7.664   4.414
 2142TIP3   OH2 6382   5.114   5.145   0.089
 2142TIP3    H1 6383   5.107   5.166  -0.005
 2142TIP3    H2 6384   5.150   5.057   0.091
 2143TIP3   OH2 6385   3.476   3.198   0.172
 2143TIP3    H1 6386   3.525   3.273   0.206
 2143TIP3    H2 6387   3.528   3.166   0.098
 2144TIP3   OH2 6388   8.070   3.485   0.974
 2144TIP3    H1 6389   8.048   3.400   1.012
 2144TIP3    H2 6390   8.152   3.510   1.016
 2145TIP3   OH2 6391   6.999   2.813   0.442
 2145TIP3    H1 6392   6.953   2.782   0.364
 2145TIP3    H2 6393   7.086   2.773   0.435
 2146TIP3   OH2 6394   2.460   1.536   4.845
 2146TIP3    H1 6395   2.536   1.576   4.886
 2146TIP3    H2 6396   2.421   1.606   4.792
 2147TIP3   OH2 6397   6.335   5.723   5.704
 2147TIP3    H1 6398   6.315   5.787   5.772
 2147TIP3    H2 6399   6.275   5.650   5.721
 2148TIP3   OH2 6400   1.583   7.073   4.394
 2148TIP3    H1 6401   1.676   7.069   4.372
 2148TIP3    H2 6402   1.558   6.982   4.410
 2149TIP3   OH2 6403   3.330   4.209   3.521
 2149TIP3    H1 6404   3.351   4.147   3.591
 2149TIP3    H2 6405   3.299   4.154   3.448
 2150TIP3   OH2 6406   3.382   4.057   6.049
 2150TIP3    H1 6407   3.355   3.972   6.014
 2150TIP3    H2 6408   3.462   4.038   6.100
 2151TIP3   OH2 6409   3.755   4.787   0.144
 2151TIP3    H1 6410   3.719   4.710   0.188
 2151TIP3    H2 6411   3.680   4.829   0.102
 2152TIP3   OH2 6412   2.968   2.338   6.351
 2152TIP3    H1 6413   2.879   2.346   6.316
 2152TIP3    H2 6414   3.000   2.254   6.317
 2153TIP3   OH2 6415   5.845   6.253   2.809
 2153TIP3    H1 6416   5.892   6.320   2.859
 2153TIP3    H2 6417   5.886   6.171   2.835
 2154TIP3   OH2 6418   6.724   2.877   1.988
 2154TIP3    H1 6419   6.806   2.873   2.037
 2154TIP3    H2 6420   6.743   2.936   1.915
 2155TIP3   OH2 6421   0.907   2.273   0.524
 2155TIP3    H1 6422   0.857   2.277   0.606
 2155TIP3    H2 6423   0.887   2.186   0.489
 2156TIP3   OH2 6424   2.117   7.105   4.211
 2156TIP3    H1 6425   2.094   7.192   4.178
 2156TIP3    H2 6426   2.115   7.049   4.134
 2157TIP3   OH2 6427   6.476   4.516   1.880
 2157TIP3    H1 6428   6.398   4.560   1.916
 2157TIP3    H2 6429   6.529   4.496   1.957
 2158TIP3   OH2 6430   1.464   1.171   4.604
 2158TIP3    H1 6431   1.550   1.188   4.566
 2158TIP3    H2 6432   1.468   1.080   4.633
 2159TIP3   OH2 6433   6.766   7.700   2.372
 2159TIP3    H1 6434   6.790   7.709   2.464
 2159TIP3    H2 6435   6.800   7.779   2.330
 2160TIP3   OH2 6436   2.535   3.022   0.471
 2160TIP3    H1 6437   2.480   2.951   0.507
 2160TIP3    H2 6438   2.522   3.017   0.377
 2161TIP3   OH2 6439   7.034   0.085   4.820
 2161TIP3    H1 6440   7.064  -0.003   4.842
 2161TIP3    H2 6441   7.113   0.138   4.816
 2162TIP3   OH2 6442   2.080   1.067   3.853
 2162TIP3    H1 6443   2.133   1.146   3.865
 2162TIP3    H2 6444   2.038   1.053   3.937
 2163TIP3   OH2 6445   2.599   4.874   1.502
 2163TIP3    H1 6446   2.579   4.781   1.509
 2163TIP3    H2 6447   2.524   4.918   1.541
 2164TIP3   OH2 6448   7.038   7.517   4.243
 2164TIP3    H1 6449   7.013   7.490   4.331
 2164TIP3    H2 6450   7.075   7.438   4.203
 2165TIP3   OH2 6451   1.519   4.482   2.963
 2165TIP3    H1 6452   1.450   4.479   3.030
 2165TIP3    H2 6453   1.483   4.537   2.894
 2166TIP3   OH2 6454   6.078   1.807   6.313
 2166TIP3    H1 6455   6.021   1.730   6.318
 2166TIP3    H2 6456   6.167   1.771   6.313
 2167TIP3   OH2 6457   0.760   3.375   1.197
 2167TIP3    H1 6458   0.741   3.338   1.283
 2167TIP3    H2 6459   0.828   3.319   1.160
 2168TIP3   OH2 6460   1.376   0.262   4.285
 2168TIP3    H1 6461   1.297   0.269   4.339
 2168TIP3    H2 6462   1.359   0.188   4.227
 2169TIP3   OH2 6463   2.761   1.086   5.821
 2169TIP3    H1 6464   2.819   1.092   5.897
 2169TIP3    H2 6465   2.741   1.177   5.799
 2170TIP3   OH2 6466   2.812   0.161   2.580
 2170TIP3    H1 6467   2.753   0.180   2.507
 2170TIP3    H2 6468   2.768   0.091   2.628
 2171TIP3   OH2 6469   0.606   3.481   5.073
 2171TIP3    H1 6470   0.664   3.547   5.036
 2171TIP3    H2 6471   0.519   3.520   5.070
 2172TIP3   OH2 6472   2.769   0.558   6.738
 2172TIP3    H1 6473   2.855   0.598   6.752
 2172TIP3    H2 6474   2.751   0.573   6.645
 2173TIP3   OH2 6475   6.372   4.567   2.492
 2173TIP3    H1 6476   6.389   4.656   2.523
 2173TIP3    H2 6477   6.362   4.576   2.397
 2174TIP3   OH2 6478   6.354   1.018   1.462
 2174TIP3    H1 6479   6.371   1.080   1.390
 2174TIP3    H2 6480   6.440   0.981   1.482
 2175TIP3   OH2 6481   6.956   4.941   0.919
 2175TIP3    H1 6482   6.924   4.960   0.831
 2175TIP3    H2 6483   6.947   4.846   0.928
 2176TIP3   OH2 6484   7.369   6.364   6.444
 2176TIP3    H1 6485   7.330   6.277   6.458
 2176TIP3    H2 6486   7.347   6.413   6.523
 2177TIP3   OH2 6487   3.281   6.992   1.159
 2177TIP3    H1 6488   3.334   6.941   1.098
 2177TIP3    H2 6489   3.191   6.964   1.143
 2178TIP3   OH2 6490   1.874   3.783   4.935
 2178TIP3    H1 6491   1.876   3.704   4.881
 2178TIP3    H2 6492   1.925   3.760   5.012
 2179TIP3   OH2 6493   7.877   5.832   3.818
 2179TIP3    H1 6494   7.834   5.839   3.733
 2179TIP3    H2 6495   7.955   5.778   3.800
 2180TIP3   OH2 6496   0.132   2.423   5.431
 2180TIP3    H1 6497   0.198   2.395   5.494
 2180TIP3    H2 6498   0.130   2.354   5.365
 2181TIP3   OH2 6499   0.615   4.733   6.270
 2181TIP3    H1 6500   0.682   4.729   6.202
 2181TIP3    H2 6501   0.660   4.770   6.346
 2182TIP3   OH2 6502   1.134   3.732   0.416
 2182TIP3    H1 6503   1.144   3.815   0.463
 2182TIP3    H2 6504   1.048   3.737   0.376
 2183TIP3   OH2 6505   0.279   5.020   3.397
 2183TIP3    H1 6506   0.317   5.031   3.310
 2183TIP3    H2 6507   0.304   5.100   3.444
 2184TIP3   OH2 6508   2.657   7.059   6.665
 2184TIP3    H1 6509   2.672   7.008   6.745
 2184TIP3    H2 6510   2.715   7.019   6.600
 2185TIP3   OH2 6511   5.768   0.941   5.033
 2185TIP3    H1 6512   5.861   0.918   5.033
 2185TIP3    H2 6513   5.767   1.036   5.022
 2186TIP3   OH2 6514   0.824   1.268   3.976
 2186TIP3    H1 6515   0.882   1.195   3.996
 2186TIP3    H2 6516   0.881   1.345   3.975
 2187TIP3   OH2 6517   4.337   1.413   6.464
 2187TIP3    H1 6518   4.353   1.500   6.501
 2187TIP3    H2 6519   4.424   1.381   6.440
 2188TIP3   OH2 6520   2.692   6.651   5.160
 2188TIP3    H1 6521   2.690   6.734   5.208
 2188TIP3    H2 6522   2.724   6.588   5.225
 2189TIP3   OH2 6523   3.924   6.309   1.222
 2189TIP3    H1 6524   3.931   6.217   1.246
 2189TIP3    H2 6525   3.884   6.308   1.134
 2190TIP3   OH2 6526   7.594   5.319   2.738
 2190TIP3    H1 6527   7.641   5.245   2.777
 2190TIP3    H2 6528   7.623   5.320   2.647
 2191TIP3   OH2 6529   5.218   7.029   6.527
 2191TIP3    H1 6530   5.298   7.063   6.568
 2191TIP3    H2 6531   5.162   7.106   6.517
 2192TIP3   OH2 6532   1.255   2.315   3.899
 2192TIP3    H1 6533   1.229   2.386   3.957
 2192TIP3    H2 6534   1.298   2.252   3.956
 2193TIP3   OH2 6535   6.438   1.864   4.006
 2193TIP3    H1 6536   6.367   1.811   4.043
 2193TIP3    H2 6537   6.515   1.837   4.055
 2194TIP3   OH2 6538   2.581   7.053   5.479
 2194TIP3    H1 6539   2.582   7.020   5.389
 2194TIP3    H2 6540   2.537   7.138   5.473
 2195TIP3   OH2 6541   2.572   7.724   4.401
 2195TIP3    H1 6542   2.525   7.669   4.463
 2195TIP3    H2 6543   2.602   7.663   4.333
 2196TIP3   OH2 6544   2.918   0.546   3.760
 2196TIP3    H1 6545   3.004   0.551   3.720
 2196TIP3    H2 6546   2.868   0.487   3.704
 2197TIP3   OH2 6547   7.494   6.039   5.108
 2197TIP3    H1 6548   7.525   6.109   5.165
 2197TIP3    H2 6549   7.563   6.029   5.042
 2198TIP3   OH2 6550   2.524   2.923   2.604
 2198TIP3    H1 6551   2.613   2.952   2.620
 2198TIP3    H2 6552   2.530   2.866   2.527
 2199TIP3   OH2 6553   7.139   6.547   5.904
 2199TIP3    H1 6554   7.138   6.520   5.996
 2199TIP3    H2 6555   7.103   6.636   5.905
 2200TIP3   OH2 6556   6.620   0.948   6.538
 2200TIP3    H1 6557   6.638   1.041   6.525
 2200TIP3    H2 6558   6.652   0.906   6.458
 2201TIP3   OH2 6559   5.824   2.713   6.114
 2201TIP3    H1 6560   5.796   2.699   6.204
 2201TIP3    H2 6561   5.915   2.682   6.112
 2202TIP3   OH2 6562   3.337   2.645   3.156
 2202TIP3    H1 6563   3.255   2.661   3.110
 2202TIP3    H2 6564   3.325   2.560   3.198
 2203TIP3   OH2 6565   0.952   2.911   1.504
 2203TIP3    H1 6566   0.865   2.919   1.463
 2203TIP3    H2 6567   1.002   2.858   1.443
 2204TIP3   OH2 6568   0.736   4.499   1.618
 2204TIP3    H1 6569   0.791   4.430   1.580
 2204TIP3    H2 6570   0.780   4.520   1.701
 2205TIP3   OH2 6571   1.593   2.890   4.091
 2205TIP3    H1 6572   1.656   2.822   4.114
 2205TIP3    H2 6573   1.646   2.969   4.078
 2206TIP3   OH2 6574   3.530   0.686   0.028
 2206TIP3    H1 6575   3.467   0.647   0.088
 2206TIP3    H2 6576   3.606   0.628   0.031
 2207TIP3   OH2 6577   7.762   1.980   2.524
 2207TIP3    H1 6578   7.758   2.026   2.441
 2207TIP3    H2 6579   7.744   2.047   2.590
 2208TIP3   OH2 6580   0.241   2.287   2.282
 2208TIP3    H1 6581   0.213   2.359   2.225
 2208TIP3    H2 6582   0.284   2.330   2.356
 2209TIP3   OH2 6583   5.209   3.112   0.004
 2209TIP3    H1 6584   5.144   3.044  -0.011
 2209TIP3    H2 6585   5.198   3.135   0.097
 2210TIP3   OH2 6586   1.248   2.418   4.750
 2210TIP3    H1 6587   1.251   2.330   4.711
 2210TIP3    H2 6588   1.177   2.462   4.704
 2211TIP3   OH2 6589   3.014   6.286   6.426
 2211TIP3    H1 6590   3.036   6.312   6.516
 2211TIP3    H2 6591   3.016   6.191   6.427
 2212TIP3   OH2 6592   0.805   4.857   1.353
 2212TIP3    H1 6593   0.836   4.837   1.265
 2212TIP3    H2 6594   0.818   4.951   1.363
 2213TIP3   OH2 6595   5.376   0.153   3.639
 2213TIP3    H1 6596   5.343   0.204   3.565
 2213TIP3    H2 6597   5.298   0.131   3.690
 2214TIP3   OH2 6598   3.248   1.726   3.535
 2214TIP3    H1 6599   3.273   1.720   3.627
 2214TIP3    H2 6600   3.163   1.769   3.535
 2215TIP3   OH2 6601   0.570   3.725   0.064
 2215TIP3    H1 6602   0.496   3.667   0.049
 2215TIP3    H2 6603   0.531   3.808   0.093
 2216TIP3   OH2 6604   5.477   7.731   5.290
 2216TIP3    H1 6605   5.559   7.685   5.310
 2216TIP3    H2 6606   5.429   7.731   5.373
 2217TIP3   OH2 6607   5.213   2.162   4.126
 2217TIP3    H1 6608   5.285   2.192   4.182
 2217TIP3    H2 6609   5.204   2.231   4.060
 2218TIP3   OH2 6610   0.261   3.890   5.538
 2218TIP3    H1 6611   0.231   3.978   5.562
 2218TIP3    H2 6612   0.187   3.851   5.492
 2219TIP3   OH2 6613   7.221   0.610   1.776
 2219TIP3    H1 6614   7.264   0.622   1.691
 2219TIP3    H2 6615   7.273   0.663   1.837
 2220TIP3   OH2 6616   5.915   1.955   6.482
 2220TIP3    H1 6617   5.841   1.907   6.445
 2220TIP3    H2 6618   5.989   1.931   6.425
 2221TIP3   OH2 6619   0.391   6.411   0.790
 2221TIP3    H1 6620   0.421   6.415   0.881
 2221TIP3    H2 6621   0.412   6.322   0.762
 2222TIP3   OH2 6622   6.414   3.066   4.864
 2222TIP3    H1 6623   6.356   3.043   4.792
 2222TIP3    H2 6624   6.479   3.125   4.825
 2223TIP3   OH2 6625   7.566   3.751   1.457
 2223TIP3    H1 6626   7.495   3.815   1.459
 2223TIP3    H2 6627   7.642   3.799   1.491
 2224TIP3   OH2 6628   0.545   5.479   2.869
 2224TIP3    H1 6629   0.536   5.574   2.864
 2224TIP3    H2 6630   0.457   5.447   2.890
 2225TIP3   OH2 6631   1.192   1.310   2.461
 2225TIP3    H1 6632   1.251   1.280   2.530
 2225TIP3    H2 6633   1.105   1.301   2.498
 2226TIP3   OH2 6634   6.099   2.420   1.045
 2226TIP3    H1 6635   6.080   2.442   1.136
 2226TIP3    H2 6636   6.060   2.333   1.032
 2227TIP3   OH2 6637   5.785   2.068   0.851
 2227TIP3    H1 6638   5.823   1.980   0.857
 2227TIP3    H2 6639   5.747   2.071   0.763
 2228TIP3   OH2 6640   4.268   0.414   3.242
 2228TIP3    H1 6641   4.361   0.421   3.264
 2228TIP3    H2 6642   4.266   0.405   3.146
 2229TIP3   OH2 6643   6.568   1.404   5.558
 2229TIP3    H1 6644   6.622   1.407   5.479
 2229TIP3    H2 6645   6.605   1.333   5.610
 2230TIP3   OH2 6646   0.896   0.676   1.482
 2230TIP3    H1 6647   0.880   0.667   1.576
 2230TIP3    H2 6648   0.930   0.766   1.473
 2231TIP3   OH2 6649   5.364   4.845   6.039
 2231TIP3    H1 6650   5.299   4.915   6.028
 2231TIP3    H2 6651   5.406   4.838   5.953
 2232TIP3   OH2 6652   1.716   0.686   4.679
 2232TIP3    H1 6653   1.686   0.603   4.717
 2232TIP3    H2 6654   1.801   0.665   4.640
 2233TIP3   OH2 6655   0.356   0.321   4.213
 2233TIP3    H1 6656   0.374   0.228   4.197
 2233TIP3    H2 6657   0.260   0.328   4.206
 2234TIP3   OH2 6658   1.082   1.197   2.940
 2234TIP3    H1 6659   1.085   1.129   3.007
 2234TIP3    H2 6660   1.007   1.172   2.885
 2235TIP3   OH2 6661   6.538   7.284   5.844
 2235TIP3    H1 6662   6.625   7.291   5.804
 2235TIP3    H2 6663   6.504   7.201   5.812
 2236TIP3   OH2 6664   1.761   5.500   0.611
 2236TIP3    H1 6665   1.808   5.461   0.685
 2236TIP3    H2 6666   1.830   5.530   0.552
 2237TIP3   OH2 6667   8.213   1.026   3.038
 2237TIP3    H1 6668   8.133   0.991   3.000
 2237TIP3    H2 6669   8.191   1.117   3.060
 2238TIP3   OH2 6670   7.000   7.434   2.381
 2238TIP3    H1 6671   6.951   7.503   2.337
 2238TIP3    H2 6672   6.974   7.440   2.473
 2239TIP3   OH2 6673   3.654   5.642   1.455
 2239TIP3    H1 6674   3.622   5.730   1.478
 2239TIP3    H2 6675   3.575   5.595   1.428
 2240TIP3   OH2 6676   2.972   6.551   3.997
 2240TIP3    H1 6677   3.027   6.490   3.948
 2240TIP3    H2 6678   2.971   6.631   3.944
 2241TIP3   OH2 6679   0.644   0.323   0.764
 2241TIP3    H1 6680   0.735   0.297   0.778
 2241TIP3    H2 6681   0.631   0.317   0.670
 2242TIP3   OH2 6682   6.583   2.715   4.881
 2242TIP3    H1 6683   6.540   2.640   4.841
 2242TIP3    H2 6684   6.569   2.703   4.975
 2243TIP3   OH2 6685   7.209   6.178   2.282
 2243TIP3    H1 6686   7.275   6.136   2.337
 2243TIP3    H2 6687   7.214   6.271   2.304
 2244TIP3   OH2 6688   1.859   2.438   3.089
 2244TIP3    H1 6689   1.912   2.463   3.013
 2244TIP3    H2 6690   1.844   2.344   3.077
 2245TIP3   OH2 6691   5.422   2.839   3.991
 2245TIP3    H1 6692   5.371   2.760   4.010
 2245TIP3    H2 6693   5.373   2.883   3.922
 2246TIP3   OH2 6694   3.647   4.069   0.191
 2246TIP3    H1 6695   3.651   3.988   0.242
 2246TIP3    H2 6696   3.608   4.043   0.108
 2247TIP3   OH2 6697   4.309   0.825   0.732
 2247TIP3    H1 6698   4.396   0.854   0.761
 2247TIP3    H2 6699   4.319   0.807   0.639
 2248TIP3   OH2 6700   1.876   4.462   2.674
 2248TIP3    H1 6701   1.928   4.541   2.687
 2248TIP3    H2 6702   1.935   4.400   2.632
 2249TIP3   OH2 6703   3.755   6.643   6.740
 2249TIP3    H1 6704   3.721   6.677   6.658
 2249TIP3    H2 6705   3.753   6.548   6.729
 2250TIP3   OH2 6706   2.419   4.795   6.728
 2250TIP3    H1 6707   2.436   4.701   6.726
 2250TIP3    H2 6708   2.385   4.812   6.816
 2251TIP3   OH2 6709   7.849   4.503   3.849
 2251TIP3    H1 6710   7.888   4.577   3.896
 2251TIP3    H2 6711   7.878   4.426   3.898
 2252TIP3   OH2 6712   6.858   4.129   2.727
 2252TIP3    H1 6713   6.789   4.096   2.785
 2252TIP3    H2 6714   6.929   4.065   2.736
 2253TIP3   OH2 6715   6.753   0.232   6.151
 2253TIP3    H1 6716   6.784   0.253   6.063
 2253TIP3    H2 6717   6.668   0.191   6.138
 2254TIP3   OH2 6718   5.122   3.299   5.804
 2254TIP3    H1 6719   5.139   3.220   5.753
 2254TIP3    H2 6720   5.040   3.333   5.769
 2255TIP3   OH2 6721   5.885   2.441   2.067
 2255TIP3    H1 6722   5.967   2.467   2.109
 2255TIP3    H2 6723   5.873   2.350   2.092
 2256TIP3   OH2 6724   7.898   0.456   6.013
 2256TIP3    H1 6725   7.873   0.399   5.940
 2256TIP3    H2 6726   7.886   0.401   6.091
 2257TIP3   OH2 6727   0.723   1.796   0.245
 2257TIP3    H1 6728   0.639   1.760   0.273
 2257TIP3    H2 6729   0.741   1.751   0.162
 2258TIP3   OH2 6730   8.211   5.437   1.340
 2258TIP3    H1 6731   8.260   5.445   1.421
 2258TIP3    H2 6732   8.127   5.399   1.365
 2259TIP3   OH2 6733   5.604   4.312   6.142
 2259TIP3    H1 6734   5.686   4.341   6.183
 2259TIP3    H2 6735   5.632   4.248   6.077
 2260TIP3   OH2 6736   6.961   2.210   0.209
 2260TIP3    H1 6737   6.912   2.275   0.159
 2260TIP3    H2 6738   7.052   2.241   0.206
 2261TIP3   OH2 6739   1.660   2.031   3.130
 2261TIP3    H1 6740   1.621   1.944   3.120
 2261TIP3    H2 6741   1.607   2.088   3.073
 2262TIP3   OH2 6742   5.470   7.689   1.152
 2262TIP3    H1 6743   5.412   7.744   1.204
 2262TIP3    H2 6744   5.509   7.628   1.215
 2263TIP3   OH2 6745   5.423   5.334   5.901
 2263TIP3    H1 6746   5.495   5.276   5.924
 2263TIP3    H2 6747   5.465   5.413   5.866
 2264TIP3   OH2 6748   4.747   6.351   2.635
 2264TIP3    H1 6749   4.664   6.395   2.658
 2264TIP3    H2 6750   4.798   6.355   2.716
 2265TIP3   OH2 6751   6.759   6.380   3.205
 2265TIP3    H1 6752   6.802   6.356   3.287
 2265TIP3    H2 6753   6.830   6.383   3.141
 2266TIP3   OH2 6754   8.264   4.217   3.141
 2266TIP3    H1 6755   8.171   4.194   3.139
 2266TIP3    H2 6756   8.268   4.296   3.195
 2267TIP3   OH2 6757   5.411   3.447   6.117
 2267TIP3    H1 6758   5.336   3.391   6.096
 2267TIP3    H2 6759   5.406   3.460   6.212
 2268TIP3   OH2 6760   1.542   0.298   3.395
 2268TIP3    H1 6761   1.453   0.325   3.420
 2268TIP3    H2 6762   1.551   0.327   3.304
 2269TIP3   OH2 6763   3.986   0.028   2.686
 2269TIP3    H1 6764   3.957   0.024   2.595
 2269TIP3    H2 6765   3.978  -0.063   2.717
 2270TIP3   OH2 6766   7.819   3.276   4.028
 2270TIP3    H1 6767   7.809   3.264   3.934
 2270TIP3    H2 6768   7.745   3.229   4.066
 2271TIP3   OH2 6769   1.236   1.451   3.177
 2271TIP3    H1 6770   1.281   1.484   3.254
 2271TIP3    H2 6771   1.169   1.517   3.158
 2272TIP3   OH2 6772   4.806   7.656   2.463
 2272TIP3    H1 6773   4.774   7.729   2.409
 2272TIP3    H2 6774   4.886   7.690   2.503
 2273TIP3   OH2 6775   2.463   7.500   2.232
 2273TIP3    H1 6776   2.389   7.521   2.175
 2273TIP3    H2 6777   2.472   7.577   2.289
 2274TIP3   OH2 6778   3.288   5.944   5.709
 2274TIP3    H1 6779   3.216   5.940   5.772
 2274TIP3    H2 6780   3.341   5.866   5.729
 2275TIP3   OH2 6781   3.870   0.644   3.162
 2275TIP3    H1 6782   3.841   0.710   3.099
 2275TIP3    H2 6783   3.819   0.566   3.141
 2276TIP3   OH2 6784   2.803   1.904   0.984
 2276TIP3    H1 6785   2.846   1.990   0.977
 2276TIP3    H2 6786   2.874   1.841   0.975
 2277TIP3   OH2 6787   0.245   6.197   1.802
 2277TIP3    H1 6788   0.290   6.196   1.886
 2277TIP3    H2 6789   0.278   6.276   1.759
 2278TIP3   OH2 6790   3.326   2.117   1.342
 2278TIP3    H1 6791   3.361   2.056   1.407
 2278TIP3    H2 6792   3.247   2.074   1.308
 2279TIP3   OH2 6793   0.492   5.323   5.806
 2279TIP3    H1 6794   0.468   5.256   5.871
 2279TIP3    H2 6795   0.408   5.354   5.772
 2280TIP3   OH2 6796   1.779   4.501   5.323
 2280TIP3    H1 6797   1.873   4.516   5.312
 2280TIP3    H2 6798   1.771   4.465   5.411
 2281TIP3   OH2 6799   5.507   6.921   5.620
 2281TIP3    H1 6800   5.555   6.841   5.599
 2281TIP3    H2 6801   5.434   6.922   5.558
 2282TIP3   OH2 6802   3.349   5.872   2.903
 2282TIP3    H1 6803   3.324   5.883   2.995
 2282TIP3    H2 6804   3.374   5.780   2.895
 2283TIP3   OH2 6805   7.303   2.510   0.472
 2283TIP3    H1 6806   7.292   2.576   0.540
 2283TIP3    H2 6807   7.266   2.550   0.393
 2284TIP3   OH2 6808   8.117   6.860   4.518
 2284TIP3    H1 6809   8.163   6.901   4.591
 2284TIP3    H2 6810   8.171   6.783   4.497
 2285TIP3   OH2 6811   6.782   3.649   4.005
 2285TIP3    H1 6812   6.709   3.668   4.065
 2285TIP3    H2 6813   6.834   3.583   4.051
 2286TIP3   OH2 6814   4.091   2.264   4.768
 2286TIP3    H1 6815   4.172   2.312   4.749
 2286TIP3    H2 6816   4.058   2.237   4.682
 2287TIP3   OH2 6817   1.547   1.294   5.768
 2287TIP3    H1 6818   1.491   1.371   5.757
 2287TIP3    H2 6819   1.628   1.329   5.805
 2288TIP3   OH2 6820   6.188   1.631   1.897
 2288TIP3    H1 6821   6.272   1.663   1.930
 2288TIP3    H2 6822   6.186   1.661   1.806
 2289TIP3   OH2 6823   0.863   1.946   6.167
 2289TIP3    H1 6824   0.835   2.033   6.138
 2289TIP3    H2 6825   0.781   1.898   6.179
 2290TIP3   OH2 6826   1.432   6.310   0.826
 2290TIP3    H1 6827   1.415   6.261   0.745
 2290TIP3    H2 6828   1.444   6.242   0.892
 2291TIP3   OH2 6829   5.945   3.465   1.736
 2291TIP3    H1 6830   5.934   3.409   1.812
 2291TIP3    H2 6831   5.869   3.446   1.681
 2292TIP3   OH2 6832   7.616   0.400   1.009
 2292TIP3    H1 6833   7.614   0.314   0.968
 2292TIP3    H2 6834   7.571   0.389   1.092
 2293TIP3   OH2 6835   1.264   7.015   2.994
 2293TIP3    H1 6836   1.211   7.092   3.016
 2293TIP3    H2 6837   1.203   6.957   2.948
 2294TIP3   OH2 6838   1.443   7.872   2.485
 2294TIP3    H1 6839   1.351   7.895   2.499
 2294TIP3    H2 6840   1.445   7.777   2.487
 2295TIP3   OH2 6841   7.895   7.651   5.081
 2295TIP3    H1 6842   7.894   7.583   5.148
 2295TIP3    H2 6843   7.848   7.614   5.007
 2296TIP3   OH2 6844   5.516   1.465   6.456
 2296TIP3    H1 6845   5.570   1.432   6.384
 2296TIP3    H2 6846   5.579   1.499   6.519
 2297TIP3   OH2 6847   2.965   6.827   4.449
 2297TIP3    H1 6848   2.957   6.757   4.384
 2297TIP3    H2 6849   2.902   6.804   4.517
 2298TIP3   OH2 6850   4.100   2.464   5.797
 2298TIP3    H1 6851   4.186   2.486   5.759
 2298TIP3    H2 6852   4.065   2.548   5.825
 2299TIP3   OH2 6853   7.289   7.316   0.468
 2299TIP3    H1 6854   7.216   7.289   0.412
 2299TIP3    H2 6855   7.246   7.351   0.546
 2300TIP3   OH2 6856   7.663   6.350   1.782
 2300TIP3    H1 6857   7.689   6.347   1.874
 2300TIP3    H2 6858   7.736   6.310   1.735
 2301TIP3   OH2 6859   0.922  -0.030   0.269
 2301TIP3    H1 6860   0.978   0.029   0.319
 2301TIP3    H2 6861   0.967  -0.043   0.186
 2302TIP3   OH2 6862   3.750   1.764   3.349
 2302TIP3    H1 6863   3.789   1.742   3.264
 2302TIP3    H2 6864   3.748   1.860   3.350
 2303TIP3   OH2 6865   3.483   5.254   4.099
 2303TIP3    H1 6866   3.450   5.205   4.174
 2303TIP3    H2 6867   3.408   5.304   4.067
 2304TIP3   OH2 6868   4.581   2.112   3.863
 2304TIP3    H1 6869   4.608   2.069   3.944
 2304TIP3    H2 6870   4.589   2.206   3.883
 2305TIP3   OH2 6871   0.954   3.594   5.670
 2305TIP3    H1 6872   1.009   3.563   5.598
 2305TIP3    H2 6873   0.932   3.684   5.646
 2306TIP3   OH2 6874   3.558   4.446   6.178
 2306TIP3    H1 6875   3.495   4.441   6.107
 2306TIP3    H2 6876   3.613   4.522   6.157
 2307TIP3   OH2 6877   6.907   1.969   2.565
 2307TIP3    H1 6878   6.873   1.913   2.636
 2307TIP3    H2 6879   6.909   2.057   2.603
 2308TIP3   OH2 6880   7.526   2.910   4.083
 2308TIP3    H1 6881   7.599   2.855   4.112
 2308TIP3    H2 6882   7.474   2.853   4.027
 2309TIP3   OH2 6883   1.387   2.157   5.284
 2309TIP3    H1 6884   1.313   2.163   5.224
 2309TIP3    H2 6885   1.461   2.131   5.229
 2310TIP3   OH2 6886   2.595   3.811   0.438
 2310TIP3    H1 6887   2.516   3.854   0.471
 2310TIP3    H2 6888   2.658   3.881   0.427
 2311TIP3   OH2 6889   7.338   1.309   5.789
 2311TIP3    H1 6890   7.281   1.240   5.754
 2311TIP3    H2 6891   7.299   1.390   5.755
 2312TIP3   OH2 6892   2.304   4.511   1.059
 2312TIP3    H1 6893   2.385   4.527   1.107
 2312TIP3    H2 6894   2.285   4.418   1.072
 2313TIP3   OH2 6895   7.062   3.348   6.117
 2313TIP3    H1 6896   6.998   3.289   6.078
 2313TIP3    H2 6897   7.012   3.401   6.180
 2314TIP3   OH2 6898   4.476   7.754   0.235
 2314TIP3    H1 6899   4.569   7.738   0.250
 2314TIP3    H2 6900   4.439   7.666   0.224
 2315TIP3   OH2 6901   7.762  -0.028   1.854
 2315TIP3    H1 6902   7.677   0.015   1.851
 2315TIP3    H2 6903   7.825   0.044   1.865
 2316TIP3   OH2 6904   7.617   5.660   6.542
 2316TIP3    H1 6905   7.579   5.587   6.591
 2316TIP3    H2 6906   7.545   5.722   6.531
 2317TIP3   OH2 6907   3.086   5.769   5.879
 2317TIP3    H1 6908   3.024   5.793   5.948
 2317TIP3    H2 6909   3.036   5.779   5.797
 2318TIP3   OH2 6910   1.090   0.306   5.938
 2318TIP3    H1 6911   1.053   0.395   5.936
 2318TIP3    H2 6912   1.026   0.255   5.989
 2319TIP3   OH2 6913   6.911   1.001   1.707
 2319TIP3    H1 6914   6.871   1.085   1.688
 2319TIP3    H2 6915   6.938   1.008   1.799
 2320TIP3   OH2 6916   1.708   2.733   6.595
 2320TIP3    H1 6917   1.704   2.650   6.642
 2320TIP3    H2 6918   1.734   2.797   6.661
 2321TIP3   OH2 6919   6.056   6.916   1.080
 2321TIP3    H1 6920   6.021   6.998   1.044
 2321TIP3    H2 6921   5.997   6.895   1.152
 2322TIP3   OH2 6922   5.858   2.341   1.530
 2322TIP3    H1 6923   5.903   2.368   1.610
 2322TIP3    H2 6924   5.767   2.367   1.543
 2323TIP3   OH2 6925   4.059   6.110   4.039
 2323TIP3    H1 6926   4.137   6.076   4.083
 2323TIP3    H2 6927   4.092   6.147   3.958
 2324TIP3   OH2 6928   5.884   1.238   0.642
 2324TIP3    H1 6929   5.818   1.217   0.577
 2324TIP3    H2 6930   5.959   1.270   0.592
 2325TIP3   OH2 6931   2.445   2.962   4.766
 2325TIP3    H1 6932   2.532   3.002   4.766
 2325TIP3    H2 6933   2.400   3.004   4.693
 2326TIP3   OH2 6934   6.609   7.274   0.110
 2326TIP3    H1 6935   6.590   7.228   0.192
 2326TIP3    H2 6936   6.578   7.215   0.042
 2327TIP3   OH2 6937   2.367   0.397   2.464
 2327TIP3    H1 6938   2.407   0.345   2.394
 2327TIP3    H2 6939   2.329   0.332   2.523
 2328TIP3   OH2 6940   0.941   2.585   5.939
 2328TIP3    H1 6941   0.954   2.563   5.846
 2328TIP3    H2 6942   0.860   2.636   5.941
 2329TIP3   OH2 6943   7.742   7.702   0.774
 2329TIP3    H1 6944   7.781   7.622   0.737
 2329TIP3    H2 6945   7.811   7.768   0.765
 2330TIP3   OH2 6946   0.230   2.125   3.293
 2330TIP3    H1 6947   0.278   2.110   3.211
 2330TIP3    H2 6948   0.174   2.047   3.302
 2331TIP3   OH2 6949   6.663   3.729   2.742
 2331TIP3    H1 6950   6.581   3.720   2.693
 2331TIP3    H2 6951   6.718   3.657   2.711
 2332TIP3   OH2 6952   2.593   5.670   0.746
 2332TIP3    H1 6953   2.580   5.594   0.689
 2332TIP3    H2 6954   2.504   5.694   0.773
 2333TIP3   OH2 6955   6.511   4.652   5.136
 2333TIP3    H1 6956   6.438   4.713   5.152
 2333TIP3    H2 6957   6.559   4.651   5.219
 2334TIP3   OH2 6958   4.163   1.505   1.979
 2334TIP3    H1 6959   4.196   1.594   1.974
 2334TIP3    H2 6960   4.239   1.452   2.002
 2335TIP3   OH2 6961   0.554   4.082   2.473
 2335TIP3    H1 6962   0.468   4.042   2.481
 2335TIP3    H2 6963   0.566   4.097   2.379
 2336TIP3   OH2 6964   5.220   0.289   5.159
 2336TIP3    H1 6965   5.263   0.216   5.115
 2336TIP3    H2 6966   5.170   0.333   5.090
 2337TIP3   OH2 6967   1.845   5.674   1.500
 2337TIP3    H1 6968   1.832   5.718   1.584
 2337TIP3    H2 6969   1.810   5.736   1.435
 2338TIP3   OH2 6970   3.496   7.143   6.271
 2338TIP3    H1 6971   3.442   7.100   6.205
 2338TIP3    H2 6972   3.572   7.175   6.223
 2339TIP3   OH2 6973   4.865   6.527   1.918
 2339TIP3    H1 6974   4.901   6.597   1.863
 2339TIP3    H2 6975   4.771   6.543   1.918
 2340TIP3   OH2 6976   6.267   4.780   6.047
 2340TIP3    H1 6977   6.269   4.686   6.066
 2340TIP3    H2 6978   6.193   4.791   5.988
 2341TIP3   OH2 6979   0.920   0.474   2.305
 2341TIP3    H1 6980   0.919   0.558   2.350
 2341TIP3    H2 6981   0.980   0.420   2.357
 2342TIP3   OH2 6982   3.035   2.727   6.437
 2342TIP3    H1 6983   3.127   2.754   6.438
 2342TIP3    H2 6984   3.038   2.633   6.452
 2343TIP3   OH2 6985   6.346   6.146   3.464
 2343TIP3    H1 6986   6.373   6.055   3.452
 2343TIP3    H2 6987   6.257   6.150   3.428
 2344TIP3   OH2 6988   7.476   5.282   3.853
 2344TIP3    H1 6989   7.513   5.235   3.927
 2344TIP3    H2 6990   7.549   5.335   3.819
 2345TIP3   OH2 6991   4.395   3.115   5.077
 2345TIP3    H1 6992   4.308   3.090   5.109
 2345TIP3    H2 6993   4.390   3.210   5.067
 2346TIP3   OH2 6994   7.248   6.011   4.465
 2346TIP3    H1 6995   7.243   5.958   4.386
 2346TIP3    H2 6996   7.321   6.071   4.449
 2347TIP3   OH2 6997   0.855   0.521   1.083
 2347TIP3    H1 6998   0.849   0.500   0.990
 2347TIP3    H2 6999   0.840   0.615   1.087
 2348TIP3   OH2 7000   1.695   0.515   2.651
 2348TIP3    H1 7001   1.678   0.559   2.734
 2348TIP3    H2 7002   1.608   0.503   2.612
 2349TIP3   OH2 7003   2.452   4.585   1.918
 2349TIP3    H1 7004   2.459   4.548   2.006
 2349TIP3    H2 7005   2.366   4.558   1.887
 2350TIP3   OH2 7006   6.192   1.654   3.281
 2350TIP3    H1 7007   6.235   1.604   3.351
 2350TIP3    H2 7008   6.223   1.743   3.292
 2351TIP3   OH2 7009   2.365   6.689   2.169
 2351TIP3    H1 7010   2.381   6.597   2.151
 2351TIP3    H2 7011   2.447   6.733   2.147
 2352TIP3   OH2 7012   3.551   0.704   4.455
 2352TIP3    H1 7013   3.515   0.786   4.488
 2352TIP3    H2 7014   3.537   0.641   4.525
 2353TIP3   OH2 7015   5.078   3.564   3.053
 2353TIP3    H1 7016   4.997   3.546   3.101
 2353TIP3    H2 7017   5.055   3.636   2.995
 2354TIP3   OH2 7018   6.549   3.313   4.810
 2354TIP3    H1 7019   6.486   3.385   4.810
 2354TIP3    H2 7020   6.631   3.353   4.838
 2355TIP3   OH2 7021   3.603   7.256   0.994
 2355TIP3    H1 7022   3.546   7.251   1.071
 2355TIP3    H2 7023   3.622   7.349   0.983
 2356TIP3   OH2 7024   6.956   4.443   4.181
 2356TIP3    H1 7025   7.004   4.447   4.098
 2356TIP3    H2 7026   6.950   4.350   4.201
 2357TIP3   OH2 7027   4.668   7.473   5.044
 2357TIP3    H1 7028   4.656   7.477   4.949
 2357TIP3    H2 7029   4.581   7.454   5.079
 2358TIP3   OH2 7030   1.532   2.000   2.653
 2358TIP3    H1 7031   1.583   2.079   2.636
 2358TIP3    H2 7032   1.443   2.031   2.670
 2359TIP3   OH2 7033   2.958   4.028   1.582
 2359TIP3    H1 7034   2.868   4.014   1.553
 2359TIP3    H2 7035   3.008   3.958   1.539
 2360TIP3   OH2 7036   0.110   5.502   4.393
 2360TIP3    H1 7037   0.088   5.410   4.376
 2360TIP3    H2 7038   0.052   5.552   4.336
 2361TIP3   OH2 7039   4.000   4.890   0.499
 2361TIP3    H1 7040   3.999   4.940   0.580
 2361TIP3    H2 7041   3.938   4.935   0.442
 2362TIP3   OH2 7042   1.651   3.819   4.393
 2362TIP3    H1 7043   1.570   3.853   4.355
 2362TIP3    H2 7044   1.680   3.888   4.453
 2363TIP3   OH2 7045   4.155   0.181   6.407
 2363TIP3    H1 7046   4.061   0.160   6.407
 2363TIP3    H2 7047   4.160   0.268   6.366
 2364TIP3   OH2 7048   2.148   5.283   6.690
 2364TIP3    H1 7049   2.148   5.195   6.652
 2364TIP3    H2 7050   2.113   5.271   6.778
 2365TIP3   OH2 7051   7.743   5.741   1.757
 2365TIP3    H1 7052   7.676   5.808   1.743
 2365TIP3    H2 7053   7.759   5.743   1.852
 2366TIP3   OH2 7054   6.973   0.424   2.196
 2366TIP3    H1 7055   6.926   0.411   2.114
 2366TIP3    H2 7056   6.904   0.427   2.263
 2367TIP3   OH2 7057   2.761   4.867   2.789
 2367TIP3    H1 7058   2.828   4.799   2.787
 2367TIP3    H2 7059   2.680   4.821   2.768
 2368TIP3   OH2 7060   2.063   3.592   0.123
 2368TIP3    H1 7061   2.041   3.680   0.154
 2368TIP3    H2 7062   1.991   3.537   0.154
 2369TIP3   OH2 7063   0.698   3.659   6.289
 2369TIP3    H1 7064   0.625   3.717   6.307
 2369TIP3    H2 7065   0.712   3.611   6.370
 2370TIP3   OH2 7066   6.655   0.443   4.718
 2370TIP3    H1 7067   6.612   0.366   4.757
 2370TIP3    H2 7068   6.644   0.512   4.783
 2371TIP3   OH2 7069   0.345   6.369   0.418
 2371TIP3    H1 7070   0.291   6.336   0.490
 2371TIP3    H2 7071   0.288   6.364   0.341
 2372TIP3   OH2 7072   5.185   2.879   5.339
 2372TIP3    H1 7073   5.238   2.953   5.368
 2372TIP3    H2 7074   5.165   2.899   5.247
 2373TIP3   OH2 7075   5.458   0.132   4.473
 2373TIP3    H1 7076   5.425   0.043   4.460
 2373TIP3    H2 7077   5.399   0.170   4.538
 2374TIP3   OH2 7078   1.207   1.005   6.001
 2374TIP3    H1 7079   1.300   0.987   5.985
 2374TIP3    H2 7080   1.202   1.100   6.009
 2375TIP3   OH2 7081   4.439   5.443   3.908
 2375TIP3    H1 7082   4.497   5.367   3.900
 2375TIP3    H2 7083   4.484   5.502   3.969
 2376TIP3   OH2 7084   0.286   2.264   1.454
 2376TIP3    H1 7085   0.223   2.210   1.407
 2376TIP3    H2 7086   0.267   2.353   1.426
 2377TIP3   OH2 7087   4.716   3.406   0.607
 2377TIP3    H1 7088   4.637   3.411   0.661
 2377TIP3    H2 7089   4.690   3.446   0.524
 2378TIP3   OH2 7090   7.417   2.496   5.280
 2378TIP3    H1 7091   7.427   2.464   5.369
 2378TIP3    H2 7092   7.324   2.516   5.271
 2379TIP3   OH2 7093   7.746   7.666   1.379
 2379TIP3    H1 7094   7.734   7.757   1.404
 2379TIP3    H2 7095   7.829   7.665   1.331
 2380TIP3   OH2 7096   1.917   7.751   2.333
 2380TIP3    H1 7097   2.000   7.741   2.379
 2380TIP3    H2 7098   1.859   7.793   2.396
 2381TIP3   OH2 7099   4.887   2.707   0.806
 2381TIP3    H1 7100   4.958   2.748   0.756
 2381TIP3    H2 7101   4.928   2.681   0.888
 2382TIP3   OH2 7102   7.491   2.545   2.112
 2382TIP3    H1 7103   7.398   2.523   2.113
 2382TIP3    H2 7104   7.532   2.470   2.068
 2383TIP3   OH2 7105   4.877   0.246   6.008
 2383TIP3    H1 7106   4.857   0.300   6.084
 2383TIP3    H2 7107   4.926   0.304   5.949
 2384TIP3   OH2 7108   0.951   4.284   0.218
 2384TIP3    H1 7109   0.965   4.314   0.308
 2384TIP3    H2 7110   0.979   4.358   0.164
 2385TIP3   OH2 7111   6.632   3.005   1.728
 2385TIP3    H1 7112   6.700   2.983   1.664
 2385TIP3    H2 7113   6.596   2.921   1.755
 2386TIP3   OH2 7114   4.812   7.510   2.216
 2386TIP3    H1 7115   4.831   7.557   2.298
 2386TIP3    H2 7116   4.797   7.580   2.152
 2387TIP3   OH2 7117   6.466   1.404   2.929
 2387TIP3    H1 7118   6.484   1.347   2.854
 2387TIP3    H2 7119   6.458   1.492   2.890
 2388TIP3   OH2 7120   7.999   4.817   4.278
 2388TIP3    H1 7121   7.981   4.753   4.209
 2388TIP3    H2 7122   7.913   4.850   4.304
 2389TIP3   OH2 7123   0.954   0.034   3.966
 2389TIP3    H1 7124   1.007   0.025   3.887
 2389TIP3    H2 7125   0.955   0.128   3.985
 2390TIP3   OH2 7126   7.944   0.908   1.067
 2390TIP3    H1 7127   7.878   0.899   1.136
 2390TIP3    H2 7128   7.922   0.991   1.024
 2391TIP3   OH2 7129   4.425   5.147   5.520
 2391TIP3    H1 7130   4.453   5.204   5.592
 2391TIP3    H2 7131   4.351   5.098   5.556
 2392TIP3   OH2 7132   5.017   0.398   4.480
 2392TIP3    H1 7133   4.965   0.389   4.560
 2392TIP3    H2 7134   5.093   0.342   4.495
 2393TIP3   OH2 7135   5.157   4.370   0.363
 2393TIP3    H1 7136   5.152   4.460   0.395
 2393TIP3    H2 7137   5.223   4.328   0.418
 2394TIP3   OH2 7138   3.392   6.039   0.576
 2394TIP3    H1 7139   3.326   6.105   0.555
 2394TIP3    H2 7140   3.351   5.985   0.644
 2395TIP3   OH2 7141   3.120   3.411   0.263
 2395TIP3    H1 7142   3.168   3.417   0.345
 2395TIP3    H2 7143   3.134   3.321   0.233
 2396TIP3   OH2 7144   6.248   4.217   0.026
 2396TIP3    H1 7145   6.259   4.178   0.113
 2396TIP3    H2 7146   6.318   4.179  -0.026
 2397TIP3   OH2 7147   1.931   0.877   6.068
 2397TIP3    H1 7148   1.889   0.839   5.991
 2397TIP3    H2 7149   1.983   0.950   6.034
 2398TIP3   OH2 7150   4.713   4.994   5.604
 2398TIP3    H1 7151   4.659   5.017   5.680
 2398TIP3    H2 7152   4.759   5.075   5.581
 2399TIP3   OH2 7153   5.331   1.933   3.384
 2399TIP3    H1 7154   5.398   1.920   3.317
 2399TIP3    H2 7155   5.277   2.004   3.350
 2400TIP3   OH2 7156   2.570   5.938   1.638
 2400TIP3    H1 7157   2.568   6.031   1.618
 2400TIP3    H2 7158   2.662   5.913   1.631
 2401TIP3   OH2 7159   5.809   6.281   6.265
 2401TIP3    H1 7160   5.900   6.308   6.278
 2401TIP3    H2 7161   5.808   6.247   6.175
 2402TIP3   OH2 7162   6.107   6.146   4.016
 2402TIP3    H1 7163   6.108   6.103   4.101
 2402TIP3    H2 7164   6.192   6.127   3.977
 2403TIP3   OH2 7165   0.991   5.313   2.676
 2403TIP3    H1 7166   0.957   5.392   2.718
 2403TIP3    H2 7167   1.044   5.270   2.743
 2404TIP3   OH2 7168   3.014   3.684   6.651
 2404TIP3    H1 7169   3.040   3.633   6.728
 2404TIP3    H2 7170   3.022   3.623   6.578
 2405TIP3   OH2 7171   0.856   3.116   1.120
 2405TIP3    H1 7172   0.797   3.127   1.046
 2405TIP3    H2 7173   0.866   3.021   1.129
 2406TIP3   OH2 7174   7.070   4.962   0.036
 2406TIP3    H1 7175   7.077   4.873   0.002
 2406TIP3    H2 7176   7.033   5.012  -0.036
 2407TIP3   OH2 7177   7.838   2.899   5.296
 2407TIP3    H1 7178   7.818   2.809   5.321
 2407TIP3    H2 7179   7.931   2.909   5.314
 2408TIP3   OH2 7180   2.906   3.127   6.749
 2408TIP3    H1 7181   2.834   3.085   6.701
 2408TIP3    H2 7182   2.969   3.150   6.681
 2409TIP3   OH2 7183   6.969   0.862   5.575
 2409TIP3    H1 7184   6.918   0.789   5.611
 2409TIP3    H2 7185   7.060   0.841   5.597
 2410TIP3   OH2 7186   0.357   4.441   3.598
 2410TIP3    H1 7187   0.360   4.406   3.509
 2410TIP3    H2 7188   0.363   4.365   3.655
 2411TIP3   OH2 7189   0.858   3.688   0.095
 2411TIP3    H1 7190   0.895   3.764   0.050
 2411TIP3    H2 7191   0.764   3.691   0.073
 2412TIP3   OH2 7192   0.885   1.120   5.081
 2412TIP3    H1 7193   0.967   1.095   5.124
 2412TIP3    H2 7194   0.911   1.141   4.991
 2413TIP3   OH2 7195   6.152   5.516   5.686
 2413TIP3    H1 7196   6.187   5.435   5.650
 2413TIP3    H2 7197   6.065   5.493   5.718
 2414TIP3   OH2 7198   7.741   6.133   2.117
 2414TIP3    H1 7199   7.755   6.105   2.027
 2414TIP3    H2 7200   7.711   6.224   2.110
 2415TIP3   OH2 7201   4.435   6.257   5.571
 2415TIP3    H1 7202   4.484   6.262   5.489
 2415TIP3    H2 7203   4.409   6.348   5.589
 2416TIP3   OH2 7204   3.158   0.276   5.394
 2416TIP3    H1 7205   3.233   0.333   5.377
 2416TIP3    H2 7206   3.196   0.196   5.430
 2417TIP3   OH2 7207   3.512   0.294   3.510
 2417TIP3    H1 7208   3.432   0.255   3.475
 2417TIP3    H2 7209   3.531   0.366   3.450
 2418TIP3   OH2 7210   7.143   6.520   1.032
 2418TIP3    H1 7211   7.065   6.466   1.041
 2418TIP3    H2 7212   7.214   6.465   1.063
 2419TIP3   OH2 7213   2.564   5.118   4.416
 2419TIP3    H1 7214   2.587   5.187   4.478
 2419TIP3    H2 7215   2.477   5.089   4.444
 2420TIP3   OH2 7216   7.754   1.732   5.889
 2420TIP3    H1 7217   7.662   1.718   5.910
 2420TIP3    H2 7218   7.753   1.778   5.805
 2421TIP3   OH2 7219   2.037   7.793   6.014
 2421TIP3    H1 7220   2.064   7.885   6.014
 2421TIP3    H2 7221   1.951   7.792   6.056
 2422TIP3   OH2 7222   2.034   6.167   6.133
 2422TIP3    H1 7223   1.967   6.099   6.123
 2422TIP3    H2 7224   2.004   6.238   6.077
 2423TIP3   OH2 7225   3.851   6.497   0.434
 2423TIP3    H1 7226   3.944   6.478   0.450
 2423TIP3    H2 7227   3.815   6.413   0.406
 2424TIP3   OH2 7228   5.352   0.313   2.689
 2424TIP3    H1 7229   5.411   0.324   2.763
 2424TIP3    H2 7230   5.362   0.394   2.638
 2425TIP3   OH2 7231   2.759   2.759   2.256
 2425TIP3    H1 7232   2.816   2.715   2.319
 2425TIP3    H2 7233   2.735   2.690   2.194
 2426TIP3   OH2 7234   4.275   1.332   1.117
 2426TIP3    H1 7235   4.287   1.426   1.132
 2426TIP3    H2 7236   4.180   1.321   1.113
 2427TIP3   OH2 7237   6.041   3.062   3.892
 2427TIP3    H1 7238   6.135   3.063   3.908
 2427TIP3    H2 7239   6.022   3.147   3.853
 2428TIP3   OH2 7240   1.186   4.730   4.750
 2428TIP3    H1 7241   1.179   4.640   4.783
 2428TIP3    H2 7242   1.175   4.722   4.656
 2429TIP3   OH2 7243   5.339   1.530   5.378
 2429TIP3    H1 7244   5.283   1.457   5.406
 2429TIP3    H2 7245   5.396   1.546   5.454
 2430TIP3   OH2 7246   2.550   2.822   1.635
 2430TIP3    H1 7247   2.584   2.786   1.717
 2430TIP3    H2 7248   2.567   2.755   1.569
 2431TIP3   OH2 7249   2.470   7.472   4.544
 2431TIP3    H1 7250   2.394   7.492   4.599
 2431TIP3    H2 7251   2.476   7.377   4.545
 2432TIP3   OH2 7252   7.424   2.281   6.309
 2432TIP3    H1 7253   7.459   2.228   6.238
 2432TIP3    H2 7254   7.380   2.354   6.265
 2433TIP3   OH2 7255   3.090   0.065   5.633
 2433TIP3    H1 7256   3.016   0.075   5.573
 2433TIP3    H2 7257   3.069  -0.012   5.685
 2434TIP3   OH2 7258   5.123   5.397   2.394
 2434TIP3    H1 7259   5.159   5.309   2.405
 2434TIP3    H2 7260   5.031   5.388   2.420
 2435TIP3   OH2 7261   7.644   1.736   3.502
 2435TIP3    H1 7262   7.725   1.764   3.460
 2435TIP3    H2 7263   7.657   1.757   3.595
 2436TIP3   OH2 7264   2.315   4.520   2.419
 2436TIP3    H1 7265   2.316   4.425   2.412
 2436TIP3    H2 7266   2.230   4.546   2.382
 2437TIP3   OH2 7267   3.666   5.380   1.549
 2437TIP3    H1 7268   3.672   5.476   1.545
 2437TIP3    H2 7269   3.730   5.355   1.615
 2438TIP3   OH2 7270   0.790   5.149   4.656
 2438TIP3    H1 7271   0.845   5.070   4.655
 2438TIP3    H2 7272   0.835   5.209   4.715
 2439TIP3   OH2 7273   4.752   3.005   1.987
 2439TIP3    H1 7274   4.780   3.042   1.903
 2439TIP3    H2 7275   4.795   2.920   1.991
 2440TIP3   OH2 7276   0.893   1.412   6.724
 2440TIP3    H1 7277   0.857   1.494   6.688
 2440TIP3    H2 7278   0.926   1.436   6.810
 2441TIP3   OH2 7279   8.158   3.032   0.439
 2441TIP3    H1 7280   8.111   2.993   0.513
 2441TIP3    H2 7281   8.147   3.126   0.450
 2442TIP3   OH2 7282   0.604   7.557   5.618
 2442TIP3    H1 7283   0.539   7.592   5.557
 2442TIP3    H2 7284   0.612   7.623   5.687
 2443TIP3   OH2 7285   7.771   6.584   0.302
 2443TIP3    H1 7286   7.702   6.591   0.368
 2443TIP3    H2 7287   7.748   6.507   0.251
 2444TIP3   OH2 7288   2.319   5.394   6.363
 2444TIP3    H1 7289   2.279   5.480   6.355
 2444TIP3    H2 7290   2.408   5.411   6.392
 2445TIP3   OH2 7291   4.759   5.244   0.386
 2445TIP3    H1 7292   4.839   5.265   0.338
 2445TIP3    H2 7293   4.738   5.154   0.359
 2446TIP3   OH2 7294   1.345   4.422   1.009
 2446TIP3    H1 7295   1.317   4.451   0.922
 2446TIP3    H2 7296   1.273   4.367   1.040
 2447TIP3   OH2 7297   4.131   4.974   6.376
 2447TIP3    H1 7298   4.169   4.897   6.420
 2447TIP3    H2 7299   4.179   5.048   6.413
 2448TIP3   OH2 7300   5.089   6.291   0.221
 2448TIP3    H1 7301   5.162   6.232   0.235
 2448TIP3    H2 7302   5.129   6.377   0.206
 2449TIP3   OH2 7303   0.711   6.875   6.509
 2449TIP3    H1 7304   0.649   6.852   6.579
 2449TIP3    H2 7305   0.790   6.902   6.556
 2450TIP3   OH2 7306   6.958   1.603   2.466
 2450TIP3    H1 7307   6.997   1.689   2.452
 2450TIP3    H2 7308   7.020   1.542   2.427
 2451TIP3   OH2 7309   0.283   0.297   5.749
 2451TIP3    H1 7310   0.314   0.244   5.823
 2451TIP3    H2 7311   0.249   0.233   5.686
 2452TIP3   OH2 7312   8.281   4.160   5.341
 2452TIP3    H1 7313   8.257   4.098   5.273
 2452TIP3    H2 7314   8.230   4.133   5.417
 2453TIP3   OH2 7315   5.586   3.973   4.715
 2453TIP3    H1 7316   5.596   3.923   4.796
 2453TIP3    H2 7317   5.673   4.011   4.700
 2454TIP3   OH2 7318   2.127   7.288   5.862
 2454TIP3    H1 7319   2.129   7.379   5.893
 2454TIP3    H2 7320   2.084   7.293   5.777
 2455TIP3   OH2 7321   1.208   0.939   1.826
 2455TIP3    H1 7322   1.245   1.010   1.880
 2455TIP3    H2 7323   1.255   0.861   1.855
 2456TIP3   OH2 7324   3.066   1.986   5.511
 2456TIP3    H1 7325   2.971   1.981   5.501
 2456TIP3    H2 7326   3.089   1.907   5.561
 2457TIP3   OH2 7327   4.350   1.195   2.775
 2457TIP3    H1 7328   4.283   1.155   2.720
 2457TIP3    H2 7329   4.338   1.289   2.763
 2458TIP3   OH2 7330   7.887   0.787   2.530
 2458TIP3    H1 7331   7.900   0.824   2.617
 2458TIP3    H2 7332   7.912   0.695   2.539
 2459TIP3   OH2 7333   4.226   4.766   0.415
 2459TIP3    H1 7334   4.306   4.819   0.419
 2459TIP3    H2 7335   4.158   4.823   0.449
 2460TIP3   OH2 7336   8.194   2.892   3.662
 2460TIP3    H1 7337   8.244   2.826   3.614
 2460TIP3    H2 7338   8.218   2.880   3.753
 2461TIP3   OH2 7339   6.963   0.691   3.725
 2461TIP3    H1 7340   7.014   0.765   3.758
 2461TIP3    H2 7341   6.966   0.626   3.795
 2462TIP3   OH2 7342   4.633   1.425   2.796
 2462TIP3    H1 7343   4.663   1.483   2.866
 2462TIP3    H2 7344   4.673   1.340   2.816
 2463TIP3   OH2 7345   7.003   2.149   4.732
 2463TIP3    H1 7346   7.030   2.195   4.811
 2463TIP3    H2 7347   7.071   2.171   4.668
 2464TIP3   OH2 7348   4.356   7.174   3.450
 2464TIP3    H1 7349   4.334   7.136   3.535
 2464TIP3    H2 7350   4.440   7.133   3.427
 2465TIP3   OH2 7351   4.707   1.334   0.807
 2465TIP3    H1 7352   4.713   1.292   0.893
 2465TIP3    H2 7353   4.741   1.423   0.821
 2466TIP3   OH2 7354   3.940   0.820   5.636
 2466TIP3    H1 7355   4.026   0.832   5.595
 2466TIP3    H2 7356   3.893   0.901   5.618
 2467TIP3   OH2 7357   3.834   0.011   4.954
 2467TIP3    H1 7358   3.811  -0.082   4.943
 2467TIP3    H2 7359   3.756   0.050   4.992
 2468TIP3   OH2 7360   3.280   5.191   0.676
 2468TIP3    H1 7361   3.335   5.245   0.620
 2468TIP3    H2 7362   3.340   5.132   0.721
 2469TIP3   OH2 7363   7.880   5.530   5.811
 2469TIP3    H1 7364   7.830   5.606   5.839
 2469TIP3    H2 7365   7.968   5.564   5.796
 2470TIP3   OH2 7366   2.386   1.574   1.699
 2470TIP3    H1 7367   2.479   1.568   1.675
 2470TIP3    H2 7368   2.344   1.506   1.646
 2471TIP3   OH2 7369   6.456   7.763   0.804
 2471TIP3    H1 7370   6.504   7.801   0.730
 2471TIP3    H2 7371   6.404   7.693   0.765
 2472TIP3   OH2 7372   5.489   1.938   2.059
 2472TIP3    H1 7373   5.420   1.922   1.995
 2472TIP3    H2 7374   5.568   1.949   2.007
 2473TIP3   OH2 7375   7.323   5.370   2.320
 2473TIP3    H1 7376   7.250   5.313   2.345
 2473TIP3    H2 7377   7.379   5.314   2.267
 2474TIP3   OH2 7378   0.896   2.944   0.260
 2474TIP3    H1 7379   0.971   2.968   0.206
 2474TIP3    H2 7380   0.874   3.024   0.308
 2475TIP3   OH2 7381   4.140   1.649   6.725
 2475TIP3    H1 7382   4.225   1.683   6.754
 2475TIP3    H2 7383   4.122   1.695   6.643
 2476TIP3   OH2 7384   3.400   6.390   3.539
 2476TIP3    H1 7385   3.460   6.448   3.586
 2476TIP3    H2 7386   3.448   6.365   3.460
 2477TIP3   OH2 7387   4.327   5.032   0.826
 2477TIP3    H1 7388   4.370   4.954   0.861
 2477TIP3    H2 7389   4.322   5.016   0.732
 2478TIP3   OH2 7390   8.045   0.661   0.993
 2478TIP3    H1 7391   7.979   0.731   0.993
 2478TIP3    H2 7392   7.994   0.580   0.988
 2479TIP3   OH2 7393   3.152   7.558   6.195
 2479TIP3    H1 7394   3.078   7.589   6.247
 2479TIP3    H2 7395   3.165   7.625   6.128
 2480TIP3   OH2 7396   8.169   0.227   3.051
 2480TIP3    H1 7397   8.173   0.309   3.099
 2480TIP3    H2 7398   8.076   0.213   3.035
 2481TIP3   OH2 7399   1.875   5.392   6.215
 2481TIP3    H1 7400   1.942   5.444   6.172
 2481TIP3    H2 7401   1.915   5.364   6.298
 2482TIP3   OH2 7402   2.995   7.240   5.094
 2482TIP3    H1 7403   3.019   7.290   5.172
 2482TIP3    H2 7404   2.923   7.184   5.123
 2483TIP3   OH2 7405   6.141   6.065   2.518
 2483TIP3    H1 7406   6.197   6.116   2.577
 2483TIP3    H2 7407   6.149   6.109   2.433
 2484TIP3   OH2 7408   3.036   5.343   4.306
 2484TIP3    H1 7409   2.953   5.369   4.345
 2484TIP3    H2 7410   3.026   5.249   4.287
 2485TIP3   OH2 7411   0.380   7.310   0.783
 2485TIP3    H1 7412   0.372   7.225   0.739
 2485TIP3    H2 7413   0.440   7.360   0.727
 2486TIP3   OH2 7414   6.788   3.574   1.242
 2486TIP3    H1 7415   6.844   3.631   1.294
 2486TIP3    H2 7416   6.737   3.525   1.307
 2487TIP3   OH2 7417   6.832   1.532   5.712
 2487TIP3    H1 7418   6.892   1.578   5.769
 2487TIP3    H2 7419   6.876   1.528   5.627
 2488TIP3   OH2 7420   5.521   3.089   6.552
 2488TIP3    H1 7421   5.432   3.105   6.518
 2488TIP3    H2 7422   5.544   3.003   6.518
 2489TIP3   OH2 7423   5.121   0.914   1.943
 2489TIP3    H1 7424   5.153   0.853   2.009
 2489TIP3    H2 7425   5.037   0.877   1.914
 2490TIP3   OH2 7426   5.227   2.243   0.998
 2490TIP3    H1 7427   5.183   2.244   1.084
 2490TIP3    H2 7428   5.187   2.315   0.950
 2491TIP3   OH2 7429   3.678   7.421   2.830
 2491TIP3    H1 7430   3.762   7.466   2.838
 2491TIP3    H2 7431   3.627   7.453   2.904
 2492TIP3   OH2 7432   1.903   0.215   0.580
 2492TIP3    H1 7433   1.950   0.211   0.497
 2492TIP3    H2 7434   1.940   0.144   0.633
 2493TIP3   OH2 7435   3.282   7.563   3.674
 2493TIP3    H1 7436   3.215   7.522   3.730
 2493TIP3    H2 7437   3.286   7.654   3.705
 2494TIP3   OH2 7438   3.171   5.194   0.938
 2494TIP3    H1 7439   3.172   5.164   0.847
 2494TIP3    H2 7440   3.100   5.144   0.979
 2495TIP3   OH2 7441   4.019   7.031   2.834
 2495TIP3    H1 7442   4.042   6.942   2.863
 2495TIP3    H2 7443   4.058   7.038   2.747
 2496TIP3   OH2 7444   1.458   4.408   1.272
 2496TIP3    H1 7445   1.448   4.408   1.177
 2496TIP3    H2 7446   1.483   4.498   1.293
 2497TIP3   OH2 7447   3.278   4.115   4.726
 2497TIP3    H1 7448   3.313   4.204   4.732
 2497TIP3    H2 7449   3.304   4.073   4.808
 2498TIP3   OH2 7450   3.690   4.392   2.906
 2498TIP3    H1 7451   3.779   4.426   2.896
 2498TIP3    H2 7452   3.683   4.369   2.998
 2499TIP3   OH2 7453   1.156   6.236   2.347
 2499TIP3    H1 7454   1.172   6.148   2.382
 2499TIP3    H2 7455   1.063   6.235   2.324
 2500TIP3   OH2 7456   3.364   2.671   4.147
 2500TIP3    H1 7457   3.415   2.707   4.219
 2500TIP3    H2 7458   3.352   2.744   4.087
 2501TIP3   OH2 7459   6.130   4.439   0.602
 2501TIP3    H1 7460   6.130   4.463   0.695
 2501TIP3    H2 7461   6.046   4.396   0.589
 2502TIP3   OH2 7462   6.173   3.942   2.000
 2502TIP3    H1 7463   6.088   3.969   2.034
 2502TIP3    H2 7464   6.197   4.012   1.939
 2503TIP3   OH2 7465   3.341   6.809   5.354
 2503TIP3    H1 7466   3.427   6.835   5.387
 2503TIP3    H2 7467   3.355   6.790   5.262
 2504TIP3   OH2 7468   6.270   5.861   5.928
 2504TIP3    H1 7469   6.317   5.943   5.937
 2504TIP3    H2 7470   6.189   5.875   5.977
 2505TIP3   OH2 7471   7.138   5.157   1.737
 2505TIP3    H1 7472   7.136   5.173   1.643
 2505TIP3    H2 7473   7.069   5.092   1.752
 2506TIP3   OH2 7474   6.873   5.850   0.984
 2506TIP3    H1 7475   6.835   5.770   0.947
 2506TIP3    H2 7476   6.804   5.884   1.041
 2507TIP3   OH2 7477   7.087   7.371   0.681
 2507TIP3    H1 7478   7.090   7.416   0.765
 2507TIP3    H2 7479   7.040   7.290   0.698
 2508TIP3   OH2 7480   7.183   3.063   4.700
 2508TIP3    H1 7481   7.155   3.150   4.671
 2508TIP3    H2 7482   7.134   3.048   4.780
 2509TIP3   OH2 7483   5.995   1.442   1.844
 2509TIP3    H1 7484   5.927   1.425   1.909
 2509TIP3    H2 7485   6.058   1.498   1.889
 2510TIP3   OH2 7486   3.251   6.027   6.001
 2510TIP3    H1 7487   3.294   6.062   6.079
 2510TIP3    H2 7488   3.160   6.015   6.027
 2511TIP3   OH2 7489   2.123   7.108   0.468
 2511TIP3    H1 7490   2.057   7.043   0.446
 2511TIP3    H2 7491   2.117   7.173   0.398
 2512TIP3   OH2 7492   8.039   2.366   4.219
 2512TIP3    H1 7493   8.096   2.421   4.164
 2512TIP3    H2 7494   8.051   2.277   4.184
 2513TIP3   OH2 7495   0.194   7.385   5.792
 2513TIP3    H1 7496   0.281   7.356   5.820
 2513TIP3    H2 7497   0.135   7.317   5.826
 2514TIP3   OH2 7498   1.445   0.435   4.547
 2514TIP3    H1 7499   1.497   0.410   4.470
 2514TIP3    H2 7500   1.507   0.433   4.620
 2515TIP3   OH2 7501   2.946   0.150   3.440
 2515TIP3    H1 7502   2.988   0.069   3.412
 2515TIP3    H2 7503   3.014   0.197   3.488
 2516TIP3   OH2 7504   4.839  -0.008   1.137
 2516TIP3    H1 7505   4.799   0.061   1.085
 2516TIP3    H2 7506   4.769  -0.037   1.196
 2517TIP3   OH2 7507   2.875   5.012   3.023
 2517TIP3    H1 7508   2.829   4.953   2.963
 2517TIP3    H2 7509   2.813   5.026   3.095
 2518TIP3   OH2 7510   7.589   3.688   0.442
 2518TIP3    H1 7511   7.537   3.733   0.509
 2518TIP3    H2 7512   7.676   3.680   0.481
 2519TIP3   OH2 7513   0.377   6.622   0.047
 2519TIP3    H1 7514   0.454   6.619   0.103
 2519TIP3    H2 7515   0.362   6.530   0.022
 2520TIP3   OH2 7516   8.106   2.029   1.076
 2520TIP3    H1 7517   8.158   1.986   1.143
 2520TIP3    H2 7518   8.090   2.117   1.110
 2521TIP3   OH2 7519   0.721   1.375   5.190
 2521TIP3    H1 7520   0.784   1.340   5.253
 2521TIP3    H2 7521   0.661   1.303   5.174
 2522TIP3   OH2 7522   2.977   2.410   4.184
 2522TIP3    H1 7523   2.886   2.419   4.156
 2522TIP3    H2 7524   3.012   2.339   4.130
 2523TIP3   OH2 7525   4.608   2.229   3.506
 2523TIP3    H1 7526   4.696   2.195   3.523
 2523TIP3    H2 7527   4.550   2.167   3.551
 2524TIP3   OH2 7528   4.330   1.139   0.500
 2524TIP3    H1 7529   4.358   1.058   0.458
 2524TIP3    H2 7530   4.237   1.128   0.516
 2525TIP3   OH2 7531   4.601   3.541   5.987
 2525TIP3    H1 7532   4.519   3.512   6.027
 2525TIP3    H2 7533   4.606   3.635   6.008
 2526TIP3   OH2 7534   0.374   1.981   5.018
 2526TIP3    H1 7535   0.331   1.897   5.028
 2526TIP3    H2 7536   0.461   1.969   5.057
 2527TIP3   OH2 7537   7.812   6.359   6.168
 2527TIP3    H1 7538   7.740   6.349   6.230
 2527TIP3    H2 7539   7.771   6.394   6.089
 2528TIP3   OH2 7540   7.754   1.115   6.222
 2528TIP3    H1 7541   7.740   1.073   6.306
 2528TIP3    H2 7542   7.806   1.193   6.242
 2529TIP3   OH2 7543   5.230   0.514   4.048
 2529TIP3    H1 7544   5.180   0.594   4.064
 2529TIP3    H2 7545   5.314   0.545   4.015
 2530TIP3   OH2 7546   0.485   3.709   3.515
 2530TIP3    H1 7547   0.478   3.763   3.436
 2530TIP3    H2 7548   0.451   3.623   3.489
 2531TIP3   OH2 7549   7.796   2.086   2.833
 2531TIP3    H1 7550   7.760   2.151   2.772
 2531TIP3    H2 7551   7.739   2.010   2.822
 2532TIP3   OH2 7552   1.087   0.428   3.130
 2532TIP3    H1 7553   1.004   0.475   3.135
 2532TIP3    H2 7554   1.152   0.492   3.161
 2533TIP3   OH2 7555   1.913   2.990   4.579
 2533TIP3    H1 7556   1.838   3.049   4.573
 2533TIP3    H2 7557   1.906   2.951   4.667
 2534TIP3   OH2 7558   6.814   3.983   0.247
 2534TIP3    H1 7559   6.850   3.929   0.177
 2534TIP3    H2 7560   6.805   3.924   0.321
 2535TIP3   OH2 7561   7.306   7.439   2.011
 2535TIP3    H1 7562   7.288   7.424   2.104
 2535TIP3    H2 7563   7.231   7.400   1.965
 2536TIP3   OH2 7564   3.360   7.651   1.269
 2536TIP3    H1 7565   3.271   7.615   1.270
 2536TIP3    H2 7566   3.360   7.712   1.195
 2537TIP3   OH2 7567   3.152   7.570   2.405
 2537TIP3    H1 7568   3.184   7.480   2.399
 2537TIP3    H2 7569   3.215   7.614   2.463
 2538TIP3   OH2 7570   1.294   2.947   2.064
 2538TIP3    H1 7571   1.204   2.915   2.055
 2538TIP3    H2 7572   1.332   2.934   1.977
 2539TIP3   OH2 7573   3.392   3.393   5.838
 2539TIP3    H1 7574   3.370   3.305   5.808
 2539TIP3    H2 7575   3.486   3.401   5.820
 2540TIP3   OH2 7576   5.266   6.787   6.674
 2540TIP3    H1 7577   5.226   6.852   6.616
 2540TIP3    H2 7578   5.311   6.727   6.615
 2541TIP3   OH2 7579   0.449   0.076   5.558
 2541TIP3    H1 7580   0.511   0.020   5.510
 2541TIP3    H2 7581   0.505   0.140   5.602
 2542TIP3   OH2 7582   1.430   1.699   1.498
 2542TIP3    H1 7583   1.485   1.776   1.483
 2542TIP3    H2 7584   1.362   1.730   1.558
 2543TIP3   OH2 7585   3.300   4.626   5.512
 2543TIP3    H1 7586   3.220   4.677   5.502
 2543TIP3    H2 7587   3.279   4.561   5.580
 2544TIP3   OH2 7588   4.744   3.139   0.677
 2544TIP3    H1 7589   4.675   3.113   0.738
 2544TIP3    H2 7590   4.723   3.230   0.654
 2545TIP3   OH2 7591   6.987   1.323   1.649
 2545TIP3    H1 7592   6.971   1.416   1.665
 2545TIP3    H2 7593   7.070   1.321   1.600
 2546TIP3   OH2 7594   2.775   5.350   4.035
 2546TIP3    H1 7595   2.721   5.297   4.094
 2546TIP3    H2 7596   2.720   5.365   3.959
 2547TIP3   OH2 7597   6.772   5.918   2.440
 2547TIP3    H1 7598   6.686   5.959   2.436
 2547TIP3    H2 7599   6.831   5.979   2.397
 2548TIP3   OH2 7600   2.096   3.685   1.377
 2548TIP3    H1 7601   2.063   3.767   1.413
 2548TIP3    H2 7602   2.021   3.626   1.379
 2549TIP3   OH2 7603   7.615   3.793   4.770
 2549TIP3    H1 7604   7.651   3.864   4.824
 2549TIP3    H2 7605   7.691   3.741   4.744
 2550TIP3   OH2 7606   5.668   2.585   4.023
 2550TIP3    H1 7607   5.695   2.508   4.074
 2550TIP3    H2 7608   5.665   2.656   4.087
 2551TIP3   OH2 7609   6.639   6.827   1.284
 2551TIP3    H1 7610   6.707   6.777   1.328
 2551TIP3    H2 7611   6.652   6.808   1.191
 2552TIP3   OH2 7612   0.661   2.980   2.072
 2552TIP3    H1 7613   0.690   2.956   2.159
 2552TIP3    H2 7614   0.645   2.896   2.028
 2553TIP3   OH2 7615   6.034   1.617   0.488
 2553TIP3    H1 7616   5.971   1.602   0.558
 2553TIP3    H2 7617   6.119   1.594   0.526
 2554TIP3   OH2 7618   8.210   5.701   2.776
 2554TIP3    H1 7619   8.197   5.702   2.871
 2554TIP3    H2 7620   8.195   5.791   2.749
 2555TIP3   OH2 7621   6.612   1.639   2.681
 2555TIP3    H1 7622   6.570   1.666   2.763
 2555TIP3    H2 7623   6.543   1.650   2.615
 2556TIP3   OH2 7624   8.064   4.313   4.459
 2556TIP3    H1 7625   8.143   4.291   4.409
 2556TIP3    H2 7626   8.040   4.232   4.503
 2557TIP3   OH2 7627   6.183   5.201   4.827
 2557TIP3    H1 7628   6.196   5.146   4.751
 2557TIP3    H2 7629   6.098   5.174   4.862
 2558TIP3   OH2 7630   2.652   1.882   0.756
 2558TIP3    H1 7631   2.711   1.888   0.832
 2558TIP3    H2 7632   2.612   1.796   0.764
 2559TIP3   OH2 7633   2.684   4.016   3.863
 2559TIP3    H1 7634   2.619   4.084   3.845
 2559TIP3    H2 7635   2.650   3.969   3.939
 2560TIP3   OH2 7636   6.853   3.271   5.106
 2560TIP3    H1 7637   6.803   3.327   5.047
 2560TIP3    H2 7638   6.809   3.186   5.100
 2561TIP3   OH2 7639   0.088   4.042   5.806
 2561TIP3    H1 7640   0.098   4.069   5.715
 2561TIP3    H2 7641   0.094   4.123   5.856
 2562TIP3   OH2 7642   8.021   5.357   1.011
 2562TIP3    H1 7643   8.039   5.267   1.040
 2562TIP3    H2 7644   8.108   5.396   1.000
 2563TIP3   OH2 7645   4.499   7.474   5.637
 2563TIP3    H1 7646   4.406   7.473   5.614
 2563TIP3    H2 7647   4.500   7.459   5.731
 2564TIP3   OH2 7648   7.581   1.740   4.131
 2564TIP3    H1 7649   7.670   1.731   4.164
 2564TIP3    H2 7650   7.565   1.834   4.129
 2565TIP3   OH2 7651   5.279   5.301   5.034
 2565TIP3    H1 7652   5.301   5.299   4.941
 2565TIP3    H2 7653   5.343   5.242   5.075
 2566TIP3   OH2 7654   0.156   5.881   6.618
 2566TIP3    H1 7655   0.201   5.810   6.572
 2566TIP3    H2 7656   0.124   5.840   6.698
 2567TIP3   OH2 7657   3.576   0.601   6.631
 2567TIP3    H1 7658   3.486   0.634   6.636
 2567TIP3    H2 7659   3.570   0.522   6.576
 2568TIP3   OH2 7660   6.107   4.508   4.108
 2568TIP3    H1 7661   6.114   4.573   4.178
 2568TIP3    H2 7662   6.082   4.427   4.153
 2569TIP3   OH2 7663   7.380   0.998   0.050
 2569TIP3    H1 7664   7.421   0.943   0.117
 2569TIP3    H2 7665   7.402   0.954  -0.032
 2570TIP3   OH2 7666   7.901   1.836   1.112
 2570TIP3    H1 7667   7.950   1.912   1.079
 2570TIP3    H2 7668   7.966   1.785   1.160
 2571TIP3   OH2 7669   2.119   7.653   4.953
 2571TIP3    H1 7670   2.137   7.626   5.043
 2571TIP3    H2 7671   2.116   7.749   4.957
 2572TIP3   OH2 7672   8.001   1.847   1.461
 2572TIP3    H1 7673   7.988   1.919   1.523
 2572TIP3    H2 7674   7.912   1.819   1.438
 2573TIP3   OH2 7675   7.598   2.355   1.887
 2573TIP3    H1 7676   7.528   2.332   1.826
 2573TIP3    H2 7677   7.674   2.305   1.856
 2574TIP3   OH2 7678   1.678   3.782   0.918
 2574TIP3    H1 7679   1.757   3.835   0.907
 2574TIP3    H2 7680   1.707   3.693   0.898
 2575TIP3   OH2 7681   3.494   1.865   2.846
 2575TIP3    H1 7682   3.432   1.795   2.867
 2575TIP3    H2 7683   3.558   1.862   2.917
 2576TIP3   OH2 7684   0.939   5.502   0.123
 2576TIP3    H1 7685   0.871   5.554   0.165
 2576TIP3    H2 7686   1.021   5.545   0.149
 2577TIP3   OH2 7687   3.837   6.750   0.855
 2577TIP3    H1 7688   3.826   6.844   0.840
 2577TIP3    H2 7689   3.885   6.744   0.937
 2578TIP3   OH2 7690   4.234   5.230   6.608
 2578TIP3    H1 7691   4.295   5.190   6.546
 2578TIP3    H2 7692   4.175   5.281   6.553
 2579TIP3   OH2 7693   1.847   2.105   5.657
 2579TIP3    H1 7694   1.781   2.155   5.706
 2579TIP3    H2 7695   1.931   2.140   5.687
 2580TIP3   OH2 7696   7.272   4.573   4.329
 2580TIP3    H1 7697   7.256   4.657   4.371
 2580TIP3    H2 7698   7.334   4.528   4.386
 2581TIP3   OH2 7699   0.461   5.316   3.417
 2581TIP3    H1 7700   0.524   5.371   3.464
 2581TIP3    H2 7701   0.506   5.233   3.405
 2582TIP3   OH2 7702   6.482   6.393   5.223
 2582TIP3    H1 7703   6.438   6.371   5.305
 2582TIP3    H2 7704   6.473   6.314   5.169
 2583TIP3   OH2 7705   7.740   2.510   6.284
 2583TIP3    H1 7706   7.647   2.506   6.262
 2583TIP3    H2 7707   7.778   2.432   6.245
 2584TIP3   OH2 7708   5.212   0.694   0.560
 2584TIP3    H1 7709   5.124   0.729   0.545
 2584TIP3    H2 7710   5.203   0.600   0.545
 2585TIP3   OH2 7711   5.957   3.907   0.090
 2585TIP3    H1 7712   5.967   3.852   0.167
 2585TIP3    H2 7713   5.979   3.995   0.120
 2586TIP3   OH2 7714   6.758   4.952   5.471
 2586TIP3    H1 7715   6.761   4.987   5.382
 2586TIP3    H2 7716   6.685   4.890   5.469
 2587TIP3   OH2 7717   0.136   2.758   0.240
 2587TIP3    H1 7718   0.124   2.849   0.265
 2587TIP3    H2 7719   0.202   2.725   0.300
 2588TIP3   OH2 7720   2.281   7.398   5.113
 2588TIP3    H1 7721   2.191   7.379   5.139
 2588TIP3    H2 7722   2.294   7.489   5.140
 2589TIP3   OH2 7723   6.488   6.323   3.632
 2589TIP3    H1 7724   6.517   6.402   3.586
 2589TIP3    H2 7725   6.459   6.264   3.563
 2590TIP3   OH2 7726   5.490   3.891   3.701
 2590TIP3    H1 7727   5.563   3.844   3.740
 2590TIP3    H2 7728   5.447   3.827   3.645
 2591TIP3   OH2 7729   2.239   0.643   0.259
 2591TIP3    H1 7730   2.245   0.579   0.331
 2591TIP3    H2 7731   2.150   0.676   0.263
 2592TIP3   OH2 7732   2.285   7.412   6.473
 2592TIP3    H1 7733   2.239   7.431   6.392
 2592TIP3    H2 7734   2.251   7.326   6.500
 2593TIP3   OH2 7735   1.336   2.696   4.673
 2593TIP3    H1 7736   1.304   2.621   4.723
 2593TIP3    H2 7737   1.257   2.736   4.636
 2594TIP3   OH2 7738   7.652   1.469   5.657
 2594TIP3    H1 7739   7.622   1.385   5.691
 2594TIP3    H2 7740   7.581   1.530   5.679
 2595TIP3   OH2 7741   3.686   5.593   3.804
 2595TIP3    H1 7742   3.668   5.504   3.774
 2595TIP3    H2 7743   3.774   5.588   3.841
 2596TIP3   OH2 7744   6.183   6.640   4.903
 2596TIP3    H1 7745   6.095   6.666   4.932
 2596TIP3    H2 7746   6.237   6.647   4.981
 2597TIP3   OH2 7747   6.266   2.671   1.461
 2597TIP3    H1 7748   6.348   2.692   1.506
 2597TIP3    H2 7749   6.249   2.580   1.484
 2598TIP3   OH2 7750   3.266   2.363   2.863
 2598TIP3    H1 7751   3.280   2.451   2.828
 2598TIP3    H2 7752   3.352   2.336   2.894
 2599TIP3   OH2 7753   5.792   0.907   0.798
 2599TIP3    H1 7754   5.737   0.935   0.725
 2599TIP3    H2 7755   5.766   0.962   0.871
 2600TIP3   OH2 7756   0.378   2.027   0.567
 2600TIP3    H1 7757   0.347   2.106   0.610
 2600TIP3    H2 7758   0.323   1.957   0.602
 2601TIP3   OH2 7759   7.203   1.368   6.318
 2601TIP3    H1 7760   7.282   1.317   6.301
 2601TIP3    H2 7761   7.222   1.417   6.398
 2602TIP3   OH2 7762   6.079   5.791   4.690
 2602TIP3    H1 7763   6.165   5.785   4.733
 2602TIP3    H2 7764   6.044   5.875   4.718
 2603TIP3   OH2 7765   6.061   3.773   1.449
 2603TIP3    H1 7766   6.061   3.781   1.545
 2603TIP3    H2 7767   6.102   3.854   1.418
 2604TIP3   OH2 7768   1.599   5.374   5.989
 2604TIP3    H1 7769   1.606   5.438   5.918
 2604TIP3    H2 7770   1.585   5.426   6.068
 2605TIP3   OH2 7771   0.198   2.056   0.937
 2605TIP3    H1 7772   0.185   1.979   0.992
 2605TIP3    H2 7773   0.118   2.062   0.885
 2606TIP3   OH2 7774   5.040   2.362   2.684
 2606TIP3    H1 7775   4.970   2.413   2.726
 2606TIP3    H2 7776   5.102   2.428   2.653
 2607TIP3   OH2 7777   3.122   3.390   2.347
 2607TIP3    H1 7778   3.096   3.480   2.331
 2607TIP3    H2 7779   3.156   3.390   2.437
 2608TIP3   OH2 7780   1.595   3.225   6.192
 2608TIP3    H1 7781   1.538   3.292   6.154
 2608TIP3    H2 7782   1.677   3.234   6.145
 2609TIP3   OH2 7783   7.230   2.885   3.196
 2609TIP3    H1 7784   7.197   2.967   3.157
 2609TIP3    H2 7785   7.259   2.833   3.121
 2610TIP3   OH2 7786   5.927   4.266   6.025
 2610TIP3    H1 7787   5.920   4.288   5.932
 2610TIP3    H2 7788   5.932   4.170   6.026
 2611TIP3   OH2 7789   3.046   4.208   1.795
 2611TIP3    H1 7790   3.050   4.185   1.888
 2611TIP3    H2 7791   2.998   4.135   1.755
 2612TIP3   OH2 7792   8.000   5.997   0.109
 2612TIP3    H1 7793   8.081   6.049   0.102
 2612TIP3    H2 7794   7.952   6.038   0.181
 2613TIP3   OH2 7795   7.648   2.909   1.397
 2613TIP3    H1 7796   7.560   2.924   1.430
 2613TIP3    H2 7797   7.705   2.928   1.471
 2614TIP3   OH2 7798   0.983   3.183   1.444
 2614TIP3    H1 7799   1.047   3.193   1.373
 2614TIP3    H2 7800   0.983   3.089   1.463
 2615TIP3   OH2 7801   5.593   2.854   5.493
 2615TIP3    H1 7802   5.611   2.849   5.399
 2615TIP3    H2 7803   5.664   2.909   5.528
 2616TIP3   OH2 7804   1.078   2.748   1.315
 2616TIP3    H1 7805   1.035   2.720   1.235
 2616TIP3    H2 7806   1.165   2.778   1.286
 2617TIP3   OH2 7807   4.641   1.373   3.658
 2617TIP3    H1 7808   4.629   1.397   3.567
 2617TIP3    H2 7809   4.647   1.277   3.657
 2618TIP3   OH2 7810   7.590   4.184   1.787
 2618TIP3    H1 7811   7.650   4.115   1.816
 2618TIP3    H2 7812   7.647   4.249   1.744
 2619TIP3   OH2 7813   3.776   2.367   2.592
 2619TIP3    H1 7814   3.712   2.327   2.533
 2619TIP3    H2 7815   3.838   2.296   2.612
 2620TIP3   OH2 7816   3.117   7.522   0.963
 2620TIP3    H1 7817   3.049   7.468   0.923
 2620TIP3    H2 7818   3.199   7.486   0.930
 2621TIP3   OH2 7819   1.583   7.630   5.362
 2621TIP3    H1 7820   1.641   7.656   5.291
 2621TIP3    H2 7821   1.504   7.682   5.349
 2622TIP3   OH2 7822   0.476   0.686   4.381
 2622TIP3    H1 7823   0.482   0.773   4.421
 2622TIP3    H2 7824   0.565   0.668   4.351
 2623TIP3   OH2 7825   2.109   6.919   6.404
 2623TIP3    H1 7826   2.198   6.946   6.425
 2623TIP3    H2 7827   2.054   6.989   6.437
 2624TIP3   OH2 7828   0.928   2.561   5.211
 2624TIP3    H1 7829   0.856   2.531   5.267
 2624TIP3    H2 7830   0.969   2.481   5.179
 2625TIP3   OH2 7831   6.247   2.920   4.695
 2625TIP3    H1 7832   6.161   2.889   4.667
 2625TIP3    H2 7833   6.309   2.855   4.661
 2626TIP3   OH2 7834   6.610   7.709   4.468
 2626TIP3    H1 7835   6.620   7.789   4.520
 2626TIP3    H2 7836   6.692   7.701   4.420
 2627TIP3   OH2 7837   4.351   3.300   0.250
 2627TIP3    H1 7838   4.337   3.208   0.228
 2627TIP3    H2 7839   4.296   3.348   0.189
 2628TIP3   OH2 7840   2.030   5.407   4.727
 2628TIP3    H1 7841   2.032   5.339   4.794
 2628TIP3    H2 7842   2.099   5.383   4.665
 2629TIP3   OH2 7843   7.518   4.387   2.283
 2629TIP3    H1 7844   7.451   4.456   2.286
 2629TIP3    H2 7845   7.468   4.305   2.277
 2630TIP3   OH2 7846   0.995   0.681   6.315
 2630TIP3    H1 7847   1.078   0.721   6.340
 2630TIP3    H2 7848   0.939   0.692   6.393
 2631TIP3   OH2 7849   4.121   3.536   3.365
 2631TIP3    H1 7850   4.165   3.582   3.437
 2631TIP3    H2 7851   4.031   3.525   3.396
 2632TIP3   OH2 7852   1.419   5.502   5.358
 2632TIP3    H1 7853   1.326   5.483   5.360
 2632TIP3    H2 7854   1.452   5.469   5.442
 2633TIP3   OH2 7855   1.357   1.732   4.173
 2633TIP3    H1 7856   1.341   1.799   4.106
 2633TIP3    H2 7857   1.448   1.746   4.200
 2634TIP3   OH2 7858   1.014   5.676   6.236
 2634TIP3    H1 7859   0.966   5.610   6.185
 2634TIP3    H2 7860   1.070   5.626   6.294
 2635TIP3   OH2 7861   1.818   4.826   1.839
 2635TIP3    H1 7862   1.858   4.866   1.916
 2635TIP3    H2 7863   1.875   4.753   1.817
 2636TIP3   OH2 7864   3.104   7.520   5.405
 2636TIP3    H1 7865   3.174   7.506   5.342
 2636TIP3    H2 7866   3.130   7.470   5.482
 2637TIP3   OH2 7867   0.512   7.319   4.182
 2637TIP3    H1 7868   0.423   7.287   4.170
 2637TIP3    H2 7869   0.567   7.242   4.166
 2638TIP3   OH2 7870   0.085   5.355   4.095
 2638TIP3    H1 7871   0.010   5.413   4.084
 2638TIP3    H2 7872   0.063   5.302   4.171
 2639TIP3   OH2 7873   0.173   3.672   4.845
 2639TIP3    H1 7874   0.137   3.742   4.790
 2639TIP3    H2 7875   0.096   3.625   4.877
 2640TIP3   OH2 7876   2.519   7.245   0.949
 2640TIP3    H1 7877   2.425   7.229   0.946
 2640TIP3    H2 7878   2.539   7.256   1.042
 2641TIP3   OH2 7879   1.051   7.647   5.226
 2641TIP3    H1 7880   1.059   7.567   5.175
 2641TIP3    H2 7881   0.991   7.624   5.297
 2642TIP3   OH2 7882   3.392   6.778   0.722
 2642TIP3    H1 7883   3.418   6.686   0.725
 2642TIP3    H2 7884   3.456   6.820   0.664
 2643TIP3   OH2 7885   7.682   0.606   4.856
 2643TIP3    H1 7886   7.778   0.598   4.861
 2643TIP3    H2 7887   7.668   0.684   4.802
 2644TIP3   OH2 7888   3.415   6.831   0.999
 2644TIP3    H1 7889   3.427   6.813   0.906
 2644TIP3    H2 7890   3.498   6.806   1.039
 2645TIP3   OH2 7891   7.522   5.718   4.353
 2645TIP3    H1 7892   7.431   5.719   4.323
 2645TIP3    H2 7893   7.540   5.626   4.372
 2646TIP3   OH2 7894   2.777   3.211   1.414
 2646TIP3    H1 7895   2.706   3.200   1.476
 2646TIP3    H2 7896   2.734   3.207   1.328
 2647TIP3   OH2 7897   1.674   0.550   5.591
 2647TIP3    H1 7898   1.673   0.643   5.612
 2647TIP3    H2 7899   1.719   0.545   5.506
 2648TIP3   OH2 7900   6.471   1.231   0.109
 2648TIP3    H1 7901   6.565   1.233   0.126
 2648TIP3    H2 7902   6.463   1.180   0.028
 2649TIP3   OH2 7903   3.582   6.770   5.802
 2649TIP3    H1 7904   3.595   6.729   5.888
 2649TIP3    H2 7905   3.666   6.811   5.783
 2650TIP3   OH2 7906   4.313   2.029   5.501
 2650TIP3    H1 7907   4.361   2.090   5.445
 2650TIP3    H2 7908   4.298   1.952   5.446
 2651TIP3   OH2 7909   6.647   2.941   6.105
 2651TIP3    H1 7910   6.561   2.949   6.148
 2651TIP3    H2 7911   6.634   2.976   6.017
 2652TIP3   OH2 7912   2.159   5.049   2.781
 2652TIP3    H1 7913   2.213   5.019   2.854
 2652TIP3    H2 7914   2.207   5.124   2.745
 2653TIP3   OH2 7915   4.167   3.618   0.574
 2653TIP3    H1 7916   4.162   3.524   0.555
 2653TIP3    H2 7917   4.200   3.656   0.493
 2654TIP3   OH2 7918   3.847   3.493   2.063
 2654TIP3    H1 7919   3.939   3.517   2.051
 2654TIP3    H2 7920   3.812   3.561   2.120
 2655TIP3   OH2 7921   7.795   6.411   0.651
 2655TIP3    H1 7922   7.873   6.361   0.674
 2655TIP3    H2 7923   7.826   6.502   0.646
 2656TIP3   OH2 7924   5.889   2.085   3.367
 2656TIP3    H1 7925   5.920   2.004   3.408
 2656TIP3    H2 7926   5.909   2.074   3.274
 2657TIP3   OH2 7927   3.697   6.620   4.044
 2657TIP3    H1 7928   3.776   6.572   4.019
 2657TIP3    H2 7929   3.720   6.712   4.031
 2658TIP3   OH2 7930   5.868   6.434   3.925
 2658TIP3    H1 7931   5.957   6.413   3.952
 2658TIP3    H2 7932   5.815   6.415   4.002
 2659TIP3   OH2 7933   3.058   7.356   3.407
 2659TIP3    H1 7934   3.015   7.295   3.348
 2659TIP3    H2 7935   3.149   7.356   3.379
 2660TIP3   OH2 7936   4.232   5.180   4.921
 2660TIP3    H1 7937   4.237   5.204   5.014
 2660TIP3    H2 7938   4.138   5.169   4.904
 2661TIP3   OH2 7939   0.762   4.076   4.178
 2661TIP3    H1 7940   0.823   4.102   4.247
 2661TIP3    H2 7941   0.676   4.078   4.219
 2662TIP3   OH2 7942   8.285   6.820   0.657
 2662TIP3    H1 7943   8.192   6.834   0.638
 2662TIP3    H2 7944   8.311   6.751   0.596
 2663TIP3   OH2 7945   0.232   4.582   5.399
 2663TIP3    H1 7946   0.172   4.512   5.376
 2663TIP3    H2 7947   0.176   4.652   5.433
 2664TIP3   OH2 7948   8.064   0.165   2.733
 2664TIP3    H1 7949   8.096   0.077   2.751
 2664TIP3    H2 7950   8.017   0.190   2.813
 2665TIP3   OH2 7951   7.706   5.991   4.929
 2665TIP3    H1 7952   7.757   5.924   4.976
 2665TIP3    H2 7953   7.772   6.041   4.881
 2666TIP3   OH2 7954   1.508   4.942   0.972
 2666TIP3    H1 7955   1.449   4.877   1.011
 2666TIP3    H2 7956   1.564   4.971   1.044
 2667TIP3   OH2 7957   6.974   7.764   4.518
 2667TIP3    H1 7958   6.914   7.786   4.446
 2667TIP3    H2 7959   7.061   7.787   4.485
 2668TIP3   OH2 7960   2.671   3.415   6.522
 2668TIP3    H1 7961   2.582   3.431   6.491
 2668TIP3    H2 7962   2.661   3.400   6.616
 2669TIP3   OH2 7963   1.452   7.257   3.953
 2669TIP3    H1 7964   1.470   7.166   3.931
 2669TIP3    H2 7965   1.513   7.277   4.024
 2670TIP3   OH2 7966   0.817   5.814   4.126
 2670TIP3    H1 7967   0.865   5.894   4.103
 2670TIP3    H2 7968   0.861   5.781   4.204
 2671TIP3   OH2 7969   0.435   4.746   2.227
 2671TIP3    H1 7970   0.489   4.726   2.151
 2671TIP3    H2 7971   0.465   4.685   2.294
 2672TIP3   OH2 7972   1.235   5.275   4.907
 2672TIP3    H1 7973   1.326   5.287   4.880
 2672TIP3    H2 7974   1.183   5.303   4.832
 2673TIP3   OH2 7975   3.080   5.811   1.219
 2673TIP3    H1 7976   3.124   5.800   1.304
 2673TIP3    H2 7977   3.110   5.737   1.167
 2674TIP3   OH2 7978   2.037   4.826   2.342
 2674TIP3    H1 7979   1.969   4.763   2.365
 2674TIP3    H2 7980   2.045   4.882   2.419
 2675TIP3   OH2 7981   6.625   3.908   6.015
 2675TIP3    H1 7982   6.642   3.895   6.109
 2675TIP3    H2 7983   6.696   3.966   5.986
 2676TIP3   OH2 7984   4.402   4.979   4.844
 2676TIP3    H1 7985   4.449   4.935   4.915
 2676TIP3    H2 7986   4.363   5.056   4.884
 2677TIP3   OH2 7987   6.768   0.577   4.122
 2677TIP3    H1 7988   6.793   0.649   4.178
 2677TIP3    H2 7989   6.755   0.616   4.035
 2678TIP3   OH2 7990   5.886   7.634   0.667
 2678TIP3    H1 7991   5.839   7.586   0.599
 2678TIP3    H2 7992   5.877   7.726   0.644
 2679TIP3   OH2 7993   6.262   5.010   2.372
 2679TIP3    H1 7994   6.181   5.059   2.356
 2679TIP3    H2 7995   6.250   4.973   2.460
 2680TIP3   OH2 7996   7.176   4.462   0.750
 2680TIP3    H1 7997   7.212   4.487   0.665
 2680TIP3    H2 7998   7.248   4.479   0.812
 2681TIP3   OH2 7999   2.622   4.587   2.640
 2681TIP3    H1 8000   2.697   4.554   2.592
 2681TIP3    H2 8001   2.594   4.665   2.591
 2682TIP3   OH2 8002   2.164   7.371   3.659
 2682TIP3    H1 8003   2.129   7.375   3.570
 2682TIP3    H2 8004   2.115   7.300   3.700
 2683TIP3   OH2 8005   4.118   6.860   4.338
 2683TIP3    H1 8006   4.137   6.945   4.297
 2683TIP3    H2 8007   4.194   6.843   4.393
 2684TIP3   OH2 8008   6.549   0.356   5.255
 2684TIP3    H1 8009   6.575   0.381   5.343
 2684TIP3    H2 8010   6.627   0.370   5.202
 2685TIP3   OH2 8011   3.580   2.448   3.250
 2685TIP3    H1 8012   3.559   2.493   3.333
 2685TIP3    H2 8013   3.495   2.430   3.211
 2686TIP3   OH2 8014   3.634   5.516   3.454
 2686TIP3    H1 8015   3.620   5.478   3.367
 2686TIP3    H2 8016   3.596   5.453   3.515
 2687TIP3   OH2 8017   3.283   3.958   3.048
 2687TIP3    H1 8018   3.280   3.918   3.135
 2687TIP3    H2 8019   3.209   3.920   3.001
 2688TIP3   OH2 8020   7.830   3.567   3.400
 2688TIP3    H1 8021   7.751   3.546   3.350
 2688TIP3    H2 8022   7.872   3.638   3.351
 2689TIP3   OH2 8023   5.183   6.648   0.471
 2689TIP3    H1 8024   5.242   6.573   0.480
 2689TIP3    H2 8025   5.221   6.716   0.526
 2690TIP3   OH2 8026   5.502   3.890   0.579
 2690TIP3    H1 8027   5.453   3.842   0.645
 2690TIP3    H2 8028   5.579   3.836   0.563
 2691TIP3   OH2 8029   0.729   6.147   3.903
 2691TIP3    H1 8030   0.757   6.119   3.815
 2691TIP3    H2 8031   0.811   6.154   3.953
 2692TIP3   OH2 8032   5.396   6.294   2.591
 2692TIP3    H1 8033   5.307   6.326   2.599
 2692TIP3    H2 8034   5.442   6.361   2.540
 2693TIP3   OH2 8035   5.587   5.130   6.012
 2693TIP3    H1 8036   5.593   5.038   6.037
 2693TIP3    H2 8037   5.636   5.136   5.930
 2694TIP3   OH2 8038   7.008   1.351   4.531
 2694TIP3    H1 8039   6.981   1.262   4.553
 2694TIP3    H2 8040   7.093   1.340   4.488
 2695TIP3   OH2 8041   2.453   7.628   3.836
 2695TIP3    H1 8042   2.425   7.548   3.792
 2695TIP3    H2 8043   2.426   7.698   3.776
 2696TIP3   OH2 8044   3.252   6.684   3.777
 2696TIP3    H1 8045   3.197   6.607   3.765
 2696TIP3    H2 8046   3.333   6.650   3.816
 2697TIP3   OH2 8047   6.141   5.101   6.230
 2697TIP3    H1 8048   6.201   5.038   6.271
 2697TIP3    H2 8049   6.177   5.114   6.142
 2698TIP3   OH2 8050   2.787   2.935   2.645
 2698TIP3    H1 8051   2.795   2.884   2.726
 2698TIP3    H2 8052   2.809   3.024   2.670
 2699TIP3   OH2 8053   2.492   1.056   5.108
 2699TIP3    H1 8054   2.402   1.023   5.105
 2699TIP3    H2 8055   2.487   1.142   5.065
 2700TIP3   OH2 8056   5.797   6.166   6.005
 2700TIP3    H1 8057   5.801   6.232   5.936
 2700TIP3    H2 8058   5.721   6.112   5.982
 2701TIP3   OH2 8059   3.765   6.247   0.401
 2701TIP3    H1 8060   3.733   6.246   0.491
 2701TIP3    H2 8061   3.686   6.242   0.347
 2702TIP3   OH2 8062   7.511   6.678   2.670
 2702TIP3    H1 8063   7.464   6.597   2.648
 2702TIP3    H2 8064   7.442   6.743   2.684
 2703TIP3   OH2 8065   4.059   2.456   2.342
 2703TIP3    H1 8066   4.066   2.530   2.402
 2703TIP3    H2 8067   4.150   2.435   2.320
 2704TIP3   OH2 8068   6.699   0.147   0.772
 2704TIP3    H1 8069   6.788   0.171   0.747
 2704TIP3    H2 8070   6.646   0.165   0.694
 2705TIP3   OH2 8071   6.230   2.237   1.956
 2705TIP3    H1 8072   6.315   2.201   1.980
 2705TIP3    H2 8073   6.240   2.332   1.962
 2706TIP3   OH2 8074   0.440   1.876   0.049
 2706TIP3    H1 8075   0.374   1.807   0.036
 2706TIP3    H2 8076   0.524   1.832   0.034
 2707TIP3   OH2 8077   8.105   3.311   0.167
 2707TIP3    H1 8078   8.192   3.351   0.162
 2707TIP3    H2 8079   8.056   3.367   0.228
 2708TIP3   OH2 8080   3.259   0.853   5.987
 2708TIP3    H1 8081   3.309   0.809   6.055
 2708TIP3    H2 8082   3.298   0.823   5.905
 2709TIP3   OH2 8083   4.358   3.822   2.945
 2709TIP3    H1 8084   4.374   3.844   3.036
 2709TIP3    H2 8085   4.446   3.810   2.907
 2710TIP3   OH2 8086   0.580   7.474   0.660
 2710TIP3    H1 8087   0.669   7.483   0.626
 2710TIP3    H2 8088   0.542   7.561   0.649
 2711TIP3   OH2 8089   2.354   5.734   3.849
 2711TIP3    H1 8090   2.290   5.775   3.791
 2711TIP3    H2 8091   2.439   5.757   3.812
 2712TIP3   OH2 8092   0.168   1.184   5.549
 2712TIP3    H1 8093   0.119   1.200   5.469
 2712TIP3    H2 8094   0.127   1.242   5.614
 2713TIP3   OH2 8095   4.291   5.613   0.820
 2713TIP3    H1 8096   4.208   5.652   0.849
 2713TIP3    H2 8097   4.272   5.519   0.814
 2714TIP3   OH2 8098   3.776   7.146   2.634
 2714TIP3    H1 8099   3.711   7.146   2.704
 2714TIP3    H2 8100   3.733   7.192   2.562
 2715TIP3   OH2 8101   5.277   4.986   3.488
 2715TIP3    H1 8102   5.239   5.062   3.445
 2715TIP3    H2 8103   5.349   4.960   3.431
 2716TIP3   OH2 8104   2.062   4.872   0.169
 2716TIP3    H1 8105   2.031   4.829   0.248
 2716TIP3    H2 8106   2.150   4.903   0.191
 2717TIP3   OH2 8107   3.048   4.266   5.967
 2717TIP3    H1 8108   3.012   4.343   6.010
 2717TIP3    H2 8109   3.142   4.270   5.986
 2718TIP3   OH2 8110   3.192   1.029   6.467
 2718TIP3    H1 8111   3.124   0.980   6.422
 2718TIP3    H2 8112   3.237   1.078   6.398
 2719TIP3   OH2 8113   0.566   1.589   3.354
 2719TIP3    H1 8114   0.523   1.618   3.274
 2719TIP3    H2 8115   0.639   1.650   3.365
 2720TIP3   OH2 8116   1.895   3.022   5.496
 2720TIP3    H1 8117   1.835   2.947   5.485
 2720TIP3    H2 8118   1.912   3.052   5.407
 2721TIP3   OH2 8119   1.753   6.158   6.205
 2721TIP3    H1 8120   1.711   6.116   6.280
 2721TIP3    H2 8121   1.768   6.248   6.233
 2722TIP3   OH2 8122   5.842   3.387   2.372
 2722TIP3    H1 8123   5.821   3.443   2.297
 2722TIP3    H2 8124   5.898   3.440   2.428
 2723TIP3   OH2 8125   7.064   7.606   0.884
 2723TIP3    H1 8126   7.030   7.678   0.938
 2723TIP3    H2 8127   7.128   7.647   0.826
 2724TIP3   OH2 8128   1.509   5.217   5.207
 2724TIP3    H1 8129   1.524   5.309   5.184
 2724TIP3    H2 8130   1.543   5.168   5.132
 2725TIP3   OH2 8131   5.395   0.653   6.174
 2725TIP3    H1 8132   5.421   0.738   6.138
 2725TIP3    H2 8133   5.477   0.603   6.178
 2726TIP3   OH2 8134   2.280   3.814   2.880
 2726TIP3    H1 8135   2.211   3.747   2.875
 2726TIP3    H2 8136   2.248   3.886   2.826
 2727TIP3   OH2 8137   6.465   5.524   4.747
 2727TIP3    H1 8138   6.426   5.507   4.661
 2727TIP3    H2 8139   6.422   5.604   4.777
 2728TIP3   OH2 8140   5.014   6.374   1.156
 2728TIP3    H1 8141   5.032   6.445   1.094
 2728TIP3    H2 8142   5.098   6.358   1.199
 2729TIP3   OH2 8143   7.984   4.705   3.062
 2729TIP3    H1 8144   8.008   4.612   3.071
 2729TIP3    H2 8145   8.049   4.751   3.115
 2730TIP3   OH2 8146   3.273   1.950   5.892
 2730TIP3    H1 8147   3.265   1.907   5.807
 2730TIP3    H2 8148   3.331   2.025   5.876
 2731TIP3   OH2 8149   0.948   7.145   3.917
 2731TIP3    H1 8150   1.037   7.125   3.888
 2731TIP3    H2 8151   0.955   7.230   3.960
 2732TIP3   OH2 8152   7.714   4.023   4.912
 2732TIP3    H1 8153   7.672   4.081   4.976
 2732TIP3    H2 8154   7.792   4.072   4.885
 2733TIP3   OH2 8155   0.227   1.405   3.724
 2733TIP3    H1 8156   0.284   1.432   3.652
 2733TIP3    H2 8157   0.283   1.410   3.801
 2734TIP3   OH2 8158   0.955   6.057   5.230
 2734TIP3    H1 8159   1.028   6.053   5.291
 2734TIP3    H2 8160   0.985   6.010   5.153
 2735TIP3   OH2 8161   0.040   7.501   5.593
 2735TIP3    H1 8162   0.095   7.449   5.651
 2735TIP3    H2 8163   0.078   7.488   5.506
 2736TIP3   OH2 8164   2.684   3.684   3.832
 2736TIP3    H1 8165   2.651   3.599   3.801
 2736TIP3    H2 8166   2.615   3.718   3.888
 2737TIP3   OH2 8167   1.219   0.854  -0.028
 2737TIP3    H1 8168   1.158   0.802   0.025
 2737TIP3    H2 8169   1.193   0.945  -0.012
 2738TIP3   OH2 8170   8.293   6.964   1.525
 2738TIP3    H1 8171   8.229   6.943   1.456
 2738TIP3    H2 8172   8.328   7.050   1.500
 2739TIP3   OH2 8173   0.279   6.398   3.132
 2739TIP3    H1 8174   0.265   6.427   3.222
 2739TIP3    H2 8175   0.375   6.394   3.123
 2740TIP3   OH2 8176   0.233   4.783   5.606
 2740TIP3    H1 8177   0.256   4.813   5.694
 2740TIP3    H2 8178   0.139   4.767   5.610
 2741TIP3   OH2 8179   2.425   0.714   4.368
 2741TIP3    H1 8180   2.465   0.712   4.281
 2741TIP3    H2 8181   2.495   0.685   4.427
 2742TIP3   OH2 8182   3.892   5.548   3.274
 2742TIP3    H1 8183   3.828   5.591   3.331
 2742TIP3    H2 8184   3.976   5.585   3.300
 2743TIP3   OH2 8185   1.921   1.439   4.661
 2743TIP3    H1 8186   1.984   1.367   4.655
 2743TIP3    H2 8187   1.975   1.516   4.679
 2744TIP3   OH2 8188   5.285   3.109   4.155
 2744TIP3    H1 8189   5.368   3.083   4.194
 2744TIP3    H2 8190   5.295   3.089   4.062
 2745TIP3   OH2 8191   5.895   2.707   2.631
 2745TIP3    H1 8192   5.806   2.715   2.599
 2745TIP3    H2 8193   5.924   2.622   2.600
 2746TIP3   OH2 8194   2.756   1.679   0.535
 2746TIP3    H1 8195   2.812   1.726   0.474
 2746TIP3    H2 8196   2.816   1.647   0.603
 2747TIP3   OH2 8197   0.977   6.625   0.703
 2747TIP3    H1 8198   0.900   6.574   0.728
 2747TIP3    H2 8199   0.942   6.699   0.654
 2748TIP3   OH2 8200   0.654   1.554   6.095
 2748TIP3    H1 8201   0.585   1.488   6.094
 2748TIP3    H2 8202   0.735   1.504   6.095
 2749TIP3   OH2 8203   2.277   0.114   5.233
 2749TIP3    H1 8204   2.214   0.044   5.215
 2749TIP3    H2 8205   2.254   0.183   5.170
 2750TIP3   OH2 8206   3.554   7.245   3.614
 2750TIP3    H1 8207   3.467   7.208   3.632
 2750TIP3    H2 8208   3.553   7.264   3.520
 2751TIP3   OH2 8209   3.155   3.664   1.827
 2751TIP3    H1 8210   3.197   3.734   1.778
 2751TIP3    H2 8211   3.212   3.588   1.814
 2752TIP3   OH2 8212   0.298   7.684   1.870
 2752TIP3    H1 8213   0.219   7.631   1.863
 2752TIP3    H2 8214   0.367   7.631   1.831
 2753TIP3   OH2 8215   7.943   5.853   5.565
 2753TIP3    H1 8216   8.035   5.835   5.585
 2753TIP3    H2 8217   7.945   5.933   5.512
 2754TIP3   OH2 8218   5.960   0.759   6.786
 2754TIP3    H1 8219   5.918   0.683   6.747
 2754TIP3    H2 8220   6.054   0.745   6.771
 2755TIP3   OH2 8221   5.627   5.572   3.218
 2755TIP3    H1 8222   5.620   5.483   3.184
 2755TIP3    H2 8223   5.642   5.626   3.140
 2756TIP3   OH2 8224   6.469   4.125   2.217
 2756TIP3    H1 8225   6.483   4.133   2.123
 2756TIP3    H2 8226   6.391   4.179   2.234
 2757TIP3   OH2 8227   3.196   3.524   3.153
 2757TIP3    H1 8228   3.183   3.483   3.238
 2757TIP3    H2 8229   3.190   3.618   3.171
 2758TIP3   OH2 8230   6.710   5.406   0.809
 2758TIP3    H1 8231   6.785   5.391   0.751
 2758TIP3    H2 8232   6.695   5.500   0.805
 2759TIP3   OH2 8233   1.139   0.518   0.588
 2759TIP3    H1 8234   1.154   0.588   0.651
 2759TIP3    H2 8235   1.186   0.443   0.625
 2760TIP3   OH2 8236   1.843   0.641   6.606
 2760TIP3    H1 8237   1.858   0.594   6.523
 2760TIP3    H2 8238   1.924   0.630   6.655
 2761TIP3   OH2 8239   4.585   1.242   5.537
 2761TIP3    H1 8240   4.623   1.327   5.558
 2761TIP3    H2 8241   4.493   1.261   5.516
 2762TIP3   OH2 8242   7.403   3.982   1.925
 2762TIP3    H1 8243   7.475   4.013   1.871
 2762TIP3    H2 8244   7.339   4.054   1.922
 2763TIP3   OH2 8245   3.392   5.679   1.681
 2763TIP3    H1 8246   3.376   5.762   1.725
 2763TIP3    H2 8247   3.469   5.643   1.725
 2764TIP3   OH2 8248   0.312   5.057   6.692
 2764TIP3    H1 8249   0.347   4.995   6.629
 2764TIP3    H2 8250   0.309   5.140   6.644
 2765TIP3   OH2 8251   0.345   5.730   6.432
 2765TIP3    H1 8252   0.418   5.709   6.375
 2765TIP3    H2 8253   0.365   5.687   6.515
 2766TIP3   OH2 8254   0.437   1.072   3.277
 2766TIP3    H1 8255   0.499   1.144   3.267
 2766TIP3    H2 8256   0.366   1.109   3.329
 2767TIP3   OH2 8257   4.591   0.805   0.543
 2767TIP3    H1 8258   4.568   0.722   0.584
 2767TIP3    H2 8259   4.641   0.853   0.610
 2768TIP3   OH2 8260   4.050   5.920   3.229
 2768TIP3    H1 8261   4.033   5.886   3.141
 2768TIP3    H2 8262   3.998   6.000   3.234
 2769TIP3   OH2 8263   4.214   6.978   5.632
 2769TIP3    H1 8264   4.212   6.999   5.539
 2769TIP3    H2 8265   4.134   6.928   5.647
 2770TIP3   OH2 8266   6.697   7.100   4.658
 2770TIP3    H1 8267   6.695   7.112   4.753
 2770TIP3    H2 8268   6.706   7.006   4.645
 2771TIP3   OH2 8269   1.688   5.058   1.381
 2771TIP3    H1 8270   1.686   5.022   1.292
 2771TIP3    H2 8271   1.771   5.028   1.417
 2772TIP3   OH2 8272   3.178   7.048   0.629
 2772TIP3    H1 8273   3.249   7.097   0.588
 2772TIP3    H2 8274   3.219   7.001   0.701
 2773TIP3   OH2 8275   6.904   1.092   4.568
 2773TIP3    H1 8276   6.987   1.046   4.582
 2773TIP3    H2 8277   6.876   1.118   4.655
 2774TIP3   OH2 8278   7.139   5.908   1.336
 2774TIP3    H1 8279   7.108   5.925   1.424
 2774TIP3    H2 8280   7.104   5.821   1.314
 2775TIP3   OH2 8281   5.557   2.504   4.799
 2775TIP3    H1 8282   5.518   2.583   4.762
 2775TIP3    H2 8283   5.509   2.432   4.758
 2776TIP3   OH2 8284   3.661   2.207   2.392
 2776TIP3    H1 8285   3.601   2.168   2.328
 2776TIP3    H2 8286   3.747   2.203   2.350
 2777TIP3   OH2 8287   0.124   0.191   2.304
 2777TIP3    H1 8288   0.179   0.128   2.350
 2777TIP3    H2 8289   0.143   0.275   2.347
 2778TIP3   OH2 8290   4.189   0.423   5.800
 2778TIP3    H1 8291   4.180   0.482   5.725
 2778TIP3    H2 8292   4.261   0.460   5.850
 2779TIP3   OH2 8293   2.503   5.099   4.911
 2779TIP3    H1 8294   2.459   5.184   4.900
 2779TIP3    H2 8295   2.584   5.108   4.863
 2780TIP3   OH2 8296   4.669   5.495   5.107
 2780TIP3    H1 8297   4.627   5.411   5.123
 2780TIP3    H2 8298   4.620   5.557   5.161
 2781TIP3   OH2 8299   7.868   7.243   5.498
 2781TIP3    H1 8300   7.928   7.311   5.529
 2781TIP3    H2 8301   7.790   7.291   5.472
 2782TIP3   OH2 8302   5.614   2.643   3.458
 2782TIP3    H1 8303   5.619   2.668   3.366
 2782TIP3    H2 8304   5.704   2.625   3.484
 2783TIP3   OH2 8305   5.958   6.309   4.515
 2783TIP3    H1 8306   5.867   6.310   4.546
 2783TIP3    H2 8307   6.008   6.350   4.586
 2784TIP3   OH2 8308   5.575   7.315   3.975
 2784TIP3    H1 8309   5.523   7.396   3.979
 2784TIP3    H2 8310   5.643   7.334   3.910
 2785TIP3   OH2 8311   0.681   1.455   1.676
 2785TIP3    H1 8312   0.735   1.426   1.603
 2785TIP3    H2 8313   0.650   1.373   1.716
 2786TIP3   OH2 8314   2.160   7.792   2.882
 2786TIP3    H1 8315   2.145   7.838   2.800
 2786TIP3    H2 8316   2.207   7.713   2.857
 2787TIP3   OH2 8317   2.310   0.568   2.229
 2787TIP3    H1 8318   2.252   0.540   2.299
 2787TIP3    H2 8319   2.335   0.657   2.251
 2788TIP3   OH2 8320   3.069   3.820   0.481
 2788TIP3    H1 8321   3.084   3.842   0.573
 2788TIP3    H2 8322   2.993   3.763   0.482
 2789TIP3   OH2 8323   6.186   7.593   5.954
 2789TIP3    H1 8324   6.268   7.642   5.960
 2789TIP3    H2 8325   6.123   7.656   5.920
 2790TIP3   OH2 8326   6.116   5.842   2.685
 2790TIP3    H1 8327   6.140   5.903   2.614
 2790TIP3    H2 8328   6.022   5.855   2.695
 2791TIP3   OH2 8329   1.595   6.155   3.092
 2791TIP3    H1 8330   1.531   6.149   3.163
 2791TIP3    H2 8331   1.553   6.111   3.018
 2792TIP3   OH2 8332   1.933   0.650   1.146
 2792TIP3    H1 8333   1.898   0.577   1.197
 2792TIP3    H2 8334   1.944   0.721   1.210
 2793TIP3   OH2 8335   5.074   3.718   2.139
 2793TIP3    H1 8336   5.058   3.662   2.063
 2793TIP3    H2 8337   5.165   3.744   2.131
 2794TIP3   OH2 8338   6.418   6.551   2.300
 2794TIP3    H1 8339   6.428   6.617   2.232
 2794TIP3    H2 8340   6.508   6.522   2.318
 2795TIP3   OH2 8341   5.276   6.892   3.086
 2795TIP3    H1 8342   5.365   6.861   3.103
 2795TIP3    H2 8343   5.274   6.980   3.122
 2796TIP3   OH2 8344   4.312   1.063   0.080
 2796TIP3    H1 8345   4.225   1.103   0.071
 2796TIP3    H2 8346   4.324   1.015  -0.002
 2797TIP3   OH2 8347   8.040   4.054   4.491
 2797TIP3    H1 8348   8.125   4.049   4.446
 2797TIP3    H2 8349   8.030   3.968   4.532
 2798TIP3   OH2 8350   5.635   5.198   5.735
 2798TIP3    H1 8351   5.650   5.109   5.703
 2798TIP3    H2 8352   5.552   5.224   5.695
 2799TIP3   OH2 8353   5.962   7.429   0.016
 2799TIP3    H1 8354   6.036   7.453  -0.040
 2799TIP3    H2 8355   5.980   7.471   0.100
 2800TIP3   OH2 8356   0.936   2.505   6.771
 2800TIP3    H1 8357   0.989   2.541   6.841
 2800TIP3    H2 8358   0.991   2.440   6.729
 2801TIP3   OH2 8359   4.866   5.219   5.542
 2801TIP3    H1 8360   4.899   5.291   5.595
 2801TIP3    H2 8361   4.926   5.214   5.468
 2802TIP3   OH2 8362   4.019   6.420   4.113
 2802TIP3    H1 8363   4.058   6.336   4.089
 2802TIP3    H2 8364   4.014   6.468   4.030
 2803TIP3   OH2 8365   0.156   4.144   4.684
 2803TIP3    H1 8366   0.250   4.161   4.686
 2803TIP3    H2 8367   0.118   4.221   4.642
 2804TIP3   OH2 8368   0.332   4.208   1.537
 2804TIP3    H1 8369   0.347   4.226   1.444
 2804TIP3    H2 8370   0.420   4.193   1.573
 2805TIP3   OH2 8371   0.679   2.952   1.737
 2805TIP3    H1 8372   0.686   2.959   1.642
 2805TIP3    H2 8373   0.709   3.037   1.770
 2806TIP3   OH2 8374   3.191   7.464   5.659
 2806TIP3    H1 8375   3.228   7.485   5.745
 2806TIP3    H2 8376   3.126   7.397   5.677
 2807TIP3   OH2 8377   2.464   5.138   0.339
 2807TIP3    H1 8378   2.482   5.132   0.433
 2807TIP3    H2 8379   2.547   5.167   0.301
 2808TIP3   OH2 8380   1.923   6.844   5.801
 2808TIP3    H1 8381   1.869   6.893   5.863
 2808TIP3    H2 8382   2.012   6.854   5.834
 2809TIP3   OH2 8383   2.128   7.687   2.507
 2809TIP3    H1 8384   2.170   7.604   2.482
 2809TIP3    H2 8385   2.089   7.668   2.592
 2810TIP3   OH2 8386   5.415   5.507   5.475
 2810TIP3    H1 8387   5.366   5.480   5.397
 2810TIP3    H2 8388   5.354   5.497   5.547
 2811TIP3   OH2 8389   1.726   1.951   5.443
 2811TIP3    H1 8390   1.759   2.003   5.516
 2811TIP3    H2 8391   1.760   1.995   5.365
 2812TIP3   OH2 8392   1.450   5.788   4.204
 2812TIP3    H1 8393   1.377   5.846   4.225
 2812TIP3    H2 8394   1.516   5.807   4.269
 2813TIP3   OH2 8395   7.537   5.689   4.944
 2813TIP3    H1 8396   7.598   5.682   4.870
 2813TIP3    H2 8397   7.508   5.780   4.943
 2814TIP3   OH2 8398   7.368   3.938   4.931
 2814TIP3    H1 8399   7.392   3.946   4.839
 2814TIP3    H2 8400   7.416   4.009   4.974
 2815TIP3   OH2 8401   4.201   1.496   3.553
 2815TIP3    H1 8402   4.166   1.558   3.617
 2815TIP3    H2 8403   4.199   1.412   3.598
 2816TIP3   OH2 8404   4.575   5.227   5.053
 2816TIP3    H1 8405   4.627   5.161   5.098
 2816TIP3    H2 8406   4.485   5.208   5.079
 2817TIP3   OH2 8407   8.066   0.268   3.399
 2817TIP3    H1 8408   7.987   0.220   3.377
 2817TIP3    H2 8409   8.040   0.360   3.397
 2818TIP3   OH2 8410   5.080   5.176   5.319
 2818TIP3    H1 8411   5.160   5.128   5.294
 2818TIP3    H2 8412   5.015   5.150   5.254
 2819TIP3   OH2 8413   6.593   1.814   1.518
 2819TIP3    H1 8414   6.510   1.786   1.555
 2819TIP3    H2 8415   6.639   1.732   1.498
 2820TIP3   OH2 8416   3.805   5.713   4.578
 2820TIP3    H1 8417   3.833   5.731   4.489
 2820TIP3    H2 8418   3.798   5.617   4.583
 2821TIP3   OH2 8419   7.813   3.074   2.970
 2821TIP3    H1 8420   7.869   3.031   3.034
 2821TIP3    H2 8421   7.873   3.103   2.901
 2822TIP3   OH2 8422   5.223   4.454   5.866
 2822TIP3    H1 8423   5.198   4.397   5.938
 2822TIP3    H2 8424   5.319   4.446   5.861
 2823TIP3   OH2 8425   7.016   5.225   5.095
 2823TIP3    H1 8426   7.013   5.320   5.084
 2823TIP3    H2 8427   6.993   5.210   5.186
 2824TIP3   OH2 8428   8.168   3.241   1.132
 2824TIP3    H1 8429   8.185   3.283   1.217
 2824TIP3    H2 8430   8.105   3.172   1.152
 2825TIP3   OH2 8431   1.352   1.352   1.164
 2825TIP3    H1 8432   1.447   1.347   1.163
 2825TIP3    H2 8433   1.332   1.443   1.146
 2826TIP3   OH2 8434   7.346   7.672   0.670
 2826TIP3    H1 8435   7.408   7.605   0.642
 2826TIP3    H2 8436   7.392   7.723   0.736
 2827TIP3   OH2 8437   6.665   1.684   2.968
 2827TIP3    H1 8438   6.609   1.653   3.039
 2827TIP3    H2 8439   6.752   1.650   2.989
 2828TIP3   OH2 8440   2.760   7.552   1.941
 2828TIP3    H1 8441   2.831   7.516   1.887
 2828TIP3    H2 8442   2.754   7.644   1.915
 2829TIP3   OH2 8443   8.171   5.461   0.361
 2829TIP3    H1 8444   8.227   5.516   0.415
 2829TIP3    H2 8445   8.111   5.522   0.319
 2830TIP3   OH2 8446   3.523   2.664   1.183
 2830TIP3    H1 8447   3.518   2.759   1.198
 2830TIP3    H2 8448   3.460   2.648   1.113
 2831TIP3   OH2 8449   0.858   2.964   2.364
 2831TIP3    H1 8450   0.763   2.957   2.350
 2831TIP3    H2 8451   0.868   3.039   2.422
 2832TIP3   OH2 8452   1.691   2.325   4.757
 2832TIP3    H1 8453   1.652   2.357   4.676
 2832TIP3    H2 8454   1.694   2.230   4.747
 2833TIP3   OH2 8455   2.925   2.777   0.159
 2833TIP3    H1 8456   2.974   2.753   0.081
 2833TIP3    H2 8457   2.845   2.817   0.126
 2834TIP3   OH2 8458   7.659   7.386   3.326
 2834TIP3    H1 8459   7.579   7.428   3.359
 2834TIP3    H2 8460   7.642   7.292   3.333
 2835TIP3   OH2 8461   5.056   1.644   1.718
 2835TIP3    H1 8462   5.023   1.619   1.804
 2835TIP3    H2 8463   5.138   1.595   1.708
 2836TIP3   OH2 8464   7.794   4.284   2.272
 2836TIP3    H1 8465   7.830   4.304   2.186
 2836TIP3    H2 8466   7.709   4.329   2.273
 2837TIP3   OH2 8467   5.390   1.770   5.079
 2837TIP3    H1 8468   5.422   1.858   5.058
 2837TIP3    H2 8469   5.470   1.717   5.089
 2838TIP3   OH2 8470   7.226   2.388   5.570
 2838TIP3    H1 8471   7.218   2.470   5.520
 2838TIP3    H2 8472   7.249   2.322   5.504
 2839TIP3   OH2 8473   2.061   0.204   0.348
 2839TIP3    H1 8474   2.077   0.210   0.254
 2839TIP3    H2 8475   2.089   0.115   0.371
 2840TIP3   OH2 8476   5.050   1.644   1.218
 2840TIP3    H1 8477   5.118   1.629   1.284
 2840TIP3    H2 8478   5.050   1.739   1.205
 2841TIP3   OH2 8479   3.285   6.936   2.261
 2841TIP3    H1 8480   3.336   7.005   2.303
 2841TIP3    H2 8481   3.348   6.892   2.203
 2842TIP3   OH2 8482   3.380   6.567   1.966
 2842TIP3    H1 8483   3.400   6.610   2.049
 2842TIP3    H2 8484   3.353   6.479   1.990
 2843TIP3   OH2 8485   0.381   6.586   4.766
 2843TIP3    H1 8486   0.395   6.491   4.768
 2843TIP3    H2 8487   0.290   6.596   4.738
 2844TIP3   OH2 8488   3.603   5.279   2.578
 2844TIP3    H1 8489   3.604   5.226   2.499
 2844TIP3    H2 8490   3.690   5.318   2.582
 2845TIP3   OH2 8491   8.087   3.025   1.337
 2845TIP3    H1 8492   8.027   2.956   1.310
 2845TIP3    H2 8493   8.053   3.055   1.422
 2846TIP3   OH2 8494   3.937   3.394   0.227
 2846TIP3    H1 8495   4.001   3.452   0.185
 2846TIP3    H2 8496   3.946   3.413   0.321
 2847TIP3   OH2 8497   4.674   4.425   6.311
 2847TIP3    H1 8498   4.609   4.482   6.353
 2847TIP3    H2 8499   4.715   4.378   6.384
 2848TIP3   OH2 8500   6.279   6.816   6.429
 2848TIP3    H1 8501   6.358   6.801   6.481
 2848TIP3    H2 8502   6.287   6.907   6.399
 2849TIP3   OH2 8503   2.849   4.220   3.986
 2849TIP3    H1 8504   2.856   4.197   3.894
 2849TIP3    H2 8505   2.919   4.285   3.999
 2850TIP3   OH2 8506   0.670   0.624   1.362
 2850TIP3    H1 8507   0.608   0.650   1.430
 2850TIP3    H2 8508   0.756   0.627   1.404
 2851TIP3   OH2 8509   5.383   2.393   3.314
 2851TIP3    H1 8510   5.411   2.458   3.250
 2851TIP3    H2 8511   5.289   2.408   3.324
 2852TIP3   OH2 8512   6.615   7.684   3.585
 2852TIP3    H1 8513   6.626   7.733   3.503
 2852TIP3    H2 8514   6.521   7.672   3.593
 2853TIP3   OH2 8515   1.790   2.618   3.360
 2853TIP3    H1 8516   1.749   2.637   3.444
 2853TIP3    H2 8517   1.778   2.523   3.348
 2854TIP3   OH2 8518   5.412   3.663   2.535
 2854TIP3    H1 8519   5.419   3.606   2.458
 2854TIP3    H2 8520   5.370   3.608   2.602
 2855TIP3   OH2 8521   4.778   1.380   1.070
 2855TIP3    H1 8522   4.809   1.290   1.078
 2855TIP3    H2 8523   4.855   1.429   1.041
 2856TIP3   OH2 8524   0.051   4.387   4.637
 2856TIP3    H1 8525   0.018   4.475   4.654
 2856TIP3    H2 8526   0.106   4.397   4.559
 2857TIP3   OH2 8527   5.487   7.404   6.279
 2857TIP3    H1 8528   5.538   7.336   6.323
 2857TIP3    H2 8529   5.538   7.426   6.202
 2858TIP3   OH2 8530   7.580   4.484   4.106
 2858TIP3    H1 8531   7.620   4.501   4.021
 2858TIP3    H2 8532   7.643   4.517   4.170
 2859TIP3   OH2 8533   5.359   5.544   1.563
 2859TIP3    H1 8534   5.412   5.477   1.607
 2859TIP3    H2 8535   5.397   5.552   1.476
 2860TIP3   OH2 8536   4.022   3.856   5.457
 2860TIP3    H1 8537   3.937   3.852   5.502
 2860TIP3    H2 8538   4.076   3.913   5.512
 2861TIP3   OH2 8539   2.561   7.093   2.361
 2861TIP3    H1 8540   2.479   7.053   2.333
 2861TIP3    H2 8541   2.544   7.187   2.358
 2862TIP3   OH2 8542   4.082   2.084   4.075
 2862TIP3    H1 8543   4.053   2.151   4.136
 2862TIP3    H2 8544   4.175   2.103   4.061
 2863TIP3   OH2 8545   1.519   1.169   1.352
 2863TIP3    H1 8546   1.531   1.152   1.258
 2863TIP3    H2 8547   1.485   1.258   1.356
 2864TIP3   OH2 8548   7.361   0.653   6.236
 2864TIP3    H1 8549   7.439   0.632   6.288
 2864TIP3    H2 8550   7.313   0.716   6.290
 2865TIP3   OH2 8551   1.993   4.912   2.039
 2865TIP3    H1 8552   2.049   4.989   2.045
 2865TIP3    H2 8553   1.991   4.877   2.128
 2866TIP3   OH2 8554   7.704   3.585   6.534
 2866TIP3    H1 8555   7.737   3.567   6.446
 2866TIP3    H2 8556   7.771   3.639   6.574
 2867TIP3   OH2 8557   8.211   1.856   1.268
 2867TIP3    H1 8558   8.180   1.781   1.217
 2867TIP3    H2 8559   8.162   1.851   1.349
 2868TIP3   OH2 8560   8.052   6.682   5.329
 2868TIP3    H1 8561   8.104   6.617   5.376
 2868TIP3    H2 8562   8.003   6.728   5.398
 2869TIP3   OH2 8563   2.726   2.275   0.497
 2869TIP3    H1 8564   2.817   2.293   0.519
 2869TIP3    H2 8565   2.717   2.180   0.504
 2870TIP3   OH2 8566   4.558   5.672   1.069
 2870TIP3    H1 8567   4.564   5.718   1.152
 2870TIP3    H2 8568   4.632   5.611   1.069
 2871TIP3   OH2 8569   2.440   2.444   6.131
 2871TIP3    H1 8570   2.393   2.431   6.214
 2871TIP3    H2 8571   2.477   2.532   6.138
 2872TIP3   OH2 8572   4.399   2.768   4.717
 2872TIP3    H1 8573   4.407   2.861   4.737
 2872TIP3    H2 8574   4.445   2.724   4.789
 2873TIP3   OH2 8575   5.769   6.674   4.095
 2873TIP3    H1 8576   5.742   6.582   4.104
 2873TIP3    H2 8577   5.862   6.674   4.118
 2874TIP3   OH2 8578   4.492   4.765   1.234
 2874TIP3    H1 8579   4.522   4.817   1.308
 2874TIP3    H2 8580   4.542   4.798   1.159
 2875TIP3   OH2 8581   0.952   5.907   0.518
 2875TIP3    H1 8582   0.906   5.824   0.503
 2875TIP3    H2 8583   0.915   5.967   0.454
 2876TIP3   OH2 8584   5.262   1.555   0.212
 2876TIP3    H1 8585   5.238   1.476   0.163
 2876TIP3    H2 8586   5.198   1.559   0.283
 2877TIP3   OH2 8587   7.289   7.351   6.025
 2877TIP3    H1 8588   7.336   7.268   6.038
 2877TIP3    H2 8589   7.197   7.326   6.023
 2878TIP3   OH2 8590   3.483   6.346   4.396
 2878TIP3    H1 8591   3.578   6.352   4.387
 2878TIP3    H2 8592   3.463   6.253   4.386
 2879TIP3   OH2 8593   5.118   6.785   0.053
 2879TIP3    H1 8594   5.200   6.835   0.058
 2879TIP3    H2 8595   5.050   6.851   0.044
 2880TIP3   OH2 8596   2.958   3.562   0.562
 2880TIP3    H1 8597   3.044   3.520   0.558
 2880TIP3    H2 8598   2.926   3.542   0.650
 2881TIP3   OH2 8599   4.668   3.511   1.331
 2881TIP3    H1 8600   4.741   3.520   1.270
 2881TIP3    H2 8601   4.642   3.601   1.350
 2882TIP3   OH2 8602   2.786   2.780   2.851
 2882TIP3    H1 8603   2.824   2.699   2.818
 2882TIP3    H2 8604   2.783   2.769   2.946
 2883TIP3   OH2 8605   4.372   5.572   5.498
 2883TIP3    H1 8606   4.278   5.577   5.516
 2883TIP3    H2 8607   4.392   5.654   5.452
 2884TIP3   OH2 8608   4.200   0.170   5.937
 2884TIP3    H1 8609   4.167   0.248   5.892
 2884TIP3    H2 8610   4.293   0.167   5.916
 2885TIP3   OH2 8611   7.144   4.360   3.976
 2885TIP3    H1 8612   7.223   4.402   4.011
 2885TIP3    H2 8613   7.146   4.271   4.011
 2886TIP3   OH2 8614   3.542   3.773   1.759
 2886TIP3    H1 8615   3.631   3.809   1.759
 2886TIP3    H2 8616   3.540   3.713   1.834
 2887TIP3   OH2 8617   2.292   6.390   4.635
 2887TIP3    H1 8618   2.320   6.424   4.550
 2887TIP3    H2 8619   2.361   6.328   4.660
 2888TIP3   OH2 8620   2.560   2.289   6.425
 2888TIP3    H1 8621   2.471   2.260   6.409
 2888TIP3    H2 8622   2.591   2.235   6.497
 2889TIP3   OH2 8623   2.845   2.007   4.620
 2889TIP3    H1 8624   2.882   2.019   4.532
 2889TIP3    H2 8625   2.751   2.016   4.607
 2890TIP3   OH2 8626   7.166   5.117   0.261
 2890TIP3    H1 8627   7.153   5.049   0.195
 2890TIP3    H2 8628   7.082   5.123   0.307
 2891TIP3   OH2 8629   6.626   7.079   3.211
 2891TIP3    H1 8630   6.565   7.009   3.236
 2891TIP3    H2 8631   6.691   7.081   3.281
 2892TIP3   OH2 8632   6.349   2.175   6.119
 2892TIP3    H1 8633   6.332   2.151   6.028
 2892TIP3    H2 8634   6.279   2.132   6.168
 2893TIP3   OH2 8635   5.293   3.049   3.602
 2893TIP3    H1 8636   5.363   2.986   3.588
 2893TIP3    H2 8637   5.270   3.080   3.515
 2894TIP3   OH2 8638   2.820   5.190  -0.023
 2894TIP3    H1 8639   2.756   5.153   0.037
 2894TIP3    H2 8640   2.852   5.268   0.022
 2895TIP3   OH2 8641   2.385   5.967   3.289
 2895TIP3    H1 8642   2.352   5.919   3.365
 2895TIP3    H2 8643   2.339   6.052   3.293
 2896TIP3   OH2 8644   2.306   7.222   1.752
 2896TIP3    H1 8645   2.245   7.244   1.822
 2896TIP3    H2 8646   2.296   7.293   1.688
 2897TIP3   OH2 8647   0.043   4.691   3.413
 2897TIP3    H1 8648   0.127   4.716   3.374
 2897TIP3    H2 8649   0.065   4.623   3.476
 2898TIP3   OH2 8650   7.093   7.137   3.452
 2898TIP3    H1 8651   7.151   7.074   3.410
 2898TIP3    H2 8652   7.130   7.148   3.540
 2899TIP3   OH2 8653   7.836   5.875   3.551
 2899TIP3    H1 8654   7.894   5.845   3.481
 2899TIP3    H2 8655   7.772   5.931   3.507
 2900TIP3   OH2 8656   8.215   1.771   5.820
 2900TIP3    H1 8657   8.250   1.683   5.837
 2900TIP3    H2 8658   8.194   1.771   5.727
 2901TIP3   OH2 8659   2.343   5.343   5.821
 2901TIP3    H1 8660   2.269   5.305   5.868
 2901TIP3    H2 8661   2.328   5.438   5.826
 2902TIP3   OH2 8662   3.484   2.950   2.751
 2902TIP3    H1 8663   3.549   2.992   2.694
 2902TIP3    H2 8664   3.410   2.931   2.693
 2903TIP3   OH2 8665   4.303   0.750   0.467
 2903TIP3    H1 8666   4.352   0.821   0.425
 2903TIP3    H2 8667   4.212   0.779   0.467
 2904TIP3   OH2 8668   1.768   3.394   0.141
 2904TIP3    H1 8669   1.770   3.299   0.138
 2904TIP3    H2 8670   1.835   3.417   0.207
 2905TIP3   OH2 8671   0.681   0.820   0.178
 2905TIP3    H1 8672   0.689   0.871   0.259
 2905TIP3    H2 8673   0.771   0.811   0.146
 2906TIP3   OH2 8674   6.483   1.808   2.450
 2906TIP3    H1 8675   6.448   1.774   2.368
 2906TIP3    H2 8676   6.577   1.796   2.443
 2907TIP3   OH2 8677   2.226   2.784   6.034
 2907TIP3    H1 8678   2.241   2.792   6.128
 2907TIP3    H2 8679   2.210   2.691   6.020
 2908TIP3   OH2 8680   6.079   0.740   5.595
 2908TIP3    H1 8681   6.120   0.717   5.679
 2908TIP3    H2 8682   6.084   0.835   5.591
 2909TIP3   OH2 8683   6.927   3.057   2.508
 2909TIP3    H1 8684   6.968   2.972   2.525
 2909TIP3    H2 8685   6.865   3.069   2.580
 2910TIP3   OH2 8686   0.098   6.215   3.085
 2910TIP3    H1 8687   0.170   6.270   3.115
 2910TIP3    H2 8688   0.099   6.139   3.143
 2911TIP3   OH2 8689   1.138   7.253   2.069
 2911TIP3    H1 8690   1.210   7.315   2.085
 2911TIP3    H2 8691   1.105   7.277   1.983
 2912TIP3   OH2 8692   8.023   4.734   6.229
 2912TIP3    H1 8693   7.993   4.658   6.178
 2912TIP3    H2 8694   8.039   4.802   6.163
 2913TIP3   OH2 8695   6.460   4.541   0.871
 2913TIP3    H1 8696   6.417   4.619   0.836
 2913TIP3    H2 8697   6.549   4.546   0.838
 2914TIP3   OH2 8698   4.043   4.839   2.674
 2914TIP3    H1 8699   4.003   4.903   2.733
 2914TIP3    H2 8700   3.972   4.812   2.616
 2915TIP3   OH2 8701   6.951   5.227   5.721
 2915TIP3    H1 8702   6.858   5.250   5.722
 2915TIP3    H2 8703   6.979   5.232   5.812
 2916TIP3   OH2 8704   7.201   4.761   3.931
 2916TIP3    H1 8705   7.239   4.681   3.965
 2916TIP3    H2 8706   7.222   4.828   3.997
 2917TIP3   OH2 8707   8.137   7.083   5.570
 2917TIP3    H1 8708   8.184   7.087   5.653
 2917TIP3    H2 8709   8.189   7.136   5.510
 2918TIP3   OH2 8710   6.889   5.291   3.577
 2918TIP3    H1 8711   6.918   5.209   3.615
 2918TIP3    H2 8712   6.800   5.273   3.546
 2919TIP3   OH2 8713   5.670   3.385   3.886
 2919TIP3    H1 8714   5.738   3.452   3.878
 2919TIP3    H2 8715   5.680   3.331   3.808
 2920TIP3   OH2 8716   7.065   2.064   3.859
 2920TIP3    H1 8717   7.024   2.139   3.901
 2920TIP3    H2 8718   7.003   1.992   3.874
 2921TIP3   OH2 8719   7.666   2.315   3.102
 2921TIP3    H1 8720   7.756   2.322   3.136
 2921TIP3    H2 8721   7.612   2.302   3.180
 2922TIP3   OH2 8722   4.619   3.760   1.457
 2922TIP3    H1 8723   4.563   3.806   1.395
 2922TIP3    H2 8724   4.708   3.781   1.429
 2923TIP3   OH2 8725   4.556   2.086   1.799
 2923TIP3    H1 8726   4.628   2.124   1.749
 2923TIP3    H2 8727   4.482   2.085   1.738
 2924TIP3   OH2 8728   1.508   2.977   5.111
 2924TIP3    H1 8729   1.495   3.059   5.157
 2924TIP3    H2 8730   1.458   2.986   5.030
 2925TIP3   OH2 8731   3.512   0.459   2.663
 2925TIP3    H1 8732   3.568   0.494   2.594
 2925TIP3    H2 8733   3.432   0.511   2.658
 2926TIP3   OH2 8734   3.616   1.020   1.922
 2926TIP3    H1 8735   3.645   0.937   1.884
 2926TIP3    H2 8736   3.531   1.037   1.881
 2927TIP3   OH2 8737   2.001   0.210   1.812
 2927TIP3    H1 8738   2.014   0.304   1.807
 2927TIP3    H2 8739   2.049   0.175   1.737
 2928TIP3   OH2 8740   4.432   2.074   5.763
 2928TIP3    H1 8741   4.405   2.055   5.672
 2928TIP3    H2 8742   4.414   2.167   5.774
 2929TIP3   OH2 8743   2.496   6.208   3.438
 2929TIP3    H1 8744   2.419   6.210   3.382
 2929TIP3    H2 8745   2.517   6.300   3.453
 2930TIP3   OH2 8746   4.428   1.952   0.195
 2930TIP3    H1 8747   4.501   1.927   0.252
 2930TIP3    H2 8748   4.410   2.043   0.217
 2931TIP3   OH2 8749   3.187   2.655   1.281
 2931TIP3    H1 8750   3.213   2.567   1.254
 2931TIP3    H2 8751   3.205   2.710   1.204
 2932TIP3   OH2 8752   7.648   3.367   6.714
 2932TIP3    H1 8753   7.635   3.307   6.641
 2932TIP3    H2 8754   7.684   3.446   6.674
 2933TIP3   OH2 8755   2.258   2.608   3.239
 2933TIP3    H1 8756   2.271   2.533   3.180
 2933TIP3    H2 8757   2.331   2.603   3.301
 2934TIP3   OH2 8758   2.787   2.006   5.174
 2934TIP3    H1 8759   2.845   2.082   5.173
 2934TIP3    H2 8760   2.711   2.033   5.122
 2935TIP3   OH2 8761   8.198   5.212   5.908
 2935TIP3    H1 8762   8.285   5.173   5.901
 2935TIP3    H2 8763   8.196   5.251   5.996
 2936TIP3   OH2 8764   0.100   1.938   4.183
 2936TIP3    H1 8765   0.114   2.020   4.135
 2936TIP3    H2 8766   0.035   1.891   4.132
 2937TIP3   OH2 8767   3.968   6.873   0.160
 2937TIP3    H1 8768   3.949   6.952   0.110
 2937TIP3    H2 8769   4.041   6.832   0.114
 2938TIP3   OH2 8770   3.465   3.894   2.144
 2938TIP3    H1 8771   3.536   3.899   2.209
 2938TIP3    H2 8772   3.401   3.834   2.184
 2939TIP3   OH2 8773   6.197   7.023   2.478
 2939TIP3    H1 8774   6.224   7.080   2.406
 2939TIP3    H2 8775   6.140   7.077   2.531
 2940TIP3   OH2 8776   4.351   3.944   5.493
 2940TIP3    H1 8777   4.344   3.972   5.584
 2940TIP3    H2 8778   4.401   3.862   5.497
 2941TIP3   OH2 8779   4.893   2.249   6.552
 2941TIP3    H1 8780   4.888   2.238   6.458
 2941TIP3    H2 8781   4.886   2.160   6.587
 2942TIP3   OH2 8782   6.519   0.962   4.746
 2942TIP3    H1 8783   6.577   0.891   4.773
 2942TIP3    H2 8784   6.552   1.039   4.792
 2943TIP3   OH2 8785   2.714   1.515   6.373
 2943TIP3    H1 8786   2.736   1.556   6.289
 2943TIP3    H2 8787   2.769   1.437   6.377
 2944TIP3   OH2 8788   2.600   2.718   6.118
 2944TIP3    H1 8789   2.695   2.706   6.121
 2944TIP3    H2 8790   2.579   2.724   6.025
 2945TIP3   OH2 8791   1.850   1.896   0.765
 2945TIP3    H1 8792   1.943   1.911   0.750
 2945TIP3    H2 8793   1.822   1.840   0.693
 2946TIP3   OH2 8794   1.190   1.476   6.280
 2946TIP3    H1 8795   1.134   1.545   6.244
 2946TIP3    H2 8796   1.136   1.435   6.348
 2947TIP3   OH2 8797   7.483   1.223   1.759
 2947TIP3    H1 8798   7.422   1.297   1.751
 2947TIP3    H2 8799   7.427   1.148   1.780
 2948TIP3   OH2 8800   7.495   3.563   6.092
 2948TIP3    H1 8801   7.483   3.616   6.171
 2948TIP3    H2 8802   7.437   3.488   6.104
 2949TIP3   OH2 8803   1.889   2.491   1.068
 2949TIP3    H1 8804   1.906   2.397   1.066
 2949TIP3    H2 8805   1.903   2.520   0.977
 2950TIP3   OH2 8806   3.025   6.141   0.870
 2950TIP3    H1 8807   2.963   6.191   0.922
 2950TIP3    H2 8808   3.021   6.052   0.905
 2951TIP3   OH2 8809   0.539   6.212   3.495
 2951TIP3    H1 8810   0.465   6.236   3.551
 2951TIP3    H2 8811   0.611   6.267   3.526
 2952TIP3   OH2 8812   1.569   2.228   3.735
 2952TIP3    H1 8813   1.564   2.165   3.807
 2952TIP3    H2 8814   1.595   2.310   3.777
 2953TIP3   OH2 8815   3.398   4.003   0.712
 2953TIP3    H1 8816   3.378   3.996   0.805
 2953TIP3    H2 8817   3.410   3.912   0.683
 2954TIP3   OH2 8818   7.838   2.461   0.778
 2954TIP3    H1 8819   7.781   2.447   0.702
 2954TIP3    H2 8820   7.926   2.468   0.741
 2955TIP3   OH2 8821   7.053   4.106   1.063
 2955TIP3    H1 8822   7.095   4.136   1.143
 2955TIP3    H2 8823   6.961   4.091   1.088
 2956TIP3   OH2 8824   7.544   5.136   2.469
 2956TIP3    H1 8825   7.577   5.126   2.558
 2956TIP3    H2 8826   7.593   5.210   2.433
 2957TIP3   OH2 8827   7.280   0.723   6.704
 2957TIP3    H1 8828   7.262   0.630   6.715
 2957TIP3    H2 8829   7.196   0.761   6.678
 2958TIP3   OH2 8830   2.349   1.792   4.827
 2958TIP3    H1 8831   2.395   1.783   4.910
 2958TIP3    H2 8832   2.270   1.841   4.848
 2959TIP3   OH2 8833   5.626   1.575   4.758
 2959TIP3    H1 8834   5.714   1.554   4.788
 2959TIP3    H2 8835   5.635   1.657   4.710
 2960TIP3   OH2 8836   5.486   7.489   2.934
 2960TIP3    H1 8837   5.463   7.509   2.843
 2960TIP3    H2 8838   5.479   7.393   2.939
 2961TIP3   OH2 8839   0.656   4.265   2.721
 2961TIP3    H1 8840   0.562   4.268   2.704
 2961TIP3    H2 8841   0.691   4.343   2.678
 2962TIP3   OH2 8842   3.761   7.805   6.708
 2962TIP3    H1 8843   3.722   7.884   6.746
 2962TIP3    H2 8844   3.848   7.833   6.679
 2963TIP3   OH2 8845   4.554   2.434   6.561
 2963TIP3    H1 8846   4.573   2.522   6.528
 2963TIP3    H2 8847   4.523   2.386   6.484
 2964TIP3   OH2 8848   4.747   1.132   0.292
 2964TIP3    H1 8849   4.753   1.172   0.379
 2964TIP3    H2 8850   4.715   1.202   0.235
 2965TIP3   OH2 8851   2.102   1.553   5.126
 2965TIP3    H1 8852   2.076   1.470   5.167
 2965TIP3    H2 8853   2.197   1.553   5.130
 2966TIP3   OH2 8854   7.025   3.955   1.404
 2966TIP3    H1 8855   6.948   3.964   1.349
 2966TIP3    H2 8856   7.012   3.872   1.450
 2967TIP3   OH2 8857   7.734   0.363   4.340
 2967TIP3    H1 8858   7.716   0.403   4.425
 2967TIP3    H2 8859   7.829   0.369   4.331
 2968TIP3   OH2 8860   7.152   4.021   0.430
 2968TIP3    H1 8861   7.176   4.052   0.518
 2968TIP3    H2 8862   7.100   4.092   0.393
 2969TIP3   OH2 8863   6.793   3.868   2.931
 2969TIP3    H1 8864   6.762   3.885   3.020
 2969TIP3    H2 8865   6.722   3.820   2.889
 2970TIP3   OH2 8866   8.250   5.752   2.181
 2970TIP3    H1 8867   8.302   5.818   2.135
 2970TIP3    H2 8868   8.307   5.675   2.186
 2971TIP3   OH2 8869   2.014   2.666   6.193
 2971TIP3    H1 8870   1.981   2.662   6.103
 2971TIP3    H2 8871   1.982   2.749   6.227
 2972TIP3   OH2 8872   8.154   1.283   3.109
 2972TIP3    H1 8873   8.216   1.300   3.181
 2972TIP3    H2 8874   8.096   1.359   3.109
 2973TIP3   OH2 8875   2.761   0.884   3.746
 2973TIP3    H1 8876   2.703   0.878   3.670
 2973TIP3    H2 8877   2.775   0.793   3.772
 2974TIP3   OH2 8878   1.499   2.243   5.532
 2974TIP3    H1 8879   1.478   2.151   5.547
 2974TIP3    H2 8880   1.473   2.260   5.441
 2975TIP3   OH2 8881   0.539   7.002   3.145
 2975TIP3    H1 8882   0.449   6.970   3.150
 2975TIP3    H2 8883   0.530   7.095   3.123
 2976TIP3   OH2 8884   6.728   6.442   2.038
 2976TIP3    H1 8885   6.798   6.387   2.073
 2976TIP3    H2 8886   6.651   6.385   2.036
 2977TIP3   OH2 8887   6.478   1.023   0.338
 2977TIP3    H1 8888   6.472   0.933   0.306
 2977TIP3    H2 8889   6.428   1.074   0.275
 2978TIP3   OH2 8890   7.315   7.798   5.236
 2978TIP3    H1 8891   7.365   7.720   5.257
 2978TIP3    H2 8892   7.230   7.784   5.279
 2979TIP3   OH2 8893   4.846   6.642   3.796
 2979TIP3    H1 8894   4.756   6.624   3.769
 2979TIP3    H2 8895   4.844   6.634   3.892
 2980TIP3   OH2 8896   7.009   5.886   0.431
 2980TIP3    H1 8897   7.048   5.934   0.359
 2980TIP3    H2 8898   6.921   5.922   0.439
 2981TIP3   OH2 8899   2.690   7.539   0.115
 2981TIP3    H1 8900   2.715   7.630   0.133
 2981TIP3    H2 8901   2.771   7.489   0.128
 2982TIP3   OH2 8902   2.314   6.793   1.912
 2982TIP3    H1 8903   2.235   6.769   1.866
 2982TIP3    H2 8904   2.307   6.751   1.998
 2983TIP3   OH2 8905   4.544   5.037   1.758
 2983TIP3    H1 8906   4.479   5.100   1.788
 2983TIP3    H2 8907   4.591   5.012   1.837
 2984TIP3   OH2 8908   0.807   2.617   4.458
 2984TIP3    H1 8909   0.829   2.687   4.396
 2984TIP3    H2 8910   0.738   2.655   4.512
 2985TIP3   OH2 8911   1.749   3.925   1.446
 2985TIP3    H1 8912   1.712   3.872   1.376
 2985TIP3    H2 8913   1.680   3.987   1.468
 2986TIP3   OH2 8914   7.728   4.053   0.835
 2986TIP3    H1 8915   7.698   4.082   0.749
 2986TIP3    H2 8916   7.719   3.958   0.832
 2987TIP3   OH2 8917   0.313   1.490   1.729
 2987TIP3    H1 8918   0.236   1.434   1.723
 2987TIP3    H2 8919   0.375   1.454   1.666
 2988TIP3   OH2 8920   6.712   4.377   3.470
 2988TIP3    H1 8921   6.762   4.296   3.469
 2988TIP3    H2 8922   6.669   4.378   3.555
 2989TIP3   OH2 8923   2.050   4.272   2.517
 2989TIP3    H1 8924   2.008   4.188   2.535
 2989TIP3    H2 8925   2.130   4.249   2.469
 2990TIP3   OH2 8926   4.548   4.599   0.565
 2990TIP3    H1 8927   4.640   4.574   0.569
 2990TIP3    H2 8928   4.549   4.689   0.533
 2991TIP3   OH2 8929   1.909   4.975   1.526
 2991TIP3    H1 8930   1.996   4.974   1.486
 2991TIP3    H2 8931   1.925   4.997   1.618
 2992TIP3   OH2 8932   2.938   3.690   3.673
 2992TIP3    H1 8933   2.885   3.652   3.743
 2992TIP3    H2 8934   2.886   3.764   3.641
 2993TIP3   OH2 8935   1.499  -0.003   1.461
 2993TIP3    H1 8936   1.418  -0.041   1.427
 2993TIP3    H2 8937   1.565  -0.028   1.397
 2994TIP3   OH2 8938   2.269   7.686   3.593
 2994TIP3    H1 8939   2.224   7.603   3.577
 2994TIP3    H2 8940   2.332   7.693   3.521
 2995TIP3   OH2 8941   1.447   6.190   5.956
 2995TIP3    H1 8942   1.532   6.210   5.994
 2995TIP3    H2 8943   1.461   6.193   5.861
 2996TIP3   OH2 8944   0.901   3.453   5.002
 2996TIP3    H1 8945   0.873   3.395   4.932
 2996TIP3    H2 8946   0.886   3.404   5.082
 2997TIP3   OH2 8947   2.158   4.001   3.125
 2997TIP3    H1 8948   2.121   3.916   3.102
 2997TIP3    H2 8949   2.179   3.995   3.218
 2998TIP3   OH2 8950   1.303   1.271   2.220
 2998TIP3    H1 8951   1.265   1.277   2.307
 2998TIP3    H2 8952   1.353   1.352   2.210
 2999TIP3   OH2 8953   0.542   5.544   0.989
 2999TIP3    H1 8954   0.615   5.515   0.934
 2999TIP3    H2 8955   0.484   5.468   0.994
 3000TIP3   OH2 8956   6.725   3.038   5.419
 3000TIP3    H1 8957   6.646   3.019   5.368
 3000TIP3    H2 8958   6.773   2.956   5.420
 3001TIP3   OH2 8959   1.082   1.561   1.304
 3001TIP3    H1 8960   1.025   1.590   1.233
 3001TIP3    H2 8961   1.077   1.466   1.302
 3002TIP3   OH2 8962   1.345   2.574   2.530
 3002TIP3    H1 8963   1.403   2.570   2.454
 3002TIP3    H2 8964   1.273   2.515   2.508
 3003TIP3   OH2 8965   1.398   7.503   5.963
 3003TIP3    H1 8966   1.466   7.514   5.897
 3003TIP3    H2 8967   1.353   7.588   5.966
 3004TIP3   OH2 8968   0.363   5.916   0.712
 3004TIP3    H1 8969   0.447   5.962   0.718
 3004TIP3    H2 8970   0.336   5.906   0.804
 3005TIP3   OH2 8971   2.802   6.573   1.614
 3005TIP3    H1 8972   2.810   6.537   1.526
 3005TIP3    H2 8973   2.785   6.666   1.601
 3006TIP3   OH2 8974   5.735   3.920   6.725
 3006TIP3    H1 8975   5.766   4.004   6.693
 3006TIP3    H2 8976   5.779   3.909   6.809
 3007TIP3   OH2 8977   6.667   6.139   3.431
 3007TIP3    H1 8978   6.616   6.153   3.352
 3007TIP3    H2 8979   6.605   6.101   3.494
 3008TIP3   OH2 8980   0.041   0.176   3.330
 3008TIP3    H1 8981   0.035   0.082   3.313
 3008TIP3    H2 8982  -0.048   0.209   3.313
 3009TIP3   OH2 8983   0.797   5.876   1.825
 3009TIP3    H1 8984   0.801   5.811   1.896
 3009TIP3    H2 8985   0.744   5.833   1.757
 3010TIP3   OH2 8986   4.170   1.256   3.667
 3010TIP3    H1 8987   4.161   1.191   3.736
 3010TIP3    H2 8988   4.146   1.210   3.587
 3011TIP3   OH2 8989   1.615   7.329   3.467
 3011TIP3    H1 8990   1.562   7.353   3.543
 3011TIP3    H2 8991   1.607   7.404   3.408
 3012TIP3   OH2 8992   6.212   1.740   5.597
 3012TIP3    H1 8993   6.294   1.711   5.636
 3012TIP3    H2 8994   6.153   1.666   5.607
 3013TIP3   OH2 8995   4.431   7.724   2.220
 3013TIP3    H1 8996   4.388   7.809   2.217
 3013TIP3    H2 8997   4.512   7.739   2.269
 3014TIP3   OH2 8998   5.653   6.963   6.225
 3014TIP3    H1 8999   5.634   6.914   6.305
 3014TIP3    H2 9000   5.742   6.996   6.238
 3015TIP3   OH2 9001   8.303   1.788   3.996
 3015TIP3    H1 9002   8.300   1.698   4.029
 3015TIP3    H2 9003   8.213   1.806   3.969
 3016TIP3   OH2 9004   4.706   5.509   2.756
 3016TIP3    H1 9005   4.693   5.596   2.795
 3016TIP3    H2 9006   4.793   5.482   2.784
 3017TIP3   OH2 9007   0.435   2.163   6.228
 3017TIP3    H1 9008   0.526   2.154   6.255
 3017TIP3    H2 9009   0.400   2.232   6.285
 3018TIP3   OH2 9010   1.961   2.214   0.983
 3018TIP3    H1 9011   2.008   2.132   0.966
 3018TIP3    H2 9012   1.884   2.210   0.926
 3019TIP3   OH2 9013   6.039   0.308   1.766
 3019TIP3    H1 9014   6.128   0.318   1.734
 3019TIP3    H2 9015   5.984   0.321   1.688
 3020TIP3   OH2 9016   4.167   3.829   3.509
 3020TIP3    H1 9017   4.161   3.904   3.568
 3020TIP3    H2 9018   4.098   3.844   3.445
 3021TIP3   OH2 9019   4.263   7.683   4.031
 3021TIP3    H1 9020   4.333   7.621   4.051
 3021TIP3    H2 9021   4.270   7.698   3.937
 3022TIP3   OH2 9022   7.627   7.585   6.587
 3022TIP3    H1 9023   7.615   7.532   6.665
 3022TIP3    H2 9024   7.696   7.539   6.538
 3023TIP3   OH2 9025   3.233   6.214   3.756
 3023TIP3    H1 9026   3.190   6.134   3.726
 3023TIP3    H2 9027   3.282   6.245   3.680
 3024TIP3   OH2 9028   3.420   5.300   1.004
 3024TIP3    H1 9029   3.442   5.371   0.944
 3024TIP3    H2 9030   3.331   5.275   0.982
 3025TIP3   OH2 9031   8.094   5.781   1.944
 3025TIP3    H1 9032   8.005   5.754   1.967
 3025TIP3    H2 9033   8.144   5.770   2.025
 3026TIP3   OH2 9034   4.088   5.179   0.577
 3026TIP3    H1 9035   3.994   5.166   0.584
 3026TIP3    H2 9036   4.098   5.244   0.508
 3027TIP3   OH2 9037   6.303   1.431   4.482
 3027TIP3    H1 9038   6.261   1.498   4.536
 3027TIP3    H2 9039   6.295   1.351   4.533
 3028TIP3   OH2 9040   5.338   6.985   0.315
 3028TIP3    H1 9041   5.242   6.990   0.309
 3028TIP3    H2 9042   5.355   6.930   0.391
 3029TIP3   OH2 9043   6.923   3.146   0.653
 3029TIP3    H1 9044   6.970   3.149   0.736
 3029TIP3    H2 9045   6.935   3.233   0.615
 3030TIP3   OH2 9046   2.965   2.469   3.326
 3030TIP3    H1 9047   2.957   2.384   3.282
 3030TIP3    H2 9048   2.932   2.454   3.414
 3031TIP3   OH2 9049   2.922   4.227   0.769
 3031TIP3    H1 9050   2.982   4.235   0.843
 3031TIP3    H2 9051   2.888   4.137   0.775
 3032TIP3   OH2 9052   0.830   5.175   3.843
 3032TIP3    H1 9053   0.743   5.179   3.883
 3032TIP3    H2 9054   0.843   5.261   3.804
 3033TIP3   OH2 9055   2.517   0.507   0.576
 3033TIP3    H1 9056   2.436   0.459   0.592
 3033TIP3    H2 9057   2.575   0.444   0.533
 3034TIP3   OH2 9058   1.149   3.917   1.269
 3034TIP3    H1 9059   1.234   3.880   1.295
 3034TIP3    H2 9060   1.131   3.876   1.185
 3035TIP3   OH2 9061   4.906   7.606   3.763
 3035TIP3    H1 9062   4.982   7.647   3.805
 3035TIP3    H2 9063   4.879   7.668   3.695
 3036TIP3   OH2 9064   7.438   3.942   6.655
 3036TIP3    H1 9065   7.356   3.947   6.704
 3036TIP3    H2 9066   7.487   3.871   6.697
 3037TIP3   OH2 9067   5.856   1.124   5.646
 3037TIP3    H1 9068   5.943   1.162   5.657
 3037TIP3    H2 9069   5.798   1.199   5.635
 3038TIP3   OH2 9070   7.880   5.308   0.171
 3038TIP3    H1 9071   7.902   5.254   0.247
 3038TIP3    H2 9072   7.843   5.388   0.208
 3039TIP3   OH2 9073   6.952   7.163   4.075
 3039TIP3    H1 9074   6.930   7.207   3.993
 3039TIP3    H2 9075   6.869   7.134   4.110
 3040TIP3   OH2 9076   0.621   4.654   2.033
 3040TIP3    H1 9077   0.701   4.619   2.071
 3040TIP3    H2 9078   0.651   4.714   1.965
 3041TIP3   OH2 9079   2.772   1.203   0.619
 3041TIP3    H1 9080   2.820   1.262   0.677
 3041TIP3    H2 9081   2.793   1.115   0.650
 3042TIP3   OH2 9082   0.381   4.280   5.498
 3042TIP3    H1 9083   0.405   4.364   5.537
 3042TIP3    H2 9084   0.359   4.300   5.407
 3043TIP3   OH2 9085   5.893   3.361   4.098
 3043TIP3    H1 9086   5.897   3.429   4.031
 3043TIP3    H2 9087   5.802   3.331   4.095
 3044TIP3   OH2 9088   4.318   1.317   5.547
 3044TIP3    H1 9089   4.236   1.362   5.568
 3044TIP3    H2 9090   4.377   1.388   5.521
 3045TIP3   OH2 9091   7.135   4.620   5.980
 3045TIP3    H1 9092   7.051   4.623   6.026
 3045TIP3    H2 9093   7.112   4.622   5.887
 3046TIP3   OH2 9094   3.278   4.057   2.635
 3046TIP3    H1 9095   3.219   4.002   2.687
 3046TIP3    H2 9096   3.358   4.063   2.688
 3047TIP3   OH2 9097   3.276   3.541   0.835
 3047TIP3    H1 9098   3.356   3.525   0.786
 3047TIP3    H2 9099   3.278   3.479   0.907
 3048TIP3   OH2 9100   2.876   1.601   5.330
 3048TIP3    H1 9101   2.926   1.676   5.298
 3048TIP3    H2 9102   2.932   1.562   5.398
 3049TIP3   OH2 9103   2.087   6.237   4.448
 3049TIP3    H1 9104   2.042   6.320   4.463
 3049TIP3    H2 9105   2.180   6.257   4.460
 3050TIP3   OH2 9106   1.414   0.291   5.257
 3050TIP3    H1 9107   1.393   0.384   5.256
 3050TIP3    H2 9108   1.498   0.285   5.302
 3051TIP3   OH2 9109   1.638   3.748   6.081
 3051TIP3    H1 9110   1.661   3.783   6.167
 3051TIP3    H2 9111   1.545   3.725   6.089
 3052TIP3   OH2 9112   7.955   3.928   6.001
 3052TIP3    H1 9113   7.915   3.857   5.952
 3052TIP3    H2 9114   7.937   3.907   6.093
 3053TIP3   OH2 9115   6.184   3.337   1.894
 3053TIP3    H1 9116   6.196   3.403   1.827
 3053TIP3    H2 9117   6.216   3.256   1.855
 3054TIP3   OH2 9118   4.730   4.801   2.920
 3054TIP3    H1 9119   4.776   4.883   2.937
 3054TIP3    H2 9120   4.648   4.828   2.878
 3055TIP3   OH2 9121   0.700   2.424   3.503
 3055TIP3    H1 9122   0.645   2.367   3.556
 3055TIP3    H2 9123   0.790   2.396   3.523
 3056TIP3   OH2 9124   0.115   2.841   4.462
 3056TIP3    H1 9125   0.052   2.774   4.486
 3056TIP3    H2 9126   0.062   2.919   4.446
 3057TIP3   OH2 9127   5.639   2.040   6.215
 3057TIP3    H1 9128   5.728   2.041   6.250
 3057TIP3    H2 9129   5.590   2.097   6.275
 3058TIP3   OH2 9130   2.214   0.030   3.685
 3058TIP3    H1 9131   2.304   0.001   3.703
 3058TIP3    H2 9132   2.223   0.122   3.660
 3059TIP3   OH2 9133   5.391   2.665   2.444
 3059TIP3    H1 9134   5.371   2.642   2.535
 3059TIP3    H2 9135   5.386   2.582   2.397
 3060TIP3   OH2 9136   8.319   5.692   2.519
 3060TIP3    H1 9137   8.317   5.787   2.502
 3060TIP3    H2 9138   8.263   5.681   2.596
 3061TIP3   OH2 9139   0.367   1.940   4.073
 3061TIP3    H1 9140   0.375   1.862   4.019
 3061TIP3    H2 9141   0.283   1.931   4.118
 3062TIP3   OH2 9142   7.624   3.027   3.270
 3062TIP3    H1 9143   7.615   2.970   3.193
 3062TIP3    H2 9144   7.577   2.981   3.339
 3063TIP3   OH2 9145   6.215   5.087   3.394
 3063TIP3    H1 9146   6.298   5.097   3.348
 3063TIP3    H2 9147   6.228   5.130   3.478
 3064TIP3   OH2 9148   3.954   2.976   2.939
 3064TIP3    H1 9149   3.932   2.903   2.881
 3064TIP3    H2 9150   3.997   2.935   3.014
 3065TIP3   OH2 9151   5.962   0.703   3.055
 3065TIP3    H1 9152   5.882   0.725   3.007
 3065TIP3    H2 9153   6.026   0.682   2.987
 3066TIP3   OH2 9154   1.271   0.049   4.103
 3066TIP3    H1 9155   1.243   0.129   4.057
 3066TIP3    H2 9156   1.286  -0.014   4.033
 3067TIP3   OH2 9157   2.334   1.614   3.989
 3067TIP3    H1 9158   2.407   1.553   3.971
 3067TIP3    H2 9159   2.273   1.600   3.917
 3068TIP3   OH2 9160   6.871   5.064   2.453
 3068TIP3    H1 9161   6.847   5.071   2.361
 3068TIP3    H2 9162   6.788   5.048   2.498
 3069TIP3   OH2 9163   0.471   7.242   4.545
 3069TIP3    H1 9164   0.495   7.289   4.625
 3069TIP3    H2 9165   0.402   7.295   4.506
 3070TIP3   OH2 9166   5.928   4.899   1.582
 3070TIP3    H1 9167   5.975   4.816   1.584
 3070TIP3    H2 9168   5.905   4.912   1.490
 3071TIP3   OH2 9169   8.075   0.283   3.872
 3071TIP3    H1 9170   8.001   0.230   3.841
 3071TIP3    H2 9171   8.138   0.218   3.904
 3072TIP3   OH2 9172   3.290   7.214   0.193
 3072TIP3    H1 9173   3.246   7.289   0.234
 3072TIP3    H2 9174   3.241   7.138   0.223
 3073TIP3   OH2 9175   0.754   5.886   4.467
 3073TIP3    H1 9176   0.754   5.912   4.559
 3073TIP3    H2 9177   0.817   5.946   4.426
 3074TIP3   OH2 9178   6.533   3.741   5.200
 3074TIP3    H1 9179   6.576   3.681   5.260
 3074TIP3    H2 9180   6.597   3.756   5.130
 3075TIP3   OH2 9181  -0.014   4.767   3.969
 3075TIP3    H1 9182   0.058   4.831   3.971
 3075TIP3    H2 9183   0.024   4.690   3.927
 3076TIP3   OH2 9184   1.952   1.074   2.053
 3076TIP3    H1 9185   1.932   1.036   2.139
 3076TIP3    H2 9186   2.029   1.129   2.069
 3077TIP3   OH2 9187   6.636   5.048   2.600
 3077TIP3    H1 9188   6.547   5.079   2.585
 3077TIP3    H2 9189   6.625   4.964   2.646
 3078TIP3   OH2 9190   2.445   6.073   0.341
 3078TIP3    H1 9191   2.531   6.098   0.310
 3078TIP3    H2 9192   2.386   6.139   0.304
 3079TIP3   OH2 9193   0.363   2.706   0.752
 3079TIP3    H1 9194   0.444   2.663   0.782
 3079TIP3    H2 9195   0.306   2.634   0.725
 3080TIP3   OH2 9196   3.410   4.646   3.524
 3080TIP3    H1 9197   3.406   4.742   3.522
 3080TIP3    H2 9198   3.375   4.619   3.439
 3081TIP3   OH2 9199   7.914   4.765   6.682
 3081TIP3    H1 9200   7.855   4.837   6.659
 3081TIP3    H2 9201   7.876   4.688   6.641
 3082TIP3   OH2 9202   2.382   1.481   5.909
 3082TIP3    H1 9203   2.371   1.556   5.967
 3082TIP3    H2 9204   2.303   1.481   5.855
 3083TIP3   OH2 9205   6.425   6.977   0.648
 3083TIP3    H1 9206   6.382   6.900   0.612
 3083TIP3    H2 9207   6.365   7.009   0.716
 3084TIP3   OH2 9208   0.059   2.140   2.086
 3084TIP3    H1 9209   0.116   2.187   2.146
 3084TIP3    H2 9210   0.090   2.165   1.999
 3085TIP3   OH2 9211   6.295   2.842   2.549
 3085TIP3    H1 9212   6.304   2.760   2.597
 3085TIP3    H2 9213   6.385   2.864   2.523
 3086TIP3   OH2 9214   6.909   3.405   5.347
 3086TIP3    H1 9215   6.883   3.356   5.424
 3086TIP3    H2 9216   6.909   3.341   5.276
 3087TIP3   OH2 9217   6.546   6.984   5.785
 3087TIP3    H1 9218   6.499   6.999   5.866
 3087TIP3    H2 9219   6.492   6.923   5.736
 3088TIP3   OH2 9220   0.481   6.404   4.534
 3088TIP3    H1 9221   0.521   6.488   4.513
 3088TIP3    H2 9222   0.391   6.412   4.502
 3089TIP3   OH2 9223   4.679   6.663   2.686
 3089TIP3    H1 9224   4.758   6.707   2.714
 3089TIP3    H2 9225   4.660   6.700   2.599
 3090TIP3   OH2 9226   3.888   7.171   0.470
 3090TIP3    H1 9227   3.796   7.158   0.450
 3090TIP3    H2 9228   3.924   7.215   0.393
 3091TIP3   OH2 9229   4.598   2.253   2.221
 3091TIP3    H1 9230   4.573   2.180   2.164
 3091TIP3    H2 9231   4.621   2.211   2.304
 3092TIP3   OH2 9232   8.097   4.203   0.167
 3092TIP3    H1 9233   8.127   4.171   0.252
 3092TIP3    H2 9234   8.077   4.124   0.117
 3093TIP3   OH2 9235   7.698   3.811   2.579
 3093TIP3    H1 9236   7.621   3.860   2.610
 3093TIP3    H2 9237   7.709   3.838   2.488
 3094TIP3   OH2 9238   6.843   1.498   3.824
 3094TIP3    H1 9239   6.845   1.403   3.808
 3094TIP3    H2 9240   6.906   1.534   3.761
 3095TIP3   OH2 9241   3.696   6.955   1.003
 3095TIP3    H1 9242   3.645   7.035   0.992
 3095TIP3    H2 9243   3.679   6.927   1.093
 3096TIP3   OH2 9244   6.812   4.540   4.415
 3096TIP3    H1 9245   6.860   4.530   4.333
 3096TIP3    H2 9246   6.832   4.630   4.443
 3097TIP3   OH2 9247   6.553   0.311   0.592
 3097TIP3    H1 9248   6.467   0.310   0.551
 3097TIP3    H2 9249   6.611   0.350   0.526
 3098TIP3   OH2 9250   0.429   7.518   1.688
 3098TIP3    H1 9251   0.397   7.541   1.600
 3098TIP3    H2 9252   0.453   7.426   1.681
 3099TIP3   OH2 9253   1.766   5.714   5.400
 3099TIP3    H1 9254   1.796   5.624   5.403
 3099TIP3    H2 9255   1.720   5.722   5.316
 3100TIP3   OH2 9256   3.330   7.712   4.752
 3100TIP3    H1 9257   3.331   7.685   4.844
 3100TIP3    H2 9258   3.288   7.640   4.705
 3101TIP3   OH2 9259   1.928   5.699   2.611
 3101TIP3    H1 9260   1.974   5.632   2.661
 3101TIP3    H2 9261   1.835   5.681   2.626
 3102TIP3   OH2 9262   4.825   2.886   2.416
 3102TIP3    H1 9263   4.898   2.828   2.441
 3102TIP3    H2 9264   4.867   2.970   2.398
 3103TIP3   OH2 9265   7.342   4.095   2.182
 3103TIP3    H1 9266   7.310   4.168   2.129
 3103TIP3    H2 9267   7.387   4.038   2.120
 3104TIP3   OH2 9268   5.179   0.992   1.657
 3104TIP3    H1 9269   5.130   0.924   1.610
 3104TIP3    H2 9270   5.164   0.973   1.749
 3105TIP3   OH2 9271   3.227   3.597   0.063
 3105TIP3    H1 9272   3.181   3.534   0.118
 3105TIP3    H2 9273   3.256   3.665   0.123
 3106TIP3   OH2 9274   2.313   2.819   6.304
 3106TIP3    H1 9275   2.250   2.874   6.351
 3106TIP3    H2 9276   2.316   2.738   6.355
 3107TIP3   OH2 9277   1.568   4.907   4.001
 3107TIP3    H1 9278   1.490   4.852   4.012
 3107TIP3    H2 9279   1.534   4.991   3.970
 3108TIP3   OH2 9280   4.526   5.242   1.097
 3108TIP3    H1 9281   4.544   5.311   1.033
 3108TIP3    H2 9282   4.458   5.278   1.154
 3109TIP3   OH2 9283   5.788   6.224   3.239
 3109TIP3    H1 9284   5.713   6.251   3.292
 3109TIP3    H2 9285   5.863   6.270   3.278
 3110TIP3   OH2 9286   4.303   1.680   5.629
 3110TIP3    H1 9287   4.393   1.655   5.607
 3110TIP3    H2 9288   4.312   1.733   5.709
 3111TIP3   OH2 9289   0.179   7.427   5.363
 3111TIP3    H1 9290   0.267   7.393   5.350
 3111TIP3    H2 9291   0.151   7.457   5.277
 3112TIP3   OH2 9292   3.100   7.642   3.327
 3112TIP3    H1 9293   3.026   7.683   3.283
 3112TIP3    H2 9294   3.061   7.572   3.381
 3113TIP3   OH2 9295   4.020   1.024   2.910
 3113TIP3    H1 9296   4.023   1.104   2.858
 3113TIP3    H2 9297   4.078   1.042   2.985
 3114TIP3   OH2 9298   0.012   2.246   0.606
 3114TIP3    H1 9299  -0.011   2.181   0.673
 3114TIP3    H2 9300  -0.022   2.209   0.525
 3115TIP3   OH2 9301   6.071   6.258   5.746
 3115TIP3    H1 9302   6.146   6.275   5.804
 3115TIP3    H2 9303   5.997   6.300   5.790
 3116TIP3   OH2 9304   5.973   6.588   0.704
 3116TIP3    H1 9305   6.014   6.590   0.618
 3116TIP3    H2 9306   6.044   6.608   0.765
 3117TIP3   OH2 9307   5.835   0.605   5.665
 3117TIP3    H1 9308   5.918   0.647   5.643
 3117TIP3    H2 9309   5.781   0.613   5.586
 3118TIP3   OH2 9310   4.021   7.601   1.173
 3118TIP3    H1 9311   4.004   7.693   1.154
 3118TIP3    H2 9312   3.964   7.581   1.247
 3119TIP3   OH2 9313   1.922   3.670   2.119
 3119TIP3    H1 9314   1.896   3.756   2.151
 3119TIP3    H2 9315   1.965   3.628   2.193
 3120TIP3   OH2 9316   6.304   6.696   3.044
 3120TIP3    H1 9317   6.239   6.627   3.056
 3120TIP3    H2 9318   6.365   6.660   2.979
 3121TIP3   OH2 9319   2.759   3.294   3.676
 3121TIP3    H1 9320   2.816   3.283   3.752
 3121TIP3    H2 9321   2.675   3.257   3.703
 3122TIP3   OH2 9322   0.254   5.200   0.624
 3122TIP3    H1 9323   0.162   5.201   0.596
 3122TIP3    H2 9324   0.304   5.220   0.545
 3123TIP3   OH2 9325   0.610   0.766   0.721
 3123TIP3    H1 9326   0.582   0.822   0.794
 3123TIP3    H2 9327   0.587   0.677   0.749
 3124TIP3   OH2 9328   2.045   4.480   6.277
 3124TIP3    H1 9329   2.092   4.545   6.224
 3124TIP3    H2 9330   2.113   4.421   6.309
 3125TIP3   OH2 9331   6.150   6.881   3.211
 3125TIP3    H1 9332   6.219   6.947   3.214
 3125TIP3    H2 9333   6.192   6.805   3.170
 3126TIP3   OH2 9334   0.804   6.879   0.762
 3126TIP3    H1 9335   0.854   6.927   0.829
 3126TIP3    H2 9336   0.740   6.829   0.812
 3127TIP3   OH2 9337   6.646   6.405   1.534
 3127TIP3    H1 9338   6.587   6.480   1.539
 3127TIP3    H2 9339   6.700   6.410   1.613
 3128TIP3   OH2 9340   2.477   6.930   4.106
 3128TIP3    H1 9341   2.555   6.947   4.054
 3128TIP3    H2 9342   2.405   6.968   4.055
 3129TIP3   OH2 9343   4.124   5.732   1.022
 3129TIP3    H1 9344   4.101   5.643   1.047
 3129TIP3    H2 9345   4.043   5.768   0.986
 3130TIP3   OH2 9346   6.872   0.518   0.857
 3130TIP3    H1 9347   6.940   0.453   0.837
 3130TIP3    H2 9348   6.794   0.465   0.873
 3131TIP3   OH2 9349   3.293   4.917   1.115
 3131TIP3    H1 9350   3.251   4.931   1.200
 3131TIP3    H2 9351   3.278   4.824   1.096
 3132TIP3   OH2 9352   0.593   6.506   6.654
 3132TIP3    H1 9353   0.683   6.537   6.649
 3132TIP3    H2 9354   0.597   6.427   6.708
 3133TIP3   OH2 9355   2.153   6.227   6.387
 3133TIP3    H1 9356   2.139   6.203   6.295
 3133TIP3    H2 9357   2.229   6.177   6.414
 3134TIP3   OH2 9358   1.289   0.422   3.410
 3134TIP3    H1 9359   1.275   0.467   3.493
 3134TIP3    H2 9360   1.296   0.493   3.345
 3135TIP3   OH2 9361   1.817   3.718   5.854
 3135TIP3    H1 9362   1.767   3.733   5.933
 3135TIP3    H2 9363   1.867   3.799   5.840
 3136TIP3   OH2 9364   2.926   3.926   3.221
 3136TIP3    H1 9365   2.836   3.957   3.225
 3136TIP3    H2 9366   2.930   3.874   3.140
 3137TIP3   OH2 9367   3.780   3.336   6.213
 3137TIP3    H1 9368   3.818   3.248   6.220
 3137TIP3    H2 9369   3.814   3.383   6.289
 3138TIP3   OH2 9370   1.919   2.837   0.815
 3138TIP3    H1 9371   1.965   2.851   0.898
 3138TIP3    H2 9372   1.939   2.746   0.793
 3139TIP3   OH2 9373   3.053   5.793   3.203
 3139TIP3    H1 9374   3.023   5.851   3.134
 3139TIP3    H2 9375   3.037   5.841   3.284
 3140TIP3   OH2 9376   6.163   1.667   4.571
 3140TIP3    H1 9377   6.131   1.705   4.653
 3140TIP3    H2 9378   6.096   1.688   4.507
 3141TIP3   OH2 9379   5.824   6.381   1.887
 3141TIP3    H1 9380   5.861   6.469   1.887
 3141TIP3    H2 9381   5.855   6.341   1.806
 3142TIP3   OH2 9382   4.974   3.113   6.339
 3142TIP3    H1 9383   4.923   3.129   6.418
 3142TIP3    H2 9384   4.924   3.046   6.292
 3143TIP3   OH2 9385   8.052   5.174   1.496
 3143TIP3    H1 9386   7.988   5.243   1.479
 3143TIP3    H2 9387   8.100   5.205   1.573
 3144TIP3   OH2 9388   6.008   4.009   2.763
 3144TIP3    H1 9389   5.981   3.979   2.850
 3144TIP3    H2 9390   6.083   4.066   2.780
 3145TIP3   OH2 9391   6.357   0.396   1.521
 3145TIP3    H1 9392   6.334   0.486   1.545
 3145TIP3    H2 9393   6.378   0.353   1.605
 3146TIP3   OH2 9394   6.989   1.265   1.145
 3146TIP3    H1 9395   7.074   1.307   1.136
 3146TIP3    H2 9396   6.997   1.183   1.095
 3147TIP3   OH2 9397   2.975   7.463   0.646
 3147TIP3    H1 9398   2.997   7.393   0.707
 3147TIP3    H2 9399   2.882   7.479   0.660
 3148TIP3   OH2 9400   7.054   4.356  -0.033
 3148TIP3    H1 9401   7.115   4.315   0.028
 3148TIP3    H2 9402   6.978   4.298  -0.034
 3149TIP3   OH2 9403   2.660   4.430   3.650
 3149TIP3    H1 9404   2.611   4.364   3.700
 3149TIP3    H2 9405   2.687   4.494   3.716
 3150TIP3   OH2 9406   4.255   7.297   2.566
 3150TIP3    H1 9407   4.261   7.209   2.604
 3150TIP3    H2 9408   4.166   7.326   2.587
 3151TIP3   OH2 9409   5.690   7.567   5.340
 3151TIP3    H1 9410   5.750   7.537   5.408
 3151TIP3    H2 9411   5.747   7.601   5.271
 3152TIP3   OH2 9412   3.482   6.918   1.818
 3152TIP3    H1 9413   3.504   6.936   1.909
 3152TIP3    H2 9414   3.468   7.004   1.779
 3153TIP3   OH2 9415   0.975   6.268   6.328
 3153TIP3    H1 9416   1.009   6.351   6.362
 3153TIP3    H2 9417   0.990   6.205   6.398
 3154TIP3   OH2 9418   5.521   2.847   0.722
 3154TIP3    H1 9419   5.498   2.897   0.644
 3154TIP3    H2 9420   5.609   2.877   0.744
 3155TIP3   OH2 9421   7.924   2.367   4.655
 3155TIP3    H1 9422   8.019   2.378   4.669
 3155TIP3    H2 9423   7.908   2.274   4.668
 3156TIP3   OH2 9424   8.163   3.725   2.946
 3156TIP3    H1 9425   8.160   3.704   2.852
 3156TIP3    H2 9426   8.206   3.649   2.986
 3157TIP3   OH2 9427   2.150   1.315   2.585
 3157TIP3    H1 9428   2.222   1.255   2.565
 3157TIP3    H2 9429   2.193   1.397   2.609
 3158TIP3   OH2 9430   6.476   7.727   2.419
 3158TIP3    H1 9431   6.505   7.816   2.400
 3158TIP3    H2 9432   6.540   7.671   2.374
 3159TIP3   OH2 9433   6.807   0.057   2.317
 3159TIP3    H1 9434   6.850   0.134   2.354
 3159TIP3    H2 9435   6.741   0.092   2.258
 3160TIP3   OH2 9436   1.961   1.528   1.272
 3160TIP3    H1 9437   1.927   1.438   1.275
 3160TIP3    H2 9438   2.004   1.534   1.187
 3161TIP3   OH2 9439   0.074   7.007   0.407
 3161TIP3    H1 9440   0.007   6.954   0.451
 3161TIP3    H2 9441   0.052   7.002   0.314
 3162TIP3   OH2 9442   2.990   6.511   2.133
 3162TIP3    H1 9443   3.072   6.467   2.155
 3162TIP3    H2 9444   2.939   6.510   2.215
 3163TIP3   OH2 9445   0.287   1.774   5.996
 3163TIP3    H1 9446   0.240   1.817   6.067
 3163TIP3    H2 9447   0.275   1.680   6.012
 3164TIP3   OH2 9448   7.629   7.437   5.118
 3164TIP3    H1 9449   7.710   7.399   5.153
 3164TIP3    H2 9450   7.590   7.367   5.066
 3165TIP3   OH2 9451   0.556   6.952   5.970
 3165TIP3    H1 9452   0.491   6.973   6.038
 3165TIP3    H2 9453   0.602   6.875   6.003
 3166TIP3   OH2 9454   0.319   1.575   6.257
 3166TIP3    H1 9455   0.284   1.629   6.329
 3166TIP3    H2 9456   0.368   1.506   6.301
 3167TIP3   OH2 9457   2.757   4.451   0.760
 3167TIP3    H1 9458   2.668   4.432   0.791
 3167TIP3    H2 9459   2.802   4.367   0.763
 3168TIP3   OH2 9460   2.509   0.629   0.814
 3168TIP3    H1 9461   2.537   0.617   0.723
 3168TIP3    H2 9462   2.417   0.655   0.807
 3169TIP3   OH2 9463   6.715   5.358   4.169
 3169TIP3    H1 9464   6.771   5.415   4.221
 3169TIP3    H2 9465   6.671   5.417   4.107
 3170TIP3   OH2 9466   2.362   1.479   5.134
 3170TIP3    H1 9467   2.397   1.474   5.223
 3170TIP3    H2 9468   2.439   1.494   5.078
 3171TIP3   OH2 9469   4.887   7.503   5.199
 3171TIP3    H1 9470   4.803   7.498   5.154
 3171TIP3    H2 9471   4.875   7.455   5.281
 3172TIP3   OH2 9472   7.716   1.627   5.438
 3172TIP3    H1 9473   7.702   1.559   5.504
 3172TIP3    H2 9474   7.744   1.704   5.488
 3173TIP3   OH2 9475   3.464   4.261   2.216
 3173TIP3    H1 9476   3.482   4.349   2.184
 3173TIP3    H2 9477   3.494   4.261   2.307
 3174TIP3   OH2 9478   6.490   7.204   0.378
 3174TIP3    H1 9479   6.395   7.202   0.387
 3174TIP3    H2 9480   6.515   7.111   0.373
 3175TIP3   OH2 9481   1.054   5.788   6.566
 3175TIP3    H1 9482   1.040   5.711   6.622
 3175TIP3    H2 9483   1.137   5.769   6.521
 3176TIP3   OH2 9484   1.874   2.144   5.283
 3176TIP3    H1 9485   1.886   2.238   5.271
 3176TIP3    H2 9486   1.931   2.103   5.218
 3177TIP3   OH2 9487   3.501   5.535   6.035
 3177TIP3    H1 9488   3.493   5.581   6.119
 3177TIP3    H2 9489   3.457   5.451   6.050
 3178TIP3   OH2 9490   7.367   1.712   6.343
 3178TIP3    H1 9491   7.440   1.678   6.290
 3178TIP3    H2 9492   7.327   1.780   6.288
 3179TIP3   OH2 9493   6.625   5.184   3.808
 3179TIP3    H1 9494   6.640   5.090   3.822
 3179TIP3    H2 9495   6.610   5.192   3.714
 3180TIP3   OH2 9496   3.128   5.552   6.070
 3180TIP3    H1 9497   3.073   5.504   6.007
 3180TIP3    H2 9498   3.112   5.644   6.049
 3181TIP3   OH2 9499   0.527   2.386   0.355
 3181TIP3    H1 9500   0.567   2.449   0.415
 3181TIP3    H2 9501   0.599   2.359   0.298
 3182TIP3   OH2 9502   1.267   4.862   4.453
 3182TIP3    H1 9503   1.249   4.769   4.467
 3182TIP3    H2 9504   1.196   4.892   4.397
 3183TIP3   OH2 9505   2.656   5.074   5.942
 3183TIP3    H1 9506   2.569   5.047   5.973
 3183TIP3    H2 9507   2.656   5.169   5.950
 3184TIP3   OH2 9508   0.393   1.968   1.187
 3184TIP3    H1 9509   0.381   1.909   1.113
 3184TIP3    H2 9510   0.439   1.915   1.252
 3185TIP3   OH2 9511   3.062   1.493   3.529
 3185TIP3    H1 9512   3.071   1.398   3.528
 3185TIP3    H2 9513   3.143   1.526   3.490
 3186TIP3   OH2 9514   0.869   3.435   4.270
 3186TIP3    H1 9515   0.885   3.430   4.176
 3186TIP3    H2 9516   0.954   3.416   4.310
 3187TIP3   OH2 9517   4.158   6.872   6.080
 3187TIP3    H1 9518   4.103   6.949   6.069
 3187TIP3    H2 9519   4.243   6.907   6.109
 3188TIP3   OH2 9520   0.486   4.984   4.876
 3188TIP3    H1 9521   0.439   5.054   4.831
 3188TIP3    H2 9522   0.568   5.024   4.904
 3189TIP3   OH2 9523   7.488   7.635   0.338
 3189TIP3    H1 9524   7.471   7.604   0.427
 3189TIP3    H2 9525   7.573   7.678   0.343
 3190TIP3   OH2 9526   0.165   6.814   4.886
 3190TIP3    H1 9527   0.186   6.908   4.888
 3190TIP3    H2 9528   0.118   6.798   4.968
 3191TIP3   OH2 9529   5.105   5.091   4.450
 3191TIP3    H1 9530   5.012   5.075   4.435
 3191TIP3    H2 9531   5.125   5.167   4.396
 3192TIP3   OH2 9532   4.853   0.051   3.675
 3192TIP3    H1 9533   4.821   0.100   3.599
 3192TIP3    H2 9534   4.904  -0.020   3.638
 3193TIP3   OH2 9535   6.693   2.900   0.947
 3193TIP3    H1 9536   6.677   2.816   0.906
 3193TIP3    H2 9537   6.775   2.931   0.907
 3194TIP3   OH2 9538   4.418   6.223   2.778
 3194TIP3    H1 9539   4.458   6.289   2.722
 3194TIP3    H2 9540   4.429   6.141   2.730
 3195TIP3   OH2 9541   7.514   7.429   2.861
 3195TIP3    H1 9542   7.600   7.442   2.820
 3195TIP3    H2 9543   7.524   7.467   2.948
 3196TIP3   OH2 9544   0.942   3.460   1.950
 3196TIP3    H1 9545   0.871   3.426   2.005
 3196TIP3    H2 9546   1.013   3.478   2.012
 3197TIP3   OH2 9547   0.439   2.760   2.509
 3197TIP3    H1 9548   0.501   2.825   2.477
 3197TIP3    H2 9549   0.463   2.679   2.464
 3198TIP3   OH2 9550   3.952   4.827   1.105
 3198TIP3    H1 9551   3.902   4.746   1.109
 3198TIP3    H2 9552   4.040   4.803   1.136
 3199TIP3   OH2 9553   0.321   5.402   2.970
 3199TIP3    H1 9554   0.304   5.318   3.012
 3199TIP3    H2 9555   0.250   5.412   2.906
 3200TIP3   OH2 9556   6.461   2.806   1.636
 3200TIP3    H1 9557   6.407   2.782   1.711
 3200TIP3    H2 9558   6.437   2.896   1.617
 3201TIP3   OH2 9559   3.100   4.968   3.720
 3201TIP3    H1 9560   3.134   4.989   3.807
 3201TIP3    H2 9561   3.006   4.957   3.733
 3202TIP3   OH2 9562   3.397   7.171   4.419
 3202TIP3    H1 9563   3.425   7.261   4.437
 3202TIP3    H2 9564   3.466   7.116   4.455
 3203TIP3   OH2 9565   6.988   7.038   5.851
 3203TIP3    H1 9566   7.026   6.971   5.794
 3203TIP3    H2 9567   6.939   6.989   5.917
 3204TIP3   OH2 9568   7.133   0.154   0.178
 3204TIP3    H1 9569   7.221   0.186   0.158
 3204TIP3    H2 9570   7.146   0.068   0.216
 3205TIP3   OH2 9571   4.725   0.812   3.565
 3205TIP3    H1 9572   4.657   0.787   3.503
 3205TIP3    H2 9573   4.793   0.852   3.510
 3206TIP3   OH2 9574   0.384   2.250   2.755
 3206TIP3    H1 9575   0.437   2.258   2.835
 3206TIP3    H2 9576   0.383   2.156   2.737
 3207TIP3   OH2 9577   6.239   3.010   1.541
 3207TIP3    H1 9578   6.306   3.043   1.481
 3207TIP3    H2 9579   6.213   2.926   1.503
 3208TIP3   OH2 9580   2.658   4.767   1.858
 3208TIP3    H1 9581   2.599   4.700   1.891
 3208TIP3    H2 9582   2.601   4.842   1.839
 3209TIP3   OH2 9583   6.968   2.606   2.039
 3209TIP3    H1 9584   6.939   2.634   2.126
 3209TIP3    H2 9585   7.008   2.520   2.054
 3210TIP3   OH2 9586   7.422   5.267   2.950
 3210TIP3    H1 9587   7.480   5.273   2.874
 3210TIP3    H2 9588   7.472   5.221   3.016
 3211TIP3   OH2 9589   4.526   1.887   2.949
 3211TIP3    H1 9590   4.496   1.953   3.011
 3211TIP3    H2 9591   4.475   1.808   2.971
 3212TIP3   OH2 9592   2.909   3.488   0.064
 3212TIP3    H1 9593   2.993   3.490   0.110
 3212TIP3    H2 9594   2.855   3.428   0.115
 3213TIP3   OH2 9595   2.745   6.219   1.910
 3213TIP3    H1 9596   2.657   6.257   1.915
 3213TIP3    H2 9597   2.751   6.162   1.986
 3214TIP3   OH2 9598   4.065   6.203   0.736
 3214TIP3    H1 9599   4.071   6.146   0.812
 3214TIP3    H2 9600   4.026   6.283   0.769
 3215TIP3   OH2 9601   3.486   3.872   5.674
 3215TIP3    H1 9602   3.477   3.781   5.646
 3215TIP3    H2 9603   3.554   3.870   5.741
 3216TIP3   OH2 9604   2.979   7.665   0.327
 3216TIP3    H1 9605   2.990   7.725   0.400
 3216TIP3    H2 9606   2.924   7.713   0.265
 3217TIP3   OH2 9607   1.524   6.344   4.477
 3217TIP3    H1 9608   1.508   6.296   4.558
 3217TIP3    H2 9609   1.595   6.404   4.497
 3218TIP3   OH2 9610   6.592   5.490   3.980
 3218TIP3    H1 9611   6.559   5.404   4.007
 3218TIP3    H2 9612   6.571   5.495   3.887
 3219TIP3   OH2 9613   4.674   5.287   2.027
 3219TIP3    H1 9614   4.685   5.360   2.087
 3219TIP3    H2 9615   4.734   5.305   1.954
 3220TIP3   OH2 9616   2.168   7.301   0.217
 3220TIP3    H1 9617   2.249   7.346   0.240
 3220TIP3    H2 9618   2.150   7.328   0.127
 3221TIP3   OH2 9619   2.667   2.543   3.357
 3221TIP3    H1 9620   2.751   2.497   3.368
 3221TIP3    H2 9621   2.681   2.628   3.399
 3222TIP3   OH2 9622   2.982   5.791   3.815
 3222TIP3    H1 9623   2.891   5.766   3.832
 3222TIP3    H2 9624   2.988   5.797   3.719
 3223TIP3   OH2 9625   3.989   5.360   1.349
 3223TIP3    H1 9626   3.915   5.359   1.409
 3223TIP3    H2 9627   4.038   5.280   1.371
 3224TIP3   OH2 9628   2.423   3.597   6.581
 3224TIP3    H1 9629   2.338   3.577   6.543
 3224TIP3    H2 9630   2.434   3.532   6.651
 3225TIP3   OH2 9631   1.172   0.560   1.014
 3225TIP3    H1 9632   1.200   0.515   0.935
 3225TIP3    H2 9633   1.089   0.602   0.990
 3226TIP3   OH2 9634   2.204   6.599   1.748
 3226TIP3    H1 9635   2.265   6.532   1.778
 3226TIP3    H2 9636   2.169   6.566   1.665
 3227TIP3   OH2 9637   8.025   5.258   6.836
 3227TIP3    H1 9638   8.083   5.184   6.851
 3227TIP3    H2 9639   8.018   5.265   6.741
 3228TIP3   OH2 9640   5.614   2.951   5.817
 3228TIP3    H1 9641   5.652   2.878   5.866
 3228TIP3    H2 9642   5.571   2.909   5.742
 3229TIP3   OH2 9643   1.318   7.463   2.103
 3229TIP3    H1 9644   1.400   7.496   2.067
 3229TIP3    H2 9645   1.250   7.518   2.065
 3230TIP3   OH2 9646   3.140   2.974   5.826
 3230TIP3    H1 9647   3.153   2.919   5.749
 3230TIP3    H2 9648   3.060   2.939   5.867
 3231TIP3   OH2 9649   5.952   1.161   0.898
 3231TIP3    H1 9650   5.875   1.135   0.949
 3231TIP3    H2 9651   5.917   1.186   0.813
 3232TIP3   OH2 9652   4.600   1.650   1.829
 3232TIP3    H1 9653   4.650   1.612   1.902
 3232TIP3    H2 9654   4.667   1.686   1.771
 3233TIP3   OH2 9655   0.176   2.586   2.482
 3233TIP3    H1 9656   0.137   2.661   2.527
 3233TIP3    H2 9657   0.191   2.617   2.393
 3234TIP3   OH2 9658   0.559   0.370   4.697
 3234TIP3    H1 9659   0.607   0.452   4.714
 3234TIP3    H2 9660   0.575   0.352   4.605
 3235TIP3   OH2 9661   4.189   1.624   5.040
 3235TIP3    H1 9662   4.156   1.562   4.975
 3235TIP3    H2 9663   4.196   1.572   5.121
 3236TIP3   OH2 9664   3.952   1.461   6.634
 3236TIP3    H1 9665   3.886   1.516   6.591
 3236TIP3    H2 9666   4.018   1.523   6.666
 3237TIP3   OH2 9667   2.957  -0.013   0.496
 3237TIP3    H1 9668   2.916   0.046   0.434
 3237TIP3    H2 9669   2.888  -0.034   0.559
 3238TIP3   OH2 9670   5.364   5.775   4.870
 3238TIP3    H1 9671   5.387   5.856   4.824
 3238TIP3    H2 9672   5.367   5.799   4.963
 3239TIP3   OH2 9673   6.957   2.337   5.335
 3239TIP3    H1 9674   6.966   2.281   5.412
 3239TIP3    H2 9675   7.043   2.335   5.293
 3240TIP3   OH2 9676   7.163   5.287   2.930
 3240TIP3    H1 9677   7.258   5.289   2.944
 3240TIP3    H2 9678   7.146   5.200   2.896
 3241TIP3   OH2 9679   5.714   3.414   2.086
 3241TIP3    H1 9680   5.739   3.385   1.998
 3241TIP3    H2 9681   5.767   3.492   2.101
 3242TIP3   OH2 9682   1.852   2.578   4.537
 3242TIP3    H1 9683   1.793   2.517   4.493
 3242TIP3    H2 9684   1.798   2.618   4.606
 3243TIP3   OH2 9685   0.760   7.553   1.243
 3243TIP3    H1 9686   0.772   7.637   1.288
 3243TIP3    H2 9687   0.818   7.493   1.289
 3244TIP3   OH2 9688   2.379   6.522   3.241
 3244TIP3    H1 9689   2.453   6.527   3.301
 3244TIP3    H2 9690   2.316   6.585   3.276
 3245TIP3   OH2 9691   3.695   0.969   5.255
 3245TIP3    H1 9692   3.788   0.989   5.242
 3245TIP3    H2 9693   3.663   1.039   5.312
 3246TIP3   OH2 9694   0.288   7.173   0.303
 3246TIP3    H1 9695   0.243   7.255   0.325
 3246TIP3    H2 9696   0.242   7.107   0.356
 3247TIP3   OH2 9697   6.266   0.589   0.136
 3247TIP3    H1 9698   6.293   0.519   0.077
 3247TIP3    H2 9699   6.191   0.553   0.184
 3248TIP3   OH2 9700   6.054   3.505   4.309
 3248TIP3    H1 9701   5.964   3.528   4.332
 3248TIP3    H2 9702   6.047   3.420   4.265
 3249TIP3   OH2 9703   2.386   7.171   4.991
 3249TIP3    H1 9704   2.301   7.129   4.998
 3249TIP3    H2 9705   2.375   7.255   5.035
 3250TIP3   OH2 9706   2.906   7.373   0.153
 3250TIP3    H1 9707   2.993   7.379   0.193
 3250TIP3    H2 9708   2.889   7.279   0.146
 3251TIP3   OH2 9709   7.417   4.295   2.854
 3251TIP3    H1 9710   7.390   4.243   2.929
 3251TIP3    H2 9711   7.463   4.370   2.892
 3252TIP3   OH2 9712   4.105   7.804   2.617
 3252TIP3    H1 9713   4.015   7.820   2.589
 3252TIP3    H2 9714   4.143   7.750   2.548
 3253TIP3   OH2 9715   3.422   4.198   3.112
 3253TIP3    H1 9716   3.473   4.194   3.031
 3253TIP3    H2 9717   3.351   4.135   3.099
 3254TIP3   OH2 9718   7.637   1.241   5.843
 3254TIP3    H1 9719   7.556   1.194   5.822
 3254TIP3    H2 9720   7.707   1.182   5.815
 3255TIP3   OH2 9721   6.733   1.583   3.536
 3255TIP3    H1 9722   6.666   1.557   3.599
 3255TIP3    H2 9723   6.791   1.641   3.585
 3256TIP3   OH2 9724   0.413   0.712   2.597
 3256TIP3    H1 9725   0.433   0.774   2.667
 3256TIP3    H2 9726   0.333   0.668   2.625
 3257TIP3   OH2 9727   8.311   4.438   3.282
 3257TIP3    H1 9728   8.338   4.528   3.269
 3257TIP3    H2 9729   8.266   4.438   3.366
 3258TIP3   OH2 9730   4.113   7.516   1.913
 3258TIP3    H1 9731   4.136   7.608   1.904
 3258TIP3    H2 9732   4.186   7.469   1.872
 3259TIP3   OH2 9733   4.353   4.155   3.245
 3259TIP3    H1 9734   4.425   4.214   3.225
 3259TIP3    H2 9735   4.367   4.128   3.336
 3260TIP3   OH2 9736   3.919   3.787   0.513
 3260TIP3    H1 9737   3.934   3.881   0.526
 3260TIP3    H2 9738   4.005   3.754   0.486
 3261TIP3   OH2 9739   0.808   1.733   2.738
 3261TIP3    H1 9740   0.722   1.699   2.763
 3261TIP3    H2 9741   0.856   1.656   2.708
 3262TIP3   OH2 9742   2.591   0.162   1.718
 3262TIP3    H1 9743   2.668   0.153   1.774
 3262TIP3    H2 9744   2.522   0.112   1.763
 3263TIP3   OH2 9745   6.473   5.476   2.201
 3263TIP3    H1 9746   6.473   5.507   2.111
 3263TIP3    H2 9747   6.460   5.381   2.194
 3264TIP3   OH2 9748   3.104   6.971   6.520
 3264TIP3    H1 9749   3.177   6.910   6.534
 3264TIP3    H2 9750   3.146   7.053   6.494
 3265TIP3   OH2 9751   8.209   3.232   4.247
 3265TIP3    H1 9752   8.245   3.312   4.284
 3265TIP3    H2 9753   8.244   3.162   4.301
 3266TIP3   OH2 9754   1.471   0.875   3.687
 3266TIP3    H1 9755   1.390   0.916   3.719
 3266TIP3    H2 9756   1.461   0.782   3.708
 3267TIP3   OH2 9757   0.344   3.108   2.291
 3267TIP3    H1 9758   0.401   3.182   2.276
 3267TIP3    H2 9759   0.297   3.095   2.208
 3268TIP3   OH2 9760   4.352   3.709   0.361
 3268TIP3    H1 9761   4.348   3.681   0.270
 3268TIP3    H2 9762   4.372   3.803   0.357
 3269TIP3   OH2 9763   5.069   5.885   0.851
 3269TIP3    H1 9764   5.064   5.892   0.947
 3269TIP3    H2 9765   4.987   5.923   0.820
 3270TIP3   OH2 9766   2.150   1.295   0.863
 3270TIP3    H1 9767   2.194   1.261   0.785
 3270TIP3    H2 9768   2.149   1.222   0.924
 3271TIP3   OH2 9769   0.033   1.944   2.913
 3271TIP3    H1 9770   0.031   1.949   2.817
 3271TIP3    H2 9771   0.061   2.032   2.941
 3272TIP3   OH2 9772   0.765   5.905   5.634
 3272TIP3    H1 9773   0.799   5.870   5.717
 3272TIP3    H2 9774   0.843   5.917   5.579
 3273TIP3   OH2 9775   8.199   1.604   4.726
 3273TIP3    H1 9776   8.250   1.655   4.663
 3273TIP3    H2 9777   8.236   1.516   4.722
 3274TIP3   OH2 9778   0.921   5.631   0.683
 3274TIP3    H1 9779   1.004   5.590   0.662
 3274TIP3    H2 9780   0.877   5.569   0.741
 3275TIP3   OH2 9781   3.505   1.509   1.830
 3275TIP3    H1 9782   3.558   1.550   1.762
 3275TIP3    H2 9783   3.557   1.435   1.860
 3276TIP3   OH2 9784   0.244   6.748   6.310
 3276TIP3    H1 9785   0.251   6.725   6.217
 3276TIP3    H2 9786   0.334   6.746   6.342
 3277TIP3   OH2 9787   1.449   1.061   2.400
 3277TIP3    H1 9788   1.391   1.081   2.326
 3277TIP3    H2 9789   1.530   1.107   2.380
 3278TIP3   OH2 9790   3.524   5.318   5.802
 3278TIP3    H1 9791   3.489   5.276   5.881
 3278TIP3    H2 9792   3.617   5.329   5.821
 3279TIP3   OH2 9793   5.737   0.629   6.095
 3279TIP3    H1 9794   5.707   0.638   6.186
 3279TIP3    H2 9795   5.786   0.710   6.078
 3280TIP3   OH2 9796   3.187   4.569   6.072
 3280TIP3    H1 9797   3.247   4.495   6.064
 3280TIP3    H2 9798   3.205   4.605   6.159
 3281TIP3   OH2 9799   4.260   7.221   0.159
 3281TIP3    H1 9800   4.320   7.258   0.223
 3281TIP3    H2 9801   4.302   7.236   0.075
 3282TIP3   OH2 9802   2.318   2.492   3.871
 3282TIP3    H1 9803   2.382   2.424   3.853
 3282TIP3    H2 9804   2.343   2.526   3.957
 3283TIP3   OH2 9805   7.399   0.213   4.489
 3283TIP3    H1 9806   7.333   0.280   4.509
 3283TIP3    H2 9807   7.469   0.229   4.553
 3284TIP3   OH2 9808   5.518   6.347   5.213
 3284TIP3    H1 9809   5.537   6.379   5.125
 3284TIP3    H2 9810   5.428   6.314   5.208
 3285TIP3   OH2 9811   0.908   5.136   1.416
 3285TIP3    H1 9812   0.815   5.153   1.427
 3285TIP3    H2 9813   0.952   5.218   1.440
 3286TIP3   OH2 9814   6.516   4.356   2.704
 3286TIP3    H1 9815   6.474   4.436   2.671
 3286TIP3    H2 9816   6.601   4.354   2.661
 3287TIP3   OH2 9817   5.952   0.755   2.468
 3287TIP3    H1 9818   6.035   0.708   2.463
 3287TIP3    H2 9819   5.973   0.835   2.516
 3288TIP3   OH2 9820   4.298   5.658   2.407
 3288TIP3    H1 9821   4.258   5.739   2.438
 3288TIP3    H2 9822   4.240   5.627   2.337
 3289TIP3   OH2 9823   7.825   7.556   0.487
 3289TIP3    H1 9824   7.737   7.519   0.474
 3289TIP3    H2 9825   7.881   7.504   0.429
 3290TIP3   OH2 9826   7.092   0.925   1.499
 3290TIP3    H1 9827   7.014   0.956   1.545
 3290TIP3    H2 9828   7.067   0.923   1.407
 3291TIP3   OH2 9829   8.235   3.061   1.747
 3291TIP3    H1 9830   8.328   3.063   1.770
 3291TIP3    H2 9831   8.200   2.987   1.796
 3292TIP3   OH2 9832   0.820   6.076   3.628
 3292TIP3    H1 9833   0.765   6.019   3.574
 3292TIP3    H2 9834   0.803   6.164   3.594
 3293TIP3   OH2 9835   2.669   2.389   2.831
 3293TIP3    H1 9836   2.614   2.456   2.790
 3293TIP3    H2 9837   2.718   2.351   2.758
 3294TIP3   OH2 9838   2.962   6.313   5.689
 3294TIP3    H1 9839   2.930   6.382   5.747
 3294TIP3    H2 9840   3.053   6.337   5.672
 3295TIP3   OH2 9841   5.760   3.196   5.522
 3295TIP3    H1 9842   5.797   3.259   5.460
 3295TIP3    H2 9843   5.707   3.249   5.582
 3296TIP3   OH2 9844   7.545   0.354   6.731
 3296TIP3    H1 9845   7.601   0.373   6.656
 3296TIP3    H2 9846   7.603   0.360   6.807
 3297TIP3   OH2 9847   5.056   6.127   1.847
 3297TIP3    H1 9848   5.119   6.189   1.810
 3297TIP3    H2 9849   4.971   6.166   1.830
 3298TIP3   OH2 9850   4.662   6.164   1.324
 3298TIP3    H1 9851   4.573   6.193   1.305
 3298TIP3    H2 9852   4.652   6.075   1.357
 3299TIP3   OH2 9853   2.555   7.058   3.750
 3299TIP3    H1 9854   2.590   7.019   3.830
 3299TIP3    H2 9855   2.531   7.147   3.775
 3300TIP3   OH2 9856   2.191   5.924   2.972
 3300TIP3    H1 9857   2.142   5.842   2.977
 3300TIP3    H2 9858   2.216   5.943   3.062
 3301TIP3   OH2 9859   7.863   2.137   4.416
 3301TIP3    H1 9860   7.817   2.053   4.413
 3301TIP3    H2 9861   7.796   2.200   4.444
 3302TIP3   OH2 9862   2.077   3.930   5.598
 3302TIP3    H1 9863   2.088   3.858   5.536
 3302TIP3    H2 9864   1.985   3.957   5.587
 3303TIP3   OH2 9865   6.873   6.713   2.124
 3303TIP3    H1 9866   6.854   6.807   2.120
 3303TIP3    H2 9867   6.789   6.671   2.105
 3304TIP3   OH2 9868   4.568   6.245   1.757
 3304TIP3    H1 9869   4.569   6.238   1.852
 3304TIP3    H2 9870   4.493   6.192   1.730
 3305TIP3   OH2 9871   6.607   6.405   3.864
 3305TIP3    H1 9872   6.547   6.392   3.938
 3305TIP3    H2 9873   6.565   6.359   3.792
 3306TIP3   OH2 9874   1.387   0.720   6.164
 3306TIP3    H1 9875   1.343   0.805   6.166
 3306TIP3    H2 9876   1.463   0.731   6.222
 3307TIP3   OH2 9877   1.284   2.916   0.202
 3307TIP3    H1 9878   1.362   2.968   0.223
 3307TIP3    H2 9879   1.220   2.980   0.171
 3308TIP3   OH2 9880   7.258   6.289   4.708
 3308TIP3    H1 9881   7.165   6.311   4.708
 3308TIP3    H2 9882   7.298   6.356   4.652
 3309TIP3   OH2 9883   2.712   1.212   4.420
 3309TIP3    H1 9884   2.776   1.272   4.458
 3309TIP3    H2 9885   2.628   1.237   4.458
 3310TIP3   OH2 9886   4.694   7.303   4.132
 3310TIP3    H1 9887   4.767   7.284   4.191
 3310TIP3    H2 9888   4.654   7.218   4.115
 3311TIP3   OH2 9889   8.153   3.406   4.938
 3311TIP3    H1 9890   8.187   3.341   4.877
 3311TIP3    H2 9891   8.079   3.363   4.981
 3312TIP3   OH2 9892   8.029   1.993   5.525
 3312TIP3    H1 9893   8.028   1.898   5.521
 3312TIP3    H2 9894   8.046   2.014   5.617
 3313TIP3   OH2 9895   4.118   0.570   2.708
 3313TIP3    H1 9896   4.076   0.527   2.782
 3313TIP3    H2 9897   4.081   0.658   2.706
 3314TIP3   OH2 9898   7.914   0.076   4.457
 3314TIP3    H1 9899   7.952   0.156   4.493
 3314TIP3    H2 9900   7.960   0.064   4.373
 3315TIP3   OH2 9901   6.356   7.076   2.038
 3315TIP3    H1 9902   6.442   7.053   2.001
 3315TIP3    H2 9903   6.329   7.154   1.990
 3316TIP3   OH2 9904   5.046   5.862   1.782
 3316TIP3    H1 9905   5.066   5.944   1.827
 3316TIP3    H2 9906   4.950   5.861   1.775
 3317TIP3   OH2 9907   5.287   0.716   1.687
 3317TIP3    H1 9908   5.281   0.811   1.676
 3317TIP3    H2 9909   5.243   0.680   1.610
 3318TIP3   OH2 9910   2.757   4.129   5.660
 3318TIP3    H1 9911   2.728   4.038   5.666
 3318TIP3    H2 9912   2.676   4.179   5.650
 3319TIP3   OH2 9913   2.558   3.594   0.676
 3319TIP3    H1 9914   2.573   3.664   0.739
 3319TIP3    H2 9915   2.637   3.594   0.621
 3320TIP3   OH2 9916   4.004   4.354   6.708
 3320TIP3    H1 9917   3.918   4.383   6.679
 3320TIP3    H2 9918   3.987   4.302   6.786
 3321TIP3   OH2 9919   2.186   0.751   6.131
 3321TIP3    H1 9920   2.173   0.656   6.128
 3321TIP3    H2 9921   2.109   0.787   6.088
 3322TIP3   OH2 9922   3.521   5.443   0.800
 3322TIP3    H1 9923   3.607   5.414   0.770
 3322TIP3    H2 9924   3.468   5.448   0.720
 3323TIP3   OH2 9925   7.927   5.638   6.420
 3323TIP3    H1 9926   7.838   5.668   6.434
 3323TIP3    H2 9927   7.932   5.617   6.327
 3324TIP3   OH2 9928   0.801   5.078   3.383
 3324TIP3    H1 9929   0.793   5.097   3.290
 3324TIP3    H2 9930   0.881   5.124   3.410
 3325TIP3   OH2 9931   1.497   3.961   4.616
 3325TIP3    H1 9932   1.477   4.025   4.685
 3325TIP3    H2 9933   1.588   3.978   4.593
 3326TIP3   OH2 9934   8.336   5.830   0.025
 3326TIP3    H1 9935   8.291   5.852  -0.056
 3326TIP3    H2 9936   8.266   5.817   0.089
 3327TIP3   OH2 9937   5.967   3.741   1.759
 3327TIP3    H1 9938   6.061   3.758   1.763
 3327TIP3    H2 9939   5.960   3.645   1.760
 3328TIP3   OH2 9940   0.918   7.594   5.460
 3328TIP3    H1 9941   0.857   7.664   5.434
 3328TIP3    H2 9942   0.891   7.571   5.549
 3329TIP3   OH2 9943   3.602   0.503   0.303
 3329TIP3    H1 9944   3.662   0.577   0.310
 3329TIP3    H2 9945   3.639   0.437   0.361
 3330TIP3   OH2 9946   4.630   2.610   6.205
 3330TIP3    H1 9947   4.684   2.578   6.278
 3330TIP3    H2 9948   4.617   2.534   6.149
 3331TIP3   OH2 9949   7.175   0.081   0.781
 3331TIP3    H1 9950   7.242   0.017   0.759
 3331TIP3    H2 9951   7.222   0.163   0.791
 3332TIP3   OH2 9952   6.048   7.813   4.351
 3332TIP3    H1 9953   6.026   7.764   4.272
 3332TIP3    H2 9954   5.976   7.794   4.411
 3333TIP3   OH2 9955   4.219   2.936   1.501
 3333TIP3    H1 9956   4.182   2.850   1.519
 3333TIP3    H2 9957   4.173   2.996   1.560
 3334TIP3   OH2 9958   2.157   0.589   2.596
 3334TIP3    H1 9959   2.251   0.577   2.602
 3334TIP3    H2 9960   2.125   0.512   2.549
 3335TIP3   OH2 9961   1.204   5.635   3.271
 3335TIP3    H1 9962   1.113   5.628   3.244
 3335TIP3    H2 9963   1.236   5.715   3.229
 3336TIP3   OH2 9964   2.838   3.493   5.306
 3336TIP3    H1 9965   2.824   3.429   5.375
 3336TIP3    H2 9966   2.860   3.574   5.353
 3337TIP3   OH2 9967   1.780   1.692   0.965
 3337TIP3    H1 9968   1.797   1.762   0.902
 3337TIP3    H2 9969   1.861   1.640   0.964
 3338TIP3   OH2 9970   6.092   6.688   1.757
 3338TIP3    H1 9971   6.018   6.747   1.763
 3338TIP3    H2 9972   6.134   6.692   1.843
 3339TIP3   OH2 9973   0.115   7.634   0.306
 3339TIP3    H1 9974   0.149   7.686   0.379
 3339TIP3    H2 9975   0.032   7.599   0.338
 3340TIP3   OH2 9976   1.433   6.589   3.636
 3340TIP3    H1 9977   1.367   6.657   3.623
 3340TIP3    H2 9978   1.386   6.507   3.623
 3341TIP3   OH2 9979   7.504   0.659   6.487
 3341TIP3    H1 9980   7.425   0.631   6.533
 3341TIP3    H2 9981   7.557   0.701   6.554
 3342TIP3   OH2 9982   8.008   3.160   1.564
 3342TIP3    H1 9983   8.065   3.192   1.634
 3342TIP3    H2 9984   7.928   3.131   1.609
 3343TIP3   OH2 9985   8.050   3.703   2.242
 3343TIP3    H1 9986   8.024   3.756   2.167
 3343TIP3    H2 9987   8.025   3.755   2.318
 3344TIP3   OH2 9988   3.571   4.375   3.444
 3344TIP3    H1 9989   3.539   4.460   3.476
 3344TIP3    H2 9990   3.492   4.322   3.432
 3345TIP3   OH2 9991   7.147   1.728   0.195
 3345TIP3    H1 9992   7.129   1.822   0.197
 3345TIP3    H2 9993   7.061   1.687   0.208
 3346TIP3   OH2 9994   5.194   5.098   3.258
 3346TIP3    H1 9995   5.193   5.055   3.172
 3346TIP3    H2 9996   5.113   5.149   3.259
 3347TIP3   OH2 9997   2.389   5.225   1.910
 3347TIP3    H1 9998   2.470   5.273   1.932
 3347TIP3    H2 9999   2.354   5.273   1.835
 3348TIP3   OH210000   2.592   4.505   5.283
 3348TIP3    H110001   2.619   4.529   5.372
 3348TIP3    H210002   2.667   4.459   5.246
 3349TIP3   OH210003   6.051   4.349   1.808
 3349TIP3    H110004   6.020   4.259   1.794
 3349TIP3    H210005   6.005   4.379   1.886
 3350TIP3   OH210006   7.653   4.149   4.254
 3350TIP3    H110007   7.714   4.222   4.251
 3350TIP3    H210008   7.709   4.071   4.260
 3351TIP3   OH210009   5.593   1.744   3.811
 3351TIP3    H110010   5.535   1.720   3.884
 3351TIP3    H210011   5.533   1.767   3.740
 3352TIP3   OH210012   7.067   2.511   4.466
 3352TIP3    H110013   6.999   2.521   4.400
 3352TIP3    H210014   7.128   2.584   4.450
 3353TIP3   OH210015   2.484   0.800   2.533
 3353TIP3    H110016   2.397   0.838   2.517
 3353TIP3    H210017   2.493   0.800   2.628
 3354TIP3   OH210018   4.481   7.454   3.451
 3354TIP3    H110019   4.406   7.510   3.468
 3354TIP3    H210020   4.445   7.365   3.448
 3355TIP3   OH210021   0.226   7.289   2.695
 3355TIP3    H110022   0.178   7.372   2.696
 3355TIP3    H210023   0.308   7.309   2.740
 3356TIP3   OH210024   7.804   1.253   2.410
 3356TIP3    H110025   7.869   1.185   2.392
 3356TIP3    H210026   7.720   1.209   2.401
 3357TIP3   OH210027   6.661   0.689   3.003
 3357TIP3    H110028   6.626   0.773   2.973
 3357TIP3    H210029   6.653   0.631   2.927
 3358TIP3   OH210030   5.913   1.253   1.279
 3358TIP3    H110031   5.975   1.180   1.285
 3358TIP3    H210032   5.960   1.319   1.226
 3359TIP3   OH210033   0.804   5.554   4.805
 3359TIP3    H110034   0.780   5.636   4.849
 3359TIP3    H210035   0.740   5.547   4.734
 3360TIP3   OH210036   6.913   0.965   6.287
 3360TIP3    H110037   6.821   0.989   6.272
 3360TIP3    H210038   6.910   0.900   6.357
 3361TIP3   OH210039   1.823   0.958   2.299
 3361TIP3    H110040   1.812   0.988   2.389
 3361TIP3    H210041   1.738   0.972   2.258
 3362TIP3   OH210042   2.262   2.663   0.741
 3362TIP3    H110043   2.284   2.682   0.832
 3362TIP3    H210044   2.326   2.598   0.714
 3363TIP3   OH210045   7.886   1.234   1.412
 3363TIP3    H110046   7.929   1.230   1.497
 3363TIP3    H210047   7.802   1.277   1.429
 3364TIP3   OH210048   7.368   2.029   1.404
 3364TIP3    H110049   7.353   1.947   1.357
 3364TIP3    H210050   7.429   2.078   1.348
 3365TIP3   OH210051   2.153   2.570   5.161
 3365TIP3    H110052   2.099   2.639   5.120
 3365TIP3    H210053   2.240   2.609   5.166
 3366TIP3   OH210054   5.581   7.177   2.642
 3366TIP3    H110055   5.519   7.187   2.714
 3366TIP3    H210056   5.534   7.124   2.578
 3367TIP3   OH210057   6.529   7.350   6.406
 3367TIP3    H110058   6.451   7.331   6.458
 3367TIP3    H210059   6.591   7.387   6.469
 3368TIP3   OH210060   2.900   4.061   0.050
 3368TIP3    H110061   2.847   3.981   0.051
 3368TIP3    H210062   2.961   4.051   0.123
 3369TIP3   OH210063   7.026   7.708   6.263
 3369TIP3    H110064   7.038   7.714   6.169
 3369TIP3    H210065   7.096   7.649   6.292
 3370TIP3   OH210066   6.028   2.676   0.392
 3370TIP3    H110067   5.998   2.606   0.334
 3370TIP3    H210068   6.099   2.637   0.442
 3371TIP3   OH210069   5.974   2.201   6.681
 3371TIP3    H110070   6.045   2.185   6.743
 3371TIP3    H210071   6.015   2.197   6.595
 3372TIP3   OH210072   1.451   2.116   0.874
 3372TIP3    H110073   1.391   2.044   0.854
 3372TIP3    H210074   1.512   2.117   0.800
 3373TIP3   OH210075   4.485   5.948   5.943
 3373TIP3    H110076   4.493   5.983   5.854
 3373TIP3    H210077   4.574   5.921   5.966
 3374TIP3   OH210078   4.067   0.555   4.366
 3374TIP3    H110079   3.990   0.610   4.379
 3374TIP3    H210080   4.105   0.545   4.454
 3375TIP3   OH210081   5.338   6.043   3.418
 3375TIP3    H110082   5.285   6.121   3.407
 3375TIP3    H210083   5.306   5.982   3.352
 3376TIP3   OH210084   4.230   0.931   3.202
 3376TIP3    H110085   4.317   0.959   3.172
 3376TIP3    H210086   4.214   0.849   3.156
 3377TIP3   OH210087   5.781   4.047   1.321
 3377TIP3    H110088   5.794   4.012   1.409
 3377TIP3    H210089   5.864   4.032   1.277
 3378TIP3   OH210090   5.898   2.676   3.563
 3378TIP3    H110091   5.896   2.753   3.507
 3378TIP3    H210092   5.856   2.703   3.644
 3379TIP3   OH210093   6.608   4.153   0.274
 3379TIP3    H110094   6.684   4.095   0.281
 3379TIP3    H210095   6.638   4.225   0.217
 3380TIP3   OH210096   1.663   3.467   6.453
 3380TIP3    H110097   1.757   3.458   6.438
 3380TIP3    H210098   1.626   3.382   6.427
 3381TIP3   OH210099   1.744   3.382   3.992
 3381TIP3    H110100   1.674   3.349   3.936
 3381TIP3    H210101   1.703   3.453   4.042
 3382TIP3   OH210102   3.611   4.891   1.447
 3382TIP3    H110103   3.550   4.857   1.381
 3382TIP3    H210104   3.588   4.984   1.454
 3383TIP3   OH210105   4.558   6.410   2.276
 3383TIP3    H110106   4.524   6.483   2.329
 3383TIP3    H210107   4.562   6.336   2.337
 3384TIP3   OH210108   4.189   5.545   3.309
 3384TIP3    H110109   4.198   5.630   3.351
 3384TIP3    H210110   4.247   5.487   3.358
 3385TIP3   OH210111   5.886   5.843   4.281
 3385TIP3    H110112   5.849   5.920   4.325
 3385TIP3    H210113   5.980   5.851   4.292
 3386TIP3   OH210114   4.195   7.583   5.873
 3386TIP3    H110115   4.272   7.629   5.905
 3386TIP3    H210116   4.145   7.650   5.826
 3387TIP3   OH210117   6.133   4.086   3.986
 3387TIP3    H110118   6.111   4.179   3.987
 3387TIP3    H210119   6.146   4.066   3.893
 3388TIP3   OH210120   2.746   1.915   1.264
 3388TIP3    H110121   2.771   1.831   1.302
 3388TIP3    H210122   2.767   1.906   1.171
 3389TIP3   OH210123   4.620   6.487   0.284
 3389TIP3    H110124   4.538   6.437   0.278
 3389TIP3    H210125   4.688   6.424   0.259
 3390TIP3   OH210126   1.349   0.111   1.887
 3390TIP3    H110127   1.307   0.117   1.801
 3390TIP3    H210128   1.354   0.202   1.918
 3391TIP3   OH210129   4.558   6.536   3.810
 3391TIP3    H110130   4.512   6.543   3.726
 3391TIP3    H210131   4.555   6.443   3.831
 3392TIP3   OH210132   3.522   1.563   2.109
 3392TIP3    H110133   3.495   1.558   2.018
 3392TIP3    H210134   3.605   1.610   2.108
 3393TIP3   OH210135   1.360   6.086   6.306
 3393TIP3    H110136   1.320   6.160   6.261
 3393TIP3    H210137   1.300   6.013   6.290
 3394TIP3   OH210138   6.955   1.575   1.788
 3394TIP3    H110139   7.040   1.611   1.762
 3394TIP3    H210140   6.912   1.647   1.834
 3395TIP3   OH210141   2.140   4.940   3.530
 3395TIP3    H110142   2.134   5.027   3.569
 3395TIP3    H210143   2.111   4.952   3.440
 3396TIP3   OH210144   5.886   3.593   2.180
 3396TIP3    H110145   5.898   3.621   2.271
 3396TIP3    H210146   5.968   3.619   2.137
 3397TIP3   OH210147   7.881   2.116   6.267
 3397TIP3    H110148   7.830   2.080   6.340
 3397TIP3    H210149   7.928   2.040   6.232
 3398TIP3   OH210150   5.213   3.794   4.547
 3398TIP3    H110151   5.265   3.832   4.617
 3398TIP3    H210152   5.124   3.787   4.584
 3399TIP3   OH210153   4.508   4.523   1.350
 3399TIP3    H110154   4.434   4.478   1.308
 3399TIP3    H210155   4.508   4.610   1.311
 3400TIP3   OH210156   3.821   2.367   0.989
 3400TIP3    H110157   3.726   2.379   0.981
 3400TIP3    H210158   3.858   2.452   0.968
 3401TIP3   OH210159   2.681   6.028   3.565
 3401TIP3    H110160   2.622   6.094   3.530
 3401TIP3    H210161   2.749   6.077   3.611
 3402TIP3   OH210162   6.896   4.777   4.480
 3402TIP3    H110163   6.968   4.730   4.523
 3402TIP3    H210164   6.933   4.807   4.397
 3403TIP3   OH210165   6.242   5.888   3.458
 3403TIP3    H110166   6.284   5.818   3.508
 3403TIP3    H210167   6.154   5.854   3.440
 3404TIP3   OH210168   1.467   0.473   5.045
 3404TIP3    H110169   1.543   0.485   5.101
 3404TIP3    H210170   1.463   0.379   5.030
 3405TIP3   OH210171   5.208   5.423   4.347
 3405TIP3    H110172   5.285   5.390   4.393
 3405TIP3    H210173   5.150   5.454   4.417
 3406TIP3   OH210174   5.201   4.744   0.674
 3406TIP3    H110175   5.295   4.736   0.690
 3406TIP3    H210176   5.164   4.768   0.759
 3407TIP3   OH210177   6.071   0.526   1.338
 3407TIP3    H110178   6.020   0.508   1.417
 3407TIP3    H210179   6.071   0.621   1.330
 3408TIP3   OH210180   5.751   6.742   0.724
 3408TIP3    H110181   5.826   6.684   0.709
 3408TIP3    H210182   5.735   6.736   0.818
 3409TIP3   OH210183   5.102   0.445   5.462
 3409TIP3    H110184   5.026   0.481   5.509
 3409TIP3    H210185   5.063   0.397   5.389
 3410TIP3   OH210186   7.086   5.228   1.457
 3410TIP3    H110187   7.000   5.202   1.491
 3410TIP3    H210188   7.069   5.257   1.367
 3411TIP3   OH210189   3.490   7.004   5.592
 3411TIP3    H110190   3.477   6.948   5.668
 3411TIP3    H210191   3.548   6.954   5.534
 3412TIP3   OH210192   6.147   7.006   1.677
 3412TIP3    H110193   6.232   6.966   1.660
 3412TIP3    H210194   6.157   7.097   1.649
 3413TIP3   OH210195   3.495   7.453   3.810
 3413TIP3    H110196   3.431   7.510   3.766
 3413TIP3    H210197   3.521   7.390   3.743
 3414TIP3   OH210198   0.287   0.482   5.528
 3414TIP3    H110199   0.203   0.454   5.491
 3414TIP3    H210200   0.288   0.446   5.616
 3415TIP3   OH210201   3.236   2.890   2.633
 3415TIP3    H110202   3.209   2.901   2.724
 3415TIP3    H210203   3.214   2.799   2.612
 3416TIP3   OH210204   0.905   6.474   2.358
 3416TIP3    H110205   0.821   6.500   2.320
 3416TIP3    H210206   0.908   6.379   2.347
 3417TIP3   OH210207   8.073   7.110   3.531
 3417TIP3    H110208   8.090   7.121   3.625
 3417TIP3    H210209   8.058   7.016   3.520
 3418TIP3   OH210210   5.514   7.393   0.103
 3418TIP3    H110211   5.570   7.318   0.083
 3418TIP3    H210212   5.527   7.409   0.196
 3419TIP3   OH210213   2.227   7.690   6.537
 3419TIP3    H110214   2.201   7.629   6.606
 3419TIP3    H210215   2.152   7.693   6.478
 3420TIP3   OH210216   2.697   2.248   3.303
 3420TIP3    H110217   2.738   2.212   3.224
 3420TIP3    H210218   2.603   2.239   3.287
 3421TIP3   OH210219   3.043   4.621   0.002
 3421TIP3    H110220   3.030   4.693   0.063
 3421TIP3    H210221   2.969   4.562   0.017
 3422TIP3   OH210222   7.518   7.367   2.175
 3422TIP3    H110223   7.515   7.456   2.140
 3422TIP3    H210224   7.429   7.350   2.204
 3423TIP3   OH210225   0.124   2.610   4.753
 3423TIP3    H110226   0.168   2.544   4.808
 3423TIP3    H210227   0.188   2.629   4.684
 3424TIP3   OH210228   4.067   3.127   5.712
 3424TIP3    H110229   3.972   3.115   5.714
 3424TIP3    H210230   4.095   3.091   5.628
 3425TIP3   OH210231   0.333   5.212   4.827
 3425TIP3    H110232   0.319   5.197   4.921
 3425TIP3    H210233   0.360   5.303   4.821
 3426TIP3   OH210234   2.298   0.637   1.951
 3426TIP3    H110235   2.224   0.691   1.920
 3426TIP3    H210236   2.271   0.608   2.038
 3427TIP3   OH210237   0.738   1.634   4.484
 3427TIP3    H110238   0.738   1.728   4.464
 3427TIP3    H210239   0.805   1.623   4.551
 3428TIP3   OH210240   6.114   4.374   5.232
 3428TIP3    H110241   6.171   4.303   5.259
 3428TIP3    H210242   6.155   4.408   5.152
 3429TIP3   OH210243   0.963   6.439   4.458
 3429TIP3    H110244   0.907   6.516   4.450
 3429TIP3    H210245   0.903   6.365   4.464
 3430TIP3   OH210246   2.779   0.352   0.720
 3430TIP3    H110247   2.861   0.307   0.700
 3430TIP3    H210248   2.757   0.399   0.639
 3431TIP3   OH210249   6.511   5.975   3.622
 3431TIP3    H110250   6.428   5.993   3.664
 3431TIP3    H210251   6.568   5.943   3.692
 3432TIP3   OH210252   7.486   3.191   0.056
 3432TIP3    H110253   7.550   3.261   0.048
 3432TIP3    H210254   7.406   3.235   0.085
 3433TIP3   OH210255   4.952   4.671   3.637
 3433TIP3    H110256   4.940   4.657   3.731
 3433TIP3    H210257   4.989   4.759   3.631
 3434TIP3   OH210258   3.975   5.271   0.950
 3434TIP3    H110259   3.908   5.205   0.931
 3434TIP3    H210260   3.982   5.321   0.869
 3435TIP3   OH210261   3.227   5.807   2.055
 3435TIP3    H110262   3.307   5.811   2.004
 3435TIP3    H210263   3.211   5.713   2.068
 3436TIP3   OH210264   7.804   5.520   0.323
 3436TIP3    H110265   7.753   5.597   0.297
 3436TIP3    H210266   7.849   5.546   0.403
 3437TIP3   OH210267   6.207   6.525   3.761
 3437TIP3    H110268   6.226   6.532   3.854
 3437TIP3    H210269   6.186   6.433   3.748
 3438TIP3   OH210270   3.763   5.497   5.879
 3438TIP3    H110271   3.681   5.536   5.909
 3438TIP3    H210272   3.774   5.420   5.935
 3439TIP3   OH210273   5.756   2.905   6.766
 3439TIP3    H110274   5.802   2.829   6.800
 3439TIP3    H210275   5.664   2.877   6.760
 3440TIP3   OH210276   4.444   7.683   0.595
 3440TIP3    H110277   4.523   7.652   0.551
 3440TIP3    H210278   4.388   7.714   0.523
 3441TIP3   OH210279   1.594   2.967   3.097
 3441TIP3    H110280   1.616   2.911   3.171
 3441TIP3    H210281   1.674   3.017   3.080
 3442TIP3   OH210282   8.187   1.510   2.051
 3442TIP3    H110283   8.264   1.545   2.096
 3442TIP3    H210284   8.211   1.421   2.025
 3443TIP3   OH210285   2.299   7.331   0.477
 3443TIP3    H110286   2.389   7.305   0.496
 3443TIP3    H210287   2.248   7.252   0.491
 3444TIP3   OH210288   3.432   5.630   0.237
 3444TIP3    H110289   3.444   5.725   0.229
 3444TIP3    H210290   3.344   5.619   0.273
 3445TIP3   OH210291   2.803   4.989   3.605
 3445TIP3    H110292   2.735   5.049   3.576
 3445TIP3    H210293   2.759   4.930   3.666
 3446TIP3   OH210294   1.454   6.196   6.535
 3446TIP3    H110295   1.415   6.146   6.463
 3446TIP3    H210296   1.453   6.287   6.504
 3447TIP3   OH210297   4.262   2.471   0.927
 3447TIP3    H110298   4.246   2.564   0.914
 3447TIP3    H210299   4.345   2.454   0.884
 3448TIP3   OH210300   4.287   7.231   1.305
 3448TIP3    H110301   4.245   7.272   1.230
 3448TIP3    H210302   4.380   7.248   1.294
 3449TIP3   OH210303   0.288   7.023   4.359
 3449TIP3    H110304   0.269   6.932   4.337
 3449TIP3    H210305   0.328   7.018   4.446
 3450TIP3   OH210306   7.813   7.412   2.827
 3450TIP3    H110307   7.903   7.409   2.858
 3450TIP3    H210308   7.769   7.474   2.886
 3451TIP3   OH210309   3.983   1.446   3.393
 3451TIP3    H110310   4.032   1.420   3.316
 3451TIP3    H210311   4.047   1.493   3.448
 3452TIP3   OH210312   7.400   4.924   1.246
 3452TIP3    H110313   7.378   4.842   1.291
 3452TIP3    H210314   7.422   4.897   1.157
 3453TIP3   OH210315   7.717   1.454   3.146
 3453TIP3    H110316   7.795   1.445   3.202
 3453TIP3    H210317   7.645   1.466   3.207
 3454TIP3   OH210318   1.215   3.732   3.902
 3454TIP3    H110319   1.292   3.776   3.866
 3454TIP3    H210320   1.152   3.731   3.830
 3455TIP3   OH210321   1.461   3.867   3.818
 3455TIP3    H110322   1.478   3.779   3.782
 3455TIP3    H210323   1.539   3.887   3.870
 3456TIP3   OH210324   2.993   6.505   2.540
 3456TIP3    H110325   3.035   6.573   2.488
 3456TIP3    H210326   3.037   6.424   2.515
 3457TIP3   OH210327   5.831   0.882   6.054
 3457TIP3    H110328   5.777   0.937   5.998
 3457TIP3    H210329   5.912   0.933   6.067
 3458TIP3   OH210330   0.954   2.387   1.138
 3458TIP3    H110331   0.858   2.388   1.128
 3458TIP3    H210332   0.986   2.341   1.061
 3459TIP3   OH210333   7.018   7.280   1.231
 3459TIP3    H110334   7.030   7.223   1.155
 3459TIP3    H210335   7.015   7.368   1.195
 3460TIP3   OH210336   0.727   7.034   5.332
 3460TIP3    H110337   0.700   7.087   5.257
 3460TIP3    H210338   0.746   6.948   5.295
 3461TIP3   OH210339   7.980   6.871   2.647
 3461TIP3    H110340   7.906   6.863   2.587
 3461TIP3    H210341   8.057   6.867   2.590
 3462TIP3   OH210342   2.426   4.788   3.488
 3462TIP3    H110343   2.409   4.794   3.394
 3462TIP3    H210344   2.424   4.695   3.507
 3463TIP3   OH210345   3.318   4.670   2.128
 3463TIP3    H110346   3.401   4.680   2.174
 3463TIP3    H210347   3.284   4.585   2.157
 3464TIP3   OH210348   2.034   2.206   1.240
 3464TIP3    H110349   2.071   2.118   1.236
 3464TIP3    H210350   2.015   2.229   1.149
 3465TIP3   OH210351   1.062   7.486   0.827
 3465TIP3    H110352   1.101   7.553   0.772
 3465TIP3    H210353   0.973   7.517   0.844
 3466TIP3   OH210354   3.220   5.509   5.167
 3466TIP3    H110355   3.268   5.592   5.161
 3466TIP3    H210356   3.283   5.448   5.205
 3467TIP3   OH210357   0.853   2.595   3.849
 3467TIP3    H110358   0.792   2.637   3.789
 3467TIP3    H210359   0.862   2.506   3.816
 3468TIP3   OH210360   5.623   5.640   5.608
 3468TIP3    H110361   5.543   5.616   5.561
 3468TIP3    H210362   5.683   5.568   5.590
 3469TIP3   OH210363   0.293   7.760   1.467
 3469TIP3    H110364   0.223   7.817   1.498
 3469TIP3    H210365   0.248   7.691   1.418
 3470TIP3   OH210366   6.073   5.735   0.747
 3470TIP3    H110367   6.018   5.807   0.779
 3470TIP3    H210368   6.155   5.743   0.796
 3471TIP3   OH210369   2.127   7.349   0.781
 3471TIP3    H110370   2.032   7.362   0.771
 3471TIP3    H210371   2.145   7.374   0.871
 3472TIP3   OH210372   4.316   3.957   6.059
 3472TIP3    H110373   4.224   3.966   6.034
 3472TIP3    H210374   4.360   4.027   6.012
 3473TIP3   OH210375   4.862   1.978   1.999
 3473TIP3    H110376   4.900   2.030   2.070
 3473TIP3    H210377   4.777   2.019   1.982
 3474TIP3   OH210378   4.697   3.941   5.539
 3474TIP3    H110379   4.782   3.978   5.561
 3474TIP3    H210380   4.716   3.872   5.475
 3475TIP3   OH210381   3.756   4.045   0.470
 3475TIP3    H110382   3.734   4.049   0.563
 3475TIP3    H210383   3.685   3.995   0.431
 3476TIP3   OH210384   0.902   7.246   6.015
 3476TIP3    H110385   0.854   7.261   5.934
 3476TIP3    H210386   0.847   7.186   6.065
 3477TIP3   OH210387   0.807   0.455   4.035
 3477TIP3    H110388   0.742   0.389   4.061
 3477TIP3    H210389   0.780   0.481   3.947
 3478TIP3   OH210390   0.098   0.528   5.795
 3478TIP3    H110391   0.070   0.443   5.831
 3478TIP3    H210392   0.034   0.546   5.726
 3479TIP3   OH210393   5.927   1.579   3.500
 3479TIP3    H110394   5.934   1.485   3.512
 3479TIP3    H210395   5.836   1.594   3.476
 3480TIP3   OH210396   2.662   2.726   4.663
 3480TIP3    H110397   2.605   2.786   4.711
 3480TIP3    H210398   2.733   2.780   4.630
 3481TIP3   OH210399   5.854   6.702   2.923
 3481TIP3    H110400   5.888   6.789   2.944
 3481TIP3    H210401   5.779   6.718   2.866
 3482TIP3   OH210402   5.789   1.492   3.776
 3482TIP3    H110403   5.714   1.497   3.836
 3482TIP3    H210404   5.840   1.570   3.795
 3483TIP3   OH210405   2.388   2.047   1.337
 3483TIP3    H110406   2.293   2.055   1.343
 3483TIP3    H210407   2.409   1.968   1.387
 3484TIP3   OH210408   1.609   5.517   4.620
 3484TIP3    H110409   1.679   5.581   4.603
 3484TIP3    H210410   1.597   5.472   4.537
 3485TIP3   OH210411   4.884   5.300   2.423
 3485TIP3    H110412   4.794   5.327   2.441
 3485TIP3    H210413   4.902   5.234   2.490
 3486TIP3   OH210414   2.409   2.915   4.058
 3486TIP3    H110415   2.420   2.855   4.132
 3486TIP3    H210416   2.366   2.992   4.096
 3487TIP3   OH210417   0.612   0.133   5.198
 3487TIP3    H110418   0.614   0.196   5.271
 3487TIP3    H210419   0.542   0.164   5.141
 3488TIP3   OH210420   5.801   0.615   4.136
 3488TIP3    H110421   5.724   0.567   4.169
 3488TIP3    H210422   5.875   0.559   4.159
 3489TIP3   OH210423   3.039   7.276   0.842
 3489TIP3    H110424   2.988   7.266   0.923
 3489TIP3    H210425   3.112   7.215   0.853
 3490TIP3   OH210426   2.818   1.323   1.287
 3490TIP3    H110427   2.762   1.273   1.227
 3490TIP3    H210428   2.884   1.260   1.315
 3491TIP3   OH210429   1.770   1.293   0.178
 3491TIP3    H110430   1.781   1.201   0.204
 3491TIP3    H210431   1.794   1.343   0.255
 3492TIP3   OH210432   5.446   2.863   0.980
 3492TIP3    H110433   5.477   2.848   0.891
 3492TIP3    H210434   5.406   2.950   0.978
 3493TIP3   OH210435   5.798   5.279   2.203
 3493TIP3    H110436   5.737   5.223   2.154
 3493TIP3    H210437   5.797   5.362   2.155
 3494TIP3   OH210438   1.290   6.359   3.618
 3494TIP3    H110439   1.213   6.416   3.617
 3494TIP3    H210440   1.317   6.353   3.526
 3495TIP3   OH210441   1.029   5.156   6.395
 3495TIP3    H110442   1.031   5.251   6.397
 3495TIP3    H210443   1.105   5.129   6.446
 3496TIP3   OH210444   0.695   0.903   6.400
 3496TIP3    H110445   0.701   0.833   6.335
 3496TIP3    H210446   0.619   0.881   6.453
 3497TIP3   OH210447   6.997   6.590   6.517
 3497TIP3    H110448   7.047   6.646   6.458
 3497TIP3    H210449   7.035   6.606   6.604
 3498TIP3   OH210450   3.966   1.593   5.420
 3498TIP3    H110451   4.050   1.593   5.376
 3498TIP3    H210452   3.903   1.618   5.352
 3499TIP3   OH210453   7.987   3.489   0.705
 3499TIP3    H110454   8.041   3.546   0.760
 3499TIP3    H210455   7.948   3.547   0.640
 3500TIP3   OH210456   2.389   5.502   3.543
 3500TIP3    H110457   2.430   5.440   3.603
 3500TIP3    H210458   2.303   5.465   3.524
 3501TIP3   OH210459   4.531   4.527   4.324
 3501TIP3    H110460   4.531   4.486   4.411
 3501TIP3    H210461   4.467   4.598   4.332
 3502TIP3   OH210462   6.933   5.968   1.523
 3502TIP3    H110463   6.873   5.964   1.597
 3502TIP3    H210464   6.894   6.033   1.464
 3503TIP3   OH210465   7.434   2.947   1.562
 3503TIP3    H110466   7.448   3.039   1.587
 3503TIP3    H210467   7.472   2.897   1.634
 3504TIP3   OH210468   1.591   6.285   4.215
 3504TIP3    H110469   1.665   6.345   4.205
 3504TIP3    H210470   1.572   6.287   4.309
 3505TIP3   OH210471   7.186   6.801   2.665
 3505TIP3    H110472   7.174   6.769   2.576
 3505TIP3    H210473   7.097   6.816   2.698
 3506TIP3   OH210474   2.434   5.014   1.000
 3506TIP3    H110475   2.387   5.040   0.921
 3506TIP3    H210476   2.379   4.948   1.041
 3507TIP3   OH210477   2.392   6.893   2.952
 3507TIP3    H110478   2.452   6.965   2.975
 3507TIP3    H210479   2.331   6.889   3.025
 3508TIP3   OH210480   5.293   1.122   6.208
 3508TIP3    H110481   5.341   1.045   6.176
 3508TIP3    H210482   5.317   1.128   6.300
 3509TIP3   OH210483   4.213   1.751   6.221
 3509TIP3    H110484   4.226   1.834   6.268
 3509TIP3    H210485   4.126   1.759   6.182
 3510TIP3   OH210486   5.803   5.854   5.035
 3510TIP3    H110487   5.728   5.820   4.986
 3510TIP3    H210488   5.765   5.915   5.098
 3511TIP3   OH210489   0.975   1.316   1.204
 3511TIP3    H110490   1.001   1.263   1.279
 3511TIP3    H210491   0.970   1.254   1.131
 3512TIP3   OH210492   7.808   7.431   6.440
 3512TIP3    H110493   7.842   7.377   6.511
 3512TIP3    H210494   7.880   7.433   6.376
 3513TIP3   OH210495   1.881   1.359   0.729
 3513TIP3    H110496   1.943   1.341   0.800
 3513TIP3    H210497   1.795   1.353   0.771
 3514TIP3   OH210498   6.045   1.840   3.496
 3514TIP3    H110499   6.051   1.745   3.496
 3514TIP3    H210500   5.976   1.860   3.561
 3515TIP3   OH210501   0.488   4.463   1.890
 3515TIP3    H110502   0.506   4.540   1.943
 3515TIP3    H210503   0.467   4.498   1.803
 3516TIP3   OH210504   1.599   5.865   5.048
 3516TIP3    H110505   1.580   5.809   5.124
 3516TIP3    H210506   1.655   5.812   4.992
 3517TIP3   OH210507   7.318   2.638   3.069
 3517TIP3    H110508   7.282   2.572   3.129
 3517TIP3    H210509   7.411   2.617   3.064
 3518TIP3   OH210510   5.535   2.729   6.248
 3518TIP3    H110511   5.546   2.820   6.220
 3518TIP3    H210512   5.510   2.735   6.340
 3519TIP3   OH210513   5.758   4.227   4.511
 3519TIP3    H110514   5.795   4.148   4.552
 3519TIP3    H210515   5.723   4.196   4.428
 3520TIP3   OH210516   7.786   5.904   5.794
 3520TIP3    H110517   7.844   5.863   5.731
 3520TIP3    H210518   7.705   5.853   5.790
 3521TIP3   OH210519   2.110   6.429   3.423
 3521TIP3    H110520   2.052   6.504   3.438
 3521TIP3    H210521   2.118   6.388   3.509
 3522TIP3   OH210522   0.812   3.960   1.224
 3522TIP3    H110523   0.840   3.870   1.210
 3522TIP3    H210524   0.716   3.955   1.230
 3523TIP3   OH210525   0.137   4.772   6.465
 3523TIP3    H110526   0.044   4.751   6.456
 3523TIP3    H210527   0.167   4.786   6.375
 3524TIP3   OH210528   5.393   3.587   0.694
 3524TIP3    H110529   5.402   3.493   0.714
 3524TIP3    H210530   5.332   3.590   0.620
 3525TIP3   OH210531   2.395   7.257   5.314
 3525TIP3    H110532   2.353   7.171   5.313
 3525TIP3    H210533   2.364   7.300   5.235
 3526TIP3   OH210534   7.231   3.501   3.484
 3526TIP3    H110535   7.144   3.489   3.444
 3526TIP3    H210536   7.227   3.453   3.566
 3527TIP3   OH210537   7.494   7.173   1.310
 3527TIP3    H110538   7.521   7.258   1.275
 3527TIP3    H210539   7.466   7.123   1.233
 3528TIP3   OH210540   1.680   4.267   0.762
 3528TIP3    H110541   1.674   4.229   0.850
 3528TIP3    H210542   1.600   4.239   0.718
 3529TIP3   OH210543   5.287   6.308   2.054
 3529TIP3    H110544   5.346   6.354   2.114
 3529TIP3    H210545   5.332   6.307   1.970
 3530TIP3   OH210546   1.463   1.980   1.843
 3530TIP3    H110547   1.439   2.028   1.764
 3530TIP3    H210548   1.383   1.937   1.871
 3531TIP3   OH210549   0.501   4.929   0.714
 3531TIP3    H110550   0.581   4.898   0.672
 3531TIP3    H210551   0.438   4.937   0.642
 3532TIP3   OH210552   7.194   6.922   2.287
 3532TIP3    H110553   7.236   6.998   2.327
 3532TIP3    H210554   7.112   6.912   2.335
 3533TIP3   OH210555   4.249   4.440   1.309
 3533TIP3    H110556   4.219   4.449   1.219
 3533TIP3    H210557   4.226   4.523   1.350
 3534TIP3   OH210558   4.751   6.199   0.499
 3534TIP3    H110559   4.767   6.177   0.591
 3534TIP3    H210560   4.705   6.122   0.465
 3535TIP3   OH210561   6.266   0.586   1.034
 3535TIP3    H110562   6.203   0.648   0.997
 3535TIP3    H210563   6.347   0.605   0.987
 3536TIP3   OH210564   5.238   4.670   4.837
 3536TIP3    H110565   5.190   4.675   4.919
 3536TIP3    H210566   5.315   4.725   4.851
 3537TIP3   OH210567   3.408   0.051   6.649
 3537TIP3    H110568   3.379   0.111   6.718
 3537TIP3    H210569   3.447  -0.023   6.696
 3538TIP3   OH210570   2.250   5.389   2.758
 3538TIP3    H110571   2.173   5.360   2.709
 3538TIP3    H210572   2.227   5.477   2.788
 3539TIP3   OH210573   2.286   4.290   0.357
 3539TIP3    H110574   2.208   4.309   0.409
 3539TIP3    H210575   2.359   4.315   0.414
 3540TIP3   OH210576   5.872   2.949   3.008
 3540TIP3    H110577   5.776   2.952   3.006
 3540TIP3    H210578   5.900   3.018   2.948
 3541TIP3   OH210579   8.104   0.638   6.660
 3541TIP3    H110580   8.139   0.623   6.572
 3541TIP3    H210581   8.153   0.577   6.715
 3542TIP3   OH210582   8.054   4.183   2.076
 3542TIP3    H110583   7.974   4.157   2.029
 3542TIP3    H210584   8.033   4.270   2.111
 3543TIP3   OH210585   1.682   5.719   0.357
 3543TIP3    H110586   1.764   5.713   0.308
 3543TIP3    H210587   1.614   5.698   0.293
 3544TIP3   OH210588   0.644   6.138   1.079
 3544TIP3    H110589   0.630   6.158   0.986
 3544TIP3    H210590   0.734   6.164   1.096
 3545TIP3   OH210591   0.622   2.689   2.008
 3545TIP3    H110592   0.686   2.653   1.946
 3545TIP3    H210593   0.538   2.683   1.963
 3546TIP3   OH210594   4.883   3.160   2.935
 3546TIP3    H110595   4.809   3.172   2.995
 3546TIP3    H210596   4.851   3.194   2.852
 3547TIP3   OH210597   6.679   4.673   0.771
 3547TIP3    H110598   6.688   4.762   0.807
 3547TIP3    H210599   6.757   4.627   0.801
 3548TIP3   OH210600   5.138   4.932   4.653
 3548TIP3    H110601   5.115   4.989   4.727
 3548TIP3    H210602   5.147   4.991   4.578
 3549TIP3   OH210603   6.315   0.885   0.834
 3549TIP3    H110604   6.307   0.896   0.739
 3549TIP3    H210605   6.349   0.969   0.865
 3550TIP3   OH210606   4.340   7.848   2.991
 3550TIP3    H110607   4.328   7.753   2.990
 3550TIP3    H210608   4.302   7.879   2.909
 3551TIP3   OH210609   7.833   0.471   3.651
 3551TIP3    H110610   7.819   0.378   3.632
 3551TIP3    H210611   7.755   0.515   3.616
 3552TIP3   OH210612   7.640   0.618   1.291
 3552TIP3    H110613   7.642   0.637   1.385
 3552TIP3    H210614   7.652   0.524   1.285
 3553TIP3   OH210615   1.456   3.222   3.174
 3553TIP3    H110616   1.525   3.289   3.173
 3553TIP3    H210617   1.491   3.152   3.119
 3554TIP3   OH210618   4.749   4.765   5.346
 3554TIP3    H110619   4.667   4.808   5.322
 3554TIP3    H210620   4.760   4.695   5.281
 3555TIP3   OH210621   0.141   3.979   1.979
 3555TIP3    H110622   0.128   3.912   1.913
 3555TIP3    H210623   0.058   3.984   2.027
 3556TIP3   OH210624   5.435   5.583   2.836
 3556TIP3    H110625   5.359   5.526   2.823
 3556TIP3    H210626   5.439   5.636   2.756
 3557TIP3   OH210627   3.362   6.190   6.453
 3557TIP3    H110628   3.294   6.166   6.517
 3557TIP3    H210629   3.432   6.127   6.470
 3558TIP3   OH210630   1.849   3.979   0.879
 3558TIP3    H110631   1.782   4.036   0.917
 3558TIP3    H210632   1.846   3.998   0.785
 3559TIP3   OH210633  -0.047   5.973   4.206
 3559TIP3    H110634  -0.097   5.987   4.125
 3559TIP3    H210635   0.043   5.957   4.176
 3560TIP3   OH210636   2.481   2.133   1.577
 3560TIP3    H110637   2.434   2.116   1.496
 3560TIP3    H210638   2.573   2.122   1.555
 3561TIP3   OH210639   5.356   1.056   0.550
 3561TIP3    H110640   5.357   1.005   0.469
 3561TIP3    H210641   5.367   1.147   0.521
 3562TIP3   OH210642   5.508   3.944   1.353
 3562TIP3    H110643   5.457   4.022   1.376
 3562TIP3    H210644   5.592   3.979   1.322
 3563TIP3   OH210645   3.284   0.160   2.405
 3563TIP3    H110646   3.313   0.250   2.392
 3563TIP3    H210647   3.207   0.166   2.460
 3564TIP3   OH210648   7.030   6.547   1.283
 3564TIP3    H110649   7.108   6.550   1.228
 3564TIP3    H210650   6.999   6.456   1.274
 3565TIP3   OH210651   3.634   1.908   3.994
 3565TIP3    H110652   3.623   1.995   4.033
 3565TIP3    H210653   3.628   1.848   4.068
 3566TIP3   OH210654   1.724   2.117   0.739
 3566TIP3    H110655   1.659   2.059   0.699
 3566TIP3    H210656   1.799   2.060   0.759
 3567TIP3   OH210657   1.444   7.457   6.247
 3567TIP3    H110658   1.526   7.407   6.247
 3567TIP3    H210659   1.432   7.484   6.156
 3568TIP3   OH210660   6.326   5.677   0.030
 3568TIP3    H110661   6.401   5.627   0.062
 3568TIP3    H210662   6.361   5.764   0.012
 3569TIP3   OH210663   1.783   5.479   3.262
 3569TIP3    H110664   1.706   5.509   3.311
 3569TIP3    H210665   1.785   5.385   3.277
 3570TIP3   OH210666   2.628   0.970   1.249
 3570TIP3    H110667   2.584   0.921   1.180
 3570TIP3    H210668   2.689   0.908   1.288
 3571TIP3   OH210669   3.702   6.701   6.477
 3571TIP3    H110670   3.628   6.744   6.434
 3571TIP3    H210671   3.745   6.651   6.407
 3572TIP3   OH210672   2.547   4.541   5.935
 3572TIP3    H110673   2.567   4.448   5.936
 3572TIP3    H210674   2.520   4.561   6.025
 3573TIP3   OH210675   1.648   4.595   1.866
 3573TIP3    H110676   1.673   4.687   1.867
 3573TIP3    H210677   1.557   4.594   1.896
 3574TIP3   OH210678   1.992   2.850   6.642
 3574TIP3    H110679   1.978   2.821   6.732
 3574TIP3    H210680   1.981   2.770   6.589
 3575TIP3   OH210681   4.602   4.835   3.436
 3575TIP3    H110682   4.669   4.879   3.384
 3575TIP3    H210683   4.602   4.745   3.404
 3576TIP3   OH210684   5.198   2.441   5.269
 3576TIP3    H110685   5.273   2.416   5.323
 3576TIP3    H210686   5.153   2.358   5.251
 3577TIP3   OH210687   3.684   3.383   0.496
 3577TIP3    H110688   3.685   3.290   0.519
 3577TIP3    H210689   3.741   3.424   0.561
 3578TIP3   OH210690   1.112   4.526   2.296
 3578TIP3    H110691   1.157   4.449   2.332
 3578TIP3    H210692   1.132   4.597   2.357
 3579TIP3   OH210693   3.998   2.149   2.686
 3579TIP3    H110694   4.054   2.227   2.692
 3579TIP3    H210695   4.017   2.114   2.598
 3580TIP3   OH210696   2.997   2.227   3.185
 3580TIP3    H110697   3.054   2.158   3.219
 3580TIP3    H210698   2.919   2.181   3.154
 3581TIP3   OH210699   3.017   0.334   2.182
 3581TIP3    H110700   2.974   0.360   2.263
 3581TIP3    H210701   3.071   0.409   2.157
 3582TIP3   OH210702   5.992   1.780   5.822
 3582TIP3    H110703   6.047   1.770   5.744
 3582TIP3    H210704   5.906   1.802   5.788
 3583TIP3   OH210705   7.622   4.892   1.077
 3583TIP3    H110706   7.691   4.943   1.121
 3583TIP3    H210707   7.637   4.802   1.106
 3584TIP3   OH210708   6.967   7.454   4.506
 3584TIP3    H110709   6.938   7.534   4.549
 3584TIP3    H210710   6.907   7.386   4.537
 3585TIP3   OH210711   0.072   7.400   3.191
 3585TIP3    H110712   0.008   7.428   3.125
 3585TIP3    H210713   0.035   7.430   3.274
 3586TIP3   OH210714   2.672   2.547   6.387
 3586TIP3    H110715   2.724   2.507   6.317
 3586TIP3    H210716   2.637   2.473   6.436
 3587TIP3   OH210717   4.973   5.591   2.790
 3587TIP3    H110718   5.024   5.525   2.743
 3587TIP3    H210719   5.037   5.635   2.846
 3588TIP3   OH210720   7.216   0.367   3.270
 3588TIP3    H110721   7.197   0.454   3.235
 3588TIP3    H210722   7.148   0.311   3.233
 3589TIP3   OH210723   2.441   2.874   3.178
 3589TIP3    H110724   2.424   2.958   3.221
 3589TIP3    H210725   2.510   2.834   3.230
 3590TIP3   OH210726   7.037   2.888   1.367
 3590TIP3    H110727   6.993   2.806   1.347
 3590TIP3    H210728   7.124   2.862   1.397
 3591TIP3   OH210729   6.592   5.753   6.199
 3591TIP3    H110730   6.652   5.741   6.273
 3591TIP3    H210731   6.634   5.820   6.145
 3592TIP3   OH210732   2.007   1.904   5.125
 3592TIP3    H110733   1.951   1.852   5.067
 3592TIP3    H210734   2.021   1.847   5.201
 3593TIP3   OH210735   1.033   5.861   4.716
 3593TIP3    H110736   1.091   5.908   4.655
 3593TIP3    H210737   0.964   5.825   4.660
 3594TIP3   OH210738   0.738   0.975   1.650
 3594TIP3    H110739   0.815   0.986   1.707
 3594TIP3    H210740   0.689   0.903   1.690
 3595TIP3   OH210741   7.004   0.607   4.579
 3595TIP3    H110742   6.929   0.666   4.583
 3595TIP3    H210743   7.066   0.652   4.521
 3596TIP3   OH210744   6.126   4.796   5.108
 3596TIP3    H110745   6.052   4.748   5.145
 3596TIP3    H210746   6.158   4.850   5.181
 3597TIP3   OH210747   6.640   4.802   3.633
 3597TIP3    H110748   6.705   4.816   3.564
 3597TIP3    H210749   6.588   4.728   3.602
 3598TIP3   OH210750   2.336   6.933   0.865
 3598TIP3    H110751   2.331   7.025   0.836
 3598TIP3    H210752   2.366   6.939   0.956
 3599TIP3   OH210753   6.061   0.384   5.578
 3599TIP3    H110754   6.011   0.401   5.658
 3599TIP3    H210755   6.002   0.406   5.507
 3600TIP3   OH210756   7.187   3.338   2.480
 3600TIP3    H110757   7.274   3.305   2.459
 3600TIP3    H210758   7.177   3.321   2.574
 3601TIP3   OH210759   6.669   0.954   1.456
 3601TIP3    H110760   6.652   1.015   1.528
 3601TIP3    H210761   6.694   0.873   1.500
 3602TIP3   OH210762   1.894   1.677   5.021
 3602TIP3    H110763   1.825   1.627   5.063
 3602TIP3    H210764   1.974   1.627   5.040
 3603TIP3   OH210765   0.936   2.956   3.668
 3603TIP3    H110766   0.993   2.888   3.704
 3603TIP3    H210767   0.856   2.950   3.721
 3604TIP3   OH210768   3.247   4.660   6.577
 3604TIP3    H110769   3.332   4.619   6.591
 3604TIP3    H210770   3.236   4.660   6.482
 3605TIP3   OH210771   3.220   4.535   0.742
 3605TIP3    H110772   3.150   4.503   0.800
 3605TIP3    H210773   3.225   4.469   0.673
 3606TIP3   OH210774   1.833   0.662   1.496
 3606TIP3    H110775   1.772   0.672   1.568
 3606TIP3    H210776   1.866   0.572   1.504
 3607TIP3   OH210777   6.635   4.856   4.927
 3607TIP3    H110778   6.570   4.851   4.997
 3607TIP3    H210779   6.714   4.816   4.964
 3608TIP3   OH210780   1.527   6.965   2.950
 3608TIP3    H110781   1.446   7.005   2.981
 3608TIP3    H210782   1.513   6.953   2.856
 3609TIP3   OH210783   0.261   1.724   2.834
 3609TIP3    H110784   0.285   1.689   2.919
 3609TIP3    H210785   0.178   1.681   2.813
 3610TIP3   OH210786   2.504   5.355   1.695
 3610TIP3    H110787   2.491   5.345   1.601
 3610TIP3    H210788   2.560   5.432   1.704
 3611TIP3   OH210789   1.595   0.599   4.263
 3611TIP3    H110790   1.625   0.635   4.179
 3611TIP3    H210791   1.626   0.508   4.263
 3612TIP3   OH210792   6.659   0.028   1.364
 3612TIP3    H110793   6.577  -0.015   1.390
 3612TIP3    H210794   6.667   0.008   1.271
 3613TIP3   OH210795   4.656   1.599   6.316
 3613TIP3    H110796   4.576   1.587   6.267
 3613TIP3    H210797   4.666   1.519   6.367
 3614TIP3   OH210798   0.083   0.916   2.600
 3614TIP3    H110799   0.008   0.949   2.551
 3614TIP3    H210800   0.092   0.976   2.673
 3615TIP3   OH210801   0.598   0.785   5.602
 3615TIP3    H110802   0.518   0.770   5.551
 3615TIP3    H210803   0.568   0.833   5.679
 3616TIP3   OH210804   0.649   4.403   1.227
 3616TIP3    H110805   0.659   4.313   1.195
 3616TIP3    H210806   0.689   4.458   1.161
 3617TIP3   OH210807   2.132   0.576   0.998
 3617TIP3    H110808   2.193   0.649   1.008
 3617TIP3    H210809   2.061   0.595   1.060
 3618TIP3   OH210810   1.295   3.429   1.924
 3618TIP3    H110811   1.221   3.443   1.865
 3618TIP3    H210812   1.268   3.357   1.981
 3619TIP3   OH210813   5.080   0.696   4.558
 3619TIP3    H110814   5.136   0.646   4.618
 3619TIP3    H210815   5.039   0.629   4.503
 3620TIP3   OH210816   7.793   2.826   2.070
 3620TIP3    H110817   7.838   2.910   2.059
 3620TIP3    H210818   7.846   2.778   2.134
 3621TIP3   OH210819   4.507   2.204   0.291
 3621TIP3    H110820   4.598   2.201   0.263
 3621TIP3    H210821   4.496   2.290   0.330
 3622TIP3   OH210822   6.193   6.217   6.147
 3622TIP3    H110823   6.126   6.167   6.193
 3622TIP3    H210824   6.253   6.151   6.112
 3623TIP3   OH210825   7.709   1.515   2.354
 3623TIP3    H110826   7.746   1.441   2.402
 3623TIP3    H210827   7.719   1.590   2.413
 3624TIP3   OH210828   4.448   4.693   3.697
 3624TIP3    H110829   4.509   4.720   3.628
 3624TIP3    H210830   4.474   4.603   3.718
 3625TIP3   OH210831   2.552   6.060   3.963
 3625TIP3    H110832   2.641   6.063   3.997
 3625TIP3    H210833   2.557   5.999   3.889
 3626TIP3   OH210834   8.014   0.760   3.564
 3626TIP3    H110835   8.006   0.755   3.469
 3626TIP3    H210836   8.099   0.720   3.583
 3627TIP3   OH210837   6.374   0.275   4.045
 3627TIP3    H110838   6.333   0.326   4.115
 3627TIP3    H210839   6.453   0.325   4.022
 3628TIP3   OH210840   0.868   2.085   3.482
 3628TIP3    H110841   0.863   2.119   3.392
 3628TIP3    H210842   0.926   2.147   3.527
 3629TIP3   OH210843   4.859   3.827   1.369
 3629TIP3    H110844   4.927   3.772   1.407
 3629TIP3    H210845   4.894   3.853   1.283
 3630TIP3   OH210846   2.307   5.646   2.195
 3630TIP3    H110847   2.291   5.704   2.120
 3630TIP3    H210848   2.276   5.696   2.271
 3631TIP3   OH210849   1.169   3.158   2.855
 3631TIP3    H110850   1.179   3.092   2.925
 3631TIP3    H210851   1.168   3.107   2.774
 3632TIP3   OH210852   1.209   3.212   4.707
 3632TIP3    H110853   1.254   3.239   4.627
 3632TIP3    H210854   1.126   3.174   4.677
 3633TIP3   OH210855   4.083   3.429   3.038
 3633TIP3    H110856   4.073   3.522   3.015
 3633TIP3    H210857   4.006   3.410   3.092
 3634TIP3   OH210858   2.323   4.880   1.628
 3634TIP3    H110859   2.309   4.860   1.720
 3634TIP3    H210860   2.353   4.971   1.627
 3635TIP3   OH210861   2.883   2.859   4.555
 3635TIP3    H110862   2.959   2.908   4.521
 3635TIP3    H210863   2.860   2.799   4.484
 3636TIP3   OH210864   6.851   6.254   3.642
 3636TIP3    H110865   6.790   6.325   3.661
 3636TIP3    H210866   6.813   6.208   3.568
 3637TIP3   OH210867   8.123   0.330   2.312
 3637TIP3    H110868   8.173   0.253   2.283
 3637TIP3    H210869   8.182   0.378   2.369
 3638TIP3   OH210870   1.309   4.490   4.611
 3638TIP3    H110871   1.369   4.479   4.685
 3638TIP3    H210872   1.302   4.402   4.574
 3639TIP3   OH210873   3.039   0.763   4.066
 3639TIP3    H110874   2.999   0.680   4.040
 3639TIP3    H210875   3.133   0.747   4.065
 3640TIP3   OH210876   4.854   6.530   4.058
 3640TIP3    H110877   4.823   6.508   4.146
 3640TIP3    H210878   4.816   6.463   4.001
 3641TIP3   OH210879   4.197   1.066   5.675
 3641TIP3    H110880   4.135   1.084   5.746
 3641TIP3    H210881   4.224   1.153   5.645
 3642TIP3   OH210882   6.968   0.612   4.987
 3642TIP3    H110883   6.932   0.543   4.931
 3642TIP3    H210884   6.997   0.680   4.926
 3643TIP3   OH210885   6.471   4.024   3.416
 3643TIP3    H110886   6.513   4.046   3.333
 3643TIP3    H210887   6.528   3.959   3.456
 3644TIP3   OH210888   1.375   1.328   0.844
 3644TIP3    H110889   1.344   1.312   0.933
 3644TIP3    H210890   1.470   1.320   0.850
 3645TIP3   OH210891   5.256   4.901   6.279
 3645TIP3    H110892   5.307   4.855   6.212
 3645TIP3    H210893   5.289   4.865   6.362
 3646TIP3   OH210894   1.574   5.791   6.567
 3646TIP3    H110895   1.575   5.884   6.587
 3646TIP3    H210896   1.655   5.758   6.606
 3647TIP3   OH210897   2.680   0.254   2.981
 3647TIP3    H110898   2.741   0.296   3.042
 3647TIP3    H210899   2.620   0.324   2.955
 3648TIP3   OH210900   5.885   4.999   2.510
 3648TIP3    H110901   5.914   4.911   2.533
 3648TIP3    H210902   5.881   5.045   2.594
 3649TIP3   OH210903   4.781   3.038   4.696
 3649TIP3    H110904   4.831   3.120   4.698
 3649TIP3    H210905   4.711   3.055   4.633
 3650TIP3   OH210906   0.419   4.929   6.198
 3650TIP3    H110907   0.475   4.996   6.237
 3650TIP3    H210908   0.438   4.850   6.249
 3651TIP3   OH210909   8.229   7.661   4.954
 3651TIP3    H110910   8.175   7.732   4.988
 3651TIP3    H210911   8.178   7.582   4.970
 3652TIP3   OH210912   0.238   1.919   5.768
 3652TIP3    H110913   0.281   1.885   5.691
 3652TIP3    H210914   0.236   1.846   5.830
 3653TIP3   OH210915   2.493   7.434   5.757
 3653TIP3    H110916   2.450   7.452   5.840
 3653TIP3    H210917   2.585   7.458   5.772
 3654TIP3   OH210918   4.376   6.200   6.582
 3654TIP3    H110919   4.409   6.273   6.530
 3654TIP3    H210920   4.445   6.133   6.576
 3655TIP3   OH210921   8.190   5.121   1.068
 3655TIP3    H110922   8.284   5.130   1.054
 3655TIP3    H210923   8.182   5.080   1.154
 3656TIP3   OH210924   4.682   6.178   5.977
 3656TIP3    H110925   4.681   6.121   5.900
 3656TIP3    H210926   4.592   6.210   5.984
 3657TIP3   OH210927   7.016   0.051   5.358
 3657TIP3    H110928   7.105   0.074   5.334
 3657TIP3    H210929   6.962   0.123   5.324
 3658TIP3   OH210930   6.489   3.195   1.886
 3658TIP3    H110931   6.542   3.131   1.837
 3658TIP3    H210932   6.520   3.186   1.977
 3659TIP3   OH210933   6.570   5.565   0.112
 3659TIP3    H110934   6.574   5.575   0.017
 3659TIP3    H210935   6.589   5.472   0.128
 3660TIP3   OH210936   8.104   4.147   0.448
 3660TIP3    H110937   8.060   4.167   0.531
 3660TIP3    H210938   8.177   4.208   0.444
 3661TIP3   OH210939   2.830   0.831   4.479
 3661TIP3    H110940   2.873   0.910   4.447
 3661TIP3    H210941   2.782   0.858   4.557
 3662TIP3   OH210942   1.999   5.550   0.457
 3662TIP3    H110943   2.030   5.634   0.490
 3662TIP3    H210944   2.027   5.548   0.366
 3663TIP3   OH210945   4.736   4.902   6.129
 3663TIP3    H110946   4.761   4.841   6.059
 3663TIP3    H210947   4.785   4.982   6.108
 3664TIP3   OH210948   2.691   3.727   0.189
 3664TIP3    H110949   2.644   3.788   0.246
 3664TIP3    H210950   2.629   3.657   0.172
 3665TIP3   OH210951   4.295   1.171   4.148
 3665TIP3    H110952   4.200   1.156   4.139
 3665TIP3    H210953   4.329   1.160   4.059
 3666TIP3   OH210954   0.305   5.207   2.198
 3666TIP3    H110955   0.238   5.225   2.264
 3666TIP3    H210956   0.300   5.112   2.185
 3667TIP3   OH210957   6.050   5.282   4.082
 3667TIP3    H110958   6.132   5.330   4.069
 3667TIP3    H210959   6.073   5.213   4.144
 3668TIP3   OH210960   7.390   0.024   3.008
 3668TIP3    H110961   7.401   0.014   2.914
 3668TIP3    H210962   7.297   0.047   3.019
 3669TIP3   OH210963   6.396   5.774   5.429
 3669TIP3    H110964   6.387   5.815   5.515
 3669TIP3    H210965   6.405   5.848   5.368
 3670TIP3   OH210966   4.452   2.936   1.289
 3670TIP3    H110967   4.396   2.925   1.366
 3670TIP3    H210968   4.443   2.854   1.241
 3671TIP3   OH210969   0.292   6.679   6.633
 3671TIP3    H110970   0.210   6.634   6.653
 3671TIP3    H210971   0.286   6.761   6.682
 3672TIP3   OH210972   5.733   5.105   4.022
 3672TIP3    H110973   5.660   5.104   3.960
 3672TIP3    H210974   5.781   5.024   4.004
 3673TIP3   OH210975   5.757   4.573   0.434
 3673TIP3    H110976   5.825   4.628   0.471
 3673TIP3    H210977   5.683   4.632   0.419
 3674TIP3   OH210978   3.348   5.876   0.046
 3674TIP3    H110979   3.439   5.863   0.019
 3674TIP3    H210980   3.302   5.899  -0.035
 3675TIP3   OH210981   3.924   1.042   1.971
 3675TIP3    H110982   3.837   1.040   1.930
 3675TIP3    H210983   3.984   1.054   1.898
 3676TIP3   OH210984   3.141   7.141   3.985
 3676TIP3    H110985   3.197   7.064   3.982
 3676TIP3    H210986   3.099   7.138   4.071
 3677TIP3   OH210987   0.423   7.788   5.264
 3677TIP3    H110988   0.451   7.766   5.175
 3677TIP3    H210989   0.352   7.851   5.253
 3678TIP3   OH210990   2.708   5.772   2.604
 3678TIP3    H110991   2.648   5.746   2.535
 3678TIP3    H210992   2.653   5.819   2.667
 3679TIP3   OH210993   6.659   1.858   2.139
 3679TIP3    H110994   6.676   1.788   2.202
 3679TIP3    H210995   6.666   1.939   2.190
 3680TIP3   OH210996   7.020   2.567   2.676
 3680TIP3    H110997   7.060   2.482   2.655
 3680TIP3    H210998   6.928   2.547   2.694
 3681TIP3   OH210999   7.500   2.197   3.692
 3681TIP3    H111000   7.510   2.213   3.786
 3681TIP3    H211001   7.514   2.102   3.682
 3682TIP3   OH211002   4.625   5.572   1.728
 3682TIP3    H111003   4.699   5.568   1.788
 3682TIP3    H211004   4.585   5.657   1.744
 3683TIP3   OH211005   7.246   0.840   6.405
 3683TIP3    H111006   7.208   0.832   6.493
 3683TIP3    H211007   7.317   0.904   6.416
 3684TIP3   OH211008   2.768   6.434   2.300
 3684TIP3    H111009   2.796   6.364   2.359
 3684TIP3    H211010   2.676   6.414   2.282
 3685TIP3   OH211011   1.780   0.944   4.787
 3685TIP3    H111012   1.747   0.863   4.749
 3685TIP3    H211013   1.776   1.007   4.716
 3686TIP3   OH211014   2.129   4.747   3.193
 3686TIP3    H111015   2.110   4.702   3.111
 3686TIP3    H211016   2.177   4.826   3.168
 3687TIP3   OH211017   5.887   5.031   0.652
 3687TIP3    H111018   5.886   5.099   0.584
 3687TIP3    H211019   5.978   5.002   0.656
 3688TIP3   OH211020   0.117   2.864   4.840
 3688TIP3    H111021   0.094   2.783   4.795
 3688TIP3    H211022   0.049   2.875   4.906
 3689TIP3   OH211023   2.406   0.321   3.879
 3689TIP3    H111024   2.464   0.250   3.907
 3689TIP3    H211025   2.412   0.386   3.949
 3690TIP3   OH211026   5.124   4.172   1.210
 3690TIP3    H111027   5.089   4.232   1.276
 3690TIP3    H211028   5.059   4.173   1.140
 3691TIP3   OH211029   4.402   0.531   5.969
 3691TIP3    H111030   4.446   0.613   5.949
 3691TIP3    H211031   4.461   0.488   6.032
 3692TIP3   OH211032   7.328   6.982   6.563
 3692TIP3    H111033   7.325   7.073   6.594
 3692TIP3    H211034   7.369   6.987   6.477
 3693TIP3   OH211035   2.232   4.099   3.771
 3693TIP3    H111036   2.147   4.055   3.765
 3693TIP3    H211037   2.213   4.191   3.750
 3694TIP3   OH211038   1.475   2.388   2.882
 3694TIP3    H111039   1.398   2.405   2.827
 3694TIP3    H211040   1.521   2.471   2.885
 3695TIP3   OH211041   3.294   3.798   0.275
 3695TIP3    H111042   3.220   3.798   0.335
 3695TIP3    H211043   3.313   3.890   0.259
 3696TIP3   OH211044   5.281   7.719   2.016
 3696TIP3    H111045   5.347   7.734   1.949
 3696TIP3    H211046   5.204   7.766   1.986
 3697TIP3   OH211047   6.618   0.932   2.553
 3697TIP3    H111048   6.536   0.976   2.531
 3697TIP3    H211049   6.660   0.990   2.616
 3698TIP3   OH211050   2.698   0.392   6.387
 3698TIP3    H111051   2.703   0.418   6.295
 3698TIP3    H211052   2.708   0.475   6.435
 3699TIP3   OH211053   7.075   4.626   4.599
 3699TIP3    H111054   7.060   4.692   4.667
 3699TIP3    H211055   7.134   4.563   4.640
 3700TIP3   OH211056   8.093   7.380   2.241
 3700TIP3    H111057   8.012   7.431   2.238
 3700TIP3    H211058   8.090   7.326   2.162
 3701TIP3   OH211059   8.104   3.260   4.668
 3701TIP3    H111060   8.021   3.304   4.650
 3701TIP3    H211061   8.087   3.206   4.745
 3702TIP3   OH211062   5.713   3.338   2.756
 3702TIP3    H111063   5.769   3.280   2.809
 3702TIP3    H211064   5.633   3.287   2.743
 3703TIP3   OH211065   2.704   7.709   2.649
 3703TIP3    H111066   2.782   7.723   2.597
 3703TIP3    H211067   2.675   7.621   2.625
 3704TIP3   OH211068   4.152   1.930   0.268
 3704TIP3    H111069   4.245   1.919   0.248
 3704TIP3    H211070   4.151   1.984   0.347
 3705TIP3   OH211071   1.907   3.970   5.862
 3705TIP3    H111072   1.940   4.006   5.944
 3705TIP3    H211073   1.985   3.954   5.809
 3706TIP3   OH211074   1.876   5.285   2.707
 3706TIP3    H111075   1.884   5.283   2.803
 3706TIP3    H211076   1.814   5.215   2.687
 3707TIP3   OH211077   0.927   6.327   4.978
 3707TIP3    H111078   0.873   6.406   4.978
 3707TIP3    H211079   0.999   6.348   5.038
 3708TIP3   OH211080   5.481   7.582   4.042
 3708TIP3    H111081   5.467   7.634   3.963
 3708TIP3    H211082   5.531   7.640   4.100
 3709TIP3   OH211083   0.375   5.353   0.091
 3709TIP3    H111084   0.461   5.370   0.127
 3709TIP3    H211085   0.384   5.372  -0.003
 3710TIP3   OH211086   4.753   5.864   1.787
 3710TIP3    H111087   4.756   5.938   1.848
 3710TIP3    H211088   4.661   5.859   1.762
 3711TIP3   OH211089   6.233   3.290   6.017
 3711TIP3    H111090   6.206   3.209   6.062
 3711TIP3    H211091   6.204   3.278   5.927
 3712TIP3   OH211092   4.208   6.566   2.605
 3712TIP3    H111093   4.193   6.501   2.674
 3712TIP3    H211094   4.121   6.604   2.589
 3713TIP3   OH211095   1.408   6.836   1.375
 3713TIP3    H111096   1.375   6.902   1.314
 3713TIP3    H211097   1.415   6.883   1.458
 3714TIP3   OH211098   4.314   6.863   2.352
 3714TIP3    H111099   4.245   6.816   2.307
 3714TIP3    H211100   4.327   6.943   2.302
 3715TIP3   OH211101   6.310   5.242   1.105
 3715TIP3    H111102   6.385   5.183   1.109
 3715TIP3    H211103   6.259   5.222   1.184
 3716TIP3   OH211104   8.183   0.543   5.282
 3716TIP3    H111105   8.174   0.458   5.324
 3716TIP3    H211106   8.121   0.542   5.209
 3717TIP3   OH211107   1.528   7.439   0.920
 3717TIP3    H111108   1.442   7.413   0.951
 3717TIP3    H211109   1.535   7.399   0.833
 3718TIP3   OH211110   2.758   7.435   2.813
 3718TIP3    H111111   2.815   7.361   2.833
 3718TIP3    H211112   2.806   7.485   2.747
 3719TIP3   OH211113   3.653   5.438   1.075
 3719TIP3    H111114   3.575   5.386   1.054
 3719TIP3    H211115   3.726   5.379   1.056
 3720TIP3   OH211116   1.513   3.484   0.663
 3720TIP3    H111117   1.463   3.453   0.588
 3720TIP3    H211118   1.467   3.562   0.692
 3721TIP3   OH211119   7.456   2.762   5.259
 3721TIP3    H111120   7.485   2.787   5.171
 3721TIP3    H211121   7.457   2.667   5.259
 3722TIP3   OH211122   1.073   0.192   0.641
 3722TIP3    H111123   1.162   0.188   0.676
 3722TIP3    H211124   1.082   0.175   0.548
 3723TIP3   OH211125   7.571   6.381   1.520
 3723TIP3    H111126   7.627   6.317   1.476
 3723TIP3    H211127   7.591   6.371   1.613
 3724TIP3   OH211128   5.375   7.092   6.253
 3724TIP3    H111129   5.465   7.073   6.229
 3724TIP3    H211130   5.375   7.090   6.349
 3725TIP3   OH211131   0.789   1.971  -0.029
 3725TIP3    H111132   0.803   1.879  -0.051
 3725TIP3    H211133   0.858   1.991   0.035
 3726TIP3   OH211134  -0.014   5.200   6.173
 3726TIP3    H111135   0.074   5.234   6.190
 3726TIP3    H211136  -0.073   5.269   6.204
 3727TIP3   OH211137   6.589   0.486   4.315
 3727TIP3    H111138   6.613   0.397   4.289
 3727TIP3    H211139   6.647   0.542   4.262
 3728TIP3   OH211140   1.966   4.045   2.656
 3728TIP3    H111141   1.939   4.060   2.747
 3728TIP3    H211142   2.024   3.968   2.661
 3729TIP3   OH211143   5.496   6.439   2.202
 3729TIP3    H111144   5.518   6.398   2.118
 3729TIP3    H211145   5.487   6.532   2.182
 3730TIP3   OH211146   2.374   2.531   4.160
 3730TIP3    H111147   2.338   2.475   4.229
 3730TIP3    H211148   2.398   2.612   4.204
 3731TIP3   OH211149   7.915   2.111   1.558
 3731TIP3    H111150   7.867   2.153   1.487
 3731TIP3    H211151   7.913   2.174   1.630
 3732TIP3   OH211152   2.504   4.466   4.718
 3732TIP3    H111153   2.580   4.502   4.672
 3732TIP3    H211154   2.540   4.435   4.801
 3733TIP3   OH211155   5.255   7.478   3.821
 3733TIP3    H111156   5.206   7.556   3.846
 3733TIP3    H211157   5.207   7.405   3.860
 3734TIP3   OH211158   1.276   0.424   1.507
 3734TIP3    H111159   1.309   0.430   1.417
 3734TIP3    H211160   1.345   0.378   1.554
 3735TIP3   OH211161   6.435   5.778   4.070
 3735TIP3    H111162   6.493   5.704   4.090
 3735TIP3    H211163   6.493   5.846   4.037
 3736TIP3   OH211164   1.354   5.969   4.487
 3736TIP3    H111165   1.343   5.905   4.558
 3736TIP3    H211166   1.405   6.040   4.527
 3737TIP3   OH211167   2.318   5.198   5.291
 3737TIP3    H111168   2.258   5.248   5.236
 3737TIP3    H211169   2.268   5.180   5.371
 3738TIP3   OH211170   8.014   6.464   6.560
 3738TIP3    H111171   8.099   6.420   6.563
 3738TIP3    H211172   7.976   6.449   6.646
 3739TIP3   OH211173   0.066   6.026   1.610
 3739TIP3    H111174   0.084   5.977   1.530
 3739TIP3    H211175   0.103   6.113   1.594
 3740TIP3   OH211176   7.379   2.296   2.264
 3740TIP3    H111177   7.366   2.202   2.259
 3740TIP3    H211178   7.469   2.310   2.234
 3741TIP3   OH211179   2.712   4.124   5.297
 3741TIP3    H111180   2.794   4.098   5.340
 3741TIP3    H211181   2.656   4.047   5.303
 3742TIP3   OH211182   3.836   4.503   4.600
 3742TIP3    H111183   3.815   4.420   4.643
 3742TIP3    H211184   3.838   4.568   4.670
 3743TIP3   OH211185   6.686   2.411   4.372
 3743TIP3    H111186   6.705   2.447   4.285
 3743TIP3    H211187   6.670   2.488   4.427
 3744TIP3   OH211188   0.070   2.466   2.099
 3744TIP3    H111189   0.103   2.443   2.012
 3744TIP3    H211190   0.072   2.562   2.100
 3745TIP3   OH211191   3.832   5.438   2.466
 3745TIP3    H111192   3.796   5.526   2.455
 3745TIP3    H211193   3.867   5.437   2.555
 3746TIP3   OH211194   6.970   0.998   3.786
 3746TIP3    H111195   6.978   1.058   3.860
 3746TIP3    H211196   6.956   1.055   3.710
 3747TIP3   OH211197   5.351   6.943   0.023
 3747TIP3    H111198   5.289   7.016   0.013
 3747TIP3    H211199   5.398   6.963   0.103
 3748TIP3   OH211200   0.567   4.152   1.696
 3748TIP3    H111201   0.628   4.216   1.734
 3748TIP3    H211202   0.482   4.176   1.733
 3749TIP3   OH211203   3.377   2.528   0.543
 3749TIP3    H111204   3.327   2.449   0.565
 3749TIP3    H211205   3.459   2.518   0.591
 3750TIP3   OH211206   6.510   6.246   2.339
 3750TIP3    H111207   6.529   6.160   2.375
 3750TIP3    H211208   6.416   6.260   2.356
 3751TIP3   OH211209   0.140   1.866   2.625
 3751TIP3    H111210   0.173   1.927   2.558
 3751TIP3    H211211   0.218   1.825   2.661
 3752TIP3   OH211212   7.069   6.095   1.737
 3752TIP3    H111213   7.088   6.038   1.662
 3752TIP3    H211214   7.156   6.115   1.773
 3753TIP3   OH211215   3.120   2.841   5.598
 3753TIP3    H111216   3.071   2.778   5.545
 3753TIP3    H211217   3.095   2.926   5.562
 3754TIP3   OH211218   1.355   2.844   2.649
 3754TIP3    H111219   1.376   2.776   2.584
 3754TIP3    H211220   1.441   2.875   2.679
 3755TIP3   OH211221   4.975   7.026   1.774
 3755TIP3    H111222   4.943   7.080   1.847
 3755TIP3    H211223   4.919   7.050   1.700
 3756TIP3   OH211224   6.014   2.163   2.143
 3756TIP3    H111225   6.063   2.152   2.062
 3756TIP3    H211226   6.080   2.183   2.209
 3757TIP3   OH211227   3.584   6.544   2.281
 3757TIP3    H111228   3.650   6.586   2.336
 3757TIP3    H211229   3.629   6.525   2.199
 3758TIP3   OH211230   0.501   7.283   3.053
 3758TIP3    H111231   0.438   7.326   2.996
 3758TIP3    H211232   0.585   7.293   3.008
 3759TIP3   OH211233   6.623   1.499   0.751
 3759TIP3    H111234   6.637   1.405   0.733
 3759TIP3    H211235   6.545   1.501   0.807
 3760TIP3   OH211236   0.166   3.953   3.319
 3760TIP3    H111237   0.129   3.887   3.261
 3760TIP3    H211238   0.194   4.023   3.260
 3761TIP3   OH211239   3.997   3.670   4.265
 3761TIP3    H111240   3.954   3.619   4.333
 3761TIP3    H211241   4.027   3.750   4.309
 3762TIP3   OH211242   7.791   0.657   6.450
 3762TIP3    H111243   7.814   0.712   6.525
 3762TIP3    H211244   7.836   0.697   6.376
 3763TIP3   OH211245   5.515   0.569   5.546
 3763TIP3    H111246   5.430   0.534   5.518
 3763TIP3    H211247   5.579   0.525   5.491
 3764TIP3   OH211248   8.152   5.599   6.542
 3764TIP3    H111249   8.214   5.602   6.470
 3764TIP3    H211250   8.066   5.603   6.499
 3765TIP3   OH211251   5.241   7.151   2.220
 3765TIP3    H111252   5.171   7.200   2.264
 3765TIP3    H211253   5.252   7.195   2.136
 3766TIP3   OH211254   7.138   4.901   1.521
 3766TIP3    H111255   7.092   4.892   1.604
 3766TIP3    H211256   7.222   4.856   1.534
 3767TIP3   OH211257   4.721   1.395   2.259
 3767TIP3    H111258   4.728   1.428   2.349
 3767TIP3    H211259   4.632   1.417   2.232
 3768TIP3   OH211260   6.365   2.031   3.056
 3768TIP3    H111261   6.356   1.946   3.098
 3768TIP3    H211262   6.411   2.013   2.975
 3769TIP3   OH211263   7.257   2.266   6.536
 3769TIP3    H111264   7.213   2.352   6.536
 3769TIP3    H211265   7.304   2.264   6.453
 3770TIP3   OH211266   0.961   2.974   4.579
 3770TIP3    H111267   0.965   3.009   4.490
 3770TIP3    H211268   0.869   2.983   4.604
 3771TIP3   OH211269   1.629   7.589   1.541
 3771TIP3    H111270   1.696   7.619   1.481
 3771TIP3    H211271   1.662   7.505   1.574
 3772TIP3   OH211272   1.750   0.149   0.319
 3772TIP3    H111273   1.739   0.061   0.284
 3772TIP3    H211274   1.776   0.136   0.410
 3773TIP3   OH211275   0.883   6.384   4.097
 3773TIP3    H111276   0.978   6.388   4.109
 3773TIP3    H211277   0.849   6.363   4.184
 3774TIP3   OH211278   1.742   1.953   6.559
 3774TIP3    H111279   1.736   1.907   6.476
 3774TIP3    H211280   1.761   1.885   6.623
 3775TIP3   OH211281   1.753   6.582   2.492
 3775TIP3    H111282   1.760   6.552   2.582
 3775TIP3    H211283   1.747   6.502   2.440
 3776TIP3   OH211284   6.272   0.315   6.589
 3776TIP3    H111285   6.338   0.364   6.539
 3776TIP3    H211286   6.246   0.244   6.530
 3777TIP3   OH211287   0.385   5.666   4.531
 3777TIP3    H111288   0.398   5.672   4.436
 3777TIP3    H211289   0.413   5.578   4.553
 3778TIP3   OH211290   4.978   7.048   1.341
 3778TIP3    H111291   5.020   6.967   1.368
 3778TIP3    H211292   4.984   7.049   1.246
 3779TIP3   OH211293   7.133   0.148   2.201
 3779TIP3    H111294   7.139   0.151   2.105
 3779TIP3    H211295   7.165   0.234   2.229
 3780TIP3   OH211296   8.045   1.501   2.463
 3780TIP3    H111297   8.134   1.508   2.497
 3780TIP3    H211298   8.036   1.576   2.403
 3781TIP3   OH211299   1.422   3.131   2.474
 3781TIP3    H111300   1.447   3.084   2.394
 3781TIP3    H211301   1.328   3.146   2.464
 3782TIP3   OH211302   3.162   3.629   4.434
 3782TIP3    H111303   3.184   3.722   4.444
 3782TIP3    H211304   3.068   3.628   4.416
 3783TIP3   OH211305   0.356   0.985   6.086
 3783TIP3    H111306   0.288   0.972   6.152
 3783TIP3    H211307   0.307   1.001   6.005
 3784TIP3   OH211308   1.308   1.299   6.113
 3784TIP3    H111309   1.260   1.374   6.147
 3784TIP3    H211310   1.400   1.318   6.135
 3785TIP3   OH211311   0.285   4.279   6.623
 3785TIP3    H111312   0.260   4.370   6.607
 3785TIP3    H211313   0.207   4.239   6.662
 3786TIP3   OH211314   0.787   2.493   6.290
 3786TIP3    H111315   0.769   2.475   6.198
 3786TIP3    H211316   0.705   2.527   6.325
 3787TIP3   OH211317   3.961   7.490   0.878
 3787TIP3    H111318   3.915   7.526   0.954
 3787TIP3    H211319   3.964   7.562   0.815
 3788TIP3   OH211320   6.752   3.028   6.580
 3788TIP3    H111321   6.752   2.964   6.651
 3788TIP3    H211322   6.805   3.100   6.612
 3789TIP3   OH211323   2.174   5.825   1.994
 3789TIP3    H111324   2.120   5.887   2.044
 3789TIP3    H211325   2.222   5.880   1.932
 3790TIP3   OH211326   5.015   4.279   5.747
 3790TIP3    H111327   5.054   4.344   5.805
 3790TIP3    H211328   5.055   4.196   5.773
 3791TIP3   OH211329   7.297   1.075   1.367
 3791TIP3    H111330   7.259   1.063   1.280
 3791TIP3    H211331   7.267   0.999   1.417
 3792TIP3   OH211332   0.739   6.480   0.408
 3792TIP3    H111333   0.733   6.391   0.445
 3792TIP3    H211334   0.668   6.528   0.450
 3793TIP3   OH211335   1.104   6.078   3.668
 3793TIP3    H111336   1.025   6.091   3.616
 3793TIP3    H211337   1.084   6.002   3.723
 3794TIP3   OH211338   8.126   6.702   2.847
 3794TIP3    H111339   8.180   6.663   2.779
 3794TIP3    H211340   8.056   6.747   2.799
 3795TIP3   OH211341   3.141   6.747   0.783
 3795TIP3    H111342   3.233   6.756   0.807
 3795TIP3    H211343   3.142   6.745   0.687
 3796TIP3   OH211344   6.905   2.632   4.259
 3796TIP3    H111345   6.854   2.624   4.178
 3796TIP3    H211346   6.877   2.715   4.296
 3797TIP3   OH211347   7.957   3.662   4.359
 3797TIP3    H111348   7.870   3.624   4.372
 3797TIP3    H211349   8.012   3.587   4.339
 3798TIP3   OH211350   8.165   4.159   2.783
 3798TIP3    H111351   8.211   4.235   2.747
 3798TIP3    H211352   8.079   4.192   2.807
 3799TIP3   OH211353   3.781   4.530   2.285
 3799TIP3    H111354   3.761   4.513   2.193
 3799TIP3    H211355   3.784   4.444   2.326
 3800TIP3   OH211356   5.116   2.815   2.392
 3800TIP3    H111357   5.205   2.793   2.365
 3800TIP3    H211358   5.078   2.731   2.419
 3801TIP3   OH211359   6.277   0.361   5.299
 3801TIP3    H111360   6.285   0.441   5.352
 3801TIP3    H211361   6.366   0.328   5.291
 3802TIP3   OH211362   4.923   6.403   4.661
 3802TIP3    H111363   4.838   6.367   4.688
 3802TIP3    H211364   4.901   6.488   4.622
 3803TIP3   OH211365   3.471   4.954   5.037
 3803TIP3    H111366   3.566   4.962   5.030
 3803TIP3    H211367   3.448   5.012   5.110
 3804TIP3   OH211368   6.764   5.154   0.684
 3804TIP3    H111369   6.695   5.221   0.680
 3804TIP3    H211370   6.816   5.168   0.605
 3805TIP3   OH211371   5.357   6.687   2.774
 3805TIP3    H111372   5.312   6.611   2.811
 3805TIP3    H211373   5.444   6.653   2.749
 3806TIP3   OH211374   4.387   2.986   5.405
 3806TIP3    H111375   4.375   2.898   5.442
 3806TIP3    H211376   4.306   3.004   5.358
 3807TIP3   OH211377   1.374   1.129   5.106
 3807TIP3    H111378   1.452   1.128   5.162
 3807TIP3    H211379   1.386   1.054   5.048
 3808TIP3   OH211380   3.971   0.845   0.098
 3808TIP3    H111381   3.886   0.887   0.083
 3808TIP3    H211382   3.981   0.843   0.193
 3809TIP3   OH211383   4.473   5.869   4.842
 3809TIP3    H111384   4.486   5.869   4.747
 3809TIP3    H211385   4.391   5.820   4.855
 3810TIP3   OH211386   8.013   7.142   2.087
 3810TIP3    H111387   7.968   7.108   2.009
 3810TIP3    H211388   8.091   7.087   2.095
 3811TIP3   OH211389   4.335   3.963   6.634
 3811TIP3    H111390   4.332   3.875   6.670
 3811TIP3    H211391   4.344   4.020   6.710
 3812TIP3   OH211392   7.196   2.075   2.499
 3812TIP3    H111393   7.120   2.019   2.482
 3812TIP3    H211394   7.248   2.068   2.419
 3813TIP3   OH211395   3.222   7.084   4.710
 3813TIP3    H111396   3.201   7.177   4.712
 3813TIP3    H211397   3.313   7.079   4.742
 3814TIP3   OH211398   0.533   5.795   1.522
 3814TIP3    H111399   0.547   5.841   1.439
 3814TIP3    H211400   0.442   5.814   1.545
 3815TIP3   OH211401   5.838   3.180   0.778
 3815TIP3    H111402   5.863   3.170   0.686
 3815TIP3    H211403   5.921   3.179   0.826
 3816TIP3   OH211404   1.522   2.982   0.346
 3816TIP3    H111405   1.582   2.909   0.356
 3816TIP3    H211406   1.571   3.046   0.293
 3817TIP3   OH211407   4.604   0.666   1.071
 3817TIP3    H111408   4.656   0.589   1.049
 3817TIP3    H211409   4.589   0.709   0.987
 3818TIP3   OH211410   4.868   0.632   0.814
 3818TIP3    H111411   4.913   0.663   0.735
 3818TIP3    H211412   4.819   0.709   0.845
 3819TIP3   OH211413   5.132   2.662   4.556
 3819TIP3    H111414   5.162   2.573   4.574
 3819TIP3    H211415   5.175   2.716   4.623
 3820TIP3   OH211416   0.950   6.256   1.856
 3820TIP3    H111417   0.939   6.334   1.802
 3820TIP3    H211418   0.967   6.185   1.794
 3821TIP3   OH211419   3.234   0.558   1.041
 3821TIP3    H111420   3.264   0.591   0.957
 3821TIP3    H211421   3.190   0.476   1.021
 3822TIP3   OH211422   5.842   6.562   2.212
 3822TIP3    H111423   5.938   6.570   2.217
 3822TIP3    H211424   5.809   6.625   2.275
 3823TIP3   OH211425   6.284   3.760   0.010
 3823TIP3    H111426   6.368   3.722  -0.015
 3823TIP3    H211427   6.267   3.725   0.097
 3824TIP3   OH211428   7.735   1.164   4.740
 3824TIP3    H111429   7.760   1.078   4.707
 3824TIP3    H211430   7.792   1.225   4.693
 3825TIP3   OH211431   1.965   1.041   2.971
 3825TIP3    H111432   1.879   1.079   2.952
 3825TIP3    H211433   1.969   1.038   3.066
 3826TIP3   OH211434   1.593   3.646   4.636
 3826TIP3    H111435   1.499   3.630   4.627
 3826TIP3    H211436   1.616   3.703   4.563
 3827TIP3   OH211437   4.379   6.570   4.102
 3827TIP3    H111438   4.352   6.482   4.075
 3827TIP3    H211439   4.359   6.626   4.028
 3828TIP3   OH211440   2.605   1.843   0.056
 3828TIP3    H111441   2.524   1.817   0.013
 3828TIP3    H211442   2.584   1.847   0.149
 3829TIP3   OH211443   6.948   3.638   2.663
 3829TIP3    H111444   7.021   3.650   2.602
 3829TIP3    H211445   6.944   3.719   2.712
 3830TIP3   OH211446   3.027   6.821   3.114
 3830TIP3    H111447   2.956   6.758   3.102
 3830TIP3    H211448   3.060   6.839   3.026
 3831TIP3   OH211449   1.023   4.486   4.899
 3831TIP3    H111450   1.004   4.462   4.990
 3831TIP3    H211451   1.055   4.406   4.858
 3832TIP3   OH211452   3.337   6.392   0.595
 3832TIP3    H111453   3.389   6.348   0.529
 3832TIP3    H211454   3.292   6.462   0.547
 3833TIP3   OH211455   1.605   1.436   1.686
 3833TIP3    H111456   1.683   1.462   1.636
 3833TIP3    H211457   1.545   1.402   1.620
 3834TIP3   OH211458   0.233   4.881   0.007
 3834TIP3    H111459   0.297   4.817   0.038
 3834TIP3    H211460   0.221   4.940   0.082
 3835TIP3   OH211461   4.349   2.079   3.367
 3835TIP3    H111462   4.379   2.091   3.457
 3835TIP3    H211463   4.301   2.160   3.348
 3836TIP3   OH211464   6.509   5.979   2.434
 3836TIP3    H111465   6.443   5.925   2.391
 3836TIP3    H211466   6.498   5.960   2.527
 3837TIP3   OH211467   0.573   7.572   6.390
 3837TIP3    H111468   0.561   7.487   6.348
 3837TIP3    H211469   0.546   7.559   6.480
 3838TIP3   OH211470   6.782   7.120   3.715
 3838TIP3    H111471   6.804   7.148   3.626
 3838TIP3    H211472   6.789   7.024   3.712
 3839TIP3   OH211473   4.976   5.320   0.232
 3839TIP3    H111474   5.013   5.240   0.194
 3839TIP3    H211475   5.019   5.391   0.185
 3840TIP3   OH211476   1.214   5.301   1.134
 3840TIP3    H111477   1.213   5.224   1.078
 3840TIP3    H211478   1.290   5.351   1.105
 3841TIP3   OH211479   5.774   1.572   0.012
 3841TIP3    H111480   5.684   1.541  -0.002
 3841TIP3    H211481   5.784   1.575   0.107
 3842TIP3   OH211482   5.168   1.301   5.478
 3842TIP3    H111483   5.216   1.273   5.556
 3842TIP3    H211484   5.180   1.231   5.415
 3843TIP3   OH211485   3.156   6.261   4.097
 3843TIP3    H111486   3.129   6.218   4.015
 3843TIP3    H211487   3.088   6.239   4.159
 3844TIP3   OH211488   3.636   0.093   2.496
 3844TIP3    H111489   3.589   0.134   2.423
 3844TIP3    H211490   3.622  -0.001   2.485
 3845TIP3   OH211491   3.922   4.338   0.808
 3845TIP3    H111492   3.871   4.412   0.842
 3845TIP3    H211493   3.915   4.271   0.876
 3846TIP3   OH211494   6.591   2.978   5.836
 3846TIP3    H111495   6.660   2.914   5.816
 3846TIP3    H211496   6.610   3.052   5.778
 3847TIP3   OH211497   5.741   6.756   5.497
 3847TIP3    H111498   5.815   6.697   5.490
 3847TIP3    H211499   5.668   6.709   5.458
 3848TIP3   OH211500   8.167   2.123   3.480
 3848TIP3    H111501   8.094   2.136   3.420
 3848TIP3    H211502   8.128   2.083   3.558
 3849TIP3   OH211503   6.613   5.934   3.202
 3849TIP3    H111504   6.543   5.939   3.267
 3849TIP3    H211505   6.616   6.021   3.163
 3850TIP3   OH211506   6.674   0.600   5.354
 3850TIP3    H111507   6.645   0.664   5.419
 3850TIP3    H211508   6.734   0.543   5.402
 3851TIP3   OH211509   6.336   4.635   3.625
 3851TIP3    H111510   6.331   4.584   3.705
 3851TIP3    H211511   6.276   4.709   3.639
 3852TIP3   OH211512   6.821   7.715   2.631
 3852TIP3    H111513   6.914   7.702   2.648
 3852TIP3    H211514   6.789   7.763   2.707
 3853TIP3   OH211515   7.382   5.528   3.665
 3853TIP3    H111516   7.309   5.538   3.727
 3853TIP3    H211517   7.460   5.532   3.721
 3854TIP3   OH211518   0.778   0.875   3.267
 3854TIP3    H111519   0.831   0.946   3.302
 3854TIP3    H211520   0.709   0.862   3.332
 3855TIP3   OH211521   2.993   7.092   1.256
 3855TIP3    H111522   3.028   7.124   1.339
 3855TIP3    H211523   3.000   7.166   1.196
 3856TIP3   OH211524   6.670   4.406   1.096
 3856TIP3    H111525   6.695   4.405   1.003
 3856TIP3    H211526   6.597   4.344   1.101
 3857TIP3   OH211527   5.555   6.013   2.441
 3857TIP3    H111528   5.523   6.103   2.440
 3857TIP3    H211529   5.495   5.965   2.385
 3858TIP3   OH211530   2.638   5.169   3.487
 3858TIP3    H111531   2.549   5.197   3.507
 3858TIP3    H211532   2.675   5.241   3.436
 3859TIP3   OH211533   4.540   6.650   2.390
 3859TIP3    H111534   4.623   6.696   2.378
 3859TIP3    H211535   4.474   6.712   2.358
 3860TIP3   OH211536   8.169   2.906   6.762
 3860TIP3    H111537   8.073   2.900   6.764
 3860TIP3    H211538   8.192   2.887   6.671
 3861TIP3   OH211539   4.018   6.261   2.228
 3861TIP3    H111540   3.934   6.234   2.191
 3861TIP3    H211541   3.998   6.285   2.318
 3862TIP3   OH211542   7.112   6.312   0.502
 3862TIP3    H111543   7.158   6.283   0.424
 3862TIP3    H211544   7.168   6.379   0.540
 3863TIP3   OH211545   7.477   2.584   1.657
 3863TIP3    H111546   7.548   2.566   1.595
 3863TIP3    H211547   7.501   2.667   1.697
 3864TIP3   OH211548   2.623   4.929   3.816
 3864TIP3    H111549   2.589   4.985   3.886
 3864TIP3    H211550   2.549   4.918   3.756
 3865TIP3   OH211551   0.694   7.337   5.493
 3865TIP3    H111552   0.666   7.418   5.535
 3865TIP3    H211553   0.619   7.311   5.439
 3866TIP3   OH211554   2.642   3.452   5.917
 3866TIP3    H111555   2.626   3.472   5.824
 3866TIP3    H211556   2.565   3.403   5.945
 3867TIP3   OH211557   1.730   5.893   2.970
 3867TIP3    H111558   1.760   5.832   3.037
 3867TIP3    H211559   1.772   5.976   2.993
 3868TIP3   OH211560   7.441   4.937   1.682
 3868TIP3    H111561   7.412   5.007   1.624
 3868TIP3    H211562   7.438   4.975   1.770
 3869TIP3   OH211563   5.965   2.401   6.045
 3869TIP3    H111564   5.965   2.437   6.134
 3869TIP3    H211565   6.053   2.419   6.012
 3870TIP3   OH211566   7.802   2.796   0.555
 3870TIP3    H111567   7.709   2.773   0.558
 3870TIP3    H211568   7.834   2.757   0.474
 3871TIP3   OH211569   2.076   3.345   4.597
 3871TIP3    H111570   2.019   3.419   4.577
 3871TIP3    H211571   2.037   3.304   4.674
 3872TIP3   OH211572   4.334   0.865   4.494
 3872TIP3    H111573   4.349   0.925   4.421
 3872TIP3    H211574   4.290   0.917   4.560
 3873TIP3   OH211575   8.238   0.798   3.984
 3873TIP3    H111576   8.234   0.893   3.973
 3873TIP3    H211577   8.173   0.764   3.922
 3874TIP3   OH211578   1.875   3.972   2.106
 3874TIP3    H111579   1.966   3.973   2.137
 3874TIP3    H211580   1.854   4.064   2.089
 3875TIP3   OH211581   5.354   3.780   6.174
 3875TIP3    H111582   5.329   3.756   6.264
 3875TIP3    H211583   5.417   3.713   6.149
 3876TIP3   OH211584   2.791   6.306   6.157
 3876TIP3    H111585   2.695   6.303   6.157
 3876TIP3    H211586   2.812   6.399   6.161
 3877TIP3   OH211587   4.086   2.176   1.796
 3877TIP3    H111588   4.089   2.238   1.723
 3877TIP3    H211589   3.998   2.186   1.831
 3878TIP3   OH211590   2.270   0.511   1.532
 3878TIP3    H111591   2.267   0.603   1.556
 3878TIP3    H211592   2.249   0.510   1.438
 3879TIP3   OH211593   8.239   3.934   0.191
 3879TIP3    H111594   8.267   3.850   0.155
 3879TIP3    H211595   8.191   3.911   0.271
 3880TIP3   OH211596   2.497   3.904   5.939
 3880TIP3    H111597   2.456   3.819   5.950
 3880TIP3    H211598   2.568   3.906   6.003
 3881TIP3   OH211599   2.019   6.001   6.690
 3881TIP3    H111600   2.069   6.079   6.713
 3881TIP3    H211601   1.947   6.033   6.635
 3882TIP3   OH211602   7.272   6.672   1.674
 3882TIP3    H111603   7.344   6.684   1.736
 3882TIP3    H211604   7.248   6.580   1.682
 3883TIP3   OH211605   6.957   6.156   3.877
 3883TIP3    H111606   6.928   6.187   3.792
 3883TIP3    H211607   7.051   6.175   3.878
 3884TIP3   OH211608   0.257   3.071   3.042
 3884TIP3    H111609   0.321   3.085   3.111
 3884TIP3    H211610   0.219   3.158   3.026
 3885TIP3   OH211611   1.067   2.654   1.795
 3885TIP3    H111612   1.154   2.666   1.757
 3885TIP3    H211613   1.020   2.734   1.770
 3886TIP3   OH211614   1.255   2.128   3.653
 3886TIP3    H111615   1.251   2.186   3.577
 3886TIP3    H211616   1.254   2.188   3.728
 3887TIP3   OH211617   5.147   4.350   0.926
 3887TIP3    H111618   5.098   4.288   0.979
 3887TIP3    H211619   5.146   4.314   0.838
 3888TIP3   OH211620   6.326   2.509   6.101
 3888TIP3    H111621   6.294   2.439   6.044
 3888TIP3    H211622   6.402   2.545   6.054
 3889TIP3   OH211623   0.902   1.043   0.446
 3889TIP3    H111624   0.811   1.065   0.466
 3889TIP3    H211625   0.911   1.057   0.352
 3890TIP3   OH211626   8.088   3.850   0.415
 3890TIP3    H111627   8.086   3.944   0.437
 3890TIP3    H211628   8.125   3.808   0.493
 3891TIP3   OH211629   8.248   6.401   2.414
 3891TIP3    H111630   8.180   6.433   2.473
 3891TIP3    H211631   8.210   6.323   2.373
 3892TIP3   OH211632   0.721   4.436   3.951
 3892TIP3    H111633   0.686   4.421   4.039
 3892TIP3    H211634   0.693   4.525   3.929
 3893TIP3   OH211635   7.935   0.264   0.697
 3893TIP3    H111636   7.890   0.346   0.713
 3893TIP3    H211637   7.913   0.209   0.772
 3894TIP3   OH211638   2.000   4.936   2.584
 3894TIP3    H111639   2.046   4.978   2.656
 3894TIP3    H211640   1.915   4.980   2.580
 3895TIP3   OH211641   2.092   0.277   4.957
 3895TIP3    H111642   2.148   0.254   4.883
 3895TIP3    H211643   2.065   0.193   4.993
 3896TIP3   OH211644   2.011   4.286   0.434
 3896TIP3    H111645   1.934   4.320   0.479
 3896TIP3    H211646   1.977   4.243   0.355
 3897TIP3   OH211647   3.512   3.412   5.214
 3897TIP3    H111648   3.452   3.367   5.153
 3897TIP3    H211649   3.592   3.425   5.163
 3898TIP3   OH211650   3.458   4.684   3.908
 3898TIP3    H111651   3.473   4.666   4.001
 3898TIP3    H211652   3.386   4.625   3.884
 3899TIP3   OH211653   0.949   6.066   4.072
 3899TIP3    H111654   0.994   6.140   4.032
 3899TIP3    H211655   0.999   5.989   4.043
 3900TIP3   OH211656   2.882   2.817   6.196
 3900TIP3    H111657   2.891   2.826   6.291
 3900TIP3    H211658   2.971   2.804   6.164
 3901TIP3   OH211659   5.328   7.311   1.686
 3901TIP3    H111660   5.364   7.392   1.652
 3901TIP3    H211661   5.234   7.318   1.672
 3902TIP3   OH211662   1.348   3.575   6.618
 3902TIP3    H111663   1.356   3.512   6.547
 3902TIP3    H211664   1.431   3.622   6.618
 3903TIP3   OH211665   7.717   3.405   5.311
 3903TIP3    H111666   7.811   3.396   5.323
 3903TIP3    H211667   7.694   3.487   5.355
 3904TIP3   OH211668   1.512   4.814   1.996
 3904TIP3    H111669   1.453   4.760   2.049
 3904TIP3    H211670   1.473   4.812   1.908
 3905TIP3   OH211671   5.425   6.088   6.122
 3905TIP3    H111672   5.457   6.178   6.130
 3905TIP3    H211673   5.387   6.069   6.208
 3906TIP3   OH211674   5.869   6.859   1.656
 3906TIP3    H111675   5.820   6.930   1.697
 3906TIP3    H211676   5.955   6.897   1.638
 3907TIP3   OH211677   1.653   2.522   6.173
 3907TIP3    H111678   1.641   2.427   6.160
 3907TIP3    H211679   1.693   2.552   6.092
 3908TIP3   OH211680   7.461   0.951   3.730
 3908TIP3    H111681   7.497   1.036   3.757
 3908TIP3    H211682   7.442   0.962   3.637
 3909TIP3   OH211683   5.591   3.786   6.349
 3909TIP3    H111684   5.592   3.771   6.443
 3909TIP3    H211685   5.538   3.864   6.337
 3910TIP3   OH211686   3.948   4.616   0.608
 3910TIP3    H111687   3.971   4.708   0.601
 3910TIP3    H211688   3.970   4.593   0.699
 3911TIP3   OH211689   3.557   1.577   3.128
 3911TIP3    H111690   3.589   1.516   3.062
 3911TIP3    H211691   3.636   1.605   3.174
 3912TIP3   OH211692   0.883   2.194   6.027
 3912TIP3    H111693   0.831   2.273   6.045
 3912TIP3    H211694   0.872   2.179   5.933
 3913TIP3   OH211695   6.690   3.982   0.878
 3913TIP3    H111696   6.755   3.912   0.874
 3913TIP3    H211697   6.685   4.015   0.789
 3914TIP3   OH211698   1.651   6.456   1.455
 3914TIP3    H111699   1.590   6.461   1.381
 3914TIP3    H211700   1.599   6.419   1.526
 3915TIP3   OH211701   1.812   2.077   3.889
 3915TIP3    H111702   1.871   2.112   3.823
 3915TIP3    H211703   1.869   2.035   3.953
 3916TIP3   OH211704   3.082   6.418   1.043
 3916TIP3    H111705   3.115   6.506   1.059
 3916TIP3    H211706   3.161   6.365   1.029
 3917TIP3   OH211707   6.526   3.778   6.408
 3917TIP3    H111708   6.539   3.752   6.499
 3917TIP3    H211709   6.519   3.874   6.411
 3918TIP3   OH211710   0.181   2.662   2.852
 3918TIP3    H111711   0.124   2.681   2.926
 3918TIP3    H211712   0.122   2.654   2.777
 3919TIP3   OH211713   3.324   3.139   5.945
 3919TIP3    H111714   3.369   3.075   5.890
 3919TIP3    H211715   3.232   3.113   5.940
 3920TIP3   OH211716   7.858   3.689   0.480
 3920TIP3    H111717   7.887   3.621   0.419
 3920TIP3    H211718   7.907   3.767   0.454
 3921TIP3   OH211719   5.802   6.632   6.338
 3921TIP3    H111720   5.809   6.555   6.396
 3921TIP3    H211721   5.862   6.695   6.377
 3922TIP3   OH211722   6.293   2.275   2.861
 3922TIP3    H111723   6.220   2.213   2.864
 3922TIP3    H211724   6.281   2.330   2.939
 3923TIP3   OH211725   5.661   2.640   0.578
 3923TIP3    H111726   5.572   2.641   0.544
 3923TIP3    H211727   5.657   2.694   0.658
 3924TIP3   OH211728   5.816   4.710   2.532
 3924TIP3    H111729   5.900   4.690   2.573
 3924TIP3    H211730   5.830   4.691   2.439
 3925TIP3   OH211731   5.854   6.641   6.715
 3925TIP3    H111732   5.782   6.620   6.656
 3925TIP3    H211733   5.923   6.675   6.658
 3926TIP3   OH211734   6.800   2.736   0.257
 3926TIP3    H111735   6.742   2.795   0.306
 3926TIP3    H211736   6.792   2.765   0.166
 3927TIP3   OH211737   4.320   3.556   1.538
 3927TIP3    H111738   4.339   3.581   1.447
 3927TIP3    H211739   4.287   3.636   1.579
 3928TIP3   OH211740   7.186   2.770   6.747
 3928TIP3    H111741   7.185   2.851   6.695
 3928TIP3    H211742   7.128   2.710   6.700
 3929TIP3   OH211743   0.691   7.645   2.259
 3929TIP3    H111744   0.766   7.646   2.317
 3929TIP3    H211745   0.727   7.623   2.173
 3930TIP3   OH211746   8.044   4.234   3.433
 3930TIP3    H111747   8.022   4.181   3.356
 3930TIP3    H211748   8.017   4.322   3.411
 3931TIP3   OH211749   6.043   4.926   3.947
 3931TIP3    H111750   6.014   5.007   3.905
 3931TIP3    H211751   6.138   4.927   3.940
 3932TIP3   OH211752   3.021   0.792   0.178
 3932TIP3    H111753   3.102   0.760   0.138
 3932TIP3    H211754   3.028   0.887   0.176
 3933TIP3   OH211755   6.352   3.741   5.700
 3933TIP3    H111756   6.417   3.698   5.645
 3933TIP3    H211757   6.377   3.718   5.789
 3934TIP3   OH211758   5.749   6.363   5.398
 3934TIP3    H111759   5.665   6.366   5.352
 3934TIP3    H211760   5.730   6.319   5.481
 3935TIP3   OH211761   0.339   1.476   2.432
 3935TIP3    H111762   0.294   1.434   2.505
 3935TIP3    H211763   0.278   1.543   2.402
 3936TIP3   OH211764   4.114   2.186   5.650
 3936TIP3    H111765   4.146   2.276   5.652
 3936TIP3    H211766   4.161   2.146   5.576
 3937TIP3   OH211767   3.057   7.025   5.807
 3937TIP3    H111768   2.981   6.985   5.765
 3937TIP3    H211769   3.038   7.021   5.901
 3938TIP3   OH211770   2.356   2.946   2.831
 3938TIP3    H111771   2.344   2.866   2.882
 3938TIP3    H211772   2.432   2.928   2.776
 3939TIP3   OH211773   5.728   7.055   2.365
 3939TIP3    H111774   5.633   7.072   2.369
 3939TIP3    H211775   5.765   7.139   2.337
 3940TIP3   OH211776   4.002   2.775   1.788
 3940TIP3    H111777   3.910   2.754   1.805
 3940TIP3    H211778   4.000   2.855   1.736
 3941TIP3   OH211779   7.561   5.979   0.924
 3941TIP3    H111780   7.572   6.066   0.886
 3941TIP3    H211781   7.476   5.982   0.967
 3942TIP3   OH211782   3.906   1.504   4.179
 3942TIP3    H111783   3.833   1.553   4.216
 3942TIP3    H211784   3.938   1.450   4.251
 3943TIP3   OH211785   4.364   6.560   3.113
 3943TIP3    H111786   4.438   6.567   3.174
 3943TIP3    H211787   4.364   6.644   3.066
 3944TIP3   OH211788   1.017   1.616   0.689
 3944TIP3    H111789   0.960   1.678   0.734
 3944TIP3    H211790   1.009   1.637   0.596
 3945TIP3   OH211791   7.611   2.353   5.556
 3945TIP3    H111792   7.621   2.295   5.480
 3945TIP3    H211793   7.682   2.416   5.548
 3946TIP3   OH211794   3.630   2.175   4.050
 3946TIP3    H111795   3.680   2.256   4.041
 3946TIP3    H211796   3.551   2.200   4.099
 3947TIP3   OH211797   8.008   1.743   5.994
 3947TIP3    H111798   7.930   1.726   5.941
 3947TIP3    H211799   8.080   1.748   5.931
 3948TIP3   OH211800   5.104   3.038   0.816
 3948TIP3    H111801   5.053   3.051   0.737
 3948TIP3    H211802   5.137   2.948   0.809
 3949TIP3   OH211803   3.205   4.441   2.205
 3949TIP3    H111804   3.203   4.348   2.226
 3949TIP3    H211805   3.127   4.456   2.152
 3950TIP3   OH211806   6.300   6.956   4.615
 3950TIP3    H111807   6.258   7.031   4.657
 3950TIP3    H211808   6.341   6.992   4.536
 3951TIP3   OH211809   4.082   6.961   2.190
 3951TIP3    H111810   4.153   6.955   2.126
 3951TIP3    H211811   4.079   7.054   2.214
 3952TIP3   OH211812   4.851   3.423   5.262
 3952TIP3    H111813   4.780   3.450   5.322
 3952TIP3    H211814   4.814   3.349   5.214
 3953TIP3   OH211815   2.659   2.410   0.858
 3953TIP3    H111816   2.611   2.334   0.891
 3953TIP3    H211817   2.639   2.413   0.765
 3954TIP3   OH211818   7.351   5.206   6.484
 3954TIP3    H111819   7.336   5.123   6.529
 3954TIP3    H211820   7.310   5.194   6.398
 3955TIP3   OH211821   2.385   6.994   0.321
 3955TIP3    H111822   2.466   7.044   0.320
 3955TIP3    H211823   2.385   6.949   0.405
 3956TIP3   OH211824   1.374   1.538   5.765
 3956TIP3    H111825   1.359   1.619   5.717
 3956TIP3    H211826   1.295   1.526   5.819
 3957TIP3   OH211827   1.317   1.867   0.779
 3957TIP3    H111828   1.284   1.890   0.866
 3957TIP3    H211829   1.311   1.772   0.775
 3958TIP3   OH211830   0.782   2.666   0.686
 3958TIP3    H111831   0.804   2.694   0.597
 3958TIP3    H211832   0.864   2.631   0.721
 3959TIP3   OH211833   4.195   7.019   2.609
 3959TIP3    H111834   4.120   7.028   2.550
 3959TIP3    H211835   4.245   6.946   2.573
 3960TIP3   OH211836   3.447   6.665   1.710
 3960TIP3    H111837   3.388   6.608   1.760
 3960TIP3    H211838   3.426   6.753   1.741
 3961TIP3   OH211839   8.282   5.602   6.019
 3961TIP3    H111840   8.230   5.604   5.938
 3961TIP3    H211841   8.246   5.673   6.072
 3962TIP3   OH211842   0.170   0.799   0.129
 3962TIP3    H111843   0.223   0.861   0.079
 3962TIP3    H211844   0.103   0.852   0.171
 3963TIP3   OH211845   4.811   1.094   1.382
 3963TIP3    H111846   4.812   1.174   1.434
 3963TIP3    H211847   4.900   1.060   1.388
 3964TIP3   OH211848   0.559   5.389   6.103
 3964TIP3    H111849   0.495   5.429   6.045
 3964TIP3    H211850   0.574   5.454   6.172
 3965TIP3   OH211851   7.366   6.447   5.780
 3965TIP3    H111852   7.306   6.486   5.844
 3965TIP3    H211853   7.401   6.522   5.732
 3966TIP3   OH211854   5.672   4.231   3.805
 3966TIP3    H111855   5.723   4.180   3.868
 3966TIP3    H211856   5.733   4.248   3.733
 3967TIP3   OH211857   4.683   4.484   3.926
 3967TIP3    H111858   4.590   4.471   3.910
 3967TIP3    H211859   4.698   4.578   3.912
 3968TIP3   OH211860   2.194   1.283   6.511
 3968TIP3    H111861   2.181   1.265   6.418
 3968TIP3    H211862   2.287   1.306   6.518
 3969TIP3   OH211863   6.600   4.379   3.750
 3969TIP3    H111864   6.666   4.428   3.800
 3969TIP3    H211865   6.543   4.340   3.817
 3970TIP3   OH211866   3.325   4.339   6.009
 3970TIP3    H111867   3.381   4.357   5.934
 3970TIP3    H211868   3.358   4.257   6.045
 3971TIP3   OH211869   4.609   3.243   1.322
 3971TIP3    H111870   4.618   3.334   1.349
 3971TIP3    H211871   4.586   3.249   1.229
 3972TIP3   OH211872   0.358   5.543   5.292
 3972TIP3    H111873   0.297   5.493   5.347
 3972TIP3    H211874   0.386   5.616   5.346
 3973TIP3   OH211875   0.918   4.198   4.373
 3973TIP3    H111876   0.971   4.120   4.384
 3973TIP3    H211877   0.982   4.268   4.356
 3974TIP3   OH211878   1.581   1.175   6.197
 3974TIP3    H111879   1.565   1.146   6.287
 3974TIP3    H211880   1.584   1.094   6.146
 3975TIP3   OH211881   1.336   0.683   4.330
 3975TIP3    H111882   1.304   0.675   4.420
 3975TIP3    H211883   1.425   0.649   4.333
 3976TIP3   OH211884   4.086   5.044   2.400
 3976TIP3    H111885   4.110   5.105   2.330
 3976TIP3    H211886   4.169   5.023   2.443
 3977TIP3   OH211887   0.844   6.623   5.605
 3977TIP3    H111888   0.939   6.628   5.597
 3977TIP3    H211889   0.820   6.541   5.561
 3978TIP3   OH211890   6.665   1.773   0.584
 3978TIP3    H111891   6.624   1.703   0.635
 3978TIP3    H211892   6.718   1.821   0.648
 3979TIP3   OH211893   4.847   7.821   1.377
 3979TIP3    H111894   4.759   7.846   1.349
 3979TIP3    H211895   4.865   7.739   1.331
 3980TIP3   OH211896   4.450   2.117   3.088
 3980TIP3    H111897   4.439   2.106   3.183
 3980TIP3    H211898   4.508   2.192   3.079
 3981TIP3   OH211899   1.029   4.072   2.324
 3981TIP3    H111900   0.976   4.002   2.286
 3981TIP3    H211901   0.965   4.130   2.367
 3982TIP3   OH211902   2.348   1.853   2.298
 3982TIP3    H111903   2.315   1.774   2.341
 3982TIP3    H211904   2.325   1.924   2.358
 3983TIP3   OH211905   0.625   5.576   5.831
 3983TIP3    H111906   0.600   5.488   5.859
 3983TIP3    H211907   0.666   5.563   5.746
 3984TIP3   OH211908   3.675   2.132   3.781
 3984TIP3    H111909   3.591   2.104   3.745
 3984TIP3    H211910   3.656   2.156   3.872
 3985TIP3   OH211911   2.337   6.479   5.219
 3985TIP3    H111912   2.412   6.441   5.264
 3985TIP3    H211913   2.300   6.407   5.169
 3986TIP3   OH211914   1.853   6.143   2.043
 3986TIP3    H111915   1.766   6.104   2.038
 3986TIP3    H211916   1.907   6.078   2.088
 3987TIP3   OH211917   7.332   4.230   6.196
 3987TIP3    H111918   7.323   4.245   6.102
 3987TIP3    H211919   7.422   4.200   6.206
 3988TIP3   OH211920   4.588   5.332   4.798
 3988TIP3    H111921   4.566   5.303   4.887
 3988TIP3    H211922   4.570   5.427   4.800
 3989TIP3   OH211923   5.514   5.135   5.011
 3989TIP3    H111924   5.536   5.197   4.942
 3989TIP3    H211925   5.586   5.142   5.073
 3990TIP3   OH211926   5.391   6.040   1.850
 3990TIP3    H111927   5.355   5.988   1.778
 3990TIP3    H211928   5.343   6.010   1.927
 3991TIP3   OH211929   7.266   7.369   2.310
 3991TIP3    H111930   7.283   7.287   2.355
 3991TIP3    H211931   7.184   7.400   2.348
 3992TIP3   OH211932   2.872   3.723   5.482
 3992TIP3    H111933   2.925   3.698   5.557
 3992TIP3    H211934   2.919   3.796   5.442
 3993TIP3   OH211935   6.832   6.615   1.077
 3993TIP3    H111936   6.908   6.589   1.129
 3993TIP3    H211937   6.835   6.711   1.079
 3994TIP3   OH211938   3.577   1.875   2.517
 3994TIP3    H111939   3.662   1.872   2.561
 3994TIP3    H211940   3.576   1.959   2.471
 3995TIP3   OH211941   1.722   6.112   1.739
 3995TIP3    H111942   1.757   6.199   1.721
 3995TIP3    H211943   1.653   6.127   1.804
 3996TIP3   OH211944   2.665   4.059   3.241
 3996TIP3    H111945   2.627   4.001   3.176
 3996TIP3    H211946   2.716   4.122   3.190
 3997TIP3   OH211947   4.792   0.674   4.227
 3997TIP3    H111948   4.743   0.621   4.165
 3997TIP3    H211949   4.865   0.618   4.255
 3998TIP3   OH211950   5.483   6.610   0.454
 3998TIP3    H111951   5.500   6.615   0.360
 3998TIP3    H211952   5.504   6.697   0.487
 3999TIP3   OH211953   1.439   7.609   6.466
 3999TIP3    H111954   1.428   7.547   6.538
 3999TIP3    H211955   1.437   7.554   6.387
 4000TIP3   OH211956   6.697   4.044   5.363
 4000TIP3    H111957   6.758   3.982   5.321
 4000TIP3    H211958   6.650   4.084   5.290
 4001TIP3   OH211959   4.017   5.310   0.329
 4001TIP3    H111960   4.094   5.263   0.300
 4001TIP3    H211961   4.042   5.402   0.327
 4002TIP3   OH211962   5.049   2.787   3.714
 4002TIP3    H111963   5.131   2.740   3.726
 4002TIP3    H211964   5.074   2.879   3.713
 4003TIP3   OH211965   6.778   1.332   5.307
 4003TIP3    H111966   6.840   1.268   5.271
 4003TIP3    H211967   6.720   1.353   5.234
 4004TIP3   OH211968   7.376   3.048   5.522
 4004TIP3    H111969   7.445   3.106   5.554
 4004TIP3    H211970   7.376   2.975   5.583
 4005TIP3   OH211971   4.076   2.688   0.318
 4005TIP3    H111972   4.164   2.681   0.357
 4005TIP3    H211973   4.021   2.632   0.373
 4006TIP3   OH211974   0.665   4.011   3.374
 4006TIP3    H111975   0.612   4.087   3.347
 4006TIP3    H211976   0.687   3.967   3.292
 4007TIP3   OH211977   3.475   6.868   2.614
 4007TIP3    H111978   3.382   6.885   2.599
 4007TIP3    H211979   3.480   6.773   2.626
 4008TIP3   OH211980   7.396   7.160   5.077
 4008TIP3    H111981   7.447   7.143   4.998
 4008TIP3    H211982   7.371   7.252   5.070
 4009TIP3   OH211983   7.328   0.994   3.485
 4009TIP3    H111984   7.333   0.964   3.395
 4009TIP3    H211985   7.279   1.076   3.481
 4010TIP3   OH211986   2.039   3.675   2.867
 4010TIP3    H111987   2.008   3.688   2.957
 4010TIP3    H211988   2.068   3.584   2.865
 4011TIP3   OH211989   2.640   4.137   1.435
 4011TIP3    H111990   2.716   4.118   1.381
 4011TIP3    H211991   2.588   4.057   1.434
 4012TIP3   OH211992   7.058   2.699   3.358
 4012TIP3    H111993   6.965   2.692   3.336
 4012TIP3    H211994   7.098   2.741   3.282
 4013TIP3   OH211995   3.381   5.301   5.553
 4013TIP3    H111996   3.449   5.294   5.620
 4013TIP3    H211997   3.379   5.394   5.531
 4014TIP3   OH211998   3.389   2.884   3.961
 4014TIP3    H111999   3.384   2.897   3.866
 4014TIP3    H212000   3.461   2.940   3.989
 4015TIP3   OH212001   7.241   5.473   2.643
 4015TIP3    H112002   7.184   5.480   2.566
 4015TIP3    H212003   7.265   5.381   2.647
 4016TIP3   OH212004   3.602   7.120   4.071
 4016TIP3    H112005   3.637   7.202   4.036
 4016TIP3    H212006   3.574   7.142   4.160
 4017TIP3   OH212007   6.228   1.259   1.586
 4017TIP3    H112008   6.243   1.193   1.519
 4017TIP3    H212009   6.135   1.281   1.579
 4018TIP3   OH212010   2.416   2.351   0.384
 4018TIP3    H112011   2.483   2.343   0.317
 4018TIP3    H212012   2.334   2.365   0.335
 4019TIP3   OH212013   6.453   0.652   0.842
 4019TIP3    H112014   6.399   0.731   0.842
 4019TIP3    H212015   6.542   0.683   0.827
 4020TIP3   OH212016   3.583   0.886   2.867
 4020TIP3    H112017   3.494   0.914   2.847
 4020TIP3    H212018   3.622   0.866   2.782
 4021TIP3   OH212019   0.352   5.414   6.340
 4021TIP3    H112020   0.290   5.427   6.269
 4021TIP3    H212021   0.399   5.497   6.347
 4022TIP3   OH212022   4.637   2.427   5.295
 4022TIP3    H112023   4.619   2.384   5.211
 4022TIP3    H212024   4.721   2.470   5.282
 4023TIP3   OH212025   3.066   1.187   3.562
 4023TIP3    H112026   3.056   1.128   3.637
 4023TIP3    H212027   3.034   1.136   3.488
 4024TIP3   OH212028   3.517   3.238   3.112
 4024TIP3    H112029   3.520   3.192   3.196
 4024TIP3    H212030   3.483   3.174   3.050
 4025TIP3   OH212031   0.341   6.719   1.526
 4025TIP3    H112032   0.423   6.761   1.548
 4025TIP3    H212033   0.363   6.657   1.456
 4026TIP3   OH212034   7.906   1.825   4.444
 4026TIP3    H112035   7.970   1.755   4.458
 4026TIP3    H212036   7.821   1.781   4.457
 4027TIP3   OH212037   1.652   2.594   3.065
 4027TIP3    H112038   1.629   2.597   3.158
 4027TIP3    H212039   1.735   2.548   3.063
 4028TIP3   OH212040   6.464   2.179   2.262
 4028TIP3    H112041   6.534   2.154   2.323
 4028TIP3    H212042   6.494   2.147   2.177
 4029TIP3   OH212043   0.585   0.277   6.000
 4029TIP3    H112044   0.652   0.326   6.048
 4029TIP3    H212045   0.542   0.223   6.066
 4030TIP3   OH212046   2.674   2.515   4.201
 4030TIP3    H112047   2.641   2.480   4.283
 4030TIP3    H212048   2.596   2.520   4.145
 4031TIP3   OH212049   0.783   6.260   5.709
 4031TIP3    H112050   0.759   6.211   5.787
 4031TIP3    H212051   0.699   6.287   5.672
 4032TIP3   OH212052   0.592   4.646   3.845
 4032TIP3    H112053   0.499   4.651   3.825
 4032TIP3    H212054   0.613   4.732   3.882
 4033TIP3   OH212055   5.210   1.065   0.283
 4033TIP3    H112056   5.228   0.972   0.295
 4033TIP3    H212057   5.243   1.084   0.195
 4034TIP3   OH212058   7.922   5.821   5.111
 4034TIP3    H112059   7.908   5.756   5.180
 4034TIP3    H212060   7.973   5.890   5.152
 4035TIP3   OH212061   4.436   4.283   1.515
 4035TIP3    H112062   4.400   4.366   1.483
 4035TIP3    H212063   4.471   4.241   1.436
 4036TIP3   OH212064   4.805   6.132   2.233
 4036TIP3    H112065   4.846   6.217   2.217
 4036TIP3    H212066   4.819   6.116   2.327
 4037TIP3   OH212067   0.434   6.087   5.288
 4037TIP3    H112068   0.448   6.171   5.333
 4037TIP3    H212069   0.393   6.111   5.205
 4038TIP3   OH212070   4.387  -0.018   4.075
 4038TIP3    H112071   4.399   0.061   4.129
 4038TIP3    H212072   4.392   0.014   3.985
 4039TIP3   OH212073   7.653   5.848   2.315
 4039TIP3    H112074   7.591   5.794   2.364
 4039TIP3    H212075   7.677   5.919   2.375
 4040TIP3   OH212076   4.851   7.195   0.230
 4040TIP3    H112077   4.802   7.207   0.148
 4040TIP3    H212078   4.859   7.284   0.266
 4041TIP3   OH212079   0.511   1.281   5.350
 4041TIP3    H112080   0.599   1.300   5.383
 4041TIP3    H212081   0.507   1.186   5.345
 4042TIP3   OH212082   7.255   1.831   4.968
 4042TIP3    H112083   7.183   1.773   4.994
 4042TIP3    H212084   7.284   1.798   4.883
 4043TIP3   OH212085   3.885   3.326   1.151
 4043TIP3    H112086   3.932   3.407   1.172
 4043TIP3    H212087   3.815   3.354   1.092
 4044TIP3   OH212088   2.085   7.409   6.286
 4044TIP3    H112089   2.021   7.457   6.339
 4044TIP3    H212090   2.038   7.333   6.254
 4045TIP3   OH212091   1.443   5.091   0.355
 4045TIP3    H112092   1.360   5.085   0.403
 4045TIP3    H212093   1.488   5.166   0.394
 4046TIP3   OH212094   3.598   1.276   3.556
 4046TIP3    H112095   3.502   1.275   3.551
 4046TIP3    H212096   3.626   1.331   3.483
 4047TIP3   OH212097   7.748   0.264   5.841
 4047TIP3    H112098   7.678   0.244   5.904
 4047TIP3    H212099   7.703   0.306   5.768
 4048TIP3   OH212100   7.382   1.475   4.519
 4048TIP3    H112101   7.398   1.498   4.427
 4048TIP3    H212102   7.314   1.408   4.516
 4049TIP3   OH212103   3.014   1.843   5.277
 4049TIP3    H112104   2.955   1.906   5.236
 4049TIP3    H212105   3.078   1.896   5.325
 4050TIP3   OH212106   4.100   6.218   3.789
 4050TIP3    H112107   4.142   6.149   3.737
 4050TIP3    H212108   4.038   6.259   3.730
 4051TIP3   OH212109   6.240   7.675   2.154
 4051TIP3    H112110   6.320   7.623   2.158
 4051TIP3    H212111   6.185   7.638   2.223
 4052TIP3   OH212112   4.450   2.969   3.770
 4052TIP3    H112113   4.471   2.987   3.862
 4052TIP3    H212114   4.520   3.012   3.721
 4053TIP3   OH212115   5.887   4.603   1.924
 4053TIP3    H112116   5.856   4.519   1.958
 4053TIP3    H212117   5.808   4.646   1.890
 4054TIP3   OH212118   6.722   5.244   1.243
 4054TIP3    H112119   6.718   5.164   1.191
 4054TIP3    H212120   6.759   5.217   1.327
 4055TIP3   OH212121   5.011   1.761   4.560
 4055TIP3    H112122   5.004   1.767   4.464
 4055TIP3    H212123   4.979   1.845   4.592
 4056TIP3   OH212124   2.090   5.517   1.521
 4056TIP3    H112125   2.146   5.594   1.533
 4056TIP3    H212126   2.001   5.552   1.524
 4057TIP3   OH212127   1.333   4.212   4.474
 4057TIP3    H112128   1.410   4.158   4.487
 4057TIP3    H212129   1.295   4.180   4.392
 4058TIP3   OH212130   0.288   3.436   4.611
 4058TIP3    H112131   0.342   3.507   4.646
 4058TIP3    H212132   0.200   3.453   4.646
 4059TIP3   OH212133   2.174   3.574   6.458
 4059TIP3    H112134   2.110   3.507   6.433
 4059TIP3    H212135   2.213   3.601   6.375
 4060TIP3   OH212136   4.607   1.280   4.042
 4060TIP3    H112137   4.558   1.216   3.990
 4060TIP3    H212138   4.698   1.266   4.018
 4061TIP3   OH212139   5.505   5.343   6.339
 4061TIP3    H112140   5.528   5.255   6.312
 4061TIP3    H212141   5.530   5.398   6.265
 4062TIP3   OH212142   5.302   4.840   5.496
 4062TIP3    H112143   5.284   4.930   5.520
 4062TIP3    H212144   5.218   4.795   5.504
 4063TIP3   OH212145   7.676   1.031   2.211
 4063TIP3    H112146   7.617   1.029   2.287
 4063TIP3    H212147   7.763   1.014   2.248
 4064TIP3   OH212148   3.925   5.819   3.761
 4064TIP3    H112149   3.971   5.783   3.837
 4064TIP3    H212150   3.969   5.780   3.685
 4065TIP3   OH212151   0.706   4.424   5.359
 4065TIP3    H112152   0.700   4.516   5.332
 4065TIP3    H212153   0.795   4.398   5.336
 4066TIP3   OH212154   6.075   1.794   1.070
 4066TIP3    H112155   5.988   1.783   1.108
 4066TIP3    H212156   6.135   1.795   1.145
 4067TIP3   OH212157   3.307   4.904   3.560
 4067TIP3    H112158   3.372   4.972   3.547
 4067TIP3    H212159   3.238   4.947   3.612
 4068TIP3   OH212160   3.366   2.663   6.707
 4068TIP3    H112161   3.379   2.679   6.614
 4068TIP3    H212162   3.452   2.678   6.746
 4069TIP3   OH212163   5.752   6.701   4.394
 4069TIP3    H112164   5.776   6.787   4.357
 4069TIP3    H212165   5.756   6.641   4.319
 4070TIP3   OH212166   6.763   5.864   3.746
 4070TIP3    H112167   6.812   5.923   3.689
 4070TIP3    H212168   6.796   5.777   3.725
 4071TIP3   OH212169   0.219   0.675   3.835
 4071TIP3    H112170   0.288   0.618   3.801
 4071TIP3    H212171   0.206   0.740   3.766
 4072TIP3   OH212172   8.268   0.995   1.476
 4072TIP3    H112173   8.193   0.965   1.424
 4072TIP3    H212174   8.306   0.914   1.512
 4073TIP3   OH212175   5.813   4.626   5.990
 4073TIP3    H112176   5.742   4.620   6.054
 4073TIP3    H212177   5.892   4.640   6.043
 4074TIP3   OH212178   6.742   1.553   1.565
 4074TIP3    H112179   6.802   1.625   1.584
 4074TIP3    H212180   6.705   1.529   1.651
 4075TIP3   OH212181   7.224   3.451   5.146
 4075TIP3    H112182   7.191   3.482   5.231
 4075TIP3    H212183   7.210   3.524   5.087
 4076TIP3   OH212184   0.175   7.784   4.300
 4076TIP3    H112185   0.080   7.792   4.307
 4076TIP3    H212186   0.210   7.851   4.359
 4077TIP3   OH212187   6.184   2.460   6.546
 4077TIP3    H112188   6.249   2.492   6.483
 4077TIP3    H212189   6.215   2.494   6.630
 4078TIP3   OH212190   7.642   5.348   6.067
 4078TIP3    H112191   7.648   5.367   5.973
 4078TIP3    H212192   7.584   5.273   6.073
 4079TIP3   OH212193   4.334   5.198   2.520
 4079TIP3    H112194   4.353   5.113   2.560
 4079TIP3    H212195   4.249   5.222   2.556
 4080TIP3   OH212196   7.955   0.278   5.282
 4080TIP3    H112197   8.017   0.222   5.237
 4080TIP3    H212198   7.869   0.252   5.248
 4081TIP3   OH212199   5.750   7.162   4.987
 4081TIP3    H112200   5.822   7.132   4.931
 4081TIP3    H212201   5.779   7.144   5.076
 4082TIP3   OH212202   2.870   6.023   1.719
 4082TIP3    H112203   2.890   5.952   1.780
 4082TIP3    H212204   2.868   6.102   1.773
 4083TIP3   OH212205   7.771   7.532   0.134
 4083TIP3    H112206   7.830   7.498   0.202
 4083TIP3    H212207   7.745   7.454   0.085
 4084TIP3   OH212208   6.736   1.374   0.458
 4084TIP3    H112209   6.685   1.336   0.530
 4084TIP3    H212210   6.814   1.410   0.500
 4085TIP3   OH212211   7.347   0.618   3.425
 4085TIP3    H112212   7.296   0.560   3.370
 4085TIP3    H212213   7.283   0.662   3.480
 4086TIP3   OH212214   4.201   5.918   2.439
 4086TIP3    H112215   4.227   5.948   2.352
 4086TIP3    H212216   4.130   5.978   2.464
 4087TIP3   OH212217   0.153   5.033   3.854
 4087TIP3    H112218   0.241   5.069   3.864
 4087TIP3    H212219   0.148   5.006   3.763
 4088TIP3   OH212220   2.313   0.158   3.358
 4088TIP3    H112221   2.268   0.205   3.428
 4088TIP3    H212222   2.389   0.212   3.337
 4089TIP3   OH212223   3.183   5.723   1.466
 4089TIP3    H112224   3.262   5.701   1.515
 4089TIP3    H212225   3.116   5.663   1.499
 4090TIP3   OH212226   3.748   1.293   1.465
 4090TIP3    H112227   3.694   1.268   1.540
 4090TIP3    H212228   3.824   1.234   1.468
 4091TIP3   OH212229   3.572   4.783   2.910
 4091TIP3    H112230   3.560   4.714   2.844
 4091TIP3    H212231   3.650   4.757   2.958
 4092TIP3   OH212232   5.694   5.005   2.916
 4092TIP3    H112233   5.731   4.930   2.963
 4092TIP3    H212234   5.611   5.022   2.960
 4093TIP3   OH212235   2.903   0.330   5.875
 4093TIP3    H112236   2.979   0.281   5.907
 4093TIP3    H212237   2.939   0.392   5.811
 4094TIP3   OH212238   0.525   4.062   1.296
 4094TIP3    H112239   0.461   3.992   1.280
 4094TIP3    H212240   0.472   4.141   1.305
 4095TIP3   OH212241   1.027   2.612   0.782
 4095TIP3    H112242   1.012   2.626   0.875
 4095TIP3    H212243   1.117   2.639   0.767
 4096TIP3   OH212244   5.060   3.658   4.209
 4096TIP3    H112245   5.039   3.739   4.255
 4096TIP3    H212246   5.150   3.669   4.180
 4097TIP3   OH212247   5.835   2.843   0.507
 4097TIP3    H112248   5.890   2.775   0.467
 4097TIP3    H212249   5.756   2.796   0.535
 4098TIP3   OH212250   2.205   2.918   5.654
 4098TIP3    H112251   2.144   2.934   5.581
 4098TIP3    H212252   2.181   2.831   5.686
 4099TIP3   OH212253   2.638   3.784   5.343
 4099TIP3    H112254   2.695   3.779   5.266
 4099TIP3    H212255   2.698   3.793   5.417
 4100TIP3   OH212256   3.858   4.898   1.351
 4100TIP3    H112257   3.768   4.887   1.383
 4100TIP3    H212258   3.851   4.888   1.256
 4101TIP3   OH212259   2.502   0.788   2.087
 4101TIP3    H112260   2.430   0.730   2.062
 4101TIP3    H212261   2.512   0.847   2.013
 4102TIP3   OH212262   4.802   5.289   3.554
 4102TIP3    H112263   4.715   5.266   3.523
 4102TIP3    H212264   4.822   5.223   3.621
 4103TIP3   OH212265   1.156   3.046   2.332
 4103TIP3    H112266   1.234   3.023   2.281
 4103TIP3    H212267   1.084   3.003   2.285
 4104TIP3   OH212268   5.077   5.544   0.106
 4104TIP3    H112269   5.042   5.548   0.017
 4104TIP3    H212270   5.021   5.603   0.156
 4105TIP3   OH212271   3.640   4.025   4.855
 4105TIP3    H112272   3.732   4.034   4.881
 4105TIP3    H212273   3.638   3.942   4.806
 4106TIP3   OH212274   7.559   1.118   4.977
 4106TIP3    H112275   7.613   1.112   4.899
 4106TIP3    H212276   7.508   1.198   4.966
 4107TIP3   OH212277   3.182   3.871   5.319
 4107TIP3    H112278   3.239   3.947   5.332
 4107TIP3    H212279   3.114   3.881   5.386
 4108TIP3   OH212280   2.283   4.354   4.597
 4108TIP3    H112281   2.324   4.324   4.516
 4108TIP3    H212282   2.354   4.397   4.645
 4109TIP3   OH212283   5.068   4.521   1.638
 4109TIP3    H112284   5.135   4.586   1.618
 4109TIP3    H212285   5.002   4.570   1.687
 4110TIP3   OH212286   4.729   1.052   5.915
 4110TIP3    H112287   4.808   1.035   5.864
 4110TIP3    H212288   4.658   1.046   5.852
 4111TIP3   OH212289   5.672   6.364   4.126
 4111TIP3    H112290   5.618   6.438   4.154
 4111TIP3    H212291   5.610   6.295   4.104
 4112TIP3   OH212292   2.315   7.168   0.729
 4112TIP3    H112293   2.285   7.258   0.715
 4112TIP3    H212294   2.406   7.168   0.698
 4113TIP3   OH212295   5.379   4.700   1.066
 4113TIP3    H112296   5.288   4.675   1.055
 4113TIP3    H212297   5.428   4.619   1.051
 4114TIP3   OH212298   5.220   0.692   0.119
 4114TIP3    H112299   5.214   0.756   0.048
 4114TIP3    H212300   5.311   0.663   0.118
 4115TIP3   OH212301   4.413   4.434   3.911
 4115TIP3    H112302   4.420   4.409   4.003
 4115TIP3    H212303   4.341   4.380   3.877
 4116TIP3   OH212304   3.005   4.829   1.195
 4116TIP3    H112305   2.928   4.849   1.249
 4116TIP3    H212306   3.052   4.763   1.246
 4117TIP3   OH212307   8.099   0.505   1.802
 4117TIP3    H112308   8.177   0.520   1.855
 4117TIP3    H212309   8.071   0.592   1.774
 4118TIP3   OH212310   7.423   1.044   6.433
 4118TIP3    H112311   7.459   1.072   6.517
 4118TIP3    H212312   7.419   1.124   6.380
 4119TIP3   OH212313   8.255   4.508   1.164
 4119TIP3    H112314   8.298   4.516   1.249
 4119TIP3    H212315   8.183   4.571   1.167
 4120TIP3   OH212316   4.663   2.156   2.469
 4120TIP3    H112317   4.586   2.131   2.520
 4120TIP3    H212318   4.709   2.074   2.453
 4121TIP3   OH212319   1.627   0.442   4.747
 4121TIP3    H112320   1.634   0.475   4.836
 4121TIP3    H212321   1.639   0.347   4.756
 4122TIP3   OH212322   6.673   3.427   1.442
 4122TIP3    H112323   6.696   3.386   1.526
 4122TIP3    H212324   6.603   3.489   1.463
 4123TIP3   OH212325   1.390   3.080   4.112
 4123TIP3    H112326   1.317   3.091   4.051
 4123TIP3    H212327   1.454   3.028   4.063
 4124TIP3   OH212328   3.461   5.021   5.768
 4124TIP3    H112329   3.388   5.078   5.793
 4124TIP3    H212330   3.434   4.981   5.686
 4125TIP3   OH212331   3.688   3.479   5.033
 4125TIP3    H112332   3.773   3.445   5.061
 4125TIP3    H212333   3.690   3.471   4.937
 4126TIP3   OH212334   3.257   2.615   2.589
 4126TIP3    H112335   3.337   2.608   2.641
 4126TIP3    H212336   3.278   2.572   2.507
 4127TIP3   OH212337   5.458   7.428   5.295
 4127TIP3    H112338   5.533   7.487   5.305
 4127TIP3    H212339   5.388   7.472   5.343
 4128TIP3   OH212340   2.386   3.668   1.392
 4128TIP3    H112341   2.291   3.683   1.386
 4128TIP3    H212342   2.410   3.631   1.307
 4129TIP3   OH212343   7.018   3.437   3.359
 4129TIP3    H112344   6.977   3.353   3.338
 4129TIP3    H212345   7.003   3.491   3.281
 4130TIP3   OH212346   6.363   7.570   4.479
 4130TIP3    H112347   6.313   7.601   4.554
 4130TIP3    H212348   6.445   7.619   4.483
 4131TIP3   OH212349   1.649   6.045   6.666
 4131TIP3    H112350   1.727   6.092   6.637
 4131TIP3    H212351   1.577   6.107   6.650
 4132TIP3   OH212352   4.876   3.923   3.375
 4132TIP3    H112353   4.830   3.971   3.444
 4132TIP3    H212354   4.936   3.988   3.337
 4133TIP3   OH212355   7.970   6.416   5.839
 4133TIP3    H112356   7.900   6.351   5.849
 4133TIP3    H212357   8.050   6.368   5.857
 4134TIP3   OH212358   1.397   7.246   1.409
 4134TIP3    H112359   1.310   7.220   1.377
 4134TIP3    H212360   1.425   7.314   1.349
 4135TIP3   OH212361   7.428   3.600   6.616
 4135TIP3    H112362   7.462   3.647   6.693
 4135TIP3    H212363   7.503   3.593   6.557
 4136TIP3   OH212364   1.895   0.864   1.350
 4136TIP3    H112365   1.865   0.783   1.391
 4136TIP3    H212366   1.950   0.906   1.416
 4137TIP3   OH212367   7.287   0.076   5.267
 4137TIP3    H112368   7.336   0.158   5.259
 4137TIP3    H212369   7.291   0.037   5.180
 4138TIP3   OH212370   1.653   2.727   0.282
 4138TIP3    H112371   1.745   2.705   0.295
 4138TIP3    H212372   1.640   2.722   0.188
 4139TIP3   OH212373   4.423   3.817   1.637
 4139TIP3    H112374   4.433   3.911   1.653
 4139TIP3    H212375   4.504   3.792   1.592
 4140TIP3   OH212376   6.097   2.821   6.380
 4140TIP3    H112377   6.102   2.816   6.285
 4140TIP3    H212378   6.011   2.783   6.402
 4141TIP3   OH212379   0.967   2.367   3.623
 4141TIP3    H112380   0.947   2.320   3.704
 4141TIP3    H212381   1.041   2.423   3.646
 4142TIP3   OH212382   5.073   4.843   0.925
 4142TIP3    H112383   5.108   4.775   0.982
 4142TIP3    H212384   5.003   4.884   0.976
 4143TIP3   OH212385   3.805   1.722   6.625
 4143TIP3    H112386   3.747   1.796   6.608
 4143TIP3    H212387   3.893   1.754   6.603
 4144TIP3   OH212388   7.675   4.518   2.513
 4144TIP3    H112389   7.647   4.448   2.454
 4144TIP3    H212390   7.601   4.577   2.517
 4145TIP3   OH212391   3.337   3.350   6.311
 4145TIP3    H112392   3.393   3.389   6.244
 4145TIP3    H212393   3.384   3.271   6.339
 4146TIP3   OH212394   1.289   6.476   4.387
 4146TIP3    H112395   1.319   6.551   4.336
 4146TIP3    H212396   1.370   6.433   4.416
 4147TIP3   OH212397   1.141   0.251   2.916
 4147TIP3    H112398   1.128   0.309   2.991
 4147TIP3    H212399   1.073   0.277   2.854
 4148TIP3   OH212400   0.073   3.285   0.147
 4148TIP3    H112401   0.138   3.325   0.204
 4148TIP3    H212402   0.113   3.203   0.119
 4149TIP3   OH212403   0.481   2.513   1.325
 4149TIP3    H112404   0.562   2.463   1.312
 4149TIP3    H212405   0.450   2.486   1.412
 4150TIP3   OH212406   3.364   1.350   6.567
 4150TIP3    H112407   3.427   1.279   6.555
 4150TIP3    H212408   3.328   1.334   6.654
 4151TIP3   OH212409   1.323   3.253   0.291
 4151TIP3    H112410   1.384   3.274   0.221
 4151TIP3    H212411   1.246   3.306   0.273
 4152TIP3   OH212412   1.792   0.230   5.766
 4152TIP3    H112413   1.773   0.195   5.853
 4152TIP3    H212414   1.724   0.296   5.751
 4153TIP3   OH212415   1.437   3.015   3.712
 4153TIP3    H112416   1.474   3.023   3.624
 4153TIP3    H212417   1.345   2.990   3.697
 4154TIP3   OH212418   4.574   5.511   6.423
 4154TIP3    H112419   4.484   5.495   6.397
 4154TIP3    H212420   4.613   5.558   6.350
 4155TIP3   OH212421   7.423   7.054   5.982
 4155TIP3    H112422   7.485   7.021   6.047
 4155TIP3    H212423   7.365   6.979   5.964
 4156TIP3   OH212424   7.468   6.881   3.013
 4156TIP3    H112425   7.539   6.816   3.015
 4156TIP3    H212426   7.465   6.911   2.922
 4157TIP3   OH212427   3.519   2.665   0.198
 4157TIP3    H112428   3.556   2.741   0.154
 4157TIP3    H212429   3.504   2.693   0.288
 4158TIP3   OH212430   4.341   7.711   1.624
 4158TIP3    H112431   4.341   7.666   1.540
 4158TIP3    H212432   4.433   7.723   1.646
 4159TIP3   OH212433   7.930   0.051   5.734
 4159TIP3    H112434   7.991   0.124   5.742
 4159TIP3    H212435   7.843   0.092   5.737
 4160TIP3   OH212436   0.911   3.141   4.044
 4160TIP3    H112437   0.927   3.183   3.959
 4160TIP3    H212438   0.824   3.173   4.070
 4161TIP3   OH212439   1.436   5.975   2.270
 4161TIP3    H112440   1.389   5.968   2.353
 4161TIP3    H212441   1.514   5.920   2.281
 4162TIP3   OH212442   6.274   0.348   0.467
 4162TIP3    H112443   6.268   0.439   0.497
 4162TIP3    H212444   6.199   0.337   0.409
 4163TIP3   OH212445   5.338   7.507   3.555
 4163TIP3    H112446   5.412   7.567   3.562
 4163TIP3    H212447   5.313   7.490   3.646
 4164TIP3   OH212448   1.324   3.326   3.621
 4164TIP3    H112449   1.246   3.291   3.664
 4164TIP3    H212450   1.293   3.402   3.573
 4165TIP3   OH212451   5.443   0.863   0.980
 4165TIP3    H112452   5.406   0.893   1.063
 4165TIP3    H212453   5.373   0.812   0.939
 4166TIP3   OH212454   1.200   7.764   3.652
 4166TIP3    H112455   1.165   7.697   3.594
 4166TIP3    H212456   1.173   7.847   3.612
 4167TIP3   OH212457   5.225   5.358   1.940
 4167TIP3    H112458   5.155   5.403   1.892
 4167TIP3    H212459   5.188   5.344   2.028
 4168TIP3   OH212460   5.427   2.454   0.291
 4168TIP3    H112461   5.515   2.436   0.257
 4168TIP3    H212462   5.370   2.395   0.242
 4169TIP3   OH212463   2.822   2.707   4.323
 4169TIP3    H112464   2.754   2.671   4.265
 4169TIP3    H212465   2.903   2.697   4.272
 4170TIP3   OH212466   3.861   3.321  -0.027
 4170TIP3    H112467   3.874   3.409  -0.062
 4170TIP3    H212468   3.883   3.329   0.066
 4171TIP3   OH212469   5.492   2.360   1.996
 4171TIP3    H112470   5.399   2.349   2.017
 4171TIP3    H212471   5.518   2.278   1.955
 4172TIP3   OH212472   5.869   5.334   4.757
 4172TIP3    H112473   5.865   5.424   4.726
 4172TIP3    H212474   5.910   5.285   4.686
 4173TIP3   OH212475   3.964   5.974   4.680
 4173TIP3    H112476   3.953   6.036   4.608
 4173TIP3    H212477   3.889   5.914   4.672
 4174TIP3   OH212478   7.547   6.682   5.785
 4174TIP3    H112479   7.582   6.758   5.738
 4174TIP3    H212480   7.576   6.607   5.734
 4175TIP3   OH212481   6.694   1.252   0.742
 4175TIP3    H112482   6.625   1.186   0.747
 4175TIP3    H212483   6.772   1.202   0.714
 4176TIP3   OH212484   0.342   6.343   0.020
 4176TIP3    H112485   0.372   6.277  -0.043
 4176TIP3    H212486   0.259   6.309   0.053
 4177TIP3   OH212487   4.034   3.992   3.883
 4177TIP3    H112488   4.128   3.983   3.897
 4177TIP3    H212489   3.996   3.917   3.930
 4178TIP3   OH212490   0.677   5.795   0.826
 4178TIP3    H112491   0.761   5.815   0.868
 4178TIP3    H212492   0.643   5.720   0.874
 4179TIP3   OH212493   1.646   4.045   6.576
 4179TIP3    H112494   1.704   3.968   6.577
 4179TIP3    H212495   1.560   4.010   6.602
 4180TIP3   OH212496   7.531   5.616   5.410
 4180TIP3    H112497   7.491   5.619   5.322
 4180TIP3    H212498   7.603   5.678   5.405
 4181TIP3   OH212499   4.489   5.840   0.069
 4181TIP3    H112500   4.489   5.750   0.039
 4181TIP3    H212501   4.446   5.837   0.155
 4182TIP3   OH212502   0.174   7.519   1.402
 4182TIP3    H112503   0.084   7.518   1.435
 4182TIP3    H212504   0.173   7.459   1.327
 4183TIP3   OH212505   1.555   0.187   3.655
 4183TIP3    H112506   1.475   0.221   3.696
 4183TIP3    H212507   1.536   0.186   3.561
 4184TIP3   OH212508   7.295   3.768   0.513
 4184TIP3    H112509   7.270   3.846   0.463
 4184TIP3    H212510   7.212   3.731   0.543
 4185TIP3   OH212511   4.206   4.006   2.298
 4185TIP3    H112512   4.170   3.920   2.319
 4185TIP3    H212513   4.136   4.068   2.319
 4186TIP3   OH212514   5.846   5.814   2.736
 4186TIP3    H112515   5.810   5.871   2.668
 4186TIP3    H212516   5.770   5.769   2.772
 4187TIP3   OH212517   7.453   7.363   6.319
 4187TIP3    H112518   7.486   7.417   6.247
 4187TIP3    H212519   7.368   7.402   6.341
 4188TIP3   OH212520   2.297   2.340   3.110
 4188TIP3    H112521   2.384   2.370   3.085
 4188TIP3    H212522   2.261   2.299   3.030
 4189TIP3   OH212523   8.263   6.242   6.101
 4189TIP3    H112524   8.295   6.285   6.180
 4189TIP3    H212525   8.171   6.268   6.096
 4190TIP3   OH212526   5.497   0.673   6.566
 4190TIP3    H112527   5.443   0.751   6.572
 4190TIP3    H212528   5.435   0.600   6.572
 4191TIP3   OH212529   3.737   6.361   5.373
 4191TIP3    H112530   3.792   6.289   5.403
 4191TIP3    H212531   3.740   6.424   5.445
 4192TIP3   OH212532   8.265   5.388   3.102
 4192TIP3    H112533   8.326   5.399   3.029
 4192TIP3    H212534   8.233   5.298   3.092
 4193TIP3   OH212535   4.916   1.165   6.510
 4193TIP3    H112536   4.859   1.089   6.498
 4193TIP3    H212537   4.876   1.213   6.582
 4194TIP3   OH212538   6.659   4.404   0.189
 4194TIP3    H112539   6.608   4.453   0.254
 4194TIP3    H212540   6.746   4.444   0.191
 4195TIP3   OH212541   8.175   3.176   2.916
 4195TIP3    H112542   8.170   3.089   2.876
 4195TIP3    H212543   8.218   3.161   3.000
 4196TIP3   OH212544   3.951   2.922   3.505
 4196TIP3    H112545   4.046   2.931   3.499
 4196TIP3    H212546   3.917   2.961   3.424
 4197TIP3   OH212547   3.447   0.008   1.926
 4197TIP3    H112548   3.535   0.024   1.894
 4197TIP3    H212549   3.447  -0.084   1.953
 4198TIP3   OH212550   4.080   5.213   5.716
 4198TIP3    H112551   4.058   5.120   5.721
 4198TIP3    H212552   4.017   5.248   5.652
 4199TIP3   OH212553   7.198   5.226   4.782
 4199TIP3    H112554   7.238   5.269   4.857
 4199TIP3    H212555   7.261   5.159   4.755
 4200TIP3   OH212556   6.956   4.250   6.594
 4200TIP3    H112557   6.971   4.158   6.616
 4200TIP3    H212558   7.038   4.278   6.553
 4201TIP3   OH212559   4.119   1.462   0.133
 4201TIP3    H112560   4.198   1.491   0.179
 4201TIP3    H212561   4.080   1.396   0.191
 4202TIP3   OH212562   8.012   0.785   5.842
 4202TIP3    H112563   8.019   0.698   5.804
 4202TIP3    H212564   7.980   0.770   5.931
 4203TIP3   OH212565   1.020   0.571   3.820
 4203TIP3    H112566   1.002   0.507   3.889
 4203TIP3    H212567   0.934   0.610   3.801
 4204TIP3   OH212568   7.430   5.638   0.465
 4204TIP3    H112569   7.339   5.623   0.439
 4204TIP3    H212570   7.440   5.589   0.547
 4205TIP3   OH212571   2.315   3.175   1.354
 4205TIP3    H112572   2.290   3.088   1.385
 4205TIP3    H212573   2.338   3.223   1.434
 4206TIP3   OH212574   0.132   2.687   6.809
 4206TIP3    H112575   0.047   2.709   6.771
 4206TIP3    H212576   0.188   2.761   6.786
 4207TIP3   OH212577   6.343   2.113   6.539
 4207TIP3    H112578   6.381   2.184   6.590
 4207TIP3    H212579   6.293   2.062   6.603
 4208TIP3   OH212580   3.457   1.515   5.302
 4208TIP3    H112581   3.412   1.540   5.382
 4208TIP3    H212582   3.420   1.572   5.234
 4209TIP3   OH212583   6.676   7.757   1.985
 4209TIP3    H112584   6.680   7.662   1.974
 4209TIP3    H212585   6.736   7.792   1.919
 4210TIP3   OH212586   1.413   0.710   1.224
 4210TIP3    H112587   1.350   0.779   1.245
 4210TIP3    H212588   1.490   0.757   1.193
 4211TIP3   OH212589   8.109   5.154   4.592
 4211TIP3    H112590   8.079   5.212   4.662
 4211TIP3    H212591   8.043   5.163   4.524
 4212TIP3   OH212592   1.806   3.846   1.808
 4212TIP3    H112593   1.878   3.783   1.817
 4212TIP3    H212594   1.850   3.931   1.801
 4213TIP3   OH212595   2.704   4.937   1.266
 4213TIP3    H112596   2.652   4.923   1.345
 4213TIP3    H212597   2.679   4.865   1.207
 4214TIP3   OH212598   6.557   2.196   5.792
 4214TIP3    H112599   6.486   2.135   5.775
 4214TIP3    H212600   6.635   2.141   5.799
 4215TIP3   OH212601   3.684   3.413   2.463
 4215TIP3    H112602   3.752   3.402   2.529
 4215TIP3    H212603   3.687   3.333   2.412
 4216TIP3   OH212604   3.290   3.916   1.812
 4216TIP3    H112605   3.251   3.975   1.876
 4216TIP3    H212606   3.381   3.907   1.841
 4217TIP3   OH212607   6.999   1.244   2.526
 4217TIP3    H112608   6.926   1.279   2.578
 4217TIP3    H212609   6.961   1.222   2.441
 4218TIP3   OH212610   6.082   1.446   1.199
 4218TIP3    H112611   6.175   1.437   1.181
 4218TIP3    H212612   6.079   1.485   1.287
 4219TIP3   OH212613   6.864   5.105   3.004
 4219TIP3    H112614   6.932   5.046   2.970
 4219TIP3    H212615   6.879   5.187   2.957
 4220TIP3   OH212616   1.553   5.597   3.336
 4220TIP3    H112617   1.567   5.680   3.381
 4220TIP3    H212618   1.553   5.620   3.243
 4221TIP3   OH212619   6.183   7.155   6.136
 4221TIP3    H112620   6.122   7.081   6.127
 4221TIP3    H212621   6.216   7.149   6.226
 4222TIP3   OH212622   5.439   3.301   3.618
 4222TIP3    H112623   5.385   3.326   3.693
 4222TIP3    H212624   5.404   3.217   3.590
 4223TIP3   OH212625   7.246   6.525   3.206
 4223TIP3    H112626   7.281   6.576   3.279
 4223TIP3    H212627   7.177   6.580   3.169
 4224TIP3   OH212628   2.734   0.923   6.277
 4224TIP3    H112629   2.818   0.900   6.315
 4224TIP3    H212630   2.727   0.870   6.198
 4225TIP3   OH212631   7.485   5.756   1.519
 4225TIP3    H112632   7.433   5.709   1.454
 4225TIP3    H212633   7.511   5.689   1.582
 4226TIP3   OH212634   1.763   6.929   5.059
 4226TIP3    H112635   1.743   6.852   5.005
 4226TIP3    H212636   1.777   6.893   5.146
 4227TIP3   OH212637   1.604   6.543   6.443
 4227TIP3    H112638   1.662   6.520   6.515
 4227TIP3    H212639   1.585   6.636   6.456
 4228TIP3   OH212640   7.730   4.628   3.556
 4228TIP3    H112641   7.638   4.621   3.580
 4228TIP3    H212642   7.734   4.704   3.498
 4229TIP3   OH212643   2.581   3.352   3.242
 4229TIP3    H112644   2.598   3.415   3.172
 4229TIP3    H212645   2.516   3.394   3.297
 4230TIP3   OH212646   6.824   1.821   3.405
 4230TIP3    H112647   6.794   1.730   3.404
 4230TIP3    H212648   6.914   1.817   3.372
 4231TIP3   OH212649   7.632   4.545   0.174
 4231TIP3    H112650   7.701   4.479   0.171
 4231TIP3    H212651   7.577   4.521   0.248
 4232TIP3   OH212652   4.780   4.709   1.389
 4232TIP3    H112653   4.757   4.771   1.458
 4232TIP3    H212654   4.862   4.742   1.353
 4233TIP3   OH212655   4.650   2.792   0.956
 4233TIP3    H112656   4.710   2.729   0.916
 4233TIP3    H212657   4.590   2.739   1.007
 4234TIP3   OH212658   3.585   2.426   6.726
 4234TIP3    H112659   3.577   2.491   6.797
 4234TIP3    H212660   3.591   2.479   6.646
 4235TIP3   OH212661   2.500   6.316   1.852
 4235TIP3    H112662   2.504   6.350   1.763
 4235TIP3    H212663   2.410   6.330   1.880
 4236TIP3   OH212664   2.569   6.488   3.451
 4236TIP3    H112665   2.651   6.535   3.434
 4236TIP3    H212666   2.530   6.535   3.525
 4237TIP3   OH212667   1.495   1.494   6.272
 4237TIP3    H112668   1.549   1.473   6.348
 4237TIP3    H212669   1.407   1.467   6.296
 4238TIP3   OH212670   1.866   7.235   3.561
 4238TIP3    H112671   1.824   7.247   3.646
 4238TIP3    H212672   1.805   7.276   3.499
 4239TIP3   OH212673   6.259   1.245   2.662
 4239TIP3    H112674   6.219   1.330   2.643
 4239TIP3    H212675   6.350   1.266   2.682
 4240TIP3   OH212676   0.697   7.099   3.394
 4240TIP3    H112677   0.695   7.050   3.312
 4240TIP3    H212678   0.614   7.077   3.436
 4241TIP3   OH212679   4.057   5.723   0.665
 4241TIP3    H112680   4.075   5.761   0.579
 4241TIP3    H212681   3.990   5.780   0.703
 4242TIP3   OH212682   5.286   3.958   0.074
 4242TIP3    H112683   5.321   3.972   0.161
 4242TIP3    H212684   5.282   4.045   0.035
 4243TIP3   OH212685   4.798   0.803   5.484
 4243TIP3    H112686   4.711   0.783   5.448
 4243TIP3    H212687   4.857   0.744   5.438
 4244TIP3   OH212688   5.591   3.747   5.495
 4244TIP3    H112689   5.599   3.674   5.432
 4244TIP3    H212690   5.498   3.768   5.496
 4245TIP3   OH212691   2.816   0.080   5.214
 4245TIP3    H112692   2.759   0.152   5.238
 4245TIP3    H212693   2.827   0.029   5.295
 4246TIP3   OH212694   6.770   2.924   1.510
 4246TIP3    H112695   6.828   2.854   1.538
 4246TIP3    H212696   6.746   2.901   1.420
 4247TIP3   OH212697   3.720   2.326   2.870
 4247TIP3    H112698   3.728   2.344   2.776
 4247TIP3    H212699   3.647   2.264   2.876
 4248TIP3   OH212700   1.647   3.265   2.345
 4248TIP3    H112701   1.725   3.263   2.400
 4248TIP3    H212702   1.585   3.206   2.388
 4249TIP3   OH212703   5.021   4.095   2.347
 4249TIP3    H112704   5.047   4.182   2.318
 4249TIP3    H212705   5.101   4.058   2.385
 4250TIP3   OH212706   7.595   3.389   5.871
 4250TIP3    H112707   7.571   3.471   5.914
 4250TIP3    H212708   7.663   3.413   5.809
 4251TIP3   OH212709   1.802   0.511   3.902
 4251TIP3    H112710   1.785   0.538   3.811
 4251TIP3    H212711   1.729   0.454   3.925
 4252TIP3   OH212712   4.989   0.124   0.415
 4252TIP3    H112713   4.963   0.211   0.383
 4252TIP3    H212714   5.059   0.097   0.355
 4253TIP3   OH212715   6.319   6.246   2.640
 4253TIP3    H112716   6.306   6.335   2.607
 4253TIP3    H212717   6.340   6.257   2.732
 4254TIP3   OH212718   7.145   7.146   0.964
 4254TIP3    H112719   7.219   7.172   1.018
 4254TIP3    H212720   7.179   7.149   0.874
 4255TIP3   OH212721   5.830   4.426   5.241
 4255TIP3    H112722   5.926   4.423   5.238
 4255TIP3    H212723   5.807   4.392   5.328
 4256TIP3   OH212724   4.162   1.580   4.507
 4256TIP3    H112725   4.189   1.576   4.599
 4256TIP3    H212726   4.242   1.607   4.460
 4257TIP3   OH212727   4.434   4.355   1.781
 4257TIP3    H112728   4.363   4.341   1.844
 4257TIP3    H212729   4.397   4.330   1.697
 4258TIP3   OH212730   2.131   4.610   3.917
 4258TIP3    H112731   2.164   4.618   4.007
 4258TIP3    H212732   2.117   4.701   3.889
 4259TIP3   OH212733   5.658   1.885   1.116
 4259TIP3    H112734   5.621   1.967   1.150
 4259TIP3    H212735   5.745   1.881   1.155
 4260TIP3   OH212736   7.600   3.572   1.818
 4260TIP3    H112737   7.592   3.602   1.908
 4260TIP3    H212738   7.512   3.543   1.794
 4261TIP3   OH212739   2.450   7.107   2.735
 4261TIP3    H112740   2.379   7.056   2.695
 4261TIP3    H212741   2.445   7.192   2.692
 4262TIP3   OH212742   1.448   4.555   2.612
 4262TIP3    H112743   1.406   4.596   2.688
 4262TIP3    H212744   1.467   4.629   2.554
 4263TIP3   OH212745   7.192   1.972   3.464
 4263TIP3    H112746   7.143   1.937   3.390
 4263TIP3    H212747   7.182   1.907   3.533
 4264TIP3   OH212748   4.410   0.054   3.822
 4264TIP3    H112749   4.489   0.106   3.835
 4264TIP3    H212750   4.358   0.104   3.759
 4265TIP3   OH212751   4.391   5.522   1.368
 4265TIP3    H112752   4.340   5.604   1.375
 4265TIP3    H212753   4.340   5.468   1.308
 4266TIP3   OH212754   0.979   5.829   0.051
 4266TIP3    H112755   1.020   5.911   0.022
 4266TIP3    H212756   0.917   5.856   0.119
 4267TIP3   OH212757   8.184   6.847   1.858
 4267TIP3    H112758   8.096   6.822   1.830
 4267TIP3    H212759   8.230   6.764   1.872
 4268TIP3   OH212760   6.363   1.636   0.876
 4268TIP3    H112761   6.409   1.711   0.913
 4268TIP3    H212762   6.270   1.655   0.893
 4269TIP3   OH212763   6.261   4.140   1.843
 4269TIP3    H112764   6.212   4.220   1.825
 4269TIP3    H212765   6.327   4.135   1.773
 4270TIP3   OH212766   2.918   3.258   2.213
 4270TIP3    H112767   3.000   3.282   2.256
 4270TIP3    H212768   2.925   3.163   2.200
 4271TIP3   OH212769   1.898   3.533   1.593
 4271TIP3    H112770   1.885   3.516   1.686
 4271TIP3    H212771   1.812   3.561   1.560
 4272TIP3   OH212772   0.810   1.919   6.689
 4272TIP3    H112773   0.876   1.971   6.735
 4272TIP3    H212774   0.790   1.969   6.611
 4273TIP3   OH212775   3.243   4.985   4.855
 4273TIP3    H112776   3.223   5.076   4.877
 4273TIP3    H212777   3.322   4.965   4.906
 4274TIP3   OH212778   3.782   1.056   5.598
 4274TIP3    H112779   3.737   1.041   5.681
 4274TIP3    H212780   3.805   1.149   5.600
 4275TIP3   OH212781   1.769   1.092   4.537
 4275TIP3    H112782   1.816   1.151   4.478
 4275TIP3    H212783   1.748   1.016   4.482
 4276TIP3   OH212784   7.837   7.732   6.745
 4276TIP3    H112785   7.899   7.796   6.780
 4276TIP3    H212786   7.859   7.726   6.652
 4277TIP3   OH212787   2.105   6.041   3.447
 4277TIP3    H112788   2.126   6.118   3.394
 4277TIP3    H212789   2.031   6.070   3.501
 4278TIP3   OH212790   0.137   2.511   1.392
 4278TIP3    H112791   0.110   2.459   1.316
 4278TIP3    H212792   0.061   2.566   1.411
 4279TIP3   OH212793   4.758   2.596   3.466
 4279TIP3    H112794   4.736   2.613   3.558
 4279TIP3    H212795   4.852   2.580   3.467
 4280TIP3   OH212796   3.733   1.878   5.615
 4280TIP3    H112797   3.819   1.836   5.623
 4280TIP3    H212798   3.723   1.927   5.697
 4281TIP3   OH212799   5.804   6.242   3.719
 4281TIP3    H112800   5.823   6.306   3.787
 4281TIP3    H212801   5.712   6.257   3.696
 4282TIP3   OH212802   7.638   4.449   1.976
 4282TIP3    H112803   7.577   4.510   1.937
 4282TIP3    H212804   7.633   4.370   1.922
 4283TIP3   OH212805   3.190   7.841   0.683
 4283TIP3    H112806   3.164   7.846   0.775
 4283TIP3    H212807   3.286   7.847   0.686
 4284TIP3   OH212808   7.845   4.971   6.483
 4284TIP3    H112809   7.897   5.038   6.439
 4284TIP3    H212810   7.807   4.920   6.411
 4285TIP3   OH212811   6.215   4.840   0.135
 4285TIP3    H112812   6.151   4.784   0.179
 4285TIP3    H212813   6.212   4.923   0.182
 4286TIP3   OH212814   3.379   6.520   0.847
 4286TIP3    H112815   3.377   6.490   0.756
 4286TIP3    H212816   3.324   6.456   0.894
 4287TIP3   OH212817   2.359   2.074   2.426
 4287TIP3    H112818   2.391   2.114   2.345
 4287TIP3    H212819   2.343   2.148   2.485
 4288TIP3   OH212820   7.755   0.137   0.938
 4288TIP3    H112821   7.692   0.076   0.899
 4288TIP3    H212822   7.810   0.082   0.994
 4289TIP3   OH212823   1.608   2.479   3.855
 4289TIP3    H112824   1.568   2.566   3.863
 4289TIP3    H212825   1.696   2.490   3.891
 4290TIP3   OH212826   6.376   0.765   1.229
 4290TIP3    H112827   6.331   0.846   1.204
 4290TIP3    H212828   6.331   0.697   1.180
 4291TIP3   OH212829   4.732   2.465   0.820
 4291TIP3    H112830   4.773   2.551   0.812
 4291TIP3    H212831   4.717   2.437   0.730
 4292TIP3   OH212832   6.965   0.246   0.767
 4292TIP3    H112833   6.989   0.277   0.680
 4292TIP3    H212834   7.036   0.187   0.792
 4293TIP3   OH212835   4.716   3.010   1.161
 4293TIP3    H112836   4.702   2.927   1.114
 4293TIP3    H212837   4.646   3.013   1.226
 4294TIP3   OH212838   4.752   0.773   1.324
 4294TIP3    H112839   4.692   0.749   1.253
 4294TIP3    H212840   4.696   0.807   1.393
 4295TIP3   OH212841   2.566   5.364   1.403
 4295TIP3    H112842   2.645   5.318   1.372
 4295TIP3    H212843   2.499   5.340   1.339
 4296TIP3   OH212844   5.068   6.782   1.435
 4296TIP3    H112845   5.136   6.800   1.370
 4296TIP3    H212846   4.996   6.746   1.384
 4297TIP3   OH212847   5.185   1.406   3.454
 4297TIP3    H112848   5.148   1.485   3.415
 4297TIP3    H212849   5.186   1.423   3.549
 4298TIP3   OH212850   1.115   5.669   5.922
 4298TIP3    H112851   1.126   5.764   5.925
 4298TIP3    H212852   1.050   5.650   5.991
 4299TIP3   OH212853   4.592   1.020   3.338
 4299TIP3    H112854   4.559   0.934   3.311
 4299TIP3    H212855   4.567   1.079   3.267
 4300TIP3   OH212856   6.389   3.947   3.067
 4300TIP3    H112857   6.404   4.027   3.016
 4300TIP3    H212858   6.475   3.905   3.071
 4301TIP3   OH212859   1.676   5.116   3.118
 4301TIP3    H112860   1.649   5.095   3.029
 4301TIP3    H212861   1.752   5.060   3.134
 4302TIP3   OH212862   7.674   0.850   4.747
 4302TIP3    H112863   7.587   0.870   4.712
 4302TIP3    H212864   7.734   0.875   4.677
 4303TIP3   OH212865   7.050   7.699   1.169
 4303TIP3    H112866   6.966   7.713   1.213
 4303TIP3    H212867   7.086   7.788   1.158
 4304TIP3   OH212868   5.601   0.367   2.339
 4304TIP3    H112869   5.569   0.426   2.270
 4304TIP3    H212870   5.638   0.293   2.292
 4305TIP3   OH212871   2.717   2.866   5.519
 4305TIP3    H112872   2.636   2.819   5.497
 4305TIP3    H212873   2.740   2.913   5.440
 4306TIP3   OH212874   7.533   0.578   2.725
 4306TIP3    H112875   7.529   0.659   2.675
 4306TIP3    H212876   7.611   0.533   2.690
 4307TIP3   OH212877   3.595   2.515   0.702
 4307TIP3    H112878   3.575   2.486   0.791
 4307TIP3    H212879   3.639   2.599   0.713
 4308TIP3   OH212880   0.361   6.373   5.315
 4308TIP3    H112881   0.432   6.434   5.294
 4308TIP3    H212882   0.322   6.408   5.395
 4309TIP3   OH212883   0.070   2.997   1.408
 4309TIP3    H112884  -0.020   3.003   1.375
 4309TIP3    H212885   0.124   3.030   1.336
 4310TIP3   OH212886   3.954   7.009   5.460
 4310TIP3    H112887   3.914   7.092   5.435
 4310TIP3    H212888   3.880   6.951   5.476
 4311TIP3   OH212889   4.151   0.200   3.862
 4311TIP3    H112890   4.100   0.270   3.820
 4311TIP3    H212891   4.086   0.146   3.907
 4312TIP3   OH212892   6.431   5.409   4.999
 4312TIP3    H112893   6.340   5.434   5.016
 4312TIP3    H212894   6.447   5.435   4.909
 4313TIP3   OH212895   4.588   5.436   2.255
 4313TIP3    H112896   4.595   5.466   2.345
 4313TIP3    H212897   4.535   5.356   2.260
 4314TIP3   OH212898   1.159   7.607   2.758
 4314TIP3    H112899   1.202   7.525   2.735
 4314TIP3    H212900   1.087   7.582   2.816
 4315TIP3   OH212901   3.569   7.795   6.183
 4315TIP3    H112902   3.629   7.869   6.178
 4315TIP3    H212903   3.555   7.769   6.091
 4316TIP3   OH212904   6.697   3.906   3.199
 4316TIP3    H112905   6.652   3.822   3.197
 4316TIP3    H212906   6.786   3.885   3.228
 4317TIP3   OH212907   5.738   2.685   2.910
 4317TIP3    H112908   5.723   2.613   2.849
 4317TIP3    H212909   5.806   2.738   2.868
 4318TIP3   OH212910   8.040   7.148   2.450
 4318TIP3    H112911   7.957   7.190   2.472
 4318TIP3    H212912   8.071   7.195   2.373
 4319TIP3   OH212913   7.872   3.422   4.254
 4319TIP3    H112914   7.845   3.397   4.166
 4319TIP3    H212915   7.796   3.468   4.289
 4320TIP3   OH212916   7.824   4.350   0.118
 4320TIP3    H112917   7.913   4.316   0.128
 4320TIP3    H212918   7.768   4.273   0.126
 4321TIP3   OH212919   2.971   0.633   6.012
 4321TIP3    H112920   3.039   0.581   5.969
 4321TIP3    H212921   2.991   0.723   5.989
 4322TIP3   OH212922   3.426   0.213   6.442
 4322TIP3    H112923   3.507   0.251   6.476
 4322TIP3    H212924   3.406   0.142   6.503
 4323TIP3   OH212925   0.653   1.514   6.457
 4323TIP3    H112926   0.653   1.536   6.550
 4323TIP3    H212927   0.579   1.454   6.447
 4324TIP3   OH212928   1.337   1.020   0.571
 4324TIP3    H112929   1.246   0.992   0.581
 4324TIP3    H212930   1.368   0.974   0.494
 4325TIP3   OH212931   1.081   0.116   5.732
 4325TIP3    H112932   1.089   0.021   5.743
 4325TIP3    H212933   1.068   0.150   5.821
 4326TIP3   OH212934   6.299   5.377   4.017
 4326TIP3    H112935   6.324   5.431   3.942
 4326TIP3    H212936   6.334   5.424   4.093
 4327TIP3   OH212937   8.234   3.511   2.434
 4327TIP3    H112938   8.176   3.486   2.362
 4327TIP3    H212939   8.312   3.457   2.422
 4328TIP3   OH212940   5.824   4.666   4.197
 4328TIP3    H112941   5.825   4.604   4.270
 4328TIP3    H212942   5.891   4.731   4.218
 4329TIP3   OH212943   1.516   3.572   1.128
 4329TIP3    H112944   1.580   3.642   1.142
 4329TIP3    H212945   1.531   3.510   1.200
 4330TIP3   OH212946   6.658   1.191   1.631
 4330TIP3    H112947   6.589   1.205   1.696
 4330TIP3    H212948   6.696   1.277   1.617
 4331TIP3   OH212949   3.444   4.757   4.591
 4331TIP3    H112950   3.474   4.667   4.607
 4331TIP3    H212951   3.357   4.760   4.630
 4332TIP3   OH212952   7.102   0.780   5.333
 4332TIP3    H112953   7.081   0.774   5.426
 4332TIP3    H212954   7.018   0.763   5.289
 4333TIP3   OH212955   4.902   0.378   6.541
 4333TIP3    H112956   4.897   0.438   6.615
 4333TIP3    H212957   4.887   0.291   6.580
 4334TIP3   OH212958   0.259   5.766   1.574
 4334TIP3    H112959   0.276   5.695   1.635
 4334TIP3    H212960   0.247   5.843   1.630
 4335TIP3   OH212961   6.535   3.186   2.142
 4335TIP3    H112962   6.555   3.272   2.179
 4335TIP3    H212963   6.584   3.125   2.197
 4336TIP3   OH212964   3.461   4.114   1.991
 4336TIP3    H112965   3.489   4.171   2.063
 4336TIP3    H212966   3.467   4.026   2.027
 4337TIP3   OH212967   4.268   0.606   6.300
 4337TIP3    H112968   4.257   0.531   6.241
 4337TIP3    H212969   4.333   0.576   6.364
 4338TIP3   OH212970   3.398   7.661   0.458
 4338TIP3    H112971   3.334   7.613   0.509
 4338TIP3    H212972   3.360   7.668   0.370
 4339TIP3   OH212973   2.864   3.266   4.647
 4339TIP3    H112974   2.851   3.353   4.685
 4339TIP3    H212975   2.950   3.271   4.605
 4340TIP3   OH212976   1.057   1.683   1.547
 4340TIP3    H112977   1.027   1.772   1.528
 4340TIP3    H212978   1.081   1.646   1.462
 4341TIP3   OH212979   4.541   1.121   1.925
 4341TIP3    H112980   4.536   1.115   1.830
 4341TIP3    H212981   4.612   1.061   1.949
 4342TIP3   OH212982   1.044   5.620   1.843
 4342TIP3    H112983   1.117   5.669   1.881
 4342TIP3    H212984   1.052   5.634   1.749
 4343TIP3   OH212985   3.346   4.348   4.608
 4343TIP3    H112986   3.357   4.431   4.654
 4343TIP3    H212987   3.334   4.373   4.516
 4344TIP3   OH212988   7.682   2.472   3.824
 4344TIP3    H112989   7.732   2.427   3.757
 4344TIP3    H212990   7.601   2.499   3.780
 4345TIP3   OH212991   7.715   4.463   5.450
 4345TIP3    H112992   7.773   4.534   5.422
 4345TIP3    H212993   7.630   4.503   5.461
 4346TIP3   OH212994   3.919   0.171   3.488
 4346TIP3    H112995   3.867   0.176   3.408
 4346TIP3    H212996   4.006   0.201   3.462
 4347TIP3   OH212997   4.301   3.998   2.037
 4347TIP3    H112998   4.250   3.943   1.978
 4347TIP3    H212999   4.257   3.990   2.121
 4348TIP3   OH213000   3.176   0.262   3.568
 4348TIP3    H113001   3.225   0.235   3.491
 4348TIP3    H213002   3.213   0.211   3.640
 4349TIP3   OH213003   5.579   2.489   5.246
 4349TIP3    H113004   5.555   2.436   5.170
 4349TIP3    H213005   5.500   2.538   5.268
 4350TIP3   OH213006   7.852   1.172   1.004
 4350TIP3    H113007   7.775   1.151   1.056
 4350TIP3    H213008   7.821   1.235   0.939
 4351TIP3   OH213009   4.657   7.530   4.775
 4351TIP3    H113010   4.672   7.570   4.689
 4351TIP3    H213011   4.729   7.468   4.785
 4352TIP3   OH213012   6.860   5.695   3.367
 4352TIP3    H113013   6.932   5.634   3.359
 4352TIP3    H213014   6.808   5.681   3.288
 4353TIP3   OH213015   3.309   0.651   1.278
 4353TIP3    H113016   3.325   0.569   1.324
 4353TIP3    H213017   3.280   0.624   1.190
 4354TIP3   OH213018   5.372   2.740   5.960
 4354TIP3    H113019   5.288   2.752   6.004
 4354TIP3    H213020   5.424   2.815   5.989
 4355TIP3   OH213021   4.785   6.728   1.317
 4355TIP3    H113022   4.745   6.643   1.298
 4355TIP3    H213023   4.762   6.745   1.408
 4356TIP3   OH213024   2.786   5.520   2.746
 4356TIP3    H113025   2.742   5.592   2.702
 4356TIP3    H213026   2.742   5.442   2.714
 4357TIP3   OH213027   6.644   1.364   5.891
 4357TIP3    H113028   6.702   1.315   5.949
 4357TIP3    H213029   6.694   1.374   5.810
 4358TIP3   OH213030   2.277   0.114   4.174
 4358TIP3    H113031   2.322   0.148   4.251
 4358TIP3    H213032   2.202   0.172   4.162
 4359TIP3   OH213033   0.867   2.311   2.481
 4359TIP3    H113034   0.912   2.229   2.501
 4359TIP3    H213035   0.824   2.335   2.564
 4360TIP3   OH213036   4.582   3.251   6.258
 4360TIP3    H113037   4.654   3.238   6.320
 4360TIP3    H213038   4.605   3.197   6.183
 4361TIP3   OH213039   2.716   2.637   1.152
 4361TIP3    H113040   2.781   2.567   1.155
 4361TIP3    H213041   2.690   2.642   1.060
 4362TIP3   OH213042   1.131   4.718   0.099
 4362TIP3    H113043   1.065   4.771   0.055
 4362TIP3    H213044   1.179   4.779   0.155
 4363TIP3   OH213045   2.466   5.422   2.926
 4363TIP3    H113046   2.397   5.395   2.866
 4363TIP3    H213047   2.470   5.517   2.917
 4364TIP3   OH213048   2.375   2.561   5.365
 4364TIP3    H113049   2.442   2.628   5.363
 4364TIP3    H213050   2.361   2.543   5.458
 4365TIP3   OH213051   0.420   2.291   6.758
 4365TIP3    H113052   0.372   2.350   6.816
 4365TIP3    H213053   0.509   2.325   6.757
 4366TIP3   OH213054   6.779   3.816   0.451
 4366TIP3    H113055   6.703   3.768   0.485
 4366TIP3    H213056   6.845   3.749   0.435
 4367TIP3   OH213057   1.645   4.541   2.257
 4367TIP3    H113058   1.592   4.462   2.251
 4367TIP3    H213059   1.582   4.613   2.253
 4368TIP3   OH213060   1.211   6.144   4.334
 4368TIP3    H113061   1.248   6.078   4.392
 4368TIP3    H213062   1.198   6.220   4.390
 4369TIP3   OH213063   0.525   2.049   1.853
 4369TIP3    H113064   0.598   2.049   1.791
 4369TIP3    H213065   0.451   2.015   1.803
 4370TIP3   OH213066   3.019   4.341   4.581
 4370TIP3    H113067   3.029   4.384   4.667
 4370TIP3    H213068   3.004   4.249   4.602
 4371TIP3   OH213069   6.991   2.075   0.731
 4371TIP3    H113070   7.018   2.167   0.731
 4371TIP3    H213071   7.057   2.031   0.784
 4372TIP3   OH213072   0.808   7.329   3.435
 4372TIP3    H113073   0.810   7.348   3.529
 4372TIP3    H213074   0.756   7.249   3.428
 4373TIP3   OH213075   4.196   5.928   5.351
 4373TIP3    H113076   4.126   5.915   5.415
 4373TIP3    H213077   4.209   6.023   5.349
 4374TIP3   OH213078   7.472   3.707   4.523
 4374TIP3    H113079   7.384   3.686   4.554
 4374TIP3    H213080   7.527   3.699   4.601
 4375TIP3   OH213081   6.874   0.805   5.914
 4375TIP3    H113082   6.911   0.758   5.989
 4375TIP3    H213083   6.782   0.820   5.938
 4376TIP3   OH213084   6.765   2.069   4.725
 4376TIP3    H113085   6.729   2.120   4.652
 4376TIP3    H213086   6.852   2.107   4.740
 4377TIP3   OH213087   4.742   4.541   4.801
 4377TIP3    H113088   4.748   4.528   4.706
 4377TIP3    H213089   4.649   4.532   4.821
 4378TIP3   OH213090   2.462   0.396   2.849
 4378TIP3    H113091   2.457   0.487   2.879
 4378TIP3    H213092   2.372   0.376   2.821
 4379TIP3   OH213093   1.847   7.639   1.202
 4379TIP3    H113094   1.873   7.619   1.292
 4379TIP3    H213095   1.842   7.554   1.158
 4380TIP3   OH213096   5.191   3.688   1.874
 4380TIP3    H113097   5.272   3.731   1.901
 4380TIP3    H213098   5.207   3.595   1.888
 4381TIP3   OH213099   4.631   0.768   2.884
 4381TIP3    H113100   4.536   0.757   2.875
 4381TIP3    H213101   4.668   0.705   2.822
 4382TIP3   OH213102   6.923   5.028   3.690
 4382TIP3    H113103   6.887   4.958   3.636
 4382TIP3    H213104   7.016   5.009   3.696
 4383TIP3   OH213105   7.004   7.728   5.081
 4383TIP3    H113106   6.955   7.649   5.055
 4383TIP3    H213107   7.021   7.716   5.175
 4384TIP3   OH213108   4.012   3.205   2.043
 4384TIP3    H113109   3.917   3.192   2.040
 4384TIP3    H213110   4.028   3.244   2.129
 4385TIP3   OH213111   6.627   4.649   5.383
 4385TIP3    H113112   6.676   4.620   5.459
 4385TIP3    H213113   6.578   4.726   5.413
 4386TIP3   OH213114   7.780   3.384   3.627
 4386TIP3    H113115   7.705   3.327   3.612
 4386TIP3    H213116   7.788   3.436   3.547
 4387TIP3   OH213117   5.264   2.439   6.517
 4387TIP3    H113118   5.251   2.467   6.426
 4387TIP3    H213119   5.176   2.441   6.555
 4388TIP3   OH213120   5.589   0.419   4.246
 4388TIP3    H113121   5.550   0.339   4.210
 4388TIP3    H213122   5.654   0.387   4.309
 4389TIP3   OH213123   3.530   1.773   5.926
 4389TIP3    H113124   3.524   1.693   5.979
 4389TIP3    H213125   3.525   1.844   5.990
 4390TIP3   OH213126   3.431   4.151   6.797
 4390TIP3    H113127   3.458   4.238   6.828
 4390TIP3    H213128   3.430   4.160   6.701
 4391TIP3   OH213129   2.292   5.082   1.360
 4391TIP3    H113130   2.350   5.128   1.300
 4391TIP3    H213131   2.226   5.147   1.385
 4392TIP3   OH213132   1.415   6.036   4.918
 4392TIP3    H113133   1.328   6.003   4.943
 4392TIP3    H213134   1.476   5.976   4.962
 4393TIP3   OH213135   1.066   4.849   3.497
 4393TIP3    H113136   1.082   4.755   3.506
 4393TIP3    H213137   1.047   4.878   3.586
 4394TIP3   OH213138   3.054   4.387   3.471
 4394TIP3    H113139   3.090   4.376   3.384
 4394TIP3    H213140   3.061   4.481   3.489
 4395TIP3   OH213141   4.207   7.506   5.552
 4395TIP3    H113142   4.225   7.418   5.517
 4395TIP3    H213143   4.129   7.535   5.505
 4396TIP3   OH213144   4.505   1.993   6.024
 4396TIP3    H113145   4.544   1.906   6.022
 4396TIP3    H213146   4.506   2.022   5.932
 4397TIP3   OH213147   3.505   6.109   5.796
 4397TIP3    H113148   3.500   6.187   5.741
 4397TIP3    H213149   3.416   6.073   5.795
 4398TIP3   OH213150   5.014   6.109   6.164
 4398TIP3    H113151   5.069   6.033   6.145
 4398TIP3    H213152   5.048   6.142   6.247
 4399TIP3   OH213153   4.566   1.619   3.225
 4399TIP3    H113154   4.533   1.698   3.267
 4399TIP3    H213155   4.570   1.554   3.295
 4400TIP3   OH213156   1.212   6.728   4.559
 4400TIP3    H113157   1.185   6.674   4.485
 4400TIP3    H213158   1.288   6.683   4.596
 4401TIP3   OH213159   1.516   6.957   6.796
 4401TIP3    H113160   1.481   7.033   6.749
 4401TIP3    H213161   1.509   6.981   6.888
 4402TIP3   OH213162   3.591   7.663   5.955
 4402TIP3    H113163   3.663   7.676   5.893
 4402TIP3    H213164   3.599   7.572   5.983
 4403TIP3   OH213165   6.483   3.168   3.578
 4403TIP3    H113166   6.534   3.163   3.497
 4403TIP3    H213167   6.508   3.252   3.617
 4404TIP3   OH213168   7.139   3.888   3.916
 4404TIP3    H113169   7.153   3.800   3.950
 4404TIP3    H213170   7.201   3.897   3.844
 4405TIP3   OH213171   5.613   4.332   5.770
 4405TIP3    H113172   5.693   4.370   5.806
 4405TIP3    H213173   5.549   4.403   5.772
 4406TIP3   OH213174   5.976   6.803   0.016
 4406TIP3    H113175   5.889   6.801   0.057
 4406TIP3    H213176   6.012   6.716   0.031
 4407TIP3   OH213177   0.609   4.025   6.514
 4407TIP3    H113178   0.697   4.051   6.487
 4407TIP3    H213179   0.554   4.099   6.490
 4408TIP3   OH213180   8.304   6.829   5.990
 4408TIP3    H113181   8.225   6.818   5.936
 4408TIP3    H213182   8.316   6.744   6.032
 4409TIP3   OH213183   6.967   3.522   3.731
 4409TIP3    H113184   7.023   3.460   3.684
 4409TIP3    H213185   6.976   3.498   3.823
 4410TIP3   OH213186   4.880   3.132  -0.014
 4410TIP3    H113187   4.847   3.195   0.050
 4410TIP3    H213188   4.862   3.173  -0.099
 4411TIP3   OH213189   0.466   6.836   3.523
 4411TIP3    H113190   0.406   6.910   3.528
 4411TIP3    H213191   0.486   6.814   3.614
 4412TIP3   OH213192   1.148   4.681   6.503
 4412TIP3    H113193   1.199   4.627   6.563
 4412TIP3    H213194   1.197   4.762   6.496
 4413TIP3   OH213195   1.384   4.046   2.227
 4413TIP3    H113196   1.445   3.990   2.177
 4413TIP3    H213197   1.431   4.065   2.308
 4414TIP3   OH213198   0.872   3.060   3.294
 4414TIP3    H113199   0.921   2.990   3.338
 4414TIP3    H213200   0.781   3.046   3.320
 4415TIP3   OH213201   5.897   5.536   3.711
 4415TIP3    H113202   5.881   5.630   3.714
 4415TIP3    H213203   5.961   5.521   3.780
 4416TIP3   OH213204   5.852   6.014   0.381
 4416TIP3    H113205   5.915   6.084   0.366
 4416TIP3    H213206   5.775   6.058   0.416
 4417TIP3   OH213207   2.326   4.618   5.214
 4417TIP3    H113208   2.415   4.584   5.223
 4417TIP3    H213209   2.331   4.708   5.246
 4418TIP3   OH213210   4.246   5.374   4.217
 4418TIP3    H113211   4.163   5.420   4.207
 4418TIP3    H213212   4.231   5.314   4.290
 4419TIP3   OH213213   4.949   4.435   4.441
 4419TIP3    H113214   5.012   4.452   4.371
 4419TIP3    H213215   4.957   4.341   4.457
 4420TIP3   OH213216   1.609   7.119   6.411
 4420TIP3    H113217   1.553   7.171   6.469
 4420TIP3    H213218   1.619   7.173   6.332
 4421TIP3   OH213219   8.213   7.715   0.610
 4421TIP3    H113220   8.174   7.773   0.545
 4421TIP3    H213221   8.205   7.763   0.693
 4422TIP3   OH213222   3.267   6.439   3.098
 4422TIP3    H113223   3.241   6.449   3.190
 4422TIP3    H213224   3.252   6.525   3.059
 4423TIP3   OH213225   3.828   0.464   4.602
 4423TIP3    H113226   3.818   0.528   4.672
 4423TIP3    H213227   3.743   0.422   4.594
 4424TIP3   OH213228   7.533   0.376   0.587
 4424TIP3    H113229   7.628   0.371   0.578
 4424TIP3    H213230   7.505   0.285   0.584
 4425TIP3   OH213231   0.372   0.678   1.775
 4425TIP3    H113232   0.363   0.716   1.862
 4425TIP3    H213233   0.414   0.593   1.790
 4426TIP3   OH213234   1.992   2.068   6.634
 4426TIP3    H113235   1.911   2.019   6.622
 4426TIP3    H213236   1.986   2.140   6.571
 4427TIP3   OH213237   7.441   2.893   0.165
 4427TIP3    H113238   7.506   2.963   0.161
 4427TIP3    H213239   7.406   2.887   0.076
 4428TIP3   OH213240   7.197   3.561   0.746
 4428TIP3    H113241   7.278   3.611   0.752
 4428TIP3    H213242   7.214   3.480   0.794
 4429TIP3   OH213243   7.018   0.817   2.517
 4429TIP3    H113244   6.957   0.744   2.514
 4429TIP3    H213245   7.019   0.850   2.427
 4430TIP3   OH213246   6.649   3.184   5.654
 4430TIP3    H113247   6.607   3.269   5.664
 4430TIP3    H213248   6.652   3.170   5.559
 4431TIP3   OH213249   6.319   7.616   2.620
 4431TIP3    H113250   6.375   7.650   2.551
 4431TIP3    H213251   6.344   7.665   2.699
 4432TIP3   OH213252   5.888   2.944   4.936
 4432TIP3    H113253   5.953   2.875   4.924
 4432TIP3    H213254   5.923   2.999   5.006
 4433TIP3   OH213255   0.414   6.435   2.246
 4433TIP3    H113256   0.327   6.434   2.286
 4433TIP3    H213257   0.427   6.345   2.215
 4434TIP3   OH213258   2.019   3.492   5.587
 4434TIP3    H113259   2.053   3.534   5.666
 4434TIP3    H213260   2.038   3.399   5.599
 4435TIP3   OH213261   0.399   0.103   1.769
 4435TIP3    H113262   0.443   0.167   1.825
 4435TIP3    H213263   0.328   0.069   1.823
 4436TIP3   OH213264   0.979   1.956   3.892
 4436TIP3    H113265   1.007   1.891   3.828
 4436TIP3    H213266   0.912   2.007   3.847
 4437TIP3   OH213267   4.618   2.866   0.038
 4437TIP3    H113268   4.586   2.887  -0.050
 4437TIP3    H213269   4.614   2.949   0.085
 4438TIP3   OH213270   6.349   7.246   6.598
 4438TIP3    H113271   6.277   7.308   6.609
 4438TIP3    H213272   6.390   7.242   6.685
 4439TIP3   OH213273   7.367   1.364   2.889
 4439TIP3    H113274   7.303   1.296   2.869
 4439TIP3    H213275   7.441   1.316   2.927
 4440TIP3   OH213276   2.552   4.732   3.234
 4440TIP3    H113277   2.631   4.682   3.213
 4440TIP3    H213278   2.492   4.714   3.162
 4441TIP3   OH213279   4.006   3.948   6.682
 4441TIP3    H113280   4.011   4.014   6.614
 4441TIP3    H213281   3.912   3.933   6.694
 4442TIP3   OH213282   6.613   2.774   6.402
 4442TIP3    H113283   6.552   2.796   6.332
 4442TIP3    H213284   6.558   2.772   6.481
 4443TIP3   OH213285   0.722   7.592   1.669
 4443TIP3    H113286   0.722   7.599   1.764
 4443TIP3    H213287   0.633   7.566   1.646
 4444TIP3   OH213288   1.188   7.493   5.003
 4444TIP3    H113289   1.204   7.403   5.031
 4444TIP3    H213290   1.276   7.531   4.991
 4445TIP3   OH213291   5.624   0.372   6.539
 4445TIP3    H113292   5.578   0.289   6.535
 4445TIP3    H213293   5.623   0.396   6.631
 4446TIP3   OH213294   0.308   4.215   5.234
 4446TIP3    H113295   0.272   4.142   5.183
 4446TIP3    H213296   0.381   4.248   5.182
 4447TIP3   OH213297   5.498   5.540   5.166
 4447TIP3    H113298   5.574   5.493   5.201
 4447TIP3    H213299   5.518   5.632   5.182
 4448TIP3   OH213300   4.062   2.865   2.658
 4448TIP3    H113301   4.031   2.811   2.585
 4448TIP3    H213302   4.151   2.890   2.633
 4449TIP3   OH213303   3.245   6.461   5.365
 4449TIP3    H113304   3.202   6.478   5.281
 4449TIP3    H213305   3.338   6.481   5.348
 4450TIP3   OH213306   1.996   1.582   3.820
 4450TIP3    H113307   1.972   1.576   3.913
 4450TIP3    H213308   1.981   1.494   3.786
 4451TIP3   OH213309   7.604   3.186   2.821
 4451TIP3    H113310   7.639   3.146   2.900
 4451TIP3    H213311   7.678   3.235   2.784
 4452TIP3   OH213312   8.126   2.155   4.072
 4452TIP3    H113313   8.208   2.120   4.036
 4452TIP3    H213314   8.108   2.101   4.149
 4453TIP3   OH213315   3.412   0.661   5.040
 4453TIP3    H113316   3.408   0.736   5.100
 4453TIP3    H213317   3.428   0.699   4.954
 4454TIP3   OH213318   0.661   4.697   6.605
 4454TIP3    H113319   0.702   4.752   6.671
 4454TIP3    H213320   0.734   4.659   6.556
 4455TIP3   OH213321   0.867   4.755   5.802
 4455TIP3    H113322   0.815   4.719   5.730
 4455TIP3    H213323   0.948   4.704   5.801
 4456TIP3   OH213324   6.130   6.810   2.274
 4456TIP3    H113325   6.144   6.866   2.350
 4456TIP3    H213326   6.187   6.846   2.206
 4457TIP3   OH213327   0.702   1.353   5.567
 4457TIP3    H113328   0.693   1.322   5.657
 4457TIP3    H213329   0.717   1.447   5.576
 4458TIP3   OH213330   5.475   7.211   2.971
 4458TIP3    H113331   5.470   7.120   2.942
 4458TIP3    H213332   5.488   7.205   3.066
 4459TIP3   OH213333   2.813   7.217   2.599
 4459TIP3    H113334   2.866   7.274   2.654
 4459TIP3    H213335   2.774   7.154   2.659
 4460TIP3   OH213336   4.569   1.064   2.875
 4460TIP3    H113337   4.487   1.105   2.846
 4460TIP3    H213338   4.566   0.976   2.837
 4461TIP3   OH213339   8.085   1.711   2.282
 4461TIP3    H113340   8.001   1.731   2.240
 4461TIP3    H213341   8.149   1.716   2.211
 4462TIP3   OH213342   4.062   0.515   1.789
 4462TIP3    H113343   4.120   0.486   1.860
 4462TIP3    H213344   3.989   0.557   1.834
 4463TIP3   OH213345   3.400   5.698   0.591
 4463TIP3    H113346   3.358   5.758   0.652
 4463TIP3    H213347   3.493   5.702   0.613
 4464TIP3   OH213348   1.368   4.803   6.757
 4464TIP3    H113349   1.319   4.722   6.771
 4464TIP3    H213350   1.373   4.812   6.661
 4465TIP3   OH213351   6.361   4.660   2.203
 4465TIP3    H113352   6.340   4.690   2.115
 4465TIP3    H213353   6.279   4.624   2.236
 4466TIP3   OH213354   6.029   2.218   3.613
 4466TIP3    H113355   6.102   2.228   3.552
 4466TIP3    H213356   5.952   2.217   3.558
 4467TIP3   OH213357   0.506   4.543   4.143
 4467TIP3    H113358   0.547   4.629   4.131
 4467TIP3    H213359   0.433   4.542   4.082
 4468TIP3   OH213360   2.122   0.007   6.299
 4468TIP3    H113361   2.178   0.085   6.300
 4468TIP3    H213362   2.148  -0.041   6.378
 4469TIP3   OH213363   4.460   5.703   3.194
 4469TIP3    H113364   4.482   5.674   3.282
 4469TIP3    H213365   4.403   5.779   3.208
 4470TIP3   OH213366   0.351   2.896   0.979
 4470TIP3    H113367   0.398   2.821   0.943
 4470TIP3    H213368   0.420   2.955   1.011
 4471TIP3   OH213369   7.598   5.127   4.057
 4471TIP3    H113370   7.549   5.171   4.126
 4471TIP3    H213371   7.684   5.109   4.097
 4472TIP3   OH213372   6.090   4.173   4.740
 4472TIP3    H113373   6.118   4.253   4.696
 4472TIP3    H213374   6.026   4.203   4.804
 4473TIP3   OH213375   2.063   4.428   4.308
 4473TIP3    H113376   2.011   4.453   4.232
 4473TIP3    H213377   2.116   4.505   4.328
 4474TIP3   OH213378   0.977   7.538   6.174
 4474TIP3    H113379   1.061   7.545   6.130
 4474TIP3    H213380   0.925   7.481   6.117
 4475TIP3   OH213381   0.924   4.800   1.113
 4475TIP3    H113382   0.866   4.821   1.040
 4475TIP3    H213383   0.993   4.746   1.074
 4476TIP3   OH213384   5.393   1.756   6.385
 4476TIP3    H113385   5.433   1.688   6.331
 4476TIP3    H213386   5.355   1.708   6.458
 4477TIP3   OH213387   0.597   4.972   2.374
 4477TIP3    H113388   0.513   4.939   2.343
 4477TIP3    H213389   0.612   4.927   2.458
 4478TIP3   OH213390   8.146   7.614   1.191
 4478TIP3    H113391   8.234   7.617   1.153
 4478TIP3    H213392   8.140   7.528   1.233
 4479TIP3   OH213393   4.165   2.759   2.413
 4479TIP3    H113394   4.167   2.758   2.317
 4479TIP3    H213395   4.253   2.732   2.440
 4480TIP3   OH213396   5.528   6.202   3.664
 4480TIP3    H113397   5.542   6.115   3.627
 4480TIP3    H213398   5.442   6.198   3.705
 4481TIP3   OH213399   4.248   7.552   4.545
 4481TIP3    H113400   4.205   7.480   4.500
 4481TIP3    H213401   4.340   7.545   4.520
 4482TIP3   OH213402   6.437   2.192   0.212
 4482TIP3    H113403   6.445   2.107   0.256
 4482TIP3    H213404   6.469   2.175   0.123
 4483TIP3   OH213405   1.286   6.284   4.865
 4483TIP3    H113406   1.340   6.208   4.844
 4483TIP3    H213407   1.260   6.270   4.957
 4484TIP3   OH213408   6.616   0.030   0.500
 4484TIP3    H113409   6.637   0.120   0.475
 4484TIP3    H213410   6.582  -0.010   0.419
 4485TIP3   OH213411   4.096   2.180   5.116
 4485TIP3    H113412   4.041   2.245   5.072
 4485TIP3    H213413   4.178   2.226   5.134
 4486TIP3   OH213414   0.115   5.727   5.167
 4486TIP3    H113415   0.151   5.815   5.165
 4486TIP3    H213416   0.080   5.717   5.256
 4487TIP3   OH213417   6.915   6.572   3.585
 4487TIP3    H113418   6.948   6.523   3.509
 4487TIP3    H213419   6.988   6.571   3.647
 4488TIP3   OH213420   7.115   5.605   6.346
 4488TIP3    H113421   7.059   5.573   6.417
 4488TIP3    H213422   7.126   5.530   6.288
 4489TIP3   OH213423   2.866   5.437   1.174
 4489TIP3    H113424   2.811   5.360   1.156
 4489TIP3    H213425   2.894   5.425   1.265
 4490TIP3   OH213426   5.603   4.809   2.704
 4490TIP3    H113427   5.629   4.896   2.735
 4490TIP3    H213428   5.679   4.778   2.654
 4491TIP3   OH213429   6.906   1.575   2.989
 4491TIP3    H113430   6.970   1.646   2.997
 4491TIP3    H213431   6.957   1.499   2.962
 4492TIP3   OH213432   5.562   5.195   4.704
 4492TIP3    H113433   5.596   5.107   4.722
 4492TIP3    H213434   5.638   5.252   4.713
 4493TIP3   OH213435   2.275   1.858   5.721
 4493TIP3    H113436   2.360   1.878   5.681
 4493TIP3    H213437   2.216   1.925   5.686
 4494TIP3   OH213438   5.089   4.410   3.639
 4494TIP3    H113439   5.021   4.478   3.634
 4494TIP3    H213440   5.068   4.361   3.718
 4495TIP3   OH213441   3.786   4.264   2.326
 4495TIP3    H113442   3.702   4.251   2.370
 4495TIP3    H213443   3.781   4.208   2.248
 4496TIP3   OH213444   7.720   2.413   3.499
 4496TIP3    H113445   7.674   2.482   3.452
 4496TIP3    H213446   7.657   2.342   3.508
 4497TIP3   OH213447   1.501   5.008   4.427
 4497TIP3    H113448   1.426   4.953   4.448
 4497TIP3    H213449   1.467   5.073   4.366
 4498TIP3   OH213450   2.315   4.904   2.559
 4498TIP3    H113451   2.227   4.926   2.589
 4498TIP3    H213452   2.356   4.988   2.541
 4499TIP3   OH213453   1.929   7.805   3.029
 4499TIP3    H113454   1.903   7.719   2.997
 4499TIP3    H213455   2.011   7.824   2.984
 4500TIP3   OH213456   2.718   1.367   3.299
 4500TIP3    H113457   2.808   1.397   3.286
 4500TIP3    H213458   2.666   1.447   3.298
 4501TIP3   OH213459   0.878   1.359   6.013
 4501TIP3    H113460   0.832   1.317   5.940
 4501TIP3    H213461   0.852   1.307   6.089
 4502TIP3   OH213462   0.329   3.821   2.099
 4502TIP3    H113463   0.405   3.809   2.042
 4502TIP3    H213464   0.271   3.879   2.050
 4503TIP3   OH213465   5.107   2.093   2.722
 4503TIP3    H113466   5.196   2.116   2.749
 4503TIP3    H213467   5.061   2.177   2.719
 4504TIP3   OH213468   1.627   0.845   3.456
 4504TIP3    H113469   1.581   0.848   3.540
 4504TIP3    H213470   1.717   0.867   3.476
 4505TIP3   OH213471   3.863   3.673   4.537
 4505TIP3    H113472   3.826   3.747   4.487
 4505TIP3    H213473   3.797   3.604   4.528
 4506TIP3   OH213474   7.877   6.410   3.534
 4506TIP3    H113475   7.857   6.322   3.502
 4506TIP3    H213476   7.793   6.443   3.565
 4507TIP3   OH213477   4.114   0.370   0.206
 4507TIP3    H113478   4.096   0.276   0.206
 4507TIP3    H213479   4.208   0.376   0.195
 4508TIP3   OH213480   5.368   7.490   2.673
 4508TIP3    H113481   5.334   7.517   2.588
 4508TIP3    H213482   5.333   7.401   2.685
 4509TIP3   OH213483   4.466   7.509   4.362
 4509TIP3    H113484   4.531   7.573   4.389
 4509TIP3    H213485   4.472   7.507   4.267
 4510TIP3   OH213486   7.704   4.039   6.270
 4510TIP3    H113487   7.618   4.006   6.295
 4510TIP3    H213488   7.760   3.962   6.268
 4511TIP3   OH213489   4.340   4.122   5.750
 4511TIP3    H113490   4.329   4.200   5.803
 4511TIP3    H213491   4.426   4.132   5.708
 4512TIP3   OH213492   1.195   5.885   4.224
 4512TIP3    H113493   1.181   5.980   4.215
 4512TIP3    H213494   1.206   5.853   4.135
 4513TIP3   OH213495   0.802   5.936   2.246
 4513TIP3    H113496   0.878   5.881   2.266
 4513TIP3    H213497   0.741   5.878   2.200
 4514TIP3   OH213498   1.705   6.667   5.821
 4514TIP3    H113499   1.796   6.698   5.823
 4514TIP3    H213500   1.699   6.605   5.894
 4515TIP3   OH213501   3.042   1.304   4.410
 4515TIP3    H113502   2.987   1.374   4.446
 4515TIP3    H213503   3.120   1.305   4.465
 4516TIP3   OH213504   2.811   0.313   3.606
 4516TIP3    H113505   2.831   0.250   3.536
 4516TIP3    H213506   2.845   0.271   3.685
 4517TIP3   OH213507   1.314   5.168   3.840
 4517TIP3    H113508   1.276   5.232   3.900
 4517TIP3    H213509   1.327   5.089   3.893
 4518TIP3   OH213510   0.260   1.746   0.546
 4518TIP3    H113511   0.250   1.652   0.563
 4518TIP3    H213512   0.354   1.757   0.528
 4519TIP3   OH213513   6.123   4.404   4.575
 4519TIP3    H113514   6.114   4.485   4.625
 4519TIP3    H213515   6.177   4.429   4.499
 4520TIP3   OH213516   3.717   5.103   5.736
 4520TIP3    H113517   3.622   5.110   5.738
 4520TIP3    H213518   3.735   5.014   5.706
 4521TIP3   OH213519   4.112   6.508   1.152
 4521TIP3    H113520   4.063   6.590   1.157
 4521TIP3    H213521   4.054   6.442   1.190
 4522TIP3   OH213522   2.246   4.822   4.568
 4522TIP3    H113523   2.154   4.838   4.589
 4522TIP3    H213524   2.278   4.764   4.637
 4523TIP3   OH213525   7.323   6.221   3.172
 4523TIP3    H113526   7.305   6.311   3.199
 4523TIP3    H213527   7.357   6.228   3.083
 4524TIP3   OH213528   0.239   6.515   1.905
 4524TIP3    H113529   0.296   6.490   1.832
 4524TIP3    H213530   0.288   6.583   1.951
 4525TIP3   OH213531   4.547   4.069   1.665
 4525TIP3    H113532   4.638   4.091   1.645
 4525TIP3    H213533   4.497   4.144   1.635
 4526TIP3   OH213534   5.014   3.096   4.137
 4526TIP3    H113535   5.101   3.137   4.132
 4526TIP3    H213536   5.028   3.008   4.100
 4527TIP3   OH213537   5.501   5.601   6.186
 4527TIP3    H113538   5.543   5.654   6.254
 4527TIP3    H213539   5.489   5.661   6.112
 4528TIP3   OH213540   3.897   4.824   6.479
 4528TIP3    H113541   3.980   4.863   6.453
 4528TIP3    H213542   3.922   4.747   6.531
 4529TIP3   OH213543   0.779   5.334   5.811
 4529TIP3    H113544   0.690   5.300   5.816
 4529TIP3    H213545   0.798   5.339   5.718
 4530TIP3   OH213546   0.980   5.713   2.266
 4530TIP3    H113547   0.995   5.653   2.339
 4530TIP3    H213548   1.063   5.760   2.256
 4531TIP3   OH213549   1.155   4.506   0.351
 4531TIP3    H113550   1.066   4.541   0.341
 4531TIP3    H213551   1.204   4.547   0.279
 4532TIP3   OH213552   3.262   4.819   5.910
 4532TIP3    H113553   3.231   4.746   5.964
 4532TIP3    H213554   3.260   4.785   5.820
 4533TIP3   OH213555   6.811   0.771   6.654
 4533TIP3    H113556   6.774   0.747   6.739
 4533TIP3    H213557   6.762   0.849   6.628
 4534TIP3   OH213558   2.047   6.989   2.145
 4534TIP3    H113559   1.962   7.002   2.186
 4534TIP3    H213560   2.031   6.928   2.074
 4535TIP3   OH213561   5.209   1.117   5.017
 4535TIP3    H113562   5.239   1.082   4.933
 4535TIP3    H213563   5.129   1.068   5.036
 4536TIP3   OH213564   2.208   4.620   1.623
 4536TIP3    H113565   2.181   4.611   1.715
 4536TIP3    H213566   2.283   4.680   1.626
 4537TIP3   OH213567   5.398   3.699   1.451
 4537TIP3    H113568   5.436   3.780   1.417
 4537TIP3    H213569   5.467   3.634   1.441
 4538TIP3   OH213570   6.529   6.264   2.035
 4538TIP3    H113571   6.491   6.179   2.013
 4538TIP3    H213572   6.531   6.265   2.131
 4539TIP3   OH213573   1.149   3.023   3.955
 4539TIP3    H113574   1.139   2.960   3.883
 4539TIP3    H213575   1.068   3.015   4.005
 4540TIP3   OH213576   5.638   0.562   6.349
 4540TIP3    H113577   5.655   0.482   6.399
 4540TIP3    H213578   5.595   0.620   6.412
 4541TIP3   OH213579   5.617   2.428   5.543
 4541TIP3    H113580   5.689   2.423   5.606
 4541TIP3    H213581   5.639   2.502   5.487
 4542TIP3   OH213582   2.072   0.575   3.857
 4542TIP3    H113583   1.984   0.540   3.866
 4542TIP3    H213584   2.107   0.576   3.946
 4543TIP3   OH213585   2.196   3.380   3.198
 4543TIP3    H113586   2.223   3.443   3.131
 4543TIP3    H213587   2.252   3.304   3.182
 4544TIP3   OH213588   4.557   1.779   5.508
 4544TIP3    H113589   4.615   1.813   5.440
 4544TIP3    H213590   4.613   1.773   5.586
 4545TIP3   OH213591   0.097   1.365   1.662
 4545TIP3    H113592   0.133   1.317   1.588
 4545TIP3    H213593   0.008   1.330   1.673
 4546TIP3   OH213594   3.102   5.045   5.387
 4546TIP3    H113595   3.106   5.096   5.307
 4546TIP3    H213596   3.015   5.005   5.386
 4547TIP3   OH213597   4.938   7.286   3.392
 4547TIP3    H113598   4.967   7.275   3.483
 4547TIP3    H213599   4.852   7.244   3.390
 4548TIP3   OH213600   7.849   2.251   0.462
 4548TIP3    H113601   7.896   2.314   0.517
 4548TIP3    H213602   7.766   2.294   0.442
 4549TIP3   OH213603   7.743   2.560   1.027
 4549TIP3    H113604   7.772   2.501   0.957
 4549TIP3    H213605   7.702   2.634   0.982
 4550TIP3   OH213606   5.235   6.026   5.922
 4550TIP3    H113607   5.253   6.010   6.015
 4550TIP3    H213608   5.255   6.119   5.910
 4551TIP3   OH213609   0.494   5.717   1.193
 4551TIP3    H113610   0.521   5.662   1.119
 4551TIP3    H213611   0.466   5.654   1.260
 4552TIP3   OH213612   4.287   2.388   1.712
 4552TIP3    H113613   4.205   2.364   1.667
 4552TIP3    H213614   4.260   2.450   1.779
 4553TIP3   OH213615   1.749   6.715   6.189
 4553TIP3    H113616   1.692   6.732   6.263
 4553TIP3    H213617   1.729   6.625   6.164
 4554TIP3   OH213618   0.936   7.286   0.050
 4554TIP3    H113619   0.851   7.307   0.012
 4554TIP3    H213620   0.930   7.193   0.072
 4555TIP3   OH213621   8.348   6.553   6.106
 4555TIP3    H113622   8.255   6.538   6.120
 4555TIP3    H213623   8.389   6.528   6.190
 4556TIP3   OH213624   2.270   5.562   6.647
 4556TIP3    H113625   2.221   5.481   6.663
 4556TIP3    H213626   2.202   5.629   6.639
 4557TIP3   OH213627   2.219   6.709   4.968
 4557TIP3    H113628   2.309   6.675   4.976
 4557TIP3    H213629   2.178   6.652   4.903
 4558TIP3   OH213630   3.312   3.493   3.539
 4558TIP3    H113631   3.381   3.494   3.473
 4558TIP3    H213632   3.287   3.585   3.550
 4559TIP3   OH213633   0.252   3.522   3.549
 4559TIP3    H113634   0.167   3.533   3.592
 4559TIP3    H213635   0.238   3.552   3.459
 4560TIP3   OH213636   2.335   5.731   3.144
 4560TIP3    H113637   2.361   5.819   3.171
 4560TIP3    H213638   2.390   5.711   3.069
 4561TIP3   OH213639   6.484   1.095   0.618
 4561TIP3    H113640   6.439   1.175   0.589
 4561TIP3    H213641   6.524   1.061   0.538
 4562TIP3   OH213642   6.531   2.553   5.406
 4562TIP3    H113643   6.564   2.490   5.470
 4562TIP3    H213644   6.586   2.631   5.418
 4563TIP3   OH213645   3.453   4.438   6.620
 4563TIP3    H113646   3.441   4.427   6.714
 4563TIP3    H213647   3.439   4.350   6.584
 4564TIP3   OH213648   2.187   1.604   5.745
 4564TIP3    H113649   2.111   1.609   5.687
 4564TIP3    H213650   2.228   1.690   5.737
 4565TIP3   OH213651   0.359   4.938   0.473
 4565TIP3    H113652   0.380   5.027   0.445
 4565TIP3    H213653   0.403   4.881   0.410
 4566TIP3   OH213654   5.031   4.614   3.916
 4566TIP3    H113655   5.006   4.632   4.007
 4566TIP3    H213656   5.031   4.518   3.910
 4567TIP3   OH213657   6.626   3.612   6.203
 4567TIP3    H113658   6.571   3.670   6.254
 4567TIP3    H213659   6.599   3.524   6.229
 4568TIP3   OH213660   2.975   5.577   2.944
 4568TIP3    H113661   2.917   5.594   3.018
 4568TIP3    H213662   2.916   5.571   2.868
 4569TIP3   OH213663   2.222   3.152   3.916
 4569TIP3    H113664   2.159   3.152   3.988
 4569TIP3    H213665   2.260   3.240   3.916
 4570TIP3   OH213666   1.838   1.655   0.256
 4570TIP3    H113667   1.771   1.707   0.302
 4570TIP3    H213668   1.794   1.624   0.177
 4571TIP3   OH213669   2.298   1.468   4.514
 4571TIP3    H113670   2.248   1.521   4.575
 4571TIP3    H213671   2.235   1.408   4.476
 4572TIP3   OH213672   5.179   0.269   0.051
 4572TIP3    H113673   5.230   0.328  -0.005
 4572TIP3    H213674   5.149   0.325   0.123
 4573TIP3   OH213675   6.218   3.841   1.689
 4573TIP3    H113676   6.261   3.895   1.755
 4573TIP3    H213677   6.261   3.863   1.607
 4574TIP3   OH213678   0.086   6.454   2.160
 4574TIP3    H113679   0.057   6.544   2.146
 4574TIP3    H213680   0.152   6.439   2.092
 4575TIP3   OH213681   4.146   6.826   0.814
 4575TIP3    H113682   4.064   6.843   0.768
 4575TIP3    H213683   4.138   6.874   0.896
 4576TIP3   OH213684   6.247   3.069   1.798
 4576TIP3    H113685   6.267   3.043   1.709
 4576TIP3    H213686   6.330   3.102   1.833
 4577TIP3   OH213687   2.357   3.332   0.037
 4577TIP3    H113688   2.339   3.343  -0.057
 4577TIP3    H213689   2.449   3.305   0.041
 4578TIP3   OH213690   2.936   7.437   3.040
 4578TIP3    H113691   2.846   7.434   3.074
 4578TIP3    H213692   2.950   7.351   3.001
 4579TIP3   OH213693   3.721   3.704   5.200
 4579TIP3    H113694   3.814   3.723   5.189
 4579TIP3    H213695   3.698   3.652   5.122
 4580TIP3   OH213696   0.270   5.668   0.672
 4580TIP3    H113697   0.297   5.758   0.653
 4580TIP3    H213698   0.344   5.615   0.644
 4581TIP3   OH213699   3.001   4.613   5.888
 4581TIP3    H113700   3.059   4.607   5.964
 4581TIP3    H213701   3.052   4.576   5.815
 4582TIP3   OH213702   5.797   5.373   4.450
 4582TIP3    H113703   5.770   5.301   4.393
 4582TIP3    H213704   5.837   5.437   4.391
 4583TIP3   OH213705   2.806   1.779   3.748
 4583TIP3    H113706   2.882   1.833   3.724
 4583TIP3    H213707   2.788   1.804   3.839
 4584TIP3   OH213708   7.940   7.780   5.985
 4584TIP3    H113709   7.909   7.868   6.002
 4584TIP3    H213710   7.986   7.755   6.065
 4585TIP3   OH213711   1.319   7.087   0.105
 4585TIP3    H113712   1.255   7.103   0.175
 4585TIP3    H213713   1.329   7.172   0.062
 4586TIP3   OH213714   5.977   4.362   3.890
 4586TIP3    H113715   5.981   4.455   3.913
 4586TIP3    H213716   5.996   4.360   3.796
 4587TIP3   OH213717   2.006   1.024   4.918
 4587TIP3    H113718   1.940   0.994   4.856
 4587TIP3    H213719   1.956   1.049   4.996
 4588TIP3   OH213720   1.158   7.837   2.424
 4588TIP3    H113721   1.077   7.888   2.422
 4588TIP3    H213722   1.175   7.815   2.332
 4589TIP3   OH213723   6.957   0.382   0.161
 4589TIP3    H113724   7.027   0.444   0.144
 4589TIP3    H213725   6.998   0.296   0.153
 4590TIP3   OH213726   6.342   4.922   6.282
 4590TIP3    H113727   6.294   4.872   6.216
 4590TIP3    H213728   6.414   4.864   6.308
 4591TIP3   OH213729   5.376   1.272   2.226
 4591TIP3    H113730   5.282   1.252   2.232
 4591TIP3    H213731   5.420   1.189   2.241
 4592TIP3   OH213732   4.181   4.669   4.843
 4592TIP3    H113733   4.217   4.674   4.755
 4592TIP3    H213734   4.180   4.759   4.875
 4593TIP3   OH213735   7.953   5.665   5.341
 4593TIP3    H113736   8.018   5.618   5.394
 4593TIP3    H213737   7.900   5.712   5.405
 4594TIP3   OH213738   1.393   5.147   5.977
 4594TIP3    H113739   1.431   5.224   6.020
 4594TIP3    H213740   1.379   5.175   5.887
 4595TIP3   OH213741   0.146   3.974   6.348
 4595TIP3    H113742   0.209   3.944   6.413
 4595TIP3    H213743   0.177   4.061   6.323
 4596TIP3   OH213744   2.812   6.479   5.857
 4596TIP3    H113745   2.725   6.444   5.838
 4596TIP3    H213746   2.812   6.492   5.952
 4597TIP3   OH213747   0.838   6.496   2.705
 4597TIP3    H113748   0.753   6.496   2.662
 4597TIP3    H213749   0.840   6.415   2.756
 4598TIP3   OH213750   2.797   7.045   0.787
 4598TIP3    H113751   2.767   7.121   0.838
 4598TIP3    H213752   2.787   6.971   0.847
 4599TIP3   OH213753   2.111   1.913   4.830
 4599TIP3    H113754   2.089   1.964   4.752
 4599TIP3    H213755   2.091   1.972   4.903
 4600TIP3   OH213756   7.106   3.541   1.187
 4600TIP3    H113757   7.196   3.516   1.163
 4600TIP3    H213758   7.071   3.464   1.232
 4601TIP3   OH213759   2.025   3.289   2.167
 4601TIP3    H113760   1.938   3.329   2.166
 4601TIP3    H213761   2.014   3.210   2.221
 4602TIP3   OH213762   4.700   7.136   2.984
 4602TIP3    H113763   4.766   7.116   2.918
 4602TIP3    H213764   4.725   7.222   3.018
 4603TIP3   OH213765   3.329   0.167   0.182
 4603TIP3    H113766   3.385   0.161   0.104
 4603TIP3    H213767   3.244   0.135   0.154
 4604TIP3   OH213768   6.129   6.126   2.056
 4604TIP3    H113769   6.113   6.032   2.042
 4604TIP3    H213770   6.052   6.156   2.105
 4605TIP3   OH213771   3.825   1.879   2.655
 4605TIP3    H113772   3.764   1.866   2.728
 4605TIP3    H213773   3.866   1.964   2.673
 4606TIP3   OH213774   3.765   4.114   2.061
 4606TIP3    H113775   3.828   4.184   2.044
 4606TIP3    H213776   3.714   4.107   1.981
 4607TIP3   OH213777   6.289   1.590   0.599
 4607TIP3    H113778   6.322   1.674   0.569
 4607TIP3    H213779   6.294   1.595   0.695
 4608TIP3   OH213780   2.686   5.089   6.298
 4608TIP3    H113781   2.630   5.078   6.221
 4608TIP3    H213782   2.700   5.001   6.331
 4609TIP3   OH213783   7.647   1.986   4.368
 4609TIP3    H113784   7.568   1.980   4.314
 4609TIP3    H213785   7.633   1.921   4.437
 4610TIP3   OH213786   1.234   0.988   3.720
 4610TIP3    H113787   1.221   0.999   3.814
 4610TIP3    H213788   1.154   1.022   3.680
 4611TIP3   OH213789   6.981   0.407   4.790
 4611TIP3    H113790   7.042   0.344   4.751
 4611TIP3    H213791   6.965   0.471   4.721
 4612TIP3   OH213792   0.498   6.984   5.683
 4612TIP3    H113793   0.441   6.909   5.700
 4612TIP3    H213794   0.438   7.055   5.660
 4613TIP3   OH213795   4.471   3.331   6.610
 4613TIP3    H113796   4.462   3.311   6.703
 4613TIP3    H213797   4.566   3.334   6.595
 4614TIP3   OH213798   7.071   4.359   2.974
 4614TIP3    H113799   7.130   4.318   3.037
 4614TIP3    H213800   7.128   4.408   2.916
 4615TIP3   OH213801   5.798   1.588   1.719
 4615TIP3    H113802   5.721   1.531   1.722
 4615TIP3    H213803   5.869   1.534   1.754
 4616TIP3   OH213804   6.524   0.910   2.968
 4616TIP3    H113805   6.437   0.869   2.968
 4616TIP3    H213806   6.530   0.952   3.054
 4617TIP3   OH213807   4.645   0.286   6.408
 4617TIP3    H113808   4.610   0.218   6.465
 4617TIP3    H213809   4.740   0.284   6.425
 4618TIP3   OH213810   3.682   6.857   0.248
 4618TIP3    H113811   3.775   6.846   0.270
 4618TIP3    H213812   3.648   6.914   0.317
 4619TIP3   OH213813   0.721   2.365   5.070
 4619TIP3    H113814   0.715   2.345   4.976
 4619TIP3    H213815   0.660   2.303   5.111
 4620TIP3   OH213816   7.771   3.011   2.442
 4620TIP3    H113817   7.763   3.086   2.383
 4620TIP3    H213818   7.783   2.936   2.384
 4621TIP3   OH213819   0.950   2.900   1.801
 4621TIP3    H113820   0.993   2.932   1.721
 4621TIP3    H213821   0.857   2.900   1.780
 4622TIP3   OH213822   5.133   7.509   3.374
 4622TIP3    H113823   5.212   7.519   3.427
 4622TIP3    H213824   5.088   7.434   3.413
 4623TIP3   OH213825   7.751   7.120   5.226
 4623TIP3    H113826   7.719   7.168   5.149
 4623TIP3    H213827   7.686   7.050   5.238
 4624TIP3   OH213828   0.227   0.516   1.581
 4624TIP3    H113829   0.306   0.472   1.550
 4624TIP3    H213830   0.259   0.593   1.628
 4625TIP3   OH213831   8.005   1.320   6.028
 4625TIP3    H113832   8.009   1.275   6.113
 4625TIP3    H213833   7.916   1.353   6.022
 4626TIP3   OH213834   1.471   2.696   0.517
 4626TIP3    H113835   1.531   2.760   0.478
 4626TIP3    H213836   1.441   2.643   0.443
 4627TIP3   OH213837   5.771   0.149   2.833
 4627TIP3    H113838   5.810   0.076   2.881
 4627TIP3    H213839   5.739   0.110   2.752
 4628TIP3   OH213840   5.528   6.403   0.641
 4628TIP3    H113841   5.549   6.318   0.601
 4628TIP3    H213842   5.555   6.468   0.576
 4629TIP3   OH213843   3.072   1.829   5.719
 4629TIP3    H113844   3.110   1.747   5.749
 4629TIP3    H213845   2.983   1.829   5.754
 4630TIP3   OH213846   3.627   3.428   0.199
 4630TIP3    H113847   3.717   3.421   0.166
 4630TIP3    H213848   3.636   3.462   0.288
 4631TIP3   OH213849   5.097   1.742   5.525
 4631TIP3    H113850   5.146   1.740   5.443
 4631TIP3    H213851   5.107   1.833   5.556
 4632TIP3   OH213852   0.917   4.160   4.640
 4632TIP3    H113853   0.860   4.204   4.703
 4632TIP3    H213854   0.878   4.180   4.555
 4633TIP3   OH213855   3.253   7.207   5.525
 4633TIP3    H113856   3.276   7.261   5.601
 4633TIP3    H213857   3.323   7.143   5.519
 4634TIP3   OH213858   5.133   2.096   3.156
 4634TIP3    H113859   5.077   2.083   3.079
 4634TIP3    H213860   5.098   2.175   3.198
 4635TIP3   OH213861   2.533   5.684   2.937
 4635TIP3    H113862   2.610   5.712   2.986
 4635TIP3    H213863   2.520   5.752   2.871
 4636TIP3   OH213864   7.006   4.378   1.046
 4636TIP3    H113865   7.006   4.284   1.027
 4636TIP3    H213866   7.086   4.411   1.003
 4637TIP3   OH213867   1.706   6.076   3.831
 4637TIP3    H113868   1.629   6.057   3.885
 4637TIP3    H213869   1.670   6.105   3.747
 4638TIP3   OH213870   4.801   1.751   5.691
 4638TIP3    H113871   4.820   1.801   5.770
 4638TIP3    H213872   4.884   1.708   5.669
 4639TIP3   OH213873   4.733   7.565   4.510
 4639TIP3    H113874   4.775   7.650   4.501
 4639TIP3    H213875   4.790   7.504   4.463
 4640TIP3   OH213876   3.106   5.876   3.454
 4640TIP3    H113877   3.118   5.792   3.498
 4640TIP3    H213878   3.194   5.900   3.425
 4641TIP3   OH213879   3.574   1.094   4.799
 4641TIP3    H113880   3.658   1.136   4.780
 4641TIP3    H213881   3.538   1.144   4.871
 4642TIP3   OH213882   4.172   6.118   1.404
 4642TIP3    H113883   4.136   6.031   1.385
 4642TIP3    H213884   4.097   6.167   1.440
 4643TIP3   OH213885   7.073   3.489   1.859
 4643TIP3    H113886   7.082   3.473   1.953
 4643TIP3    H213887   7.082   3.584   1.850
 4644TIP3   OH213888   6.986   5.694   4.008
 4644TIP3    H113889   6.991   5.768   3.948
 4644TIP3    H213890   7.011   5.618   3.954
 4645TIP3   OH213891   3.203   0.593   2.076
 4645TIP3    H113892   3.113   0.623   2.065
 4645TIP3    H213893   3.252   0.640   2.008
 4646TIP3   OH213894   2.382   0.881   0.186
 4646TIP3    H113895   2.371   0.791   0.219
 4646TIP3    H213896   2.296   0.906   0.154
 4647TIP3   OH213897   1.109   0.735   0.752
 4647TIP3    H113898   1.104   0.826   0.725
 4647TIP3    H213899   1.028   0.720   0.801
 4648TIP3   OH213900   5.154   0.627   6.050
 4648TIP3    H113901   5.103   0.673   6.116
 4648TIP3    H213902   5.237   0.608   6.093
 4649TIP3   OH213903   1.546   7.366   0.660
 4649TIP3    H113904   1.471   7.322   0.619
 4649TIP3    H213905   1.612   7.370   0.591
 4650TIP3   OH213906   0.892   7.043   4.595
 4650TIP3    H113907   0.928   7.124   4.631
 4650TIP3    H213908   0.803   7.067   4.567
 4651TIP3   OH213909   6.136   6.714   0.897
 4651TIP3    H113910   6.100   6.782   0.955
 4651TIP3    H213911   6.167   6.646   0.957
 4652TIP3   OH213912   0.665   5.340   3.984
 4652TIP3    H113913   0.702   5.370   4.067
 4652TIP3    H213914   0.573   5.366   3.987
 4653TIP3   OH213915   6.623   0.015   2.837
 4653TIP3    H113916   6.552   0.071   2.869
 4653TIP3    H213917   6.619   0.024   2.741
 4654TIP3   OH213918   5.718   7.422   3.361
 4654TIP3    H113919   5.781   7.447   3.294
 4654TIP3    H213920   5.641   7.392   3.313
 4655TIP3   OH213921   1.368   3.144   0.540
 4655TIP3    H113922   1.411   3.077   0.487
 4655TIP3    H213923   1.323   3.200   0.476
 4656TIP3   OH213924   0.111   6.091   4.864
 4656TIP3    H113925   0.094   6.179   4.831
 4656TIP3    H213926   0.179   6.057   4.806
 4657TIP3   OH213927   4.954   3.002   0.591
 4657TIP3    H113928   4.870   3.038   0.619
 4657TIP3    H213929   4.934   2.952   0.512
 4658TIP3   OH213930   3.341   5.942   2.269
 4658TIP3    H113931   3.367   5.865   2.319
 4658TIP3    H213932   3.301   5.907   2.190
 4659TIP3   OH213933   7.520   5.749   0.217
 4659TIP3    H113934   7.502   5.699   0.297
 4659TIP3    H213935   7.444   5.806   0.207
 4660TIP3   OH213936   6.866   6.107   4.723
 4660TIP3    H113937   6.920   6.149   4.657
 4660TIP3    H213938   6.908   6.129   4.806
 4661TIP3   OH213939   4.635   7.298   2.694
 4661TIP3    H113940   4.624   7.205   2.675
 4661TIP3    H213941   4.575   7.315   2.767
 4662TIP3   OH213942   7.244   7.043   3.068
 4662TIP3    H113943   7.256   7.137   3.083
 4662TIP3    H213944   7.333   7.010   3.053
 4663TIP3   OH213945   4.414   6.297   0.372
 4663TIP3    H113946   4.415   6.224   0.434
 4663TIP3    H213947   4.343   6.353   0.402
 4664TIP3   OH213948   6.022   5.135   4.563
 4664TIP3    H113949   5.981   5.138   4.477
 4664TIP3    H213950   6.098   5.078   4.551
 4665TIP3   OH213951   7.011   3.914   2.079
 4665TIP3    H113952   6.931   3.940   2.034
 4665TIP3    H213953   7.062   3.995   2.085
 4666TIP3   OH213954   5.664   0.858   3.787
 4666TIP3    H113955   5.647   0.864   3.881
 4666TIP3    H213956   5.610   0.927   3.749
 4667TIP3   OH213957   3.412   2.008   3.264
 4667TIP3    H113958   3.405   1.914   3.278
 4667TIP3    H213959   3.489   2.018   3.208
 4668TIP3   OH213960   6.721   1.682   2.370
 4668TIP3    H113961   6.806   1.650   2.399
 4668TIP3    H213962   6.671   1.603   2.351
 4669TIP3   OH213963   3.448   2.832   3.354
 4669TIP3    H113964   3.433   2.780   3.275
 4669TIP3    H213965   3.501   2.775   3.410
 4670TIP3   OH213966   0.860   6.239   5.420
 4670TIP3    H113967   0.879   6.177   5.349
 4670TIP3    H213968   0.808   6.189   5.482
 4671TIP3   OH213969   2.071   2.379   3.871
 4671TIP3    H113970   2.160   2.411   3.854
 4671TIP3    H213971   2.055   2.316   3.801
 4672TIP3   OH213972   5.502   5.615   2.231
 4672TIP3    H113973   5.498   5.709   2.210
 4672TIP3    H213974   5.474   5.572   2.150
 4673TIP3   OH213975   6.288   7.595   4.013
 4673TIP3    H113976   6.322   7.513   3.978
 4673TIP3    H213977   6.194   7.591   3.998
 4674TIP3   OH213978   8.263   5.461   3.379
 4674TIP3    H113979   8.352   5.440   3.409
 4674TIP3    H213980   8.262   5.436   3.286
 4675TIP3   OH213981   0.629   3.619   5.817
 4675TIP3    H113982   0.638   3.675   5.894
 4675TIP3    H213983   0.680   3.664   5.749
 4676TIP3   OH213984   3.368   5.265   6.061
 4676TIP3    H113985   3.367   5.233   6.151
 4676TIP3    H213986   3.295   5.221   6.018
 4677TIP3   OH213987   1.640   5.937   5.585
 4677TIP3    H113988   1.584   5.859   5.581
 4677TIP3    H213989   1.598   6.000   5.527
 4678TIP3   OH213990   4.945   4.028   5.539
 4678TIP3    H113991   4.950   4.053   5.447
 4678TIP3    H213992   4.966   4.108   5.588
 4679TIP3   OH213993   0.637   7.446   0.246
 4679TIP3    H113994   0.642   7.394   0.326
 4679TIP3    H213995   0.649   7.382   0.176
 4680TIP3   OH213996   5.853   4.455   5.794
 4680TIP3    H113997   5.943   4.479   5.772
 4680TIP3    H213998   5.833   4.509   5.871
 4681TIP3   OH213999   1.540   7.649   5.762
 4681TIP3    H114000   1.608   7.699   5.807
 4681TIP3    H214001   1.467   7.709   5.755
 4682TIP3   OH214002   1.354   0.782   6.599
 4682TIP3    H114003   1.417   0.711   6.611
 4682TIP3    H214004   1.393   0.857   6.645
 4683TIP3   OH214005   1.805   1.908   2.235
 4683TIP3    H114006   1.742   1.894   2.306
 4683TIP3    H214007   1.762   1.874   2.157
 4684TIP3   OH214008   5.824   2.543   0.131
 4684TIP3    H114009   5.899   2.540   0.071
 4684TIP3    H214010   5.843   2.475   0.196
 4685TIP3   OH214011   1.377   7.562   0.164
 4685TIP3    H114012   1.454   7.510   0.141
 4685TIP3    H214013   1.306   7.498   0.172
 4686TIP3   OH214014   0.228   6.004   5.107
 4686TIP3    H114015   0.214   6.051   5.025
 4686TIP3    H214016   0.167   6.046   5.168
 4687TIP3   OH214017   1.205   7.667   0.665
 4687TIP3    H114018   1.171   7.685   0.577
 4687TIP3    H214019   1.296   7.642   0.651
 4688TIP3   OH214020   1.067   0.681   0.124
 4688TIP3    H114021   1.064   0.699   0.218
 4688TIP3    H214022   1.079   0.586   0.118
 4689TIP3   OH214023   3.432   7.832   3.502
 4689TIP3    H114024   3.409   7.747   3.538
 4689TIP3    H214025   3.524   7.845   3.526
 4690TIP3   OH214026   2.487   7.801   5.920
 4690TIP3    H114027   2.464   7.852   5.998
 4690TIP3    H214028   2.499   7.712   5.953
 4691TIP3   OH214029   3.913   3.619   5.845
 4691TIP3    H114030   3.995   3.630   5.798
 4691TIP3    H214031   3.934   3.559   5.916
 4692TIP3   OH214032   2.745   1.215   4.774
 4692TIP3    H114033   2.750   1.269   4.695
 4692TIP3    H214034   2.832   1.176   4.783
 4693TIP3   OH214035   1.083   6.118   0.961
 4693TIP3    H114036   1.136   6.194   0.983
 4693TIP3    H214037   1.141   6.043   0.975
 4694TIP3   OH214038   6.619   2.264   2.586
 4694TIP3    H114039   6.573   2.181   2.577
 4694TIP3    H214040   6.634   2.293   2.496
 4695TIP3   OH214041   1.312   3.503   4.004
 4695TIP3    H114042   1.252   3.446   3.954
 4695TIP3    H214043   1.308   3.587   3.959
 4696TIP3   OH214044   3.091   6.165   2.138
 4696TIP3    H114045   3.081   6.093   2.201
 4696TIP3    H214046   3.028   6.144   2.069
 4697TIP3   OH214047   2.101   6.039   1.566
 4697TIP3    H114048   2.074   6.093   1.639
 4697TIP3    H214049   2.021   6.022   1.516
 4698TIP3   OH214050   1.876   7.467   5.880
 4698TIP3    H114051   1.905   7.404   5.947
 4698TIP3    H214052   1.814   7.418   5.826
 4699TIP3   OH214053   6.194   4.897   1.321
 4699TIP3    H114054   6.227   4.833   1.384
 4699TIP3    H214055   6.179   4.847   1.241
 4700TIP3   OH214056   8.124   1.847   6.488
 4700TIP3    H114057   8.205   1.896   6.472
 4700TIP3    H214058   8.135   1.766   6.438
 4701TIP3   OH214059   6.652   3.983   4.670
 4701TIP3    H114060   6.664   3.891   4.645
 4701TIP3    H214061   6.737   4.024   4.651
 4702TIP3   OH214062   4.932   4.655   4.605
 4702TIP3    H114063   4.930   4.584   4.541
 4702TIP3    H214064   4.843   4.690   4.605
 4703TIP3   OH214065   5.766   6.721   0.986
 4703TIP3    H114066   5.819   6.711   1.065
 4703TIP3    H214067   5.704   6.648   0.991
 4704TIP3   OH214068   0.708   7.240   0.477
 4704TIP3    H114069   0.793   7.201   0.454
 4704TIP3    H214070   0.708   7.242   0.572
 4705TIP3   OH214071   6.809   7.022   6.330
 4705TIP3    H114072   6.782   7.113   6.320
 4705TIP3    H214073   6.888   7.014   6.277
 4706TIP3   OH214074   0.325   4.329   3.344
 4706TIP3    H114075   0.297   4.376   3.266
 4706TIP3    H214076   0.299   4.238   3.328
 4707TIP3   OH214077   1.124   3.996   0.516
 4707TIP3    H114078   1.191   4.031   0.457
 4707TIP3    H214079   1.042   4.031   0.482
 4708TIP3   OH214080   5.099   0.751   6.762
 4708TIP3    H114081   5.020   0.721   6.717
 4708TIP3    H214082   5.167   0.689   6.735
 4709TIP3   OH214083   5.004   0.731   5.333
 4709TIP3    H114084   5.060   0.748   5.409
 4709TIP3    H214085   5.066   0.713   5.262
 4710TIP3   OH214086   2.682   4.261   1.672
 4710TIP3    H114087   2.671   4.228   1.583
 4710TIP3    H214088   2.722   4.347   1.661
 4711TIP3   OH214089   0.853   2.214   3.235
 4711TIP3    H114090   0.781   2.265   3.198
 4711TIP3    H214091   0.932   2.248   3.192
 4712TIP3   OH214092   0.806   5.330   4.407
 4712TIP3    H114093   0.807   5.313   4.502
 4712TIP3    H214094   0.823   5.423   4.399
 4713TIP3   OH214095   7.908   5.555   4.019
 4713TIP3    H114096   7.854   5.560   3.940
 4713TIP3    H214097   7.860   5.606   4.084
 4714TIP3   OH214098   1.016   1.199   2.013
 4714TIP3    H114099   1.104   1.216   1.980
 4714TIP3    H214100   1.004   1.263   2.083
 4715TIP3   OH214101   8.212   3.613   4.172
 4715TIP3    H114102   8.213   3.537   4.114
 4715TIP3    H214103   8.242   3.580   4.256
 4716TIP3   OH214104   4.689   3.710   0.536
 4716TIP3    H114105   4.622   3.710   0.604
 4716TIP3    H214106   4.653   3.654   0.467
 4717TIP3   OH214107   6.592   2.636   0.854
 4717TIP3    H114108   6.574   2.614   0.763
 4717TIP3    H214109   6.510   2.619   0.900
 4718TIP3   OH214110   1.510   2.808   0.029
 4718TIP3    H114111   1.500   2.723  -0.012
 4718TIP3    H214112   1.453   2.805   0.106
 4719TIP3   OH214113   3.299   1.971   6.186
 4719TIP3    H114114   3.393   1.976   6.203
 4719TIP3    H214115   3.293   1.934   6.098
 4720TIP3   OH214116   3.512   0.177   2.737
 4720TIP3    H114117   3.512   0.271   2.718
 4720TIP3    H214118   3.544   0.137   2.656
 4721TIP3   OH214119   0.410   1.273   3.953
 4721TIP3    H114120   0.451   1.359   3.943
 4721TIP3    H214121   0.472   1.224   4.007
 4722TIP3   OH214122   0.460   4.303   2.111
 4722TIP3    H114123   0.467   4.336   2.022
 4722TIP3    H214124   0.366   4.294   2.126
 4723TIP3   OH214125   5.190   5.534   5.632
 4723TIP3    H114126   5.213   5.533   5.725
 4723TIP3    H214127   5.111   5.480   5.626
 4724TIP3   OH214128   7.216   6.409   4.169
 4724TIP3    H114129   7.134   6.424   4.214
 4724TIP3    H214130   7.277   6.381   4.238
 4725TIP3   OH214131   3.550   6.173   1.546
 4725TIP3    H114132   3.545   6.268   1.541
 4725TIP3    H214133   3.489   6.150   1.617
 4726TIP3   OH214134   3.224   4.621   1.046
 4726TIP3    H114135   3.162   4.594   1.114
 4726TIP3    H214136   3.170   4.634   0.968
 4727TIP3   OH214137   4.460   3.276   1.079
 4727TIP3    H114138   4.427   3.288   0.990
 4727TIP3    H214139   4.383   3.248   1.130
 4728TIP3   OH214140   0.715   5.299   5.196
 4728TIP3    H114141   0.691   5.378   5.148
 4728TIP3    H214142   0.645   5.287   5.261
 4729TIP3   OH214143   6.728   1.918   4.382
 4729TIP3    H114144   6.715   1.824   4.391
 4729TIP3    H214145   6.721   1.935   4.289
 4730TIP3   OH214146   0.987   1.285   0.138
 4730TIP3    H114147   0.996   1.355   0.203
 4730TIP3    H214148   0.994   1.330   0.054
 4731TIP3   OH214149   1.841   7.323   4.476
 4731TIP3    H114150   1.825   7.417   4.470
 4731TIP3    H214151   1.853   7.294   4.386
 4732TIP3   OH214152   4.016   1.079   1.707
 4732TIP3    H114153   4.030   1.166   1.745
 4732TIP3    H214154   4.076   1.075   1.632
 4733TIP3   OH214155   7.265   3.295   6.692
 4733TIP3    H114156   7.215   3.218   6.666
 4733TIP3    H214157   7.329   3.307   6.621
 4734TIP3   OH214158   0.251   3.275   1.544
 4734TIP3    H114159   0.217   3.200   1.495
 4734TIP3    H214160   0.341   3.284   1.514
 4735TIP3   OH214161   1.913   4.906   6.149
 4735TIP3    H114162   1.945   4.987   6.110
 4735TIP3    H214163   1.898   4.927   6.241
 4736TIP3   OH214164   1.889   7.232   3.241
 4736TIP3    H114165   1.800   7.248   3.272
 4736TIP3    H214166   1.885   7.145   3.201
 4737TIP3   OH214167   3.202   4.518   0.368
 4737TIP3    H114168   3.113   4.484   0.364
 4737TIP3    H214169   3.191   4.613   0.367
 4738TIP3   OH214170   0.314   4.629   2.653
 4738TIP3    H114171   0.381   4.593   2.595
 4738TIP3    H214172   0.248   4.665   2.594
 4739TIP3   OH214173   2.578   2.225   5.363
 4739TIP3    H114174   2.532   2.222   5.279
 4739TIP3    H214175   2.637   2.149   5.359
 4740TIP3   OH214176   5.182   7.818   3.430
 4740TIP3    H114177   5.191   7.727   3.404
 4740TIP3    H214178   5.098   7.845   3.394
 4741TIP3   OH214179   0.154   5.782   2.938
 4741TIP3    H114180   0.143   5.727   2.860
 4741TIP3    H214181   0.216   5.849   2.912
 4742TIP3   OH214182   0.100   0.615   4.081
 4742TIP3    H114183   0.053   0.697   4.064
 4742TIP3    H214184   0.165   0.609   4.010
 4743TIP3   OH214185   2.148   1.736   4.149
 4743TIP3    H114186   2.221   1.691   4.105
 4743TIP3    H214187   2.072   1.681   4.131
 4744TIP3   OH214188   6.862   1.970   5.496
 4744TIP3    H114189   6.929   1.945   5.432
 4744TIP3    H214190   6.888   1.926   5.577
 4745TIP3   OH214191   2.854   4.030   1.279
 4745TIP3    H114192   2.831   3.941   1.252
 4745TIP3    H214193   2.946   4.024   1.304
 4746TIP3   OH214194   4.971   5.314   4.213
 4746TIP3    H114195   5.042   5.360   4.258
 4746TIP3    H214196   4.920   5.274   4.284
 4747TIP3   OH214197   3.192   1.636   5.892
 4747TIP3    H114198   3.140   1.660   5.969
 4747TIP3    H214199   3.278   1.614   5.928
 4748TIP3   OH214200   6.752   2.501   5.923
 4748TIP3    H114201   6.696   2.577   5.937
 4748TIP3    H214202   6.707   2.429   5.968
 4749TIP3   OH214203   2.041   2.440   6.329
 4749TIP3    H114204   2.116   2.467   6.382
 4749TIP3    H214205   2.017   2.518   6.279
 4750TIP3   OH214206   5.300   4.097   3.756
 4750TIP3    H114207   5.282   4.065   3.844
 4750TIP3    H214208   5.377   4.048   3.728
 4751TIP3   OH214209   6.152   3.761   4.154
 4751TIP3    H114210   6.153   3.829   4.221
 4751TIP3    H214211   6.141   3.679   4.201
 4752TIP3   OH214212   4.026   1.357   1.015
 4752TIP3    H114213   3.974   1.432   0.988
 4752TIP3    H214214   4.046   1.311   0.934
 4753TIP3   OH214215   2.366   7.559   2.832
 4753TIP3    H114216   2.341   7.504   2.757
 4753TIP3    H214217   2.423   7.503   2.885
 4754TIP3   OH214218   4.147   7.120   0.516
 4754TIP3    H114219   4.174   7.053   0.453
 4754TIP3    H214220   4.055   7.138   0.494
 4755TIP3   OH214221   3.853   1.629   3.121
 4755TIP3    H114222   3.924   1.693   3.108
 4755TIP3    H214223   3.898   1.545   3.127
 4756TIP3   OH214224   4.146   2.770   3.058
 4756TIP3    H114225   4.198   2.771   2.978
 4756TIP3    H214226   4.163   2.685   3.097
 4757TIP3   OH214227   7.359   4.143   1.620
 4757TIP3    H114228   7.291   4.208   1.640
 4757TIP3    H214229   7.415   4.143   1.698
 4758TIP3   OH214230   3.369   1.345   2.309
 4758TIP3    H114231   3.375   1.310   2.398
 4758TIP3    H214232   3.460   1.367   2.286
 4759TIP3   OH214233   6.478   3.360   5.932
 4759TIP3    H114234   6.450   3.375   5.842
 4759TIP3    H214235   6.396   3.345   5.980
 4760TIP3   OH214236   1.690   6.397   2.002
 4760TIP3    H114237   1.725   6.441   1.925
 4760TIP3    H214238   1.758   6.335   2.028
 4761TIP3   OH214239   6.605   4.049   0.587
 4761TIP3    H114240   6.639   3.991   0.519
 4761TIP3    H214241   6.511   4.053   0.571
 4762TIP3   OH214242   2.773   5.730   4.474
 4762TIP3    H114243   2.860   5.756   4.503
 4762TIP3    H214244   2.755   5.786   4.398
 4763TIP3   OH214245   5.684   0.936   1.298
 4763TIP3    H114246   5.702   1.000   1.366
 4763TIP3    H214247   5.592   0.912   1.310
 4764TIP3   OH214248   4.483   1.067   4.321
 4764TIP3    H114249   4.430   1.121   4.263
 4764TIP3    H214250   4.491   1.119   4.402
 4765TIP3   OH214251   2.141   3.821   3.554
 4765TIP3    H114252   2.131   3.737   3.598
 4765TIP3    H214253   2.054   3.839   3.516
 4766TIP3   OH214254   5.373   4.444   6.233
 4766TIP3    H114255   5.448   4.386   6.248
 4766TIP3    H214256   5.307   4.388   6.193
 4767TIP3   OH214257   5.084   5.570   6.397
 4767TIP3    H114258   5.160   5.565   6.338
 4767TIP3    H214259   5.111   5.521   6.475
 4768TIP3   OH214260   0.172   4.863   5.877
 4768TIP3    H114261   0.146   4.955   5.873
 4768TIP3    H214262   0.090   4.814   5.871
 4769TIP3   OH214263   5.063   7.054   0.360
 4769TIP3    H114264   4.987   7.096   0.321
 4769TIP3    H214265   5.030   7.011   0.439
 4770TIP3   OH214266   5.369   1.855   0.659
 4770TIP3    H114267   5.330   1.870   0.573
 4770TIP3    H214268   5.464   1.857   0.643
 4771TIP3   OH214269   3.850   4.156   1.398
 4771TIP3    H114270   3.937   4.148   1.438
 4771TIP3    H214271   3.866   4.150   1.304
 4772TIP3   OH214272   7.370   5.618   5.158
 4772TIP3    H114273   7.328   5.534   5.137
 4772TIP3    H214274   7.442   5.624   5.095
 4773TIP3   OH214275   3.940   5.750   1.518
 4773TIP3    H114276   3.957   5.765   1.424
 4773TIP3    H214277   3.863   5.694   1.519
 4774TIP3   OH214278   4.612   4.934   2.464
 4774TIP3    H114279   4.607   4.876   2.540
 4774TIP3    H214280   4.522   4.961   2.448
 4775TIP3   OH214281   3.217   6.786   4.628
 4775TIP3    H114282   3.179   6.725   4.691
 4775TIP3    H214283   3.305   6.753   4.612
 4776TIP3   OH214284   7.486   2.649   6.375
 4776TIP3    H114285   7.417   2.667   6.311
 4776TIP3    H214286   7.474   2.717   6.442
 4777TIP3   OH214287   3.164   6.948   1.952
 4777TIP3    H114288   3.226   6.897   1.899
 4777TIP3    H214289   3.097   6.884   1.978
 4778TIP3   OH214290   4.988   7.578   6.467
 4778TIP3    H114291   5.000   7.656   6.413
 4778TIP3    H214292   4.914   7.598   6.524
 4779TIP3   OH214293   3.615   3.457   6.625
 4779TIP3    H114294   3.524   3.482   6.640
 4779TIP3    H214295   3.646   3.516   6.557
 4780TIP3   OH214296   1.708   3.218   1.459
 4780TIP3    H114297   1.763   3.238   1.535
 4780TIP3    H214298   1.620   3.212   1.495
 4781TIP3   OH214299   5.546   3.368   5.385
 4781TIP3    H114300   5.635   3.343   5.359
 4781TIP3    H214301   5.547   3.365   5.480
 4782TIP3   OH214302   2.957   5.872   6.111
 4782TIP3    H114303   2.923   5.841   6.195
 4782TIP3    H214304   2.884   5.858   6.050
 4783TIP3   OH214305   7.971   2.845   2.309
 4783TIP3    H114306   8.054   2.873   2.348
 4783TIP3    H214307   7.966   2.751   2.330
 4784TIP3   OH214308   0.966   3.870   3.200
 4784TIP3    H114309   0.903   3.813   3.243
 4784TIP3    H214310   1.045   3.816   3.191
 4785TIP3   OH214311   1.424   6.967   4.163
 4785TIP3    H114312   1.509   6.997   4.194
 4785TIP3    H214313   1.361   7.027   4.203
 4786TIP3   OH214314   6.631   0.856   1.202
 4786TIP3    H114315   6.545   0.815   1.208
 4786TIP3    H214316   6.653   0.880   1.292
 4787TIP3   OH214317   3.898   5.845   4.045
 4787TIP3    H114318   3.884   5.940   4.046
 4787TIP3    H214319   3.852   5.815   3.966
 4788TIP3   OH214320   3.198   3.313   0.516
 4788TIP3    H114321   3.127   3.261   0.479
 4788TIP3    H214322   3.215   3.273   0.601
 4789TIP3   OH214323   7.093   6.538   2.052
 4789TIP3    H114324   7.048   6.466   2.096
 4789TIP3    H214325   7.035   6.614   2.066
 4790TIP3   OH214326   2.373   3.343   1.554
 4790TIP3    H114327   2.341   3.423   1.514
 4790TIP3    H214328   2.438   3.373   1.618
 4791TIP3   OH214329   7.158   0.099   2.488
 4791TIP3    H114330   7.106   0.153   2.547
 4791TIP3    H214331   7.104   0.088   2.410
 4792TIP3   OH214332   7.092   3.653   5.951
 4792TIP3    H114333   7.006   3.694   5.962
 4792TIP3    H214334   7.081   3.566   5.991
 4793TIP3   OH214335   0.445   6.605   6.415
 4793TIP3    H114336   0.387   6.630   6.487
 4793TIP3    H214337   0.515   6.555   6.458
 4794TIP3   OH214338   4.051   0.113   0.566
 4794TIP3    H114339   4.039   0.054   0.640
 4794TIP3    H214340   4.144   0.135   0.567
 4795TIP3   OH214341   1.780   5.018   0.412
 4795TIP3    H114342   1.769   5.113   0.418
 4795TIP3    H214343   1.785   5.001   0.318
 4796TIP3   OH214344   0.017   3.768   3.724
 4796TIP3    H114345   0.016   3.674   3.706
 4796TIP3    H214346   0.029   3.774   3.819
 4797TIP3   OH214347   5.904   7.097   3.962
 4797TIP3    H114348   5.911   7.037   4.036
 4797TIP3    H214349   5.868   7.043   3.891
 4798TIP3   OH214350   1.607   2.170   2.219
 4798TIP3    H114351   1.604   2.090   2.271
 4798TIP3    H214352   1.588   2.240   2.283
 4799TIP3   OH214353   6.350   4.270   6.526
 4799TIP3    H114354   6.362   4.294   6.618
 4799TIP3    H214355   6.259   4.295   6.506
 4800TIP3   OH214356   1.088   0.814   2.064
 4800TIP3    H114357   1.011   0.870   2.076
 4800TIP3    H214358   1.126   0.807   2.152
 4801TIP3   OH214359   4.412   6.479   0.681
 4801TIP3    H114360   4.469   6.402   0.675
 4801TIP3    H214361   4.355   6.461   0.756
 4802TIP3   OH214362   3.774   3.408   3.723
 4802TIP3    H114363   3.738   3.432   3.808
 4802TIP3    H214364   3.865   3.384   3.741
 4803TIP3   OH214365   5.820   7.785   6.633
 4803TIP3    H114366   5.759   7.719   6.601
 4803TIP3    H214367   5.810   7.785   6.728
 4804TIP3   OH214368   4.350   5.586   2.692
 4804TIP3    H114369   4.348   5.589   2.596
 4804TIP3    H214370   4.295   5.659   2.719
 4805TIP3   OH214371   4.730   2.237   0.123
 4805TIP3    H114372   4.785   2.299   0.077
 4805TIP3    H214373   4.658   2.219   0.062
 4806TIP3   OH214374   0.236   4.676   4.764
 4806TIP3    H114375   0.328   4.650   4.765
 4806TIP3    H214376   0.237   4.769   4.742
 4807TIP3   OH214377   5.106   1.634   3.329
 4807TIP3    H114378   5.111   1.694   3.254
 4807TIP3    H214379   5.065   1.687   3.398
 4808TIP3   OH214380   2.888   7.133   3.829
 4808TIP3    H114381   2.900   7.211   3.776
 4808TIP3    H214382   2.956   7.137   3.895
 4809TIP3   OH214383   6.510   5.903   0.310
 4809TIP3    H114384   6.550   5.889   0.396
 4809TIP3    H214385   6.583   5.893   0.248
 4810TIP3   OH214386   3.988   7.293   0.249
 4810TIP3    H114387   4.076   7.257   0.246
 4810TIP3    H214388   3.947   7.264   0.167
 4811TIP3   OH214389   1.703   6.439   5.972
 4811TIP3    H114390   1.733   6.421   6.062
 4811TIP3    H214391   1.784   6.443   5.921
 4812TIP3   OH214392   4.955   1.736   3.596
 4812TIP3    H114393   5.015   1.800   3.632
 4812TIP3    H214394   4.868   1.768   3.619
 4813TIP3   OH214395   7.095   6.878   1.028
 4813TIP3    H114396   7.113   6.966   0.993
 4813TIP3    H214397   7.158   6.822   0.982
 4814TIP3   OH214398   6.408   6.701   3.628
 4814TIP3    H114399   6.467   6.643   3.580
 4814TIP3    H214400   6.343   6.642   3.667
 4815TIP3   OH214401   2.040   6.272   0.073
 4815TIP3    H114402   2.035   6.296  -0.019
 4815TIP3    H214403   1.994   6.189   0.079
 4816TIP3   OH214404   1.900   0.796   0.074
 4816TIP3    H114405   1.808   0.768   0.074
 4816TIP3    H214406   1.921   0.808   0.166
 4817TIP3   OH214407   1.245   0.975   0.265
 4817TIP3    H114408   1.296   1.055   0.275
 4817TIP3    H214409   1.155   1.006   0.253
 4818TIP3   OH214410   0.463   1.607   1.925
 4818TIP3    H114411   0.558   1.599   1.920
 4818TIP3    H214412   0.431   1.556   1.851
 4819TIP3   OH214413   3.380   1.149   0.688
 4819TIP3    H114414   3.453   1.102   0.729
 4819TIP3    H214415   3.409   1.161   0.597
 4820TIP3   OH214416   6.325   7.022   1.128
 4820TIP3    H114417   6.308   7.072   1.208
 4820TIP3    H214418   6.249   6.964   1.120
 4821TIP3   OH214419   6.502   5.045   3.323
 4821TIP3    H114420   6.501   5.132   3.283
 4821TIP3    H214421   6.548   4.990   3.260
 4822TIP3   OH214422   5.034   2.710   1.032
 4822TIP3    H114423   5.089   2.773   1.078
 4822TIP3    H214424   4.977   2.675   1.100
 4823TIP3   OH214425   6.120   1.511   5.140
 4823TIP3    H114426   6.086   1.424   5.161
 4823TIP3    H214427   6.042   1.566   5.131
 4824TIP3   OH214428   1.815   6.216   1.113
 4824TIP3    H114429   1.739   6.165   1.139
 4824TIP3    H214430   1.787   6.263   1.034
 4825TIP3   OH214431   2.502   4.999   1.818
 4825TIP3    H114432   2.471   5.075   1.868
 4825TIP3    H214433   2.586   5.028   1.781
 4826TIP3   OH214434   5.526   7.066   3.580
 4826TIP3    H114435   5.468   7.095   3.650
 4826TIP3    H214436   5.596   7.020   3.625
 4827TIP3   OH214437   3.793   7.105   2.110
 4827TIP3    H114438   3.791   7.009   2.121
 4827TIP3    H214439   3.861   7.134   2.170
 4828TIP3   OH214440   0.168   1.959   4.765
 4828TIP3    H114441   0.200   2.041   4.726
 4828TIP3    H214442   0.203   1.960   4.854
 4829TIP3   OH214443   5.640   3.327   4.350
 4829TIP3    H114444   5.655   3.385   4.275
 4829TIP3    H214445   5.640   3.385   4.425
 4830TIP3   OH214446   7.216   7.770   3.551
 4830TIP3    H114447   7.175   7.856   3.564
 4830TIP3    H214448   7.308   7.790   3.538
 4831TIP3   OH214449   5.368   0.624   4.350
 4831TIP3    H114450   5.437   0.565   4.319
 4831TIP3    H214451   5.347   0.593   4.438
 4832TIP3   OH214452   4.626   3.101   5.927
 4832TIP3    H114453   4.629   3.027   5.866
 4832TIP3    H214454   4.533   3.121   5.935
 4833TIP3   OH214455   2.209   1.749   0.556
 4833TIP3    H114456   2.300   1.720   0.558
 4833TIP3    H214457   2.160   1.673   0.589
 4834TIP3   OH214458   6.467   7.381   2.685
 4834TIP3    H114459   6.400   7.443   2.656
 4834TIP3    H214460   6.422   7.296   2.689
 4835TIP3   OH214461   2.826   6.898   4.954
 4835TIP3    H114462   2.753   6.938   4.907
 4835TIP3    H214463   2.904   6.937   4.916
 4836TIP3   OH214464   6.420   0.211   0.269
 4836TIP3    H114465   6.404   0.121   0.295
 4836TIP3    H214466   6.381   0.263   0.339
 4837TIP3   OH214467   6.124   4.793   6.719
 4837TIP3    H114468   6.173   4.727   6.768
 4837TIP3    H214469   6.186   4.864   6.706
 4838TIP3   OH214470   5.865   2.280   4.383
 4838TIP3    H114471   5.918   2.281   4.462
 4838TIP3    H214472   5.908   2.218   4.325
 4839TIP3   OH214473   4.951   6.498   2.885
 4839TIP3    H114474   4.901   6.526   2.961
 4839TIP3    H214475   4.951   6.402   2.890
 4840TIP3   OH214476   5.521   0.452   3.548
 4840TIP3    H114477   5.488   0.426   3.462
 4840TIP3    H214478   5.466   0.525   3.575
 4841TIP3   OH214479   2.686   7.254   3.451
 4841TIP3    H114480   2.714   7.179   3.504
 4841TIP3    H214481   2.594   7.237   3.432
 4842TIP3   OH214482   2.774   4.071   2.690
 4842TIP3    H114483   2.753   4.021   2.769
 4842TIP3    H214484   2.693   4.117   2.668
 4843TIP3   OH214485   5.730   6.589   5.143
 4843TIP3    H114486   5.663   6.582   5.075
 4843TIP3    H214487   5.791   6.517   5.125
 4844TIP3   OH214488   4.522   1.341   4.472
 4844TIP3    H114489   4.565   1.331   4.557
 4844TIP3    H214490   4.587   1.386   4.418
 4845TIP3   OH214491   2.820   4.501   1.605
 4845TIP3    H114492   2.854   4.430   1.551
 4845TIP3    H214493   2.894   4.527   1.660
 4846TIP3   OH214494   6.651   3.897   3.634
 4846TIP3    H114495   6.604   3.838   3.692
 4846TIP3    H214496   6.737   3.858   3.624
 4847TIP3   OH214497   7.929   0.129   2.998
 4847TIP3    H114498   7.950   0.038   3.015
 4847TIP3    H214499   7.850   0.146   3.049
 4848TIP3   OH214500   7.905   6.930   6.329
 4848TIP3    H114501   7.941   6.855   6.377
 4848TIP3    H214502   7.981   6.974   6.291
 4849TIP3   OH214503   6.787   4.372   2.634
 4849TIP3    H114504   6.852   4.424   2.681
 4849TIP3    H214505   6.801   4.282   2.665
 4850TIP3   OH214506   0.577   6.347   5.529
 4850TIP3    H114507   0.485   6.331   5.506
 4850TIP3    H214508   0.578   6.438   5.560
 4851TIP3   OH214509   1.315   2.724   5.067
 4851TIP3    H114510   1.287   2.781   4.996
 4851TIP3    H214511   1.262   2.751   5.142
 4852TIP3   OH214512   1.743   1.435   4.322
 4852TIP3    H114513   1.707   1.515   4.359
 4852TIP3    H214514   1.682   1.366   4.350
 4853TIP3   OH214515   3.906   6.306   6.551
 4853TIP3    H114516   3.989   6.258   6.556
 4853TIP3    H214517   3.874   6.290   6.463
 4854TIP3   OH214518   5.399   7.753   2.795
 4854TIP3    H114519   5.394   7.674   2.741
 4854TIP3    H214520   5.329   7.742   2.860
 4855TIP3   OH214521   3.699   7.278   2.393
 4855TIP3    H114522   3.782   7.251   2.354
 4855TIP3    H214523   3.719   7.360   2.438
 4856TIP3   OH214524   7.996   7.842   2.366
 4856TIP3    H114525   7.999   7.763   2.421
 4856TIP3    H214526   8.019   7.810   2.279
 4857TIP3   OH214527   6.232   3.683   4.665
 4857TIP3    H114528   6.152   3.675   4.612
 4857TIP3    H214529   6.232   3.775   4.693
 4858TIP3   OH214530   4.042   0.605   0.352
 4858TIP3    H114531   4.027   0.562   0.436
 4858TIP3    H214532   4.086   0.540   0.299
 4859TIP3   OH214533   3.780   2.443   1.596
 4859TIP3    H114534   3.762   2.528   1.555
 4859TIP3    H214535   3.768   2.380   1.525
 4860TIP3   OH214536   3.974   3.885   2.901
 4860TIP3    H114537   3.966   3.814   2.965
 4860TIP3    H214538   3.892   3.933   2.907
 4861TIP3   OH214539   4.601  -0.012   0.166
 4861TIP3    H114540   4.600   0.069   0.217
 4861TIP3    H214541   4.510  -0.042   0.168
 4862TIP3   OH214542   1.340   2.496   5.315
 4862TIP3    H114543   1.364   2.580   5.276
 4862TIP3    H214544   1.421   2.445   5.314
 4863TIP3   OH214545   5.183   0.382   3.799
 4863TIP3    H114546   5.199   0.435   3.720
 4863TIP3    H214547   5.169   0.446   3.868
 4864TIP3   OH214548   4.797   3.944   2.270
 4864TIP3    H114549   4.878   3.993   2.258
 4864TIP3    H214550   4.806   3.868   2.212
 4865TIP3   OH214551   1.652   2.580   5.331
 4865TIP3    H114552   1.717   2.536   5.386
 4865TIP3    H214553   1.604   2.636   5.392
 4866TIP3   OH214554   2.625   1.654   6.573
 4866TIP3    H114555   2.640   1.740   6.535
 4866TIP3    H214556   2.651   1.593   6.504
 4867TIP3   OH214557   2.500   0.519   6.685
 4867TIP3    H114558   2.474   0.601   6.643
 4867TIP3    H214559   2.584   0.538   6.727
 4868TIP3   OH214560   3.898   4.656   4.822
 4868TIP3    H114561   3.990   4.678   4.802
 4868TIP3    H214562   3.904   4.595   4.896
 4869TIP3   OH214563   1.367   2.607   4.002
 4869TIP3    H114564   1.303   2.640   4.065
 4869TIP3    H214565   1.425   2.681   3.984
 4870TIP3   OH214566   6.209   0.382   4.643
 4870TIP3    H114567   6.262   0.435   4.583
 4870TIP3    H214568   6.131   0.434   4.659
 4871TIP3   OH214569   4.147   3.760   0.813
 4871TIP3    H114570   4.056   3.776   0.838
 4871TIP3    H214571   4.140   3.705   0.734
 4872TIP3   OH214572   6.804   7.771   0.717
 4872TIP3    H114573   6.738   7.753   0.651
 4872TIP3    H214574   6.871   7.822   0.671
 4873TIP3   OH214575   3.118   6.715   2.402
 4873TIP3    H114576   3.204   6.677   2.384
 4873TIP3    H214577   3.099   6.770   2.326
 4874TIP3   OH214578   7.334   1.892   6.128
 4874TIP3    H114579   7.346   1.974   6.079
 4874TIP3    H214580   7.240   1.889   6.146
 4875TIP3   OH214581   2.592   5.405   3.854
 4875TIP3    H114582   2.517   5.428   3.910
 4875TIP3    H214583   2.555   5.350   3.786
 4876TIP3   OH214584   6.017   4.924   3.280
 4876TIP3    H114585   6.094   4.976   3.305
 4876TIP3    H214586   6.051   4.861   3.216
 4877TIP3   OH214587   5.278   3.960   3.046
 4877TIP3    H114588   5.267   3.867   3.065
 4877TIP3    H214589   5.301   3.999   3.131
 4878TIP3   OH214590   7.313   1.655   1.035
 4878TIP3    H114591   7.277   1.570   1.007
 4878TIP3    H214592   7.238   1.715   1.031
 4879TIP3   OH214593   7.911   4.804   1.251
 4879TIP3    H114594   7.924   4.713   1.279
 4879TIP3    H214595   7.997   4.832   1.220
 4880TIP3   OH214596   1.970   0.256   6.139
 4880TIP3    H114597   1.879   0.229   6.124
 4880TIP3    H214598   1.969   0.294   6.227
 4881TIP3   OH214599   4.113   1.467   5.927
 4881TIP3    H114600   4.184   1.409   5.955
 4881TIP3    H214601   4.105   1.450   5.833
 4882TIP3   OH214602   5.165   7.211   0.702
 4882TIP3    H114603   5.183   7.225   0.609
 4882TIP3    H214604   5.154   7.299   0.738
 4883TIP3   OH214605   5.806   3.420   0.522
 4883TIP3    H114606   5.745   3.451   0.456
 4883TIP3    H214607   5.763   3.345   0.563
 4884TIP3   OH214608   6.545   4.549   4.886
 4884TIP3    H114609   6.512   4.589   4.966
 4884TIP3    H214610   6.601   4.616   4.846
 4885TIP3   OH214611   0.613   4.553   0.241
 4885TIP3    H114612   0.627   4.508   0.324
 4885TIP3    H214613   0.530   4.519   0.209
 4886TIP3   OH214614   5.354   5.713   3.090
 4886TIP3    H114615   5.329   5.658   3.016
 4886TIP3    H214616   5.425   5.768   3.056
 4887TIP3   OH214617   3.055   7.619   1.224
 4887TIP3    H114618   3.074   7.667   1.143
 4887TIP3    H214619   2.970   7.654   1.252
 4888TIP3   OH214620   0.000   1.410   2.366
 4888TIP3    H114621  -0.059   1.385   2.294
 4888TIP3    H214622   0.012   1.505   2.354
 4889TIP3   OH214623   4.857   1.287   2.884
 4889TIP3    H114624   4.911   1.317   2.957
 4889TIP3    H214625   4.888   1.198   2.866
 4890TIP3   OH214626   3.744   0.534   2.071
 4890TIP3    H114627   3.767   0.475   1.999
 4890TIP3    H214628   3.728   0.476   2.145
 4891TIP3   OH214629   6.486   2.618   5.733
 4891TIP3    H114630   6.516   2.544   5.680
 4891TIP3    H214631   6.567   2.662   5.761
 4892TIP3   OH214632   3.056   6.459   2.822
 4892TIP3    H114633   2.994   6.509   2.770
 4892TIP3    H214634   3.078   6.516   2.896
 4893TIP3   OH214635   7.819   6.876   2.320
 4893TIP3    H114636   7.802   6.965   2.290
 4893TIP3    H214637   7.769   6.868   2.401
 4894TIP3   OH214638   2.555   4.540   1.634
 4894TIP3    H114639   2.537   4.569   1.723
 4894TIP3    H214640   2.647   4.563   1.619
 4895TIP3   OH214641   4.346   7.319   6.133
 4895TIP3    H114642   4.363   7.385   6.066
 4895TIP3    H214643   4.423   7.322   6.190
 4896TIP3   OH214644   0.804   5.850   2.513
 4896TIP3    H114645   0.767   5.917   2.571
 4896TIP3    H214646   0.768   5.871   2.427
 4897TIP3   OH214647   8.016   5.271   0.484
 4897TIP3    H114648   7.962   5.303   0.557
 4897TIP3    H214649   8.074   5.344   0.463
 4898TIP3   OH214650   4.533   1.110   0.711
 4898TIP3    H114651   4.485   1.105   0.628
 4898TIP3    H214652   4.466   1.129   0.776
 4899TIP3   OH214653   6.845   1.082   3.549
 4899TIP3    H114654   6.790   1.155   3.520
 4899TIP3    H214655   6.886   1.050   3.468
 4900TIP3   OH214656   7.147   4.189   1.313
 4900TIP3    H114657   7.237   4.189   1.344
 4900TIP3    H214658   7.100   4.131   1.372
 4901TIP3   OH214659   2.620   2.435   1.622
 4901TIP3    H114660   2.657   2.377   1.688
 4901TIP3    H214661   2.527   2.439   1.642
 4902TIP3   OH214662   1.176   6.798   0.786
 4902TIP3    H114663   1.125   6.719   0.766
 4902TIP3    H214664   1.140   6.829   0.869
 4903TIP3   OH214665   6.393   6.195   1.706
 4903TIP3    H114666   6.432   6.280   1.727
 4903TIP3    H214667   6.349   6.209   1.622
 4904TIP3   OH214668   2.753   5.625   3.802
 4904TIP3    H114669   2.798   5.589   3.725
 4904TIP3    H214670   2.692   5.556   3.828
 4905TIP3   OH214671   6.819   4.716   2.497
 4905TIP3    H114672   6.914   4.726   2.511
 4905TIP3    H214673   6.782   4.711   2.585
 4906TIP3   OH214674   3.567   3.875   0.372
 4906TIP3    H114675   3.576   3.797   0.317
 4906TIP3    H214676   3.499   3.851   0.436
 4907TIP3   OH214677   4.916   2.670   2.570
 4907TIP3    H114678   4.822   2.652   2.563
 4907TIP3    H214679   4.925   2.719   2.652
 4908TIP3   OH214680   4.369   7.458   3.146
 4908TIP3    H114681   4.459   7.439   3.175
 4908TIP3    H214682   4.314   7.400   3.199
 4909TIP3   OH214683   6.243   5.775   0.355
 4909TIP3    H114684   6.324   5.803   0.398
 4909TIP3    H214685   6.266   5.767   0.263
 4910TIP3   OH214686   1.444   3.720   3.335
 4910TIP3    H114687   1.410   3.801   3.373
 4910TIP3    H214688   1.504   3.749   3.267
 4911TIP3   OH214689   1.497   4.513   3.859
 4911TIP3    H114690   1.463   4.593   3.819
 4911TIP3    H214691   1.550   4.473   3.790
 4912TIP3   OH214692   7.386   1.461   2.310
 4912TIP3    H114693   7.425   1.481   2.396
 4912TIP3    H214694   7.451   1.406   2.267
 4913TIP3   OH214695   3.201   6.324   5.094
 4913TIP3    H114696   3.295   6.307   5.090
 4913TIP3    H214697   3.169   6.303   5.006
 4914TIP3   OH214698   7.495   3.993   2.655
 4914TIP3    H114699   7.421   4.036   2.610
 4914TIP3    H214700   7.460   3.969   2.741
 4915TIP3   OH214701   7.038   0.663   2.856
 4915TIP3    H114702   7.113   0.622   2.897
 4915TIP3    H214703   6.977   0.591   2.838
 4916TIP3   OH214704   4.353   5.267   2.261
 4916TIP3    H114705   4.346   5.188   2.208
 4916TIP3    H214706   4.346   5.236   2.351
 4917TIP3   OH214707   5.243   6.361   5.130
 4917TIP3    H114708   5.265   6.422   5.201
 4917TIP3    H214709   5.249   6.413   5.050
 4918TIP3   OH214710   6.573   6.586   1.034
 4918TIP3    H114711   6.663   6.585   1.066
 4918TIP3    H214712   6.556   6.678   1.011
 4919TIP3   OH214713   5.420   7.531   6.060
 4919TIP3    H114714   5.381   7.449   6.029
 4919TIP3    H214715   5.382   7.544   6.147
 4920TIP3   OH214716   3.462   0.747   0.644
 4920TIP3    H114717   3.540   0.706   0.606
 4920TIP3    H214718   3.433   0.810   0.579
 4921TIP3   OH214719   3.944   1.417   5.005
 4921TIP3    H114720   3.893   1.412   4.924
 4921TIP3    H214721   3.952   1.511   5.023
 4922TIP3   OH214722   7.791   4.237   5.627
 4922TIP3    H114723   7.707   4.259   5.668
 4922TIP3    H214724   7.816   4.316   5.579
 4923TIP3   OH214725   3.091   1.708   6.156
 4923TIP3    H114726   3.115   1.704   6.249
 4923TIP3    H214727   3.037   1.787   6.149
 4924TIP3   OH214728   0.485   6.650   5.338
 4924TIP3    H114729   0.548   6.640   5.266
 4924TIP3    H214730   0.476   6.745   5.348
 4925TIP3   OH214731   4.061   4.220   2.298
 4925TIP3    H114732   4.080   4.299   2.247
 4925TIP3    H214733   3.965   4.218   2.304
 4926TIP3   OH214734   4.345   7.521   0.168
 4926TIP3    H114735   4.253   7.528   0.144
 4926TIP3    H214736   4.358   7.427   0.184
 4927TIP3   OH214737   5.077   7.792   5.220
 4927TIP3    H114738   4.987   7.769   5.199
 4927TIP3    H214739   5.072   7.879   5.259
 4928TIP3   OH214740   0.069   5.043   3.234
 4928TIP3    H114741   0.128   5.064   3.162
 4928TIP3    H214742   0.127   5.037   3.311
 4929TIP3   OH214743   6.755   6.495   5.869
 4929TIP3    H114744   6.817   6.566   5.851
 4929TIP3    H214745   6.679   6.515   5.814
 4930TIP3   OH214746   5.193   5.721   4.509
 4930TIP3    H114747   5.110   5.708   4.464
 4930TIP3    H214748   5.183   5.674   4.592
 4931TIP3   OH214749   1.362   2.768   6.294
 4931TIP3    H114750   1.353   2.832   6.224
 4931TIP3    H214751   1.272   2.742   6.315
 4932TIP3   OH214752   0.530   6.348   3.041
 4932TIP3    H114753   0.555   6.436   3.015
 4932TIP3    H214754   0.581   6.330   3.120
 4933TIP3   OH214755   5.269   5.306   2.988
 4933TIP3    H114756   5.327   5.300   2.912
 4933TIP3    H214757   5.228   5.219   2.993
 4934TIP3   OH214758   1.417   4.814   6.460
 4934TIP3    H114759   1.495   4.840   6.508
 4934TIP3    H214760   1.446   4.741   6.405
 4935TIP3   OH214761   3.564   6.447   1.607
 4935TIP3    H114762   3.525   6.521   1.653
 4935TIP3    H214763   3.657   6.451   1.628
 4936TIP3   OH214764   2.918   5.201   1.531
 4936TIP3    H114765   3.011   5.180   1.546
 4936TIP3    H214766   2.912   5.294   1.551
 4937TIP3   OH214767   4.798   0.952   4.877
 4937TIP3    H114768   4.884   0.963   4.918
 4937TIP3    H214769   4.816   0.958   4.783
 4938TIP3   OH214770   4.164   5.856   1.653
 4938TIP3    H114771   4.134   5.900   1.732
 4938TIP3    H214772   4.084   5.833   1.606
 4939TIP3   OH214773   3.413   7.497   6.184
 4939TIP3    H114774   3.321   7.503   6.158
 4939TIP3    H214775   3.432   7.403   6.184
 4940TIP3   OH214776   1.148   6.912   1.049
 4940TIP3    H114777   1.207   6.966   0.997
 4940TIP3    H214778   1.138   6.961   1.131
 4941TIP3   OH214779   5.916   7.088   6.287
 4941TIP3    H114780   5.975   7.163   6.282
 4941TIP3    H214781   5.906   7.071   6.381
 4942TIP3   OH214782   1.802   2.408   5.497
 4942TIP3    H114783   1.795   2.375   5.407
 4942TIP3    H214784   1.896   2.419   5.511
 4943TIP3   OH214785   5.069   3.496   3.596
 4943TIP3    H114786   5.131   3.529   3.661
 4943TIP3    H214787   5.073   3.401   3.605
 4944TIP3   OH214788   3.721   5.635   0.337
 4944TIP3    H114789   3.657   5.659   0.270
 4944TIP3    H214790   3.687   5.673   0.418
 4945TIP3   OH214791   1.637   6.529   5.314
 4945TIP3    H114792   1.592   6.515   5.397
 4945TIP3    H214793   1.597   6.466   5.254
 4946TIP3   OH214794   8.084   6.247   5.098
 4946TIP3    H114795   8.054   6.253   5.007
 4946TIP3    H214796   8.089   6.153   5.115
 4947TIP3   OH214797   4.815   2.095   1.680
 4947TIP3    H114798   4.869   2.039   1.624
 4947TIP3    H214799   4.848   2.081   1.768
 4948TIP3   OH214800   6.512   0.691   1.741
 4948TIP3    H114801   6.454   0.669   1.668
 4948TIP3    H214802   6.468   0.657   1.818
 4949TIP3   OH214803   0.444   2.703   6.085
 4949TIP3    H114804   0.480   2.656   6.160
 4949TIP3    H214805   0.379   2.644   6.047
 4950TIP3   OH214806   5.971   4.454   2.908
 4950TIP3    H114807   5.904   4.485   2.847
 4950TIP3    H214808   5.922   4.403   2.972
 4951TIP3   OH214809   5.016   1.300   4.165
 4951TIP3    H114810   4.975   1.306   4.079
 4951TIP3    H214811   5.047   1.209   4.170
 4952TIP3   OH214812   3.659   7.520   0.946
 4952TIP3    H114813   3.653   7.562   1.032
 4952TIP3    H214814   3.670   7.593   0.885
 4953TIP3   OH214815   6.386   1.698   2.848
 4953TIP3    H114816   6.333   1.772   2.818
 4953TIP3    H214817   6.405   1.718   2.940
 4954TIP3   OH214818   5.585   3.550   4.863
 4954TIP3    H114819   5.601   3.521   4.773
 4954TIP3    H214820   5.598   3.645   4.859
 4955TIP3   OH214821   3.911   0.692   3.430
 4955TIP3    H114822   3.887   0.668   3.341
 4955TIP3    H214823   3.830   0.684   3.480
 4956TIP3   OH214824   5.404   5.756   0.277
 4956TIP3    H114825   5.373   5.800   0.356
 4956TIP3    H214826   5.436   5.671   0.308
 4957TIP3   OH214827   3.851   6.058   3.664
 4957TIP3    H114828   3.816   6.041   3.577
 4957TIP3    H214829   3.867   5.971   3.701
 4958TIP3   OH214830   7.320   5.924   0.150
 4958TIP3    H114831   7.241   5.974   0.171
 4958TIP3    H214832   7.380   5.988   0.112
 4959TIP3   OH214833   1.428   6.474   0.231
 4959TIP3    H114834   1.420   6.405   0.165
 4959TIP3    H214835   1.491   6.439   0.294
 4960TIP3   OH214836   2.222   7.040   5.364
 4960TIP3    H114837   2.212   6.997   5.279
 4960TIP3    H214838   2.137   7.027   5.407
 4961TIP3   OH214839   1.272   0.088   6.628
 4961TIP3    H114840   1.307   0.007   6.590
 4961TIP3    H214841   1.225   0.130   6.556
 4962TIP3   OH214842   5.805   4.731   6.399
 4962TIP3    H114843   5.900   4.720   6.393
 4962TIP3    H214844   5.792   4.825   6.388
 4963TIP3   OH214845   7.385   6.996  -0.045
 4963TIP3    H114846   7.438   6.967   0.029
 4963TIP3    H214847   7.305   7.030  -0.005
 4964TIP3   OH214848   0.802   0.735   6.073
 4964TIP3    H114849   0.840   0.695   6.152
 4964TIP3    H214850   0.852   0.816   6.061
 4965TIP3   OH214851   3.060   6.802   0.509
 4965TIP3    H114852   2.983   6.784   0.454
 4965TIP3    H214853   3.061   6.897   0.518
 4966TIP3   OH214854   4.443   3.041   1.885
 4966TIP3    H114855   4.454   3.017   1.977
 4966TIP3    H214856   4.349   3.053   1.875
 4967TIP3   OH214857   4.477   6.818   1.762
 4967TIP3    H114858   4.512   6.840   1.848
 4967TIP3    H214859   4.382   6.824   1.772
 4968TIP3   OH214860   1.855   7.765   0.746
 4968TIP3    H114861   1.881   7.712   0.820
 4968TIP3    H214862   1.911   7.736   0.674
 4969TIP3   OH214863   7.044   0.185   3.181
 4969TIP3    H114864   7.085   0.125   3.119
 4969TIP3    H214865   6.966   0.139   3.211
 4970TIP3   OH214866   4.442   2.437   3.605
 4970TIP3    H114867   4.363   2.385   3.619
 4970TIP3    H214868   4.491   2.389   3.538
 4971TIP3   OH214869   6.238   4.992   5.385
 4971TIP3    H114870   6.234   5.088   5.388
 4971TIP3    H214871   6.152   4.964   5.417
 4972TIP3   OH214872   1.230   3.783   2.704
 4972TIP3    H114873   1.249   3.815   2.792
 4972TIP3    H214874   1.231   3.861   2.649
 4973TIP3   OH214875   4.210   1.198   3.066
 4973TIP3    H114876   4.169   1.271   3.113
 4973TIP3    H214877   4.204   1.223   2.974
 4974TIP3   OH214878   3.849   4.900   1.744
 4974TIP3    H114879   3.809   4.922   1.828
 4974TIP3    H214880   3.939   4.930   1.752
 4975TIP3   OH214881   4.351   3.796   2.515
 4975TIP3    H114882   4.363   3.828   2.426
 4975TIP3    H214883   4.393   3.861   2.571
 4976TIP3   OH214884   1.617   1.750   3.490
 4976TIP3    H114885   1.701   1.743   3.535
 4976TIP3    H214886   1.586   1.838   3.510
 4977TIP3   OH214887   1.229   4.756   5.696
 4977TIP3    H114888   1.175   4.775   5.620
 4977TIP3    H214889   1.263   4.841   5.723
 4978TIP3   OH214890   7.076   7.054   6.199
 4978TIP3    H114891   7.049   7.109   6.125
 4978TIP3    H214892   7.168   7.077   6.213
 4979TIP3   OH214893   6.976   5.790   5.199
 4979TIP3    H114894   7.050   5.807   5.258
 4979TIP3    H214895   6.919   5.732   5.249
 4980TIP3   OH214896   2.431   0.487   5.737
 4980TIP3    H114897   2.442   0.410   5.793
 4980TIP3    H214898   2.519   0.526   5.732
 4981TIP3   OH214899   3.521   7.506   5.599
 4981TIP3    H114900   3.513   7.415   5.626
 4981TIP3    H214901   3.544   7.501   5.506
 4982TIP3   OH214902   5.593   6.275   0.037
 4982TIP3    H114903   5.622   6.273   0.128
 4982TIP3    H214904   5.498   6.282   0.041
 4983TIP3   OH214905   5.163   4.835   1.664
 4983TIP3    H114906   5.253   4.806   1.681
 4983TIP3    H214907   5.140   4.888   1.740
 4984TIP3   OH214908   8.269   3.212   3.249
 4984TIP3    H114909   8.358   3.246   3.252
 4984TIP3    H214910   8.216   3.279   3.293
 4985TIP3   OH214911   4.488   7.765   5.036
 4985TIP3    H114912   4.459   7.713   4.962
 4985TIP3    H214913   4.422   7.751   5.104
 4986TIP3   OH214914   0.178   3.061   4.013
 4986TIP3    H114915   0.156   3.105   3.930
 4986TIP3    H214916   0.095   3.058   4.061
 4987TIP3   OH214917   6.621   0.219   1.555
 4987TIP3    H114918   6.665   0.142   1.518
 4987TIP3    H214919   6.559   0.183   1.618
 4988TIP3   OH214920   8.288   5.196   2.136
 4988TIP3    H114921   8.291   5.140   2.214
 4988TIP3    H214922   8.269   5.283   2.171
 4989TIP3   OH214923   5.733   0.247   5.309
 4989TIP3    H114924   5.663   0.181   5.312
 4989TIP3    H214925   5.793   0.215   5.242
 4990TIP3   OH214926   0.318   5.817   3.594
 4990TIP3    H114927   0.260   5.798   3.520
 4990TIP3    H214928   0.401   5.841   3.554
 4991TIP3   OH214929   6.839   4.559   5.217
 4991TIP3    H114930   6.771   4.591   5.277
 4991TIP3    H214931   6.797   4.487   5.170
 4992TIP3   OH214932   4.406   2.787   0.657
 4992TIP3    H114933   4.498   2.763   0.663
 4992TIP3    H214934   4.406   2.882   0.659
 4993TIP3   OH214935   0.542   0.551   0.352
 4993TIP3    H114936   0.608   0.586   0.411
 4993TIP3    H214937   0.487   0.495   0.407
 4994TIP3   OH214938   3.097   6.925   5.357
 4994TIP3    H114939   3.050   6.886   5.432
 4994TIP3    H214940   3.183   6.882   5.358
 4995TIP3   OH214941   5.196   2.034   2.178
 4995TIP3    H114942   5.262   2.101   2.156
 4995TIP3    H214943   5.112   2.076   2.160
 4996TIP3   OH214944   0.074   7.756   3.628
 4996TIP3    H114945   0.101   7.695   3.697
 4996TIP3    H214946   0.124   7.836   3.646
 4997TIP3   OH214947   1.880   5.887   1.720
 4997TIP3    H114948   1.825   5.965   1.721
 4997TIP3    H214949   1.834   5.824   1.776
 4998TIP3   OH214950   1.006   3.551   5.368
 4998TIP3    H114951   1.013   3.627   5.310
 4998TIP3    H214952   0.922   3.510   5.344
 4999TIP3   OH214953   6.341   5.664   0.784
 4999TIP3    H114954   6.394   5.672   0.705
 4999TIP3    H214955   6.361   5.577   0.818
 5000TIP3   OH214956   5.439   5.302   4.436
 5000TIP3    H114957   5.428   5.207   4.441
 5000TIP3    H214958   5.494   5.323   4.511
 5001TIP3   OH214959   5.976   0.600   3.652
 5001TIP3    H114960   6.025   0.564   3.726
 5001TIP3    H214961   5.911   0.532   3.631
 5002TIP3   OH214962   3.972   5.202   3.608
 5002TIP3    H114963   3.936   5.210   3.519
 5002TIP3    H214964   4.058   5.162   3.596
 5003TIP3   OH214965   2.384   2.680   2.980
 5003TIP3    H114966   2.447   2.617   3.016
 5003TIP3    H214967   2.378   2.749   3.046
 5004TIP3   OH214968   6.805   4.028   1.151
 5004TIP3    H114969   6.744   4.081   1.201
 5004TIP3    H214970   6.754   3.997   1.076
 5005TIP3   OH214971   1.913   4.262   5.991
 5005TIP3    H114972   1.869   4.307   6.064
 5005TIP3    H214973   1.878   4.304   5.913
 5006TIP3   OH214974   4.156   3.817   5.215
 5006TIP3    H114975   4.199   3.902   5.225
 5006TIP3    H214976   4.104   3.806   5.294
 5007TIP3   OH214977   6.892   0.589   5.749
 5007TIP3    H114978   6.882   0.661   5.810
 5007TIP3    H214979   6.833   0.521   5.782
 5008TIP3   OH214980   4.707   0.227   0.968
 5008TIP3    H114981   4.654   0.290   1.018
 5008TIP3    H214982   4.661   0.219   0.884
 5009TIP3   OH214983   5.654   2.669   1.072
 5009TIP3    H114984   5.591   2.732   1.036
 5009TIP3    H214985   5.739   2.699   1.040
 5010TIP3   OH214986   7.587   0.721   3.713
 5010TIP3    H114987   7.551   0.658   3.776
 5010TIP3    H214988   7.534   0.799   3.724
 5011TIP3   OH214989   4.954   5.399   5.729
 5011TIP3    H114990   4.939   5.490   5.755
 5011TIP3    H214991   4.993   5.358   5.806
 5012TIP3   OH214992   0.361   3.980   0.024
 5012TIP3    H114993   0.425   4.033  -0.024
 5012TIP3    H214994   0.314   4.043   0.079
 5013TIP3   OH214995   1.900   2.734   5.360
 5013TIP3    H114996   1.915   2.707   5.269
 5013TIP3    H214997   1.810   2.767   5.361
 5014TIP3   OH214998   1.082   1.883   3.635
 5014TIP3    H114999   1.115   1.832   3.561
 5014TIP3    H215000   1.148   1.951   3.649
 5015TIP3   OH215001   5.519   6.094   0.736
 5015TIP3    H115002   5.493   6.007   0.768
 5015TIP3    H215003   5.456   6.154   0.775
 5016TIP3   OH215004   1.955   0.916   1.019
 5016TIP3    H115005   1.926   0.925   0.928
 5016TIP3    H215006   1.945   0.823   1.038
 5017TIP3   OH215007   0.829   3.710   1.780
 5017TIP3    H115008   0.889   3.772   1.737
 5017TIP3    H215009   0.882   3.670   1.849
 5018TIP3   OH215010   3.721   3.676   6.486
 5018TIP3    H115011   3.795   3.652   6.542
 5018TIP3    H215012   3.761   3.720   6.411
 5019TIP3   OH215013   1.112   2.903   4.944
 5019TIP3    H115014   1.024   2.868   4.931
 5019TIP3    H215015   1.100   2.997   4.955
 5020TIP3   OH215016   3.443   0.729   5.723
 5020TIP3    H115017   3.538   0.728   5.711
 5020TIP3    H215018   3.410   0.670   5.656
 5021TIP3   OH215019   6.693   4.986   4.549
 5021TIP3    H115020   6.708   5.047   4.621
 5021TIP3    H215021   6.769   4.928   4.550
 5022TIP3   OH215022   6.802   7.761   4.827
 5022TIP3    H115023   6.843   7.814   4.759
 5022TIP3    H215024   6.839   7.793   4.909
 5023TIP3   OH215025   2.376   3.659   5.964
 5023TIP3    H115026   2.291   3.662   5.921
 5023TIP3    H215027   2.414   3.575   5.936
 5024TIP3   OH215028   3.049   3.382   4.152
 5024TIP3    H115029   2.983   3.417   4.092
 5024TIP3    H215030   3.093   3.313   4.102
 5025TIP3   OH215031   1.539   3.391   3.391
 5025TIP3    H115032   1.615   3.332   3.383
 5025TIP3    H215033   1.477   3.342   3.445
 5026TIP3   OH215034   6.081   5.901   5.341
 5026TIP3    H115035   6.173   5.879   5.354
 5026TIP3    H215036   6.072   5.989   5.377
 5027TIP3   OH215037   1.080   7.412   4.424
 5027TIP3    H115038   1.134   7.466   4.366
 5027TIP3    H215039   0.991   7.423   4.392
 5028TIP3   OH215040   1.200   2.108   2.330
 5028TIP3    H115041   1.200   2.030   2.387
 5028TIP3    H215042   1.110   2.112   2.297
 5029TIP3   OH215043   6.078   5.429   1.047
 5029TIP3    H115044   6.123   5.349   1.020
 5029TIP3    H215045   6.050   5.470   0.965
 5030TIP3   OH215046   7.597   4.418   5.189
 5030TIP3    H115047   7.627   4.328   5.178
 5030TIP3    H215048   7.643   4.449   5.267
 5031TIP3   OH215049   2.729   1.299   2.427
 5031TIP3    H115050   2.780   1.375   2.454
 5031TIP3    H215051   2.793   1.229   2.420
 5032TIP3   OH215052   4.972   1.461   3.080
 5032TIP3    H115053   5.001   1.552   3.092
 5032TIP3    H215054   5.025   1.411   3.143
 5033TIP3   OH215055   8.252   0.621   5.592
 5033TIP3    H115056   8.198   0.581   5.524
 5033TIP3    H215057   8.271   0.709   5.558
 5034TIP3   OH215058   1.211   3.408   3.093
 5034TIP3    H115059   1.133   3.355   3.075
 5034TIP3    H215060   1.276   3.345   3.125
 5035TIP3   OH215061   6.213   7.254   1.596
 5035TIP3    H115062   6.171   7.320   1.541
 5035TIP3    H215063   6.306   7.276   1.594
 5036TIP3   OH215064   1.566   3.806   2.499
 5036TIP3    H115065   1.621   3.867   2.449
 5036TIP3    H215066   1.494   3.861   2.531
 5037TIP3   OH215067   7.167   6.383   3.628
 5037TIP3    H115068   7.143   6.409   3.717
 5037TIP3    H215069   7.141   6.291   3.622
 5038TIP3   OH215070   3.377   1.983   4.300
 5038TIP3    H115071   3.446   1.918   4.288
 5038TIP3    H215072   3.340   1.964   4.386
 5039TIP3   OH215073   2.848   6.552   5.423
 5039TIP3    H115074   2.909   6.495   5.377
 5039TIP3    H215075   2.892   6.637   5.427
 5040TIP3   OH215076   0.052   0.089   0.206
 5040TIP3    H115077  -0.010   0.019   0.187
 5040TIP3    H215078   0.033   0.115   0.296
 5041TIP3   OH215079   0.567   0.811   3.456
 5041TIP3    H115080   0.493   0.839   3.402
 5041TIP3    H215081   0.558   0.716   3.461
 5042TIP3   OH215082   6.165   4.845   3.583
 5042TIP3    H115083   6.141   4.896   3.505
 5042TIP3    H215084   6.189   4.911   3.648
 5043TIP3   OH215085   8.122   1.173   5.332
 5043TIP3    H115086   8.216   1.182   5.321
 5043TIP3    H215087   8.094   1.118   5.259
 5044TIP3   OH215088   5.455   1.231   1.703
 5044TIP3    H115089   5.407   1.166   1.754
 5044TIP3    H215090   5.524   1.262   1.761
 5045TIP3   OH215091   5.995   5.766   3.103
 5045TIP3    H115092   5.985   5.692   3.164
 5045TIP3    H215093   5.932   5.831   3.134
 5046TIP3   OH215094   2.759   5.197   1.276
 5046TIP3    H115095   2.810   5.190   1.357
 5046TIP3    H215096   2.713   5.114   1.269
 5047TIP3   OH215097   0.111   3.693   0.650
 5047TIP3    H115098   0.175   3.745   0.601
 5047TIP3    H215099   0.162   3.653   0.721
 5048TIP3   OH215100   3.605   1.412   2.914
 5048TIP3    H115101   3.593   1.322   2.885
 5048TIP3    H215102   3.682   1.443   2.867
 5049TIP3   OH215103   7.221   0.466   0.306
 5049TIP3    H115104   7.264   0.382   0.286
 5049TIP3    H215105   7.290   0.519   0.345
 5050TIP3   OH215106   5.676   2.159   0.348
 5050TIP3    H115107   5.697   2.074   0.309
 5050TIP3    H215108   5.681   2.144   0.442
 5051TIP3   OH215109   3.378   6.421   5.846
 5051TIP3    H115110   3.291   6.461   5.857
 5051TIP3    H215111   3.384   6.403   5.752
 5052TIP3   OH215112   7.617   5.999   1.772
 5052TIP3    H115113   7.601   6.026   1.681
 5052TIP3    H215114   7.567   6.061   1.825
 5053TIP3   OH215115   7.831   0.159   3.925
 5053TIP3    H115116   7.742   0.185   3.904
 5053TIP3    H215117   7.830   0.144   4.019
 5054TIP3   OH215118   1.452   3.814   0.650
 5054TIP3    H115119   1.383   3.756   0.683
 5054TIP3    H215120   1.520   3.811   0.718
 5055TIP3   OH215121   7.695   5.202   4.933
 5055TIP3    H115122   7.787   5.191   4.957
 5055TIP3    H215123   7.649   5.207   5.017
 5056TIP3   OH215124   0.005   1.247   0.441
 5056TIP3    H115125   0.006   1.195   0.361
 5056TIP3    H215126  -0.027   1.333   0.413
 5057TIP3   OH215127   1.333   6.038   3.524
 5057TIP3    H115128   1.326   5.945   3.503
 5057TIP3    H215129   1.254   6.058   3.574
 5058TIP3   OH215130   2.088   5.460   6.049
 5058TIP3    H115131   2.167   5.410   6.067
 5058TIP3    H215132   2.116   5.551   6.051
 5059TIP3   OH215133   0.317   3.875   3.989
 5059TIP3    H115134   0.250   3.808   4.004
 5059TIP3    H215135   0.350   3.857   3.901
 5060TIP3   OH215136   0.987   1.968   0.789
 5060TIP3    H115137   0.994   1.978   0.694
 5060TIP3    H215138   1.072   1.931   0.815
 5061TIP3   OH215139   3.846   4.830   3.609
 5061TIP3    H115140   3.752   4.809   3.604
 5061TIP3    H215141   3.884   4.788   3.532
 5062TIP3   OH215142   4.556   7.063   4.174
 5062TIP3    H115143   4.593   6.982   4.210
 5062TIP3    H215144   4.506   7.035   4.098
 5063TIP3   OH215145   3.112   4.726   5.221
 5063TIP3    H115146   3.055   4.780   5.167
 5063TIP3    H215147   3.074   4.728   5.308
 5064TIP3   OH215148   3.147   3.526   3.785
 5064TIP3    H115149   3.080   3.586   3.754
 5064TIP3    H215150   3.173   3.477   3.706
 5065TIP3   OH215151   4.817   6.054   2.503
 5065TIP3    H115152   4.910   6.078   2.498
 5065TIP3    H215153   4.815   5.983   2.567
 5066TIP3   OH215154   3.377   3.773   5.980
 5066TIP3    H115155   3.354   3.702   6.040
 5066TIP3    H215156   3.295   3.799   5.939
 5067TIP3   OH215157   0.179   1.513   0.216
 5067TIP3    H115158   0.119   1.508   0.291
 5067TIP3    H215159   0.122   1.516   0.139
 5068TIP3   OH215160   8.113   5.070   3.310
 5068TIP3    H115161   8.194   5.055   3.262
 5068TIP3    H215162   8.135   5.138   3.374
 5069TIP3   OH215163   7.922   6.774   1.691
 5069TIP3    H115164   7.930   6.700   1.750
 5069TIP3    H215165   7.844   6.755   1.638
 5070TIP3   OH215166   7.056   3.267   4.527
 5070TIP3    H115167   6.996   3.328   4.570
 5070TIP3    H215168   7.017   3.181   4.541
 5071TIP3   OH215169   1.900   3.029   1.292
 5071TIP3    H115170   1.820   3.054   1.338
 5071TIP3    H215171   1.922   2.943   1.326
 5072TIP3   OH215172   6.655   7.349   5.513
 5072TIP3    H115173   6.720   7.406   5.472
 5072TIP3    H215174   6.700   7.311   5.588
 5073TIP3   OH215175   1.017   0.155   5.080
 5073TIP3    H115176   1.044   0.234   5.034
 5073TIP3    H215177   1.094   0.129   5.131
 5074TIP3   OH215178   6.756   4.367   0.823
 5074TIP3    H115179   6.827   4.303   0.827
 5074TIP3    H215180   6.676   4.315   0.829
 5075TIP3   OH215181   7.560   1.935   6.310
 5075TIP3    H115182   7.506   1.991   6.255
 5075TIP3    H215183   7.580   1.860   6.255
 5076TIP3   OH215184   6.703   1.645   0.330
 5076TIP3    H115185   6.663   1.560   0.346
 5076TIP3    H215186   6.710   1.686   0.416
 5077TIP3   OH215187   1.513   0.697   0.487
 5077TIP3    H115188   1.436   0.689   0.430
 5077TIP3    H215189   1.587   0.699   0.427
 5078TIP3   OH215190   3.779   4.361   5.292
 5078TIP3    H115191   3.728   4.369   5.211
 5078TIP3    H215192   3.725   4.404   5.358
 5079TIP3   OH215193   1.719   3.167   4.559
 5079TIP3    H115194   1.630   3.134   4.558
 5079TIP3    H215195   1.730   3.208   4.473
 5080TIP3   OH215196   0.275   4.666   0.760
 5080TIP3    H115197   0.217   4.644   0.834
 5080TIP3    H215198   0.221   4.649   0.682
 5081TIP3   OH215199   0.359   5.167   5.083
 5081TIP3    H115200   0.349   5.231   5.153
 5081TIP3    H215201   0.441   5.122   5.104
 5082TIP3   OH215202   2.755   7.063   2.815
 5082TIP3    H115203   2.661   7.080   2.817
 5082TIP3    H215204   2.767   6.983   2.866
 5083TIP3   OH215205   6.732   2.551   6.282
 5083TIP3    H115206   6.693   2.610   6.347
 5083TIP3    H215207   6.679   2.471   6.289
 5084TIP3   OH215208   5.108   5.888   5.724
 5084TIP3    H115209   5.042   5.948   5.691
 5084TIP3    H215210   5.153   5.937   5.793
 5085TIP3   OH215211   3.453   2.960   0.718
 5085TIP3    H115212   3.536   2.988   0.679
 5085TIP3    H215213   3.387   3.011   0.671
 5086TIP3   OH215214   3.093   1.241   1.293
 5086TIP3    H115215   3.134   1.155   1.279
 5086TIP3    H215216   3.068   1.241   1.385
 5087TIP3   OH215217   4.601   7.378   2.362
 5087TIP3    H115218   4.561   7.434   2.429
 5087TIP3    H215219   4.694   7.401   2.364
 5088TIP3   OH215220   5.348   2.225   0.497
 5088TIP3    H115221   5.330   2.270   0.580
 5088TIP3    H215222   5.263   2.216   0.455
 5089TIP3   OH215223   0.303   6.889   3.952
 5089TIP3    H115224   0.358   6.848   4.019
 5089TIP3    H215225   0.235   6.935   4.000
 5090TIP3   OH215226   5.464   5.101   6.579
 5090TIP3    H115227   5.395   5.111   6.513
 5090TIP3    H215228   5.428   5.039   6.642
 5091TIP3   OH215229   0.758   4.242   4.852
 5091TIP3    H115230   0.697   4.316   4.853
 5091TIP3    H215231   0.783   4.231   4.943
 5092TIP3   OH215232   5.500   2.870   3.551
 5092TIP3    H115233   5.525   2.780   3.528
 5092TIP3    H215234   5.520   2.921   3.473
 5093TIP3   OH215235   4.671   2.971   6.288
 5093TIP3    H115236   4.591   2.935   6.251
 5093TIP3    H215237   4.641   3.038   6.350
 5094TIP3   OH215238   1.897   6.235   3.958
 5094TIP3    H115239   1.984   6.208   3.988
 5094TIP3    H215240   1.859   6.157   3.920
 5095TIP3   OH215241   1.592   2.907   4.715
 5095TIP3    H115242   1.522   2.967   4.689
 5095TIP3    H215243   1.586   2.835   4.652
 5096TIP3   OH215244   1.036   2.846   2.060
 5096TIP3    H115245   0.972   2.909   2.093
 5096TIP3    H215246   1.010   2.830   1.970
 5097TIP3   OH215247   3.481   3.969   2.856
 5097TIP3    H115248   3.415   3.967   2.925
 5097TIP3    H215249   3.474   3.884   2.813
 5098TIP3   OH215250   0.048   7.562   2.046
 5098TIP3    H115251   0.110   7.562   2.119
 5098TIP3    H215252   0.072   7.485   1.994
 5099TIP3   OH215253   1.845   1.005   2.568
 5099TIP3    H115254   1.886   1.084   2.603
 5099TIP3    H215255   1.905   0.934   2.590
 5100TIP3   OH215256   7.210   5.047   5.883
 5100TIP3    H115257   7.121   5.059   5.914
 5100TIP3    H215258   7.242   4.970   5.929
 5101TIP3   OH215259   1.755   6.595   1.832
 5101TIP3    H115260   1.683   6.625   1.776
 5101TIP3    H215261   1.801   6.530   1.779
 5102TIP3   OH215262   1.344   6.618   1.058
 5102TIP3    H115263   1.320   6.566   0.982
 5102TIP3    H215264   1.289   6.696   1.053
 5103TIP3   OH215265   4.220   6.379   0.166
 5103TIP3    H115266   4.308   6.344   0.179
 5103TIP3    H215267   4.177   6.316   0.109
 5104TIP3   OH215268   0.072   1.535   6.471
 5104TIP3    H115269  -0.019   1.507   6.466
 5104TIP3    H215270   0.122   1.460   6.441
 5105TIP3   OH215271   6.061   2.255   4.595
 5105TIP3    H115272   6.031   2.246   4.686
 5105TIP3    H215273   6.149   2.293   4.603
 5106TIP3   OH215274   6.282   2.119   5.827
 5106TIP3    H115275   6.226   2.059   5.876
 5106TIP3    H215276   6.253   2.109   5.736
 5107TIP3   OH215277   7.789   0.913   4.276
 5107TIP3    H115278   7.812   0.902   4.184
 5107TIP3    H215279   7.773   0.824   4.307
 5108TIP3   OH215280   7.441   2.431   2.732
 5108TIP3    H115281   7.444   2.344   2.770
 5108TIP3    H215282   7.520   2.437   2.679
 5109TIP3   OH215283   3.479   1.556   4.268
 5109TIP3    H115284   3.501   1.496   4.196
 5109TIP3    H215285   3.383   1.555   4.271
 5110TIP3   OH215286   6.342   2.597   6.774
 5110TIP3    H115287   6.310   2.668   6.830
 5110TIP3    H215288   6.432   2.620   6.755
 5111TIP3   OH215289   0.060   1.779   0.882
 5111TIP3    H115290  -0.006   1.848   0.871
 5111TIP3    H215291   0.053   1.726   0.802
 5112TIP3   OH215292   4.396   1.075   6.354
 5112TIP3    H115293   4.323   1.132   6.329
 5112TIP3    H215294   4.356   1.001   6.398
 5113TIP3   OH215295   0.375   0.989   1.779
 5113TIP3    H115296   0.280   0.984   1.764
 5113TIP3    H215297   0.390   0.936   1.857
 5114TIP3   OH215298   5.081   3.369   4.051
 5114TIP3    H115299   4.985   3.364   4.057
 5114TIP3    H215300   5.108   3.399   4.137
 5115TIP3   OH215301   1.784   7.397   1.651
 5115TIP3    H115302   1.852   7.347   1.606
 5115TIP3    H215303   1.818   7.409   1.740
 5116TIP3   OH215304   2.559   6.212   1.295
 5116TIP3    H115305   2.481   6.174   1.333
 5116TIP3    H215306   2.621   6.218   1.367
 5117TIP3   OH215307   5.086   6.138   3.608
 5117TIP3    H115308   5.092   6.233   3.611
 5117TIP3    H215309   5.152   6.107   3.670
 5118TIP3   OH215310   4.777   4.924   4.335
 5118TIP3    H115311   4.775   5.007   4.383
 5118TIP3    H215312   4.698   4.926   4.281
 5119TIP3   OH215313   6.761   5.700   0.777
 5119TIP3    H115314   6.805   5.638   0.718
 5119TIP3    H215315   6.749   5.779   0.724
 5120TIP3   OH215316   2.988   6.078   2.671
 5120TIP3    H115317   2.911   6.052   2.721
 5120TIP3    H215318   3.049   6.005   2.682
 5121TIP3   OH215319   3.828   3.513   2.901
 5121TIP3    H115320   3.773   3.448   2.945
 5121TIP3    H215321   3.851   3.575   2.970
 5122TIP3   OH215322   1.105   3.789   2.030
 5122TIP3    H115323   1.188   3.742   2.044
 5122TIP3    H215324   1.047   3.756   2.099
 5123TIP3   OH215325   0.837   2.159   5.273
 5123TIP3    H115326   0.771   2.131   5.210
 5123TIP3    H215327   0.809   2.247   5.299
 5124TIP3   OH215328   6.382   0.027   4.224
 5124TIP3    H115329   6.386   0.098   4.160
 5124TIP3    H215330   6.310   0.053   4.283
 5125TIP3   OH215331   8.232   1.069   3.978
 5125TIP3    H115332   8.217   1.134   4.048
 5125TIP3    H215333   8.290   1.113   3.917
 5126TIP3   OH215334   4.657   6.822   4.253
 5126TIP3    H115335   4.666   6.794   4.161
 5126TIP3    H215336   4.618   6.746   4.297
 5127TIP3   OH215337   6.577   6.259   0.575
 5127TIP3    H115338   6.672   6.260   0.567
 5127TIP3    H215339   6.559   6.299   0.660
 5128TIP3   OH215340   5.142   5.910   1.395
 5128TIP3    H115341   5.084   5.983   1.416
 5128TIP3    H215342   5.089   5.831   1.407
 5129TIP3   OH215343   5.597   6.825   6.497
 5129TIP3    H115344   5.509   6.859   6.513
 5129TIP3    H215345   5.596   6.736   6.532
 5130TIP3   OH215346   1.013   4.789   3.989
 5130TIP3    H115347   0.990   4.766   4.079
 5130TIP3    H215348   1.012   4.705   3.942
 5131TIP3   OH215349   5.946   3.222   1.369
 5131TIP3    H115350   5.917   3.145   1.319
 5131TIP3    H215351   5.900   3.216   1.452
 5132TIP3   OH215352   6.106   3.053   6.119
 5132TIP3    H115353   6.181   3.023   6.068
 5132TIP3    H215354   6.030   3.016   6.074
 5133TIP3   OH215355   4.958   6.035   5.556
 5133TIP3    H115356   4.985   6.123   5.532
 5133TIP3    H215357   4.875   6.047   5.604
 5134TIP3   OH215358   4.093   3.505   1.074
 5134TIP3    H115359   4.154   3.557   1.021
 5134TIP3    H215360   4.083   3.556   1.155
 5135TIP3   OH215361   4.619   4.104   6.116
 5135TIP3    H115362   4.584   4.058   6.040
 5135TIP3    H215363   4.705   4.064   6.130
 5136TIP3   OH215364   0.704   1.431   4.333
 5136TIP3    H115365   0.738   1.500   4.390
 5136TIP3    H215366   0.629   1.471   4.290
 5137TIP3   OH215367   1.658   5.203   5.476
 5137TIP3    H115368   1.644   5.136   5.543
 5137TIP3    H215369   1.603   5.175   5.402
 5138TIP3   OH215370   5.840   4.530   4.428
 5138TIP3    H115371   5.777   4.513   4.498
 5138TIP3    H215372   5.906   4.462   4.437
 5139TIP3   OH215373   6.251   2.982   2.849
 5139TIP3    H115374   6.236   3.056   2.906
 5139TIP3    H215375   6.202   2.910   2.889
 5140TIP3   OH215376   5.971   3.045   3.488
 5140TIP3    H115377   6.059   3.053   3.453
 5140TIP3    H215378   5.922   3.117   3.447
 5141TIP3   OH215379   6.852   3.443   6.464
 5141TIP3    H115380   6.831   3.534   6.484
 5141TIP3    H215381   6.769   3.397   6.472
 5142TIP3   OH215382   4.525   7.056   2.185
 5142TIP3    H115383   4.501   7.090   2.099
 5142TIP3    H215384   4.618   7.080   2.196
 5143TIP3   OH215385   4.749   2.296   1.446
 5143TIP3    H115386   4.753   2.285   1.541
 5143TIP3    H215387   4.714   2.385   1.434
 5144TIP3   OH215388   7.731   7.801   0.359
 5144TIP3    H115389   7.771   7.723   0.398
 5144TIP3    H215390   7.803   7.863   0.352
 5145TIP3   OH215391   5.042   2.622   3.458
 5145TIP3    H115392   5.042   2.712   3.426
 5145TIP3    H215393   5.062   2.629   3.551
 5146TIP3   OH215394   3.621   0.628   0.936
 5146TIP3    H115395   3.604   0.579   0.855
 5146TIP3    H215396   3.546   0.686   0.945
 5147TIP3   OH215397   4.163   1.309   0.754
 5147TIP3    H115398   4.131   1.385   0.706
 5147TIP3    H215399   4.258   1.310   0.739
 5148TIP3   OH215400   0.244   2.578   1.618
 5148TIP3    H115401   0.225   2.544   1.530
 5148TIP3    H215402   0.219   2.671   1.613
 5149TIP3   OH215403   5.439   3.827   2.018
 5149TIP3    H115404   5.458   3.778   2.098
 5149TIP3    H215405   5.472   3.771   1.947
 5150TIP3   OH215406   4.448   7.836   4.558
 5150TIP3    H115407   4.519   7.895   4.533
 5150TIP3    H215408   4.382   7.848   4.490
 5151TIP3   OH215409   7.654   0.410   2.086
 5151TIP3    H115410   7.723   0.398   2.020
 5151TIP3    H215411   7.590   0.468   2.044
 5152TIP3   OH215412   7.596   5.398   3.341
 5152TIP3    H115413   7.506   5.421   3.318
 5152TIP3    H215414   7.592   5.372   3.433
 5153TIP3   OH215415   2.471   7.627   6.348
 5153TIP3    H115416   2.525   7.660   6.420
 5153TIP3    H215417   2.386   7.609   6.389
 5154TIP3   OH215418   2.194   1.058   2.784
 5154TIP3    H115419   2.233   1.026   2.865
 5154TIP3    H215420   2.115   1.105   2.812
 5155TIP3   OH215421   1.061   5.726   4.440
 5155TIP3    H115422   1.129   5.665   4.468
 5155TIP3    H215423   1.098   5.770   4.364
 5156TIP3   OH215424   1.824  -0.025   4.544
 5156TIP3    H115425   1.763  -0.039   4.472
 5156TIP3    H215426   1.884   0.042   4.513
 5157TIP3   OH215427   7.706   5.344   2.468
 5157TIP3    H115428   7.744   5.419   2.514
 5157TIP3    H215429   7.774   5.318   2.406
 5158TIP3   OH215430   1.446   7.470   3.004
 5158TIP3    H115431   1.489   7.516   2.931
 5158TIP3    H215432   1.460   7.378   2.985
 5159TIP3   OH215433   4.093   7.731   3.668
 5159TIP3    H115434   4.004   7.695   3.673
 5159TIP3    H215435   4.082   7.824   3.686
 5160TIP3   OH215436   7.823   0.811   0.754
 5160TIP3    H115437   7.889   0.881   0.762
 5160TIP3    H215438   7.828   0.765   0.838
 5161TIP3   OH215439   0.820   5.533   2.756
 5161TIP3    H115440   0.797   5.534   2.663
 5161TIP3    H215441   0.736   5.527   2.802
 5162TIP3   OH215442   0.954   1.637   6.512
 5162TIP3    H115443   1.005   1.678   6.581
 5162TIP3    H215444   0.881   1.698   6.497
 5163TIP3   OH215445   1.425   7.020   2.409
 5163TIP3    H115446   1.483   6.946   2.428
 5163TIP3    H215447   1.431   7.031   2.314
 5164TIP3   OH215448   3.812   5.797   1.815
 5164TIP3    H115449   3.786   5.869   1.873
 5164TIP3    H215450   3.853   5.840   1.740
 5165TIP3   OH215451   4.485   4.520   0.824
 5165TIP3    H115452   4.574   4.553   0.838
 5165TIP3    H215453   4.478   4.509   0.729
 5166TIP3   OH215454   2.811   1.231   2.050
 5166TIP3    H115455   2.842   1.295   1.986
 5166TIP3    H215456   2.728   1.267   2.082
 5167TIP3   OH215457   7.265   3.470   6.449
 5167TIP3    H115458   7.238   3.536   6.385
 5167TIP3    H215459   7.315   3.520   6.514
 5168TIP3   OH215460   8.115   7.424   4.963
 5168TIP3    H115461   8.108   7.424   4.867
 5168TIP3    H215462   8.049   7.361   4.991
 5169TIP3   OH215463   3.317   1.477   0.787
 5169TIP3    H115464   3.284   1.488   0.876
 5169TIP3    H215465   3.306   1.383   0.769
 5170TIP3   OH215466   4.626   6.051   5.699
 5170TIP3    H115467   4.573   5.973   5.680
 5170TIP3    H215468   4.603   6.112   5.629
 5171TIP3   OH215469   6.002   4.431   3.334
 5171TIP3    H115470   6.014   4.504   3.273
 5171TIP3    H215471   6.091   4.402   3.355
 5172TIP3   OH215472   7.844   7.632   4.144
 5172TIP3    H115473   7.847   7.722   4.177
 5172TIP3    H215474   7.879   7.638   4.055
 5173TIP3   OH215475   2.890   7.472   4.806
 5173TIP3    H115476   2.931   7.552   4.841
 5173TIP3    H215477   2.802   7.472   4.843
 5174TIP3   OH215478   3.612   5.911   3.022
 5174TIP3    H115479   3.610   5.816   3.034
 5174TIP3    H215480   3.705   5.931   3.008
 5175TIP3   OH215481   2.969   4.697   2.746
 5175TIP3    H115482   3.019   4.727   2.670
 5175TIP3    H215483   3.035   4.673   2.810
 5176TIP3   OH215484   7.466   0.866   5.425
 5176TIP3    H115485   7.530   0.800   5.399
 5176TIP3    H215486   7.474   0.935   5.359
 5177TIP3   OH215487   4.437   6.783   2.942
 5177TIP3    H115488   4.430   6.853   3.007
 5177TIP3    H215489   4.430   6.827   2.857
 5178TIP3   OH215490   1.990   6.126   2.509
 5178TIP3    H115491   1.940   6.044   2.516
 5178TIP3    H215492   1.963   6.177   2.585
 5179TIP3   OH215493   6.083   5.198   1.584
 5179TIP3    H115494   6.036   5.192   1.668
 5179TIP3    H215495   6.102   5.291   1.574
 5180TIP3   OH215496   6.756   1.378   4.252
 5180TIP3    H115497   6.662   1.366   4.238
 5180TIP3    H215498   6.785   1.296   4.292
 5181TIP3   OH215499   7.441   0.100   0.509
 5181TIP3    H115500   7.430   0.071   0.600
 5181TIP3    H215501   7.377   0.049   0.460
 5182TIP3   OH215502   7.047   2.828   2.579
 5182TIP3    H115503   6.969   2.784   2.612
 5182TIP3    H215504   7.118   2.765   2.592
 5183TIP3   OH215505   4.110   4.488   1.669
 5183TIP3    H115506   4.139   4.539   1.745
 5183TIP3    H215507   4.146   4.535   1.594
 5184TIP3   OH215508   7.749   0.979   6.484
 5184TIP3    H115509   7.832   0.957   6.527
 5184TIP3    H215510   7.694   1.013   6.555
 5185TIP3   OH215511   0.342   0.325   6.603
 5185TIP3    H115512   0.259   0.329   6.555
 5185TIP3    H215513   0.322   0.271   6.680
 5186TIP3   OH215514   5.128   2.481   4.293
 5186TIP3    H115515   5.181   2.472   4.371
 5186TIP3    H215516   5.182   2.447   4.222
 5187TIP3   OH215517   3.055   5.597   6.724
 5187TIP3    H115518   2.965   5.628   6.732
 5187TIP3    H215519   3.055   5.546   6.642
 5188TIP3   OH215520   6.868   5.325   5.309
 5188TIP3    H115521   6.849   5.416   5.287
 5188TIP3    H215522   6.783   5.289   5.336
 5189TIP3   OH215523   6.076   3.752   3.867
 5189TIP3    H115524   6.165   3.734   3.839
 5189TIP3    H215525   6.084   3.773   3.960
 5190TIP3   OH215526   6.974   5.074   4.869
 5190TIP3    H115527   7.008   5.149   4.820
 5190TIP3    H215528   6.983   5.098   4.961
 5191TIP3   OH215529   7.861   3.173   3.260
 5191TIP3    H115530   7.920   3.097   3.259
 5191TIP3    H215531   7.774   3.135   3.272
 5192TIP3   OH215532   0.135   6.027   3.320
 5192TIP3    H115533   0.224   6.061   3.308
 5192TIP3    H215534   0.096   6.088   3.383
 5193TIP3   OH215535   5.336   2.284   3.862
 5193TIP3    H115536   5.316   2.244   3.778
 5193TIP3    H215537   5.368   2.371   3.841
 5194TIP3   OH215538   1.893   2.587   3.686
 5194TIP3    H115539   1.957   2.553   3.623
 5194TIP3    H215540   1.869   2.511   3.739
 5195TIP3   OH215541   1.304   2.130   1.279
 5195TIP3    H115542   1.343   2.202   1.230
 5195TIP3    H215543   1.227   2.169   1.320
 5196TIP3   OH215544   7.490   0.060   4.282
 5196TIP3    H115545   7.539  -0.016   4.315
 5196TIP3    H215546   7.455   0.102   4.360
 5197TIP3   OH215547   0.526   6.595   0.527
 5197TIP3    H115548   0.465   6.523   0.511
 5197TIP3    H215549   0.479   6.674   0.500
 5198TIP3   OH215550   3.157   4.816   1.957
 5198TIP3    H115551   3.142   4.741   2.015
 5198TIP3    H215552   3.250   4.809   1.933
 5199TIP3   OH215553   7.599   6.626   3.442
 5199TIP3    H115554   7.589   6.540   3.400
 5199TIP3    H215555   7.630   6.606   3.530
 5200TIP3   OH215556   2.249   1.144   1.144
 5200TIP3    H115557   2.303   1.201   1.198
 5200TIP3    H215558   2.159   1.173   1.161
 5201TIP3   OH215559   1.362   0.138   6.257
 5201TIP3    H115560   1.354   0.052   6.298
 5201TIP3    H215561   1.284   0.186   6.286
 5202TIP3   OH215562   1.256   0.982   3.069
 5202TIP3    H115563   1.237   1.053   3.130
 5202TIP3    H215564   1.333   0.939   3.106
 5203TIP3   OH215565   4.729   3.642   0.928
 5203TIP3    H115566   4.690   3.667   0.844
 5203TIP3    H215567   4.741   3.547   0.920
 5204TIP3   OH215568   4.389   5.229   4.633
 5204TIP3    H115569   4.453   5.259   4.697
 5204TIP3    H215570   4.308   5.217   4.683
 5205TIP3   OH215571   7.577   3.770   3.764
 5205TIP3    H115572   7.546   3.683   3.790
 5205TIP3    H215573   7.659   3.754   3.717
 5206TIP3   OH215574   1.590   2.651   4.638
 5206TIP3    H115575   1.630   2.657   4.725
 5206TIP3    H215576   1.497   2.667   4.652
 5207TIP3   OH215577   0.411   0.580   4.074
 5207TIP3    H115578   0.360   0.638   4.131
 5207TIP3    H215579   0.391   0.492   4.105
 5208TIP3   OH215580   0.546   5.794   5.010
 5208TIP3    H115581   0.526   5.849   5.086
 5208TIP3    H215582   0.497   5.834   4.938
 5209TIP3   OH215583   5.128   4.276   0.079
 5209TIP3    H115584   5.169   4.324   0.151
 5209TIP3    H215585   5.192   4.278   0.008
 5210TIP3   OH215586   0.625   5.773   2.097
 5210TIP3    H115587   0.684   5.709   2.056
 5210TIP3    H215588   0.568   5.801   2.025
 5211TIP3   OH215589   0.630   0.974   0.393
 5211TIP3    H115590   0.556   0.990   0.334
 5211TIP3    H215591   0.607   1.021   0.473
 5212TIP3   OH215592   3.626   4.687   3.176
 5212TIP3    H115593   3.643   4.605   3.223
 5212TIP3    H215594   3.702   4.699   3.120
 5213TIP3   OH215595   2.582   2.075   4.347
 5213TIP3    H115596   2.592   2.158   4.300
 5213TIP3    H215597   2.558   2.012   4.279
 5214TIP3   OH215598   0.659   3.034   1.484
 5214TIP3    H115599   0.571   2.998   1.479
 5214TIP3    H215600   0.647   3.129   1.475
 5215TIP3   OH215601   2.438   6.810   5.528
 5215TIP3    H115602   2.488   6.892   5.534
 5215TIP3    H215603   2.501   6.743   5.553
 5216TIP3   OH215604   1.879   3.278   4.759
 5216TIP3    H115605   1.809   3.262   4.695
 5216TIP3    H215606   1.860   3.216   4.830
 5217TIP3   OH215607   1.279   2.534   0.365
 5217TIP3    H115608   1.215   2.537   0.437
 5217TIP3    H215609   1.227   2.553   0.286
 5218TIP3   OH215610   7.823   6.425   5.086
 5218TIP3    H115611   7.816   6.407   4.992
 5218TIP3    H215612   7.737   6.402   5.121
 5219TIP3   OH215613   7.910   6.151   0.700
 5219TIP3    H115614   7.927   6.174   0.791
 5219TIP3    H215615   7.924   6.056   0.697
 5220TIP3   OH215616   6.269   0.919   1.872
 5220TIP3    H115617   6.238   0.857   1.806
 5220TIP3    H215618   6.335   0.871   1.921
 5221TIP3   OH215619   1.150   7.857   3.942
 5221TIP3    H115620   1.193   7.777   3.969
 5221TIP3    H215621   1.057   7.834   3.935
 5222TIP3   OH215622   5.301   1.638   1.363
 5222TIP3    H115623   5.350   1.604   1.288
 5222TIP3    H215624   5.341   1.595   1.439
 5223TIP3   OH215625   3.127   3.488   4.671
 5223TIP3    H115626   3.125   3.522   4.582
 5223TIP3    H215627   3.172   3.403   4.664
 5224TIP3   OH215628   6.414   6.634   5.074
 5224TIP3    H115629   6.441   6.562   5.131
 5224TIP3    H215630   6.413   6.710   5.133
 5225TIP3   OH215631   5.496   3.694   3.962
 5225TIP3    H115632   5.565   3.698   3.895
 5225TIP3    H215633   5.496   3.602   3.990
 5226TIP3   OH215634   1.015   2.841   3.437
 5226TIP3    H115635   1.107   2.866   3.430
 5226TIP3    H215636   0.985   2.881   3.519
 5227TIP3   OH215637   2.314   1.146   1.978
 5227TIP3    H115638   2.284   1.148   2.069
 5227TIP3    H215639   2.238   1.174   1.927
 5228TIP3   OH215640   6.123   3.736   5.342
 5228TIP3    H115641   6.075   3.805   5.386
 5228TIP3    H215642   6.073   3.656   5.359
 5229TIP3   OH215643   7.768   3.077   4.369
 5229TIP3    H115644   7.709   3.130   4.317
 5229TIP3    H215645   7.855   3.096   4.334
 5230TIP3   OH215646   4.651   0.389   5.688
 5230TIP3    H115647   4.742   0.416   5.676
 5230TIP3    H215648   4.616   0.452   5.751
 5231TIP3   OH215649   3.845   1.228   4.015
 5231TIP3    H115650   3.911   1.177   4.063
 5231TIP3    H215651   3.870   1.319   4.030
 5232TIP3   OH215652   3.027   3.095   5.515
 5232TIP3    H115653   3.076   3.162   5.467
 5232TIP3    H215654   3.000   3.139   5.596
 5233TIP3   OH215655   2.660   3.930   2.203
 5233TIP3    H115656   2.720   3.992   2.163
 5233TIP3    H215657   2.620   3.978   2.276
 5234TIP3   OH215658   3.720   5.632   5.407
 5234TIP3    H115659   3.750   5.547   5.375
 5234TIP3    H215660   3.781   5.653   5.478
 5235TIP3   OH215661   4.858   5.984   4.510
 5235TIP3    H115662   4.809   6.044   4.567
 5235TIP3    H215663   4.870   5.905   4.563
 5236TIP3   OH215664   8.248   4.194   2.353
 5236TIP3    H115665   8.171   4.199   2.410
 5236TIP3    H215666   8.213   4.168   2.268
 5237TIP3   OH215667   6.351   4.583   0.546
 5237TIP3    H115668   6.268   4.537   0.538
 5237TIP3    H215669   6.418   4.515   0.533
 5238TIP3   OH215670   5.454   7.075   4.979
 5238TIP3    H115671   5.542   7.110   4.969
 5238TIP3    H215672   5.466   6.981   4.988
 5239TIP3   OH215673   5.817   6.462   4.882
 5239TIP3    H115674   5.839   6.421   4.798
 5239TIP3    H215675   5.724   6.442   4.895
 5240TIP3   OH215676   1.278   4.030   6.202
 5240TIP3    H115677   1.287   3.973   6.125
 5240TIP3    H215678   1.280   3.970   6.276
 5241TIP3   OH215679   5.033   1.317   1.571
 5241TIP3    H115680   5.051   1.318   1.665
 5241TIP3    H215681   4.937   1.320   1.565
 5242TIP3   OH215682   3.456   7.531   3.036
 5242TIP3    H115683   3.507   7.460   3.075
 5242TIP3    H215684   3.365   7.503   3.045
 5243TIP3   OH215685   7.133  -0.001   4.286
 5243TIP3    H115686   7.208   0.051   4.257
 5243TIP3    H215687   7.098  -0.038   4.205
 5244TIP3   OH215688   2.645   4.423   4.958
 5244TIP3    H115689   2.579   4.391   5.019
 5244TIP3    H215690   2.698   4.346   4.938
 5245TIP3   OH215691   4.139   5.253   2.685
 5245TIP3    H115692   4.054   5.294   2.665
 5245TIP3    H215693   4.139   5.243   2.780
 5246TIP3   OH215694   5.473   1.104   3.948
 5246TIP3    H115695   5.387   1.068   3.929
 5246TIP3    H215696   5.481   1.180   3.890
 5247TIP3   OH215697   4.510   1.407   5.793
 5247TIP3    H115698   4.578   1.435   5.854
 5247TIP3    H215699   4.458   1.344   5.842
 5248TIP3   OH215700   4.358   3.607   6.640
 5248TIP3    H115701   4.370   3.640   6.551
 5248TIP3    H215702   4.409   3.527   6.643
 5249TIP3   OH215703   3.020   4.543   4.785
 5249TIP3    H115704   3.084   4.493   4.836
 5249TIP3    H215705   2.967   4.588   4.851
 5250TIP3   OH215706   5.176   6.936   0.744
 5250TIP3    H115707   5.209   6.921   0.832
 5250TIP3    H215708   5.150   7.028   0.744
 5251TIP3   OH215709   6.479   7.274   0.847
 5251TIP3    H115710   6.523   7.312   0.771
 5251TIP3    H215711   6.506   7.331   0.920
 5252TIP3   OH215712   6.071   1.030   1.301
 5252TIP3    H115713   6.111   0.997   1.221
 5252TIP3    H215714   6.101   0.970   1.370
 5253TIP3   OH215715   5.751   3.510   6.530
 5253TIP3    H115716   5.695   3.578   6.568
 5253TIP3    H215717   5.726   3.430   6.575
 5254TIP3   OH215718   6.728   6.616   6.464
 5254TIP3    H115719   6.719   6.603   6.369
 5254TIP3    H215720   6.821   6.601   6.482
 5255TIP3   OH215721   7.298   2.548   1.895
 5255TIP3    H115722   7.244   2.626   1.901
 5255TIP3    H215723   7.374   2.575   1.843
 5256TIP3   OH215724   4.197   0.697   3.415
 5256TIP3    H115725   4.183   0.774   3.469
 5256TIP3    H215726   4.118   0.644   3.428
 5257TIP3   OH215727   6.996   6.911   4.914
 5257TIP3    H115728   6.999   6.860   4.833
 5257TIP3    H215729   7.027   6.850   4.981
 5258TIP3   OH215730   0.488   0.881   3.035
 5258TIP3    H115731   0.502   0.794   3.072
 5258TIP3    H215732   0.497   0.940   3.110
 5259TIP3   OH215733   0.043   6.192   3.656
 5259TIP3    H115734  -0.019   6.199   3.582
 5259TIP3    H215735   0.048   6.098   3.674
 5260TIP3   OH215736   6.254   4.887   4.812
 5260TIP3    H115737   6.163   4.859   4.810
 5260TIP3    H215738   6.269   4.914   4.903
 5261TIP3   OH215739   1.090   4.513   3.009
 5261TIP3    H115740   1.058   4.500   3.098
 5261TIP3    H215741   1.028   4.573   2.968
 5262TIP3   OH215742   6.568   3.361   6.367
 5262TIP3    H115743   6.491   3.417   6.377
 5262TIP3    H215744   6.542   3.277   6.405
 5263TIP3   OH215745   6.548   0.333   1.326
 5263TIP3    H115746   6.611   0.297   1.389
 5263TIP3    H215747   6.472   0.355   1.379
 5264TIP3   OH215748   4.054   4.307   4.930
 5264TIP3    H115749   4.122   4.255   4.889
 5264TIP3    H215750   4.100   4.381   4.970
 5265TIP3   OH215751   3.025   6.109   1.278
 5265TIP3    H115752   3.083   6.033   1.273
 5265TIP3    H215753   3.067   6.167   1.341
 5266TIP3   OH215754   3.221   6.594   0.439
 5266TIP3    H115755   3.295   6.652   0.459
 5266TIP3    H215756   3.144   6.647   0.461
 5267TIP3   OH215757   0.438   2.297   5.734
 5267TIP3    H115758   0.453   2.304   5.828
 5267TIP3    H215759   0.346   2.272   5.726
 5268TIP3   OH215760   7.868   5.116   0.356
 5268TIP3    H115761   7.907   5.034   0.325
 5268TIP3    H215762   7.935   5.154   0.413
 5269TIP3   OH215763   4.109   4.949   3.388
 5269TIP3    H115764   4.026   4.931   3.345
 5269TIP3    H215765   4.123   4.873   3.446
 5270TIP3   OH215766   7.745   5.668   4.757
 5270TIP3    H115767   7.788   5.711   4.684
 5270TIP3    H215768   7.817   5.640   4.814
 5271TIP3   OH215769   7.770   3.929   3.275
 5271TIP3    H115770   7.724   4.003   3.314
 5271TIP3    H215771   7.701   3.880   3.230
 5272TIP3   OH215772   0.703   6.688   6.141
 5272TIP3    H115773   0.786   6.726   6.169
 5272TIP3    H215774   0.727   6.603   6.103
 5273TIP3   OH215775   4.288   0.603   5.010
 5273TIP3    H115776   4.250   0.523   5.046
 5273TIP3    H215777   4.312   0.655   5.086
 5274TIP3   OH215778   1.469   0.825   4.657
 5274TIP3    H115779   1.399   0.764   4.636
 5274TIP3    H215780   1.547   0.771   4.663
 5275TIP3   OH215781   5.975   7.429   5.011
 5275TIP3    H115782   5.905   7.366   4.995
 5275TIP3    H215783   5.940   7.488   5.077
 5276TIP3   OH215784   7.744   0.985   3.167
 5276TIP3    H115785   7.817   1.044   3.148
 5276TIP3    H215786   7.674   1.043   3.196
 5277TIP3   OH215787   3.665   0.022   1.763
 5277TIP3    H115788   3.755   0.025   1.731
 5277TIP3    H215789   3.615   0.074   1.700
 5278TIP3   OH215790   1.557   3.209   2.720
 5278TIP3    H115791   1.487   3.272   2.737
 5278TIP3    H215792   1.534   3.171   2.635
 5279TIP3   OH215793   3.181   1.100   4.171
 5279TIP3    H115794   3.261   1.119   4.220
 5279TIP3    H215795   3.151   1.016   4.206
 5280TIP3   OH215796   4.627   5.033   6.640
 5280TIP3    H115797   4.672   5.093   6.700
 5280TIP3    H215798   4.697   5.000   6.584
 5281TIP3   OH215799   8.117   6.403   0.666
 5281TIP3    H115800   8.064   6.483   0.663
 5281TIP3    H215801   8.185   6.421   0.731
 5282TIP3   OH215802   1.580   6.844   5.605
 5282TIP3    H115803   1.515   6.875   5.669
 5282TIP3    H215804   1.617   6.765   5.645
 5283TIP3   OH215805   4.418   3.516   4.394
 5283TIP3    H115806   4.389   3.426   4.413
 5283TIP3    H215807   4.447   3.513   4.303
 5284TIP3   OH215808   7.407   0.036   2.360
 5284TIP3    H115809   7.347   0.089   2.411
 5284TIP3    H215810   7.421   0.086   2.280
 5285TIP3   OH215811   5.883   0.321   1.534
 5285TIP3    H115812   5.798   0.351   1.502
 5285TIP3    H215813   5.902   0.243   1.481
 5286TIP3   OH215814   4.150   3.176   2.876
 5286TIP3    H115815   4.095   3.098   2.878
 5286TIP3    H215816   4.087   3.248   2.868
 5287TIP3   OH215817   0.865   3.402   0.077
 5287TIP3    H115818   0.876   3.495   0.097
 5287TIP3    H215819   0.828   3.400  -0.011
 5288TIP3   OH215820   2.954   7.340   3.658
 5288TIP3    H115821   2.969   7.337   3.563
 5288TIP3    H215822   3.035   7.376   3.694
 5289TIP3   OH215823   7.802   7.225   3.975
 5289TIP3    H115824   7.846   7.265   3.900
 5289TIP3    H215825   7.709   7.226   3.952
 5290TIP3   OH215826   5.249   3.160   3.376
 5290TIP3    H115827   5.213   3.239   3.336
 5290TIP3    H215828   5.239   3.092   3.310
 5291TIP3   OH215829   6.918   7.135   4.468
 5291TIP3    H115830   6.837   7.148   4.517
 5291TIP3    H215831   6.937   7.221   4.430
 5292TIP3   OH215832   3.096   7.770   6.039
 5292TIP3    H115833   3.048   7.697   6.001
 5292TIP3    H215834   3.146   7.807   5.966
 5293TIP3   OH215835   7.110   7.254   5.442
 5293TIP3    H115836   7.058   7.268   5.363
 5293TIP3    H215837   7.135   7.162   5.440
 5294TIP3   OH215838   8.274   6.799   3.210
 5294TIP3    H115839   8.301   6.826   3.121
 5294TIP3    H215840   8.191   6.844   3.224
 5295TIP3   OH215841   5.485   6.551   4.223
 5295TIP3    H115842   5.473   6.645   4.235
 5295TIP3    H215843   5.402   6.521   4.185
 5296TIP3   OH215844   5.886   4.927   1.278
 5296TIP3    H115845   5.879   4.961   1.189
 5296TIP3    H215846   5.974   4.892   1.284
 5297TIP3   OH215847   1.831   6.972   3.678
 5297TIP3    H115848   1.828   6.897   3.619
 5297TIP3    H215849   1.789   6.940   3.758
 5298TIP3   OH215850   5.103   0.760   1.075
 5298TIP3    H115851   5.056   0.678   1.091
 5298TIP3    H215852   5.035   0.822   1.049
 5299TIP3   OH215853   6.785   5.568   1.514
 5299TIP3    H115854   6.749   5.655   1.533
 5299TIP3    H215855   6.803   5.530   1.601
 5300TIP3   OH215856   4.657   3.563   3.463
 5300TIP3    H115857   4.696   3.574   3.550
 5300TIP3    H215858   4.586   3.628   3.461
 5301TIP3   OH215859   1.115   4.029   0.784
 5301TIP3    H115860   1.118   4.026   0.689
 5301TIP3    H215861   1.068   3.949   0.809
 5302TIP3   OH215862   1.112   2.326   5.833
 5302TIP3    H115863   1.147   2.414   5.844
 5302TIP3    H215864   1.068   2.307   5.916
 5303TIP3   OH215865   6.777   1.999   4.123
 5303TIP3    H115866   6.724   1.920   4.116
 5303TIP3    H215867   6.852   1.984   4.066
 5304TIP3   OH215868   1.920   7.482   4.860
 5304TIP3    H115869   1.913   7.478   4.765
 5304TIP3    H215870   1.992   7.543   4.876
 5305TIP3   OH215871   2.639   7.623   0.601
 5305TIP3    H115872   2.643   7.542   0.652
 5305TIP3    H215873   2.572   7.607   0.535
 5306TIP3   OH215874   2.963   5.188   0.359
 5306TIP3    H115875   2.972   5.222   0.448
 5306TIP3    H215876   3.042   5.135   0.346
 5307TIP3   OH215877   2.522   6.658   4.751
 5307TIP3    H115878   2.438   6.691   4.718
 5307TIP3    H215879   2.508   6.644   4.844
 5308TIP3   OH215880   3.435   2.909   4.290
 5308TIP3    H115881   3.437   2.928   4.384
 5308TIP3    H215882   3.519   2.941   4.258
 5309TIP3   OH215883   4.589   6.564   1.934
 5309TIP3    H115884   4.559   6.480   1.970
 5309TIP3    H215885   4.511   6.619   1.933
 5310TIP3   OH215886   6.354   3.893   5.355
 5310TIP3    H115887   6.279   3.837   5.373
 5310TIP3    H215888   6.408   3.842   5.294
 5311TIP3   OH215889   7.172   5.806   2.950
 5311TIP3    H115890   7.225   5.857   3.011
 5311TIP3    H215891   7.119   5.749   3.006
 5312TIP3   OH215892   4.665   6.912   6.150
 5312TIP3    H115893   4.651   6.903   6.244
 5312TIP3    H215894   4.753   6.949   6.142
 5313TIP3   OH215895   5.579   7.784   4.182
 5313TIP3    H115896   5.667   7.770   4.219
 5313TIP3    H215897   5.548   7.865   4.223
 5314TIP3   OH215898   0.937   2.005   4.143
 5314TIP3    H115899   0.967   1.980   4.056
 5314TIP3    H215900   0.966   1.933   4.199
 5315TIP3   OH215901   7.892   1.320   2.074
 5315TIP3    H115902   7.811   1.316   2.124
 5315TIP3    H215903   7.865   1.347   1.986
 5316TIP3   OH215904   7.490   1.439   1.243
 5316TIP3    H115905   7.550   1.495   1.194
 5316TIP3    H215906   7.424   1.413   1.179
 5317TIP3   OH215907   6.267   7.111   3.022
 5317TIP3    H115908   6.252   7.029   2.975
 5317TIP3    H215909   6.362   7.121   3.022
 5318TIP3   OH215910   1.008   0.941   5.773
 5318TIP3    H115911   1.092   0.919   5.814
 5318TIP3    H215912   0.955   0.862   5.784
 5319TIP3   OH215913   2.952   4.643   3.531
 5319TIP3    H115914   2.863   4.658   3.498
 5319TIP3    H215915   2.999   4.722   3.508
 5320TIP3   OH215916   2.721   3.305   0.914
 5320TIP3    H115917   2.635   3.310   0.872
 5320TIP3    H215918   2.702   3.316   1.008
 5321TIP3   OH215919   7.850   6.430   5.347
 5321TIP3    H115920   7.870   6.415   5.254
 5321TIP3    H215921   7.931   6.407   5.392
 5322TIP3   OH215922   0.763   0.130   2.142
 5322TIP3    H115923   0.713   0.049   2.157
 5322TIP3    H215924   0.721   0.195   2.197
 5323TIP3   OH215925   5.796   5.045   0.999
 5323TIP3    H115926   5.760   5.020   0.914
 5323TIP3    H215927   5.886   5.071   0.980
 5324TIP3   OH215928   5.017   1.880   6.013
 5324TIP3    H115929   5.003   1.916   6.100
 5324TIP3    H215930   4.964   1.936   5.955
 5325TIP3   OH215931   6.821   3.731   0.845
 5325TIP3    H115932   6.766   3.657   0.869
 5325TIP3    H215933   6.899   3.722   0.899
 5326TIP3   OH215934   3.605   2.937   5.569
 5326TIP3    H115935   3.581   2.845   5.580
 5326TIP3    H215936   3.544   2.970   5.503
 5327TIP3   OH215937   0.554   2.701   3.175
 5327TIP3    H115938   0.512   2.750   3.104
 5327TIP3    H215939   0.482   2.654   3.216
 5328TIP3   OH215940   0.064   4.291   2.638
 5328TIP3    H115941   0.015   4.268   2.558
 5328TIP3    H215942   0.082   4.385   2.628
 5329TIP3   OH215943   1.626   0.756   2.421
 5329TIP3    H115944   1.673   0.712   2.492
 5329TIP3    H215945   1.615   0.846   2.451
 5330TIP3   OH215946   4.004   5.984   5.546
 5330TIP3    H115947   3.914   6.015   5.543
 5330TIP3    H215948   4.057   6.064   5.543
 5331TIP3   OH215949   3.800   2.165   1.867
 5331TIP3    H115950   3.761   2.252   1.863
 5331TIP3    H215951   3.752   2.120   1.936
 5332TIP3   OH215952   3.693   6.247   4.205
 5332TIP3    H115953   3.676   6.313   4.139
 5332TIP3    H215954   3.657   6.166   4.168
 5333TIP3   OH215955   1.471   1.636   6.031
 5333TIP3    H115956   1.490   1.561   5.974
 5333TIP3    H215957   1.499   1.607   6.118
 5334TIP3   OH215958   8.208   4.800   3.196
 5334TIP3    H115959   8.231   4.743   3.270
 5334TIP3    H215960   8.263   4.877   3.206
 5335TIP3   OH215961   7.289   2.058   5.125
 5335TIP3    H115962   7.332   2.022   5.202
 5335TIP3    H215963   7.288   1.985   5.062
 5336TIP3   OH215964   8.059   3.731   1.550
 5336TIP3    H115965   7.977   3.737   1.599
 5336TIP3    H215966   8.035   3.683   1.470
 5337TIP3   OH215967   7.273   6.202   3.994
 5337TIP3    H115968   7.358   6.198   4.039
 5337TIP3    H215969   7.235   6.285   4.022
 5338TIP3   OH215970   6.102   6.126   5.478
 5338TIP3    H115971   6.077   6.138   5.569
 5338TIP3    H215972   6.142   6.209   5.452
 5339TIP3   OH215973   2.342   6.703   0.439
 5339TIP3    H115974   2.308   6.782   0.481
 5339TIP3    H215975   2.316   6.632   0.498
 5340TIP3   OH215976   5.031   6.968   6.829
 5340TIP3    H115977   5.037   6.886   6.779
 5340TIP3    H215978   4.988   7.029   6.770
 5341TIP3   OH215979   4.929   0.578   1.186
 5341TIP3    H115980   4.939   0.485   1.207
 5341TIP3    H215981   4.864   0.610   1.249
 5342TIP3   OH215982   5.251   6.879   1.207
 5342TIP3    H115983   5.327   6.923   1.245
 5342TIP3    H215984   5.289   6.808   1.154
 5343TIP3   OH215985   5.727   0.628   4.827
 5343TIP3    H115986   5.675   0.670   4.895
 5343TIP3    H215987   5.808   0.679   4.823
 5344TIP3   OH215988   1.980   5.721   2.899
 5344TIP3    H115989   1.927   5.792   2.862
 5344TIP3    H215990   1.943   5.707   2.987
 5345TIP3   OH215991   4.352   1.935   4.519
 5345TIP3    H115992   4.363   2.011   4.577
 5345TIP3    H215993   4.348   1.860   4.578
 5346TIP3   OH215994   4.849   2.243   4.723
 5346TIP3    H115995   4.878   2.153   4.742
 5346TIP3    H215996   4.799   2.235   4.642
 5347TIP3   OH215997   7.328   7.806   3.054
 5347TIP3    H115998   7.391   7.859   3.102
 5347TIP3    H215999   7.316   7.728   3.108
 5348TIP3   OH216000   1.929   6.411   4.950
 5348TIP3    H116001   1.937   6.452   5.037
 5348TIP3    H216002   1.943   6.318   4.966
 5349TIP3   OH216003   0.250   7.643   5.732
 5349TIP3    H116004   0.275   7.617   5.643
 5349TIP3    H216005   0.208   7.565   5.769
 5350TIP3   OH216006   2.930   6.778   3.842
 5350TIP3    H116007   2.969   6.785   3.755
 5350TIP3    H216008   2.837   6.795   3.828
 5351TIP3   OH216009   1.753   3.401   2.827
 5351TIP3    H116010   1.713   3.488   2.831
 5351TIP3    H216011   1.682   3.344   2.796
 5352TIP3   OH216012   0.970   0.302   4.195
 5352TIP3    H116013   0.945   0.385   4.154
 5352TIP3    H216014   0.889   0.269   4.234
 5353TIP3   OH216015   0.900  -0.001   4.831
 5353TIP3    H116016   0.951  -0.082   4.828
 5353TIP3    H216017   0.920   0.036   4.917
 5354TIP3   OH216018   0.557   0.108   3.598
 5354TIP3    H116019   0.464   0.085   3.607
 5354TIP3    H216020   0.590   0.051   3.530
 5355TIP3   OH216021   4.499   2.669   1.145
 5355TIP3    H116022   4.504   2.574   1.144
 5355TIP3    H216023   4.405   2.689   1.146
 5356TIP3   OH216024   6.189   2.392   5.863
 5356TIP3    H116025   6.210   2.300   5.845
 5356TIP3    H216026   6.191   2.434   5.778
 5357TIP3   OH216027   2.808   3.823   0.948
 5357TIP3    H116028   2.884   3.790   0.901
 5357TIP3    H216029   2.817   3.790   1.037
 5358TIP3   OH216030   4.047   0.409   0.560
 5358TIP3    H116031   4.122   0.441   0.610
 5358TIP3    H216032   4.059   0.314   0.556
 5359TIP3   OH216033   6.366   1.407   1.149
 5359TIP3    H116034   6.381   1.394   1.055
 5359TIP3    H216035   6.435   1.467   1.176
 5360TIP3   OH216036   2.568   1.843   4.509
 5360TIP3    H116037   2.567   1.903   4.435
 5360TIP3    H216038   2.479   1.846   4.545
 5361TIP3   OH216039   3.600   1.007   6.468
 5361TIP3    H116040   3.632   1.035   6.553
 5361TIP3    H216041   3.673   1.022   6.408
 5362TIP3   OH216042   7.170   3.675   6.663
 5362TIP3    H116043   7.097   3.614   6.672
 5362TIP3    H216044   7.239   3.640   6.720
 5363TIP3   OH216045   5.853   1.608   5.137
 5363TIP3    H116046   5.864   1.686   5.082
 5363TIP3    H216047   5.760   1.587   5.132
 5364TIP3   OH216048   2.592   5.346   6.381
 5364TIP3    H116049   2.647   5.377   6.309
 5364TIP3    H216050   2.613   5.253   6.388
 5365TIP3   OH216051   4.806   4.740   5.721
 5365TIP3    H116052   4.768   4.820   5.685
 5365TIP3    H216053   4.810   4.680   5.646
 5366TIP3   OH216054   2.400   2.796   4.304
 5366TIP3    H116055   2.477   2.846   4.331
 5366TIP3    H216056   2.334   2.815   4.371
 5367TIP3   OH216057   5.488   4.558   5.805
 5367TIP3    H116058   5.496   4.631   5.743
 5367TIP3    H216059   5.512   4.596   5.890
 5368TIP3   OH216060   3.934   0.507   5.854
 5368TIP3    H116061   4.012   0.521   5.801
 5368TIP3    H216062   3.933   0.412   5.870
 5369TIP3   OH216063   4.027   4.671   0.877
 5369TIP3    H116064   3.994   4.753   0.914
 5369TIP3    H216065   4.113   4.693   0.842
 5370TIP3   OH216066   2.168   5.347   3.125
 5370TIP3    H116067   2.124   5.401   3.191
 5370TIP3    H216068   2.261   5.364   3.138
 5371TIP3   OH216069   1.048   6.663   2.911
 5371TIP3    H116070   1.027   6.756   2.904
 5371TIP3    H216071   0.968   6.618   2.887
 5372TIP3   OH216072   7.031   1.162   6.482
 5372TIP3    H116073   7.069   1.238   6.438
 5372TIP3    H216074   7.010   1.101   6.411
 5373TIP3   OH216075   0.122   6.025   3.935
 5373TIP3    H116076   0.058   5.962   3.902
 5373TIP3    H216077   0.080   6.110   3.924
 5374TIP3   OH216078   5.475   3.120   4.522
 5374TIP3    H116079   5.508   3.162   4.601
 5374TIP3    H216080   5.522   3.037   4.517
 5375TIP3   OH216081   3.848   2.254   1.400
 5375TIP3    H116082   3.844   2.329   1.341
 5375TIP3    H216083   3.893   2.186   1.350
 5376TIP3   OH216084   7.581   1.244   2.987
 5376TIP3    H116085   7.631   1.322   3.011
 5376TIP3    H216086   7.581   1.190   3.066
 5377TIP3   OH216087   5.503   3.330   0.181
 5377TIP3    H116088   5.408   3.323   0.185
 5377TIP3    H216089   5.524   3.313   0.089
 5378TIP3   OH216090   0.106   3.657   6.257
 5378TIP3    H116091   0.082   3.599   6.185
 5378TIP3    H216092   0.202   3.662   6.253
 5379TIP3   OH216093   6.619   0.524   5.931
 5379TIP3    H116094   6.551   0.551   5.870
 5379TIP3    H216095   6.650   0.440   5.898
 5380TIP3   OH216096   0.213   4.392   2.408
 5380TIP3    H116097   0.151   4.433   2.347
 5380TIP3    H216098   0.223   4.303   2.376
 5381TIP3   OH216099   1.368   3.734   6.108
 5381TIP3    H116100   1.337   3.761   6.022
 5381TIP3    H216101   1.289   3.724   6.161
 5382TIP3   OH216102   1.168   6.103   2.997
 5382TIP3    H116103   1.212   6.085   2.914
 5382TIP3    H216104   1.171   6.198   3.005
 5383TIP3   OH216105   2.388   5.461   4.876
 5383TIP3    H116106   2.329   5.455   4.952
 5383TIP3    H216107   2.341   5.415   4.806
 5384TIP3   OH216108   6.179   7.452   6.649
 5384TIP3    H116109   6.171   7.534   6.601
 5384TIP3    H216110   6.123   7.464   6.726
 5385TIP3   OH216111   4.626   7.375   2.056
 5385TIP3    H116112   4.646   7.368   2.150
 5385TIP3    H216113   4.670   7.456   2.028
 5386TIP3   OH216114   4.813   3.341   6.010
 5386TIP3    H116115   4.781   3.255   5.984
 5386TIP3    H216116   4.738   3.399   5.998
 5387TIP3   OH216117   0.756   2.315   0.221
 5387TIP3    H116118   0.804   2.233   0.212
 5387TIP3    H216119   0.824   2.381   0.235
 5388TIP3   OH216120   5.514   3.635   1.825
 5388TIP3    H116121   5.599   3.627   1.868
 5388TIP3    H216122   5.503   3.552   1.778
 5389TIP3   OH216123   2.828   3.857   5.160
 5389TIP3    H116124   2.888   3.907   5.104
 5389TIP3    H216125   2.884   3.799   5.210
 5390TIP3   OH216126   6.306   5.137   5.995
 5390TIP3    H116127   6.274   5.049   5.975
 5390TIP3    H216128   6.401   5.127   6.000
 5391TIP3   OH216129   6.681   4.935   0.844
 5391TIP3    H116130   6.673   5.001   0.775
 5391TIP3    H216131   6.715   4.984   0.920
 5392TIP3   OH216132   5.734   3.213   6.317
 5392TIP3    H116133   5.765   3.237   6.404
 5392TIP3    H216134   5.725   3.297   6.271
 5393TIP3   OH216135   6.403   6.857   0.156
 5393TIP3    H116136   6.467   6.877   0.224
 5393TIP3    H216137   6.379   6.766   0.172
 5394TIP3   OH216138   3.713   3.430   4.752
 5394TIP3    H116139   3.693   3.439   4.658
 5394TIP3    H216140   3.791   3.375   4.755
 5395TIP3   OH216141   7.128   6.599  -0.013
 5395TIP3    H116142   7.094   6.535   0.048
 5395TIP3    H216143   7.185   6.656   0.039
 5396TIP3   OH216144   6.951   4.949   5.689
 5396TIP3    H116145   6.903   4.967   5.608
 5396TIP3    H216146   6.964   5.035   5.729
 5397TIP3   OH216147   3.414   1.278   0.454
 5397TIP3    H116148   3.454   1.289   0.367
 5397TIP3    H216149   3.348   1.346   0.459
 5398TIP3   OH216150   2.956   2.057   5.943
 5398TIP3    H116151   2.910   2.005   5.877
 5398TIP3    H216152   3.047   2.060   5.913
 5399TIP3   OH216153   1.759   3.412   1.253
 5399TIP3    H116154   1.834   3.353   1.243
 5399TIP3    H216155   1.744   3.416   1.347
 5400TIP3   OH216156   7.564   2.978   2.636
 5400TIP3    H116157   7.564   3.046   2.703
 5400TIP3    H216158   7.628   3.008   2.571
 5401TIP3   OH216159   3.347   4.567   4.795
 5401TIP3    H116160   3.346   4.630   4.867
 5401TIP3    H216161   3.308   4.488   4.831
 5402TIP3   OH216162   7.414   6.972   1.118
 5402TIP3    H116163   7.385   6.919   1.044
 5402TIP3    H216164   7.349   6.954   1.186
 5403TIP3   OH216165   4.303   0.040   6.568
 5403TIP3    H116166   4.248   0.097   6.515
 5403TIP3    H216167   4.272  -0.049   6.548
 5404TIP3   OH216168   6.401   5.295   0.060
 5404TIP3    H116169   6.474   5.282   0.121
 5404TIP3    H216170   6.412   5.227  -0.006
 5405TIP3   OH216171   3.053   3.711   2.323
 5405TIP3    H116172   3.071   3.801   2.348
 5405TIP3    H216173   2.958   3.703   2.327
 5406TIP3   OH216174   4.025   4.260   5.317
 5406TIP3    H116175   3.950   4.315   5.296
 5406TIP3    H216176   4.101   4.310   5.287
 5407TIP3   OH216177   0.302   3.239   5.720
 5407TIP3    H116178   0.359   3.313   5.697
 5407TIP3    H216179   0.228   3.248   5.660
 5408TIP3   OH216180   3.138   5.335   6.249
 5408TIP3    H116181   3.135   5.381   6.165
 5408TIP3    H216182   3.152   5.243   6.226
 5409TIP3   OH216183   6.545   1.930   3.374
 5409TIP3    H116184   6.614   1.877   3.335
 5409TIP3    H216185   6.563   1.927   3.468
 5410TIP3   OH216186   6.121   0.570   5.023
 5410TIP3    H116187   6.215   0.568   5.038
 5410TIP3    H216188   6.102   0.490   4.974
 5411TIP3   OH216189   5.010   6.577   5.027
 5411TIP3    H116190   5.009   6.672   5.023
 5411TIP3    H216191   4.933   6.554   5.079
 5412TIP3   OH216192   1.120   7.321   1.788
 5412TIP3    H116193   1.045   7.276   1.748
 5412TIP3    H216194   1.093   7.413   1.791
 5413TIP3   OH216195   4.155   0.394   5.156
 5413TIP3    H116196   4.191   0.320   5.205
 5413TIP3    H216197   4.173   0.373   5.064
 5414TIP3   OH216198   3.904   2.034   0.604
 5414TIP3    H116199   3.915   2.077   0.688
 5414TIP3    H216200   3.987   2.048   0.559
 5415TIP3   OH216201   1.885   7.118   6.390
 5415TIP3    H116202   1.790   7.104   6.398
 5415TIP3    H216203   1.908   7.078   6.306
 5416TIP3   OH216204   4.045   3.388   3.699
 5416TIP3    H116205   4.129   3.395   3.744
 5416TIP3    H216206   4.050   3.305   3.652
 5417TIP3   OH216207   1.450   5.746   1.618
 5417TIP3    H116208   1.539   5.782   1.616
 5417TIP3    H216209   1.413   5.769   1.533
 5418TIP3   OH216210   5.932   0.468   4.677
 5418TIP3    H116211   5.859   0.516   4.638
 5418TIP3    H216212   5.891   0.416   4.747
 5419TIP3   OH216213   1.143   7.433   0.187
 5419TIP3    H116214   1.104   7.461   0.270
 5419TIP3    H216215   1.071   7.393   0.138
 5420TIP3   OH216216   2.574   2.661   0.916
 5420TIP3    H116217   2.608   2.712   0.843
 5420TIP3    H216218   2.613   2.574   0.905
 5421TIP3   OH216219   8.002   4.980   5.822
 5421TIP3    H116220   7.919   4.950   5.858
 5421TIP3    H216221   8.031   5.048   5.883
 5422TIP3   OH216222   4.893   5.550   1.839
 5422TIP3    H116223   4.948   5.597   1.902
 5422TIP3    H216224   4.948   5.539   1.762
 5423TIP3   OH216225   7.658   3.581   2.874
 5423TIP3    H116226   7.731   3.639   2.897
 5423TIP3    H216227   7.700   3.502   2.842
 5424TIP3   OH216228   2.244   2.356   0.870
 5424TIP3    H116229   2.303   2.286   0.900
 5424TIP3    H216230   2.283   2.436   0.906
 5425TIP3   OH216231   6.165   1.412   2.275
 5425TIP3    H116232   6.102   1.342   2.258
 5425TIP3    H216233   6.120   1.492   2.252
 5426TIP3   OH216234   7.434   1.640   2.985
 5426TIP3    H116235   7.404   1.560   2.942
 5426TIP3    H216236   7.528   1.645   2.964
 5427TIP3   OH216237   5.823   2.373   0.629
 5427TIP3    H116238   5.876   2.395   0.706
 5427TIP3    H216239   5.767   2.450   0.617
 5428TIP3   OH216240   4.759   3.186   6.497
 5428TIP3    H116241   4.770   3.276   6.530
 5428TIP3    H216242   4.746   3.133   6.576
 5429TIP3   OH216243   1.451   6.408   1.634
 5429TIP3    H116244   1.470   6.492   1.677
 5429TIP3    H216245   1.439   6.346   1.706
 5430TIP3   OH216246   6.669   0.689   3.890
 5430TIP3    H116247   6.683   0.779   3.859
 5430TIP3    H216248   6.609   0.651   3.827
 5431TIP3   OH216249   3.884   2.042   5.434
 5431TIP3    H116250   3.828   1.979   5.480
 5431TIP3    H216251   3.936   1.988   5.374
 5432TIP3   OH216252   5.493   2.102   4.029
 5432TIP3    H116253   5.416   2.149   3.997
 5432TIP3    H216254   5.507   2.136   4.117
 5433TIP3   OH216255   5.125   5.117   2.452
 5433TIP3    H116256   5.103   5.162   2.534
 5433TIP3    H216257   5.058   5.050   2.443
 5434TIP3   OH216258   6.086   5.991   1.047
 5434TIP3    H116259   6.034   5.921   1.086
 5434TIP3    H216260   6.156   5.946   0.999
 5435TIP3   OH216261   5.235   4.388   4.706
 5435TIP3    H116262   5.250   4.480   4.726
 5435TIP3    H216263   5.168   4.389   4.637
 5436TIP3   OH216264   6.315   5.194   2.939
 5436TIP3    H116265   6.359   5.180   2.856
 5436TIP3    H216266   6.359   5.271   2.977
 5437TIP3   OH216267   5.381   5.041   3.730
 5437TIP3    H116268   5.402   4.996   3.812
 5437TIP3    H216269   5.353   4.971   3.671
 5438TIP3   OH216270   6.827   5.649   5.854
 5438TIP3    H116271   6.898   5.622   5.913
 5438TIP3    H216272   6.869   5.653   5.768
 5439TIP3   OH216273   1.817   0.641   0.422
 5439TIP3    H116274   1.819   0.599   0.507
 5439TIP3    H216275   1.825   0.569   0.359
 5440TIP3   OH216276   3.070   2.321   2.669
 5440TIP3    H116277   3.085   2.227   2.676
 5440TIP3    H216278   3.140   2.361   2.720
 5441TIP3   OH216279   7.346   3.560   5.827
 5441TIP3    H116280   7.268   3.603   5.862
 5441TIP3    H216281   7.341   3.470   5.860
 5442TIP3   OH216282   2.006   7.317   1.137
 5442TIP3    H116283   2.012   7.231   1.178
 5442TIP3    H216284   1.931   7.312   1.079
 5443TIP3   OH216285   1.731   6.688   4.926
 5443TIP3    H116286   1.769   6.652   5.006
 5443TIP3    H216287   1.715   6.612   4.870
 5444TIP3   OH216288   0.182   6.091   2.596
 5444TIP3    H116289   0.152   6.182   2.598
 5444TIP3    H216290   0.114   6.045   2.546
 5445TIP3   OH216291   8.072   5.599   3.517
 5445TIP3    H116292   8.133   5.536   3.480
 5445TIP3    H216293   8.086   5.679   3.466
 5446TIP3   OH216294   2.657   5.855   0.465
 5446TIP3    H116295   2.576   5.905   0.468
 5446TIP3    H216296   2.726   5.921   0.456
 5447TIP3   OH216297   0.288   1.142   4.486
 5447TIP3    H116298   0.327   1.217   4.440
 5447TIP3    H216299   0.363   1.087   4.509
 5448TIP3   OH216300   8.143   5.483   4.116
 5448TIP3    H116301   8.083   5.512   4.047
 5448TIP3    H216302   8.153   5.559   4.173
 5449TIP3   OH216303   1.104   0.104   1.354
 5449TIP3    H116304   1.023   0.052   1.353
 5449TIP3    H216305   1.078   0.189   1.388
 5450TIP3   OH216306   8.261   4.691   4.972
 5450TIP3    H116307   8.242   4.672   4.880
 5450TIP3    H216308   8.348   4.729   4.972
 5451TIP3   OH216309   7.259   4.322   5.949
 5451TIP3    H116310   7.246   4.411   5.916
 5451TIP3    H216311   7.327   4.285   5.892
 5452TIP3   OH216312   1.473   1.595   5.440
 5452TIP3    H116313   1.480   1.656   5.367
 5452TIP3    H216314   1.564   1.583   5.470
 5453TIP3   OH216315   0.297   2.751   3.532
 5453TIP3    H116316   0.319   2.663   3.565
 5453TIP3    H216317   0.284   2.803   3.611
 5454TIP3   OH216318   7.121   0.399   5.725
 5454TIP3    H116319   7.056   0.330   5.740
 5454TIP3    H216320   7.075   0.480   5.747
 5455TIP3   OH216321   2.400   7.241   3.452
 5455TIP3    H116322   2.350   7.160   3.463
 5455TIP3    H216323   2.335   7.307   3.429
 5456TIP3   OH216324   7.325   3.020   1.031
 5456TIP3    H116325   7.290   3.068   1.106
 5456TIP3    H216326   7.355   2.936   1.068
 5457TIP3   OH216327   4.436   5.600   4.588
 5457TIP3    H116328   4.354   5.562   4.621
 5457TIP3    H216329   4.496   5.596   4.663
 5458TIP3   OH216330   6.882   0.308   3.967
 5458TIP3    H116331   6.907   0.398   3.948
 5458TIP3    H216332   6.818   0.316   4.039
 5459TIP3   OH216333   2.444   1.784   2.751
 5459TIP3    H116334   2.392   1.854   2.790
 5459TIP3    H216335   2.495   1.827   2.683
 5460TIP3   OH216336   4.402   7.478   5.105
 5460TIP3    H116337   4.353   7.464   5.186
 5460TIP3    H216338   4.339   7.516   5.044
 5461TIP3   OH216339   7.052   4.936   2.617
 5461TIP3    H116340   7.063   4.862   2.559
 5461TIP3    H216341   7.000   4.999   2.567
 5462TIP3   OH216342   0.871   5.185   2.466
 5462TIP3    H116343   0.791   5.222   2.428
 5462TIP3    H216344   0.877   5.224   2.553
 5463TIP3   OH216345   4.556   4.481   2.763
 5463TIP3    H116346   4.641   4.437   2.762
 5463TIP3    H216347   4.492   4.409   2.760
 5464TIP3   OH216348   1.661   1.198   3.213
 5464TIP3    H116349   1.653   1.132   3.144
 5464TIP3    H216350   1.732   1.165   3.268
 5465TIP3   OH216351   8.236   2.502   4.110
 5465TIP3    H116352   8.319   2.453   4.110
 5465TIP3    H216353   8.241   2.558   4.033
 5466TIP3   OH216354   7.970   3.804   4.071
 5466TIP3    H116355   8.027   3.761   4.135
 5466TIP3    H216356   7.919   3.733   4.032
 5467TIP3   OH216357   5.979   5.956   1.621
 5467TIP3    H116358   6.030   5.996   1.691
 5467TIP3    H216359   6.044   5.913   1.566
 5468TIP3   OH216360   7.819   0.566   5.542
 5468TIP3    H116361   7.781   0.507   5.607
 5468TIP3    H216362   7.897   0.520   5.510
 5469TIP3   OH216363   4.803   0.949   6.172
 5469TIP3    H116364   4.759   1.000   6.104
 5469TIP3    H216365   4.852   1.013   6.223
 5470TIP3   OH216366   4.998   3.931   2.627
 5470TIP3    H116367   5.090   3.941   2.603
 5470TIP3    H216368   4.985   3.993   2.698
 5471TIP3   OH216369   6.697   4.606   6.653
 5471TIP3    H116370   6.678   4.519   6.688
 5471TIP3    H216371   6.710   4.661   6.731
 5472TIP3   OH216372   1.860   1.273   5.408
 5472TIP3    H116373   1.768   1.295   5.421
 5472TIP3    H216374   1.870   1.187   5.449
 5473TIP3   OH216375   2.353   7.156   6.765
 5473TIP3    H116376   2.423   7.198   6.814
 5473TIP3    H216377   2.399   7.102   6.700
 5474TIP3   OH216378   5.944   1.971   3.724
 5474TIP3    H116379   5.933   2.059   3.688
 5474TIP3    H216380   5.865   1.956   3.776
 5475TIP3   OH216381   4.111   7.206   6.156
 5475TIP3    H116382   4.180   7.272   6.146
 5475TIP3    H216383   4.079   7.191   6.067
 5476TIP3   OH216384   1.821   7.198   4.969
 5476TIP3    H116385   1.797   7.203   4.877
 5476TIP3    H216386   1.783   7.116   5.000
 5477TIP3   OH216387   8.284   5.749   6.796
 5477TIP3    H116388   8.279   5.677   6.734
 5477TIP3    H216389   8.212   5.733   6.857
 5478TIP3   OH216390   0.316   3.808   4.423
 5478TIP3    H116391   0.353   3.857   4.496
 5478TIP3    H216392   0.224   3.795   4.446
 5479TIP3   OH216393   3.128   2.415   2.142
 5479TIP3    H116394   3.141   2.326   2.174
 5479TIP3    H216395   3.035   2.432   2.157
 5480TIP3   OH216396   5.869   4.674   2.250
 5480TIP3    H116397   5.884   4.765   2.223
 5480TIP3    H216398   5.810   4.638   2.185
 5481TIP3   OH216399   4.463   5.020   5.843
 5481TIP3    H116400   4.369   5.026   5.857
 5481TIP3    H216401   4.500   5.089   5.897
 5482TIP3   OH216402   1.934   5.848   5.568
 5482TIP3    H116403   1.855   5.824   5.519
 5482TIP3    H216404   2.003   5.795   5.528
 5483TIP3   OH216405   3.400   5.925   3.400
 5483TIP3    H116406   3.382   5.971   3.318
 5483TIP3    H216407   3.402   5.833   3.376
 5484TIP3   OH216408   0.705   1.892   5.691
 5484TIP3    H116409   0.728   1.819   5.633
 5484TIP3    H216410   0.643   1.854   5.754
 5485TIP3   OH216411   1.598   2.002   3.560
 5485TIP3    H116412   1.566   2.047   3.481
 5485TIP3    H216413   1.583   2.064   3.631
 5486TIP3   OH216414   3.542   7.028   0.778
 5486TIP3    H116415   3.577   7.111   0.745
 5486TIP3    H216416   3.619   6.981   0.810
 5487TIP3   OH216417   6.358   6.401   3.168
 5487TIP3    H116418   6.269   6.428   3.190
 5487TIP3    H216419   6.408   6.483   3.165
 5488TIP3   OH216420   3.004   5.259   6.026
 5488TIP3    H116421   3.038   5.170   6.036
 5488TIP3    H216422   2.991   5.270   5.932
 5489TIP3   OH216423   8.140   7.306   4.214
 5489TIP3    H116424   8.146   7.214   4.241
 5489TIP3    H216425   8.224   7.344   4.238
 5490TIP3   OH216426   2.527   5.306   6.643
 5490TIP3    H116427   2.497   5.218   6.667
 5490TIP3    H216428   2.548   5.299   6.549
 5491TIP3   OH216429   6.570   2.639   6.057
 5491TIP3    H116430   6.551   2.732   6.072
 5491TIP3    H216431   6.615   2.610   6.137
 5492TIP3   OH216432   0.977   2.548   5.666
 5492TIP3    H116433   0.892   2.561   5.624
 5492TIP3    H216434   1.019   2.479   5.615
 5493TIP3   OH216435   7.933   2.425   3.183
 5493TIP3    H116436   7.911   2.490   3.250
 5493TIP3    H216437   8.006   2.464   3.135
 5494TIP3   OH216438   7.912   6.887   1.154
 5494TIP3    H116439   7.839   6.912   1.097
 5494TIP3    H216440   7.978   6.851   1.095
 5495TIP3   OH216441   1.971   4.085   2.929
 5495TIP3    H116442   2.003   4.167   2.890
 5495TIP3    H216443   2.019   4.078   3.012
 5496TIP3   OH216444   2.321   6.953   2.261
 5496TIP3    H116445   2.250   6.950   2.198
 5496TIP3    H216446   2.341   6.862   2.280
 5497TIP3   OH216447   7.896   0.429   0.953
 5497TIP3    H116448   7.819   0.394   0.998
 5497TIP3    H216449   7.968   0.374   0.984
 5498TIP3   OH216450   1.369   6.070   2.782
 5498TIP3    H116451   1.413   5.986   2.774
 5498TIP3    H216452   1.432   6.133   2.747
 5499TIP3   OH216453   0.448   2.704  -0.036
 5499TIP3    H116454   0.492   2.758   0.030
 5499TIP3    H216455   0.515   2.640  -0.062
 5500TIP3   OH216456   7.388   4.981   3.611
 5500TIP3    H116457   7.411   4.993   3.703
 5500TIP3    H216458   7.425   5.058   3.567
 5501TIP3   OH216459   3.768   3.377   5.597
 5501TIP3    H116460   3.727   3.441   5.540
 5501TIP3    H216461   3.835   3.335   5.542
 5502TIP3   OH216462   6.843   2.982   6.289
 5502TIP3    H116463   6.828   2.995   6.382
 5502TIP3    H216464   6.760   2.949   6.255
 5503TIP3   OH216465   3.190   1.614   5.193
 5503TIP3    H116466   3.167   1.616   5.286
 5503TIP3    H216467   3.173   1.524   5.166
 5504TIP3   OH216468   4.033   2.444   3.287
 5504TIP3    H116469   3.996   2.401   3.210
 5504TIP3    H216470   3.960   2.493   3.324
 5505TIP3   OH216471   5.119   6.732   2.211
 5505TIP3    H116472   5.114   6.644   2.173
 5505TIP3    H216473   5.106   6.719   2.305
 5506TIP3   OH216474   7.996   2.926   5.828
 5506TIP3    H116475   7.901   2.914   5.822
 5506TIP3    H216476   8.032   2.869   5.759
 5507TIP3   OH216477   1.538   2.693   4.349
 5507TIP3    H116478   1.517   2.661   4.437
 5507TIP3    H216479   1.601   2.764   4.364
 5508TIP3   OH216480   7.673   1.706   4.492
 5508TIP3    H116481   7.715   1.658   4.563
 5508TIP3    H216482   7.605   1.758   4.534
 5509TIP3   OH216483   5.731   3.173   2.238
 5509TIP3    H116484   5.689   3.131   2.313
 5509TIP3    H216485   5.772   3.252   2.274
 5510TIP3   OH216486   4.328   5.328   0.233
 5510TIP3    H116487   4.311   5.384   0.158
 5510TIP3    H216488   4.361   5.387   0.301
 5511TIP3   OH216489   0.671   7.425   3.868
 5511TIP3    H116490   0.660   7.330   3.879
 5511TIP3    H216491   0.738   7.434   3.800
 5512TIP3   OH216492   0.613   6.749   0.895
 5512TIP3    H116493   0.529   6.755   0.849
 5512TIP3    H216494   0.593   6.768   0.986
 5513TIP3   OH216495   8.221   1.125   2.435
 5513TIP3    H116496   8.171   1.189   2.385
 5513TIP3    H216497   8.192   1.136   2.525
 5514TIP3   OH216498   2.758   6.254   3.015
 5514TIP3    H116499   2.701   6.304   3.074
 5514TIP3    H216500   2.842   6.300   3.018
 5515TIP3   OH216501   5.254   4.706   2.979
 5515TIP3    H116502   5.248   4.695   3.074
 5515TIP3    H216503   5.222   4.795   2.963
 5516TIP3   OH216504   0.858   3.083   5.468
 5516TIP3    H116505   0.875   3.018   5.400
 5516TIP3    H216506   0.935   3.140   5.467
 5517TIP3   OH216507   7.716   2.820   4.476
 5517TIP3    H116508   7.711   2.913   4.456
 5517TIP3    H216509   7.691   2.776   4.394
 5518TIP3   OH216510   6.202   3.962   3.472
 5518TIP3    H116511   6.292   3.971   3.440
 5518TIP3    H216512   6.173   3.877   3.439
 5519TIP3   OH216513   7.933   0.831   6.646
 5519TIP3    H116514   7.988   0.754   6.661
 5519TIP3    H216515   7.970   0.898   6.703
 5520TIP3   OH216516   7.542   6.703   0.004
 5520TIP3    H116517   7.504   6.615   0.001
 5520TIP3    H216518   7.515   6.738   0.089
 5521TIP3   OH216519   7.845   0.934   6.025
 5521TIP3    H116520   7.851   0.988   5.946
 5521TIP3    H216521   7.820   0.995   6.094
 5522TIP3   OH216522   0.727   1.433   1.939
 5522TIP3    H116523   0.723   1.338   1.944
 5522TIP3    H216524   0.725   1.452   1.845
 5523TIP3   OH216525   6.970   1.940   0.224
 5523TIP3    H116526   6.937   1.937   0.314
 5523TIP3    H216527   6.971   2.033   0.202
 5524TIP3   OH216528   1.259   0.545   5.317
 5524TIP3    H116529   1.200   0.469   5.318
 5524TIP3    H216530   1.248   0.583   5.230
 5525TIP3   OH216531   3.924   3.349   5.190
 5525TIP3    H116532   3.909   3.292   5.266
 5525TIP3    H216533   3.951   3.433   5.227
 5526TIP3   OH216534   2.907   1.598   3.195
 5526TIP3    H116535   2.922   1.672   3.254
 5526TIP3    H216536   2.992   1.554   3.189
 5527TIP3   OH216537   6.325   5.863   3.802
 5527TIP3    H116538   6.304   5.806   3.728
 5527TIP3    H216539   6.317   5.807   3.879
 5528TIP3   OH216540   6.461   4.723   0.039
 5528TIP3    H116541   6.374   4.754   0.066
 5528TIP3    H216542   6.443   4.643  -0.010
 5529TIP3   OH216543   1.942   1.302   3.721
 5529TIP3    H116544   1.979   1.221   3.755
 5529TIP3    H216545   1.873   1.325   3.783
 5530TIP3   OH216546   4.116   3.016   6.739
 5530TIP3    H116547   4.145   3.067   6.663
 5530TIP3    H216548   4.047   3.070   6.779
 5531TIP3   OH216549   7.357   5.151   3.244
 5531TIP3    H116550   7.446   5.177   3.270
 5531TIP3    H216551   7.347   5.062   3.277
 5532TIP3   OH216552   5.990   2.436   1.320
 5532TIP3    H116553   5.927   2.395   1.380
 5532TIP3    H216554   6.067   2.454   1.375
 5533TIP3   OH216555   1.432   5.517   2.032
 5533TIP3    H116556   1.442   5.425   2.056
 5533TIP3    H216557   1.385   5.556   2.105
 5534TIP3   OH216558   3.254   6.902   3.982
 5534TIP3    H116559   3.244   6.855   4.064
 5534TIP3    H216560   3.225   6.840   3.915
 5535TIP3   OH216561   7.686   1.840   1.471
 5535TIP3    H116562   7.662   1.877   1.387
 5535TIP3    H216563   7.607   1.844   1.524
 5536TIP3   OH216564   7.976   5.578   4.937
 5536TIP3    H116565   8.067   5.607   4.946
 5536TIP3    H216566   7.924   5.647   4.979
 5537TIP3   OH216567   1.212   1.556   5.067
 5537TIP3    H116568   1.166   1.562   5.151
 5537TIP3    H216569   1.150   1.593   5.004
 5538TIP3   OH216570   7.929   5.949   2.210
 5538TIP3    H116571   7.869   6.005   2.260
 5538TIP3    H216572   7.906   5.967   2.118
 5539TIP3   OH216573   4.474   4.316   4.159
 5539TIP3    H116574   4.483   4.398   4.207
 5539TIP3    H216575   4.548   4.263   4.188
 5540TIP3   OH216576   7.899   5.155   5.578
 5540TIP3    H116577   7.980   5.186   5.620
 5540TIP3    H216578   7.872   5.228   5.522
 5541TIP3   OH216579   1.221   2.988   5.743
 5541TIP3    H116580   1.277   3.025   5.811
 5541TIP3    H216581   1.150   3.051   5.733
 5542TIP3   OH216582   0.203   2.179   5.683
 5542TIP3    H116583   0.226   2.168   5.591
 5542TIP3    H216584   0.198   2.090   5.718
 5543TIP3   OH216585   5.533   1.323   3.788
 5543TIP3    H116586   5.448   1.356   3.759
 5543TIP3    H216587   5.590   1.331   3.712
 5544TIP3   OH216588   7.272   0.406   2.239
 5544TIP3    H116589   7.200   0.468   2.241
 5544TIP3    H216590   7.327   0.430   2.314
 5545TIP3   OH216591   4.429   6.924   0.195
 5545TIP3    H116592   4.476   7.002   0.222
 5545TIP3    H216593   4.491   6.852   0.208
 5546TIP3   OH216594   4.932   3.366   6.261
 5546TIP3    H116595   4.893   3.351   6.175
 5546TIP3    H216596   4.955   3.278   6.292
 5547TIP3   OH216597   5.691   5.767   1.452
 5547TIP3    H116598   5.776   5.726   1.468
 5547TIP3    H216599   5.678   5.759   1.357
 5548TIP3   OH216600   7.062   1.765   3.300
 5548TIP3    H116601   7.045   1.790   3.209
 5548TIP3    H216602   7.087   1.673   3.294
 5549TIP3   OH216603   2.986   2.007   3.609
 5549TIP3    H116604   3.032   2.089   3.590
 5549TIP3    H216605   3.045   1.961   3.669
 5550TIP3   OH216606   3.013   0.489   3.461
 5550TIP3    H116607   2.927   0.506   3.421
 5550TIP3    H216608   3.010   0.397   3.485
 5551TIP3   OH216609   4.495   4.158   2.704
 5551TIP3    H116610   4.540   4.075   2.721
 5551TIP3    H216611   4.524   4.184   2.617
 5552TIP3   OH216612   8.142   7.533   5.776
 5552TIP3    H116613   8.109   7.444   5.781
 5552TIP3    H216614   8.218   7.527   5.718
 5553TIP3   OH216615   4.538   1.192   5.116
 5553TIP3    H116616   4.623   1.200   5.072
 5553TIP3    H216617   4.480   1.154   5.050
 5554TIP3   OH216618   3.918   1.913   3.912
 5554TIP3    H116619   3.953   1.963   3.985
 5554TIP3    H216620   3.829   1.945   3.901
 5555TIP3   OH216621   7.426   6.815   4.912
 5555TIP3    H116622   7.432   6.858   4.827
 5555TIP3    H216623   7.468   6.730   4.898
 5556TIP3   OH216624   0.760   0.882   4.307
 5556TIP3    H116625   0.855   0.886   4.324
 5556TIP3    H216626   0.750   0.917   4.219
 5557TIP3   OH216627   5.017   0.932   5.021
 5557TIP3    H116628   5.070   0.853   5.007
 5557TIP3    H216629   4.997   0.931   5.114
 5558TIP3   OH216630   7.436   1.380   4.792
 5558TIP3    H116631   7.493   1.320   4.744
 5558TIP3    H216632   7.377   1.416   4.725
 5559TIP3   OH216633   4.234   0.466   1.044
 5559TIP3    H116634   4.226   0.411   0.966
 5559TIP3    H216635   4.226   0.556   1.011
 5560TIP3   OH216636   7.414   5.057   4.753
 5560TIP3    H116637   7.443   5.004   4.679
 5560TIP3    H216638   7.462   5.021   4.828
 5561TIP3   OH216639   2.709   6.394   6.533
 5561TIP3    H116640   2.805   6.388   6.543
 5561TIP3    H216641   2.696   6.431   6.446
 5562TIP3   OH216642   1.027   4.369   2.728
 5562TIP3    H116643   1.078   4.449   2.721
 5562TIP3    H216644   1.009   4.359   2.822
 5563TIP3   OH216645   3.704   7.347   4.699
 5563TIP3    H116646   3.722   7.269   4.646
 5563TIP3    H216647   3.782   7.402   4.688
 5564TIP3   OH216648   0.328   2.387   6.408
 5564TIP3    H116649   0.297   2.345   6.489
 5564TIP3    H216650   0.249   2.399   6.355
 5565TIP3   OH216651   7.310   7.419   3.560
 5565TIP3    H116652   7.345   7.507   3.546
 5565TIP3    H216653   7.228   7.434   3.608
 5566TIP3   OH216654   2.237   6.753   4.131
 5566TIP3    H116655   2.270   6.798   4.053
 5566TIP3    H216656   2.315   6.724   4.177
 5567TIP3   OH216657   7.772   4.267   1.536
 5567TIP3    H116658   7.739   4.353   1.562
 5567TIP3    H216659   7.858   4.261   1.578
 5568TIP3   OH216660   7.526   1.628   0.838
 5568TIP3    H116661   7.477   1.625   0.920
 5568TIP3    H216662   7.513   1.541   0.799
 5569TIP3   OH216663   1.255   7.405   0.997
 5569TIP3    H116664   1.198   7.357   1.059
 5569TIP3    H216665   1.195   7.465   0.952
 5570TIP3   OH216666   0.133   5.374   5.383
 5570TIP3    H116667   0.049   5.413   5.403
 5570TIP3    H216668   0.122   5.281   5.402
 5571TIP3   OH216669   3.868   1.852   0.299
 5571TIP3    H116670   3.950   1.887   0.264
 5571TIP3    H216671   3.804   1.920   0.283
 5572TIP3   OH216672   0.419   0.100   0.102
 5572TIP3    H116673   0.504   0.144   0.094
 5572TIP3    H216674   0.402   0.066   0.014
 5573TIP3   OH216675   4.283   2.733   5.544
 5573TIP3    H116676   4.299   2.756   5.636
 5573TIP3    H216677   4.196   2.693   5.545
 5574TIP3   OH216678   2.160   2.202   5.003
 5574TIP3    H116679   2.086   2.264   5.005
 5574TIP3    H216680   2.178   2.190   4.910
 5575TIP3   OH216681   1.913   7.683   4.427
 5575TIP3    H116682   1.894   7.688   4.333
 5575TIP3    H216683   1.987   7.623   4.434
 5576TIP3   OH216684   3.812   6.921   6.066
 5576TIP3    H116685   3.808   6.946   5.974
 5576TIP3    H216686   3.729   6.876   6.082
 5577TIP3   OH216687   1.098   3.833   6.340
 5577TIP3    H116688   1.042   3.857   6.414
 5577TIP3    H216689   1.186   3.827   6.378
 5578TIP3   OH216690   7.468   3.078   4.972
 5578TIP3    H116691   7.373   3.087   4.973
 5578TIP3    H216692   7.484   2.988   5.003
 5579TIP3   OH216693   3.907   1.630   3.938
 5579TIP3    H116694   3.930   1.722   3.953
 5579TIP3    H216695   3.934   1.586   4.018
 5580TIP3   OH216696   2.727   4.828   6.333
 5580TIP3    H116697   2.806   4.780   6.360
 5580TIP3    H216698   2.722   4.815   6.238
 5581TIP3   OH216699   2.499   0.506   0.183
 5581TIP3    H116700   2.459   0.584   0.222
 5581TIP3    H216701   2.470   0.506   0.092
 5582TIP3   OH216702   5.909   1.201   0.241
 5582TIP3    H116703   5.944   1.288   0.261
 5582TIP3    H216704   5.815   1.210   0.251
 5583TIP3   OH216705   5.507   1.092   5.362
 5583TIP3    H116706   5.418   1.105   5.330
 5583TIP3    H216707   5.508   1.000   5.390
 5584TIP3   OH216708   3.418   0.769   3.213
 5584TIP3    H116709   3.386   0.779   3.123
 5584TIP3    H216710   3.479   0.842   3.224
 5585TIP3   OH216711   5.333   0.045   0.704
 5585TIP3    H116712   5.344  -0.041   0.664
 5585TIP3    H216713   5.245   0.043   0.742
 5586TIP3   OH216714   0.424   5.971   2.536
 5586TIP3    H116715   0.351   6.031   2.553
 5586TIP3    H216716   0.385   5.884   2.541
 5587TIP3   OH216717   5.686   4.456   4.664
 5587TIP3    H116718   5.634   4.424   4.737
 5587TIP3    H216719   5.725   4.377   4.625
 5588TIP3   OH216720   6.966   0.700   1.785
 5588TIP3    H116721   7.043   0.644   1.779
 5588TIP3    H216722   7.002   0.789   1.792
 5589TIP3   OH216723   3.941   2.385   4.521
 5589TIP3    H116724   3.973   2.461   4.570
 5589TIP3    H216725   3.856   2.413   4.486
 5590TIP3   OH216726   8.023   7.791   6.235
 5590TIP3    H116727   7.986   7.747   6.312
 5590TIP3    H216728   7.977   7.875   6.231
 5591TIP3   OH216729   7.101   3.033   0.306
 5591TIP3    H116730   7.186   3.040   0.349
 5591TIP3    H216731   7.048   2.982   0.367
 5592TIP3   OH216732   8.211   3.129   5.857
 5592TIP3    H116733   8.296   3.114   5.899
 5592TIP3    H216734   8.166   3.045   5.862
 5593TIP3   OH216735   2.815   4.362   5.213
 5593TIP3    H116736   2.770   4.292   5.262
 5593TIP3    H216737   2.789   4.348   5.122
 5594TIP3   OH216738   6.131   3.137   4.471
 5594TIP3    H116739   6.048   3.185   4.459
 5594TIP3    H216740   6.115   3.080   4.545
 5595TIP3   OH216741   2.997   2.687   1.792
 5595TIP3    H116742   2.963   2.661   1.707
 5595TIP3    H216743   2.962   2.775   1.807
 5596TIP3   OH216744   7.354   6.354   4.386
 5596TIP3    H116745   7.428   6.299   4.413
 5596TIP3    H216746   7.339   6.413   4.460
 5597TIP3   OH216747   1.657   7.290   4.130
 5597TIP3    H116748   1.686   7.204   4.159
 5597TIP3    H216749   1.736   7.345   4.136
 5598TIP3   OH216750   0.402   7.114   3.507
 5598TIP3    H116751   0.376   7.132   3.416
 5598TIP3    H216752   0.374   7.191   3.556
 5599TIP3   OH216753   1.967   6.906   4.460
 5599TIP3    H116754   1.983   6.949   4.544
 5599TIP3    H216755   1.948   6.815   4.483
 5600TIP3   OH216756   6.113   5.230   2.032
 5600TIP3    H116757   6.115   5.289   2.108
 5600TIP3    H216758   6.158   5.151   2.063
 5601TIP3   OH216759   3.803   3.098   5.697
 5601TIP3    H116760   3.752   3.036   5.644
 5601TIP3    H216761   3.775   3.184   5.667
 5602TIP3   OH216762   3.081   0.921   1.891
 5602TIP3    H116763   3.096   0.941   1.799
 5602TIP3    H216764   3.040   0.835   1.890
 5603TIP3   OH216765   4.376   1.186   1.323
 5603TIP3    H116766   4.352   1.252   1.258
 5603TIP3    H216767   4.454   1.143   1.287
 5604TIP3   OH216768   6.480   5.575   1.950
 5604TIP3    H116769   6.490   5.642   1.883
 5604TIP3    H216770   6.420   5.511   1.911
 5605TIP3   OH216771   2.988   0.659   1.095
 5605TIP3    H116772   2.993   0.751   1.119
 5605TIP3    H216773   3.079   0.631   1.086
 5606TIP3   OH216774   5.536   1.272   2.741
 5606TIP3    H116775   5.535   1.362   2.775
 5606TIP3    H216776   5.628   1.253   2.725
 5607TIP3   OH216777   4.145   5.359   5.931
 5607TIP3    H116778   4.192   5.292   5.981
 5607TIP3    H216779   4.123   5.315   5.848
 5608TIP3   OH216780   4.406   1.572   6.172
 5608TIP3    H116781   4.354   1.495   6.195
 5608TIP3    H216782   4.350   1.646   6.195
 5609TIP3   OH216783   2.094   6.781   1.487
 5609TIP3    H116784   2.137   6.828   1.558
 5609TIP3    H216785   2.001   6.785   1.508
 5610TIP3   OH216786   6.712   6.438   2.387
 5610TIP3    H116787   6.782   6.385   2.425
 5610TIP3    H216788   6.648   6.374   2.354
 5611TIP3   OH216789   2.116   7.240   4.506
 5611TIP3    H116790   2.111   7.184   4.429
 5611TIP3    H216791   2.030   7.282   4.511
 5612TIP3   OH216792   4.967   6.891   5.945
 5612TIP3    H116793   4.929   6.858   6.027
 5612TIP3    H216794   5.052   6.927   5.971
 5613TIP3   OH216795   6.921   1.574   4.400
 5613TIP3    H116796   6.832   1.558   4.367
 5613TIP3    H216797   6.944   1.493   4.446
 5614TIP3   OH216798   3.018   7.731   3.001
 5614TIP3    H116799   3.024   7.638   2.978
 5614TIP3    H216800   2.926   7.745   3.022
 5615TIP3   OH216801   0.640   1.992   2.721
 5615TIP3    H116802   0.601   1.983   2.634
 5615TIP3    H216803   0.698   1.916   2.730
 5616TIP3   OH216804   0.163   6.627   3.868
 5616TIP3    H116805   0.211   6.707   3.846
 5616TIP3    H216806   0.206   6.594   3.947
 5617TIP3   OH216807   3.812   5.041   3.790
 5617TIP3    H116808   3.838   4.955   3.757
 5617TIP3    H216809   3.874   5.102   3.752
 5618TIP3   OH216810   6.776   0.645   1.979
 5618TIP3    H116811   6.813   0.707   2.041
 5618TIP3    H216812   6.826   0.659   1.898
 5619TIP3   OH216813   7.732   7.137   3.573
 5619TIP3    H116814   7.781   7.196   3.631
 5619TIP3    H216815   7.704   7.065   3.630
 5620TIP3   OH216816   5.068   1.356   2.699
 5620TIP3    H116817   5.128   1.284   2.715
 5620TIP3    H216818   4.998   1.345   2.764
 5621TIP3   OH216819   0.917   5.592   3.185
 5621TIP3    H116820   0.885   5.510   3.147
 5621TIP3    H216821   0.899   5.658   3.119
 5622TIP3   OH216822   0.997   7.353   4.084
 5622TIP3    H116823   1.064   7.421   4.091
 5622TIP3    H216824   0.947   7.360   4.165
 5623TIP3   OH216825   2.485   6.985   4.616
 5623TIP3    H116826   2.390   6.981   4.613
 5623TIP3    H216827   2.507   6.988   4.709
 5624TIP3   OH216828   6.121   4.435   5.762
 5624TIP3    H116829   6.146   4.385   5.684
 5624TIP3    H216830   6.195   4.426   5.822
 5625TIP3   OH216831   6.733   6.802   5.703
 5625TIP3    H116832   6.799   6.862   5.669
 5625TIP3    H216833   6.677   6.856   5.759
 5626TIP3   OH216834   7.625   4.676   4.339
 5626TIP3    H116835   7.661   4.751   4.386
 5626TIP3    H216836   7.544   4.709   4.299
 5627TIP3   OH216837   6.632   4.935   3.878
 5627TIP3    H116838   6.630   4.879   3.800
 5627TIP3    H216839   6.689   4.889   3.939
 5628TIP3   OH216840   5.175   3.229   1.194
 5628TIP3    H116841   5.101   3.168   1.190
 5628TIP3    H216842   5.163   3.286   1.119
 5629TIP3   OH216843   6.701   0.925   3.797
 5629TIP3    H116844   6.647   0.910   3.719
 5629TIP3    H216845   6.788   0.944   3.761
 5630TIP3   OH216846   3.913   3.124   6.291
 5630TIP3    H116847   3.952   3.037   6.278
 5630TIP3    H216848   3.984   3.177   6.327
 5631TIP3   OH216849   5.072   3.388   4.364
 5631TIP3    H116850   5.042   3.473   4.396
 5631TIP3    H216851   4.992   3.340   4.342
 5632TIP3   OH216852   5.020   3.230   5.385
 5632TIP3    H116853   4.986   3.309   5.344
 5632TIP3    H216854   5.043   3.173   5.312
 5633TIP3   OH216855   3.144   0.177   4.790
 5633TIP3    H116856   3.193   0.255   4.763
 5633TIP3    H216857   3.073   0.210   4.844
 5634TIP3   OH216858   0.577   5.506   4.188
 5634TIP3    H116859   0.593   5.595   4.219
 5634TIP3    H216860   0.526   5.466   4.259
 5635TIP3   OH216861   3.948   0.114   1.143
 5635TIP3    H116862   4.017   0.126   1.208
 5635TIP3    H216863   3.867   0.124   1.192
 5636TIP3   OH216864   2.584   0.585   5.286
 5636TIP3    H116865   2.545   0.515   5.338
 5636TIP3    H216866   2.574   0.663   5.340
 5637TIP3   OH216867   5.136   4.613   6.106
 5637TIP3    H116868   5.134   4.708   6.102
 5637TIP3    H216869   5.151   4.586   6.015
 5638TIP3   OH216870   0.003   2.631   5.764
 5638TIP3    H116871   0.098   2.633   5.749
 5638TIP3    H216872  -0.014   2.545   5.802
 5639TIP3   OH216873   0.534   1.740   0.464
 5639TIP3    H116874   0.594   1.674   0.498
 5639TIP3    H216875   0.555   1.820   0.513
 5640TIP3   OH216876   2.202   1.103   4.126
 5640TIP3    H116877   2.260   1.083   4.200
 5640TIP3    H216878   2.152   1.023   4.112
 5641TIP3   OH216879   1.239   4.667   3.849
 5641TIP3    H116880   1.206   4.753   3.823
 5641TIP3    H216881   1.166   4.607   3.833
 5642TIP3   OH216882   3.543   3.440   3.289
 5642TIP3    H116883   3.553   3.525   3.246
 5642TIP3    H216884   3.509   3.382   3.222
 5643TIP3   OH216885   4.082   3.667   2.583
 5643TIP3    H116886   4.144   3.740   2.589
 5643TIP3    H216887   4.137   3.589   2.587
 5644TIP3   OH216888   4.815   0.252   4.345
 5644TIP3    H116889   4.892   0.301   4.375
 5644TIP3    H216890   4.843   0.209   4.265
 5645TIP3   OH216891   4.549   4.234   1.275
 5645TIP3    H116892   4.508   4.263   1.194
 5645TIP3    H216893   4.640   4.264   1.268
 5646TIP3   OH216894   1.629   1.139   5.228
 5646TIP3    H116895   1.598   1.184   5.306
 5646TIP3    H216896   1.646   1.049   5.258
 5647TIP3   OH216897   1.805   5.856   5.828
 5647TIP3    H116898   1.808   5.890   5.739
 5647TIP3    H216899   1.844   5.769   5.822
 5648TIP3   OH216900   5.079   6.328   6.437
 5648TIP3    H116901   5.143   6.272   6.482
 5648TIP3    H216902   5.124   6.357   6.358
 5649TIP3   OH216903   1.379   5.236   1.524
 5649TIP3    H116904   1.404   5.147   1.496
 5649TIP3    H216905   1.300   5.255   1.473
 5650TIP3   OH216906   4.616   7.024   0.701
 5650TIP3    H116907   4.615   6.987   0.789
 5650TIP3    H216908   4.524   7.047   0.684
 5651TIP3   OH216909   3.715   1.645   0.409
 5651TIP3    H116910   3.780   1.689   0.355
 5651TIP3    H216911   3.765   1.606   0.481
 5652TIP3   OH216912   0.291   1.464   6.017
 5652TIP3    H116913   0.307   1.509   6.101
 5652TIP3    H216914   0.237   1.389   6.040
 5653TIP3   OH216915   0.763   2.526   4.118
 5653TIP3    H116916   0.782   2.432   4.114
 5653TIP3    H216917   0.779   2.557   4.029
 5654TIP3   OH216918   3.859   2.656   2.601
 5654TIP3    H116919   3.876   2.678   2.509
 5654TIP3    H216920   3.843   2.562   2.600
 5655TIP3   OH216921   4.375   6.068   1.640
 5655TIP3    H116922   4.298   6.013   1.649
 5655TIP3    H216923   4.354   6.128   1.568
 5656TIP3   OH216924   4.909   0.968   5.706
 5656TIP3    H116925   4.874   0.913   5.636
 5656TIP3    H216926   4.905   1.057   5.671
 5657TIP3   OH216927   7.240   2.344   3.856
 5657TIP3    H116928   7.267   2.254   3.838
 5657TIP3    H216929   7.210   2.342   3.947
 5658TIP3   OH216930   2.881   7.430   2.350
 5658TIP3    H116931   2.941   7.496   2.313
 5658TIP3    H216932   2.834   7.396   2.274
 5659TIP3   OH216933   8.257   3.951   2.611
 5659TIP3    H116934   8.206   4.022   2.651
 5659TIP3    H216935   8.329   3.936   2.671
 5660TIP3   OH216936   0.265   4.689   3.228
 5660TIP3    H116937   0.254   4.736   3.146
 5660TIP3    H216938   0.288   4.600   3.202
 5661TIP3   OH216939   7.871   2.123   2.296
 5661TIP3    H116940   7.871   2.206   2.345
 5661TIP3    H216941   7.961   2.113   2.265
 5662TIP3   OH216942   2.439   2.130   5.607
 5662TIP3    H116943   2.466   2.182   5.531
 5662TIP3    H216944   2.469   2.042   5.587
 5663TIP3   OH216945   4.741   1.105   2.543
 5663TIP3    H116946   4.690   1.180   2.573
 5663TIP3    H216947   4.802   1.087   2.614
 5664TIP3   OH216948   7.466   7.392   4.777
 5664TIP3    H116949   7.478   7.453   4.704
 5664TIP3    H216950   7.414   7.321   4.741
 5665TIP3   OH216951   3.052   1.557   2.841
 5665TIP3    H116952   3.059   1.521   2.929
 5665TIP3    H216953   3.015   1.485   2.789
 5666TIP3   OH216954   7.919   0.875   1.986
 5666TIP3    H116955   7.836   0.903   1.947
 5666TIP3    H216956   7.921   0.919   2.071
 5667TIP3   OH216957   7.316   4.607   3.058
 5667TIP3    H116958   7.303   4.563   3.142
 5667TIP3    H216959   7.397   4.570   3.024
 5668TIP3   OH216960   1.612   5.580   6.202
 5668TIP3    H116961   1.698   5.542   6.187
 5668TIP3    H216962   1.617   5.668   6.164
 5669TIP3   OH216963   4.214   2.210   2.993
 5669TIP3    H116964   4.221   2.239   2.902
 5669TIP3    H216965   4.296   2.164   3.009
 5670TIP3   OH216966   6.509   6.178   5.068
 5670TIP3    H116967   6.599   6.145   5.075
 5670TIP3    H216968   6.472   6.133   4.992
 5671TIP3   OH216969   2.711   4.588   5.511
 5671TIP3    H116970   2.707   4.601   5.606
 5671TIP3    H216971   2.795   4.544   5.497
 5672TIP3   OH216972   2.147   4.486   3.551
 5672TIP3    H116973   2.236   4.519   3.538
 5672TIP3    H216974   2.107   4.491   3.464
 5673TIP3   OH216975   8.238   2.769   3.106
 5673TIP3    H116976   8.187   2.812   3.176
 5673TIP3    H216977   8.206   2.679   3.105
 5674TIP3   OH216978   6.171   1.485   6.230
 5674TIP3    H116979   6.161   1.489   6.325
 5674TIP3    H216980   6.098   1.538   6.197
 5675TIP3   OH216981   6.232   3.849   0.344
 5675TIP3    H116982   6.206   3.883   0.429
 5675TIP3    H216983   6.215   3.755   0.350
 5676TIP3   OH216984   2.970   7.413   4.461
 5676TIP3    H116985   2.893   7.363   4.432
 5676TIP3    H216986   2.987   7.473   4.389
 5677TIP3   OH216987   2.696   6.532   3.089
 5677TIP3    H116988   2.654   6.592   3.150
 5677TIP3    H216989   2.654   6.549   3.005
 5678TIP3   OH216990   0.675   3.048   4.589
 5678TIP3    H116991   0.713   3.093   4.513
 5678TIP3    H216992   0.603   2.997   4.552
 5679TIP3   OH216993   6.786   3.282   1.656
 5679TIP3    H116994   6.839   3.218   1.608
 5679TIP3    H216995   6.725   3.230   1.707
 5680TIP3   OH216996   4.235   2.580   4.953
 5680TIP3    H116997   4.274   2.541   4.875
 5680TIP3    H216998   4.141   2.579   4.936
 5681TIP3   OH216999   7.105   7.813   0.673
 5681TIP3    H117000   7.197   7.787   0.675
 5681TIP3    H217001   7.104   7.900   0.713
 5682TIP3   OH217002   2.184   2.008   2.040
 5682TIP3    H117003   2.276   1.979   2.040
 5682TIP3    H217004   2.134   1.929   2.061
 5683TIP3   OH217005   7.410   1.833   5.263
 5683TIP3    H117006   7.353   1.757   5.274
 5683TIP3    H217007   7.483   1.800   5.211
 5684TIP3   OH217008   1.368   7.021   3.562
 5684TIP3    H117009   1.394   7.009   3.471
 5684TIP3    H217010   1.389   6.938   3.605
 5685TIP3   OH217011   3.512   5.648   2.278
 5685TIP3    H117012   3.566   5.570   2.277
 5685TIP3    H217013   3.490   5.663   2.186
 5686TIP3   OH217014   0.979   3.973   1.868
 5686TIP3    H117015   1.036   3.935   1.934
 5686TIP3    H217016   1.014   3.942   1.785
 5687TIP3   OH217017   6.469   7.386   1.558
 5687TIP3    H117018   6.436   7.456   1.615
 5687TIP3    H217019   6.564   7.397   1.558
 5688TIP3   OH217020   8.102   6.788   3.537
 5688TIP3    H117021   8.065   6.737   3.609
 5688TIP3    H217022   8.041   6.776   3.464
 5689TIP3   OH217023   2.095   1.756   6.482
 5689TIP3    H117024   2.155   1.691   6.520
 5689TIP3    H217025   2.132   1.841   6.507
 5690TIP3   OH217026   2.240   3.277   0.295
 5690TIP3    H117027   2.241   3.358   0.346
 5690TIP3    H217028   2.262   3.303   0.206
 5691TIP3   OH217029   2.976   5.075   4.247
 5691TIP3    H117030   2.898   5.026   4.270
 5691TIP3    H217031   3.049   5.022   4.279
 5692TIP3   OH217032   7.895   0.292   2.161
 5692TIP3    H117033   7.969   0.295   2.221
 5692TIP3    H217034   7.861   0.381   2.161
 5693TIP3   OH217035   1.640   7.402   4.851
 5693TIP3    H117036   1.641   7.318   4.897
 5693TIP3    H217037   1.732   7.420   4.832
 5694TIP3   OH217038   0.272   7.286   2.417
 5694TIP3    H117039   0.255   7.280   2.511
 5694TIP3    H217040   0.197   7.332   2.381
 5695TIP3   OH217041   5.598   3.118   1.712
 5695TIP3    H117042   5.596   3.100   1.806
 5695TIP3    H217043   5.538   3.054   1.674
 5696TIP3   OH217044   1.587   2.550   1.085
 5696TIP3    H117045   1.664   2.527   1.137
 5696TIP3    H217046   1.614   2.536   0.994
 5697TIP3   OH217047   8.381   1.573   5.384
 5697TIP3    H117048   8.355   1.549   5.295
 5697TIP3    H217049   8.300   1.568   5.435
 5698TIP3   OH217050   1.778   0.673   2.873
 5698TIP3    H117051   1.812   0.632   2.953
 5698TIP3    H217052   1.850   0.727   2.842
 5699TIP3   OH217053   1.522   0.439   1.807
 5699TIP3    H117054   1.453   0.409   1.866
 5699TIP3    H217055   1.543   0.362   1.754
 5700TIP3   OH217056   3.500   2.176   2.891
 5700TIP3    H117057   3.449   2.167   2.810
 5700TIP3    H217058   3.500   2.088   2.929
 5701TIP3   OH217059   2.577   5.181   5.313
 5701TIP3    H117060   2.482   5.169   5.304
 5701TIP3    H217061   2.590   5.275   5.305
 5702TIP3   OH217062   5.829   5.273   0.096
 5702TIP3    H117063   5.811   5.335   0.167
 5702TIP3    H217064   5.923   5.260   0.098
 5703TIP3   OH217065   1.797   0.696   5.368
 5703TIP3    H117066   1.884   0.664   5.342
 5703TIP3    H217067   1.741   0.677   5.292
 5704TIP3   OH217068   3.308   0.825   4.072
 5704TIP3    H117069   3.386   0.861   4.030
 5704TIP3    H217070   3.260   0.902   4.102
 5705TIP3   OH217071   0.155   7.145   3.194
 5705TIP3    H117072   0.087   7.095   3.239
 5705TIP3    H217073   0.135   7.237   3.213
 5706TIP3   OH217074   1.102   6.241   1.544
 5706TIP3    H117075   1.072   6.152   1.560
 5706TIP3    H217076   1.197   6.238   1.557
 5707TIP3   OH217077   2.093   1.986   0.442
 5707TIP3    H117078   2.076   1.901   0.482
 5707TIP3    H217079   2.181   1.978   0.405
 5708TIP3   OH217080   1.351   6.102   1.539
 5708TIP3    H117081   1.409   6.036   1.577
 5708TIP3    H217082   1.385   6.185   1.572
 5709TIP3   OH217083   5.263   4.354   3.410
 5709TIP3    H117084   5.339   4.307   3.443
 5709TIP3    H217085   5.202   4.355   3.483
 5710TIP3   OH217086   0.587   6.658   2.573
 5710TIP3    H117087   0.610   6.656   2.480
 5710TIP3    H217088   0.534   6.579   2.587
 5711TIP3   OH217089   6.278   2.404   0.328
 5711TIP3    H117090   6.283   2.402   0.423
 5711TIP3    H217091   6.331   2.331   0.299
 5712TIP3   OH217092   4.778   7.204   1.889
 5712TIP3    H117093   4.740   7.268   1.949
 5712TIP3    H217094   4.753   7.119   1.925
 5713TIP3   OH217095   0.322   3.549   5.854
 5713TIP3    H117096   0.258   3.540   5.783
 5713TIP3    H217097   0.407   3.539   5.811
 5714TIP3   OH217098   1.861   7.430   2.549
 5714TIP3    H117099   1.916   7.353   2.567
 5714TIP3    H217100   1.772   7.400   2.566
 5715TIP3   OH217101   5.234   3.353   0.201
 5715TIP3    H117102   5.156   3.329   0.251
 5715TIP3    H217103   5.219   3.444   0.175
 5716TIP3   OH217104   0.394   4.579   4.446
 5716TIP3    H117105   0.428   4.630   4.519
 5716TIP3    H217106   0.443   4.610   4.369
 5717TIP3   OH217107   5.415   3.007   0.515
 5717TIP3    H117108   5.472   3.056   0.455
 5717TIP3    H217109   5.352   3.072   0.546
 5718TIP3   OH217110   0.784   7.602   1.979
 5718TIP3    H117111   0.873   7.590   1.945
 5718TIP3    H217112   0.754   7.514   2.000
 5719TIP3   OH217113   1.353   7.022   5.157
 5719TIP3    H117114   1.337   6.985   5.244
 5719TIP3    H217115   1.345   6.947   5.097
 5720TIP3   OH217116   8.296   1.811   2.103
 5720TIP3    H117117   8.282   1.847   2.016
 5720TIP3    H217118   8.304   1.888   2.160
 5721TIP3   OH217119   1.758   3.562   4.380
 5721TIP3    H117120   1.738   3.609   4.299
 5721TIP3    H217121   1.753   3.629   4.449
 5722TIP3   OH217122   1.300   4.732   2.147
 5722TIP3    H117123   1.223   4.785   2.129
 5722TIP3    H217124   1.265   4.648   2.175
 5723TIP3   OH217125   2.096   3.152   0.996
 5723TIP3    H117126   2.094   3.063   1.030
 5723TIP3    H217127   2.090   3.207   1.074
 5724TIP3   OH217128   2.320   3.551   3.042
 5724TIP3    H117129   2.415   3.537   3.046
 5724TIP3    H217130   2.311   3.640   3.009
 5725TIP3   OH217131   0.352   2.224   1.156
 5725TIP3    H117132   0.280   2.214   1.093
 5725TIP3    H217133   0.368   2.136   1.188
 5726TIP3   OH217134   4.141   6.602   6.172
 5726TIP3    H117135   4.168   6.679   6.123
 5726TIP3    H217136   4.221   6.575   6.219
 5727TIP3   OH217137   3.165   7.020   4.416
 5727TIP3    H117138   3.240   7.079   4.411
 5727TIP3    H217139   3.188   6.946   4.361
 5728TIP3   OH217140   8.299   7.840   6.271
 5728TIP3    H117141   8.337   7.790   6.343
 5728TIP3    H217142   8.204   7.832   6.284
 5729TIP3   OH217143   1.115   6.461   6.517
 5729TIP3    H117144   1.096   6.554   6.527
 5729TIP3    H217145   1.084   6.421   6.598
 5730TIP3   OH217146   7.247   4.376   4.975
 5730TIP3    H117147   7.179   4.415   5.030
 5730TIP3    H217148   7.323   4.368   5.033
 5731TIP3   OH217149   2.424   5.226   1.169
 5731TIP3    H117150   2.368   5.299   1.142
 5731TIP3    H217151   2.454   5.187   1.087
 5732TIP3   OH217152   6.776   1.011   0.199
 5732TIP3    H117153   6.820   0.949   0.141
 5732TIP3    H217154   6.777   0.969   0.285
 5733TIP3   OH217155   5.474   4.748   0.126
 5733TIP3    H117156   5.535   4.784   0.061
 5733TIP3    H217157   5.428   4.678   0.079
 5734TIP3   OH217158   3.428   7.250   1.193
 5734TIP3    H117159   3.377   7.169   1.187
 5734TIP3    H217160   3.362   7.320   1.196
 5735TIP3   OH217161   2.440   2.880   3.581
 5735TIP3    H117162   2.360   2.895   3.530
 5735TIP3    H217163   2.410   2.840   3.662
 5736TIP3   OH217164   2.713   4.371   6.402
 5736TIP3    H117165   2.793   4.405   6.442
 5736TIP3    H217166   2.741   4.292   6.356
 5737TIP3   OH217167   2.674   6.301   5.191
 5737TIP3    H117168   2.604   6.319   5.254
 5737TIP3    H217169   2.753   6.335   5.232
 5738TIP3   OH217170   1.333   1.774   2.201
 5738TIP3    H117171   1.319   1.796   2.293
 5738TIP3    H217172   1.285   1.693   2.188
 5739TIP3   OH217173   0.661   6.085   2.635
 5739TIP3    H117174   0.601   6.143   2.682
 5739TIP3    H217175   0.607   6.042   2.569
 5740TIP3   OH217176   0.356   0.277   0.747
 5740TIP3    H117177   0.311   0.304   0.826
 5740TIP3    H217178   0.438   0.239   0.778
 5741TIP3   OH217179   1.764   6.442   6.247
 5741TIP3    H117180   1.695   6.437   6.313
 5741TIP3    H217181   1.840   6.478   6.293
 5742TIP3   OH217182   5.462   5.058   3.080
 5742TIP3    H117183   5.383   5.033   3.031
 5742TIP3    H217184   5.467   4.994   3.151
 5743TIP3   OH217185   2.338   4.893   0.289
 5743TIP3    H117186   2.293   4.858   0.365
 5743TIP3    H217187   2.357   4.984   0.312
 5744TIP3   OH217188   0.315   0.129   2.922
 5744TIP3    H117189   0.235   0.079   2.936
 5744TIP3    H217190   0.295   0.216   2.958
 5745TIP3   OH217191   1.047   1.347   0.787
 5745TIP3    H117192   1.037   1.438   0.758
 5745TIP3    H217193   1.080   1.301   0.710
 5746TIP3   OH217194   5.422   6.677   0.741
 5746TIP3    H117195   5.336   6.639   0.759
 5746TIP3    H217196   5.484   6.606   0.761
 5747TIP3   OH217197   5.036   0.794   6.224
 5747TIP3    H117198   4.957   0.833   6.261
 5747TIP3    H217199   5.092   0.869   6.203
 5748TIP3   OH217200   2.694   5.804   0.156
 5748TIP3    H117201   2.744   5.726   0.137
 5748TIP3    H217202   2.618   5.773   0.205
 5749TIP3   OH217203   2.806   0.476   2.327
 5749TIP3    H117204   2.735   0.446   2.383
 5749TIP3    H217205   2.790   0.570   2.318
 5750TIP3   OH217206   1.118   3.768   4.719
 5750TIP3    H117207   1.092   3.791   4.809
 5750TIP3    H217208   1.105   3.848   4.669
 5751TIP3   OH217209   4.598   3.891   4.154
 5751TIP3    H117210   4.534   3.831   4.192
 5751TIP3    H217211   4.602   3.866   4.061
 5752TIP3   OH217212   4.534   3.895   0.875
 5752TIP3    H117213   4.497   3.825   0.821
 5752TIP3    H217214   4.465   3.916   0.938
 5753TIP3   OH217215   7.813   3.152   1.772
 5753TIP3    H117216   7.728   3.117   1.743
 5753TIP3    H217217   7.793   3.195   1.856
 5754TIP3   OH217218   3.101   6.271   2.420
 5754TIP3    H117219   3.130   6.189   2.460
 5754TIP3    H217220   3.099   6.253   2.326
 5755TIP3   OH217221   3.756   2.513   1.264
 5755TIP3    H117222   3.679   2.569   1.255
 5755TIP3    H217223   3.756   2.459   1.185
 5756TIP3   OH217224   5.322   6.203   6.603
 5756TIP3    H117225   5.388   6.137   6.624
 5756TIP3    H217226   5.342   6.276   6.663
 5757TIP3   OH217227   4.672   5.669   6.220
 5757TIP3    H117228   4.753   5.623   6.194
 5757TIP3    H217229   4.673   5.749   6.169
 5758TIP3   OH217230   4.405   0.423   6.507
 5758TIP3    H117231   4.480   0.367   6.526
 5758TIP3    H217232   4.353   0.423   6.587
 5759TIP3   OH217233   0.903   5.031   0.678
 5759TIP3    H117234   0.872   5.088   0.748
 5759TIP3    H217235   0.966   4.972   0.721
 5760TIP3   OH217236   6.050   1.005   6.317
 5760TIP3    H117237   6.126   1.028   6.371
 5760TIP3    H217238   6.047   0.909   6.321
 5761TIP3   OH217239   6.338   2.856   6.529
 5761TIP3    H117240   6.311   2.847   6.621
 5761TIP3    H217241   6.255   2.865   6.481
 5762TIP3   OH217242   3.367   2.057   2.686
 5762TIP3    H117243   3.281   2.022   2.706
 5762TIP3    H217244   3.428   1.988   2.711
 5763TIP3   OH217245   7.171   2.030   0.454
 5763TIP3    H117246   7.196   2.031   0.361
 5763TIP3    H217247   7.154   2.122   0.475
 5764TIP3   OH217248   0.219   6.796   2.709
 5764TIP3    H117249   0.151   6.858   2.686
 5764TIP3    H217250   0.288   6.850   2.749
 5765TIP3   OH217251   5.721   6.756   2.369
 5765TIP3    H117252   5.667   6.728   2.295
 5765TIP3    H217253   5.734   6.850   2.354
 5766TIP3   OH217254   6.199   3.170   3.051
 5766TIP3    H117255   6.217   3.152   3.143
 5766TIP3    H217256   6.120   3.224   3.052
 5767TIP3   OH217257   3.568   4.043   4.560
 5767TIP3    H117258   3.590   4.039   4.652
 5767TIP3    H217259   3.622   4.113   4.525
 5768TIP3   OH217260   4.849   3.094   3.836
 5768TIP3    H117261   4.787   3.090   3.763
 5768TIP3    H217262   4.799   3.062   3.911
 5769TIP3   OH217263   6.915   5.679   4.647
 5769TIP3    H117264   6.844   5.644   4.702
 5769TIP3    H217265   6.966   5.734   4.707
 5770TIP3   OH217266   8.189   5.046   6.801
 5770TIP3    H117267   8.276   5.026   6.836
 5770TIP3    H217268   8.155   4.962   6.771
 5771TIP3   OH217269   0.591   0.544   5.211
 5771TIP3    H117270   0.563   0.616   5.154
 5771TIP3    H217271   0.667   0.579   5.257
 5772TIP3   OH217272   3.414   6.049   4.383
 5772TIP3    H117273   3.447   5.998   4.310
 5772TIP3    H217274   3.324   6.017   4.397
 5773TIP3   OH217275   4.873   5.834   2.682
 5773TIP3    H117276   4.890   5.742   2.701
 5773TIP3    H217277   4.959   5.870   2.658
 5774TIP3   OH217278   1.492   4.804   2.499
 5774TIP3    H117279   1.471   4.849   2.417
 5774TIP3    H217280   1.519   4.874   2.558
 5775TIP3   OH217281   8.120   5.376   3.833
 5775TIP3    H117282   8.028   5.349   3.839
 5775TIP3    H217283   8.168   5.309   3.881
 5776TIP3   OH217284   3.093   3.019   3.825
 5776TIP3    H117285   3.029   2.999   3.757
 5776TIP3    H217286   3.076   2.954   3.893
 5777TIP3   OH217287   7.892   4.188   2.806
 5777TIP3    H117288   7.808   4.192   2.762
 5777TIP3    H217289   7.891   4.105   2.853
 5778TIP3   OH217290   3.095   2.648   4.166
 5778TIP3    H117291   3.051   2.564   4.172
 5778TIP3    H217292   3.187   2.628   4.178
 5779TIP3   OH217293   1.912   5.326   4.350
 5779TIP3    H117294   1.925   5.306   4.257
 5779TIP3    H217295   1.990   5.376   4.374
 5780TIP3   OH217296   3.080   6.213   5.321
 5780TIP3    H117297   3.124   6.208   5.236
 5780TIP3    H217298   3.118   6.289   5.364
 5781TIP3   OH217299   3.689   6.435   2.023
 5781TIP3    H117300   3.717   6.357   1.974
 5781TIP3    H217301   3.607   6.461   1.982
 5782TIP3   OH217302   6.365   4.878   0.466
 5782TIP3    H117303   6.322   4.797   0.437
 5782TIP3    H217304   6.450   4.849   0.500
 5783TIP3   OH217305   3.637   2.838   6.578
 5783TIP3    H117306   3.704   2.873   6.637
 5783TIP3    H217307   3.565   2.900   6.585
 5784TIP3   OH217308   0.440   4.306   0.539
 5784TIP3    H117309   0.483   4.291   0.454
 5784TIP3    H217310   0.433   4.402   0.544
 5785TIP3   OH217311   4.481   1.007   5.764
 5785TIP3    H117312   4.400   1.058   5.769
 5785TIP3    H217313   4.506   1.009   5.672
 5786TIP3   OH217314   3.778   0.273   4.311
 5786TIP3    H117315   3.816   0.331   4.377
 5786TIP3    H217316   3.691   0.309   4.295
 5787TIP3   OH217317   6.290   3.812   6.255
 5787TIP3    H117318   6.355   3.776   6.316
 5787TIP3    H217319   6.260   3.737   6.205
 5788TIP3   OH217320   2.617   6.371   0.722
 5788TIP3    H117321   2.659   6.446   0.764
 5788TIP3    H217322   2.689   6.324   0.680
 5789TIP3   OH217323   6.006   6.968   3.496
 5789TIP3    H117324   6.064   6.969   3.420
 5789TIP3    H217325   5.934   6.910   3.471
 5790TIP3   OH217326   4.949   2.477   3.037
 5790TIP3    H117327   4.904   2.551   2.996
 5790TIP3    H217328   4.884   2.407   3.040
 5791TIP3   OH217329   1.615   3.756   6.375
 5791TIP3    H117330   1.684   3.809   6.414
 5791TIP3    H217331   1.636   3.666   6.401
 5792TIP3   OH217332   5.324   1.454   5.807
 5792TIP3    H117333   5.296   1.429   5.895
 5792TIP3    H217334   5.295   1.382   5.751
 5793TIP3   OH217335   0.833   0.425   2.869
 5793TIP3    H117336   0.908   0.486   2.865
 5793TIP3    H217337   0.836   0.379   2.786
 5794TIP3   OH217338   6.265   1.731   6.566
 5794TIP3    H117339   6.170   1.722   6.559
 5794TIP3    H217340   6.278   1.809   6.619
 5795TIP3   OH217341   0.999   0.773   0.393
 5795TIP3    H117342   0.916   0.738   0.425
 5795TIP3    H217343   1.000   0.863   0.425
 5796TIP3   OH217344   1.633   5.997   2.042
 5796TIP3    H117345   1.577   5.999   2.120
 5796TIP3    H217346   1.607   5.918   1.995
 5797TIP3   OH217347   4.935   5.659   0.670
 5797TIP3    H117348   4.986   5.615   0.602
 5797TIP3    H217349   4.988   5.736   0.694
 5798TIP3   OH217350   4.544   7.454   3.744
 5798TIP3    H117351   4.557   7.446   3.650
 5798TIP3    H217352   4.562   7.366   3.779
 5799TIP3   OH217353   7.191   7.732   1.676
 5799TIP3    H117354   7.249   7.808   1.684
 5799TIP3    H217355   7.144   7.746   1.594
 5800TIP3   OH217356   3.051   1.732   4.603
 5800TIP3    H117357   2.961   1.758   4.583
 5800TIP3    H217358   3.066   1.763   4.692
 5801TIP3   OH217359   4.532   4.420   5.476
 5801TIP3    H117360   4.513   4.426   5.570
 5801TIP3    H217361   4.502   4.503   5.440
 5802TIP3   OH217362   1.143   7.757   2.113
 5802TIP3    H117363   1.086   7.832   2.129
 5802TIP3    H217364   1.221   7.795   2.071
 5803TIP3   OH217365   6.495   1.616   4.930
 5803TIP3    H117366   6.446   1.696   4.910
 5803TIP3    H217367   6.464   1.590   5.016
 5804TIP3   OH217368   6.974   4.339   2.075
 5804TIP3    H117369   6.959   4.432   2.056
 5804TIP3    H217370   6.888   4.305   2.099
 5805TIP3   OH217371   8.275   4.777   6.728
 5805TIP3    H117372   8.284   4.804   6.637
 5805TIP3    H217373   8.271   4.682   6.725
 5806TIP3   OH217374   7.574   4.003   3.552
 5806TIP3    H117375   7.576   3.981   3.645
 5806TIP3    H217376   7.649   4.061   3.540
 5807TIP3   OH217377   7.285   7.602   3.246
 5807TIP3    H117378   7.231   7.537   3.291
 5807TIP3    H217379   7.366   7.604   3.296
 5808TIP3   OH217380   6.949   3.848   5.491
 5808TIP3    H117381   6.904   3.794   5.556
 5808TIP3    H217382   6.880   3.904   5.454
 5809TIP3   OH217383   0.609   3.604   1.181
 5809TIP3    H117384   0.596   3.645   1.266
 5809TIP3    H217385   0.659   3.525   1.200
 5810TIP3   OH217386   5.526   5.723   6.622
 5810TIP3    H117387   5.478   5.729   6.705
 5810TIP3    H217388   5.566   5.636   6.625
 5811TIP3   OH217389   0.808   4.596   2.885
 5811TIP3    H117390   0.763   4.596   2.970
 5811TIP3    H217391   0.741   4.567   2.823
 5812TIP3   OH217392   7.432   5.116   0.335
 5812TIP3    H117393   7.485   5.061   0.278
 5812TIP3    H217394   7.344   5.110   0.300
 5813TIP3   OH217395   4.318   5.906   3.041
 5813TIP3    H117396   4.381   5.835   3.027
 5813TIP3    H217397   4.371   5.980   3.070
 5814TIP3   OH217398   2.793   2.001   5.464
 5814TIP3    H117399   2.749   1.924   5.500
 5814TIP3    H217400   2.800   1.984   5.370
 5815TIP3   OH217401   2.563   5.182   0.615
 5815TIP3    H117402   2.623   5.256   0.625
 5815TIP3    H217403   2.613   5.106   0.646
 5816TIP3   OH217404   6.121   3.267   5.770
 5816TIP3    H117405   6.049   3.208   5.793
 5816TIP3    H217406   6.078   3.350   5.748
 5817TIP3   OH217407   5.102   5.507   1.474
 5817TIP3    H117408   5.068   5.432   1.524
 5817TIP3    H217409   5.189   5.522   1.510
 5818TIP3   OH217410   5.111   1.821   6.310
 5818TIP3    H117411   5.202   1.842   6.331
 5818TIP3    H217412   5.066   1.822   6.394
 5819TIP3   OH217413   8.190   2.496   3.108
 5819TIP3    H117414   8.251   2.450   3.166
 5819TIP3    H217415   8.222   2.477   3.020
 5820TIP3   OH217416   2.125   4.494   5.892
 5820TIP3    H117417   2.057   4.471   5.828
 5820TIP3    H217418   2.126   4.589   5.893
 5821TIP3   OH217419   5.134   7.246   3.911
 5821TIP3    H117420   5.065   7.297   3.953
 5821TIP3    H217421   5.142   7.167   3.964
 5822TIP3   OH217422   3.058   6.924   1.027
 5822TIP3    H117423   2.968   6.953   1.042
 5822TIP3    H217424   3.056   6.883   0.940
 5823TIP3   OH217425   1.765   2.025   1.176
 5823TIP3    H117426   1.747   2.063   1.262
 5823TIP3    H217427   1.858   2.002   1.179
 5824TIP3   OH217428   2.323   7.234   3.998
 5824TIP3    H117429   2.332   7.143   3.969
 5824TIP3    H217430   2.402   7.277   3.966
 5825TIP3   OH217431   1.927   5.763   0.233
 5825TIP3    H117432   2.003   5.771   0.291
 5825TIP3    H217433   1.960   5.784   0.146
 5826TIP3   OH217434   3.133   3.011   1.946
 5826TIP3    H117435   3.186   3.091   1.952
 5826TIP3    H217436   3.055   3.038   1.897
 5827TIP3   OH217437   3.826   0.088   0.108
 5827TIP3    H117438   3.888   0.042   0.165
 5827TIP3    H217439   3.791   0.158   0.163
 5828TIP3   OH217440   3.969   4.723   2.022
 5828TIP3    H117441   4.041   4.687   2.073
 5828TIP3    H217442   4.003   4.726   1.932
 5829TIP3   OH217443   6.502   3.072   6.444
 5829TIP3    H117444   6.451   3.016   6.502
 5829TIP3    H217445   6.593   3.046   6.458
 5830TIP3   OH217446   0.520   4.342   0.801
 5830TIP3    H117447   0.538   4.324   0.708
 5830TIP3    H217448   0.539   4.435   0.811
 5831TIP3   OH217449   8.189   6.228   5.594
 5831TIP3    H117450   8.281   6.204   5.585
 5831TIP3    H217451   8.181   6.260   5.684
 5832TIP3   OH217452   6.376   5.917   1.765
 5832TIP3    H117453   6.310   5.891   1.830
 5832TIP3    H217454   6.378   6.013   1.771
 5833TIP3   OH217455   4.661   1.866   4.940
 5833TIP3    H117456   4.714   1.795   4.977
 5833TIP3    H217457   4.649   1.842   4.848
 5834TIP3   OH217458   5.337   5.492   0.080
 5834TIP3    H117459   5.248   5.526   0.090
 5834TIP3    H217460   5.347   5.430   0.152
 5835TIP3   OH217461   3.006   4.203   2.751
 5835TIP3    H117462   2.934   4.152   2.713
 5835TIP3    H217463   2.977   4.294   2.743
 5836TIP3   OH217464   2.893   4.040   3.690
 5836TIP3    H117465   2.864   3.994   3.611
 5836TIP3    H217466   2.824   4.024   3.754
 5837TIP3   OH217467   0.723   4.846   0.612
 5837TIP3    H117468   0.785   4.919   0.613
 5837TIP3    H217469   0.776   4.770   0.588
 5838TIP3   OH217470   2.122   7.508   4.436
 5838TIP3    H117471   2.188   7.578   4.431
 5838TIP3    H217472   2.165   7.432   4.396
 5839TIP3   OH217473   0.629   0.463   1.770
 5839TIP3    H117474   0.676   0.546   1.769
 5839TIP3    H217475   0.672   0.411   1.701
 5840TIP3   OH217476   1.351   0.364   1.981
 5840TIP3    H117477   1.259   0.379   1.961
 5840TIP3    H217478   1.357   0.370   2.076
 5841TIP3   OH217479   7.119   6.521   2.789
 5841TIP3    H117480   7.028   6.508   2.763
 5841TIP3    H217481   7.162   6.556   2.711
 5842TIP3   OH217482   3.253   7.076   3.389
 5842TIP3    H117483   3.231   7.119   3.471
 5842TIP3    H217484   3.335   7.029   3.407
 5843TIP3   OH217485   2.358   6.967   3.601
 5843TIP3    H117486   2.287   6.986   3.662
 5843TIP3    H217487   2.437   7.002   3.644
 5844TIP3   OH217488   2.902   6.655   6.398
 5844TIP3    H117489   2.997   6.645   6.398
 5844TIP3    H217490   2.884   6.707   6.476
 5845TIP3   OH217491   0.092   6.336   1.459
 5845TIP3    H117492   0.002   6.365   1.443
 5845TIP3    H217493   0.111   6.277   1.386
 5846TIP3   OH217494   4.258   7.163   2.314
 5846TIP3    H117495   4.269   7.181   2.407
 5846TIP3    H217496   4.326   7.214   2.271
 5847TIP3   OH217497   8.175   4.721   0.210
 5847TIP3    H117498   8.191   4.802   0.162
 5847TIP3    H217499   8.252   4.667   0.192
 5848TIP3   OH217500   3.710   3.117   0.755
 5848TIP3    H117501   3.701   3.186   0.821
 5848TIP3    H217502   3.803   3.095   0.757
 5849TIP3   OH217503   1.880   1.768   3.117
 5849TIP3    H117504   1.806   1.828   3.103
 5849TIP3    H217505   1.857   1.719   3.196
 5850TIP3   OH217506  -0.015   0.795   0.553
 5850TIP3    H117507  -0.034   0.802   0.646
 5850TIP3    H217508   0.072   0.835   0.543
 5851TIP3   OH217509   6.412   1.295   1.777
 5851TIP3    H117510   6.387   1.231   1.842
 5851TIP3    H217511   6.356   1.276   1.701
 5852TIP3   OH217512   4.833   7.627   0.690
 5852TIP3    H117513   4.802   7.618   0.601
 5852TIP3    H217514   4.791   7.707   0.723
 5853TIP3   OH217515   0.884   7.633   2.451
 5853TIP3    H117516   0.961   7.595   2.410
 5853TIP3    H217517   0.865   7.577   2.526
 5854TIP3   OH217518   7.593   0.347   5.605
 5854TIP3    H117519   7.502   0.328   5.581
 5854TIP3    H217520   7.641   0.268   5.580
 5855TIP3   OH217521   5.548   6.305   3.374
 5855TIP3    H117522   5.499   6.257   3.441
 5855TIP3    H217523   5.502   6.388   3.365
 5856TIP3   OH217524   3.988   3.799   6.038
 5856TIP3    H117525   3.953   3.744   5.968
 5856TIP3    H217526   4.003   3.884   5.997
 5857TIP3   OH217527   8.267   5.850   0.515
 5857TIP3    H117528   8.255   5.928   0.570
 5857TIP3    H217529   8.251   5.777   0.574
 5858TIP3   OH217530   2.033   5.750   6.045
 5858TIP3    H117531   1.959   5.801   6.077
 5858TIP3    H217532   2.052   5.788   5.959
 5859TIP3   OH217533   4.447   2.733   2.384
 5859TIP3    H117534   4.435   2.692   2.298
 5859TIP3    H217535   4.463   2.825   2.364
 5860TIP3   OH217536   6.687   4.474   1.387
 5860TIP3    H117537   6.651   4.510   1.307
 5860TIP3    H217538   6.777   4.451   1.364
 5861TIP3   OH217539   4.021   1.277   0.332
 5861TIP3    H117540   3.941   1.275   0.385
 5861TIP3    H217541   4.084   1.325   0.385
 5862TIP3   OH217542   7.459   1.947   3.459
 5862TIP3    H117543   7.364   1.947   3.470
 5862TIP3    H217544   7.488   1.863   3.494
 5863TIP3   OH217545   2.024   1.591   0.685
 5863TIP3    H117546   2.053   1.608   0.775
 5863TIP3    H217547   1.996   1.500   0.685
 5864TIP3   OH217548   8.014   1.703   5.321
 5864TIP3    H117549   7.940   1.653   5.285
 5864TIP3    H217550   8.080   1.702   5.252
 5865TIP3   OH217551   7.477   1.739   5.964
 5865TIP3    H117552   7.428   1.785   6.032
 5865TIP3    H217553   7.465   1.792   5.885
 5866TIP3   OH217554   3.483   7.788   5.607
 5866TIP3    H117555   3.508   7.696   5.591
 5866TIP3    H217556   3.396   7.795   5.568
 5867TIP3   OH217557   4.775   3.230   2.688
 5867TIP3    H117558   4.809   3.274   2.610
 5867TIP3    H217559   4.690   3.195   2.661
 5868TIP3   OH217560   0.909   3.575   5.954
 5868TIP3    H117561   0.919   3.596   5.862
 5868TIP3    H217562   0.823   3.611   5.978
 5869TIP3   OH217563   0.474   2.345   1.840
 5869TIP3    H117564   0.492   2.344   1.746
 5869TIP3    H217565   0.482   2.253   1.867
 5870TIP3   OH217566   0.319   6.355   3.623
 5870TIP3    H117567   0.355   6.401   3.699
 5870TIP3    H217568   0.294   6.269   3.657
 5871TIP3   OH217569   1.751   5.088   2.291
 5871TIP3    H117570   1.737   5.000   2.255
 5871TIP3    H217571   1.685   5.142   2.247
 5872TIP3   OH217572   1.155   5.406   5.427
 5872TIP3    H117573   1.096   5.436   5.358
 5872TIP3    H217574   1.150   5.474   5.494
 5873TIP3   OH217575   5.013   4.885   5.146
 5873TIP3    H117576   4.941   4.931   5.188
 5873TIP3    H217577   4.982   4.868   5.057
 5874TIP3   OH217578   6.776   7.298   2.087
 5874TIP3    H117579   6.719   7.368   2.121
 5874TIP3    H217580   6.743   7.219   2.129
 5875TIP3   OH217581   7.133   3.994   4.688
 5875TIP3    H117582   7.158   4.008   4.779
 5875TIP3    H217583   7.144   3.900   4.674
 5876TIP3   OH217584   1.390   6.610   5.503
 5876TIP3    H117585   1.467   6.663   5.481
 5876TIP3    H217586   1.415   6.562   5.581
 5877TIP3   OH217587   7.107   0.971   0.691
 5877TIP3    H117588   7.197   0.958   0.661
 5877TIP3    H217589   7.077   0.883   0.713
 5878TIP3   OH217590   7.864   6.918   4.406
 5878TIP3    H117591   7.934   6.888   4.463
 5878TIP3    H217592   7.865   6.857   4.332
 5879TIP3   OH217593   2.089   5.426   1.129
 5879TIP3    H117594   2.031   5.351   1.126
 5879TIP3    H217595   2.147   5.415   1.053
 5880TIP3   OH217596   1.418   5.376   5.616
 5880TIP3    H117597   1.443   5.284   5.626
 5880TIP3    H217598   1.353   5.391   5.684
 5881TIP3   OH217599   6.796   5.512   6.087
 5881TIP3    H117600   6.731   5.546   6.025
 5881TIP3    H217601   6.767   5.422   6.104
 5882TIP3   OH217602   5.863   1.626   1.159
 5882TIP3    H117603   5.924   1.642   1.230
 5882TIP3    H217604   5.890   1.542   1.122
 5883TIP3   OH217605   7.390   6.902   3.738
 5883TIP3    H117606   7.436   6.985   3.741
 5883TIP3    H217607   7.453   6.838   3.769
 5884TIP3   OH217608   1.474   1.282   3.973
 5884TIP3    H117609   1.390   1.313   3.940
 5884TIP3    H217610   1.502   1.347   4.037
 5885TIP3   OH217611   5.870   7.450   6.526
 5885TIP3    H117612   5.935   7.468   6.594
 5885TIP3    H217613   5.790   7.493   6.557
 5886TIP3   OH217614   2.649   2.529   3.732
 5886TIP3    H117615   2.652   2.613   3.685
 5886TIP3    H217616   2.648   2.554   3.824
 5887TIP3   OH217617   3.395   3.472   2.108
 5887TIP3    H117618   3.377   3.471   2.202
 5887TIP3    H217619   3.361   3.387   2.077
 5888TIP3   OH217620   5.155   1.052   4.057
 5888TIP3    H117621   5.086   1.005   4.103
 5888TIP3    H217622   5.231   1.047   4.116
 5889TIP3   OH217623   2.349   3.548   3.380
 5889TIP3    H117624   2.274   3.558   3.438
 5889TIP3    H217625   2.314   3.507   3.301
 5890TIP3   OH217626   0.908   5.473   5.271
 5890TIP3    H117627   0.858   5.554   5.267
 5890TIP3    H217628   0.845   5.406   5.244
 5891TIP3   OH217629   4.347   0.662   2.888
 5891TIP3    H117630   4.265   0.677   2.935
 5891TIP3    H217631   4.320   0.630   2.802
 5892TIP3   OH217632   6.994   0.807   4.113
 5892TIP3    H117633   6.922   0.834   4.171
 5892TIP3    H217634   7.017   0.886   4.066
 5893TIP3   OH217635   2.702   3.759   2.611
 5893TIP3    H117636   2.785   3.807   2.618
 5893TIP3    H217637   2.639   3.814   2.657
 5894TIP3   OH217638   2.312   1.434   2.193
 5894TIP3    H117639   2.325   1.489   2.116
 5894TIP3    H217640   2.400   1.410   2.221
 5895TIP3   OH217641   7.408   6.367   0.659
 5895TIP3    H117642   7.404   6.358   0.564
 5895TIP3    H217643   7.465   6.296   0.688
 5896TIP3   OH217644   5.950   6.974   0.433
 5896TIP3    H117645   6.035   6.971   0.390
 5896TIP3    H217646   5.971   6.980   0.526
 5897TIP3   OH217647   4.500   6.800   2.100
 5897TIP3    H117648   4.413   6.763   2.084
 5897TIP3    H217649   4.484   6.891   2.122
 5898TIP3   OH217650   0.376   7.309   3.840
 5898TIP3    H117651   0.441   7.247   3.873
 5898TIP3    H217652   0.292   7.266   3.858
 5899TIP3   OH217653   0.725   7.349   2.470
 5899TIP3    H117654   0.804   7.295   2.463
 5899TIP3    H217655   0.669   7.319   2.399
 5900TIP3   OH217656   3.877   6.956   4.521
 5900TIP3    H117657   3.905   6.943   4.612
 5900TIP3    H217658   3.958   6.957   4.470
 5901TIP3   OH217659   7.542   3.183   2.214
 5901TIP3    H117660   7.492   3.158   2.291
 5901TIP3    H217661   7.536   3.278   2.211
 5902TIP3   OH217662   1.455   6.850   0.191
 5902TIP3    H117663   1.381   6.801   0.226
 5902TIP3    H217664   1.417   6.931   0.157
 5903TIP3   OH217665   2.956   0.350   6.476
 5903TIP3    H117666   3.011   0.364   6.399
 5903TIP3    H217667   2.868   0.335   6.440
 5904TIP3   OH217668   6.674   3.402   0.542
 5904TIP3    H117669   6.768   3.408   0.559
 5904TIP3    H217670   6.666   3.415   0.448
 5905TIP3   OH217671   8.157   2.972   0.962
 5905TIP3    H117672   8.145   3.061   0.994
 5905TIP3    H217673   8.201   2.981   0.878
 5906TIP3   OH217674   4.559   3.727   5.117
 5906TIP3    H117675   4.496   3.663   5.149
 5906TIP3    H217676   4.537   3.808   5.164
 5907TIP3   OH217677   0.308   1.981   3.062
 5907TIP3    H117678   0.402   1.996   3.057
 5907TIP3    H217679   0.299   1.887   3.077
 5908TIP3   OH217680   4.881   1.320   5.105
 5908TIP3    H117681   4.836   1.322   5.190
 5908TIP3    H217682   4.968   1.356   5.123
 5909TIP3   OH217683   4.962   5.696   1.349
 5909TIP3    H117684   4.872   5.677   1.376
 5909TIP3    H217685   5.014   5.626   1.390
 5910TIP3   OH217686   2.287   4.030   3.397
 5910TIP3    H117687   2.375   4.062   3.417
 5910TIP3    H217688   2.287   3.939   3.427
 5911TIP3   OH217689   5.767   6.043   1.969
 5911TIP3    H117690   5.846   5.992   1.952
 5911TIP3    H217691   5.742   6.078   1.883
 5912TIP3   OH217692   2.574   5.897   1.130
 5912TIP3    H117693   2.575   5.918   1.037
 5912TIP3    H217694   2.652   5.939   1.165
 5913TIP3   OH217695   2.297   6.135   3.667
 5913TIP3    H117696   2.339   6.138   3.581
 5913TIP3    H217697   2.331   6.211   3.714
 5914TIP3   OH217698   0.701   6.534   0.769
 5914TIP3    H117699   0.688   6.606   0.831
 5914TIP3    H217700   0.624   6.538   0.712
 5915TIP3   OH217701   5.532   6.168   0.475
 5915TIP3    H117702   5.464   6.135   0.415
 5915TIP3    H217703   5.520   6.117   0.555
 5916TIP3   OH217704   4.576   3.939   5.894
 5916TIP3    H117705   4.660   3.951   5.851
 5916TIP3    H217706   4.538   3.862   5.851
 5917TIP3   OH217707   1.940   7.468   1.856
 5917TIP3    H117708   1.999   7.392   1.857
 5917TIP3    H217709   1.997   7.542   1.878
 5918TIP3   OH217710   7.728   4.196   1.155
 5918TIP3    H117711   7.663   4.186   1.224
 5918TIP3    H217712   7.765   4.109   1.144
 5919TIP3   OH217713   7.508   5.870   2.596
 5919TIP3    H117714   7.594   5.911   2.587
 5919TIP3    H217715   7.485   5.882   2.688
 5920TIP3   OH217716   0.989   2.764   2.512
 5920TIP3    H117717   0.928   2.763   2.586
 5920TIP3    H217718   0.943   2.816   2.445
 5921TIP3   OH217719   6.318   0.150   0.011
 5921TIP3    H117720   6.337   0.170   0.103
 5921TIP3    H217721   6.267   0.070   0.014
 5922TIP3   OH217722   6.797   2.705   3.281
 5922TIP3    H117723   6.775   2.769   3.213
 5922TIP3    H217724   6.713   2.687   3.324
 5923TIP3   OH217725   7.686   5.018   0.782
 5923TIP3    H117726   7.659   5.032   0.691
 5923TIP3    H217727   7.649   4.933   0.804
 5924TIP3   OH217728   5.977   1.677   3.840
 5924TIP3    H117729   6.039   1.624   3.890
 5924TIP3    H217730   5.967   1.758   3.890
 5925TIP3   OH217731   1.243   6.260   5.134
 5925TIP3    H117732   1.200   6.199   5.194
 5925TIP3    H217733   1.195   6.342   5.144
 5926TIP3   OH217734   0.746   6.807   5.804
 5926TIP3    H117735   0.775   6.770   5.721
 5926TIP3    H217736   0.759   6.737   5.867
 5927TIP3   OH217737   7.275   0.220   4.846
 5927TIP3    H117738   7.275   0.312   4.871
 5927TIP3    H217739   7.366   0.192   4.856
 5928TIP3   OH217740   5.460   4.850   5.276
 5928TIP3    H117741   5.481   4.762   5.244
 5928TIP3    H217742   5.392   4.836   5.342
 5929TIP3   OH217743   6.970   3.010   4.276
 5929TIP3    H117744   6.910   2.983   4.206
 5929TIP3    H217745   6.995   3.100   4.254
 5930TIP3   OH217746   5.200   3.121   5.567
 5930TIP3    H117747   5.121   3.135   5.516
 5930TIP3    H217748   5.269   3.108   5.502
 5931TIP3   OH217749   7.873   3.461   5.903
 5931TIP3    H117750   7.932   3.443   5.830
 5931TIP3    H217751   7.918   3.424   5.979
 5932TIP3   OH217752   4.899   1.980   4.694
 5932TIP3    H117753   4.812   1.942   4.680
 5932TIP3    H217754   4.931   1.937   4.773
 5933TIP3   OH217755   1.531   2.603   2.715
 5933TIP3    H117756   1.466   2.584   2.647
 5933TIP3    H217757   1.614   2.574   2.677
 5934TIP3   OH217758   3.251   6.549   4.155
 5934TIP3    H117759   3.242   6.468   4.206
 5934TIP3    H217760   3.272   6.520   4.066
 5935TIP3   OH217761   2.471   0.977   4.608
 5935TIP3    H117762   2.403   0.964   4.675
 5935TIP3    H217763   2.550   0.939   4.646
 5936TIP3   OH217764   3.316   2.374   4.448
 5936TIP3    H117765   3.239   2.326   4.477
 5936TIP3    H217766   3.288   2.466   4.447
 5937TIP3   OH217767   0.878   7.656   3.971
 5937TIP3    H117768   0.937   7.583   3.990
 5937TIP3    H217769   0.798   7.634   4.019
 5938TIP3   OH217770   5.892   5.625   0.100
 5938TIP3    H117771   5.935   5.555   0.148
 5938TIP3    H217772   5.868   5.689   0.167
 5939TIP3   OH217773   5.685   4.068   5.971
 5939TIP3    H117774   5.719   4.087   5.883
 5939TIP3    H217775   5.696   3.973   5.980
 5940TIP3   OH217776   3.581   5.390   2.259
 5940TIP3    H117777   3.640   5.342   2.317
 5940TIP3    H217778   3.623   5.385   2.173
 5941TIP3   OH217779   6.894   5.679   0.302
 5941TIP3    H117780   6.847   5.702   0.221
 5941TIP3    H217781   6.914   5.763   0.342
 5942TIP3   OH217782   5.397   6.406   4.721
 5942TIP3    H117783   5.399   6.420   4.626
 5942TIP3    H217784   5.305   6.420   4.744
 5943TIP3   OH217785   3.278   5.272   4.955
 5943TIP3    H117786   3.361   5.310   4.985
 5943TIP3    H217787   3.272   5.296   4.863
 5944TIP3   OH217788   1.438   3.885   6.683
 5944TIP3    H117789   1.439   3.789   6.675
 5944TIP3    H217790   1.399   3.901   6.769
 5945TIP3   OH217791   6.312   2.288   2.576
 5945TIP3    H117792   6.287   2.308   2.666
 5945TIP3    H217793   6.392   2.236   2.585
 5946TIP3   OH217794   2.989   5.203   0.639
 5946TIP3    H117795   3.070   5.156   0.656
 5946TIP3    H217796   2.922   5.134   0.632
 5947TIP3   OH217797   0.928   3.505   4.006
 5947TIP3    H117798   1.021   3.486   3.990
 5947TIP3    H217799   0.882   3.444   3.949
 5948TIP3   OH217800   4.056   3.311   4.440
 5948TIP3    H117801   4.104   3.356   4.371
 5948TIP3    H217802   4.065   3.218   4.420
 5949TIP3   OH217803   6.176   3.426   6.748
 5949TIP3    H117804   6.091   3.399   6.782
 5949TIP3    H217805   6.155   3.480   6.672
 5950TIP3   OH217806   2.051   1.764   2.065
 5950TIP3    H117807   1.966   1.743   2.025
 5950TIP3    H217808   2.110   1.697   2.032
 5951TIP3   OH217809   2.019   2.430   2.805
 5951TIP3    H117810   2.079   2.468   2.741
 5951TIP3    H217811   2.067   2.356   2.841
 5952TIP3   OH217812   2.771   4.566   2.867
 5952TIP3    H117813   2.699   4.583   2.806
 5952TIP3    H217814   2.848   4.604   2.824
 5953TIP3   OH217815   7.304   1.267   2.504
 5953TIP3    H117816   7.209   1.278   2.510
 5953TIP3    H217817   7.340   1.351   2.534
 5954TIP3   OH217818   6.585   7.107   5.383
 5954TIP3    H117819   6.613   7.170   5.449
 5954TIP3    H217820   6.650   7.116   5.313
 5955TIP3   OH217821   0.028   5.497   1.580
 5955TIP3    H117822   0.027   5.585   1.617
 5955TIP3    H217823   0.037   5.439   1.655
 5956TIP3   OH217824   4.261   5.803   6.012
 5956TIP3    H117825   4.333   5.864   5.997
 5956TIP3    H217826   4.236   5.772   5.925
 5957TIP3   OH217827   6.199   5.562   0.554
 5957TIP3    H117828   6.210   5.625   0.483
 5957TIP3    H217829   6.224   5.611   0.633
 5958TIP3   OH217830   1.405   4.584   0.180
 5958TIP3    H117831   1.423   4.647   0.111
 5958TIP3    H217832   1.470   4.603   0.248
 5959TIP3   OH217833   1.494   2.495   6.541
 5959TIP3    H117834   1.580   2.488   6.500
 5959TIP3    H217835   1.481   2.589   6.551
 5960TIP3   OH217836   6.796   1.392   2.190
 5960TIP3    H117837   6.857   1.326   2.222
 5960TIP3    H217838   6.734   1.343   2.135
 5961TIP3   OH217839   3.478   7.028   3.820
 5961TIP3    H117840   3.498   7.119   3.839
 5961TIP3    H217841   3.424   6.999   3.893
 5962TIP3   OH217842   2.443   6.740   2.705
 5962TIP3    H117843   2.485   6.789   2.635
 5962TIP3    H217844   2.421   6.806   2.771
 5963TIP3   OH217845   2.256   1.477   0.048
 5963TIP3    H117846   2.191   1.408   0.039
 5963TIP3    H217847   2.211   1.546   0.098
 5964TIP3   OH217848   2.920   6.870   1.595
 5964TIP3    H117849   2.938   6.903   1.683
 5964TIP3    H217850   2.838   6.912   1.570
 5965TIP3   OH217851   1.165   6.586   6.104
 5965TIP3    H117852   1.261   6.577   6.101
 5965TIP3    H217853   1.141   6.615   6.016
 5966TIP3   OH217854   1.349   7.301   3.350
 5966TIP3    H117855   1.438   7.326   3.374
 5966TIP3    H217856   1.316   7.254   3.426
 5967TIP3   OH217857   4.284   4.993   2.163
 5967TIP3    H117858   4.306   4.993   2.069
 5967TIP3    H217859   4.244   4.908   2.178
 5968TIP3   OH217860   2.258   4.255   3.147
 5968TIP3    H117861   2.224   4.180   3.195
 5968TIP3    H217862   2.241   4.236   3.055
 5969TIP3   OH217863   2.505   5.903   2.738
 5969TIP3    H117864   2.464   5.961   2.802
 5969TIP3    H217865   2.439   5.893   2.670
 5970TIP3   OH217866   8.153   5.644   5.787
 5970TIP3    H117867   8.166   5.580   5.717
 5970TIP3    H217868   8.193   5.724   5.754
 5971TIP3   OH217869   2.809   4.648   4.958
 5971TIP3    H117870   2.755   4.696   5.020
 5971TIP3    H217871   2.761   4.566   4.944
 5972TIP3   OH217872   2.528   3.767   6.342
 5972TIP3    H117873   2.580   3.706   6.393
 5972TIP3    H217874   2.580   3.784   6.264
 5973TIP3   OH217875   1.512   3.919   5.629
 5973TIP3    H117876   1.495   3.829   5.658
 5973TIP3    H217877   1.529   3.911   5.535
 5974TIP3   OH217878   5.610   2.205   2.768
 5974TIP3    H117879   5.542   2.179   2.706
 5974TIP3    H217880   5.685   2.150   2.746
 5975TIP3   OH217881   4.189   5.467   1.836
 5975TIP3    H117882   4.235   5.465   1.752
 5975TIP3    H217883   4.256   5.489   1.900
 5976TIP3   OH217884   6.732   5.750   5.541
 5976TIP3    H117885   6.688   5.758   5.625
 5976TIP3    H217886   6.825   5.743   5.563
 5977TIP3   OH217887   1.853   1.811   1.794
 5977TIP3    H117888   1.829   1.864   1.870
 5977TIP3    H217889   1.769   1.780   1.760
 5978TIP3   OH217890   1.559   6.962   2.663
 5978TIP3    H117891   1.501   7.014   2.607
 5978TIP3    H217892   1.599   6.899   2.604
 5979TIP3   OH217893   1.064   2.175   4.546
 5979TIP3    H117894   1.147   2.214   4.518
 5979TIP3    H217895   1.057   2.198   4.639
 5980TIP3   OH217896   6.585   4.281   3.211
 5980TIP3    H117897   6.605   4.318   3.297
 5980TIP3    H217898   6.670   4.282   3.165
 5981TIP3   OH217899   5.784   2.391   4.941
 5981TIP3    H117900   5.695   2.379   4.907
 5981TIP3    H217901   5.773   2.449   5.016
 5982TIP3   OH217902   6.643   4.973   0.403
 5982TIP3    H117903   6.684   4.938   0.324
 5982TIP3    H217904   6.621   4.895   0.455
 5983TIP3   OH217905   7.202   7.745   4.313
 5983TIP3    H117906   7.147   7.669   4.291
 5983TIP3    H217907   7.229   7.780   4.228
 5984TIP3   OH217908   5.823   2.435   5.741
 5984TIP3    H117909   5.869   2.466   5.819
 5984TIP3    H217910   5.809   2.342   5.757
 5985TIP3   OH217911   4.570   2.072   5.085
 5985TIP3    H117912   4.584   1.997   5.027
 5985TIP3    H217913   4.571   2.148   5.027
 5986TIP3   OH217914   7.133   6.125   6.051
 5986TIP3    H117915   7.135   6.145   6.145
 5986TIP3    H217916   7.042   6.137   6.026
 5987TIP3   OH217917   5.357   4.680   2.729
 5987TIP3    H117918   5.328   4.689   2.820
 5987TIP3    H217919   5.445   4.718   2.728
 5988TIP3   OH217920   0.499   2.798   3.860
 5988TIP3    H117921   0.408   2.806   3.832
 5988TIP3    H217922   0.536   2.731   3.803
 5989TIP3   OH217923   6.205   7.294   2.796
 5989TIP3    H117924   6.203   7.206   2.833
 5989TIP3    H217925   6.148   7.346   2.852
 5990TIP3   OH217926   5.637   1.291   0.741
 5990TIP3    H117927   5.646   1.341   0.822
 5990TIP3    H217928   5.726   1.262   0.721
 5991TIP3   OH217929   7.705   3.008   5.570
 5991TIP3    H117930   7.688   3.016   5.664
 5991TIP3    H217931   7.792   3.047   5.558
 5992TIP3   OH217932   7.883   5.813   3.219
 5992TIP3    H117933   7.907   5.803   3.126
 5992TIP3    H217934   7.824   5.740   3.236
 5993TIP3   OH217935   3.209   3.137   0.728
 5993TIP3    H117936   3.177   3.089   0.652
 5993TIP3    H217937   3.133   3.183   0.762
 5994TIP3   OH217938   2.349   5.667   1.109
 5994TIP3    H117939   2.268   5.710   1.133
 5994TIP3    H217940   2.323   5.596   1.051
 5995TIP3   OH217941   3.081   6.286   6.702
 5995TIP3    H117942   3.115   6.357   6.757
 5995TIP3    H217943   3.123   6.208   6.737
 5996TIP3   OH217944   0.851   5.045   6.641
 5996TIP3    H117945   0.840   5.021   6.549
 5996TIP3    H217946   0.823   5.137   6.646
 5997TIP3   OH217947   3.156   5.916   4.358
 5997TIP3    H117948   3.152   5.864   4.277
 5997TIP3    H217949   3.126   6.003   4.332
 5998TIP3   OH217950   0.457   4.891   2.658
 5998TIP3    H117951   0.553   4.890   2.655
 5998TIP3    H217952   0.433   4.803   2.685
 5999TIP3   OH217953   8.096   1.303   0.847
 5999TIP3    H117954   8.008   1.331   0.823
 5999TIP3    H217955   8.083   1.219   0.891
 6000TIP3   OH217956   4.422   3.626   1.900
 6000TIP3    H117957   4.421   3.692   1.831
 6000TIP3    H217958   4.367   3.555   1.867
 6001TIP3   OH217959   4.297   7.707   3.495
 6001TIP3    H117960   4.256   7.695   3.409
 6001TIP3    H217961   4.225   7.732   3.552
 6002TIP3   OH217962   7.328   4.545   1.448
 6002TIP3    H117963   7.386   4.621   1.438
 6002TIP3    H217964   7.248   4.570   1.402
 6003TIP3   OH217965   1.844   5.102   4.499
 6003TIP3    H117966   1.902   5.089   4.574
 6003TIP3    H217967   1.881   5.176   4.452
 6004TIP3   OH217968   7.570   1.199   3.755
 6004TIP3    H117969   7.639   1.240   3.703
 6004TIP3    H217970   7.546   1.266   3.819
 6005TIP3   OH217971   0.210   5.747   1.289
 6005TIP3    H117972   0.234   5.754   1.381
 6005TIP3    H217973   0.291   5.767   1.241
 6006TIP3   OH217974   2.967   2.433   0.900
 6006TIP3    H117975   2.894   2.416   0.959
 6006TIP3    H217976   2.927   2.480   0.826
 6007TIP3   OH217977   3.859   5.710   2.098
 6007TIP3    H117978   3.812   5.690   2.016
 6007TIP3    H217979   3.862   5.806   2.100
 6008TIP3   OH217980   6.841   0.581   1.265
 6008TIP3    H117981   6.767   0.607   1.321
 6008TIP3    H217982   6.805   0.511   1.210
 6009TIP3   OH217983   4.558   6.246   3.822
 6009TIP3    H117984   4.623   6.195   3.773
 6009TIP3    H217985   4.499   6.180   3.858
 6010TIP3   OH217986   3.325   1.679   4.529
 6010TIP3    H117987   3.270   1.682   4.452
 6010TIP3    H217988   3.265   1.690   4.603
 6011TIP3   OH217989   1.418   0.860   4.106
 6011TIP3    H117990   1.357   0.862   4.032
 6011TIP3    H217991   1.398   0.779   4.152
 6012TIP3   OH217992   6.428   4.500   6.313
 6012TIP3    H117993   6.391   4.531   6.230
 6012TIP3    H217994   6.373   4.426   6.339
 6013TIP3   OH217995   5.601   7.159   3.223
 6013TIP3    H117996   5.647   7.076   3.240
 6013TIP3    H217997   5.522   7.153   3.277
 6014TIP3   OH217998   7.759   2.061   0.290
 6014TIP3    H117999   7.668   2.049   0.315
 6014TIP3    H218000   7.786   2.142   0.333
 6015TIP3   OH218001   0.458   2.340   5.413
 6015TIP3    H118002   0.452   2.424   5.368
 6015TIP3    H218003   0.479   2.364   5.504
 6016TIP3   OH218004   0.469   4.956   0.972
 6016TIP3    H118005   0.393   4.918   1.016
 6016TIP3    H218006   0.454   4.941   0.879
 6017TIP3   OH218007   7.321   3.405   4.812
 6017TIP3    H118008   7.293   3.454   4.735
 6017TIP3    H218009   7.333   3.471   4.880
 6018TIP3   OH218010   3.771   0.853   1.767
 6018TIP3    H118011   3.862   0.882   1.775
 6018TIP3    H218012   3.759   0.837   1.674
 6019TIP3   OH218013   2.434   6.715   4.407
 6019TIP3    H118014   2.514   6.736   4.455
 6019TIP3    H218015   2.385   6.797   4.404
 6020TIP3   OH218016   2.857   0.977   4.069
 6020TIP3    H118017   2.925   0.910   4.067
 6020TIP3    H218018   2.867   1.021   4.153
 6021TIP3   OH218019   0.250   5.895   5.397
 6021TIP3    H118020   0.332   5.848   5.383
 6021TIP3    H218021   0.268   5.984   5.366
 6022TIP3   OH218022   4.155   5.094   1.069
 6022TIP3    H118023   4.181   5.027   1.006
 6022TIP3    H218024   4.115   5.163   1.016
 6023TIP3   OH218025   7.537   7.574   0.999
 6023TIP3    H118026   7.617   7.590   0.949
 6023TIP3    H218027   7.543   7.635   1.073
 6024TIP3   OH218028   7.187   2.616   4.111
 6024TIP3    H118029   7.141   2.634   4.193
 6024TIP3    H218030   7.176   2.522   4.098
 6025TIP3   OH218031   1.504   4.470   4.803
 6025TIP3    H118032   1.448   4.425   4.866
 6025TIP3    H218033   1.584   4.491   4.851
 6026TIP3   OH218034   1.843   6.433   4.155
 6026TIP3    H118035   1.894   6.503   4.195
 6026TIP3    H218036   1.897   6.402   4.082
 6027TIP3   OH218037   4.202   3.112   2.362
 6027TIP3    H118038   4.154   3.132   2.442
 6027TIP3    H218039   4.199   3.193   2.311
 6028TIP3   OH218040   6.298   0.970   6.523
 6028TIP3    H118041   6.265   0.892   6.568
 6028TIP3    H218042   6.381   0.942   6.484
 6029TIP3   OH218043   6.894   6.067   4.153
 6029TIP3    H118044   6.834   6.103   4.218
 6029TIP3    H218045   6.891   6.129   4.080
 6030TIP3   OH218046   3.192   5.102   1.903
 6030TIP3    H118047   3.098   5.112   1.896
 6030TIP3    H218048   3.205   5.015   1.943
 6031TIP3   OH218049   7.744   4.540   2.787
 6031TIP3    H118050   7.706   4.484   2.718
 6031TIP3    H218051   7.794   4.606   2.739
 6032TIP3   OH218052   3.139   6.099   4.739
 6032TIP3    H118053   3.153   6.004   4.741
 6032TIP3    H218054   3.082   6.116   4.814
 6033TIP3   OH218055   1.188   1.961   0.994
 6033TIP3    H118056   1.200   2.046   1.036
 6033TIP3    H218057   1.169   1.901   1.066
 6034TIP3   OH218058   6.464   0.911   3.605
 6034TIP3    H118059   6.489   0.991   3.559
 6034TIP3    H218060   6.375   0.927   3.636
 6035TIP3   OH218061   5.824   5.365   5.563
 6035TIP3    H118062   5.759   5.299   5.585
 6035TIP3    H218063   5.907   5.318   5.560
 6036TIP3   OH218064   6.686   2.596   1.878
 6036TIP3    H118065   6.779   2.578   1.867
 6036TIP3    H218066   6.682   2.689   1.902
 6037TIP3   OH218067   6.134   3.130   4.963
 6037TIP3    H118068   6.106   3.107   4.874
 6037TIP3    H218069   6.220   3.170   4.952
 6038TIP3   OH218070   2.969   2.107   1.008
 6038TIP3    H118071   2.946   2.188   0.962
 6038TIP3    H218072   3.059   2.089   0.982
 6039TIP3   OH218073   7.002   2.885   0.916
 6039TIP3    H118074   7.067   2.940   0.872
 6039TIP3    H218075   7.037   2.796   0.910
 6040TIP3   OH218076   6.922   3.260   1.251
 6040TIP3    H118077   6.960   3.180   1.214
 6040TIP3    H218078   6.851   3.283   1.190
 6041TIP3   OH218079   1.097   3.402   0.235
 6041TIP3    H118080   1.042   3.358   0.171
 6041TIP3    H218081   1.036   3.428   0.305
 6042TIP3   OH218082   0.729   3.720   3.273
 6042TIP3    H118083   0.634   3.734   3.277
 6042TIP3    H218084   0.752   3.684   3.359
 6043TIP3   OH218085   7.039   5.450   3.423
 6043TIP3    H118086   7.053   5.388   3.350
 6043TIP3    H218087   6.987   5.400   3.486
 6044TIP3   OH218088   8.090   1.619   6.342
 6044TIP3    H118089   8.142   1.581   6.271
 6044TIP3    H218090   8.069   1.545   6.399
 6045TIP3   OH218091   2.093   4.008   2.277
 6045TIP3    H118092   2.137   3.924   2.293
 6045TIP3    H218093   2.164   4.068   2.253
 6046TIP3   OH218094   4.134   5.618   4.645
 6046TIP3    H118095   4.160   5.555   4.712
 6046TIP3    H218096   4.101   5.694   4.694
 6047TIP3   OH218097   4.081   7.017   5.045
 6047TIP3    H118098   4.119   6.964   4.975
 6047TIP3    H218099   4.010   7.066   5.002
 6048TIP3   OH218100   6.092   4.269   1.069
 6048TIP3    H118101   6.033   4.196   1.085
 6048TIP3    H218102   6.140   4.280   1.152
 6049TIP3   OH218103   3.005   6.884   2.188
 6049TIP3    H118104   3.092   6.915   2.164
 6049TIP3    H218105   2.963   6.959   2.230
 6050TIP3   OH218106   6.851   4.157   0.000
 6050TIP3    H118107   6.821   4.185  -0.087
 6050TIP3    H218108   6.773   4.119   0.041
 6051TIP3   OH218109   5.723   4.849   5.115
 6051TIP3    H118110   5.642   4.798   5.119
 6051TIP3    H218111   5.700   4.934   5.154
 6052TIP3   OH218112   7.590   0.749   2.531
 6052TIP3    H118113   7.539   0.823   2.495
 6052TIP3    H218114   7.664   0.740   2.470
 6053TIP3   OH218115   4.903   5.694   6.689
 6053TIP3    H118116   4.990   5.655   6.693
 6053TIP3    H218117   4.903   5.761   6.758
 6054TIP3   OH218118   0.162   0.520   5.180
 6054TIP3    H118119   0.107   0.480   5.247
 6054TIP3    H218120   0.239   0.462   5.175
 6055TIP3   OH218121   5.039   4.705   5.472
 6055TIP3    H118122   4.983   4.758   5.414
 6055TIP3    H218123   4.978   4.643   5.512
 6056TIP3   OH218124   4.182   4.677   1.451
 6056TIP3    H118125   4.233   4.736   1.506
 6056TIP3    H218126   4.091   4.692   1.479
 6057TIP3   OH218127   5.544   0.172   0.350
 6057TIP3    H118128   5.462   0.189   0.397
 6057TIP3    H218129   5.611   0.214   0.404
 6058TIP3   OH218130   2.223   2.753   1.307
 6058TIP3    H118131   2.272   2.816   1.360
 6058TIP3    H218132   2.143   2.738   1.357
 6059TIP3   OH218133   7.144   1.830   0.850
 6059TIP3    H118134   7.123   1.862   0.937
 6059TIP3    H218135   7.217   1.885   0.821
 6060TIP3   OH218136   4.667   7.612   1.111
 6060TIP3    H118137   4.699   7.700   1.095
 6060TIP3    H218138   4.670   7.569   1.026
 6061TIP3   OH218139   4.275   4.373   0.331
 6061TIP3    H118140   4.227   4.292   0.344
 6061TIP3    H218141   4.209   4.442   0.339
 6062TIP3   OH218142   1.391   2.145   6.261
 6062TIP3    H118143   1.379   2.126   6.354
 6062TIP3    H218144   1.306   2.125   6.221
 6063TIP3   OH218145   7.713   1.110   3.454
 6063TIP3    H118146   7.796   1.106   3.407
 6063TIP3    H218147   7.715   1.035   3.513
 6064TIP3   OH218148   6.491   2.698   3.143
 6064TIP3    H118149   6.422   2.730   3.201
 6064TIP3    H218150   6.445   2.669   3.064
 6065TIP3   OH218151   2.789   3.500   6.301
 6065TIP3    H118152   2.715   3.487   6.242
 6065TIP3    H218153   2.760   3.463   6.384
 6066TIP3   OH218154   0.736   1.220   5.837
 6066TIP3    H118155   0.646   1.253   5.846
 6066TIP3    H218156   0.734   1.134   5.880
 6067TIP3   OH218157   4.178   2.409   1.212
 6067TIP3    H118158   4.173   2.488   1.265
 6067TIP3    H218159   4.217   2.437   1.129
 6068TIP3   OH218160   2.201   0.303   2.758
 6068TIP3    H118161   2.157   0.262   2.683
 6068TIP3    H218162   2.147   0.379   2.778
 6069TIP3   OH218163   0.142   5.865   5.844
 6069TIP3    H118164   0.187   5.812   5.909
 6069TIP3    H218165   0.102   5.937   5.894
 6070TIP3   OH218166   5.201   3.333   6.407
 6070TIP3    H118167   5.254   3.412   6.398
 6070TIP3    H218168   5.115   3.357   6.371
 6071TIP3   OH218169   7.786   1.973   0.022
 6071TIP3    H118170   7.691   1.988   0.017
 6071TIP3    H218171   7.805   1.969   0.115
 6072TIP3   OH218172   4.335   3.234   2.100
 6072TIP3    H118173   4.270   3.269   2.161
 6072TIP3    H218174   4.419   3.260   2.138
 6073TIP3   OH218175   3.523   7.261   5.705
 6073TIP3    H118176   3.460   7.258   5.777
 6073TIP3    H218177   3.503   7.184   5.652
 6074TIP3   OH218178   8.002   0.645   0.086
 6074TIP3    H118179   8.040   0.666   0.171
 6074TIP3    H218180   8.071   0.598   0.039
 6075TIP3   OH218181   2.459   2.846   5.785
 6075TIP3    H118182   2.388   2.869   5.725
 6075TIP3    H218183   2.434   2.886   5.869
 6076TIP3   OH218184   1.607   2.925   2.756
 6076TIP3    H118185   1.636   2.889   2.840
 6076TIP3    H218186   1.590   3.017   2.774
 6077TIP3   OH218187   0.167   4.012   3.603
 6077TIP3    H118188   0.117   3.945   3.649
 6077TIP3    H218189   0.186   3.972   3.518
 6078TIP3   OH218190   2.172   2.203   4.731
 6078TIP3    H118191   2.242   2.252   4.687
 6078TIP3    H218192   2.091   2.240   4.697
 6079TIP3   OH218193   7.377   4.962   6.637
 6079TIP3    H118194   7.411   5.016   6.709
 6079TIP3    H218195   7.316   4.902   6.679
 6080TIP3   OH218196   0.728   7.373   1.006
 6080TIP3    H118197   0.767   7.421   1.080
 6080TIP3    H218198   0.706   7.287   1.042
 6081TIP3   OH218199   3.870   7.165   4.906
 6081TIP3    H118200   3.786   7.177   4.950
 6081TIP3    H218201   3.880   7.243   4.851
 6082TIP3   OH218202   0.833   7.312   5.022
 6082TIP3    H118203   0.754   7.257   5.024
 6082TIP3    H218204   0.876   7.295   5.106
 6083TIP3   OH218205   3.293   5.637   5.557
 6083TIP3    H118206   3.328   5.635   5.646
 6083TIP3    H218207   3.199   5.628   5.568
 6084TIP3   OH218208   7.911   5.389   6.119
 6084TIP3    H118209   7.884   5.480   6.132
 6084TIP3    H218210   7.834   5.346   6.082
 6085TIP3   OH218211   6.194   0.588   3.867
 6085TIP3    H118212   6.148   0.669   3.890
 6085TIP3    H218213   6.129   0.519   3.881
 6086TIP3   OH218214   2.769   7.234   4.348
 6086TIP3    H118215   2.736   7.188   4.425
 6086TIP3    H218216   2.814   7.167   4.297
 6087TIP3   OH218217   2.002   7.661   0.027
 6087TIP3    H118218   2.092   7.675   0.057
 6087TIP3    H218219   1.948   7.691   0.100
 6088TIP3   OH218220   6.373   6.313   2.907
 6088TIP3    H118221   6.439   6.380   2.891
 6088TIP3    H218222   6.351   6.322   2.999
 6089TIP3   OH218223   3.865   0.682   6.056
 6089TIP3    H118224   3.825   0.611   6.107
 6089TIP3    H218225   3.934   0.639   6.006
 6090TIP3   OH218226   8.304   3.484   4.654
 6090TIP3    H118227   8.241   3.553   4.673
 6090TIP3    H218228   8.254   3.403   4.663
 6091TIP3   OH218229   5.396   4.337   3.761
 6091TIP3    H118230   5.490   4.330   3.773
 6091TIP3    H218231   5.366   4.247   3.751
 6092TIP3   OH218232   8.105   3.416   6.070
 6092TIP3    H118233   8.179   3.474   6.052
 6092TIP3    H218234   8.125   3.336   6.022
 6093TIP3   OH218235   5.086   5.282   0.993
 6093TIP3    H118236   5.087   5.243   1.080
 6093TIP3    H218237   5.101   5.375   1.008
 6094TIP3   OH218238   5.710   6.280   5.660
 6094TIP3    H118239   5.771   6.333   5.713
 6094TIP3    H218240   5.677   6.214   5.721
 6095TIP3   OH218241   7.870   4.411   0.724
 6095TIP3    H118242   7.792   4.359   0.705
 6095TIP3    H218243   7.861   4.489   0.669
 6096TIP3   OH218244   7.800   6.287   4.587
 6096TIP3    H118245   7.847   6.237   4.521
 6096TIP3    H218246   7.865   6.348   4.622
 6097TIP3   OH218247   1.488   5.938   3.930
 6097TIP3    H118248   1.420   5.908   3.870
 6097TIP3    H218249   1.460   5.905   4.016
 6098TIP3   OH218250   1.033   6.938   2.844
 6098TIP3    H118251   0.963   6.961   2.906
 6098TIP3    H218252   0.986   6.900   2.769
 6099TIP3   OH218253   0.514   6.132   4.945
 6099TIP3    H118254   0.600   6.106   4.978
 6099TIP3    H218255   0.528   6.222   4.912
 6100TIP3   OH218256   7.557   5.738   3.973
 6100TIP3    H118257   7.465   5.756   3.954
 6100TIP3    H218258   7.602   5.820   3.955
 6101TIP3   OH218259   6.859   7.837   0.978
 6101TIP3    H118260   6.830   7.757   1.021
 6101TIP3    H218261   6.825   7.830   0.889
 6102TIP3   OH218262   3.248   0.418   1.458
 6102TIP3    H118263   3.168   0.366   1.469
 6102TIP3    H218264   3.260   0.462   1.543
 6103TIP3   OH218265   6.108   3.657   2.023
 6103TIP3    H118266   6.161   3.620   1.952
 6103TIP3    H218267   6.127   3.750   2.022
 6104TIP3   OH218268   0.651   0.736   1.105
 6104TIP3    H118269   0.612   0.659   1.065
 6104TIP3    H218270   0.644   0.721   1.199
 6105TIP3   OH218271   6.425   3.045   1.353
 6105TIP3    H118272   6.506   3.094   1.335
 6105TIP3    H218273   6.424   2.976   1.287
 6106TIP3   OH218274   3.933   5.542   1.775
 6106TIP3    H118275   3.908   5.632   1.795
 6106TIP3    H218276   4.018   5.531   1.819
 6107TIP3   OH218277   6.020   4.690   5.732
 6107TIP3    H118278   6.049   4.713   5.644
 6107TIP3    H218279   6.061   4.606   5.750
 6108TIP3   OH218280   0.918   1.902   1.515
 6108TIP3    H118281   0.896   1.961   1.443
 6108TIP3    H218282   0.952   1.959   1.584
 6109TIP3   OH218283   3.322   4.120   5.317
 6109TIP3    H118284   3.402   4.098   5.269
 6109TIP3    H218285   3.351   4.133   5.407
 6110TIP3   OH218286   6.040   2.553   5.526
 6110TIP3    H118287   6.028   2.533   5.434
 6110TIP3    H218288   5.964   2.513   5.570
 6111TIP3   OH218289   3.826   5.093   0.423
 6111TIP3    H118290   3.745   5.076   0.375
 6111TIP3    H218291   3.863   5.170   0.380
 6112TIP3   OH218292   4.696   4.791   4.561
 6112TIP3    H118293   4.606   4.824   4.561
 6112TIP3    H218294   4.723   4.795   4.469
 6113TIP3   OH218295   1.203   5.496   5.041
 6113TIP3    H118296   1.212   5.402   5.025
 6113TIP3    H218297   1.271   5.536   4.986
 6114TIP3   OH218298   7.581   4.989   6.164
 6114TIP3    H118299   7.586   5.050   6.238
 6114TIP3    H218300   7.635   4.914   6.191
 6115TIP3   OH218301   3.661   5.482   2.854
 6115TIP3    H118302   3.641   5.400   2.898
 6115TIP3    H218303   3.734   5.520   2.903
 6116TIP3   OH218304   1.881   3.005   4.309
 6116TIP3    H118305   1.930   3.000   4.391
 6116TIP3    H218306   1.862   2.914   4.286
 6117TIP3   OH218307   6.375   7.690   1.065
 6117TIP3    H118308   6.447   7.720   1.120
 6117TIP3    H218309   6.374   7.752   0.991
 6118TIP3   OH218310   5.035   0.422   5.000
 6118TIP3    H118311   5.030   0.382   4.913
 6118TIP3    H218312   4.950   0.402   5.040
 6119TIP3   OH218313   5.119   4.250   0.664
 6119TIP3    H118314   5.172   4.301   0.603
 6119TIP3    H218315   5.134   4.159   0.638
 6120TIP3   OH218316   1.161   1.559   4.257
 6120TIP3    H118317   1.229   1.620   4.229
 6120TIP3    H218318   1.174   1.549   4.351
 6121TIP3   OH218319   6.479   2.044   2.612
 6121TIP3    H118320   6.456   1.973   2.552
 6121TIP3    H218321   6.459   2.010   2.699
 6122TIP3   OH218322   6.871   3.919   4.047
 6122TIP3    H118323   6.838   3.830   4.034
 6122TIP3    H218324   6.959   3.917   4.010
 6123TIP3   OH218325   8.008   1.323   2.832
 6123TIP3    H118326   7.979   1.392   2.772
 6123TIP3    H218327   8.028   1.370   2.913
 6124TIP3   OH218328   5.392   7.305   1.174
 6124TIP3    H118329   5.399   7.281   1.082
 6124TIP3    H218330   5.309   7.353   1.180
 6125TIP3   OH218331   1.206   6.383   5.481
 6125TIP3    H118332   1.282   6.396   5.539
 6125TIP3    H218333   1.179   6.471   5.458
 6126TIP3   OH218334   5.655   1.189   0.381
 6126TIP3    H118335   5.631   1.136   0.305
 6126TIP3    H218336   5.578   1.243   0.398
 6127TIP3   OH218337   4.359   7.468   2.167
 6127TIP3    H118338   4.433   7.422   2.126
 6127TIP3    H218339   4.395   7.552   2.195
 6128TIP3   OH218340   3.531   2.247   1.933
 6128TIP3    H118341   3.534   2.297   2.015
 6128TIP3    H218342   3.488   2.306   1.871
 6129TIP3   OH218343   7.400   3.517   2.625
 6129TIP3    H118344   7.346   3.459   2.679
 6129TIP3    H218345   7.458   3.562   2.687
 6130TIP3   OH218346   6.951   7.013   2.049
 6130TIP3    H118347   7.019   6.946   2.046
 6130TIP3    H218348   6.953   7.046   2.140
 6131TIP3   OH218349   0.960   1.778   3.008
 6131TIP3    H118350   0.903   1.707   2.978
 6131TIP3    H218351   0.901   1.839   3.052
 6132TIP3   OH218352   3.318   3.659   5.535
 6132TIP3    H118353   3.292   3.688   5.448
 6132TIP3    H218354   3.354   3.572   5.522
 6133TIP3   OH218355   3.063   1.326   0.629
 6133TIP3    H118356   3.116   1.247   0.639
 6133TIP3    H218357   3.072   1.350   0.537
 6134TIP3   OH218358   6.239   2.423   3.082
 6134TIP3    H118359   6.303   2.393   3.146
 6134TIP3    H218360   6.193   2.495   3.126
 6135TIP3   OH218361   6.834   5.801   4.240
 6135TIP3    H118362   6.860   5.891   4.224
 6135TIP3    H218363   6.866   5.752   4.164
 6136TIP3   OH218364   0.435   5.193   0.390
 6136TIP3    H118365   0.500   5.161   0.327
 6136TIP3    H218366   0.435   5.288   0.379
 6137TIP3   OH218367   6.033   5.155   3.822
 6137TIP3    H118368   6.016   5.195   3.908
 6137TIP3    H218369   5.970   5.196   3.763
 6138TIP3   OH218370   1.458   5.484   6.423
 6138TIP3    H118371   1.517   5.506   6.351
 6138TIP3    H218372   1.503   5.415   6.472
 6139TIP3   OH218373   3.642   4.590   5.647
 6139TIP3    H118374   3.614   4.530   5.578
 6139TIP3    H218375   3.734   4.567   5.662
 6140TIP3   OH218376   6.663   3.742   1.691
 6140TIP3    H118377   6.625   3.766   1.776
 6140TIP3    H218378   6.643   3.817   1.634
 6141TIP3   OH218379   2.008   3.275   1.236
 6141TIP3    H118380   1.983   3.184   1.253
 6141TIP3    H218381   2.023   3.312   1.323
 6142TIP3   OH218382   5.996   6.481   2.881
 6142TIP3    H118383   5.977   6.480   2.787
 6142TIP3    H218384   5.963   6.566   2.911
 6143TIP3   OH218385   3.732   2.822   0.058
 6143TIP3    H118386   3.724   2.829  -0.037
 6143TIP3    H218387   3.743   2.912   0.089
 6144TIP3   OH218388   0.593   2.058   3.299
 6144TIP3    H118389   0.676   2.095   3.271
 6144TIP3    H218390   0.570   1.995   3.230
 6145TIP3   OH218391   1.303   7.157   5.844
 6145TIP3    H118392   1.212   7.184   5.828
 6145TIP3    H218393   1.308   7.068   5.810
 6146TIP3   OH218394   3.346   0.515   5.526
 6146TIP3    H118395   3.345   0.512   5.430
 6146TIP3    H218396   3.429   0.474   5.550
 6147TIP3   OH218397   0.124   1.064   2.163
 6147TIP3    H118398   0.133   1.125   2.236
 6147TIP3    H218399   0.106   1.118   2.087
 6148TIP3   OH218400   3.146   1.081   0.175
 6148TIP3    H118401   3.215   1.146   0.188
 6148TIP3    H218402   3.070   1.118   0.221
 6149TIP3   OH218403   5.788   2.747   2.278
 6149TIP3    H118404   5.848   2.754   2.203
 6149TIP3    H218405   5.711   2.798   2.252
 6150TIP3   OH218406   6.531   2.834   2.181
 6150TIP3    H118407   6.565   2.869   2.099
 6150TIP3    H218408   6.606   2.832   2.239
 6151TIP3   OH218409   0.625   1.858   3.906
 6151TIP3    H118410   0.674   1.927   3.863
 6151TIP3    H218411   0.637   1.875   4.000
 6152TIP3   OH218412   0.567   4.576   0.928
 6152TIP3    H118413   0.529   4.664   0.927
 6152TIP3    H218414   0.655   4.588   0.965
 6153TIP3   OH218415   3.007   6.189   3.259
 6153TIP3    H118416   2.934   6.132   3.235
 6153TIP3    H218417   3.051   6.208   3.177
 6154TIP3   OH218418   2.572   0.220   1.154
 6154TIP3    H118419   2.637   0.289   1.144
 6154TIP3    H218420   2.513   0.252   1.222
 6155TIP3   OH218421   5.883   2.326   0.282
 6155TIP3    H118422   5.803   2.277   0.300
 6155TIP3    H218423   5.952   2.259   0.279
 6156TIP3   OH218424   7.326   5.964   1.091
 6156TIP3    H118425   7.283   5.904   1.029
 6156TIP3    H218426   7.255   6.023   1.119
 6157TIP3   OH218427   5.559   5.413   4.925
 6157TIP3    H118428   5.489   5.442   4.867
 6157TIP3    H218429   5.533   5.443   5.012
 6158TIP3   OH218430   8.089   6.755   5.864
 6158TIP3    H118431   8.022   6.748   5.796
 6158TIP3    H218432   8.041   6.741   5.946
 6159TIP3   OH218433   1.556   6.433   6.716
 6159TIP3    H118434   1.526   6.505   6.661
 6159TIP3    H218435   1.476   6.386   6.740
 6160TIP3   OH218436   0.440   3.307   3.537
 6160TIP3    H118437   0.486   3.385   3.506
 6160TIP3    H218438   0.358   3.340   3.573
 6161TIP3   OH218439   6.209   1.628   3.638
 6161TIP3    H118440   6.116   1.607   3.647
 6161TIP3    H218441   6.224   1.698   3.702
 6162TIP3   OH218442   5.949   5.675   1.811
 6162TIP3    H118443   5.867   5.627   1.802
 6162TIP3    H218444   5.972   5.701   1.722
 6163TIP3   OH218445   4.426   0.426   3.627
 6163TIP3    H118446   4.486   0.479   3.575
 6163TIP3    H218447   4.433   0.338   3.591
 6164TIP3   OH218448   6.832   7.744   1.322
 6164TIP3    H118449   6.788   7.685   1.261
 6164TIP3    H218450   6.771   7.818   1.332
 6165TIP3   OH218451   5.812   1.407   5.640
 6165TIP3    H118452   5.830   1.379   5.730
 6165TIP3    H218453   5.822   1.502   5.643
 6166TIP3   OH218454   1.056   5.279   4.283
 6166TIP3    H118455   0.966   5.283   4.249
 6166TIP3    H218456   1.045   5.279   4.378
 6167TIP3   OH218457   4.506   6.203   0.744
 6167TIP3    H118458   4.433   6.175   0.689
 6167TIP3    H218459   4.485   6.169   0.831
 6168TIP3   OH218460   6.324   3.610   2.931
 6168TIP3    H118461   6.316   3.515   2.928
 6168TIP3    H218462   6.245   3.642   2.887
 6169TIP3   OH218463   1.524   2.314   1.518
 6169TIP3    H118464   1.596   2.269   1.562
 6169TIP3    H218465   1.562   2.350   1.439
 6170TIP3   OH218466   6.974   5.523   0.699
 6170TIP3    H118467   7.014   5.609   0.703
 6170TIP3    H218468   7.047   5.462   0.706
 6171TIP3   OH218469   3.024   1.076   5.352
 6171TIP3    H118470   3.024   1.157   5.403
 6171TIP3    H218471   2.939   1.076   5.308
 6172TIP3   OH218472   4.061   4.632   5.377
 6172TIP3    H118473   3.990   4.577   5.410
 6172TIP3    H218474   4.113   4.652   5.455
 6173TIP3   OH218475   4.420   4.265   6.180
 6173TIP3    H118476   4.399   4.261   6.273
 6173TIP3    H218477   4.509   4.230   6.173
 6174TIP3   OH218478   3.893   3.821   0.956
 6174TIP3    H118479   3.955   3.855   1.020
 6174TIP3    H218480   3.824   3.887   0.953
 6175TIP3   OH218481   3.715   0.788   2.249
 6175TIP3    H118482   3.726   0.726   2.177
 6175TIP3    H218483   3.664   0.860   2.210
 6176TIP3   OH218484   2.066   0.126   3.910
 6176TIP3    H118485   2.053   0.031   3.912
 6176TIP3    H218486   2.102   0.143   3.822
 6177TIP3   OH218487   3.008   6.721   1.948
 6177TIP3    H118488   3.024   6.652   2.013
 6177TIP3    H218489   3.037   6.682   1.865
 6178TIP3   OH218490   2.155   3.704   4.180
 6178TIP3    H118491   2.161   3.798   4.198
 6178TIP3    H218492   2.205   3.692   4.099
 6179TIP3   OH218493   4.947   4.147   0.993
 6179TIP3    H118494   4.900   4.068   0.964
 6179TIP3    H218495   4.893   4.219   0.962
 6180TIP3   OH218496   3.270   3.239   2.808
 6180TIP3    H118497   3.273   3.157   2.856
 6180TIP3    H218498   3.361   3.267   2.802
 6181TIP3   OH218499   0.107   5.048   1.502
 6181TIP3    H118500   0.089   5.012   1.589
 6181TIP3    H218501   0.150   5.132   1.518
 6182TIP3   OH218502   1.898   4.186   4.965
 6182TIP3    H118503   1.816   4.204   5.011
 6182TIP3    H218504   1.942   4.271   4.959
 6183TIP3   OH218505   4.942   4.556   2.027
 6183TIP3    H118506   5.026   4.600   2.041
 6183TIP3    H218507   4.924   4.566   1.933
 6184TIP3   OH218508   4.024   0.186   3.167
 6184TIP3    H118509   3.931   0.207   3.155
 6184TIP3    H218510   4.051   0.239   3.242
 6185TIP3   OH218511   7.985   6.914   0.203
 6185TIP3    H118512   7.923   6.906   0.130
 6185TIP3    H218513   8.021   7.002   0.194
 6186TIP3   OH218514   4.175   3.142   4.048
 6186TIP3    H118515   4.136   3.202   4.113
 6186TIP3    H218516   4.267   3.136   4.074
 6187TIP3   OH218517   7.718   2.229   2.629
 6187TIP3    H118518   7.630   2.231   2.592
 6187TIP3    H218519   7.768   2.291   2.576
 6188TIP3   OH218520   0.411   2.467   1.010
 6188TIP3    H118521   0.390   2.391   1.064
 6188TIP3    H218522   0.353   2.536   1.041
 6189TIP3   OH218523   5.744   4.803   3.941
 6189TIP3    H118524   5.708   4.726   3.897
 6189TIP3    H218525   5.819   4.770   3.990
 6190TIP3   OH218526   3.186   2.722   1.973
 6190TIP3    H118527   3.122   2.693   1.908
 6190TIP3    H218528   3.206   2.812   1.949
 6191TIP3   OH218529   6.933   1.516   0.560
 6191TIP3    H118530   6.980   1.505   0.643
 6191TIP3    H218531   6.970   1.597   0.522
 6192TIP3   OH218532   1.294   3.095   3.351
 6192TIP3    H118533   1.378   3.076   3.392
 6192TIP3    H218534   1.317   3.143   3.271
 6193TIP3   OH218535   5.582   6.833   4.875
 6193TIP3    H118536   5.571   6.777   4.798
 6193TIP3    H218537   5.667   6.874   4.863
 6194TIP3   OH218538   5.073   2.371   1.520
 6194TIP3    H118539   5.019   2.357   1.598
 6194TIP3    H218540   5.039   2.452   1.482
 6195TIP3   OH218541   2.983   7.765   6.631
 6195TIP3    H118542   2.944   7.712   6.701
 6195TIP3    H218543   3.044   7.823   6.676
 6196TIP3   OH218544   7.527   1.016   2.450
 6196TIP3    H118545   7.553   1.087   2.509
 6196TIP3    H218546   7.431   1.022   2.446
 6197TIP3   OH218547   1.360   2.414   0.109
 6197TIP3    H118548   1.379   2.447   0.197
 6197TIP3    H218549   1.311   2.333   0.124
 6198TIP3   OH218550   6.903   3.500   4.396
 6198TIP3    H118551   6.906   3.509   4.491
 6198TIP3    H218552   6.850   3.422   4.381
 6199TIP3   OH218553   4.165   3.055   5.209
 6199TIP3    H118554   4.157   2.964   5.238
 6199TIP3    H218555   4.159   3.106   5.289
 6200TIP3   OH218556   2.134   1.210   4.451
 6200TIP3    H118557   2.165   1.128   4.412
 6200TIP3    H218558   2.131   1.192   4.545
 6201TIP3   OH218559   4.249   0.346   6.148
 6201TIP3    H118560   4.281   0.418   6.094
 6201TIP3    H218561   4.265   0.268   6.094
 6202TIP3   OH218562   5.665   4.294   4.875
 6202TIP3    H118563   5.616   4.306   4.956
 6202TIP3    H218564   5.718   4.216   4.892
 6203TIP3   OH218565   2.749   0.813   2.504
 6203TIP3    H118566   2.753   0.793   2.411
 6203TIP3    H218567   2.656   0.802   2.527
 6204TIP3   OH218568   2.948   3.990   5.478
 6204TIP3    H118569   2.965   4.079   5.447
 6204TIP3    H218570   2.921   4.002   5.569
 6205TIP3   OH218571   7.108   5.544   2.357
 6205TIP3    H118572   7.181   5.493   2.320
 6205TIP3    H218573   7.107   5.624   2.305
 6206TIP3   OH218574   0.765   2.350   4.534
 6206TIP3    H118575   0.784   2.443   4.521
 6206TIP3    H218576   0.831   2.304   4.482
 6207TIP3   OH218577   2.250   7.661   0.839
 6207TIP3    H118578   2.243   7.756   0.831
 6207TIP3    H218579   2.186   7.638   0.906
 6208TIP3   OH218580   6.177   7.181   5.071
 6208TIP3    H118581   6.103   7.238   5.092
 6208TIP3    H218582   6.245   7.204   5.134
 6209TIP3   OH218583   1.491   5.319   4.781
 6209TIP3    H118584   1.576   5.288   4.813
 6209TIP3    H218585   1.512   5.397   4.731
 6210TIP3   OH218586   3.306   2.682   5.395
 6210TIP3    H118587   3.227   2.629   5.407
 6210TIP3    H218588   3.368   2.622   5.354
 6211TIP3   OH218589   7.868   5.381   2.906
 6211TIP3    H118590   7.814   5.457   2.923
 6211TIP3    H218591   7.909   5.399   2.821
 6212TIP3   OH218592   1.170   3.041   2.607
 6212TIP3    H118593   1.148   3.048   2.514
 6212TIP3    H218594   1.228   2.965   2.612
 6213TIP3   OH218595   2.909   7.214   6.510
 6213TIP3    H118596   2.846   7.243   6.576
 6213TIP3    H218597   2.992   7.252   6.539
 6214TIP3   OH218598   5.276   6.041   2.935
 6214TIP3    H118599   5.246   6.116   2.986
 6214TIP3    H218600   5.335   6.079   2.869
 6215TIP3   OH218601   2.558   6.762   5.825
 6215TIP3    H118602   2.536   6.702   5.754
 6215TIP3    H218603   2.514   6.843   5.802
 6216TIP3   OH218604   4.242   0.520   0.735
 6216TIP3    H118605   4.290   0.595   0.768
 6216TIP3    H218606   4.284   0.444   0.777
 6217TIP3   OH218607   1.745   7.330   5.386
 6217TIP3    H118608   1.665   7.334   5.334
 6217TIP3    H218609   1.751   7.239   5.415
 6218TIP3   OH218610   8.113   6.764  -0.003
 6218TIP3    H118611   8.089   6.674   0.019
 6218TIP3    H218612   8.068   6.818   0.062
 6219TIP3   OH218613   5.952   3.102   0.563
 6219TIP3    H118614   5.927   3.135   0.477
 6219TIP3    H218615   5.908   3.018   0.571
 6220TIP3   OH218616   2.053   3.210   6.645
 6220TIP3    H118617   2.143   3.224   6.614
 6220TIP3    H218618   1.998   3.234   6.570
 6221TIP3   OH218619   7.150   4.938   5.080
 6221TIP3    H118620   7.153   5.009   5.015
 6221TIP3    H218621   7.241   4.911   5.091
 6222TIP3   OH218622   8.310   2.225   5.000
 6222TIP3    H118623   8.217   2.201   5.002
 6222TIP3    H218624   8.338   2.223   5.091
 6223TIP3   OH218625   0.513   2.069   2.495
 6223TIP3    H118626   0.425   2.092   2.463
 6223TIP3    H218627   0.571   2.128   2.447
 6224TIP3   OH218628   5.140   0.283   0.977
 6224TIP3    H118629   5.095   0.293   1.061
 6224TIP3    H218630   5.153   0.373   0.946
 6225TIP3   OH218631   2.461   3.579   3.703
 6225TIP3    H118632   2.460   3.587   3.607
 6225TIP3    H218633   2.470   3.670   3.734
 6226TIP3   OH218634   5.985   7.159   0.959
 6226TIP3    H118635   5.903   7.192   0.995
 6226TIP3    H218636   5.988   7.194   0.870
 6227TIP3   OH218637   3.505   6.142   5.360
 6227TIP3    H118638   3.507   6.136   5.264
 6227TIP3    H218639   3.436   6.082   5.387
 6228TIP3   OH218640   4.158   6.204   5.473
 6228TIP3    H118641   4.144   6.273   5.539
 6228TIP3    H218642   4.252   6.202   5.460
 6229TIP3   OH218643   5.647   3.211   5.903
 6229TIP3    H118644   5.622   3.119   5.891
 6229TIP3    H218645   5.603   3.238   5.984
 6230TIP3   OH218646   7.557   6.186   4.474
 6230TIP3    H118647   7.553   6.096   4.508
 6230TIP3    H218648   7.641   6.220   4.507
 6231TIP3   OH218649   0.427   0.899   0.014
 6231TIP3    H118650   0.441   0.876  -0.078
 6231TIP3    H218651   0.497   0.852   0.061
 6232TIP3   OH218652   0.223   6.462   5.528
 6232TIP3    H118653   0.187   6.485   5.614
 6232TIP3    H218654   0.153   6.485   5.467
 6233TIP3   OH218655   7.993   4.563   1.171
 6233TIP3    H118656   8.026   4.635   1.118
 6233TIP3    H218657   7.936   4.514   1.112
 6234TIP3   OH218658   8.124   3.180   3.883
 6234TIP3    H118659   8.181   3.114   3.925
 6234TIP3    H218660   8.039   3.136   3.876
 6235TIP3   OH218661   8.297   6.491   0.153
 6235TIP3    H118662   8.209   6.463   0.130
 6235TIP3    H218663   8.346   6.409   0.165
 6236TIP3   OH218664   0.845   2.815   1.106
 6236TIP3    H118665   0.915   2.756   1.077
 6236TIP3    H218666   0.810   2.775   1.185
 6237TIP3   OH218667   4.690   0.271   1.648
 6237TIP3    H118668   4.717   0.180   1.657
 6237TIP3    H218669   4.661   0.296   1.736
 6238TIP3   OH218670   4.168   4.849   5.218
 6238TIP3    H118671   4.126   4.839   5.133
 6238TIP3    H218672   4.158   4.763   5.260
 6239TIP3   OH218673   4.334   7.243   4.122
 6239TIP3    H118674   4.360   7.251   4.030
 6239TIP3    H218675   4.415   7.258   4.170
 6240TIP3   OH218676   5.991   7.641   4.080
 6240TIP3    H118677   5.953   7.613   3.996
 6240TIP3    H218678   5.994   7.561   4.132
 6241TIP3   OH218679   5.070   2.920   4.727
 6241TIP3    H118680   4.976   2.932   4.737
 6241TIP3    H218681   5.094   2.978   4.654
 6242TIP3   OH218682   5.571   1.873   5.612
 6242TIP3    H118683   5.593   1.900   5.701
 6242TIP3    H218684   5.523   1.791   5.622
 6243TIP3   OH218685   7.033   3.008   5.157
 6243TIP3    H118686   7.059   3.080   5.099
 6243TIP3    H218687   7.103   3.004   5.222
 6244TIP3   OH218688   0.767   7.834   0.403
 6244TIP3    H118689   0.687   7.790   0.377
 6244TIP3    H218690   0.812   7.771   0.460
 6245TIP3   OH218691   3.060   6.575   4.717
 6245TIP3    H118692   2.988   6.560   4.778
 6245TIP3    H218693   3.020   6.616   4.641
 6246TIP3   OH218694   2.137   0.287   3.592
 6246TIP3    H118695   2.209   0.346   3.616
 6246TIP3    H218696   2.087   0.336   3.527
 6247TIP3   OH218697   4.687   3.438   2.875
 6247TIP3    H118698   4.603   3.476   2.901
 6247TIP3    H218699   4.668   3.390   2.794
 6248TIP3   OH218700   0.550   4.261   6.399
 6248TIP3    H118701   0.517   4.347   6.422
 6248TIP3    H218702   0.593   4.273   6.314
 6249TIP3   OH218703   5.144   6.151   0.893
 6249TIP3    H118704   5.229   6.192   0.899
 6249TIP3    H218705   5.139   6.093   0.970
 6250TIP3   OH218706   0.703   2.689   4.724
 6250TIP3    H118707   0.683   2.730   4.808
 6250TIP3    H218708   0.782   2.636   4.741
 6251TIP3   OH218709   5.530   0.427   5.797
 6251TIP3    H118710   5.444   0.412   5.836
 6251TIP3    H218711   5.511   0.449   5.706
 6252TIP3   OH218712   6.657   1.816   6.335
 6252TIP3    H118713   6.595   1.889   6.343
 6252TIP3    H218714   6.677   1.812   6.242
 6253TIP3   OH218715   1.521   3.737   4.884
 6253TIP3    H118716   1.572   3.673   4.934
 6253TIP3    H218717   1.552   3.727   4.794
 6254TIP3   OH218718   1.557   7.517   3.273
 6254TIP3    H118719   1.544   7.611   3.284
 6254TIP3    H218720   1.528   7.499   3.184
 6255TIP3   OH218721   2.914   7.111   0.549
 6255TIP3    H118722   2.854   7.092   0.622
 6255TIP3    H218723   3.001   7.097   0.586
 6256TIP3   OH218724   2.104   2.880   1.018
 6256TIP3    H118725   2.180   2.823   1.013
 6256TIP3    H218726   2.046   2.837   1.081
 6257TIP3   OH218727   0.866   0.562   5.302
 6257TIP3    H118728   0.920   0.486   5.324
 6257TIP3    H218729   0.928   0.627   5.270
 6258TIP3   OH218730   3.839   7.311   1.212
 6258TIP3    H118731   3.921   7.282   1.253
 6258TIP3    H218732   3.845   7.277   1.122
 6259TIP3   OH218733   5.552   4.285   5.127
 6259TIP3    H118734   5.614   4.257   5.194
 6259TIP3    H218735   5.537   4.207   5.074
 6260TIP3   OH218736   1.804   7.726   3.373
 6260TIP3    H118737   1.755   7.786   3.317
 6260TIP3    H218738   1.826   7.652   3.316
 6261TIP3   OH218739   2.355   3.697   2.580
 6261TIP3    H118740   2.339   3.615   2.627
 6261TIP3    H218741   2.402   3.752   2.642
 6262TIP3   OH218742   0.103   1.150   1.043
 6262TIP3    H118743   0.043   1.174   0.972
 6262TIP3    H218744   0.086   1.216   1.111
 6263TIP3   OH218745   4.925   1.743   5.293
 6263TIP3    H118746   5.003   1.760   5.240
 6263TIP3    H218747   4.959   1.710   5.376
 6264TIP3   OH218748   8.155   4.164   3.804
 6264TIP3    H118749   8.218   4.195   3.739
 6264TIP3    H218750   8.071   4.163   3.758
 6265TIP3   OH218751   5.630   0.645   2.076
 6265TIP3    H118752   5.712   0.640   2.124
 6265TIP3    H218753   5.573   0.580   2.118
 6266TIP3   OH218754   6.414   2.413   3.302
 6266TIP3    H118755   6.487   2.466   3.335
 6266TIP3    H218756   6.451   2.326   3.291
 6267TIP3   OH218757   0.033   3.553   1.099
 6267TIP3    H118758   0.092   3.568   1.025
 6267TIP3    H218759   0.076   3.484   1.150
 6268TIP3   OH218760   5.625   0.262   0.689
 6268TIP3    H118761   5.601   0.169   0.700
 6268TIP3    H218762   5.548   0.310   0.720
 6269TIP3   OH218763   1.687   3.515   0.919
 6269TIP3    H118764   1.616   3.502   0.981
 6269TIP3    H218765   1.651   3.491   0.834
 6270TIP3   OH218766   1.708   0.313   2.226
 6270TIP3    H118767   1.731   0.247   2.161
 6270TIP3    H218768   1.693   0.393   2.175
 6271TIP3   OH218769   8.292   4.779   2.202
 6271TIP3    H118770   8.219   4.765   2.141
 6271TIP3    H218771   8.265   4.854   2.254
 6272TIP3   OH218772   2.458   6.584   5.006
 6272TIP3    H118773   2.548   6.600   5.033
 6272TIP3    H218774   2.416   6.547   5.084
 6273TIP3   OH218775   4.232   3.353   0.508
 6273TIP3    H118776   4.288   3.358   0.586
 6273TIP3    H218777   4.285   3.307   0.443
 6274TIP3   OH218778   7.364   5.597   3.390
 6274TIP3    H118779   7.365   5.579   3.484
 6274TIP3    H218780   7.301   5.535   3.355
 6275TIP3   OH218781   7.578   5.480   4.145
 6275TIP3    H118782   7.487   5.450   4.141
 6275TIP3    H218783   7.577   5.565   4.100
 6276TIP3   OH218784   0.764   1.987   1.304
 6276TIP3    H118785   0.752   1.919   1.237
 6276TIP3    H218786   0.745   2.069   1.259
 6277TIP3   OH218787   2.407   4.755   2.318
 6277TIP3    H118788   2.342   4.808   2.365
 6277TIP3    H218789   2.405   4.670   2.361
 6278TIP3   OH218790   2.766   2.433   3.953
 6278TIP3    H118791   2.740   2.485   4.029
 6278TIP3    H218792   2.719   2.350   3.963
 6279TIP3   OH218793   4.545   7.347   0.645
 6279TIP3    H118794   4.454   7.359   0.619
 6279TIP3    H218795   4.550   7.255   0.674
 6280TIP3   OH218796   7.776   3.967   1.730
 6280TIP3    H118797   7.763   3.985   1.637
 6280TIP3    H218798   7.821   3.882   1.732
 6281TIP3   OH218799   4.169   7.631   0.432
 6281TIP3    H118800   4.167   7.726   0.421
 6281TIP3    H218801   4.158   7.596   0.343
 6282TIP3   OH218802   1.620   4.000   4.991
 6282TIP3    H118803   1.647   3.911   4.967
 6282TIP3    H218804   1.538   4.014   4.942
 6283TIP3   OH218805   0.879   2.278   2.097
 6283TIP3    H118806   0.932   2.355   2.116
 6283TIP3    H218807   0.929   2.205   2.133
 6284TIP3   OH218808   1.449   0.643   0.902
 6284TIP3    H118809   1.507   0.637   0.977
 6284TIP3    H218810   1.389   0.714   0.924
 6285TIP3   OH218811   2.240   5.732   4.859
 6285TIP3    H118812   2.267   5.650   4.817
 6285TIP3    H218813   2.201   5.783   4.787
 6286TIP3   OH218814   5.017   7.415   2.067
 6286TIP3    H118815   5.002   7.423   1.973
 6286TIP3    H218816   4.930   7.417   2.106
 6287TIP3   OH218817   5.387   4.453   0.182
 6287TIP3    H118818   5.446   4.434   0.109
 6287TIP3    H218819   5.443   4.456   0.259
 6288TIP3   OH218820   0.463   1.344   1.512
 6288TIP3    H118821   0.417   1.262   1.499
 6288TIP3    H218822   0.556   1.320   1.516
 6289TIP3   OH218823   7.539   0.793   6.726
 6289TIP3    H118824   7.542   0.829   6.814
 6289TIP3    H218825   7.458   0.744   6.722
 6290TIP3   OH218826   7.834   0.124   1.476
 6290TIP3    H118827   7.887   0.075   1.539
 6290TIP3    H218828   7.749   0.081   1.476
 6291TIP3   OH218829   7.476   0.774   4.185
 6291TIP3    H118830   7.510   0.861   4.165
 6291TIP3    H218831   7.548   0.715   4.165
 6292TIP3   OH218832   2.034   0.295   4.120
 6292TIP3    H118833   2.053   0.247   4.040
 6292TIP3    H218834   2.075   0.381   4.107
 6293TIP3   OH218835   3.763   5.132   1.167
 6293TIP3    H118836   3.730   5.166   1.250
 6293TIP3    H218837   3.858   5.142   1.173
 6294TIP3   OH218838   4.976   2.037   0.639
 6294TIP3    H118839   5.017   1.977   0.577
 6294TIP3    H218840   5.049   2.090   0.673
 6295TIP3   OH218841   7.796   6.104   3.706
 6295TIP3    H118842   7.862   6.105   3.775
 6295TIP3    H218843   7.805   6.018   3.665
 6296TIP3   OH218844   5.193   7.564   5.323
 6296TIP3    H118845   5.142   7.625   5.270
 6296TIP3    H218846   5.130   7.495   5.345
 6297TIP3   OH218847   2.043   7.801   0.524
 6297TIP3    H118848   2.101   7.846   0.462
 6297TIP3    H218849   2.095   7.728   0.557
 6298TIP3   OH218850   7.209   7.450   6.617
 6298TIP3    H118851   7.289   7.503   6.610
 6298TIP3    H218852   7.152   7.482   6.548
 6299TIP3   OH218853   5.676   3.551   0.295
 6299TIP3    H118854   5.612   3.481   0.282
 6299TIP3    H218855   5.657   3.614   0.226
 6300TIP3   OH218856   6.274   4.169   5.327
 6300TIP3    H118857   6.239   4.092   5.373
 6300TIP3    H218858   6.342   4.133   5.269
 6301TIP3   OH218859   6.116   3.977   0.860
 6301TIP3    H118860   6.057   3.977   0.784
 6301TIP3    H218861   6.126   3.885   0.882
 6302TIP3   OH218862   4.640   1.748   3.702
 6302TIP3    H118863   4.566   1.715   3.652
 6302TIP3    H218864   4.642   1.694   3.781
 6303TIP3   OH218865   6.273   2.313   3.510
 6303TIP3    H118866   6.346   2.321   3.448
 6303TIP3    H218867   6.244   2.403   3.524
 6304TIP3   OH218868   3.310   4.370   2.656
 6304TIP3    H118869   3.306   4.275   2.666
 6304TIP3    H218870   3.243   4.390   2.590
 6305TIP3   OH218871   6.739   1.297   0.207
 6305TIP3    H118872   6.736   1.320   0.300
 6305TIP3    H218873   6.763   1.204   0.207
 6306TIP3   OH218874   4.527   7.755   6.518
 6306TIP3    H118875   4.524   7.798   6.432
 6306TIP3    H218876   4.446   7.705   6.523
 6307TIP3   OH218877   3.013   2.553   0.298
 6307TIP3    H118878   2.976   2.623   0.244
 6307TIP3    H218879   3.105   2.577   0.307
 6308TIP3   OH218880   5.087   1.570   0.513
 6308TIP3    H118881   5.097   1.570   0.608
 6308TIP3    H218882   5.099   1.479   0.487
 6309TIP3   OH218883   3.374   2.039   6.771
 6309TIP3    H118884   3.450   2.057   6.716
 6309TIP3    H218885   3.333   1.962   6.732
 6310TIP3   OH218886   7.838   6.097   0.318
 6310TIP3    H118887   7.814   6.010   0.350
 6310TIP3    H218888   7.919   6.119   0.365
 6311TIP3   OH218889   4.678   4.176   4.287
 6311TIP3    H118890   4.755   4.192   4.340
 6311TIP3    H218891   4.635   4.101   4.327
 6312TIP3   OH218892   5.433   2.695   4.637
 6312TIP3    H118893   5.390   2.745   4.567
 6312TIP3    H218894   5.482   2.760   4.687
 6313TIP3   OH218895   1.181   2.273   0.292
 6313TIP3    H118896   1.163   2.318   0.374
 6313TIP3    H218897   1.223   2.191   0.318
 6314TIP3   OH218898   6.514   4.728   6.470
 6314TIP3    H118899   6.492   4.648   6.421
 6314TIP3    H218900   6.554   4.696   6.550
 6315TIP3   OH218901   2.466   4.504   2.175
 6315TIP3    H118902   2.448   4.507   2.269
 6315TIP3    H218903   2.499   4.416   2.160
 6316TIP3   OH218904   0.650   5.521   3.789
 6316TIP3    H118905   0.711   5.594   3.797
 6316TIP3    H218906   0.677   5.458   3.855
 6317TIP3   OH218907   4.922   4.131   5.281
 6317TIP3    H118908   4.985   4.177   5.226
 6317TIP3    H218909   4.843   4.185   5.279
 6318TIP3   OH218910   4.791   6.392   1.445
 6318TIP3    H118911   4.882   6.377   1.470
 6318TIP3    H218912   4.773   6.324   1.380
 6319TIP3   OH218913   3.934   6.097   0.128
 6319TIP3    H118914   3.921   6.179   0.080
 6319TIP3    H218915   4.014   6.060   0.093
 6320TIP3   OH218916   7.313   6.928   0.454
 6320TIP3    H118917   7.338   7.006   0.405
 6320TIP3    H218918   7.373   6.926   0.529
 6321TIP3   OH218919   1.976   2.693   3.172
 6321TIP3    H118920   1.926   2.636   3.230
 6321TIP3    H218921   2.067   2.673   3.191
 6322TIP3   OH218922   4.230   2.805   6.531
 6322TIP3    H118923   4.240   2.757   6.614
 6322TIP3    H218924   4.291   2.878   6.539
 6323TIP3   OH218925   1.116   6.847   2.066
 6323TIP3    H118926   1.031   6.805   2.082
 6323TIP3    H218927   1.120   6.917   2.131
 6324TIP3   OH218928   3.048   2.971   5.087
 6324TIP3    H118929   3.015   2.891   5.128
 6324TIP3    H218930   2.997   2.979   5.006
 6325TIP3   OH218931   7.585   2.256   5.287
 6325TIP3    H118932   7.625   2.340   5.264
 6325TIP3    H218933   7.514   2.245   5.224
 6326TIP3   OH218934   4.245   1.937   6.402
 6326TIP3    H118935   4.335   1.908   6.391
 6326TIP3    H218936   4.249   2.002   6.472
 6327TIP3   OH218937   2.026   6.953   1.832
 6327TIP3    H118938   1.976   6.942   1.751
 6327TIP3    H218939   1.971   6.912   1.899
 6328TIP3   OH218940   7.976   4.040   0.998
 6328TIP3    H118941   7.905   3.981   1.021
 6328TIP3    H218942   7.942   4.092   0.925
 6329TIP3   OH218943   0.681   3.796   6.023
 6329TIP3    H118944   0.687   3.749   6.106
 6329TIP3    H218945   0.615   3.864   6.038
 6330TIP3   OH218946   1.284   2.298   4.342
 6330TIP3    H118947   1.270   2.389   4.315
 6330TIP3    H218948   1.277   2.248   4.260
 6331TIP3   OH218949   4.832   1.171   5.378
 6331TIP3    H118950   4.763   1.142   5.437
 6331TIP3    H218951   4.832   1.266   5.386
 6332TIP3   OH218952   4.177   2.562   1.897
 6332TIP3    H118953   4.117   2.508   1.949
 6332TIP3    H218954   4.127   2.640   1.875
 6333TIP3   OH218955   3.370   5.414   2.570
 6333TIP3    H118956   3.341   5.418   2.661
 6333TIP3    H218957   3.444   5.354   2.570
 6334TIP3   OH218958   5.566   7.484   1.303
 6334TIP3    H118959   5.534   7.415   1.244
 6334TIP3    H218960   5.504   7.484   1.375
 6335TIP3   OH218961   3.688   5.451   6.320
 6335TIP3    H118962   3.723   5.445   6.230
 6335TIP3    H218963   3.618   5.386   6.322
 6336TIP3   OH218964   1.448   0.853   3.229
 6336TIP3    H118965   1.534   0.867   3.190
 6336TIP3    H218966   1.465   0.848   3.323
 6337TIP3   OH218967   4.240   7.747   1.866
 6337TIP3    H118968   4.290   7.819   1.904
 6337TIP3    H218969   4.281   7.731   1.781
 6338TIP3   OH218970   3.727   2.789   1.778
 6338TIP3    H118971   3.659   2.846   1.740
 6338TIP3    H218972   3.680   2.735   1.841
 6339TIP3   OH218973   7.426   2.521   3.708
 6339TIP3    H118974   7.401   2.497   3.619
 6339TIP3    H218975   7.370   2.468   3.764
 6340TIP3   OH218976   7.604   7.321   0.744
 6340TIP3    H118977   7.555   7.285   0.818
 6340TIP3    H218978   7.695   7.321   0.774
 6341TIP3   OH218979   1.855   4.111   3.392
 6341TIP3    H118980   1.814   4.027   3.415
 6341TIP3    H218981   1.929   4.119   3.451
 6342TIP3   OH218982   2.649   5.285   1.959
 6342TIP3    H118983   2.719   5.236   2.003
 6342TIP3    H218984   2.669   5.277   1.866
 6343TIP3   OH218985   3.006   0.404   0.980
 6343TIP3    H118986   2.922   0.450   0.978
 6343TIP3    H218987   2.997   0.334   0.916
 6344TIP3   OH218988   7.006   6.394   0.153
 6344TIP3    H118989   7.072   6.334   0.187
 6344TIP3    H218990   6.968   6.435   0.231
 6345TIP3   OH218991   7.011   0.136   6.646
 6345TIP3    H118992   7.015   0.042   6.635
 6345TIP3    H218993   7.072   0.171   6.581
 6346TIP3   OH218994   6.112   5.410   6.231
 6346TIP3    H118995   6.138   5.319   6.244
 6346TIP3    H218996   6.138   5.430   6.140
 6347TIP3   OH218997   2.307   3.636   6.227
 6347TIP3    H118998   2.325   3.655   6.135
 6347TIP3    H218999   2.380   3.677   6.275
 6348TIP3   OH219000   0.095   0.552   0.377
 6348TIP3    H119001   0.160   0.621   0.382
 6348TIP3    H219002   0.145   0.474   0.352
 6349TIP3   OH219003   0.360   3.319   3.911
 6349TIP3    H119004   0.270   3.296   3.887
 6349TIP3    H219005   0.356   3.336   4.005
 6350TIP3   OH219006   0.441   3.813   5.730
 6350TIP3    H119007   0.391   3.840   5.653
 6350TIP3    H219008   0.451   3.718   5.720
 6351TIP3   OH219009   4.404   1.343   1.981
 6351TIP3    H119010   4.411   1.376   1.891
 6351TIP3    H219011   4.428   1.250   1.974
 6352TIP3   OH219012   4.069   5.102   1.334
 6352TIP3    H119013   3.980   5.068   1.342
 6352TIP3    H219014   4.093   5.085   1.244
 6353TIP3   OH219015   1.913   4.142   0.223
 6353TIP3    H119016   1.828   4.106   0.250
 6353TIP3    H219017   1.902   4.160   0.129
 6354TIP3   OH219018   6.884   4.793   5.036
 6354TIP3    H119019   6.928   4.840   5.107
 6354TIP3    H219020   6.844   4.717   5.079
 6355TIP3   OH219021   0.678   4.086   5.277
 6355TIP3    H119022   0.593   4.046   5.294
 6355TIP3    H219023   0.723   4.085   5.361
 6356TIP3   OH219024   5.445   4.851   5.765
 6356TIP3    H119025   5.349   4.852   5.767
 6356TIP3    H219026   5.468   4.874   5.675
 6357TIP3   OH219027   1.757   4.924   1.129
 6357TIP3    H119028   1.831   4.866   1.146
 6357TIP3    H219029   1.774   4.957   1.040
 6358TIP3   OH219030   5.031   6.032   0.097
 6358TIP3    H119031   5.041   6.128   0.099
 6358TIP3    H219032   4.946   6.017   0.138
 6359TIP3   OH219033   5.375   0.112   4.982
 6359TIP3    H119034   5.460   0.113   5.027
 6359TIP3    H219035   5.396   0.084   4.893
 6360TIP3   OH219036   3.735   2.548   3.037
 6360TIP3    H119037   3.703   2.512   3.120
 6360TIP3    H219038   3.716   2.480   2.972
 6361TIP3   OH219039   6.161   6.352   0.263
 6361TIP3    H119040   6.180   6.338   0.356
 6361TIP3    H219041   6.175   6.267   0.223
 6362TIP3   OH219042   4.152   3.568   6.273
 6362TIP3    H119043   4.235   3.526   6.297
 6362TIP3    H219044   4.153   3.651   6.321
 6363TIP3   OH219045   7.027   1.777   0.509
 6363TIP3    H119046   7.017   1.841   0.580
 6363TIP3    H219047   7.098   1.812   0.456
 6364TIP3   OH219048   1.527   0.675   5.261
 6364TIP3    H119049   1.522   0.760   5.305
 6364TIP3    H219050   1.454   0.625   5.297
 6365TIP3   OH219051   6.472   5.705   0.555
 6365TIP3    H119052   6.489   5.617   0.522
 6365TIP3    H219053   6.558   5.749   0.550
 6366TIP3   OH219054   7.436   0.257   4.074
 6366TIP3    H119055   7.464   0.224   4.160
 6366TIP3    H219056   7.341   0.250   4.076
 6367TIP3   OH219057   5.819   3.353   5.305
 6367TIP3    H119058   5.902   3.310   5.283
 6367TIP3    H219059   5.788   3.388   5.221
 6368TIP3   OH219060   4.555   5.945   5.109
 6368TIP3    H119061   4.510   5.919   5.029
 6368TIP3    H219062   4.613   6.016   5.083
 6369TIP3   OH219063   4.857   7.022   3.995
 6369TIP3    H119064   4.866   6.972   3.914
 6369TIP3    H219065   4.865   6.958   4.065
 6370TIP3   OH219066   2.588   7.312   3.876
 6370TIP3    H119067   2.667   7.355   3.909
 6370TIP3    H219068   2.558   7.368   3.804
 6371TIP3   OH219069   5.092   0.434   0.515
 6371TIP3    H119070   5.040   0.400   0.588
 6371TIP3    H219071   5.166   0.374   0.508
 6372TIP3   OH219072   4.151   0.273   3.416
 6372TIP3    H119073   4.192   0.344   3.365
 6372TIP3    H219074   4.225   0.221   3.447
 6373TIP3   OH219075   4.232   0.203   2.726
 6373TIP3    H119076   4.163   0.151   2.767
 6373TIP3    H219077   4.251   0.158   2.644
 6374TIP3   OH219078   4.342   0.353   3.995
 6374TIP3    H119079   4.304   0.282   3.943
 6374TIP3    H219080   4.269   0.385   4.048
 6375TIP3   OH219081   1.623   2.273   0.396
 6375TIP3    H119082   1.700   2.216   0.390
 6375TIP3    H219083   1.574   2.256   0.316
 6376TIP3   OH219084   0.372   1.035   5.626
 6376TIP3    H119085   0.299   1.094   5.609
 6376TIP3    H219086   0.424   1.037   5.546
 6377TIP3   OH219087   5.988   0.409   3.904
 6377TIP3    H119088   6.010   0.418   3.997
 6377TIP3    H219089   5.911   0.352   3.904
 6378TIP3   OH219090   4.247   0.719   0.974
 6378TIP3    H119091   4.244   0.772   0.894
 6378TIP3    H219092   4.331   0.743   1.014
 6379TIP3   OH219093   0.790   6.380   2.031
 6379TIP3    H119094   0.796   6.448   1.963
 6379TIP3    H219095   0.834   6.304   1.993
 6380TIP3   OH219096   3.254   1.608   2.257
 6380TIP3    H119097   3.180   1.554   2.281
 6380TIP3    H219098   3.325   1.546   2.241
 6381TIP3   OH219099   4.282   3.976   0.898
 6381TIP3    H119100   4.216   3.910   0.875
 6381TIP3    H219101   4.312   4.011   0.814
 6382TIP3   OH219102   3.887   3.182   5.410
 6382TIP3    H119103   3.801   3.140   5.414
 6382TIP3    H219104   3.950   3.110   5.420
 6383TIP3   OH219105   2.472   2.361   5.163
 6383TIP3    H119106   2.427   2.435   5.204
 6383TIP3    H219107   2.431   2.354   5.076
 6384TIP3   OH219108   6.649   3.514   5.321
 6384TIP3    H119109   6.583   3.445   5.315
 6384TIP3    H219110   6.729   3.468   5.347
 6385TIP3   OH219111   2.480   1.692   0.493
 6385TIP3    H119112   2.472   1.636   0.416
 6385TIP3    H219113   2.573   1.689   0.516
 6386TIP3   OH219114   0.213   6.480   2.461
 6386TIP3    H119115   0.207   6.562   2.412
 6386TIP3    H219116   0.125   6.442   2.455
 6387TIP3   OH219117   0.530   6.590   5.635
 6387TIP3    H119118   0.483   6.660   5.680
 6387TIP3    H219119   0.524   6.613   5.542
 6388TIP3   OH219120   6.666   1.012   0.954
 6388TIP3    H119121   6.664   0.971   1.041
 6388TIP3    H219122   6.702   0.945   0.896
 6389TIP3   OH219123   6.605   5.754   1.675
 6389TIP3    H119124   6.533   5.816   1.690
 6389TIP3    H219125   6.561   5.670   1.659
 6390TIP3   OH219126   6.509   3.328   3.021
 6390TIP3    H119127   6.465   3.355   3.102
 6390TIP3    H219128   6.507   3.232   3.023
 6391TIP3   OH219129   8.099   7.764   1.423
 6391TIP3    H119130   8.128   7.714   1.346
 6391TIP3    H219131   8.051   7.838   1.387
 6392TIP3   OH219132   5.250   6.963   1.774
 6392TIP3    H119133   5.258   6.875   1.812
 6392TIP3    H219134   5.156   6.982   1.777
 6393TIP3   OH219135   2.606   7.434   4.917
 6393TIP3    H119136   2.548   7.502   4.880
 6393TIP3    H219137   2.608   7.452   5.011
 6394TIP3   OH219138   7.077   1.560   0.784
 6394TIP3    H119139   7.001   1.516   0.823
 6394TIP3    H219140   7.072   1.650   0.817
 6395TIP3   OH219141   3.829   6.044   1.646
 6395TIP3    H119142   3.881   6.109   1.600
 6395TIP3    H219143   3.753   6.030   1.590
 6396TIP3   OH219144   1.020   2.246   4.811
 6396TIP3    H119145   0.948   2.184   4.821
 6396TIP3    H219146   1.097   2.198   4.842
 6397TIP3   OH219147   6.418   2.273   0.630
 6397TIP3    H119148   6.366   2.314   0.699
 6397TIP3    H219149   6.356   2.220   0.581
 6398TIP3   OH219150   3.375   2.054   1.855
 6398TIP3    H119151   3.286   2.082   1.877
 6398TIP3    H219152   3.428   2.132   1.870
 6399TIP3   OH219153   4.103   7.443   1.539
 6399TIP3    H119154   4.179   7.393   1.569
 6399TIP3    H219155   4.139   7.504   1.475
 6400TIP3   OH219156   0.346   6.604   5.035
 6400TIP3    H119157   0.389   6.679   5.076
 6400TIP3    H219158   0.394   6.590   4.953
 6401TIP3   OH219159   0.465   0.094   2.666
 6401TIP3    H119160   0.423   0.117   2.749
 6401TIP3    H219161   0.480   0.178   2.623
 6402TIP3   OH219162   5.867   3.414   4.706
 6402TIP3    H119163   5.944   3.427   4.650
 6402TIP3    H219164   5.814   3.492   4.694
 6403TIP3   OH219165   5.659   1.446   2.315
 6403TIP3    H119166   5.688   1.423   2.226
 6403TIP3    H219167   5.571   1.481   2.303
 6404TIP3   OH219168   5.414   6.021   4.724
 6404TIP3    H119169   5.336   6.075   4.716
 6404TIP3    H219170   5.476   6.075   4.772
 6405TIP3   OH219171   7.766   3.087   0.849
 6405TIP3    H119172   7.798   3.177   0.837
 6405TIP3    H219173   7.713   3.091   0.929
 6406TIP3   OH219174   1.326   0.325   3.773
 6406TIP3    H119175   1.291   0.338   3.861
 6406TIP3    H219176   1.260   0.273   3.728
 6407TIP3   OH219177   5.797   6.863   5.151
 6407TIP3    H119178   5.784   6.775   5.185
 6407TIP3    H219179   5.714   6.908   5.168
 6408TIP3   OH219180   4.482   6.347   3.497
 6408TIP3    H119181   4.474   6.296   3.578
 6408TIP3    H219182   4.425   6.423   3.512
 6409TIP3   OH219183   7.604   3.655   5.450
 6409TIP3    H119184   7.584   3.682   5.360
 6409TIP3    H219185   7.537   3.699   5.502
 6410TIP3   OH219186   3.948   1.983   6.657
 6410TIP3    H119187   3.901   2.067   6.649
 6410TIP3    H219188   4.040   2.007   6.651
 6411TIP3   OH219189   5.453   2.500   1.070
 6411TIP3    H119190   5.533   2.550   1.083
 6411TIP3    H219191   5.481   2.420   1.025
 6412TIP3   OH219192   1.636   4.555   1.001
 6412TIP3    H119193   1.555   4.504   1.007
 6412TIP3    H219194   1.615   4.639   1.041
 6413TIP3   OH219195   5.549   7.664   0.047
 6413TIP3    H119196   5.541   7.573   0.077
 6413TIP3    H219197   5.600   7.658  -0.034
 6414TIP3   OH219198   1.571   4.522   5.719
 6414TIP3    H119199   1.515   4.539   5.643
 6414TIP3    H219200   1.511   4.523   5.794
 6415TIP3   OH219201   6.683   6.372   2.888
 6415TIP3    H119202   6.770   6.353   2.853
 6415TIP3    H219203   6.653   6.290   2.926
 6416TIP3   OH219204   2.839   5.536   2.101
 6416TIP3    H119205   2.747   5.545   2.128
 6416TIP3    H219206   2.844   5.580   2.017
 6417TIP3   OH219207   3.015   2.365   1.723
 6417TIP3    H119208   3.083   2.425   1.752
 6417TIP3    H219209   3.031   2.354   1.629
 6418TIP3   OH219210   7.096   2.640   0.902
 6418TIP3    H119211   7.081   2.548   0.883
 6418TIP3    H219212   7.100   2.645   0.997
 6419TIP3   OH219213   1.002   4.223   3.721
 6419TIP3    H119214   0.921   4.180   3.747
 6419TIP3    H219215   1.034   4.265   3.800
 6420TIP3   OH219216   2.707   1.964   2.893
 6420TIP3    H119217   2.775   1.897   2.886
 6420TIP3    H219218   2.666   1.964   2.806
 6421TIP3   OH219219   3.136   2.488   5.041
 6421TIP3    H119220   3.118   2.427   5.113
 6421TIP3    H219221   3.230   2.478   5.024
 6422TIP3   OH219222   6.023   4.439   0.853
 6422TIP3    H119223   6.054   4.394   0.932
 6422TIP3    H219224   5.931   4.412   0.846
 6423TIP3   OH219225   7.132   3.183   3.157
 6423TIP3    H119226   7.112   3.151   3.245
 6423TIP3    H219227   7.227   3.196   3.157
 6424TIP3   OH219228   1.985   7.822   1.645
 6424TIP3    H119229   1.953   7.766   1.574
 6424TIP3    H219230   1.976   7.767   1.723
 6425TIP3   OH219231   7.328   4.580   4.075
 6425TIP3    H119232   7.300   4.554   4.163
 6425TIP3    H219233   7.423   4.575   4.077
 6426TIP3   OH219234   6.694   6.329   4.308
 6426TIP3    H119235   6.713   6.251   4.361
 6426TIP3    H219236   6.606   6.356   4.335
 6427TIP3   OH219237   6.047   1.606   2.950
 6427TIP3    H119238   6.024   1.514   2.943
 6427TIP3    H219239   5.995   1.650   2.883
 6428TIP3   OH219240   4.013   1.442   2.347
 6428TIP3    H119241   4.096   1.489   2.354
 6428TIP3    H219242   4.008   1.416   2.255
 6429TIP3   OH219243   0.948   3.282   2.955
 6429TIP3    H119244   0.904   3.357   2.916
 6429TIP3    H219245   1.026   3.269   2.901
 6430TIP3   OH219246   5.467   1.722   5.997
 6430TIP3    H119247   5.429   1.635   5.983
 6430TIP3    H219248   5.406   1.782   5.955
 6431TIP3   OH219249   3.265   6.666   1.474
 6431TIP3    H119250   3.312   6.724   1.533
 6431TIP3    H219251   3.203   6.722   1.429
 6432TIP3   OH219252   3.996   0.913   6.120
 6432TIP3    H119253   4.084   0.876   6.119
 6432TIP3    H219254   3.938   0.840   6.100
 6433TIP3   OH219255   5.829   4.191   6.291
 6433TIP3    H119256   5.800   4.278   6.318
 6433TIP3    H219257   5.900   4.208   6.229
 6434TIP3   OH219258   6.262   7.117   0.820
 6434TIP3    H119259   6.205   7.106   0.896
 6434TIP3    H219260   6.336   7.168   0.852
 6435TIP3   OH219261   0.267   0.261   3.161
 6435TIP3    H119262   0.225   0.346   3.146
 6435TIP3    H219263   0.215   0.221   3.231
 6436TIP3   OH219264   1.977   6.216   0.555
 6436TIP3    H119265   1.967   6.305   0.521
 6436TIP3    H219266   1.898   6.203   0.608
 6437TIP3   OH219267   0.443   6.966   0.009
 6437TIP3    H119268   0.371   6.904   0.021
 6437TIP3    H219269   0.452   7.010   0.093
 6438TIP3   OH219270   1.789   0.452   0.641
 6438TIP3    H119271   1.829   0.365   0.640
 6438TIP3    H219272   1.696   0.436   0.653
 6439TIP3   OH219273   0.936   6.745   1.353
 6439TIP3    H119274   1.019   6.739   1.400
 6439TIP3    H219275   0.891   6.663   1.373
 6440TIP3   OH219276   3.877   2.742   0.693
 6440TIP3    H119277   3.836   2.825   0.669
 6440TIP3    H219278   3.969   2.764   0.711
 6441TIP3   OH219279   7.639   1.099   4.427
 6441TIP3    H119280   7.674   1.024   4.381
 6441TIP3    H219281   7.554   1.069   4.461
 6442TIP3   OH219282   3.719   2.099   1.592
 6442TIP3    H119283   3.757   2.133   1.511
 6442TIP3    H219284   3.757   2.153   1.661
 6443TIP3   OH219285   0.010   1.750   0.411
 6443TIP3    H119286   0.095   1.756   0.455
 6443TIP3    H219287   0.017   1.810   0.337
 6444TIP3   OH219288   2.325   4.074   5.800
 6444TIP3    H119289   2.381   4.025   5.861
 6444TIP3    H219290   2.270   4.128   5.857
 6445TIP3   OH219291   6.859   2.916   4.028
 6445TIP3    H119292   6.772   2.956   4.026
 6445TIP3    H219293   6.841   2.822   4.035
 6446TIP3   OH219294   0.220   5.293   1.538
 6446TIP3    H119295   0.278   5.334   1.602
 6446TIP3    H219296   0.175   5.367   1.496
 6447TIP3   OH219297   6.877   6.831   5.161
 6447TIP3    H119298   6.935   6.768   5.204
 6447TIP3    H219299   6.802   6.779   5.132
 6448TIP3   OH219300   4.157   3.214   5.948
 6448TIP3    H119301   4.147   3.179   5.860
 6448TIP3    H219302   4.079   3.269   5.960
 6449TIP3   OH219303   6.106   4.750   0.409
 6449TIP3    H119304   6.098   4.845   0.400
 6449TIP3    H219305   6.064   4.715   0.330
 6450TIP3   OH219306   3.185   4.919   4.337
 6450TIP3    H119307   3.160   4.832   4.303
 6450TIP3    H219308   3.280   4.922   4.325
 6451TIP3   OH219309   7.145   5.801   0.955
 6451TIP3    H119310   7.166   5.719   1.000
 6451TIP3    H219311   7.050   5.798   0.943
 6452TIP3   OH219312   4.675   3.819   2.914
 6452TIP3    H119313   4.770   3.821   2.899
 6452TIP3    H219314   4.667   3.819   3.010
 6453TIP3   OH219315   2.172   5.675   6.297
 6453TIP3    H119316   2.126   5.702   6.217
 6453TIP3    H219317   2.260   5.712   6.287
 6454TIP3   OH219318   7.970   7.523   5.507
 6454TIP3    H119319   7.971   7.563   5.594
 6454TIP3    H219320   8.007   7.589   5.449
 6455TIP3   OH219321   5.717   3.241   3.665
 6455TIP3    H119322   5.625   3.239   3.640
 6455TIP3    H219323   5.750   3.153   3.642
 6456TIP3   OH219324   6.904   2.427   1.763
 6456TIP3    H119325   6.992   2.407   1.794
 6456TIP3    H219326   6.915   2.495   1.697
 6457TIP3   OH219327   1.178   4.665   1.034
 6457TIP3    H119328   1.240   4.593   1.023
 6457TIP3    H219329   1.225   4.730   1.085
 6458TIP3   OH219330   3.928   5.374   2.181
 6458TIP3    H119331   3.872   5.373   2.259
 6458TIP3    H219332   3.966   5.462   2.181
 6459TIP3   OH219333   6.494   4.312   3.977
 6459TIP3    H119334   6.543   4.235   4.004
 6459TIP3    H219335   6.540   4.386   4.017
 6460TIP3   OH219336   4.132   0.397   4.158
 6460TIP3    H119337   4.051   0.354   4.129
 6460TIP3    H219338   4.104   0.455   4.229
 6461TIP3   OH219339   4.271   2.985   3.197
 6461TIP3    H119340   4.200   3.048   3.206
 6461TIP3    H219341   4.230   2.907   3.161
 6462TIP3   OH219342   7.791   5.037   1.253
 6462TIP3    H119343   7.794   5.059   1.346
 6462TIP3    H219344   7.839   4.954   1.247
 6463TIP3   OH219345   1.921   4.767   0.446
 6463TIP3    H119346   1.881   4.853   0.453
 6463TIP3    H219347   1.858   4.714   0.397
 6464TIP3   OH219348   4.294   7.784   5.615
 6464TIP3    H119349   4.274   7.690   5.615
 6464TIP3    H219350   4.278   7.812   5.524
 6465TIP3   OH219351   7.339   1.233   0.205
 6465TIP3    H119352   7.261   1.288   0.198
 6465TIP3    H219353   7.319   1.156   0.153
 6466TIP3   OH219354   5.465   7.129   2.392
 6466TIP3    H119355   5.412   7.050   2.397
 6466TIP3    H219356   5.422   7.183   2.325
 6467TIP3   OH219357   4.273   2.155   1.320
 6467TIP3    H119358   4.271   2.251   1.315
 6467TIP3    H219359   4.346   2.129   1.265
 6468TIP3   OH219360   7.098   1.834   6.293
 6468TIP3    H119361   7.038   1.773   6.335
 6468TIP3    H219362   7.095   1.913   6.347
 6469TIP3   OH219363   0.905   6.503   1.190
 6469TIP3    H119364   0.918   6.575   1.129
 6469TIP3    H219365   0.972   6.516   1.257
 6470TIP3   OH219366   2.417   7.512   3.328
 6470TIP3    H119367   2.441   7.596   3.369
 6470TIP3    H219368   2.468   7.447   3.376
 6471TIP3   OH219369   4.977   3.743   4.663
 6471TIP3    H119370   4.975   3.698   4.748
 6471TIP3    H219371   4.913   3.813   4.671
 6472TIP3   OH219372   3.278   7.150   0.918
 6472TIP3    H119373   3.248   7.109   1.000
 6472TIP3    H219374   3.341   7.087   0.882
 6473TIP3   OH219375   2.780   4.475   4.586
 6473TIP3    H119376   2.784   4.393   4.537
 6473TIP3    H219377   2.866   4.483   4.625
 6474TIP3   OH219378   5.277   1.004   4.789
 6474TIP3    H119379   5.296   0.949   4.712
 6474TIP3    H219380   5.275   1.093   4.755
 6475TIP3   OH219381   5.175   3.543   5.638
 6475TIP3    H119382   5.197   3.526   5.547
 6475TIP3    H219383   5.108   3.478   5.659
 6476TIP3   OH219384   6.283   4.496   1.663
 6476TIP3    H119385   6.189   4.512   1.673
 6476TIP3    H219386   6.318   4.502   1.751
 6477TIP3   OH219387   2.731   3.029   3.501
 6477TIP3    H119388   2.671   3.079   3.556
 6477TIP3    H219389   2.795   2.991   3.562
 6478TIP3   OH219390   4.288   7.403   0.530
 6478TIP3    H119391   4.231   7.327   0.541
 6478TIP3    H219392   4.229   7.476   0.513
 6479TIP3   OH219393   1.002   7.511   3.354
 6479TIP3    H119394   0.943   7.442   3.386
 6479TIP3    H219395   0.951   7.591   3.360
 6480TIP3   OH219396   0.895   4.459   5.851
 6480TIP3    H119397   0.817   4.407   5.864
 6480TIP3    H219398   0.925   4.480   5.940
 6481TIP3   OH219399   6.732   6.156   6.197
 6481TIP3    H119400   6.734   6.071   6.153
 6481TIP3    H219401   6.676   6.211   6.141
 6482TIP3   OH219402   1.023   5.131   2.905
 6482TIP3    H119403   1.062   5.177   2.979
 6482TIP3    H219404   1.006   5.042   2.937
 6483TIP3   OH219405   2.989   4.261   5.711
 6483TIP3    H119406   3.004   4.258   5.806
 6483TIP3    H219407   2.918   4.198   5.696
 6484TIP3   OH219408   6.715   1.091   2.806
 6484TIP3    H119409   6.667   1.027   2.858
 6484TIP3    H219410   6.807   1.079   2.831
 6485TIP3   OH219411   2.010   2.994   4.850
 6485TIP3    H119412   2.059   2.990   4.932
 6485TIP3    H219413   2.072   2.966   4.783
 6486TIP3   OH219414   0.519   2.355   1.576
 6486TIP3    H119415   0.457   2.312   1.518
 6486TIP3    H219416   0.600   2.304   1.568
 6487TIP3   OH219417   1.321   2.892   4.318
 6487TIP3    H119418   1.352   2.942   4.243
 6487TIP3    H219419   1.379   2.816   4.322
 6488TIP3   OH219420   2.348   0.221   2.022
 6488TIP3    H119421   2.318   0.304   1.984
 6488TIP3    H219422   2.443   0.228   2.024
 6489TIP3   OH219423   2.473   4.310   5.118
 6489TIP3    H119424   2.447   4.371   5.187
 6489TIP3    H219425   2.429   4.228   5.141
 6490TIP3   OH219426   6.568   2.895   2.531
 6490TIP3    H119427   6.622   2.937   2.598
 6490TIP3    H219428   6.628   2.835   2.486
 6491TIP3   OH219429   6.278   6.599   4.374
 6491TIP3    H119430   6.363   6.643   4.367
 6491TIP3    H219431   6.246   6.621   4.461
 6492TIP3   OH219432   2.716   4.898   0.924
 6492TIP3    H119433   2.645   4.934   0.977
 6492TIP3    H219434   2.697   4.804   0.921
 6493TIP3   OH219435   0.220   0.492   2.226
 6493TIP3    H119436   0.247   0.583   2.237
 6493TIP3    H219437   0.190   0.465   2.313
 6494TIP3   OH219438   4.647   0.808   6.750
 6494TIP3    H119439   4.589   0.771   6.684
 6494TIP3    H219440   4.605   0.788   6.834
 6495TIP3   OH219441   1.368   5.410   2.640
 6495TIP3    H119442   1.459   5.415   2.613
 6495TIP3    H219443   1.325   5.359   2.572
 6496TIP3   OH219444   7.600   6.867   5.176
 6496TIP3    H119445   7.677   6.885   5.122
 6496TIP3    H219446   7.548   6.806   5.124
 6497TIP3   OH219447   7.056   4.781   6.333
 6497TIP3    H119448   7.011   4.818   6.408
 6497TIP3    H219449   7.020   4.693   6.323
 6498TIP3   OH219450   6.575   7.124   2.847
 6498TIP3    H119451   6.638   7.099   2.914
 6498TIP3    H219452   6.539   7.207   2.877
 6499TIP3   OH219453   7.813   3.092   1.213
 6499TIP3    H119454   7.763   3.042   1.278
 6499TIP3    H219455   7.750   3.112   1.145
 6500TIP3   OH219456   1.349   4.377   5.013
 6500TIP3    H119457   1.254   4.393   5.017
 6500TIP3    H219458   1.377   4.373   5.104
 6501TIP3   OH219459   2.812   3.255   0.310
 6501TIP3    H119460   2.789   3.317   0.379
 6501TIP3    H219461   2.752   3.275   0.238
 6502TIP3   OH219462   1.367   4.084   0.401
 6502TIP3    H119463   1.365   4.174   0.367
 6502TIP3    H219464   1.396   4.031   0.328
 6503TIP3   OH219465   1.053   4.295   0.588
 6503TIP3    H119466   1.136   4.305   0.541
 6503TIP3    H219467   1.025   4.385   0.607
 6504TIP3   OH219468   1.223   7.628   3.090
 6504TIP3    H119469   1.174   7.610   3.170
 6504TIP3    H219470   1.274   7.549   3.074
 6505TIP3   OH219471   1.097   3.192   6.349
 6505TIP3    H119472   1.090   3.248   6.272
 6505TIP3    H219473   1.006   3.176   6.376
 6506TIP3   OH219474   2.419   3.398   6.344
 6506TIP3    H119475   2.410   3.337   6.272
 6506TIP3    H219476   2.376   3.478   6.314
 6507TIP3   OH219477   0.122   6.640   4.703
 6507TIP3    H119478   0.128   6.710   4.767
 6507TIP3    H219479   0.029   6.636   4.679
 6508TIP3   OH219480   3.281   6.001   5.425
 6508TIP3    H119481   3.189   6.029   5.430
 6508TIP3    H219482   3.298   5.960   5.509
 6509TIP3   OH219483   7.706   5.034   2.703
 6509TIP3    H119484   7.773   5.019   2.636
 6509TIP3    H219485   7.697   4.949   2.746
 6510TIP3   OH219486   5.517   0.713   0.665
 6510TIP3    H119487   5.576   0.787   0.652
 6510TIP3    H219488   5.431   0.753   0.682
 6511TIP3   OH219489   5.108   1.231   2.200
 6511TIP3    H119490   5.099   1.306   2.259
 6511TIP3    H219491   5.029   1.180   2.214
 6512TIP3   OH219492   6.645   7.217   1.213
 6512TIP3    H119493   6.586   7.292   1.204
 6512TIP3    H219494   6.667   7.194   1.123
 6513TIP3   OH219495   6.297   7.777   0.499
 6513TIP3    H119496   6.208   7.776   0.462
 6513TIP3    H219497   6.354   7.774   0.423
 6514TIP3   OH219498   6.162   6.350   0.572
 6514TIP3    H119499   6.141   6.352   0.665
 6514TIP3    H219500   6.229   6.283   0.564
 6515TIP3   OH219501   6.270   0.831   4.334
 6515TIP3    H119502   6.285   0.782   4.253
 6515TIP3    H219503   6.217   0.771   4.388
 6516TIP3   OH219504   0.092   5.753   3.431
 6516TIP3    H119505   0.105   5.789   3.343
 6516TIP3    H219506   0.060   5.664   3.416
 6517TIP3   OH219507   5.825   0.780   0.086
 6517TIP3    H119508   5.761   0.735   0.141
 6517TIP3    H219509   5.904   0.783   0.139
 6518TIP3   OH219510   2.508   3.175   3.653
 6518TIP3    H119511   2.478   3.085   3.662
 6518TIP3    H219512   2.432   3.228   3.679
 6519TIP3   OH219513   2.178   5.906   4.326
 6519TIP3    H119514   2.228   5.853   4.264
 6519TIP3    H219515   2.234   5.983   4.342
 6520TIP3   OH219516   2.526   1.294   2.263
 6520TIP3    H119517   2.605   1.291   2.317
 6520TIP3    H219518   2.507   1.203   2.242
 6521TIP3   OH219519   7.211   6.740   0.221
 6521TIP3    H119520   7.175   6.727   0.309
 6521TIP3    H219521   7.199   6.833   0.204
 6522TIP3   OH219522   7.762   3.762   0.779
 6522TIP3    H119523   7.837   3.754   0.719
 6522TIP3    H219524   7.705   3.688   0.755
 6523TIP3   OH219525   3.564   2.335   6.082
 6523TIP3    H119526   3.659   2.334   6.080
 6523TIP3    H219527   3.541   2.322   6.174
 6524TIP3   OH219528   0.792   3.200   1.807
 6524TIP3    H119529   0.857   3.242   1.863
 6524TIP3    H219530   0.752   3.272   1.758
 6525TIP3   OH219531   5.886   1.060   4.279
 6525TIP3    H119532   5.892   1.156   4.283
 6525TIP3    H219533   5.958   1.034   4.221
 6526TIP3   OH219534   6.502   6.706   5.371
 6526TIP3    H119535   6.476   6.783   5.321
 6526TIP3    H219536   6.422   6.676   5.414
 6527TIP3   OH219537   7.272   0.658   3.965
 6527TIP3    H119538   7.244   0.722   3.901
 6527TIP3    H219539   7.334   0.705   4.021
 6528TIP3   OH219540   3.216   0.109   3.803
 6528TIP3    H119541   3.223   0.135   3.895
 6528TIP3    H219542   3.278   0.036   3.794
 6529TIP3   OH219543   2.450   4.056   5.541
 6529TIP3    H119544   2.404   4.082   5.620
 6529TIP3    H219545   2.476   3.965   5.557
 6530TIP3   OH219546   6.548   3.775   4.483
 6530TIP3    H119547   6.557   3.860   4.439
 6530TIP3    H219548   6.459   3.748   4.464
 6531TIP3   OH219549   3.279   6.102   3.239
 6531TIP3    H119550   3.195   6.081   3.280
 6531TIP3    H219551   3.257   6.130   3.150
 6532TIP3   OH219552   5.418   1.084   4.203
 6532TIP3    H119553   5.453   0.996   4.211
 6532TIP3    H219554   5.438   1.110   4.112
 6533TIP3   OH219555   0.303   5.653   3.148
 6533TIP3    H119556   0.279   5.677   3.059
 6533TIP3    H219557   0.329   5.561   3.142
 6534TIP3   OH219558   8.194   4.499   4.152
 6534TIP3    H119559   8.196   4.513   4.057
 6534TIP3    H219560   8.121   4.553   4.183
 6535TIP3   OH219561   5.072   3.089   1.865
 6535TIP3    H119562   5.084   2.998   1.838
 6535TIP3    H219563   5.154   3.132   1.840
 6536TIP3   OH219564   0.913   7.322   5.667
 6536TIP3    H119565   1.001   7.358   5.661
 6536TIP3    H219566   0.881   7.322   5.577
 6537TIP3   OH219567   5.959   5.834   5.672
 6537TIP3    H119568   6.010   5.899   5.623
 6537TIP3    H219569   6.015   5.757   5.674
 6538TIP3   OH219570   0.909   3.640   1.160
 6538TIP3    H119571   0.907   3.552   1.197
 6538TIP3    H219572   0.996   3.648   1.121
 6539TIP3   OH219573   7.957   6.487   3.259
 6539TIP3    H119574   7.944   6.464   3.351
 6539TIP3    H219575   8.041   6.449   3.237
 6540TIP3   OH219576   6.586   0.092   3.518
 6540TIP3    H119577   6.622   0.081   3.606
 6540TIP3    H219578   6.591   0.186   3.502
 6541TIP3   OH219579   3.496   1.655   0.251
 6541TIP3    H119580   3.459   1.738   0.282
 6541TIP3    H219581   3.569   1.638   0.310
 6542TIP3   OH219582   0.291   1.634   3.953
 6542TIP3    H119583   0.226   1.578   3.995
 6542TIP3    H219584   0.267   1.632   3.860
 6543TIP3   OH219585   5.968   4.911   2.872
 6543TIP3    H119586   5.916   4.975   2.921
 6543TIP3    H219587   5.992   4.956   2.791
 6544TIP3   OH219588   5.838   0.209   2.376
 6544TIP3    H119589   5.927   0.242   2.389
 6544TIP3    H219590   5.827   0.207   2.281
 6545TIP3   OH219591   7.403   1.493   1.762
 6545TIP3    H119592   7.331   1.556   1.767
 6545TIP3    H219593   7.459   1.526   1.691
 6546TIP3   OH219594   8.315   4.513   1.902
 6546TIP3    H119595   8.231   4.502   1.856
 6546TIP3    H219596   8.364   4.574   1.846
 6547TIP3   OH219597   7.269   1.630   2.654
 6547TIP3    H119598   7.312   1.715   2.660
 6547TIP3    H219599   7.257   1.616   2.560
 6548TIP3   OH219600   2.403   4.081   4.799
 6548TIP3    H119601   2.313   4.082   4.832
 6548TIP3    H219602   2.454   4.044   4.871
 6549TIP3   OH219603   2.246   0.549   4.817
 6549TIP3    H119604   2.230   0.561   4.911
 6549TIP3    H219605   2.328   0.595   4.800
 6550TIP3   OH219606   0.381   4.510   5.660
 6550TIP3    H119607   0.333   4.501   5.743
 6550TIP3    H219608   0.348   4.592   5.622
 6551TIP3   OH219609   8.273   5.864   5.405
 6551TIP3    H119610   8.366   5.871   5.385
 6551TIP3    H219611   8.265   5.782   5.453
 6552TIP3   OH219612   1.966   5.559   2.267
 6552TIP3    H119613   1.973   5.504   2.189
 6552TIP3    H219614   1.960   5.498   2.340
 6553TIP3   OH219615   2.000   6.481   5.600
 6553TIP3    H119616   2.019   6.449   5.512
 6553TIP3    H219617   1.919   6.435   5.624
 6554TIP3   OH219618   6.889   5.139   3.297
 6554TIP3    H119619   6.838   5.144   3.217
 6554TIP3    H219620   6.975   5.173   3.273
 6555TIP3   OH219621   5.677   0.841   4.053
 6555TIP3    H119622   5.619   0.850   4.129
 6555TIP3    H219623   5.745   0.780   4.082
 6556TIP3   OH219624   2.484   2.033   4.782
 6556TIP3    H119625   2.516   2.041   4.872
 6556TIP3    H219626   2.495   1.941   4.760
 6557TIP3   OH219627   2.773   4.991   0.683
 6557TIP3    H119628   2.826   4.915   0.659
 6557TIP3    H219629   2.751   4.977   0.775
 6558TIP3   OH219630   3.094   2.354   6.586
 6558TIP3    H119631   3.038   2.331   6.513
 6558TIP3    H219632   3.181   2.368   6.547
 6559TIP3   OH219633   6.098   6.537   3.118
 6559TIP3    H119634   6.032   6.571   3.178
 6559TIP3    H219635   6.049   6.481   3.057
 6560TIP3   OH219636   2.993   6.982   6.774
 6560TIP3    H119637   2.999   6.887   6.764
 6560TIP3    H219638   3.024   7.016   6.689
 6561TIP3   OH219639   7.146   0.167   1.925
 6561TIP3    H119640   7.080   0.199   1.863
 6561TIP3    H219641   7.221   0.225   1.913
 6562TIP3   OH219642   3.670   5.773   0.592
 6562TIP3    H119643   3.704   5.696   0.638
 6562TIP3    H219644   3.672   5.843   0.657
 6563TIP3   OH219645   3.148   6.203   3.021
 6563TIP3    H119646   3.175   6.290   3.052
 6563TIP3    H219647   3.157   6.209   2.925
 6564TIP3   OH219648   0.594   0.912   4.823
 6564TIP3    H119649   0.563   0.943   4.908
 6564TIP3    H219650   0.687   0.934   4.821
 6565TIP3   OH219651   6.411   6.370   4.031
 6565TIP3    H119652   6.315   6.377   4.035
 6565TIP3    H219653   6.427   6.287   3.987
 6566TIP3   OH219654   4.783   1.412   1.953
 6566TIP3    H119655   4.876   1.401   1.932
 6566TIP3    H219656   4.782   1.457   2.037
 6567TIP3   OH219657   4.564   0.679   6.512
 6567TIP3    H119658   4.536   0.588   6.507
 6567TIP3    H219659   4.581   0.704   6.421
 6568TIP3   OH219660   1.662   3.405   2.110
 6568TIP3    H119661   1.588   3.466   2.113
 6568TIP3    H219662   1.660   3.361   2.194
 6569TIP3   OH219663   3.992   1.092   6.618
 6569TIP3    H119664   4.023   1.021   6.561
 6569TIP3    H219665   4.065   1.153   6.622
 6570TIP3   OH219666   2.224   2.446   5.821
 6570TIP3    H119667   2.173   2.445   5.902
 6570TIP3    H219668   2.270   2.362   5.819
 6571TIP3   OH219669   2.587   0.245   2.340
 6571TIP3    H119670   2.617   0.205   2.258
 6571TIP3    H219671   2.535   0.177   2.383
 6572TIP3   OH219672   3.007   7.862   6.272
 6572TIP3    H119673   3.052   7.840   6.190
 6572TIP3    H219674   2.986   7.778   6.311
 6573TIP3   OH219675   7.671   1.032   3.959
 6573TIP3    H119676   7.765   1.030   3.943
 6573TIP3    H219677   7.638   1.102   3.902
 6574TIP3   OH219678   7.968   6.196   4.854
 6574TIP3    H119679   7.977   6.288   4.827
 6574TIP3    H219680   7.983   6.146   4.773
 6575TIP3   OH219681   2.291   4.913   3.021
 6575TIP3    H119682   2.347   4.987   3.046
 6575TIP3    H219683   2.338   4.835   3.049
 6576TIP3   OH219684   3.294   1.086   6.730
 6576TIP3    H119685   3.329   1.001   6.757
 6576TIP3    H219686   3.279   1.076   6.635
 6577TIP3   OH219687   2.780   0.241   6.718
 6577TIP3    H119688   2.845   0.280   6.776
 6577TIP3    H219689   2.786   0.292   6.637
 6578TIP3   OH219690   6.607   4.790   1.379
 6578TIP3    H119691   6.602   4.757   1.289
 6578TIP3    H219692   6.658   4.724   1.426
 6579TIP3   OH219693   1.094   7.627   0.388
 6579TIP3    H119694   1.012   7.595   0.351
 6579TIP3    H219695   1.123   7.695   0.326
 6580TIP3   OH219696   1.649   2.237   5.085
 6580TIP3    H119697   1.692   2.255   5.168
 6580TIP3    H219698   1.630   2.323   5.048
 6581TIP3   OH219699   2.001   0.084   3.260
 6581TIP3    H119700   2.069   0.025   3.293
 6581TIP3    H219701   1.961   0.121   3.339
 6582TIP3   OH219702   2.042   1.703   5.331
 6582TIP3    H119703   2.131   1.700   5.364
 6582TIP3    H219704   2.048   1.669   5.241
 6583TIP3   OH219705   4.104   4.907   3.013
 6583TIP3    H119706   4.077   4.956   2.935
 6583TIP3    H219707   4.120   4.818   2.981
 6584TIP3   OH219708   2.971   1.829   0.454
 6584TIP3    H119709   3.042   1.769   0.477
 6584TIP3    H219710   3.003   1.877   0.378
 6585TIP3   OH219711   0.863   4.824   3.263
 6585TIP3    H119712   0.788   4.824   3.203
 6585TIP3    H219713   0.841   4.892   3.327
 6586TIP3   OH219714   0.368   1.100   1.519
 6586TIP3    H119715   0.363   1.044   1.596
 6586TIP3    H219716   0.276   1.111   1.492
 6587TIP3   OH219717   3.150   7.423   3.877
 6587TIP3    H119718   3.104   7.497   3.914
 6587TIP3    H219719   3.159   7.361   3.950
 6588TIP3   OH219720   4.990   6.898   3.057
 6588TIP3    H119721   4.966   6.975   3.006
 6588TIP3    H219722   5.086   6.900   3.059
 6589TIP3   OH219723   2.171   4.201   5.585
 6589TIP3    H119724   2.127   4.118   5.570
 6589TIP3    H219725   2.228   4.185   5.661
 6590TIP3   OH219726   0.135   5.469   1.225
 6590TIP3    H119727   0.179   5.551   1.248
 6590TIP3    H219728   0.048   5.477   1.265
 6591TIP3   OH219729   7.586   7.603   4.293
 6591TIP3    H119730   7.600   7.664   4.364
 6591TIP3    H219731   7.665   7.609   4.239
 6592TIP3   OH219732   7.951   3.812   2.010
 6592TIP3    H119733   8.045   3.826   1.995
 6592TIP3    H219734   7.926   3.747   1.944
 6593TIP3   OH219735   4.764   6.069   1.952
 6593TIP3    H119736   4.672   6.077   1.978
 6593TIP3    H219737   4.812   6.063   2.034
 6594TIP3   OH219738   2.965   3.884   2.595
 6594TIP3    H119739   3.032   3.917   2.534
 6594TIP3    H219740   2.907   3.959   2.610
 6595TIP3   OH219741   1.291   0.253   2.507
 6595TIP3    H119742   1.379   0.257   2.470
 6595TIP3    H219743   1.305   0.227   2.598
 6596TIP3   OH219744   4.459   4.866   5.143
 6596TIP3    H119745   4.474   4.914   5.225
 6596TIP3    H219746   4.364   4.875   5.128
 6597TIP3   OH219747   3.833   1.250   3.138
 6597TIP3    H119748   3.852   1.268   3.046
 6597TIP3    H219749   3.875   1.166   3.154
 6598TIP3   OH219750   1.101   0.982   6.684
 6598TIP3    H119751   1.178   0.936   6.653
 6598TIP3    H219752   1.087   0.949   6.773
 6599TIP3   OH219753   7.929   4.539   1.459
 6599TIP3    H119754   7.994   4.484   1.503
 6599TIP3    H219755   7.930   4.510   1.368
 6600TIP3   OH219756   2.006   4.429   4.641
 6600TIP3    H119757   2.082   4.372   4.633
 6600TIP3    H219758   1.954   4.412   4.562
 6601TIP3   OH219759   1.495   3.208   6.538
 6601TIP3    H119760   1.463   3.286   6.492
 6601TIP3    H219761   1.415   3.162   6.565
 6602TIP3   OH219762   1.178   5.046   5.762
 6602TIP3    H119763   1.108   5.036   5.826
 6602TIP3    H219764   1.135   5.082   5.684
 6603TIP3   OH219765   3.864   6.173   4.922
 6603TIP3    H119766   3.834   6.250   4.874
 6603TIP3    H219767   3.833   6.099   4.871
 6604TIP3   OH219768   4.850   0.605   1.596
 6604TIP3    H119769   4.767   0.559   1.598
 6604TIP3    H219770   4.827   0.698   1.593
 6605TIP3   OH219771   5.183   7.516   1.152
 6605TIP3    H119772   5.089   7.518   1.171
 6605TIP3    H219773   5.224   7.536   1.236
 6606TIP3   OH219774   0.142   6.508   5.848
 6606TIP3    H119775   0.104   6.537   5.931
 6606TIP3    H219776   0.230   6.478   5.872
 6607TIP3   OH219777   0.586   7.025   1.637
 6607TIP3    H119778   0.567   7.097   1.577
 6607TIP3    H219779   0.681   7.029   1.650
 6608TIP3   OH219780   5.016   4.155   3.338
 6608TIP3    H119781   5.011   4.250   3.352
 6608TIP3    H219782   5.079   4.125   3.404
 6609TIP3   OH219783   5.318   7.731   5.515
 6609TIP3    H119784   5.252   7.759   5.578
 6609TIP3    H219785   5.268   7.690   5.444
 6610TIP3   OH219786   6.890   4.586   0.207
 6610TIP3    H119787   6.911   4.668   0.162
 6610TIP3    H219788   6.935   4.593   0.291
 6611TIP3   OH219789   5.425   2.820   6.500
 6611TIP3    H119790   5.365   2.880   6.456
 6611TIP3    H219791   5.398   2.822   6.592
 6612TIP3   OH219792   0.761   4.645   3.419
 6612TIP3    H119793   0.811   4.664   3.340
 6612TIP3    H219794   0.683   4.700   3.411
 6613TIP3   OH219795   0.008   0.405   2.838
 6613TIP3    H119796  -0.011   0.338   2.904
 6613TIP3    H219797  -0.074   0.453   2.829
 6614TIP3   OH219798   1.188   0.114   0.377
 6614TIP3    H119799   1.213   0.157   0.295
 6614TIP3    H219800   1.245   0.037   0.382
 6615TIP3   OH219801   5.769   7.315   1.602
 6615TIP3    H119802   5.733   7.403   1.606
 6615TIP3    H219803   5.774   7.295   1.508
 6616TIP3   OH219804   4.337   5.575   3.685
 6616TIP3    H119805   4.382   5.526   3.753
 6616TIP3    H219806   4.252   5.531   3.675
 6617TIP3   OH219807   2.739   7.502   4.029
 6617TIP3    H119808   2.820   7.453   4.048
 6617TIP3    H219809   2.698   7.513   4.115
 6618TIP3   OH219810   4.763   3.812   5.286
 6618TIP3    H119811   4.731   3.736   5.237
 6618TIP3    H219812   4.808   3.865   5.221
 6619TIP3   OH219813   1.184   3.188   2.038
 6619TIP3    H119814   1.234   3.107   2.052
 6619TIP3    H219815   1.093   3.160   2.039
 6620TIP3   OH219816   4.034   4.533   6.509
 6620TIP3    H119817   4.102   4.599   6.497
 6620TIP3    H219818   4.062   4.483   6.585
 6621TIP3   OH219819   0.874   0.050   5.311
 6621TIP3    H119820   0.780   0.053   5.294
 6621TIP3    H219821   0.913   0.097   5.236
 6622TIP3   OH219822   6.266   7.804   6.211
 6622TIP3    H119823   6.224   7.736   6.263
 6622TIP3    H219824   6.315   7.856   6.275
 6623TIP3   OH219825   2.698   4.631   3.842
 6623TIP3    H119826   2.777   4.684   3.835
 6623TIP3    H219827   2.632   4.692   3.877
 6624TIP3   OH219828   6.866   4.555   6.434
 6624TIP3    H119829   6.843   4.462   6.431
 6624TIP3    H219830   6.802   4.593   6.493
 6625TIP3   OH219831   1.742   6.377   3.745
 6625TIP3    H119832   1.796   6.337   3.812
 6625TIP3    H219833   1.678   6.430   3.793
 6626TIP3   OH219834   7.103   6.110   0.689
 6626TIP3    H119835   7.085   6.181   0.628
 6626TIP3    H219836   7.023   6.058   0.690
 6627TIP3   OH219837   7.683   5.162   3.289
 6627TIP3    H119838   7.649   5.250   3.306
 6627TIP3    H219839   7.771   5.176   3.255
 6628TIP3   OH219840   7.731   6.938   0.417
 6628TIP3    H119841   7.686   7.006   0.468
 6628TIP3    H219842   7.812   6.980   0.388
 6629TIP3   OH219843   7.768   0.418   2.827
 6629TIP3    H119844   7.699   0.361   2.862
 6629TIP3    H219845   7.789   0.381   2.741
 6630TIP3   OH219846   1.245   5.533   4.448
 6630TIP3    H119847   1.302   5.456   4.448
 6630TIP3    H219848   1.231   5.553   4.356
 6631TIP3   OH219849   3.028   4.525   1.202
 6631TIP3    H119850   2.967   4.452   1.210
 6631TIP3    H219851   3.059   4.541   1.291
 6632TIP3   OH219852   1.359   6.081   1.235
 6632TIP3    H119853   1.297   6.018   1.199
 6632TIP3    H219854   1.318   6.111   1.316
 6633TIP3   OH219855   0.613   2.004   4.194
 6633TIP3    H119856   0.602   2.057   4.272
 6633TIP3    H219857   0.527   2.003   4.153
 6634TIP3   OH219858   8.031   0.482   2.840
 6634TIP3    H119859   8.051   0.476   2.934
 6634TIP3    H219860   7.944   0.442   2.831
 6635TIP3   OH219861   1.158   1.581   2.188
 6635TIP3    H119862   1.129   1.517   2.253
 6635TIP3    H219863   1.089   1.582   2.122
 6636TIP3   OH219864   7.500   6.169   0.121
 6636TIP3    H119865   7.557   6.148   0.048
 6636TIP3    H219866   7.554   6.221   0.180
 6637TIP3   OH219867   2.732   0.376   0.158
 6637TIP3    H119868   2.647   0.420   0.151
 6637TIP3    H219869   2.792   0.431   0.109
 6638TIP3   OH219870   2.118   2.702   3.849
 6638TIP3    H119871   2.103   2.613   3.816
 6638TIP3    H219872   2.055   2.756   3.800
 6639TIP3   OH219873   0.414   2.796   4.553
 6639TIP3    H119874   0.321   2.793   4.528
 6639TIP3    H219875   0.452   2.865   4.499
 6640TIP3   OH219876   6.435   2.156   1.546
 6640TIP3    H119877   6.397   2.102   1.615
 6640TIP3    H219878   6.396   2.123   1.466
 6641TIP3   OH219879   3.002   6.215   6.040
 6641TIP3    H119880   3.077   6.259   6.080
 6641TIP3    H219881   2.926   6.248   6.088
 6642TIP3   OH219882   3.103   5.551   2.090
 6642TIP3    H119883   3.143   5.508   2.165
 6642TIP3    H219884   3.009   5.535   2.100
 6643TIP3   OH219885   6.024   5.677   2.337
 6643TIP3    H119886   5.992   5.699   2.424
 6643TIP3    H219887   5.945   5.680   2.282
 6644TIP3   OH219888   5.792   4.554   2.762
 6644TIP3    H119889   5.796   4.647   2.781
 6644TIP3    H219890   5.725   4.546   2.694
 6645TIP3   OH219891   5.782   0.278   0.171
 6645TIP3    H119892   5.699   0.269   0.125
 6645TIP3    H219893   5.758   0.296   0.262
 6646TIP3   OH219894   8.113   6.415   1.475
 6646TIP3    H119895   8.114   6.509   1.491
 6646TIP3    H219896   8.038   6.401   1.417
 6647TIP3   OH219897   4.257   7.167   6.398
 6647TIP3    H119898   4.226   7.077   6.413
 6647TIP3    H219899   4.225   7.189   6.310
 6648TIP3   OH219900   5.105   6.838   4.947
 6648TIP3    H119901   5.126   6.921   4.991
 6648TIP3    H219902   5.073   6.864   4.861
 6649TIP3   OH219903   3.473   2.100   2.199
 6649TIP3    H119904   3.494   2.132   2.111
 6649TIP3    H219905   3.415   2.025   2.185
 6650TIP3   OH219906   6.541   6.124   6.751
 6650TIP3    H119907   6.539   6.121   6.655
 6650TIP3    H219908   6.485   6.051   6.778
 6651TIP3   OH219909   4.341   3.681   2.157
 6651TIP3    H119910   4.378   3.679   2.069
 6651TIP3    H219911   4.379   3.758   2.198
 6652TIP3   OH219912   4.515   5.426   0.881
 6652TIP3    H119913   4.474   5.506   0.915
 6652TIP3    H219914   4.590   5.457   0.831
 6653TIP3   OH219915   7.677   0.412   6.494
 6653TIP3    H119916   7.713   0.494   6.460
 6653TIP3    H219917   7.662   0.358   6.417
 6654TIP3   OH219918   2.591   3.359   4.237
 6654TIP3    H119919   2.677   3.319   4.224
 6654TIP3    H219920   2.542   3.295   4.289
 6655TIP3   OH219921   4.065   1.110   0.591
 6655TIP3    H119922   3.971   1.110   0.572
 6655TIP3    H219923   4.075   1.171   0.664
 6656TIP3   OH219924   2.831   0.163   4.596
 6656TIP3    H119925   2.850   0.092   4.657
 6656TIP3    H219926   2.793   0.119   4.519
 6657TIP3   OH219927   3.237   7.131   5.203
 6657TIP3    H119928   3.193   7.134   5.118
 6657TIP3    H219929   3.201   7.053   5.246
 6658TIP3   OH219930   2.870   0.923   3.332
 6658TIP3    H119931   2.950   0.916   3.383
 6658TIP3    H219932   2.830   1.005   3.362
 6659TIP3   OH219933   5.221   2.752   0.120
 6659TIP3    H119934   5.207   2.759   0.214
 6659TIP3    H219935   5.149   2.803   0.081
 6660TIP3   OH219936   4.238   1.178   5.268
 6660TIP3    H119937   4.266   1.216   5.352
 6660TIP3    H219938   4.156   1.133   5.289
 6661TIP3   OH219939   4.201   7.338   5.768
 6661TIP3    H119940   4.206   7.411   5.830
 6661TIP3    H219941   4.179   7.379   5.684
 6662TIP3   OH219942   2.005   4.936   4.134
 6662TIP3    H119943   1.927   4.883   4.146
 6662TIP3    H219944   1.971   5.024   4.116
 6663TIP3   OH219945   2.185   4.925   5.091
 6663TIP3    H119946   2.279   4.917   5.076
 6663TIP3    H219947   2.171   4.894   5.180
 6664TIP3   OH219948   4.383   1.817   3.336
 6664TIP3    H119949   4.396   1.912   3.333
 6664TIP3    H219950   4.288   1.806   3.337
 6665TIP3   OH219951   0.256   4.665   3.693
 6665TIP3    H119952   0.323   4.727   3.661
 6665TIP3    H219953   0.272   4.585   3.643
 6666TIP3   OH219954   0.010   4.796   2.891
 6666TIP3    H119955  -0.047   4.720   2.897
 6666TIP3    H219956  -0.022   4.844   2.815
 6667TIP3   OH219957   2.845   0.228   4.935
 6667TIP3    H119958   2.795   0.264   5.008
 6667TIP3    H219959   2.780   0.181   4.883
 6668TIP3   OH219960   7.394   3.154   0.430
 6668TIP3    H119961   7.436   3.141   0.515
 6668TIP3    H219962   7.460   3.129   0.366
 6669TIP3   OH219963   3.811   5.769   1.070
 6669TIP3    H119964   3.741   5.732   1.016
 6669TIP3    H219965   3.848   5.694   1.116
 6670TIP3   OH219966   6.330   3.204   0.862
 6670TIP3    H119967   6.354   3.112   0.873
 6670TIP3    H219968   6.399   3.241   0.808
 6671TIP3   OH219969   3.901   4.059   4.684
 6671TIP3    H119970   3.955   3.994   4.730
 6671TIP3    H219971   3.886   4.021   4.597
 6672TIP3   OH219972   4.262   1.671   2.290
 6672TIP3    H119973   4.201   1.698   2.221
 6672TIP3    H219974   4.230   1.715   2.368
 6673TIP3   OH219975   5.399   3.869   0.309
 6673TIP3    H119976   5.436   3.818   0.237
 6673TIP3    H219977   5.372   3.803   0.373
 6674TIP3   OH219978   5.306   1.493   3.791
 6674TIP3    H119979   5.213   1.515   3.796
 6674TIP3    H219980   5.350   1.566   3.836
 6675TIP3   OH219981   7.034   4.265   5.187
 6675TIP3    H119982   6.938   4.264   5.181
 6675TIP3    H219983   7.056   4.358   5.198
 6676TIP3   OH219984  -0.024   4.279   4.286
 6676TIP3    H119985  -0.063   4.347   4.231
 6676TIP3    H219986   0.059   4.316   4.315
 6677TIP3   OH219987   7.467   7.245   5.507
 6677TIP3    H119988   7.426   7.213   5.588
 6677TIP3    H219989   7.459   7.172   5.446
 6678TIP3   OH219990   1.102   4.528   1.383
 6678TIP3    H119991   1.062   4.454   1.430
 6678TIP3    H219992   1.028   4.583   1.356
 6679TIP3   OH219993   4.284   1.622   1.112
 6679TIP3    H119994   4.220   1.685   1.077
 6679TIP3    H219995   4.360   1.630   1.054
 6680TIP3   OH219996   7.166   5.034   0.616
 6680TIP3    H119997   7.073   5.013   0.611
 6680TIP3    H219998   7.168   5.130   0.619
 6681TIP3   OH219999   1.000   2.928   6.261
 6681TIP3    H120000   1.083   2.975   6.268
 6681TIP3    H220001   0.935   2.989   6.294
 6682TIP3   OH220002   1.832   5.456   3.969
 6682TIP3    H120003   1.858   5.486   3.882
 6682TIP3    H220004   1.816   5.537   4.018
 6683TIP3   OH220005   0.761   5.386   6.670
 6683TIP3    H120006   0.843   5.379   6.719
 6683TIP3    H220007   0.696   5.412   6.736
 6684TIP3   OH220008   0.131   1.227   3.934
 6684TIP3    H120009   0.217   1.222   3.976
 6684TIP3    H220010   0.100   1.315   3.954
 6685TIP3   OH220011   6.981   6.320   1.131
 6685TIP3    H120012   7.013   6.230   1.120
 6685TIP3    H220013   6.896   6.320   1.087
 6686TIP3   OH220014   8.196   7.170   6.702
 6686TIP3    H120015   8.207   7.172   6.607
 6686TIP3    H220016   8.141   7.093   6.718
 6687TIP3   OH220017   4.606   5.225   3.920
 6687TIP3    H120018   4.700   5.224   3.904
 6687TIP3    H220019   4.588   5.142   3.962
 6688TIP3   OH220020   1.829   3.543   4.760
 6688TIP3    H120021   1.751   3.554   4.706
 6688TIP3    H220022   1.846   3.449   4.758
 6689TIP3   OH220023   7.498   1.880   0.099
 6689TIP3    H120024   7.476   1.931   0.177
 6689TIP3    H220025   7.497   1.943   0.028
 6690TIP3   OH220026   2.846   7.713   3.236
 6690TIP3    H120027   2.800   7.789   3.271
 6690TIP3    H220028   2.781   7.642   3.240
 6691TIP3   OH220029   6.384   4.292   3.561
 6691TIP3    H120030   6.448   4.336   3.617
 6691TIP3    H220031   6.424   4.207   3.541
 6692TIP3   OH220032   6.366   3.889   1.030
 6692TIP3    H120033   6.420   3.871   0.952
 6692TIP3    H220034   6.293   3.827   1.023
 6693TIP3   OH220035   3.361   0.770   0.897
 6693TIP3    H120036   3.293   0.837   0.899
 6693TIP3    H220037   3.388   0.766   0.805
 6694TIP3   OH220038   2.710   0.768   6.053
 6694TIP3    H120039   2.785   0.714   6.030
 6694TIP3    H220040   2.638   0.735   5.998
 6695TIP3   OH220041   5.502   6.376   4.448
 6695TIP3    H120042   5.538   6.440   4.386
 6695TIP3    H220043   5.481   6.300   4.394
 6696TIP3   OH220044   5.877   6.452   4.290
 6696TIP3    H120045   5.909   6.404   4.367
 6696TIP3    H220046   5.822   6.389   4.244
 6697TIP3   OH220047   4.829   0.614   6.689
 6697TIP3    H120048   4.854   0.630   6.780
 6697TIP3    H220049   4.765   0.682   6.669
 6698TIP3   OH220050   1.932   1.423   0.415
 6698TIP3    H120051   1.860   1.392   0.469
 6698TIP3    H220052   1.901   1.505   0.377
 6699TIP3   OH220053   6.875   4.621   6.103
 6699TIP3    H120054   6.875   4.537   6.057
 6699TIP3    H220055   6.867   4.598   6.195
 6700TIP3   OH220056   0.121   7.363   1.181
 6700TIP3    H120057   0.174   7.304   1.128
 6700TIP3    H220058   0.059   7.402   1.119
 6701TIP3   OH220059   5.445   7.063   1.283
 6701TIP3    H120060   5.435   7.064   1.378
 6701TIP3    H220061   5.413   7.149   1.254
 6702TIP3   OH220062   7.770   1.870   5.569
 6702TIP3    H120063   7.705   1.907   5.509
 6702TIP3    H220064   7.843   1.933   5.566
 6703TIP3   OH220065   3.500   4.280   4.871
 6703TIP3    H120066   3.530   4.190   4.856
 6703TIP3    H220067   3.500   4.319   4.783
 6704TIP3   OH220068   2.133   6.524   2.239
 6704TIP3    H120069   2.211   6.580   2.226
 6704TIP3    H220070   2.103   6.504   2.151
 6705TIP3   OH220071   5.072   4.175   6.628
 6705TIP3    H120072   5.143   4.231   6.659
 6705TIP3    H220073   5.077   4.096   6.682
 6706TIP3   OH220074   1.687   5.541   4.896
 6706TIP3    H120075   1.714   5.471   4.837
 6706TIP3    H220076   1.754   5.609   4.885
 6707TIP3   OH220077   7.531   3.170   0.711
 6707TIP3    H120078   7.605   3.129   0.754
 6707TIP3    H220079   7.490   3.224   0.779
 6708TIP3   OH220080   0.919   3.804   6.521
 6708TIP3    H120081   0.846   3.771   6.469
 6708TIP3    H220082   0.973   3.727   6.537
 6709TIP3   OH220083   3.624   6.017   0.761
 6709TIP3    H120084   3.579   6.062   0.833
 6709TIP3    H220085   3.562   6.021   0.688
 6710TIP3   OH220086   8.197   5.239   0.191
 6710TIP3    H120087   8.166   5.296   0.261
 6710TIP3    H220088   8.145   5.263   0.114
 6711TIP3   OH220089   3.374   7.554   5.844
 6711TIP3    H120090   3.408   7.545   5.756
 6711TIP3    H220091   3.442   7.602   5.892
 6712TIP3   OH220092   0.486   2.973   6.064
 6712TIP3    H120093   0.474   2.880   6.084
 6712TIP3    H220094   0.483   2.977   5.968
 6713TIP3   OH220095   4.297   0.233   1.918
 6713TIP3    H120096   4.346   0.153   1.938
 6713TIP3    H220097   4.331   0.298   1.981
 6714TIP3   OH220098   7.522   4.146   3.254
 6714TIP3    H120099   7.562   4.180   3.334
 6714TIP3    H220100   7.472   4.069   3.282
 6715TIP3   OH220101   4.455   4.168   2.395
 6715TIP3    H120102   4.371   4.134   2.366
 6715TIP3    H220103   4.494   4.097   2.446
 6716TIP3   OH220104   5.259   7.483   4.546
 6716TIP3    H120105   5.350   7.497   4.573
 6716TIP3    H220106   5.259   7.501   4.453
 6717TIP3   OH220107   3.782   6.145   3.931
 6717TIP3    H120108   3.861   6.170   3.980
 6717TIP3    H220109   3.815   6.115   3.846
 6718TIP3   OH220110   7.265   3.699  -0.030
 6718TIP3    H120111   7.324   3.774  -0.018
 6718TIP3    H220112   7.198   3.710   0.038
 6719TIP3   OH220113   0.186   2.806   3.142
 6719TIP3    H120114   0.094   2.790   3.123
 6719TIP3    H220115   0.205   2.890   3.100
 6720TIP3   OH220116   2.882   7.043   3.575
 6720TIP3    H120117   2.885   7.072   3.666
 6720TIP3    H220118   2.973   7.049   3.546
 6721TIP3   OH220119   4.641   7.146   0.427
 6721TIP3    H120120   4.720   7.137   0.373
 6721TIP3    H220121   4.671   7.132   0.516
 6722TIP3   OH220122   7.984   6.316   2.287
 6722TIP3    H120123   7.982   6.296   2.193
 6722TIP3    H220124   8.014   6.236   2.329
 6723TIP3   OH220125   1.530   7.749   2.080
 6723TIP3    H120126   1.534   7.675   2.139
 6723TIP3    H220127   1.520   7.825   2.137
 6724TIP3   OH220128   2.441   7.408   3.684
 6724TIP3    H120129   2.458   7.366   3.599
 6724TIP3    H220130   2.346   7.406   3.694
 6725TIP3   OH220131   1.650   4.026   0.469
 6725TIP3    H120132   1.632   3.933   0.458
 6725TIP3    H220133   1.565   4.064   0.489
 6726TIP3   OH220134   5.678   6.320   0.296
 6726TIP3    H120135   5.627   6.277   0.364
 6726TIP3    H220136   5.764   6.333   0.336
 6727TIP3   OH220137   8.297   6.917   2.935
 6727TIP3    H120138   8.242   6.853   2.891
 6727TIP3    H220139   8.236   6.988   2.958
 6728TIP3   OH220140   7.013   5.747   5.609
 6728TIP3    H120141   7.052   5.833   5.593
 6728TIP3    H220142   7.088   5.689   5.621
 6729TIP3   OH220143   1.585   1.952   2.393
 6729TIP3    H120144   1.502   1.904   2.387
 6729TIP3    H220145   1.602   1.959   2.487
 6730TIP3   OH220146   6.969   6.887   3.856
 6730TIP3    H120147   6.957   6.876   3.950
 6730TIP3    H220148   7.001   6.802   3.825
 6731TIP3   OH220149   6.263   4.348   1.291
 6731TIP3    H120150   6.338   4.348   1.350
 6731TIP3    H220151   6.266   4.433   1.248
 6732TIP3   OH220152   6.604   7.702   0.546
 6732TIP3    H120153   6.649   7.756   0.482
 6732TIP3    H220154   6.547   7.645   0.494
 6733TIP3   OH220155   3.893   0.901   5.050
 6733TIP3    H120156   3.841   0.820   5.054
 6733TIP3    H220157   3.978   0.876   5.086
 6734TIP3   OH220158   4.392   5.441   1.638
 6734TIP3    H120159   4.404   5.445   1.544
 6734TIP3    H220160   4.479   5.426   1.674
 6735TIP3   OH220161   0.166   4.108   5.022
 6735TIP3    H120162   0.250   4.147   4.999
 6735TIP3    H220163   0.111   4.118   4.944
 6736TIP3   OH220164   5.064   4.861   2.341
 6736TIP3    H120165   5.146   4.858   2.392
 6736TIP3    H220166   5.036   4.770   2.335
 6737TIP3   OH220167   4.745   3.280   5.044
 6737TIP3    H120168   4.787   3.353   4.999
 6737TIP3    H220169   4.782   3.202   5.003
 6738TIP3   OH220170   3.492   4.809   0.575
 6738TIP3    H120171   3.484   4.869   0.500
 6738TIP3    H220172   3.478   4.722   0.537
 6739TIP3   OH220173   3.772   7.848   1.819
 6739TIP3    H120174   3.744   7.764   1.782
 6739TIP3    H220175   3.855   7.829   1.862
 6740TIP3   OH220176   7.885   5.003   2.473
 6740TIP3    H120177   7.965   4.970   2.513
 6740TIP3    H220178   7.914   5.072   2.414
 6741TIP3   OH220179   4.920   0.136   6.661
 6741TIP3    H120180   4.903   0.136   6.755
 6741TIP3    H220181   4.931   0.044   6.638
 6742TIP3   OH220182   2.276   2.197   3.639
 6742TIP3    H120183   2.346   2.132   3.637
 6742TIP3    H220184   2.304   2.265   3.578
 6743TIP3   OH220185   2.542   4.268   2.852
 6743TIP3    H120186   2.458   4.231   2.883
 6743TIP3    H220187   2.529   4.280   2.758
 6744TIP3   OH220188   7.164   0.722   5.929
 6744TIP3    H120189   7.096   0.671   5.973
 6744TIP3    H220190   7.211   0.658   5.876
 6745TIP3   OH220191   4.173   0.753   4.026
 6745TIP3    H120192   4.100   0.695   4.049
 6745TIP3    H220193   4.214   0.773   4.110
 6746TIP3   OH220194   3.343   6.206   1.742
 6746TIP3    H120195   3.321   6.254   1.822
 6746TIP3    H220196   3.286   6.242   1.675
 6747TIP3   OH220197   8.110   5.699   1.271
 6747TIP3    H120198   8.096   5.713   1.365
 6747TIP3    H220199   8.108   5.604   1.261
 6748TIP3   OH220200   3.777   4.861   5.368
 6748TIP3    H120201   3.839   4.812   5.314
 6748TIP3    H220202   3.693   4.815   5.356
 6749TIP3   OH220203   2.694   7.465   3.219
 6749TIP3    H120204   2.729   7.404   3.284
 6749TIP3    H220205   2.600   7.465   3.235
 6750TIP3   OH220206   4.394   2.101   3.640
 6750TIP3    H120207   4.312   2.051   3.644
 6750TIP3    H220208   4.436   2.084   3.725
 6751TIP3   OH220209   0.155   4.425   4.890
 6751TIP3    H120210   0.133   4.379   4.809
 6751TIP3    H220211   0.199   4.505   4.861
 6752TIP3   OH220212   1.299   4.220   2.553
 6752TIP3    H120213   1.282   4.246   2.463
 6752TIP3    H220214   1.331   4.299   2.596
 6753TIP3   OH220215   0.436   1.621   1.305
 6753TIP3    H120216   0.483   1.547   1.344
 6753TIP3    H220217   0.477   1.631   1.219
 6754TIP3   OH220218   4.195   6.935   0.333
 6754TIP3    H120219   4.108   6.916   0.298
 6754TIP3    H220220   4.253   6.933   0.257
 6755TIP3   OH220221   3.396   3.971   4.941
 6755TIP3    H120222   3.487   3.983   4.914
 6755TIP3    H220223   3.397   3.897   5.002
 6756TIP3   OH220224   3.424   4.855   1.868
 6756TIP3    H120225   3.437   4.901   1.950
 6756TIP3    H220226   3.495   4.790   1.866
 6757TIP3   OH220227   6.963   1.026   3.283
 6757TIP3    H120228   7.047   1.069   3.297
 6757TIP3    H220229   6.982   0.956   3.220
 6758TIP3   OH220230   3.711   0.498   6.167
 6758TIP3    H120231   3.621   0.500   6.135
 6758TIP3    H220232   3.704   0.486   6.261
 6759TIP3   OH220233   5.368   2.211   3.067
 6759TIP3    H120234   5.397   2.251   3.149
 6759TIP3    H220235   5.316   2.136   3.094
 6760TIP3   OH220236   5.568   6.058   5.405
 6760TIP3    H120237   5.575   6.030   5.496
 6760TIP3    H220238   5.478   6.091   5.397
 6761TIP3   OH220239   3.856   3.023   3.220
 6761TIP3    H120240   3.768   3.061   3.224
 6761TIP3    H220241   3.841   2.928   3.228
 6762TIP3   OH220242   1.744   4.055   4.535
 6762TIP3    H120243   1.761   4.134   4.484
 6762TIP3    H220244   1.820   4.049   4.594
 6763TIP3   OH220245   7.389   2.768   2.550
 6763TIP3    H120246   7.461   2.831   2.556
 6763TIP3    H220247   7.346   2.771   2.635
 6764TIP3   OH220248   4.728   1.567   4.735
 6764TIP3    H120249   4.797   1.503   4.717
 6764TIP3    H220250   4.771   1.652   4.722
 6765TIP3   OH220251   0.628   2.946   5.517
 6765TIP3    H120252   0.694   3.016   5.511
 6765TIP3    H220253   0.549   2.991   5.546
 6766TIP3   OH220254   7.042   2.743   3.816
 6766TIP3    H120255   6.963   2.774   3.860
 6766TIP3    H220256   7.028   2.650   3.802
 6767TIP3   OH220257   1.550   5.252   1.250
 6767TIP3    H120258   1.580   5.194   1.319
 6767TIP3    H220259   1.576   5.340   1.278
 6768TIP3   OH220260   3.626   4.956   4.114
 6768TIP3    H120261   3.552   4.919   4.162
 6768TIP3    H220262   3.596   4.960   4.023
 6769TIP3   OH220263   7.511   1.879   4.615
 6769TIP3    H120264   7.445   1.944   4.640
 6769TIP3    H220265   7.552   1.853   4.698
 6770TIP3   OH220266   2.808   6.066   4.559
 6770TIP3    H120267   2.731   6.032   4.605
 6770TIP3    H220268   2.876   6.001   4.575
 6771TIP3   OH220269   4.963   3.606   6.038
 6771TIP3    H120270   4.997   3.551   6.108
 6771TIP3    H220271   4.897   3.551   5.995
 6772TIP3   OH220272   8.306   4.250   1.986
 6772TIP3    H120273   8.212   4.230   1.992
 6772TIP3    H220274   8.309   4.341   1.956
 6773TIP3   OH220275   3.279   5.890   5.180
 6773TIP3    H120276   3.225   5.898   5.101
 6773TIP3    H220277   3.217   5.899   5.252
 6774TIP3   OH220278   7.537   6.225   5.820
 6774TIP3    H120279   7.489   6.167   5.878
 6774TIP3    H220280   7.479   6.300   5.808
 6775TIP3   OH220281   5.620   7.402   5.712
 6775TIP3    H120282   5.616   7.481   5.766
 6775TIP3    H220283   5.677   7.426   5.639
 6776TIP3   OH220284   4.145   2.072   2.430
 6776TIP3    H120285   4.117   2.026   2.351
 6776TIP3    H220286   4.233   2.105   2.409
 6777TIP3   OH220287   3.402   5.703   4.779
 6777TIP3    H120288   3.480   5.756   4.762
 6777TIP3    H220289   3.408   5.630   4.718
 6778TIP3   OH220290   5.565   2.245   0.936
 6778TIP3    H120291   5.500   2.207   0.877
 6778TIP3    H220292   5.646   2.199   0.917
 6779TIP3   OH220293   5.765   5.916   4.733
 6779TIP3    H120294   5.743   5.892   4.643
 6779TIP3    H220295   5.735   5.842   4.786
 6780TIP3   OH220296   6.395   7.570   2.964
 6780TIP3    H120297   6.382   7.536   3.052
 6780TIP3    H220298   6.404   7.492   2.909
 6781TIP3   OH220299   7.733   6.871   3.433
 6781TIP3    H120300   7.820   6.838   3.414
 6781TIP3    H220301   7.675   6.796   3.418
 6782TIP3   OH220302   3.363   7.194   2.623
 6782TIP3    H120303   3.328   7.113   2.587
 6782TIP3    H220304   3.447   7.169   2.661
 6783TIP3   OH220305   8.235   3.528   5.704
 6783TIP3    H120306   8.303   3.471   5.669
 6783TIP3    H220307   8.274   3.615   5.706
 6784TIP3   OH220308   0.021   6.585   0.495
 6784TIP3    H120309  -0.059   6.563   0.447
 6784TIP3    H220310   0.082   6.615   0.427
 6785TIP3   OH220311   5.910   4.494   1.239
 6785TIP3    H120312   5.848   4.522   1.171
 6785TIP3    H220313   5.931   4.403   1.215
 6786TIP3   OH220314   0.773   5.927   0.250
 6786TIP3    H120315   0.806   6.008   0.290
 6786TIP3    H220316   0.679   5.929   0.266
 6787TIP3   OH220317   7.458   7.376   4.168
 6787TIP3    H120318   7.369   7.410   4.159
 6787TIP3    H220319   7.505   7.443   4.217
 6788TIP3   OH220320   6.017   6.578   0.245
 6788TIP3    H120321   6.054   6.492   0.264
 6788TIP3    H220322   6.058   6.637   0.308
 6789TIP3   OH220323   8.221   3.761   1.777
 6789TIP3    H120324   8.222   3.856   1.786
 6789TIP3    H220325   8.161   3.745   1.703
 6790TIP3   OH220326   7.201   4.754   2.834
 6790TIP3    H120327   7.250   4.833   2.811
 6790TIP3    H220328   7.251   4.714   2.905
 6791TIP3   OH220329   4.355   2.080   2.254
 6791TIP3    H120330   4.329   2.148   2.192
 6791TIP3    H220331   4.437   2.045   2.219
 6792TIP3   OH220332   2.395   6.916   6.486
 6792TIP3    H120333   2.442   6.999   6.487
 6792TIP3    H220334   2.450   6.859   6.432
 6793TIP3   OH220335   3.924   4.717   1.553
 6793TIP3    H120336   3.900   4.743   1.642
 6793TIP3    H220337   3.902   4.793   1.499
 6794TIP3   OH220338   6.280   6.631   5.501
 6794TIP3    H120339   6.240   6.636   5.588
 6794TIP3    H220340   6.212   6.660   5.441
 6795TIP3   OH220341   1.454   3.172   0.973
 6795TIP3    H120342   1.471   3.199   1.063
 6795TIP3    H220343   1.406   3.089   0.981
 6796TIP3   OH220344   4.447   1.662   3.546
 6796TIP3    H120345   4.370   1.606   3.553
 6796TIP3    H220346   4.426   1.723   3.475
 6797TIP3   OH220347   2.246   5.942   4.626
 6797TIP3    H120348   2.257   5.992   4.545
 6797TIP3    H220349   2.243   5.850   4.597
 6798TIP3   OH220350   0.335   7.181   5.899
 6798TIP3    H120351   0.302   7.115   5.838
 6798TIP3    H220352   0.341   7.136   5.983
 6799TIP3   OH220353   0.793   1.714   1.327
 6799TIP3    H120354   0.816   1.793   1.377
 6799TIP3    H220355   0.779   1.647   1.394
 6800TIP3   OH220356   2.542   4.763   4.103
 6800TIP3    H120357   2.501   4.679   4.120
 6800TIP3    H220358   2.631   4.755   4.139
 6801TIP3   OH220359   1.072   3.083   0.100
 6801TIP3    H120360   1.101   3.089   0.009
 6801TIP3    H220361   0.993   3.138   0.103
 6802TIP3   OH220362   1.970   4.768   5.334
 6802TIP3    H120363   1.899   4.812   5.287
 6802TIP3    H220364   2.000   4.699   5.275
 6803TIP3   OH220365   5.660   2.490   2.729
 6803TIP3    H120366   5.707   2.417   2.770
 6803TIP3    H220367   5.648   2.462   2.638
 6804TIP3   OH220368   5.078   2.222   5.177
 6804TIP3    H120369   5.024   2.170   5.237
 6804TIP3    H220370   5.016   2.284   5.137
 6805TIP3   OH220371   1.213   6.758   1.752
 6805TIP3    H120372   1.203   6.837   1.805
 6805TIP3    H220373   1.210   6.686   1.815
 6806TIP3   OH220374   8.292   5.445   4.691
 6806TIP3    H120375   8.332   5.461   4.606
 6806TIP3    H220376   8.351   5.382   4.734
 6807TIP3   OH220377   6.354   1.032   6.185
 6807TIP3    H120378   6.362   1.027   6.089
 6807TIP3    H220379   6.305   1.112   6.201
 6808TIP3   OH220380   2.005   1.305   5.172
 6808TIP3    H120381   1.972   1.283   5.259
 6808TIP3    H220382   1.944   1.262   5.112
 6809TIP3   OH220383   1.443   6.347   2.505
 6809TIP3    H120384   1.438   6.441   2.521
 6809TIP3    H220385   1.472   6.340   2.414
 6810TIP3   OH220386   0.161   5.071   1.031
 6810TIP3    H120387   0.222   5.002   1.055
 6810TIP3    H220388   0.188   5.147   1.083
 6811TIP3   OH220389   0.081   7.846   5.499
 6811TIP3    H120390   0.008   7.854   5.560
 6811TIP3    H220391   0.090   7.752   5.486
 6812TIP3   OH220392   1.217   0.979   2.537
 6812TIP3    H120393   1.183   0.930   2.612
 6812TIP3    H220394   1.290   1.030   2.574
 6813TIP3   OH220395   0.265   4.217   6.279
 6813TIP3    H120396   0.334   4.235   6.343
 6813TIP3    H220397   0.308   4.225   6.194
 6814TIP3   OH220398   3.236   1.885   5.046
 6814TIP3    H120399   3.243   1.806   5.100
 6814TIP3    H220400   3.212   1.954   5.108
 6815TIP3   OH220401   5.351   7.554   3.161
 6815TIP3    H120402   5.387   7.533   3.075
 6815TIP3    H220403   5.347   7.470   3.207
 6816TIP3   OH220404   3.616   6.780   1.198
 6816TIP3    H120405   3.562   6.764   1.275
 6816TIP3    H220406   3.686   6.715   1.203
 6817TIP3   OH220407   5.009   3.049   6.011
 6817TIP3    H120408   5.034   3.027   5.922
 6817TIP3    H220409   4.919   3.081   6.004
 6818TIP3   OH220410   2.287   7.569   4.757
 6818TIP3    H120411   2.224   7.560   4.828
 6818TIP3    H220412   2.352   7.631   4.791
 6819TIP3   OH220413   1.562   3.120   0.095
 6819TIP3    H120414   1.536   3.041   0.047
 6819TIP3    H220415   1.583   3.184   0.028
 6820TIP3   OH220416   4.038   5.459   0.748
 6820TIP3    H120417   4.125   5.417   0.753
 6820TIP3    H220418   4.055   5.546   0.713
 6821TIP3   OH220419   3.172   0.996   1.613
 6821TIP3    H120420   3.168   0.921   1.553
 6821TIP3    H220421   3.191   1.071   1.557
 6822TIP3   OH220422   2.233   4.187   4.340
 6822TIP3    H120423   2.317   4.216   4.303
 6822TIP3    H220424   2.174   4.260   4.323
 6823TIP3   OH220425   5.780   0.236   3.949
 6823TIP3    H120426   5.777   0.223   4.044
 6823TIP3    H220427   5.710   0.181   3.914
 6824TIP3   OH220428   0.510   0.391   1.452
 6824TIP3    H120429   0.532   0.394   1.359
 6824TIP3    H220430   0.592   0.366   1.495
 6825TIP3   OH220431   3.534   6.629   3.251
 6825TIP3    H120432   3.567   6.555   3.302
 6825TIP3    H220433   3.589   6.631   3.172
 6826TIP3   OH220434   4.869   2.336   5.067
 6826TIP3    H120435   4.889   2.429   5.064
 6826TIP3    H220436   4.778   2.329   5.039
 6827TIP3   OH220437   5.918   4.043   1.051
 6827TIP3    H120438   5.872   3.960   1.040
 6827TIP3    H220439   5.992   4.037   0.989
 6828TIP3   OH220440   2.483   0.415   3.232
 6828TIP3    H120441   2.478   0.473   3.308
 6828TIP3    H220442   2.541   0.344   3.260
 6829TIP3   OH220443   5.938   0.912   1.804
 6829TIP3    H120444   5.966   1.003   1.799
 6829TIP3    H220445   5.940   0.891   1.897
 6830TIP3   OH220446   6.591   2.971   3.322
 6830TIP3    H120447   6.513   2.941   3.276
 6830TIP3    H220448   6.585   2.931   3.409
 6831TIP3   OH220449   5.703   4.945   1.715
 6831TIP3    H120450   5.723   5.028   1.758
 6831TIP3    H220451   5.787   4.916   1.678
 6832TIP3   OH220452   2.251   1.267   4.961
 6832TIP3    H120453   2.204   1.330   5.016
 6832TIP3    H220454   2.344   1.285   4.978
 6833TIP3   OH220455   0.795   6.977   5.579
 6833TIP3    H120456   0.821   6.898   5.533
 6833TIP3    H220457   0.767   7.038   5.511
 6834TIP3   OH220458   7.952   4.244   5.213
 6834TIP3    H120459   7.967   4.164   5.163
 6834TIP3    H220460   8.035   4.259   5.258
 6835TIP3   OH220461   1.020   4.488   0.045
 6835TIP3    H120462   1.042   4.580   0.060
 6835TIP3    H220463   1.100   4.450   0.008
 6836TIP3   OH220464   7.869   5.272   3.827
 6836TIP3    H120465   7.820   5.294   3.906
 6836TIP3    H220466   7.892   5.180   3.837
 6837TIP3   OH220467   4.154   4.296   3.830
 6837TIP3    H120468   4.061   4.303   3.850
 6837TIP3    H220469   4.164   4.211   3.788
 6838TIP3   OH220470   4.462   1.743   5.214
 6838TIP3    H120471   4.547   1.767   5.250
 6838TIP3    H220472   4.471   1.650   5.192
 6839TIP3   OH220473   4.070   7.137   5.902
 6839TIP3    H120474   3.997   7.111   5.846
 6839TIP3    H220475   4.118   7.202   5.851
 6840TIP3   OH220476   2.007   3.589   2.387
 6840TIP3    H120477   2.001   3.661   2.450
 6840TIP3    H220478   2.085   3.608   2.336
 6841TIP3   OH220479   7.376   5.634   2.851
 6841TIP3    H120480   7.378   5.581   2.772
 6841TIP3    H220481   7.306   5.698   2.836
 6842TIP3   OH220482   4.320   6.462   1.461
 6842TIP3    H120483   4.243   6.503   1.500
 6842TIP3    H220484   4.394   6.503   1.506
 6843TIP3   OH220485   0.624   2.803   0.905
 6843TIP3    H120486   0.671   2.766   0.830
 6843TIP3    H220487   0.692   2.821   0.970
 6844TIP3   OH220488   6.987   7.134   2.929
 6844TIP3    H120489   7.073   7.110   2.962
 6844TIP3    H220490   6.925   7.082   2.981
 6845TIP3   OH220491   7.759   4.730   1.526
 6845TIP3    H120492   7.800   4.814   1.507
 6845TIP3    H220493   7.827   4.665   1.508
 6846TIP3   OH220494   1.314   4.242   2.022
 6846TIP3    H120495   1.314   4.152   1.992
 6846TIP3    H220496   1.382   4.285   1.969
 6847TIP3   OH220497   3.598   1.614   1.589
 6847TIP3    H120498   3.675   1.666   1.612
 6847TIP3    H220499   3.588   1.626   1.494
 6848TIP3   OH220500   2.841   6.299   4.705
 6848TIP3    H120501   2.854   6.219   4.656
 6848TIP3    H220502   2.809   6.270   4.791
 6849TIP3   OH220503   6.722   2.033   2.327
 6849TIP3    H120504   6.754   2.122   2.315
 6849TIP3    H220505   6.771   1.999   2.402
 6850TIP3   OH220506   6.340   3.891   2.757
 6850TIP3    H120507   6.403   3.899   2.829
 6850TIP3    H220508   6.259   3.926   2.793
 6851TIP3   OH220509   4.226   0.276   4.924
 6851TIP3    H120510   4.164   0.224   4.873
 6851TIP3    H220511   4.304   0.280   4.869
 6852TIP3   OH220512   7.924   3.722   1.027
 6852TIP3    H120513   7.863   3.712   0.954
 6852TIP3    H220514   7.981   3.645   1.022
 6853TIP3   OH220515   5.610   0.967   6.223
 6853TIP3    H120516   5.642   0.944   6.310
 6853TIP3    H220517   5.685   0.952   6.165
 6854TIP3   OH220518   7.348   6.571   2.069
 6854TIP3    H120519   7.350   6.656   2.111
 6854TIP3    H220520   7.254   6.549   2.064
 6855TIP3   OH220521   3.684   5.965   6.136
 6855TIP3    H120522   3.599   6.001   6.162
 6855TIP3    H220523   3.666   5.921   6.053
 6856TIP3   OH220524   4.560   3.316   2.526
 6856TIP3    H120525   4.520   3.388   2.479
 6856TIP3    H220526   4.628   3.283   2.466
 6857TIP3   OH220527   7.277   2.796   3.949
 6857TIP3    H120528   7.270   2.748   4.031
 6857TIP3    H220529   7.190   2.792   3.911
 6858TIP3   OH220530   2.245   2.008   3.888
 6858TIP3    H120531   2.250   2.080   3.950
 6858TIP3    H220532   2.243   2.050   3.802
 6859TIP3   OH220533   6.989   3.684   5.267
 6859TIP3    H120534   7.004   3.712   5.357
 6859TIP3    H220535   6.958   3.594   5.274
 6860TIP3   OH220536   8.107   6.000   5.237
 6860TIP3    H120537   8.149   5.958   5.312
 6860TIP3    H220538   8.158   5.972   5.161
 6861TIP3   OH220539   5.199   2.569   2.895
 6861TIP3    H120540   5.200   2.489   2.843
 6861TIP3    H220541   5.137   2.550   2.965
 6862TIP3   OH220542   5.010   3.716   4.952
 6862TIP3    H120543   4.955   3.793   4.967
 6862TIP3    H220544   5.052   3.700   5.036
 6863TIP3   OH220545   2.325   5.499   5.348
 6863TIP3    H120546   2.403   5.443   5.342
 6863TIP3    H220547   2.274   5.476   5.271
 6864TIP3   OH220548   2.471   6.473   2.094
 6864TIP3    H120549   2.500   6.415   2.165
 6864TIP3    H220550   2.544   6.473   2.032
 6865TIP3   OH220551   2.708   5.348   4.553
 6865TIP3    H120552   2.797   5.325   4.577
 6865TIP3    H220553   2.677   5.406   4.623
 6866TIP3   OH220554   1.370   6.122   0.601
 6866TIP3    H120555   1.434   6.092   0.537
 6866TIP3    H220556   1.301   6.056   0.600
 6867TIP3   OH220557   7.969   5.198   6.343
 6867TIP3    H120558   8.016   5.231   6.420
 6867TIP3    H220559   7.989   5.261   6.274
 6868TIP3   OH220560   7.157   3.317   3.685
 6868TIP3    H120561   7.225   3.307   3.752
 6868TIP3    H220562   7.091   3.252   3.707
 6869TIP3   OH220563   2.681   3.838   4.498
 6869TIP3    H120564   2.732   3.809   4.573
 6869TIP3    H220565   2.740   3.828   4.423
 6870TIP3   OH220566   4.394   6.097   0.954
 6870TIP3    H120567   4.300   6.093   0.935
 6870TIP3    H220568   4.401   6.066   1.045
 6871TIP3   OH220569   0.776   6.818   4.237
 6871TIP3    H120570   0.748   6.735   4.197
 6871TIP3    H220571   0.859   6.838   4.194
 6872TIP3   OH220572   4.342   6.424   6.020
 6872TIP3    H120573   4.345   6.511   5.979
 6872TIP3    H220574   4.335   6.363   5.947
 6873TIP3   OH220575   5.802   1.093   4.561
 6873TIP3    H120576   5.709   1.075   4.571
 6873TIP3    H220577   5.825   1.057   4.475
 6874TIP3   OH220578   7.138   5.828   6.696
 6874TIP3    H120579   7.050   5.797   6.716
 6874TIP3    H220580   7.172   5.859   6.780
 6875TIP3   OH220581   5.947   6.048   3.808
 6875TIP3    H120582   6.006   6.090   3.871
 6875TIP3    H220583   5.886   6.118   3.783
 6876TIP3   OH220584   5.259   3.118   2.124
 6876TIP3    H120585   5.210   3.089   2.200
 6876TIP3    H220586   5.284   3.208   2.143
 6877TIP3   OH220587   0.759   4.840   0.912
 6877TIP3    H120588   0.772   4.787   0.833
 6877TIP3    H220589   0.669   4.873   0.904
 6878TIP3   OH220590   5.687   0.331   1.033
 6878TIP3    H120591   5.615   0.393   1.021
 6878TIP3    H220592   5.655   0.250   0.992
 6879TIP3   OH220593   7.725   4.319   3.679
 6879TIP3    H120594   7.634   4.319   3.707
 6879TIP3    H220595   7.764   4.394   3.725
 6880TIP3   OH220596   4.596   5.920   1.391
 6880TIP3    H120597   4.509   5.891   1.364
 6880TIP3    H220598   4.601   5.901   1.485
 6881TIP3   OH220599   7.048   5.798   4.853
 6881TIP3    H120600   7.099   5.798   4.934
 6881TIP3    H220601   7.062   5.885   4.816
 6882TIP3   OH220602   2.400   2.184   3.319
 6882TIP3    H120603   2.365   2.096   3.333
 6882TIP3    H220604   2.340   2.225   3.257
 6883TIP3   OH220605   1.676   2.380   3.388
 6883TIP3    H120606   1.709   2.332   3.464
 6883TIP3    H220607   1.610   2.321   3.350
 6884TIP3   OH220608   2.032   3.060   0.508
 6884TIP3    H120609   1.947   3.082   0.545
 6884TIP3    H220610   2.016   2.980   0.457
 6885TIP3   OH220611   3.870   3.738   1.780
 6885TIP3    H120612   3.885   3.729   1.874
 6885TIP3    H220613   3.957   3.754   1.744
 6886TIP3   OH220614   4.291   2.742   5.826
 6886TIP3    H120615   4.357   2.767   5.890
 6886TIP3    H220616   4.207   2.756   5.870
 6887TIP3   OH220617   3.564   3.240   1.688
 6887TIP3    H120618   3.605   3.244   1.601
 6887TIP3    H220619   3.629   3.277   1.747
 6888TIP3   OH220620   6.735   6.669   3.803
 6888TIP3    H120621   6.799   6.670   3.732
 6888TIP3    H220622   6.732   6.577   3.831
 6889TIP3   OH220623   4.529   2.005   6.601
 6889TIP3    H120624   4.510   1.939   6.535
 6889TIP3    H220625   4.444   2.031   6.636
 6890TIP3   OH220626   3.929   0.600   3.974
 6890TIP3    H120627   3.892   0.652   4.045
 6890TIP3    H220628   3.899   0.510   3.991
 6891TIP3   OH220629   6.749   4.791   4.087
 6891TIP3    H120630   6.838   4.758   4.089
 6891TIP3    H220631   6.749   4.868   4.144
 6892TIP3   OH220632   0.951   1.019   1.832
 6892TIP3    H120633   0.966   1.096   1.887
 6892TIP3    H220634   1.036   0.974   1.829
 6893TIP3   OH220635   1.515   7.610   4.448
 6893TIP3    H120636   1.448   7.655   4.499
 6893TIP3    H220637   1.595   7.620   4.499
 6894TIP3   OH220638   0.379   3.660   6.127
 6894TIP3    H120639   0.420   3.736   6.169
 6894TIP3    H220640   0.331   3.696   6.053
 6895TIP3   OH220641   6.468   5.007   1.444
 6895TIP3    H120642   6.526   4.931   1.453
 6895TIP3    H220643   6.470   5.027   1.350
 6896TIP3   OH220644   1.183   6.475   0.874
 6896TIP3    H120645   1.226   6.391   0.854
 6896TIP3    H220646   1.120   6.487   0.803
 6897TIP3   OH220647   5.707   4.898   5.992
 6897TIP3    H120648   5.748   4.931   6.071
 6897TIP3    H220649   5.762   4.825   5.964
 6898TIP3   OH220650   2.196   2.516   2.566
 6898TIP3    H120651   2.167   2.522   2.475
 6898TIP3    H220652   2.238   2.600   2.583
 6899TIP3   OH220653   1.512   0.845   2.070
 6899TIP3    H120654   1.442   0.819   2.011
 6899TIP3    H220655   1.490   0.805   2.154
 6900TIP3   OH220656   0.604   4.637   1.375
 6900TIP3    H120657   0.652   4.698   1.319
 6900TIP3    H220658   0.652   4.554   1.366
 6901TIP3   OH220659   5.003   5.020   6.590
 6901TIP3    H120660   4.985   5.003   6.683
 6901TIP3    H220661   5.004   4.933   6.550
 6902TIP3   OH220662   5.907   4.169   3.630
 6902TIP3    H120663   5.916   4.139   3.540
 6902TIP3    H220664   5.975   4.236   3.641
 6903TIP3   OH220665   4.191   7.754   0.865
 6903TIP3    H120666   4.251   7.823   0.836
 6903TIP3    H220667   4.145   7.728   0.785
 6904TIP3   OH220668   0.804   5.420   0.824
 6904TIP3    H120669   0.808   5.350   0.759
 6904TIP3    H220670   0.869   5.395   0.890
 6905TIP3   OH220671   0.210   2.861   0.567
 6905TIP3    H120672   0.266   2.831   0.639
 6905TIP3    H220673   0.258   2.836   0.488
 6906TIP3   OH220674   1.996   0.809   0.324
 6906TIP3    H120675   1.926   0.768   0.374
 6906TIP3    H220676   2.058   0.840   0.390
 6907TIP3   OH220677   6.778   0.442   1.613
 6907TIP3    H120678   6.739   0.530   1.607
 6907TIP3    H220679   6.703   0.383   1.606
 6908TIP3   OH220680   3.794   6.914   3.976
 6908TIP3    H120681   3.733   6.980   4.011
 6908TIP3    H220682   3.830   6.954   3.897
 6909TIP3   OH220683   4.343   4.786   6.297
 6909TIP3    H120684   4.286   4.716   6.266
 6909TIP3    H220685   4.365   4.836   6.218
 6910TIP3   OH220686   5.671   2.021   3.849
 6910TIP3    H120687   5.640   1.942   3.805
 6910TIP3    H220688   5.602   2.043   3.911
 6911TIP3   OH220689   7.983   6.654   1.929
 6911TIP3    H120690   8.050   6.592   1.956
 6911TIP3    H220691   7.916   6.648   1.997
 6912TIP3   OH220692   6.299   1.489   1.441
 6912TIP3    H120693   6.264   1.427   1.504
 6912TIP3    H220694   6.379   1.448   1.408
 6913TIP3   OH220695   2.032   5.163   3.722
 6913TIP3    H120696   2.044   5.198   3.810
 6913TIP3    H220697   1.945   5.124   3.722
 6914TIP3   OH220698   5.550   6.758   3.117
 6914TIP3    H120699   5.636   6.794   3.094
 6914TIP3    H220700   5.555   6.666   3.091
 6915TIP3   OH220701   6.497   3.128   5.135
 6915TIP3    H120702   6.453   3.100   5.055
 6915TIP3    H220703   6.590   3.123   5.115
 6916TIP3   OH220704   8.220   1.775   1.628
 6916TIP3    H120705   8.154   1.783   1.559
 6916TIP3    H220706   8.298   1.745   1.583
 6917TIP3   OH220707   3.061   0.658   2.360
 6917TIP3    H120708   3.070   0.603   2.282
 6917TIP3    H220709   2.998   0.612   2.415
 6918TIP3   OH220710   1.732   7.413   1.089
 6918TIP3    H120711   1.656   7.443   1.038
 6918TIP3    H220712   1.742   7.321   1.064
 6919TIP3   OH220713   4.023   4.790   0.104
 6919TIP3    H120714   3.931   4.779   0.127
 6919TIP3    H220715   4.067   4.716   0.144
 6920TIP3   OH220716   2.739   5.790   4.183
 6920TIP3    H120717   2.769   5.874   4.148
 6920TIP3    H220718   2.774   5.725   4.123
 6921TIP3   OH220719   3.557   1.798   4.556
 6921TIP3    H120720   3.519   1.858   4.620
 6921TIP3    H220721   3.488   1.733   4.540
 6922TIP3   OH220722   7.627   3.102   0.278
 6922TIP3    H120723   7.647   3.188   0.240
 6922TIP3    H220724   7.702   3.047   0.253
 6923TIP3   OH220725   8.073   7.701   2.628
 6923TIP3    H120726   8.159   7.740   2.639
 6923TIP3    H220727   8.012   7.765   2.666
 6924TIP3   OH220728   0.460   0.993   2.742
 6924TIP3    H120729   0.412   1.074   2.723
 6924TIP3    H220730   0.483   1.001   2.835
 6925TIP3   OH220731   1.839   0.170   2.038
 6925TIP3    H120732   1.862   0.249   1.990
 6925TIP3    H220733   1.787   0.118   1.977
 6926TIP3   OH220734   4.671   7.497   0.221
 6926TIP3    H120735   4.713   7.455   0.147
 6926TIP3    H220736   4.595   7.441   0.241
 6927TIP3   OH220737   4.225   3.606   5.805
 6927TIP3    H120738   4.224   3.688   5.755
 6927TIP3    H220739   4.251   3.633   5.894
 6928TIP3   OH220740   3.093   3.706   5.702
 6928TIP3    H120741   3.165   3.661   5.659
 6928TIP3    H220742   3.061   3.644   5.768
 6929TIP3   OH220743   7.451   4.597   0.721
 6929TIP3    H120744   7.540   4.632   0.729
 6929TIP3    H220745   7.396   4.674   0.712
 6930TIP3   OH220746   2.345   0.974   2.998
 6930TIP3    H120747   2.390   0.934   3.072
 6930TIP3    H220748   2.408   1.036   2.961
 6931TIP3   OH220749   2.851   7.775   1.582
 6931TIP3    H120750   2.870   7.682   1.596
 6931TIP3    H220751   2.934   7.819   1.595
 6932TIP3   OH220752   6.526   0.939   4.026
 6932TIP3    H120753   6.587   0.907   3.960
 6932TIP3    H220754   6.495   1.023   3.992
 6933TIP3   OH220755   0.866   7.435   1.490
 6933TIP3    H120756   0.818   7.493   1.549
 6933TIP3    H220757   0.878   7.354   1.539
 6934TIP3   OH220758   1.583   2.829   0.855
 6934TIP3    H120759   1.640   2.881   0.798
 6934TIP3    H220760   1.622   2.742   0.856
 6935TIP3   OH220761   5.839   6.551   3.292
 6935TIP3    H120762   5.884   6.478   3.334
 6935TIP3    H220763   5.772   6.510   3.237
 6936TIP3   OH220764   5.140   5.908   2.622
 6936TIP3    H120765   5.115   5.967   2.551
 6936TIP3    H220766   5.221   5.866   2.591
 6937TIP3   OH220767   3.796   6.161   5.731
 6937TIP3    H120768   3.782   6.137   5.639
 6937TIP3    H220769   3.713   6.141   5.774
 6938TIP3   OH220770   0.267   4.562   5.914
 6938TIP3    H120771   0.340   4.623   5.923
 6938TIP3    H220772   0.253   4.529   6.003
 6939TIP3   OH220773   8.186   7.076   4.970
 6939TIP3    H120774   8.107   7.127   4.987
 6939TIP3    H220775   8.186   7.009   5.038
 6940TIP3   OH220776   2.522   0.033   5.087
 6940TIP3    H120777   2.561   0.040   5.174
 6940TIP3    H220778   2.438  -0.010   5.102
 6941TIP3   OH220779   3.818   5.557   6.765
 6941TIP3    H120780   3.862   5.473   6.781
 6941TIP3    H220781   3.726   5.539   6.782
 6942TIP3   OH220782   5.883   4.790   4.536
 6942TIP3    H120783   5.886   4.705   4.492
 6942TIP3    H220784   5.810   4.783   4.597
 6943TIP3   OH220785   2.473   0.383   4.915
 6943TIP3    H120786   2.548   0.397   4.973
 6943TIP3    H220787   2.501   0.314   4.856
 6944TIP3   OH220788   5.224   6.616   3.129
 6944TIP3    H120789   5.136   6.584   3.152
 6944TIP3    H220790   5.213   6.711   3.121
 6945TIP3   OH220791   6.230   5.442   1.866
 6945TIP3    H120792   6.187   5.446   1.781
 6945TIP3    H220793   6.200   5.360   1.905
 6946TIP3   OH220794   0.533   7.693   1.124
 6946TIP3    H120795   0.598   7.639   1.170
 6946TIP3    H220796   0.491   7.632   1.063
 6947TIP3   OH220797   5.283   1.914   5.956
 6947TIP3    H120798   5.269   2.007   5.937
 6947TIP3    H220799   5.198   1.884   5.989
 6948TIP3   OH220800   7.974   3.110   4.167
 6948TIP3    H120801   8.048   3.159   4.204
 6948TIP3    H220802   7.931   3.172   4.108
 6949TIP3   OH220803   6.201   2.979   5.356
 6949TIP3    H120804   6.178   2.908   5.416
 6949TIP3    H220805   6.210   2.936   5.271
 6950TIP3   OH220806   1.942   4.506   1.298
 6950TIP3    H120807   2.003   4.456   1.353
 6950TIP3    H220808   1.889   4.440   1.255
 6951TIP3   OH220809   7.330   6.532   4.599
 6951TIP3    H120810   7.270   6.606   4.592
 6951TIP3    H220811   7.408   6.568   4.640
 6952TIP3   OH220812   0.922   7.364   5.317
 6952TIP3    H120813   0.845   7.313   5.345
 6952TIP3    H220814   0.916   7.445   5.367
 6953TIP3   OH220815   4.397   4.848   3.068
 6953TIP3    H120816   4.316   4.836   3.020
 6953TIP3    H220817   4.442   4.763   3.060
 6954TIP3   OH220818   7.194   6.193   0.920
 6954TIP3    H120819   7.131   6.161   0.986
 6954TIP3    H220820   7.161   6.159   0.837
 6955TIP3   OH220821   4.373   2.779   1.799
 6955TIP3    H120822   4.348   2.871   1.808
 6955TIP3    H220823   4.292   2.734   1.774
 6956TIP3   OH220824   4.451   4.466   5.736
 6956TIP3    H120825   4.382   4.425   5.788
 6956TIP3    H220826   4.528   4.463   5.793
 6957TIP3   OH220827   2.042   4.506   5.189
 6957TIP3    H120828   2.003   4.482   5.105
 6957TIP3    H220829   2.133   4.528   5.168
 6958TIP3   OH220830   2.461   3.746   2.346
 6958TIP3    H120831   2.525   3.812   2.372
 6958TIP3    H220832   2.443   3.698   2.427
 6959TIP3   OH220833   5.932   7.361   1.879
 6959TIP3    H120834   5.978   7.444   1.876
 6959TIP3    H220835   5.893   7.352   1.791
 6960TIP3   OH220836   7.426   4.917   2.354
 6960TIP3    H120837   7.341   4.949   2.325
 6960TIP3    H220838   7.473   4.996   2.381
 6961TIP3   OH220839   4.827   1.153   2.249
 6961TIP3    H120840   4.788   1.162   2.336
 6961TIP3    H220841   4.797   1.231   2.202
 6962TIP3   OH220842   4.034   4.877   5.000
 6962TIP3    H120843   3.993   4.791   5.009
 6962TIP3    H220844   3.961   4.938   4.998
 6963TIP3   OH220845   5.891   4.764   0.579
 6963TIP3    H120846   5.967   4.771   0.522
 6963TIP3    H220847   5.866   4.855   0.597
 6964TIP3   OH220848   5.259   3.225   6.684
 6964TIP3    H120849   5.272   3.313   6.720
 6964TIP3    H220850   5.248   3.240   6.590
 6965TIP3   OH220851   5.505   4.514   2.347
 6965TIP3    H120852   5.582   4.518   2.290
 6965TIP3    H220853   5.533   4.462   2.422
 6966TIP3   OH220854   1.073   2.734   5.462
 6966TIP3    H120855   1.046   2.826   5.468
 6966TIP3    H220856   1.002   2.691   5.414
 6967TIP3   OH220857   7.379   4.059   0.313
 6967TIP3    H120858   7.300   4.030   0.360
 6967TIP3    H220859   7.440   4.085   0.382
 6968TIP3   OH220860   3.857   6.133   3.292
 6968TIP3    H120861   3.780   6.138   3.236
 6968TIP3    H220862   3.845   6.052   3.342
 6969TIP3   OH220863   5.270   6.451   1.264
 6969TIP3    H120864   5.272   6.481   1.355
 6969TIP3    H220865   5.326   6.513   1.217
 6970TIP3   OH220866   0.355   5.970   6.235
 6970TIP3    H120867   0.337   5.909   6.307
 6970TIP3    H220868   0.437   5.940   6.197
 6971TIP3   OH220869   6.784   5.614   5.303
 6971TIP3    H120870   6.749   5.668   5.374
 6971TIP3    H220871   6.710   5.602   5.243
 6972TIP3   OH220872   2.185   1.224   6.244
 6972TIP3    H120873   2.127   1.186   6.178
 6972TIP3    H220874   2.271   1.228   6.201
 6973TIP3   OH220875   3.013   1.229   6.649
 6973TIP3    H120876   3.093   1.184   6.623
 6973TIP3    H220877   3.041   1.291   6.717
 6974TIP3   OH220878   3.608   3.733   3.276
 6974TIP3    H120879   3.624   3.752   3.184
 6974TIP3    H220880   3.689   3.760   3.320
 6975TIP3   OH220881   7.843   6.506   1.441
 6975TIP3    H120882   7.802   6.436   1.391
 6975TIP3    H220883   7.771   6.550   1.486
 6976TIP3   OH220884   3.601   0.728   1.930
 6976TIP3    H120885   3.674   0.751   1.873
 6976TIP3    H220886   3.633   0.655   1.982
 6977TIP3   OH220887   7.987   2.281   6.425
 6977TIP3    H120888   7.933   2.265   6.502
 6977TIP3    H220889   7.948   2.227   6.356
 6978TIP3   OH220890   8.075   7.567   1.625
 6978TIP3    H120891   8.069   7.549   1.532
 6978TIP3    H220892   7.992   7.538   1.662
 6979TIP3   OH220893   3.862   5.289   1.713
 6979TIP3    H120894   3.900   5.375   1.734
 6979TIP3    H220895   3.841   5.251   1.799
 6980TIP3   OH220896   3.350   0.063   5.671
 6980TIP3    H120897   3.255   0.057   5.668
 6980TIP3    H220898   3.369   0.153   5.644
 6981TIP3   OH220899   7.388   0.606   5.708
 6981TIP3    H120900   7.428   0.579   5.791
 6981TIP3    H220901   7.410   0.537   5.646
 6982TIP3   OH220902   3.911   2.950   4.145
 6982TIP3    H120903   3.944   2.871   4.103
 6982TIP3    H220904   3.909   3.015   4.074
 6983TIP3   OH220905   2.712   6.767   6.621
 6983TIP3    H120906   2.771   6.708   6.667
 6983TIP3    H220907   2.649   6.795   6.688
 6984TIP3   OH220908   2.235   5.668   2.811
 6984TIP3    H120909   2.144   5.664   2.840
 6984TIP3    H220910   2.257   5.761   2.812
 6985TIP3   OH220911   3.569   7.780   3.125
 6985TIP3    H120912   3.491   7.822   3.161
 6985TIP3    H220913   3.536   7.702   3.081
 6986TIP3   OH220914   5.437   5.266   3.347
 6986TIP3    H120915   5.389   5.196   3.303
 6986TIP3    H220916   5.407   5.346   3.304
 6987TIP3   OH220917   7.999   3.195   2.718
 6987TIP3    H120918   8.067   3.230   2.775
 6987TIP3    H220919   8.046   3.170   2.638
 6988TIP3   OH220920   7.238   6.208   0.240
 6988TIP3    H120921   7.307   6.225   0.304
 6988TIP3    H220922   7.285   6.194   0.157
 6989TIP3   OH220923   1.620   2.252   2.576
 6989TIP3    H120924   1.642   2.311   2.647
 6989TIP3    H220925   1.692   2.262   2.513
 6990TIP3   OH220926   1.012   2.083   1.688
 6990TIP3    H120927   1.048   2.061   1.774
 6990TIP3    H220928   1.049   2.168   1.668
 6991TIP3   OH220929   4.006   4.616   5.868
 6991TIP3    H120930   3.991   4.642   5.959
 6991TIP3    H220931   4.082   4.557   5.872
 6992TIP3   OH220932   2.860   0.863   6.662
 6992TIP3    H120933   2.911   0.787   6.635
 6992TIP3    H220934   2.917   0.938   6.645
 6993TIP3   OH220935   3.557   1.076   6.187
 6993TIP3    H120936   3.634   1.085   6.244
 6993TIP3    H220937   3.551   0.983   6.168
 6994TIP3   OH220938   3.243   3.272   3.925
 6994TIP3    H120939   3.210   3.346   3.873
 6994TIP3    H220940   3.229   3.196   3.869
 6995TIP3   OH220941   0.734   1.883   1.971
 6995TIP3    H120942   0.779   1.809   2.012
 6995TIP3    H220943   0.714   1.852   1.883
 6996TIP3   OH220944   7.641   6.231   0.850
 6996TIP3    H120945   7.711   6.233   0.914
 6996TIP3    H220946   7.686   6.232   0.765
 6997TIP3   OH220947   6.841   1.743   1.197
 6997TIP3    H120948   6.824   1.729   1.103
 6997TIP3    H220949   6.786   1.817   1.220
 6998TIP3   OH220950   4.168   3.982   4.718
 6998TIP3    H120951   4.124   3.937   4.790
 6998TIP3    H220952   4.172   3.916   4.648
 6999TIP3   OH220953   0.383   1.435   5.597
 6999TIP3    H120954   0.443   1.383   5.543
 6999TIP3    H220955   0.436   1.510   5.625
 7000TIP3   OH220956   4.761   6.265   1.097
 7000TIP3    H120957   4.719   6.246   1.181
 7000TIP3    H220958   4.844   6.307   1.120
 7001TIP3   OH220959   0.522   3.203   1.937
 7001TIP3    H120960   0.581   3.133   1.965
 7001TIP3    H220961   0.531   3.206   1.842
 7002TIP3   OH220962   1.463   1.130   0.278
 7002TIP3    H120963   1.501   1.186   0.345
 7002TIP3    H220964   1.436   1.190   0.208
 7003TIP3   OH220965   5.036   2.133   3.865
 7003TIP3    H120966   5.037   2.220   3.826
 7003TIP3    H220967   4.962   2.136   3.927
 7004TIP3   OH220968   2.647   5.311   2.383
 7004TIP3    H120969   2.733   5.315   2.424
 7004TIP3    H220970   2.652   5.372   2.309
 7005TIP3   OH220971   5.770   0.349   2.628
 7005TIP3    H120972   5.825   0.294   2.684
 7005TIP3    H220973   5.770   0.304   2.544
 7006TIP3   OH220974   5.892   7.205   0.136
 7006TIP3    H120975   5.927   7.285   0.098
 7006TIP3    H220976   5.867   7.151   0.062
 7007TIP3   OH220977   3.008   3.238   5.228
 7007TIP3    H120978   3.076   3.269   5.287
 7007TIP3    H220979   3.046   3.163   5.183
 7008TIP3   OH220980   2.085   0.583   6.733
 7008TIP3    H120981   2.105   0.490   6.740
 7008TIP3    H220982   2.166   0.623   6.703
 7009TIP3   OH220983   4.083   4.271   0.602
 7009TIP3    H120984   4.076   4.356   0.559
 7009TIP3    H220985   4.026   4.277   0.678
 7010TIP3   OH220986   5.014   2.866   4.366
 7010TIP3    H120987   5.048   2.822   4.443
 7010TIP3    H220988   5.082   2.857   4.300
 7011TIP3   OH220989   2.300   1.248   3.897
 7011TIP3    H120990   2.375   1.303   3.873
 7011TIP3    H220991   2.296   1.254   3.992
 7012TIP3   OH220992   7.412   1.095   4.079
 7012TIP3    H120993   7.436   1.159   4.146
 7012TIP3    H220994   7.494   1.074   4.035
 7013TIP3   OH220995   8.248   7.112   1.796
 7013TIP3    H120996   8.230   7.058   1.873
 7013TIP3    H220997   8.277   7.049   1.730
 7014TIP3   OH220998   1.571   0.605   6.539
 7014TIP3    H120999   1.645   0.623   6.597
 7014TIP3    H221000   1.610   0.592   6.453
 7015TIP3   OH221001   5.692   3.121   0.257
 7015TIP3    H121002   5.632   3.049   0.276
 7015TIP3    H221003   5.635   3.196   0.242
 7016TIP3   OH221004   7.647   3.509   0.707
 7016TIP3    H121005   7.660   3.474   0.795
 7016TIP3    H221006   7.662   3.435   0.649
 7017TIP3   OH221007   3.183   2.964   6.374
 7017TIP3    H121008   3.225   2.915   6.303
 7017TIP3    H221009   3.094   2.980   6.341
 7018TIP3   OH221010   7.295   4.676   0.231
 7018TIP3    H121011   7.258   4.731   0.299
 7018TIP3    H221012   7.338   4.605   0.279
 7019TIP3   OH221013   7.817   0.378   0.454
 7019TIP3    H121014   7.866   0.313   0.504
 7019TIP3    H221015   7.860   0.461   0.475
 7020TIP3   OH221016   0.101   3.188   2.504
 7020TIP3    H121017   0.133   3.153   2.587
 7020TIP3    H221018   0.153   3.267   2.490
 7021TIP3   OH221019   6.415   5.901   4.858
 7021TIP3    H121020   6.347   5.835   4.872
 7021TIP3    H221021   6.368   5.982   4.841
 7022TIP3   OH221022   1.434   6.399   4.035
 7022TIP3    H121023   1.474   6.362   4.113
 7022TIP3    H221024   1.427   6.325   3.974
 7023TIP3   OH221025   2.477   2.475   0.647
 7023TIP3    H121026   2.560   2.519   0.628
 7023TIP3    H221027   2.444   2.449   0.561
 7024TIP3   OH221028   6.931   4.152   4.178
 7024TIP3    H121029   6.888   4.083   4.127
 7024TIP3    H221030   7.024   4.139   4.162
 7025TIP3   OH221031   7.192   5.967   4.165
 7025TIP3    H121032   7.105   5.933   4.145
 7025TIP3    H221033   7.203   6.042   4.107
 7026TIP3   OH221034   0.395   1.299   2.220
 7026TIP3    H121035   0.354   1.349   2.291
 7026TIP3    H221036   0.346   1.326   2.142
 7027TIP3   OH221037   5.300   1.219   4.638
 7027TIP3    H121038   5.213   1.241   4.605
 7027TIP3    H221039   5.327   1.298   4.685
 7028TIP3   OH221040   8.223   4.997   2.352
 7028TIP3    H121041   8.161   5.066   2.327
 7028TIP3    H221042   8.210   4.987   2.446
 7029TIP3   OH221043   6.205   4.978   2.102
 7029TIP3    H121044   6.117   4.948   2.082
 7029TIP3    H221045   6.222   4.944   2.190
 7030TIP3   OH221046   7.694   1.487   6.403
 7030TIP3    H121047   7.677   1.572   6.442
 7030TIP3    H221048   7.675   1.499   6.310
 7031TIP3   OH221049   5.077   4.042   6.262
 7031TIP3    H121050   5.049   3.983   6.191
 7031TIP3    H221051   4.995   4.071   6.302
 7032TIP3   OH221052   6.594   0.551   6.193
 7032TIP3    H121053   6.612   0.525   6.103
 7032TIP3    H221054   6.498   0.559   6.197
 7033TIP3   OH221055   6.907   2.419   3.177
 7033TIP3    H121056   6.860   2.470   3.242
 7033TIP3    H221057   6.839   2.376   3.126
 7034TIP3   OH221058   6.493   5.517   1.648
 7034TIP3    H121059   6.516   5.472   1.568
 7034TIP3    H221060   6.553   5.482   1.714
 7035TIP3   OH221061   6.805   6.811   0.246
 7035TIP3    H121062   6.817   6.795   0.153
 7035TIP3    H221063   6.835   6.731   0.289
 7036TIP3   OH221064   0.275   0.177   5.345
 7036TIP3    H121065   0.327   0.149   5.420
 7036TIP3    H221066   0.322   0.253   5.310
 7037TIP3   OH221067   4.724   5.182   2.726
 7037TIP3    H121068   4.685   5.128   2.795
 7037TIP3    H221069   4.702   5.272   2.751
 7038TIP3   OH221070   5.182   0.552   6.335
 7038TIP3    H121071   5.140   0.633   6.304
 7038TIP3    H221072   5.265   0.548   6.287
 7039TIP3   OH221073   7.200   4.403   2.664
 7039TIP3    H121074   7.277   4.359   2.701
 7039TIP3    H221075   7.210   4.394   2.570
 7040TIP3   OH221076   4.160   4.605   6.203
 7040TIP3    H121077   4.093   4.672   6.209
 7040TIP3    H221078   4.112   4.522   6.204
 7041TIP3   OH221079   4.705   5.423   0.113
 7041TIP3    H121080   4.702   5.376   0.030
 7041TIP3    H221081   4.768   5.374   0.166
 7042TIP3   OH221082   4.143   0.650   3.122
 7042TIP3    H121083   4.175   0.627   3.209
 7042TIP3    H221084   4.048   0.651   3.131
 7043TIP3   OH221085   4.112   6.063   1.857
 7043TIP3    H121086   4.042   6.041   1.919
 7043TIP3    H221087   4.140   6.151   1.883
 7044TIP3   OH221088   6.396   4.618   4.156
 7044TIP3    H121089   6.380   4.712   4.147
 7044TIP3    H221090   6.369   4.581   4.072
 7045TIP3   OH221091   5.971   3.645   2.445
 7045TIP3    H121092   5.909   3.617   2.512
 7045TIP3    H221093   6.054   3.602   2.470
 7046TIP3   OH221094   7.282   0.909   2.118
 7046TIP3    H121095   7.309   0.845   2.185
 7046TIP3    H221096   7.299   0.994   2.159
 7047TIP3   OH221097   1.181   6.536   3.932
 7047TIP3    H121098   1.149   6.468   3.872
 7047TIP3    H221099   1.257   6.496   3.974
 7048TIP3   OH221100   2.536   5.999   0.003
 7048TIP3    H121101   2.622   6.041   0.003
 7048TIP3    H221102   2.552   5.911   0.039
 7049TIP3   OH221103   4.702   0.488   3.513
 7049TIP3    H121104   4.715   0.447   3.599
 7049TIP3    H221105   4.789   0.522   3.490
 7050TIP3   OH221106   3.393   7.745   2.871
 7050TIP3    H121107   3.386   7.657   2.908
 7050TIP3    H221108   3.319   7.793   2.909
 7051TIP3   OH221109   1.638   0.524   2.083
 7051TIP3    H121110   1.621   0.523   1.989
 7051TIP3    H221111   1.576   0.588   2.118
 7052TIP3   OH221112   6.049   2.955   2.466
 7052TIP3    H121113   6.137   2.932   2.497
 7052TIP3    H221114   5.991   2.891   2.507
 7053TIP3   OH221115   7.207   3.485   5.466
 7053TIP3    H121116   7.268   3.437   5.522
 7053TIP3    H221117   7.123   3.441   5.480
 7054TIP3   OH221118   6.052   6.506   1.560
 7054TIP3    H121119   5.985   6.441   1.582
 7054TIP3    H221120   6.059   6.560   1.638
 7055TIP3   OH221121   1.708   4.137   1.018
 7055TIP3    H121122   1.747   4.193   1.085
 7055TIP3    H221123   1.631   4.099   1.060
 7056TIP3   OH221124   3.538   6.179   3.845
 7056TIP3    H121125   3.628   6.148   3.852
 7056TIP3    H221126   3.502   6.130   3.771
 7057TIP3   OH221127   5.676   5.776   3.749
 7057TIP3    H121128   5.759   5.804   3.710
 7057TIP3    H221129   5.610   5.829   3.705
 7058TIP3   OH221130   2.833   3.026   0.463
 7058TIP3    H121131   2.837   3.105   0.409
 7058TIP3    H221132   2.747   3.028   0.503
 7059TIP3   OH221133   4.290   6.340   3.945
 7059TIP3    H121134   4.228   6.350   3.873
 7059TIP3    H221135   4.341   6.263   3.921
 7060TIP3   OH221136   3.401   7.209   0.540
 7060TIP3    H121137   3.476   7.233   0.594
 7060TIP3    H221138   3.360   7.293   0.518
 7061TIP3   OH221139   8.322   2.363   1.213
 7061TIP3    H121140   8.350   2.276   1.185
 7061TIP3    H221141   8.226   2.361   1.206
 7062TIP3   OH221142   7.231   5.786   5.347
 7062TIP3    H121143   7.291   5.764   5.276
 7062TIP3    H221144   7.205   5.701   5.383
 7063TIP3   OH221145   3.426   3.610   4.608
 7063TIP3    H121146   3.343   3.635   4.565
 7063TIP3    H221147   3.399   3.574   4.692
 7064TIP3   OH221148   7.370   2.161   2.754
 7064TIP3    H121149   7.367   2.185   2.846
 7064TIP3    H221150   7.360   2.065   2.753
 7065TIP3   OH221151   5.665   5.091   6.375
 7065TIP3    H121152   5.594   5.107   6.438
 7065TIP3    H221153   5.742   5.130   6.417
 7066TIP3   OH221154   2.191   2.989   5.066
 7066TIP3    H121155   2.270   2.934   5.071
 7066TIP3    H221156   2.220   3.074   5.098
 7067TIP3   OH221157   2.164   3.405   5.354
 7067TIP3    H121158   2.260   3.405   5.358
 7067TIP3    H221159   2.137   3.434   5.441
 7068TIP3   OH221160   2.501   6.546   6.668
 7068TIP3    H121161   2.494   6.624   6.612
 7068TIP3    H221162   2.578   6.499   6.636
 7069TIP3   OH221163   1.770   4.790   4.402
 7069TIP3    H121164   1.846   4.751   4.446
 7069TIP3    H221165   1.777   4.760   4.311
 7070TIP3   OH221166   0.552   2.853   0.186
 7070TIP3    H121167   0.595   2.819   0.264
 7070TIP3    H221168   0.499   2.927   0.217
 7071TIP3   OH221169   0.815   2.049   0.360
 7071TIP3    H121170   0.737   2.095   0.390
 7071TIP3    H221171   0.782   1.970   0.317
 7072TIP3   OH221172   1.285   7.822   5.721
 7072TIP3    H121173   1.297   7.902   5.669
 7072TIP3    H221174   1.267   7.754   5.656
 7073TIP3   OH221175   7.964   1.123   0.135
 7073TIP3    H121176   7.936   1.208   0.169
 7073TIP3    H221177   7.993   1.141   0.046
 7074TIP3   OH221178   0.494   0.837   4.000
 7074TIP3    H121179   0.582   0.824   4.036
 7074TIP3    H221180   0.469   0.751   3.967
 7075TIP3   OH221181   3.400   1.391   3.811
 7075TIP3    H121182   3.401   1.312   3.865
 7075TIP3    H221183   3.485   1.433   3.827
 7076TIP3   OH221184   7.930   1.790   3.478
 7076TIP3    H121185   7.891   1.802   3.565
 7076TIP3    H221186   8.015   1.749   3.497
 7077TIP3   OH221187   0.302   3.639   0.221
 7077TIP3    H121188   0.316   3.545   0.234
 7077TIP3    H221189   0.222   3.644   0.169
 7078TIP3   OH221190   6.947   2.074   4.429
 7078TIP3    H121191   6.884   2.010   4.396
 7078TIP3    H221192   6.940   2.067   4.525
 7079TIP3   OH221193   5.545   6.220   1.178
 7079TIP3    H121194   5.534   6.142   1.123
 7079TIP3    H221195   5.461   6.229   1.224
 7080TIP3   OH221196   4.647   0.637   0.137
 7080TIP3    H121197   4.585   0.592   0.193
 7080TIP3    H221198   4.656   0.724   0.176
 7081TIP3   OH221199   7.117   4.219   5.612
 7081TIP3    H121200   7.197   4.256   5.575
 7081TIP3    H221201   7.130   4.124   5.607
 7082TIP3   OH221202   5.098   1.842   0.472
 7082TIP3    H121203   5.083   1.845   0.378
 7082TIP3    H221204   5.062   1.758   0.500
 7083TIP3   OH221205   6.426   0.421   2.885
 7083TIP3    H121206   6.416   0.335   2.924
 7083TIP3    H221207   6.378   0.480   2.942
 7084TIP3   OH221208   5.767   5.553   6.550
 7084TIP3    H121209   5.729   5.493   6.615
 7084TIP3    H221210   5.828   5.498   6.500
 7085TIP3   OH221211   1.087   1.910   0.273
 7085TIP3    H121212   1.094   1.880   0.183
 7085TIP3    H221213   1.002   1.955   0.276
 7086TIP3   OH221214   2.229   6.376   0.945
 7086TIP3    H121215   2.250   6.290   0.910
 7086TIP3    H221216   2.188   6.358   1.030
 7087TIP3   OH221217   0.786   4.720   5.052
 7087TIP3    H121218   0.734   4.693   4.976
 7087TIP3    H221219   0.866   4.756   5.014
 7088TIP3   OH221220   5.287   3.673   0.927
 7088TIP3    H121221   5.351   3.621   0.878
 7088TIP3    H221222   5.335   3.702   1.005
 7089TIP3   OH221223   7.758   1.240   6.758
 7089TIP3    H121224   7.740   1.272   6.847
 7089TIP3    H221225   7.843   1.279   6.736
 7090TIP3   OH221226   0.850   6.260   1.428
 7090TIP3    H121227   0.852   6.195   1.357
 7090TIP3    H221228   0.937   6.256   1.466
 7091TIP3   OH221229   0.795   6.488   5.285
 7091TIP3    H121230   0.800   6.398   5.317
 7091TIP3    H221231   0.737   6.484   5.209
 7092TIP3   OH221232   0.112   7.013   4.139
 7092TIP3    H121233   0.171   7.028   4.213
 7092TIP3    H221234   0.026   7.002   4.179
 7093TIP3   OH221235   5.275   6.440   2.872
 7093TIP3    H121236   5.331   6.366   2.891
 7093TIP3    H221237   5.235   6.463   2.956
 7094TIP3   OH221238   0.105   1.223   3.211
 7094TIP3    H121239   0.154   1.215   3.293
 7094TIP3    H221240   0.153   1.168   3.149
 7095TIP3   OH221241   1.240   4.606   2.776
 7095TIP3    H121242   1.211   4.553   2.850
 7095TIP3    H221243   1.167   4.665   2.758
 7096TIP3   OH221244   4.479   1.021   6.101
 7096TIP3    H121245   4.450   1.064   6.181
 7096TIP3    H221246   4.569   1.051   6.088
 7097TIP3   OH221247   1.570   0.933   6.067
 7097TIP3    H121248   1.627   0.903   6.138
 7097TIP3    H221249   1.565   0.858   6.007
 7098TIP3   OH221250   5.747   7.556   3.114
 7098TIP3    H121251   5.826   7.557   3.061
 7098TIP3    H221252   5.676   7.540   3.050
 7099TIP3   OH221253   6.619   6.550   3.520
 7099TIP3    H121254   6.714   6.559   3.525
 7099TIP3    H221255   6.599   6.554   3.426
 7100TIP3   OH221256   5.625   2.566   2.095
 7100TIP3    H121257   5.590   2.504   2.031
 7100TIP3    H221258   5.708   2.528   2.123
 7101TIP3   OH221259   3.844   7.539   1.361
 7101TIP3    H121260   3.884   7.504   1.440
 7101TIP3    H221261   3.806   7.463   1.317
 7102TIP3   OH221262   8.180   4.626   1.669
 7102TIP3    H121263   8.160   4.540   1.632
 7102TIP3    H221264   8.094   4.661   1.694
 7103TIP3   OH221265   7.659   1.093   0.755
 7103TIP3    H121266   7.752   1.093   0.731
 7103TIP3    H221267   7.624   1.012   0.718
 7104TIP3   OH221268   0.320   1.026   6.689
 7104TIP3    H121269   0.299   0.990   6.776
 7104TIP3    H221270   0.335   1.119   6.705
 7105TIP3   OH221271   3.174   5.546   1.166
 7105TIP3    H121272   3.208   5.485   1.232
 7105TIP3    H221273   3.093   5.506   1.135
 7106TIP3   OH221274   2.825   5.661   1.851
 7106TIP3    H121275   2.878   5.740   1.864
 7106TIP3    H221276   2.735   5.689   1.869
 7107TIP3   OH221277   6.700   2.492   2.199
 7107TIP3    H121278   6.634   2.548   2.157
 7107TIP3    H221279   6.777   2.501   2.144
 7108TIP3   OH221280   3.677   0.443   3.139
 7108TIP3    H121281   3.614   0.445   3.210
 7108TIP3    H221282   3.638   0.497   3.070
 7109TIP3   OH221283   1.169   2.143   1.953
 7109TIP3    H121284   1.235   2.202   1.991
 7109TIP3    H221285   1.088   2.193   1.957
 7110TIP3   OH221286   0.951   1.328   2.253
 7110TIP3    H121287   0.857   1.326   2.267
 7110TIP3    H221288   0.986   1.258   2.307
 7111TIP3   OH221289   3.984   5.255   6.169
 7111TIP3    H121290   4.056   5.196   6.192
 7111TIP3    H221291   4.025   5.341   6.164
 7112TIP3   OH221292   2.409   6.917   3.342
 7112TIP3    H121293   2.343   6.852   3.317
 7112TIP3    H221294   2.390   6.937   3.433
 7113TIP3   OH221295   1.766   2.437   2.714
 7113TIP3    H121296   1.845   2.452   2.662
 7113TIP3    H221297   1.794   2.448   2.804
 7114TIP3   OH221298   3.499   0.089   4.999
 7114TIP3    H121299   3.433   0.157   4.986
 7114TIP3    H221300   3.507   0.047   4.913
 7115TIP3   OH221301   5.908   3.916   3.004
 7115TIP3    H121302   5.833   3.965   3.038
 7115TIP3    H221303   5.872   3.829   2.985
 7116TIP3   OH221304   1.017   4.223   6.164
 7116TIP3    H121305   1.070   4.244   6.241
 7116TIP3    H221306   1.078   4.179   6.105
 7117TIP3   OH221307   4.020   2.381   5.350
 7117TIP3    H121308   3.994   2.471   5.333
 7117TIP3    H221309   4.031   2.342   5.263
 7118TIP3   OH221310   0.832   5.328   5.542
 7118TIP3    H121311   0.923   5.299   5.538
 7118TIP3    H221312   0.785   5.269   5.482
 7119TIP3   OH221313   3.240   4.616   3.306
 7119TIP3    H121314   3.229   4.526   3.278
 7119TIP3    H221315   3.173   4.665   3.258
 7120TIP3   OH221316   1.977   4.017   3.820
 7120TIP3    H121317   1.966   4.004   3.914
 7120TIP3    H221318   1.966   3.930   3.782
 7121TIP3   OH221319   7.773   6.711   5.371
 7121TIP3    H121320   7.812   6.624   5.379
 7121TIP3    H221321   7.698   6.698   5.313
 7122TIP3   OH221322   6.644   5.678   2.610
 7122TIP3    H121323   6.707   5.669   2.538
 7122TIP3    H221324   6.609   5.590   2.623
 7123TIP3   OH221325   4.925   0.283   4.773
 7123TIP3    H121326   4.843   0.311   4.813
 7123TIP3    H221327   4.911   0.191   4.751
 7124TIP3   OH221328   7.665   1.051   0.441
 7124TIP3    H121329   7.587   1.102   0.464
 7124TIP3    H221330   7.737   1.114   0.444
 7125TIP3   OH221331   3.122   0.118   5.988
 7125TIP3    H121332   3.080   0.149   6.068
 7125TIP3    H221333   3.139   0.025   6.004
 7126TIP3   OH221334   0.706   5.899  -0.050
 7126TIP3    H121335   0.615   5.870  -0.057
 7126TIP3    H221336   0.721   5.909   0.044
 7127TIP3   OH221337   5.633   7.249   0.362
 7127TIP3    H121338   5.693   7.322   0.382
 7127TIP3    H221339   5.625   7.202   0.445
 7128TIP3   OH221340   7.802   3.378   2.750
 7128TIP3    H121341   7.865   3.312   2.721
 7128TIP3    H221342   7.825   3.457   2.701
 7129TIP3   OH221343   5.913   4.315   0.567
 7129TIP3    H121344   5.910   4.222   0.545
 7129TIP3    H221345   5.833   4.331   0.618
 7130TIP3   OH221346   0.543   6.156   4.176
 7130TIP3    H121347   0.625   6.168   4.129
 7130TIP3    H221348   0.499   6.085   4.129
 7131TIP3   OH221349   6.231   0.836   2.983
 7131TIP3    H121350   6.180   0.765   2.943
 7131TIP3    H221351   6.188   0.916   2.954
 7132TIP3   OH221352   7.869   0.942   4.573
 7132TIP3    H121353   7.956   0.982   4.573
 7132TIP3    H221354   7.878   0.866   4.515
 7133TIP3   OH221355   2.847   6.573   6.146
 7133TIP3    H121356   2.837   6.659   6.106
 7133TIP3    H221357   2.885   6.590   6.232
 7134TIP3   OH221358   3.806   4.285   4.786
 7134TIP3    H121359   3.882   4.289   4.843
 7134TIP3    H221360   3.816   4.203   4.738
 7135TIP3   OH221361   4.963   1.911   2.583
 7135TIP3    H121362   4.996   1.997   2.608
 7135TIP3    H221363   4.949   1.866   2.666
 7136TIP3   OH221364   4.812   0.374   5.120
 7136TIP3    H121365   4.732   0.329   5.149
 7136TIP3    H221366   4.803   0.463   5.155
 7137TIP3   OH221367   3.733   0.650   5.753
 7137TIP3    H121368   3.801   0.597   5.794
 7137TIP3    H221369   3.780   0.719   5.707
 7138TIP3   OH221370   4.125   4.454   1.043
 7138TIP3    H121371   4.078   4.532   1.014
 7138TIP3    H221372   4.169   4.423   0.965
 7139TIP3   OH221373   3.130   2.038   3.319
 7139TIP3    H121374   3.100   1.948   3.308
 7139TIP3    H221375   3.215   2.041   3.275
 7140TIP3   OH221376   7.076   2.058   6.432
 7140TIP3    H121377   7.082   2.135   6.376
 7140TIP3    H221378   7.081   2.092   6.521
 7141TIP3   OH221379   6.894   2.279   2.024
 7141TIP3    H121380   6.842   2.315   1.952
 7141TIP3    H221381   6.951   2.214   1.983
 7142TIP3   OH221382   5.010   2.374   6.156
 7142TIP3    H121383   4.940   2.376   6.090
 7142TIP3    H221384   5.021   2.281   6.175
 7143TIP3   OH221385   3.097   0.405   6.201
 7143TIP3    H121386   3.040   0.334   6.174
 7143TIP3    H221387   3.186   0.369   6.195
 7144TIP3   OH221388   1.484   5.224   3.270
 7144TIP3    H121389   1.483   5.206   3.365
 7144TIP3    H221390   1.568   5.189   3.240
 7145TIP3   OH221391   5.170   6.583   0.806
 7145TIP3    H121392   5.100   6.646   0.789
 7145TIP3    H221393   5.128   6.497   0.798
 7146TIP3   OH221394   7.900   6.005   1.886
 7146TIP3    H121395   7.811   6.002   1.848
 7146TIP3    H221396   7.958   5.986   1.812
 7147TIP3   OH221397   5.895   3.006   1.207
 7147TIP3    H121398   5.801   2.995   1.194
 7147TIP3    H221399   5.929   2.917   1.214
 7148TIP3   OH221400   5.604   5.566   5.857
 7148TIP3    H121401   5.609   5.601   5.768
 7148TIP3    H221402   5.550   5.630   5.905
 7149TIP3   OH221403   2.928   6.433   5.198
 7149TIP3    H121404   2.923   6.480   5.114
 7149TIP3    H221405   3.019   6.403   5.202
 7150TIP3   OH221406   6.979   1.970   1.385
 7150TIP3    H121407   6.926   2.024   1.443
 7150TIP3    H221408   7.025   2.033   1.329
 7151TIP3   OH221409   5.316   1.487   2.046
 7151TIP3    H121410   5.280   1.553   2.105
 7151TIP3    H221411   5.369   1.431   2.103
 7152TIP3   OH221412   7.164   5.489   3.860
 7152TIP3    H121413   7.204   5.403   3.849
 7152TIP3    H221414   7.073   5.470   3.883
 7153TIP3   OH221415   6.111   2.898   0.266
 7153TIP3    H121416   6.106   2.818   0.318
 7153TIP3    H221417   6.134   2.966   0.329
 7154TIP3   OH221418   6.258   4.520   6.107
 7154TIP3    H121419   6.303   4.464   6.043
 7154TIP3    H221420   6.175   4.475   6.123
 7155TIP3   OH221421   0.623   6.745   1.664
 7155TIP3    H121422   0.718   6.741   1.676
 7155TIP3    H221423   0.603   6.839   1.663
 7156TIP3   OH221424   6.315   3.075   3.898
 7156TIP3    H121425   6.340   3.149   3.843
 7156TIP3    H221426   6.359   3.090   3.981
 7157TIP3   OH221427   3.634   7.448   5.341
 7157TIP3    H121428   3.592   7.394   5.274
 7157TIP3    H221429   3.626   7.538   5.309
 7158TIP3   OH221430   5.279   1.169   5.735
 7158TIP3    H121431   5.257   1.116   5.812
 7158TIP3    H221432   5.346   1.119   5.690
 7159TIP3   OH221433   1.554   6.393   1.191
 7159TIP3    H121434   1.529   6.312   1.146
 7159TIP3    H221435   1.475   6.418   1.239
 7160TIP3   OH221436   5.791   1.854   2.162
 7160TIP3    H121437   5.731   1.781   2.177
 7160TIP3    H221438   5.757   1.897   2.083
 7161TIP3   OH221439   0.652   4.388   5.640
 7161TIP3    H121440   0.649   4.393   5.544
 7161TIP3    H221441   0.576   4.437   5.669
 7162TIP3   OH221442   7.155   4.003   5.140
 7162TIP3    H121443   7.099   4.080   5.156
 7162TIP3    H221444   7.203   4.024   5.060
 7163TIP3   OH221445   3.628   4.058   3.935
 7163TIP3    H121446   3.586   4.129   3.887
 7163TIP3    H221447   3.645   3.991   3.869
 7164TIP3   OH221448   5.358   2.098   0.803
 7164TIP3    H121449   5.296   2.111   0.875
 7164TIP3    H221450   5.372   2.003   0.800
 7165TIP3   OH221451   6.304   1.286   3.416
 7165TIP3    H121452   6.266   1.200   3.400
 7165TIP3    H221453   6.330   1.318   3.330
 7166TIP3   OH221454   3.125   6.611   5.658
 7166TIP3    H121455   3.202   6.563   5.627
 7166TIP3    H221456   3.105   6.571   5.743
 7167TIP3   OH221457   7.681   5.629   3.550
 7167TIP3    H121458   7.600   5.628   3.500
 7167TIP3    H221459   7.720   5.715   3.532
 7168TIP3   OH221460   7.248   6.704   4.046
 7168TIP3    H121461   7.283   6.782   4.091
 7168TIP3    H221462   7.153   6.710   4.057
 7169TIP3   OH221463   1.148   6.795   3.140
 7169TIP3    H121464   1.241   6.772   3.131
 7169TIP3    H221465   1.103   6.734   3.082
 7170TIP3   OH221466   4.337   2.998   0.172
 7170TIP3    H121467   4.247   2.988   0.202
 7170TIP3    H221468   4.354   2.920   0.120
 7171TIP3   OH221469   3.958   4.281   5.761
 7171TIP3    H121470   3.989   4.242   5.843
 7171TIP3    H221471   3.975   4.214   5.695
 7172TIP3   OH221472   1.425   2.244   6.004
 7172TIP3    H121473   1.433   2.338   6.018
 7172TIP3    H221474   1.404   2.208   6.091
 7173TIP3   OH221475   6.740   0.696   1.576
 7173TIP3    H121476   6.827   0.709   1.615
 7173TIP3    H221477   6.680   0.699   1.651
 7174TIP3   OH221478   0.410   0.073   4.650
 7174TIP3    H121479   0.383   0.009   4.584
 7174TIP3    H221480   0.357   0.150   4.632
 7175TIP3   OH221481   5.974   6.574   6.066
 7175TIP3    H121482   5.897   6.627   6.087
 7175TIP3    H221483   6.044   6.610   6.121
 7176TIP3   OH221484   3.928   7.570   2.726
 7176TIP3    H121485   4.022   7.588   2.728
 7176TIP3    H221486   3.890   7.631   2.789
 7177TIP3   OH221487   5.349   6.200   1.362
 7177TIP3    H121488   5.392   6.236   1.439
 7177TIP3    H221489   5.300   6.274   1.325
 7178TIP3   OH221490   4.799   6.266   6.681
 7178TIP3    H121491   4.870   6.224   6.730
 7178TIP3    H221492   4.719   6.239   6.727
 7179TIP3   OH221493   2.283   6.242   5.423
 7179TIP3    H121494   2.271   6.155   5.384
 7179TIP3    H221495   2.200   6.287   5.406
 7180TIP3   OH221496   1.380   6.554   1.416
 7180TIP3    H121497   1.389   6.649   1.410
 7180TIP3    H221498   1.396   6.534   1.508
 7181TIP3   OH221499   7.753   3.531   6.223
 7181TIP3    H121500   7.790   3.443   6.211
 7181TIP3    H221501   7.686   3.538   6.154
 7182TIP3   OH221502   2.441   2.520   1.797
 7182TIP3    H121503   2.511   2.586   1.802
 7182TIP3    H221504   2.361   2.571   1.782
 7183TIP3   OH221505   4.134   4.946   4.337
 7183TIP3    H121506   4.115   4.858   4.305
 7183TIP3    H221507   4.208   4.975   4.283
 7184TIP3   OH221508   2.625   0.258   5.331
 7184TIP3    H121509   2.539   0.290   5.355
 7184TIP3    H221510   2.678   0.268   5.410
 7185TIP3   OH221511   1.448   2.781   6.545
 7185TIP3    H121512   1.543   2.794   6.545
 7185TIP3    H221513   1.426   2.766   6.453
 7186TIP3   OH221514   5.854   5.157   2.743
 7186TIP3    H121515   5.806   5.107   2.809
 7186TIP3    H221516   5.904   5.221   2.794
 7187TIP3   OH221517   1.635   7.303   2.273
 7187TIP3    H121518   1.730   7.290   2.265
 7187TIP3    H221519   1.625   7.397   2.286
 7188TIP3   OH221520   3.741   7.842   2.265
 7188TIP3    H121521   3.784   7.913   2.217
 7188TIP3    H221522   3.790   7.763   2.239
 7189TIP3   OH221523   4.852   5.641   5.245
 7189TIP3    H121524   4.946   5.632   5.255
 7189TIP3    H221525   4.823   5.557   5.208
 7190TIP3   OH221526   5.383   2.593   0.553
 7190TIP3    H121527   5.412   2.552   0.472
 7190TIP3    H221528   5.342   2.522   0.602
 7191TIP3   OH221529   3.820   2.833   4.922
 7191TIP3    H121530   3.880   2.859   4.992
 7191TIP3    H221531   3.735   2.824   4.965
 7192TIP3   OH221532   3.561   4.276   0.369
 7192TIP3    H121533   3.615   4.204   0.337
 7192TIP3    H221534   3.481   4.234   0.400
 7193TIP3   OH221535   4.463   7.341   2.905
 7193TIP3    H121536   4.474   7.390   2.987
 7193TIP3    H221537   4.391   7.281   2.922
 7194TIP3   OH221538   5.129   5.672   5.242
 7194TIP3    H121539   5.161   5.734   5.176
 7194TIP3    H221540   5.146   5.716   5.326
 7195TIP3   OH221541   7.707   3.476   5.636
 7195TIP3    H121542   7.793   3.511   5.656
 7195TIP3    H221543   7.673   3.533   5.567
 7196TIP3   OH221544   1.260   1.718   2.833
 7196TIP3    H121545   1.217   1.633   2.838
 7196TIP3    H221546   1.351   1.701   2.856
 7197TIP3   OH221547   3.955   2.528   4.869
 7197TIP3    H121548   3.968   2.436   4.848
 7197TIP3    H221549   3.987   2.575   4.792
 7198TIP3   OH221550   5.154   0.586   1.494
 7198TIP3    H121551   5.125   0.495   1.494
 7198TIP3    H221552   5.072   0.636   1.496
 7199TIP3   OH221553   6.344   6.544   0.122
 7199TIP3    H121554   6.431   6.544   0.161
 7199TIP3    H221555   6.288   6.505   0.189
 7200TIP3   OH221556   5.721   1.349   1.067
 7200TIP3    H121557   5.714   1.258   1.038
 7200TIP3    H221558   5.726   1.343   1.162
 7201TIP3   OH221559   1.623   6.773   2.167
 7201TIP3    H121560   1.537   6.763   2.127
 7201TIP3    H221561   1.607   6.768   2.261
 7202TIP3   OH221562   5.522   6.666   5.373
 7202TIP3    H121563   5.429   6.643   5.381
 7202TIP3    H221564   5.548   6.632   5.288
 7203TIP3   OH221565   4.059   6.851   4.071
 7203TIP3    H121566   3.966   6.867   4.052
 7203TIP3    H221567   4.062   6.845   4.167
 7204TIP3   OH221568   7.238   1.725   4.718
 7204TIP3    H121569   7.152   1.748   4.682
 7204TIP3    H221570   7.290   1.700   4.641
 7205TIP3   OH221571   2.257   6.545   2.581
 7205TIP3    H121572   2.211   6.606   2.523
 7205TIP3    H221573   2.333   6.595   2.613
 7206TIP3   OH221574   3.440   7.749   0.758
 7206TIP3    H121575   3.532   7.769   0.774
 7206TIP3    H221576   3.438   7.715   0.669
 7207TIP3   OH221577   7.813   6.925   5.013
 7207TIP3    H121578   7.765   6.900   4.934
 7207TIP3    H221579   7.880   6.857   5.022
 7208TIP3   OH221580   2.427   4.329   1.495
 7208TIP3    H121581   2.463   4.400   1.547
 7208TIP3    H221582   2.498   4.265   1.489
 7209TIP3   OH221583   5.454   5.816   2.599
 7209TIP3    H121584   5.502   5.863   2.530
 7209TIP3    H221585   5.415   5.741   2.554
 7210TIP3   OH221586   8.228   0.984   5.789
 7210TIP3    H121587   8.233   0.971   5.695
 7210TIP3    H221588   8.143   0.947   5.815
 7211TIP3   OH221589   5.717   3.386   0.920
 7211TIP3    H121590   5.786   3.420   0.977
 7211TIP3    H221591   5.754   3.308   0.880
 7212TIP3   OH221592   5.694   3.953   3.459
 7212TIP3    H121593   5.640   3.874   3.453
 7212TIP3    H221594   5.704   3.967   3.553
 7213TIP3   OH221595   6.449   6.675   0.375
 7213TIP3    H121596   6.484   6.631   0.452
 7213TIP3    H221597   6.508   6.750   0.362
 7214TIP3   OH221598   1.058   3.254   3.283
 7214TIP3    H121599   1.124   3.233   3.349
 7214TIP3    H221600   0.998   3.180   3.284
 7215TIP3   OH221601   0.246   5.663   0.102
 7215TIP3    H121602   0.263   5.668   0.196
 7215TIP3    H221603   0.171   5.720   0.088
 7216TIP3   OH221604   7.718   7.758  -0.006
 7216TIP3    H121605   7.624   7.757  -0.021
 7216TIP3    H221606   7.733   7.688   0.057
 7217TIP3   OH221607   2.238   2.738   1.749
 7217TIP3    H121608   2.232   2.828   1.781
 7217TIP3    H221609   2.148   2.706   1.751
 7218TIP3   OH221610   5.910   5.584   4.642
 7218TIP3    H121611   5.958   5.666   4.652
 7218TIP3    H221612   5.873   5.588   4.554
 7219TIP3   OH221613   4.809   1.998   4.423
 7219TIP3    H121614   4.813   1.902   4.426
 7219TIP3    H221615   4.900   2.026   4.433
 7220TIP3   OH221616   2.234   0.826   1.089
 7220TIP3    H121617   2.225   0.920   1.078
 7220TIP3    H221618   2.262   0.814   1.180
 7221TIP3   OH221619   1.695   1.767   5.657
 7221TIP3    H121620   1.721   1.802   5.572
 7221TIP3    H221621   1.650   1.840   5.700
 7222TIP3   OH221622   0.407   5.392   4.375
 7222TIP3    H121623   0.397   5.297   4.379
 7222TIP3    H221624   0.317   5.424   4.367
 7223TIP3   OH221625   0.295   6.236   6.198
 7223TIP3    H121626   0.278   6.292   6.273
 7223TIP3    H221627   0.330   6.155   6.236
 7224TIP3   OH221628   4.136   7.106   4.214
 7224TIP3    H121629   4.212   7.152   4.180
 7224TIP3    H221630   4.063   7.139   4.162
 7225TIP3   OH221631   0.981   0.838   5.274
 7225TIP3    H121632   1.069   0.869   5.297
 7225TIP3    H221633   0.926   0.866   5.347
 7226TIP3   OH221634   6.801   0.029   3.196
 7226TIP3    H121635   6.724   0.003   3.246
 7226TIP3    H221636   6.865  -0.040   3.211
 7227TIP3   OH221637   0.656   4.833   3.057
 7227TIP3    H121638   0.633   4.800   2.970
 7227TIP3    H221639   0.588   4.797   3.115
 7228TIP3   OH221640   4.222   6.737   3.890
 7228TIP3    H121641   4.206   6.807   3.825
 7228TIP3    H221642   4.156   6.752   3.957
 7229TIP3   OH221643   8.147   5.888   6.441
 7229TIP3    H121644   8.092   5.871   6.364
 7229TIP3    H221645   8.190   5.804   6.459
 7230TIP3   OH221646   5.116   3.869   6.057
 7230TIP3    H121647   5.207   3.872   6.088
 7230TIP3    H221648   5.095   3.776   6.052
 7231TIP3   OH221649   1.806   5.161   1.893
 7231TIP3    H121650   1.722   5.132   1.858
 7231TIP3    H221651   1.865   5.087   1.877
 7232TIP3   OH221652   5.156   2.812   6.381
 7232TIP3    H121653   5.208   2.742   6.420
 7232TIP3    H221654   5.065   2.785   6.394
 7233TIP3   OH221655   5.009   1.476   3.682
 7233TIP3    H121656   4.952   1.426   3.623
 7233TIP3    H221657   4.977   1.566   3.676
 7234TIP3   OH221658   7.376   7.450   1.734
 7234TIP3    H121659   7.358   7.469   1.826
 7234TIP3    H221660   7.291   7.433   1.695
 7235TIP3   OH221661   4.794   2.661   3.743
 7235TIP3    H121662   4.818   2.596   3.808
 7235TIP3    H221663   4.868   2.722   3.741
 7236TIP3   OH221664   1.576   1.504   1.299
 7236TIP3    H121665   1.579   1.599   1.288
 7236TIP3    H221666   1.522   1.490   1.377
 7237TIP3   OH221667   6.504   2.327   6.337
 7237TIP3    H121668   6.460   2.296   6.258
 7237TIP3    H221669   6.437   2.380   6.382
 7238TIP3   OH221670   0.676   3.649   2.613
 7238TIP3    H121671   0.675   3.577   2.550
 7238TIP3    H221672   0.769   3.673   2.621
 7239TIP3   OH221673   2.818   3.144   1.876
 7239TIP3    H121674   2.827   3.239   1.881
 7239TIP3    H221675   2.724   3.127   1.885
 7240TIP3   OH221676   3.795   2.860   5.323
 7240TIP3    H121677   3.722   2.830   5.378
 7240TIP3    H221678   3.757   2.928   5.268
 7241TIP3   OH221679   3.376   2.088   5.513
 7241TIP3    H121680   3.377   2.003   5.556
 7241TIP3    H221681   3.454   2.087   5.457
 7242TIP3   OH221682   5.589   4.157   1.660
 7242TIP3    H121683   5.669   4.202   1.633
 7242TIP3    H221684   5.531   4.165   1.585
 7243TIP3   OH221685   5.283   6.386   0.479
 7243TIP3    H121686   5.272   6.354   0.568
 7243TIP3    H221687   5.376   6.409   0.473
 7244TIP3   OH221688   7.955   4.114   3.208
 7244TIP3    H121689   7.986   4.096   3.119
 7244TIP3    H221690   7.896   4.042   3.228
 7245TIP3   OH221691   5.278   4.635   1.360
 7245TIP3    H121692   5.344   4.682   1.308
 7245TIP3    H221693   5.326   4.604   1.437
 7246TIP3   OH221694   4.831   3.641   4.433
 7246TIP3    H121695   4.750   3.640   4.484
 7246TIP3    H221696   4.898   3.667   4.496
 7247TIP3   OH221697   3.378   7.775   2.609
 7247TIP3    H121698   3.416   7.692   2.581
 7247TIP3    H221699   3.379   7.771   2.704
 7248TIP3   OH221700   7.728   2.628   4.926
 7248TIP3    H121701   7.722   2.534   4.911
 7248TIP3    H221702   7.762   2.664   4.844
 7249TIP3   OH221703   6.074   4.902   5.878
 7249TIP3    H121704   6.067   4.828   5.818
 7249TIP3    H221705   5.987   4.943   5.876
 7250TIP3   OH221706   4.158   6.956   1.070
 7250TIP3    H121707   4.116   7.026   1.119
 7250TIP3    H221708   4.250   6.963   1.092
 7251TIP3   OH221709   7.089   0.924   1.192
 7251TIP3    H121710   7.100   0.962   1.105
 7251TIP3    H221711   7.036   0.846   1.177
 7252TIP3   OH221712   1.570   2.207   0.133
 7252TIP3    H121713   1.508   2.253   0.076
 7252TIP3    H221714   1.646   2.191   0.078
 7253TIP3   OH221715   4.899   3.643   3.979
 7253TIP3    H121716   4.829   3.579   3.993
 7253TIP3    H221717   4.953   3.637   4.058
 7254TIP3   OH221718   4.631   7.043   5.554
 7254TIP3    H121719   4.575   7.094   5.612
 7254TIP3    H221720   4.718   7.049   5.594
 7255TIP3   OH221721   4.066   1.374   6.412
 7255TIP3    H121722   4.033   1.391   6.500
 7255TIP3    H221723   4.161   1.383   6.419
 7256TIP3   OH221724   3.711   4.691   6.116
 7256TIP3    H121725   3.692   4.754   6.046
 7256TIP3    H221726   3.801   4.710   6.142
 7257TIP3   OH221727   3.422   6.101   6.202
 7257TIP3    H121728   3.391   6.133   6.286
 7257TIP3    H221729   3.457   6.178   6.158
 7258TIP3   OH221730   4.662   0.743   3.207
 7258TIP3    H121731   4.602   0.761   3.134
 7258TIP3    H221732   4.695   0.655   3.189
 7259TIP3   OH221733   8.237   1.454   0.056
 7259TIP3    H121734   8.176   1.434  -0.015
 7259TIP3    H221735   8.182   1.479   0.130
 7260TIP3   OH221736   6.241   3.571   2.262
 7260TIP3    H121737   6.200   3.631   2.200
 7260TIP3    H221738   6.196   3.487   2.246
 7261TIP3   OH221739   2.370   3.825   5.296
 7261TIP3    H121740   2.362   3.914   5.263
 7261TIP3    H221741   2.461   3.818   5.324
 7262TIP3   OH221742   1.916   2.604   0.347
 7262TIP3    H121743   1.991   2.606   0.406
 7262TIP3    H221744   1.885   2.514   0.349
 7263TIP3   OH221745   8.087   6.876   2.384
 7263TIP3    H121746   8.078   6.966   2.413
 7263TIP3    H221747   8.004   6.856   2.341
 7264TIP3   OH221748   1.418   2.694   2.930
 7264TIP3    H121749   1.476   2.658   2.997
 7264TIP3    H221750   1.460   2.674   2.847
 7265TIP3   OH221751   0.846   5.806   4.955
 7265TIP3    H121752   0.793   5.882   4.932
 7265TIP3    H221753   0.908   5.797   4.883
 7266TIP3   OH221754   5.475   4.739   0.680
 7266TIP3    H121755   5.528   4.670   0.720
 7266TIP3    H221756   5.519   4.758   0.597
 7267TIP3   OH221757   4.934   1.652   2.771
 7267TIP3    H121758   4.899   1.616   2.853
 7267TIP3    H221759   4.991   1.583   2.738
 7268TIP3   OH221760   7.907   2.669   3.340
 7268TIP3    H121761   7.919   2.697   3.431
 7268TIP3    H221762   7.834   2.608   3.344
 7269TIP3   OH221763   7.635   3.216   6.477
 7269TIP3    H121764   7.722   3.202   6.440
 7269TIP3    H221765   7.579   3.229   6.401
 7270TIP3   OH221766   7.204   3.310   5.873
 7270TIP3    H121767   7.170   3.316   5.963
 7270TIP3    H221768   7.127   3.299   5.818
 7271TIP3   OH221769   3.194   1.565   4.290
 7271TIP3    H121770   3.152   1.613   4.219
 7271TIP3    H221771   3.154   1.478   4.287
 7272TIP3   OH221772   1.029   2.178   5.544
 7272TIP3    H121773   1.063   2.267   5.546
 7272TIP3    H221774   1.017   2.159   5.451
 7273TIP3   OH221775   5.909   3.536   3.885
 7273TIP3    H121776   5.873   3.623   3.898
 7273TIP3    H221777   5.988   3.550   3.833
 7274TIP3   OH221778   3.668   5.775   4.799
 7274TIP3    H121779   3.690   5.749   4.709
 7274TIP3    H221780   3.657   5.870   4.794
 7275TIP3   OH221781   0.710   3.313   1.470
 7275TIP3    H121782   0.791   3.262   1.464
 7275TIP3    H221783   0.719   3.361   1.552
 7276TIP3   OH221784   3.426   2.434   5.017
 7276TIP3    H121785   3.459   2.407   5.103
 7276TIP3    H221786   3.392   2.353   4.978
 7277TIP3   OH221787   4.419   0.919   1.130
 7277TIP3    H121788   4.475   0.992   1.156
 7277TIP3    H221789   4.411   0.865   1.209
 7278TIP3   OH221790   1.100   5.532   6.659
 7278TIP3    H121791   1.110   5.438   6.644
 7278TIP3    H221792   1.141   5.547   6.744
 7279TIP3   OH221793   2.311   2.214   4.060
 7279TIP3    H121794   2.260   2.294   4.046
 7279TIP3    H221795   2.281   2.181   4.145
 7280TIP3   OH221796   2.337   3.090   5.410
 7280TIP3    H121797   2.375   3.086   5.323
 7280TIP3    H221798   2.267   3.025   5.409
 7281TIP3   OH221799   8.230   0.283   3.598
 7281TIP3    H121800   8.185   0.283   3.514
 7281TIP3    H221801   8.318   0.317   3.578
 7282TIP3   OH221802   1.625   1.706   1.727
 7282TIP3    H121803   1.547   1.758   1.707
 7282TIP3    H221804   1.599   1.616   1.708
 7283TIP3   OH221805   5.558   4.625   6.089
 7283TIP3    H121806   5.504   4.704   6.090
 7283TIP3    H221807   5.508   4.562   6.141
 7284TIP3   OH221808   1.460   0.264   0.962
 7284TIP3    H121809   1.553   0.248   0.975
 7284TIP3    H221810   1.419   0.179   0.978
 7285TIP3   OH221811   4.352   3.387   4.682
 7285TIP3    H121812   4.420   3.320   4.673
 7285TIP3    H221813   4.346   3.401   4.777
 7286TIP3   OH221814   0.095   6.217   0.156
 7286TIP3    H121815   0.079   6.182   0.069
 7286TIP3    H221816   0.038   6.166   0.213
 7287TIP3   OH221817   4.240   0.036   3.585
 7287TIP3    H121818   4.194   0.023   3.503
 7287TIP3    H221819   4.172   0.060   3.648
 7288TIP3   OH221820   0.477   3.000   0.723
 7288TIP3    H121821   0.549   2.971   0.780
 7288TIP3    H221822   0.414   2.928   0.726
 7289TIP3   OH221823   6.533   6.588   2.920
 7289TIP3    H121824   6.610   6.534   2.902
 7289TIP3    H221825   6.535   6.656   2.852
 7290TIP3   OH221826   3.629   7.451   1.637
 7290TIP3    H121827   3.619   7.402   1.554
 7290TIP3    H221828   3.694   7.402   1.686
 7291TIP3   OH221829   7.743   6.879   4.748
 7291TIP3    H121830   7.815   6.831   4.707
 7291TIP3    H221831   7.680   6.892   4.677
 7292TIP3   OH221832   1.947   0.245   1.047
 7292TIP3    H121833   2.025   0.189   1.047
 7292TIP3    H221834   1.955   0.298   0.969
 7293TIP3   OH221835   4.592   2.905   1.606
 7293TIP3    H121836   4.548   2.990   1.591
 7293TIP3    H221837   4.532   2.858   1.663
 7294TIP3   OH221838   4.735   4.439   0.318
 7294TIP3    H121839   4.760   4.516   0.369
 7294TIP3    H221840   4.812   4.382   0.322
 7295TIP3   OH221841   4.996   0.166   1.750
 7295TIP3    H121842   4.911   0.124   1.736
 7295TIP3    H221843   5.060   0.100   1.723
 7296TIP3   OH221844   5.805   5.969   3.147
 7296TIP3    H121845   5.802   6.062   3.172
 7296TIP3    H221846   5.719   5.953   3.107
 7297TIP3   OH221847   2.194   3.642   4.669
 7297TIP3    H121848   2.129   3.676   4.608
 7297TIP3    H221849   2.269   3.701   4.659
 7298TIP3   OH221850   5.679   7.799   4.726
 7298TIP3    H121851   5.613   7.742   4.766
 7298TIP3    H221852   5.756   7.789   4.781
 7299TIP3   OH221853   0.038   5.473   3.704
 7299TIP3    H121854   0.034   5.488   3.609
 7299TIP3    H221855  -0.043   5.425   3.724
 7300TIP3   OH221856   1.637   2.856   5.964
 7300TIP3    H121857   1.603   2.893   6.046
 7300TIP3    H221858   1.586   2.776   5.951
 7301TIP3   OH221859   4.671   7.567   0.472
 7301TIP3    H121860   4.689   7.535   0.384
 7301TIP3    H221861   4.622   7.496   0.514
 7302TIP3   OH221862   6.057   3.227   5.247
 7302TIP3    H121863   6.087   3.193   5.162
 7302TIP3    H221864   6.116   3.186   5.310
 7303TIP3   OH221865   1.557   4.046   6.067
 7303TIP3    H121866   1.479   4.015   6.114
 7303TIP3    H221867   1.586   3.970   6.016
 7304TIP3   OH221868   8.278   2.821   2.258
 7304TIP3    H121869   8.369   2.791   2.260
 7304TIP3    H221870   8.264   2.849   2.168
 7305TIP3   OH221871   3.034   5.858   0.940
 7305TIP3    H121872   2.955   5.805   0.928
 7305TIP3    H221873   3.047   5.861   1.035
 7306TIP3   OH221874   2.500   6.443   1.626
 7306TIP3    H121875   2.573   6.506   1.627
 7306TIP3    H221876   2.451   6.465   1.547
 7307TIP3   OH221877   6.211   6.025   0.255
 7307TIP3    H121878   6.166   6.005   0.172
 7307TIP3    H221879   6.209   5.942   0.303
 7308TIP3   OH221880   3.733   4.283   5.904
 7308TIP3    H121881   3.732   4.195   5.940
 7308TIP3    H221882   3.813   4.286   5.851
 7309TIP3   OH221883   5.038   2.443   6.689
 7309TIP3    H121884   4.975   2.384   6.647
 7309TIP3    H221885   4.986   2.521   6.711
 7310TIP3   OH221886   7.346   1.728   6.645
 7310TIP3    H121887   7.391   1.739   6.561
 7310TIP3    H221888   7.331   1.817   6.676
 7311TIP3   OH221889   3.375   1.763   1.141
 7311TIP3    H121890   3.376   1.742   1.234
 7311TIP3    H221891   3.288   1.801   1.126
 7312TIP3   OH221892   2.276   1.151   5.508
 7312TIP3    H121893   2.360   1.127   5.468
 7312TIP3    H221894   2.214   1.086   5.475
 7313TIP3   OH221895   1.472   3.497   1.667
 7313TIP3    H121896   1.433   3.583   1.649
 7313TIP3    H221897   1.500   3.503   1.758
 7314TIP3   OH221898   2.014   6.480   6.365
 7314TIP3    H121899   2.062   6.398   6.368
 7314TIP3    H221900   2.068   6.538   6.311
 7315TIP3   OH221901   0.829   4.455   1.000
 7315TIP3    H121902   0.871   4.380   1.040
 7315TIP3    H221903   0.824   4.433   0.907
 7316TIP3   OH221904   7.787   5.718   4.267
 7316TIP3    H121905   7.695   5.702   4.286
 7316TIP3    H221906   7.789   5.804   4.224
 7317TIP3   OH221907   3.555   7.071   6.590
 7317TIP3    H121908   3.557   6.992   6.644
 7317TIP3    H221909   3.644   7.107   6.597
 7318TIP3   OH221910   8.100   1.955   6.194
 7318TIP3    H121911   8.104   1.904   6.275
 7318TIP3    H221912   8.127   1.894   6.125
 7319TIP3   OH221913   2.848   0.420   3.143
 7319TIP3    H121914   2.919   0.481   3.165
 7319TIP3    H221915   2.798   0.412   3.224
 7320TIP3   OH221916   2.993   5.534   0.927
 7320TIP3    H121917   2.918   5.593   0.922
 7320TIP3    H221918   2.973   5.476   1.001
 7321TIP3   OH221919   4.884   2.449   0.071
 7321TIP3    H121920   4.889   2.521   0.009
 7321TIP3    H221921   4.963   2.397   0.055
 7322TIP3   OH221922   5.215   5.113   1.285
 7322TIP3    H121923   5.250   5.039   1.235
 7322TIP3    H221924   5.286   5.177   1.286
 7323TIP3   OH221925   3.737   1.748   2.923
 7323TIP3    H121926   3.743   1.689   2.849
 7323TIP3    H221927   3.777   1.700   2.996
 7324TIP3   OH221928   7.409   5.504   3.082
 7324TIP3    H121929   7.389   5.417   3.049
 7324TIP3    H221930   7.397   5.562   3.007
 7325TIP3   OH221931   5.002   1.715   4.296
 7325TIP3    H121932   4.947   1.701   4.219
 7325TIP3    H221933   5.091   1.704   4.264
 7326TIP3   OH221934   4.610   2.585   1.518
 7326TIP3    H121935   4.536   2.536   1.483
 7326TIP3    H221936   4.606   2.669   1.472
 7327TIP3   OH221937   6.513   1.004   6.790
 7327TIP3    H121938   6.441   1.065   6.775
 7327TIP3    H221939   6.550   0.989   6.702
 7328TIP3   OH221940   7.727   5.585   3.205
 7328TIP3    H121941   7.696   5.552   3.121
 7328TIP3    H221942   7.688   5.527   3.270
 7329TIP3   OH221943   4.727   2.391   2.033
 7329TIP3    H121944   4.654   2.442   1.999
 7329TIP3    H221945   4.688   2.338   2.103
 7330TIP3   OH221946   8.081   2.700   5.623
 7330TIP3    H121947   8.167   2.672   5.654
 7330TIP3    H221948   8.100   2.751   5.544
 7331TIP3   OH221949   5.751   5.354   6.032
 7331TIP3    H121950   5.696   5.279   6.053
 7331TIP3    H221951   5.698   5.405   5.969
 7332TIP3   OH221952   6.020   0.102   1.358
 7332TIP3    H121953   6.024   0.012   1.390
 7332TIP3    H221954   6.094   0.145   1.400
 7333TIP3   OH221955   6.950   3.400   2.375
 7333TIP3    H121956   7.033   3.380   2.416
 7333TIP3    H221957   6.953   3.495   2.358
 7334TIP3   OH221958   6.818   7.686   4.287
 7334TIP3    H121959   6.896   7.630   4.285
 7334TIP3    H221960   6.832   7.749   4.215
 7335TIP3   OH221961   5.280   6.505   5.353
 7335TIP3    H121962   5.191   6.533   5.371
 7335TIP3    H221963   5.308   6.463   5.434
 7336TIP3   OH221964   6.988   7.603   0.528
 7336TIP3    H121965   7.040   7.676   0.561
 7336TIP3    H221966   7.036   7.525   0.556
 7337TIP3   OH221967   4.003   7.799   6.540
 7337TIP3    H121968   4.012   7.881   6.492
 7337TIP3    H221969   3.966   7.738   6.476
 7338TIP3   OH221970   5.693   1.818   6.417
 7338TIP3    H121971   5.599   1.836   6.424
 7338TIP3    H221972   5.707   1.744   6.476
 7339TIP3   OH221973   0.769   2.736   5.607
 7339TIP3    H121974   0.837   2.786   5.652
 7339TIP3    H221975   0.718   2.802   5.560
 7340TIP3   OH221976   7.425   4.960   5.072
 7340TIP3    H121977   7.500   4.901   5.063
 7340TIP3    H221978   7.452   5.022   5.140
 7341TIP3   OH221979   1.143   7.090   0.366
 7341TIP3    H121980   1.084   7.165   0.357
 7341TIP3    H221981   1.089   7.022   0.404
 7342TIP3   OH221982   7.690   6.859   2.592
 7342TIP3    H121983   7.614   6.806   2.618
 7342TIP3    H221984   7.706   6.917   2.666
 7343TIP3   OH221985   0.488   0.754   1.524
 7343TIP3    H121986   0.452   0.746   1.613
 7343TIP3    H221987   0.413   0.736   1.467
 7344TIP3   OH221988   3.871   6.580   0.140
 7344TIP3    H121989   3.882   6.666   0.099
 7344TIP3    H221990   3.915   6.588   0.225
 7345TIP3   OH221991   6.118   3.272   6.317
 7345TIP3    H121992   6.132   3.237   6.405
 7345TIP3    H221993   6.093   3.195   6.265
 7346TIP3   OH221994   3.752   1.554   0.944
 7346TIP3    H121995   3.837   1.596   0.961
 7346TIP3    H221996   3.689   1.627   0.944
 7347TIP3   OH221997   3.569   5.918   0.329
 7347TIP3    H121998   3.598   5.890   0.415
 7347TIP3    H221999   3.478   5.943   0.341
 7348TIP3   OH222000   5.580   6.546   5.919
 7348TIP3    H122001   5.651   6.607   5.902
 7348TIP3    H222002   5.506   6.582   5.870
 7349TIP3   OH222003   4.121   5.552   5.588
 7349TIP3    H122004   4.027   5.573   5.593
 7349TIP3    H222005   4.149   5.548   5.679
 7350TIP3   OH222006   2.498   4.847   2.789
 7350TIP3    H122007   2.504   4.849   2.694
 7350TIP3    H222008   2.407   4.872   2.808
 7351TIP3   OH222009   7.498   3.451   2.326
 7351TIP3    H122010   7.498   3.442   2.421
 7351TIP3    H222011   7.413   3.491   2.306
 7352TIP3   OH222012   0.753   5.004   2.765
 7352TIP3    H122013   0.681   5.067   2.761
 7352TIP3    H222014   0.823   5.050   2.811
 7353TIP3   OH222015   5.158   0.799   5.534
 7353TIP3    H122016   5.229   0.847   5.493
 7353TIP3    H222017   5.190   0.781   5.623
 7354TIP3   OH222018   0.191   6.608   1.155
 7354TIP3    H122019   0.117   6.555   1.186
 7354TIP3    H222020   0.166   6.698   1.175
 7355TIP3   OH222021   5.269   1.157   1.953
 7355TIP3    H122022   5.233   1.193   2.034
 7355TIP3    H222023   5.212   1.083   1.932
 7356TIP3   OH222024   6.916   0.297   5.244
 7356TIP3    H122025   6.991   0.355   5.226
 7356TIP3    H222026   6.873   0.337   5.319
 7357TIP3   OH222027   4.199   0.571   1.403
 7357TIP3    H122028   4.131   0.531   1.349
 7357TIP3    H222029   4.152   0.608   1.477
 7358TIP3   OH222030   2.672   7.464   2.533
 7358TIP3    H122031   2.724   7.415   2.596
 7358TIP3    H222032   2.723   7.460   2.452
 7359TIP3   OH222033   4.992   5.125   1.433
 7359TIP3    H122034   4.952   5.039   1.426
 7359TIP3    H222035   5.065   5.123   1.371
 7360TIP3   OH222036   2.625   2.129   6.632
 7360TIP3    H122037   2.641   2.200   6.694
 7360TIP3    H222038   2.617   2.051   6.686
 7361TIP3   OH222039   2.941   5.474   1.445
 7361TIP3    H122040   2.998   5.482   1.521
 7361TIP3    H222041   2.892   5.556   1.443
 7362TIP3   OH222042   2.299   4.681   4.808
 7362TIP3    H122043   2.329   4.590   4.808
 7362TIP3    H222044   2.347   4.723   4.879
 7363TIP3   OH222045   2.236   6.811   6.699
 7363TIP3    H122046   2.282   6.867   6.637
 7363TIP3    H222047   2.197   6.742   6.646
 7364TIP3   OH222048   2.723   7.773   1.214
 7364TIP3    H122049   2.670   7.735   1.284
 7364TIP3    H222050   2.659   7.818   1.158
 7365TIP3   OH222051   7.129   1.186   3.452
 7365TIP3    H122052   7.077   1.186   3.532
 7365TIP3    H222053   7.150   1.278   3.437
 7366TIP3   OH222054   3.123   3.750   4.825
 7366TIP3    H122055   3.152   3.801   4.749
 7366TIP3    H222056   3.138   3.659   4.799
 7367TIP3   OH222057   4.156   3.357   2.269
 7367TIP3    H122058   4.127   3.424   2.206
 7367TIP3    H222059   4.148   3.400   2.354
 7368TIP3   OH222060   1.485   1.408   3.613
 7368TIP3    H122061   1.543   1.471   3.656
 7368TIP3    H222062   1.523   1.322   3.634
 7369TIP3   OH222063   0.865   5.723   1.414
 7369TIP3    H122064   0.781   5.766   1.396
 7369TIP3    H222065   0.844   5.658   1.481
 7370TIP3   OH222066   5.667   1.931   5.861
 7370TIP3    H122067   5.626   2.004   5.908
 7370TIP3    H222068   5.637   1.853   5.908
 7371TIP3   OH222069   1.914  -0.007   2.818
 7371TIP3    H122070   1.889  -0.024   2.909
 7371TIP3    H222071   1.831   0.014   2.775
 7372TIP3   OH222072   0.232   0.813   0.897
 7372TIP3    H122073   0.188   0.879   0.844
 7372TIP3    H222074   0.281   0.864   0.962
 7373TIP3   OH222075   7.070   6.975   4.254
 7373TIP3    H122076   7.055   7.026   4.175
 7373TIP3    H222077   7.020   7.021   4.322
 7374TIP3   OH222078   5.774   2.879   0.801
 7374TIP3    H122079   5.791   2.973   0.799
 7374TIP3    H222080   5.822   2.848   0.878
 7375TIP3   OH222081   1.848   6.065   0.109
 7375TIP3    H122082   1.759   6.080   0.076
 7375TIP3    H222083   1.848   5.973   0.136
 7376TIP3   OH222084   0.095   0.150   4.537
 7376TIP3    H122085   0.118   0.078   4.596
 7376TIP3    H222086   0.136   0.227   4.576
 7377TIP3   OH222087   1.233   1.876   1.941
 7377TIP3    H122088   1.234   1.842   2.030
 7377TIP3    H222089   1.203   1.966   1.950
 7378TIP3   OH222090   7.741   5.271   5.775
 7378TIP3    H122091   7.811   5.336   5.784
 7378TIP3    H222092   7.783   5.197   5.731
 7379TIP3   OH222093   0.419   4.187   4.926
 7379TIP3    H122094   0.404   4.216   4.836
 7379TIP3    H222095   0.452   4.265   4.971
 7380TIP3   OH222096   7.155   2.787   5.508
 7380TIP3    H122097   7.236   2.778   5.558
 7380TIP3    H222098   7.179   2.839   5.431
 7381TIP3   OH222099   3.686   4.704   1.905
 7381TIP3    H122100   3.686   4.702   1.810
 7381TIP3    H222101   3.778   4.704   1.930
 7382TIP3   OH222102   4.459   0.770   3.412
 7382TIP3    H122103   4.364   0.759   3.409
 7382TIP3    H222104   4.494   0.688   3.375
 7383TIP3   OH222105   0.053   0.262   4.863
 7383TIP3    H122106   0.078   0.219   4.944
 7383TIP3    H222107  -0.016   0.206   4.827
 7384TIP3   OH222108   7.555   4.440   5.930
 7384TIP3    H122109   7.473   4.456   5.884
 7384TIP3    H222110   7.570   4.346   5.922
 7385TIP3   OH222111   5.729   0.103   4.791
 7385TIP3    H122112   5.762   0.124   4.704
 7385TIP3    H222113   5.733   0.185   4.839
 7386TIP3   OH222114   4.549   2.745   3.405
 7386TIP3    H122115   4.629   2.694   3.415
 7386TIP3    H222116   4.551   2.777   3.315
 7387TIP3   OH222117   7.073   5.693   1.752
 7387TIP3    H122118   7.044   5.603   1.764
 7387TIP3    H222119   6.995   5.746   1.769
 7388TIP3   OH222120   6.456   7.062   4.410
 7388TIP3    H122121   6.549   7.083   4.417
 7388TIP3    H222122   6.448   7.017   4.326
 7389TIP3   OH222123   2.308   7.681   1.184
 7389TIP3    H122124   2.236   7.740   1.160
 7389TIP3    H222125   2.340   7.648   1.101
 7390TIP3   OH222126   2.229   3.752   1.133
 7390TIP3    H122127   2.196   3.746   1.043
 7390TIP3    H222128   2.162   3.708   1.185
 7391TIP3   OH222129   6.910   1.080   4.877
 7391TIP3    H122130   6.978   1.147   4.872
 7391TIP3    H222131   6.947   1.012   4.933
 7392TIP3   OH222132   5.443   7.512   0.937
 7392TIP3    H122133   5.532   7.495   0.905
 7392TIP3    H222134   5.455   7.579   1.004
 7393TIP3   OH222135   7.043   6.627   5.262
 7393TIP3    H122136   7.085   6.593   5.183
 7393TIP3    H222137   7.036   6.551   5.320
 7394TIP3   OH222138   5.115   1.392   0.765
 7394TIP3    H122139   5.210   1.402   0.762
 7394TIP3    H222140   5.088   1.441   0.843
 7395TIP3   OH222141   4.689   2.388   3.303
 7395TIP3    H122142   4.716   2.461   3.358
 7395TIP3    H222143   4.639   2.330   3.361
 7396TIP3   OH222144   5.403   2.068   1.623
 7396TIP3    H122145   5.385   2.006   1.553
 7396TIP3    H222146   5.370   2.152   1.590
 7397TIP3   OH222147   6.530   6.750   6.574
 7397TIP3    H122148   6.541   6.845   6.575
 7397TIP3    H222149   6.611   6.717   6.536
 7398TIP3   OH222150   8.092   2.412   5.398
 7398TIP3    H122151   8.012   2.464   5.394
 7398TIP3    H222152   8.161   2.472   5.368
 7399TIP3   OH222153   1.586   3.267   4.961
 7399TIP3    H122154   1.620   3.186   4.924
 7399TIP3    H222155   1.587   3.252   5.056
 7400TIP3   OH222156   0.124   1.686   3.559
 7400TIP3    H122157   0.210   1.645   3.565
 7400TIP3    H222158   0.125   1.733   3.476
 7401TIP3   OH222159   6.142   2.043   6.235
 7401TIP3    H122160   6.051   2.074   6.230
 7401TIP3    H222161   6.136   1.957   6.277
 7402TIP3   OH222162   3.728   4.854   5.657
 7402TIP3    H122163   3.682   4.774   5.682
 7402TIP3    H222164   3.756   4.838   5.566
 7403TIP3   OH222165   1.880   0.401   4.333
 7403TIP3    H122166   1.927   0.371   4.255
 7403TIP3    H222167   1.788   0.382   4.314
 7404TIP3   OH222168   1.954   1.207   1.111
 7404TIP3    H122169   1.901   1.205   1.190
 7404TIP3    H222170   1.951   1.118   1.077
 7405TIP3   OH222171   1.663   4.247   5.092
 7405TIP3    H122172   1.648   4.157   5.063
 7405TIP3    H222173   1.638   4.247   5.185
 7406TIP3   OH222174   1.732   7.472   0.503
 7406TIP3    H122175   1.689   7.552   0.473
 7406TIP3    H222176   1.744   7.420   0.424
 7407TIP3   OH222177   3.063   2.651   3.129
 7407TIP3    H122178   2.981   2.680   3.088
 7407TIP3    H222179   3.038   2.571   3.176
 7408TIP3   OH222180   7.347   2.029   2.223
 7408TIP3    H122181   7.423   1.971   2.232
 7408TIP3    H222182   7.286   1.980   2.169
 7409TIP3   OH222183   4.019   0.274   1.665
 7409TIP3    H122184   4.035   0.363   1.698
 7409TIP3    H222185   4.105   0.244   1.636
 7410TIP3   OH222186   7.591   6.176   6.362
 7410TIP3    H122187   7.528   6.240   6.393
 7410TIP3    H222188   7.662   6.178   6.427
 7411TIP3   OH222189   0.748   2.422   5.386
 7411TIP3    H122190   0.759   2.379   5.471
 7411TIP3    H222191   0.655   2.443   5.382
 7412TIP3   OH222192   2.037   2.676   5.586
 7412TIP3    H122193   1.967   2.702   5.525
 7412TIP3    H222194   2.036   2.580   5.583
 7413TIP3   OH222195   1.773   5.587   0.920
 7413TIP3    H122196   1.759   5.657   0.856
 7413TIP3    H222197   1.851   5.540   0.887
 7414TIP3   OH222198   0.392   3.837   1.182
 7414TIP3    H122199   0.314   3.876   1.144
 7414TIP3    H222200   0.359   3.764   1.235
 7415TIP3   OH222201   0.099   6.352   2.696
 7415TIP3    H122202   0.061   6.422   2.644
 7415TIP3    H222203   0.183   6.387   2.726
 7416TIP3   OH222204   4.421   2.428   2.607
 7416TIP3    H122205   4.500   2.480   2.595
 7416TIP3    H222206   4.388   2.414   2.518
 7417TIP3   OH222207   7.386   3.405   2.889
 7417TIP3    H122208   7.456   3.460   2.925
 7417TIP3    H222209   7.420   3.316   2.893
 7418TIP3   OH222210   0.407   1.764   0.973
 7418TIP3    H122211   0.353   1.709   0.918
 7418TIP3    H222212   0.489   1.716   0.982
 7419TIP3   OH222213   8.252   1.509   6.144
 7419TIP3    H122214   8.271   1.415   6.143
 7419TIP3    H222215   8.274   1.539   6.056
 7420TIP3   OH222216   7.602   5.198   6.336
 7420TIP3    H122217   7.523   5.230   6.380
 7420TIP3    H222218   7.666   5.268   6.349
 7421TIP3   OH222219   0.780   2.734   0.377
 7421TIP3    H122220   0.829   2.811   0.347
 7421TIP3    H222221   0.808   2.664   0.318
 7422TIP3   OH222222   8.197   0.519   3.823
 7422TIP3    H122223   8.160   0.430   3.817
 7422TIP3    H222224   8.282   0.506   3.863
 7423TIP3   OH222225   3.207   2.741   4.511
 7423TIP3    H122226   3.149   2.780   4.445
 7423TIP3    H222227   3.289   2.789   4.502
 7424TIP3   OH222228   1.221   0.719   1.489
 7424TIP3    H122229   1.223   0.650   1.556
 7424TIP3    H222230   1.252   0.676   1.410
 7425TIP3   OH222231   1.244   0.271   2.226
 7425TIP3    H122232   1.174   0.218   2.186
 7425TIP3    H222233   1.226   0.267   2.320
 7426TIP3   OH222234   6.074   6.094   6.369
 7426TIP3    H122235   6.026   6.091   6.452
 7426TIP3    H222236   6.137   6.166   6.380
 7427TIP3   OH222237   6.690   7.133   2.273
 7427TIP3    H122238   6.767   7.150   2.327
 7427TIP3    H222239   6.623   7.193   2.307
 7428TIP3   OH222240   7.510   6.681   1.834
 7428TIP3    H122241   7.536   6.764   1.876
 7428TIP3    H222242   7.497   6.621   1.907
 7429TIP3   OH222243   4.621   1.212   4.708
 7429TIP3    H122244   4.597   1.133   4.757
 7429TIP3    H222245   4.694   1.249   4.757
 7430TIP3   OH222246   2.297   3.302   2.221
 7430TIP3    H122247   2.306   3.390   2.185
 7430TIP3    H222248   2.203   3.290   2.235
 7431TIP3   OH222249   2.883   1.669   6.760
 7431TIP3    H122250   2.960   1.659   6.817
 7431TIP3    H222251   2.902   1.746   6.707
 7432TIP3   OH222252   5.968   1.757   3.182
 7432TIP3    H122253   5.998   1.713   3.102
 7432TIP3    H222254   6.036   1.739   3.247
 7433TIP3   OH222255   7.708   0.971   1.871
 7433TIP3    H122256   7.622   0.970   1.914
 7433TIP3    H222257   7.690   1.007   1.784
 7434TIP3   OH222258   5.601   7.852   0.815
 7434TIP3    H122259   5.522   7.836   0.764
 7434TIP3    H222260   5.672   7.850   0.751
 7435TIP3   OH222261   6.877   2.467   0.377
 7435TIP3    H122262   6.826   2.432   0.304
 7435TIP3    H222263   6.856   2.561   0.379
 7436TIP3   OH222264   1.586   5.868   2.682
 7436TIP3    H122265   1.592   5.775   2.704
 7436TIP3    H222266   1.633   5.912   2.752
 7437TIP3   OH222267   1.942   2.958   6.209
 7437TIP3    H122268   1.853   2.976   6.241
 7437TIP3    H222269   1.997   2.969   6.287
 7438TIP3   OH222270   1.014   3.679   1.444
 7438TIP3    H122271   0.926   3.676   1.482
 7438TIP3    H222272   0.999   3.673   1.349
 7439TIP3   OH222273   6.436   6.977   4.963
 7439TIP3    H122274   6.428   7.050   4.902
 7439TIP3    H222275   6.517   6.933   4.936
 7440TIP3   OH222276   0.257   0.864   3.362
 7440TIP3    H122277   0.301   0.917   3.296
 7440TIP3    H222278   0.164   0.880   3.347
 7441TIP3   OH222279   0.410   5.738   4.266
 7441TIP3    H122280   0.325   5.734   4.223
 7441TIP3    H222281   0.460   5.802   4.216
 7442TIP3   OH222282   5.801   5.392   4.026
 7442TIP3    H122283   5.758   5.315   4.064
 7442TIP3    H222284   5.889   5.361   4.004
 7443TIP3   OH222285   0.945   3.422   0.461
 7443TIP3    H122286   0.995   3.453   0.537
 7443TIP3    H222287   0.858   3.462   0.472
 7444TIP3   OH222288   2.935   5.599   4.107
 7444TIP3    H122289   2.926   5.570   4.198
 7444TIP3    H222290   2.905   5.525   4.054
 7445TIP3   OH222291   0.115   2.173   1.785
 7445TIP3    H122292   0.191   2.115   1.772
 7445TIP3    H222293   0.153   2.258   1.807
 7446TIP3   OH222294   2.281   2.870   2.383
 7446TIP3    H122295   2.373   2.896   2.378
 7446TIP3    H222296   2.270   2.839   2.473
 7447TIP3   OH222297   0.435   6.987   0.600
 7447TIP3    H122298   0.375   7.059   0.618
 7447TIP3    H222299   0.469   6.962   0.686
 7448TIP3   OH222300   4.514   3.390   1.637
 7448TIP3    H122301   4.585   3.448   1.667
 7448TIP3    H222302   4.445   3.449   1.609
 7449TIP3   OH222303   3.794   7.575   2.467
 7449TIP3    H122304   3.856   7.570   2.540
 7449TIP3    H222305   3.848   7.598   2.391
 7450TIP3   OH222306   2.921   3.859   6.366
 7450TIP3    H122307   2.949   3.779   6.410
 7450TIP3    H222308   2.989   3.876   6.301
 7451TIP3   OH222309   1.412   0.831   1.666
 7451TIP3    H122310   1.334   0.879   1.695
 7451TIP3    H222311   1.389   0.799   1.579
 7452TIP3   OH222312   8.241   1.892   5.334
 7452TIP3    H122313   8.328   1.856   5.353
 7452TIP3    H222314   8.247   1.984   5.358
 7453TIP3   OH222315   3.637   0.952   4.253
 7453TIP3    H122316   3.636   1.032   4.306
 7453TIP3    H222317   3.583   0.890   4.302
 7454TIP3   OH222318   6.843   1.212   3.985
 7454TIP3    H122319   6.852   1.182   4.076
 7454TIP3    H222320   6.751   1.195   3.963
 7455TIP3   OH222321   7.702   7.224   0.085
 7455TIP3    H122322   7.740   7.136   0.086
 7455TIP3    H222323   7.644   7.225   0.009
 7456TIP3   OH222324   4.067   6.539   5.923
 7456TIP3    H122325   4.101   6.551   6.011
 7456TIP3    H222326   3.983   6.495   5.935
 7457TIP3   OH222327   4.583   3.651   4.566
 7457TIP3    H122328   4.524   3.576   4.555
 7457TIP3    H222329   4.545   3.700   4.639
 7458TIP3   OH222330   1.693   4.637   0.683
 7458TIP3    H122331   1.731   4.724   0.670
 7458TIP3    H222332   1.677   4.632   0.777
 7459TIP3   OH222333   2.193   1.576   1.901
 7459TIP3    H122334   2.276   1.560   1.856
 7459TIP3    H222335   2.132   1.602   1.832
 7460TIP3   OH222336   4.526   6.786   5.517
 7460TIP3    H122337   4.479   6.800   5.599
 7460TIP3    H222338   4.575   6.867   5.502
 7461TIP3   OH222339   2.256   7.643   3.131
 7461TIP3    H122340   2.313   7.626   3.056
 7461TIP3    H222341   2.310   7.621   3.207
 7462TIP3   OH222342   0.128   1.048   2.852
 7462TIP3    H122343   0.171   1.133   2.867
 7462TIP3    H222344   0.065   1.040   2.924
 7463TIP3   OH222345   6.729   6.764   0.798
 7463TIP3    H122346   6.773   6.681   0.815
 7463TIP3    H222347   6.745   6.817   0.877
 7464TIP3   OH222348   4.120   0.855   5.237
 7464TIP3    H122349   4.076   0.919   5.293
 7464TIP3    H222350   4.115   0.773   5.286
 7465TIP3   OH222351   2.154   4.487   1.872
 7465TIP3    H122352   2.175   4.403   1.913
 7465TIP3    H222353   2.137   4.547   1.945
 7466TIP3   OH222354   4.066   1.713   1.599
 7466TIP3    H122355   4.049   1.633   1.648
 7466TIP3    H222356   4.114   1.770   1.660
 7467TIP3   OH222357   7.240   4.214   0.642
 7467TIP3    H122358   7.231   4.137   0.698
 7467TIP3    H222359   7.196   4.284   0.689
 7468TIP3   OH222360   4.068   2.962   0.242
 7468TIP3    H122361   3.995   3.007   0.200
 7468TIP3    H222362   4.045   2.869   0.236
 7469TIP3   OH222363   6.731   2.086   3.637
 7469TIP3    H122364   6.643   2.058   3.612
 7469TIP3    H222365   6.773   2.109   3.555
 7470TIP3   OH222366   4.159   1.081   3.893
 7470TIP3    H122367   4.223   1.012   3.874
 7470TIP3    H222368   4.105   1.045   3.964
 7471TIP3   OH222369   4.606   3.455   5.436
 7471TIP3    H122370   4.593   3.405   5.356
 7471TIP3    H222371   4.596   3.391   5.507
 7472TIP3   OH222372   5.952   0.183   1.086
 7472TIP3    H122373   5.957   0.168   1.180
 7472TIP3    H222374   5.998   0.109   1.047
 7473TIP3   OH222375   7.519   1.422   3.902
 7473TIP3    H122376   7.460   1.488   3.940
 7473TIP3    H222377   7.587   1.411   3.967
 7474TIP3   OH222378   8.234   6.986   2.081
 7474TIP3    H122379   8.301   6.943   2.135
 7474TIP3    H222380   8.204   6.918   2.021
 7475TIP3   OH222381   0.127   6.112   1.257
 7475TIP3    H122382   0.212   6.113   1.213
 7475TIP3    H222383   0.088   6.028   1.233
 7476TIP3   OH222384   1.551   1.963   5.768
 7476TIP3    H122385   1.483   1.978   5.704
 7476TIP3    H222386   1.589   2.049   5.785
 7477TIP3   OH222387   1.010   1.888   3.287
 7477TIP3    H122388   1.035   1.974   3.321
 7477TIP3    H222389   1.091   1.852   3.250
 7478TIP3   OH222390   6.129   6.126   1.787
 7478TIP3    H122391   6.089   6.136   1.873
 7478TIP3    H222392   6.206   6.183   1.788
 7479TIP3   OH222393   0.255   6.498   3.390
 7479TIP3    H122394   0.257   6.466   3.480
 7479TIP3    H222395   0.179   6.556   3.386
 7480TIP3   OH222396   0.573   6.633   1.371
 7480TIP3    H122397   0.650   6.630   1.428
 7480TIP3    H222398   0.596   6.578   1.296
 7481TIP3   OH222399   6.927   6.821   2.790
 7481TIP3    H122400   6.887   6.862   2.867
 7481TIP3    H222401   6.854   6.779   2.745
 7482TIP3   OH222402   7.456   4.182   6.532
 7482TIP3    H122403   7.537   4.223   6.564
 7482TIP3    H222404   7.459   4.093   6.568
 7483TIP3   OH222405   4.530   1.893   4.296
 7483TIP3    H122406   4.477   1.905   4.375
 7483TIP3    H222407   4.611   1.851   4.328
 7484TIP3   OH222408   7.544   4.188   1.366
 7484TIP3    H122409   7.507   4.147   1.444
 7484TIP3    H222410   7.618   4.239   1.399
 7485TIP3   OH222411   3.220   7.418   4.182
 7485TIP3    H122412   3.266   7.502   4.193
 7485TIP3    H222413   3.290   7.353   4.177
 7486TIP3   OH222414   6.286   6.706   0.647
 7486TIP3    H122415   6.273   6.728   0.740
 7486TIP3    H222416   6.375   6.673   0.643
 7487TIP3   OH222417   2.228   4.146   1.685
 7487TIP3    H122418   2.277   4.209   1.632
 7487TIP3    H222419   2.202   4.078   1.623
 7488TIP3   OH222420   6.113   2.742   2.065
 7488TIP3    H122421   6.031   2.757   2.020
 7488TIP3    H222422   6.118   2.811   2.131
 7489TIP3   OH222423   3.629   1.074   2.189
 7489TIP3    H122424   3.632   1.063   2.094
 7489TIP3    H222425   3.620   1.168   2.202
 7490TIP3   OH222426   4.783   2.341   4.298
 7490TIP3    H122427   4.755   2.306   4.383
 7490TIP3    H222428   4.816   2.428   4.317
 7491TIP3   OH222429   2.440   5.049   6.138
 7491TIP3    H122430   2.403   4.991   6.071
 7491TIP3    H222431   2.386   5.033   6.215
 7492TIP3   OH222432   3.211   3.290   1.198
 7492TIP3    H122433   3.238   3.301   1.289
 7492TIP3    H222434   3.207   3.195   1.186
 7493TIP3   OH222435   5.201   4.004   1.489
 7493TIP3    H122436   5.208   4.053   1.407
 7493TIP3    H222437   5.163   4.066   1.551
 7494TIP3   OH222438   3.802   7.491   0.322
 7494TIP3    H122439   3.776   7.554   0.255
 7494TIP3    H222440   3.872   7.440   0.281
 7495TIP3   OH222441   7.752   4.740   4.104
 7495TIP3    H122442   7.703   4.722   4.184
 7495TIP3    H222443   7.788   4.828   4.116
 7496TIP3   OH222444   6.500   3.644   6.644
 7496TIP3    H122445   6.442   3.686   6.707
 7496TIP3    H222446   6.490   3.550   6.661
 7497TIP3   OH222447   7.855   7.520   2.204
 7497TIP3    H122448   7.790   7.563   2.260
 7497TIP3    H222449   7.824   7.536   2.115
 7498TIP3   OH222450   0.725   1.660   6.702
 7498TIP3    H122451   0.749   1.752   6.706
 7498TIP3    H222452   0.670   1.646   6.779
 7499TIP3   OH222453   3.044   5.321   3.165
 7499TIP3    H122454   2.955   5.325   3.130
 7499TIP3    H222455   3.070   5.229   3.154
 7500TIP3   OH222456   1.668   2.359   4.474
 7500TIP3    H122457   1.727   2.284   4.466
 7500TIP3    H222458   1.629   2.368   4.388
 7501TIP3   OH222459   0.103   0.146   6.258
 7501TIP3    H122460   0.196   0.166   6.259
 7501TIP3    H222461   0.073   0.166   6.347
 7502TIP3   OH222462   1.861   2.162   3.031
 7502TIP3    H122463   1.902   2.099   2.971
 7502TIP3    H222464   1.808   2.109   3.090
 7503TIP3   OH222465   5.998   6.025   4.801
 7503TIP3    H122466   5.988   6.073   4.883
 7503TIP3    H222467   5.908   6.005   4.774
 7504TIP3   OH222468   1.181   7.028   6.715
 7504TIP3    H122469   1.162   6.958   6.653
 7504TIP3    H222470   1.179   6.985   6.800
 7505TIP3   OH222471   3.770   6.539   2.540
 7505TIP3    H122472   3.798   6.598   2.610
 7505TIP3    H222473   3.677   6.525   2.556
 7506TIP3   OH222474   2.752   2.011   2.329
 7506TIP3    H122475   2.829   2.059   2.298
 7506TIP3    H222476   2.678   2.062   2.297
 7507TIP3   OH222477   6.141   3.193   4.147
 7507TIP3    H122478   6.050   3.199   4.116
 7507TIP3    H222479   6.142   3.113   4.200
 7508TIP3   OH222480   0.124   3.897   5.206
 7508TIP3    H122481   0.040   3.896   5.252
 7508TIP3    H222482   0.110   3.955   5.131
 7509TIP3   OH222483   3.580   4.071   5.216
 7509TIP3    H122484   3.576   4.165   5.204
 7509TIP3    H222485   3.674   4.051   5.224
 7510TIP3   OH222486   0.393   5.101   5.991
 7510TIP3    H122487   0.408   5.038   6.061
 7510TIP3    H222488   0.302   5.128   6.002
 7511TIP3   OH222489   2.432   1.676   2.055
 7511TIP3    H122490   2.439   1.746   2.120
 7511TIP3    H222491   2.393   1.718   1.978
 7512TIP3   OH222492   2.326   0.955   6.279
 7512TIP3    H122493   2.318   0.905   6.197
 7512TIP3    H222494   2.300   1.044   6.255
 7513TIP3   OH222495   4.873   3.278   4.735
 7513TIP3    H122496   4.850   3.362   4.774
 7513TIP3    H222497   4.940   3.299   4.670
 7514TIP3   OH222498   0.671   3.700   1.465
 7514TIP3    H122499   0.645   3.670   1.552
 7514TIP3    H222500   0.672   3.795   1.472
 7515TIP3   OH222501   3.836   7.204   5.312
 7515TIP3    H122502   3.797   7.287   5.341
 7515TIP3    H222503   3.910   7.230   5.258
 7516TIP3   OH222504   1.087   6.568   3.533
 7516TIP3    H122505   1.118   6.655   3.560
 7516TIP3    H222506   0.997   6.581   3.506
 7517TIP3   OH222507   3.582   5.326   1.915
 7517TIP3    H122508   3.575   5.235   1.885
 7517TIP3    H222509   3.491   5.353   1.929
 7518TIP3   OH222510   1.738   3.117   4.079
 7518TIP3    H122511   1.764   3.209   4.069
 7518TIP3    H222512   1.762   3.095   4.169
 7519TIP3   OH222513   7.057   6.400   5.032
 7519TIP3    H122514   7.052   6.313   4.993
 7519TIP3    H222515   7.092   6.456   4.963
 7520TIP3   OH222516   5.341   3.821   5.695
 7520TIP3    H122517   5.301   3.754   5.751
 7520TIP3    H222518   5.411   3.858   5.749
 7521TIP3   OH222519   4.446   5.412   2.891
 7521TIP3    H122520   4.414   5.462   2.816
 7521TIP3    H222521   4.530   5.451   2.912
 7522TIP3   OH222522   7.046   3.518   4.858
 7522TIP3    H122523   7.056   3.575   4.934
 7522TIP3    H222524   7.106   3.554   4.792
 7523TIP3   OH222525   5.751   3.447   1.338
 7523TIP3    H122526   5.813   3.376   1.319
 7523TIP3    H222527   5.798   3.527   1.314
 7524TIP3   OH222528   3.910   2.127   0.862
 7524TIP3    H122529   3.867   2.072   0.927
 7524TIP3    H222530   3.905   2.216   0.898
 7525TIP3   OH222531   4.300   4.664   2.425
 7525TIP3    H122532   4.205   4.664   2.435
 7525TIP3    H222533   4.322   4.572   2.407
 7526TIP3   OH222534   1.508   1.515   4.112
 7526TIP3    H122535   1.552   1.574   4.172
 7526TIP3    H222536   1.458   1.573   4.054
 7527TIP3   OH222537   3.971   3.720   5.043
 7527TIP3    H122538   4.061   3.738   5.069
 7527TIP3    H222539   3.946   3.794   4.987
 7528TIP3   OH222540   8.253   3.797   5.786
 7528TIP3    H122541   8.265   3.887   5.816
 7528TIP3    H222542   8.227   3.805   5.694
 7529TIP3   OH222543   7.650   1.644   5.182
 7529TIP3    H122544   7.717   1.602   5.128
 7529TIP3    H222545   7.683   1.636   5.272
 7530TIP3   OH222546   0.952   7.520   6.711
 7530TIP3    H122547   0.919   7.522   6.621
 7530TIP3    H222548   0.990   7.433   6.722
 7531TIP3   OH222549   5.466   2.026   5.387
 7531TIP3    H122550   5.503   1.968   5.321
 7531TIP3    H222551   5.465   1.973   5.467
 7532TIP3   OH222552   6.785   7.498   6.099
 7532TIP3    H122553   6.748   7.570   6.048
 7532TIP3    H222554   6.852   7.540   6.153
 7533TIP3   OH222555   7.918   3.177   5.544
 7533TIP3    H122556   7.933   3.246   5.481
 7533TIP3    H222557   7.952   3.211   5.627
 7534TIP3   OH222558   0.099   6.375   4.786
 7534TIP3    H122559   0.091   6.469   4.803
 7534TIP3    H222560   0.145   6.340   4.862
 7535TIP3   OH222561   8.127   7.147   3.843
 7535TIP3    H122562   8.092   7.107   3.922
 7535TIP3    H222563   8.220   7.159   3.861
 7536TIP3   OH222564   4.407   1.391   0.504
 7536TIP3    H122565   4.378   1.302   0.488
 7536TIP3    H222566   4.372   1.442   0.431
 7537TIP3   OH222567   5.714   0.055   2.569
 7537TIP3    H122568   5.626   0.084   2.545
 7537TIP3    H222569   5.772   0.101   2.508
 7538TIP3   OH222570   1.824   6.325   5.760
 7538TIP3    H122571   1.908   6.309   5.804
 7538TIP3    H222572   1.768   6.252   5.788
 7539TIP3   OH222573   7.872   2.251   0.975
 7539TIP3    H122574   7.907   2.298   1.050
 7539TIP3    H222575   7.862   2.319   0.907
 7540TIP3   OH222576   3.432   3.682   2.782
 7540TIP3    H122577   3.461   3.632   2.858
 7540TIP3    H222578   3.339   3.661   2.773
 7541TIP3   OH222579   3.657   1.351   2.205
 7541TIP3    H122580   3.670   1.391   2.291
 7541TIP3    H222581   3.623   1.421   2.151
 7542TIP3   OH222582   3.932   3.011   1.420
 7542TIP3    H122583   3.964   3.007   1.330
 7542TIP3    H222584   3.846   2.968   1.416
 7543TIP3   OH222585   3.931   1.676   4.865
 7543TIP3    H122586   3.977   1.726   4.933
 7543TIP3    H222587   3.923   1.737   4.792
 7544TIP3   OH222588   4.830   5.736   4.667
 7544TIP3    H122589   4.773   5.761   4.740
 7544TIP3    H222590   4.914   5.718   4.708
 7545TIP3   OH222591   4.414   4.474   3.482
 7545TIP3    H122592   4.434   4.381   3.468
 7545TIP3    H222593   4.486   4.520   3.440
 7546TIP3   OH222594   2.860   7.249   1.039
 7546TIP3    H122595   2.829   7.338   1.054
 7546TIP3    H222596   2.790   7.193   1.072
 7547TIP3   OH222597   0.643   2.653   3.676
 7547TIP3    H122598   0.584   2.588   3.637
 7547TIP3    H222599   0.662   2.713   3.604
 7548TIP3   OH222600   6.372   2.900   1.115
 7548TIP3    H122601   6.404   2.963   1.050
 7548TIP3    H222602   6.423   2.821   1.099
 7549TIP3   OH222603   0.391   3.473   6.337
 7549TIP3    H122604   0.479   3.460   6.370
 7549TIP3    H222605   0.403   3.516   6.252
 7550TIP3   OH222606   4.996   1.530   5.686
 7550TIP3    H122607   5.021   1.559   5.774
 7550TIP3    H222608   5.079   1.521   5.639
 7551TIP3   OH222609   8.246   3.103   4.855
 7551TIP3    H122610   8.159   3.064   4.866
 7551TIP3    H222611   8.299   3.034   4.819
 7552TIP3   OH222612   3.817   4.799   2.515
 7552TIP3    H122613   3.841   4.892   2.520
 7552TIP3    H222614   3.721   4.799   2.524
 7553TIP3   OH222615   7.787   0.925   0.168
 7553TIP3    H122616   7.736   0.940   0.248
 7553TIP3    H222617   7.845   1.001   0.162
 7554TIP3   OH222618   1.861   1.026   6.322
 7554TIP3    H122619   1.902   0.985   6.246
 7554TIP3    H222620   1.877   0.964   6.394
 7555TIP3   OH222621   4.936   0.722   0.271
 7555TIP3    H122622   4.991   0.727   0.193
 7555TIP3    H222623   4.848   0.738   0.239
 7556TIP3   OH222624   3.640   4.645   3.696
 7556TIP3    H122625   3.554   4.631   3.656
 7556TIP3    H222626   3.622   4.663   3.788
 7557TIP3   OH222627   2.334   1.833   1.586
 7557TIP3    H122628   2.323   1.747   1.627
 7557TIP3    H222629   2.384   1.815   1.507
 7558TIP3   OH222630   4.663   3.269   3.466
 7558TIP3    H122631   4.606   3.264   3.389
 7558TIP3    H222632   4.661   3.362   3.490
 7559TIP3   OH222633   3.912   4.190   3.213
 7559TIP3    H122634   3.834   4.136   3.206
 7559TIP3    H222635   3.933   4.190   3.306
 7560TIP3   OH222636   5.545   3.560   2.872
 7560TIP3    H122637   5.582   3.476   2.843
 7560TIP3    H222638   5.455   3.539   2.897
 7561TIP3   OH222639   4.818   4.664   6.307
 7561TIP3    H122640   4.760   4.588   6.316
 7561TIP3    H222641   4.792   4.704   6.224
 7562TIP3   OH222642   0.683   6.120   5.913
 7562TIP3    H122643   0.731   6.162   5.984
 7562TIP3    H222644   0.710   6.029   5.916
 7563TIP3   OH222645   4.856   3.893   4.272
 7563TIP3    H122646   4.826   3.815   4.318
 7563TIP3    H222647   4.782   3.917   4.216
 7564TIP3   OH222648   1.917   1.753   1.464
 7564TIP3    H122649   1.855   1.826   1.467
 7564TIP3    H222650   1.922   1.730   1.371
 7565TIP3   OH222651   4.444   3.033   4.799
 7565TIP3    H122652   4.501   3.091   4.749
 7565TIP3    H222653   4.425   3.082   4.879
 7566TIP3   OH222654   0.145   1.361   5.755
 7566TIP3    H122655   0.119   1.437   5.806
 7566TIP3    H222656   0.221   1.390   5.705
 7567TIP3   OH222657   7.326  -0.041   3.516
 7567TIP3    H122658   7.236  -0.075   3.516
 7567TIP3    H222659   7.317   0.051   3.542
 7568TIP3   OH222660   3.390   0.481   6.456
 7568TIP3    H122661   3.389   0.392   6.419
 7568TIP3    H222662   3.335   0.475   6.534
 7569TIP3   OH222663   7.876   2.740   3.605
 7569TIP3    H122664   7.780   2.737   3.609
 7569TIP3    H222665   7.904   2.674   3.669
 7570TIP3   OH222666   2.097   7.537   6.735
 7570TIP3    H122667   2.005   7.512   6.738
 7570TIP3    H222668   2.142   7.468   6.785
 7571TIP3   OH222669   3.486   4.951   3.874
 7571TIP3    H122670   3.460   4.860   3.881
 7571TIP3    H222671   3.407   5.001   3.894
 7572TIP3   OH222672   8.202   5.026   1.321
 7572TIP3    H122673   8.278   5.040   1.378
 7572TIP3    H222674   8.134   5.081   1.359
 7573TIP3   OH222675   5.454   6.241   3.087
 7573TIP3    H122676   5.545   6.233   3.058
 7573TIP3    H222677   5.460   6.255   3.182
 7574TIP3   OH222678   0.942   3.859   0.912
 7574TIP3    H122679   0.878   3.801   0.871
 7574TIP3    H222680   0.890   3.926   0.955
 7575TIP3   OH222681   8.211   4.691   0.771
 7575TIP3    H122682   8.261   4.764   0.808
 7575TIP3    H222683   8.247   4.679   0.683
 7576TIP3   OH222684   4.435   5.186   4.363
 7576TIP3    H122685   4.502   5.254   4.375
 7576TIP3    H222686   4.385   5.189   4.444
 7577TIP3   OH222687   0.937   0.161   6.102
 7577TIP3    H122688   0.880   0.084   6.098
 7577TIP3    H222689   0.934   0.188   6.194
 7578TIP3   OH222690   7.650   7.538   3.069
 7578TIP3    H122691   7.661   7.484   3.147
 7578TIP3    H222692   7.728   7.594   3.068
 7579TIP3   OH222693   1.695   0.162   4.759
 7579TIP3    H122694   1.729   0.108   4.688
 7579TIP3    H222695   1.712   0.111   4.838
 7580TIP3   OH222696   2.730   0.350   0.456
 7580TIP3    H122697   2.821   0.335   0.483
 7580TIP3    H222698   2.736   0.368   0.362
 7581TIP3   OH222699   4.011   2.715   4.002
 7581TIP3    H122700   3.999   2.636   3.949
 7581TIP3    H222701   4.093   2.753   3.969
 7582TIP3   OH222702   7.803   6.434   2.444
 7582TIP3    H122703   7.717   6.474   2.430
 7582TIP3    H222704   7.846   6.438   2.358
 7583TIP3   OH222705   3.552   5.057   3.600
 7583TIP3    H122706   3.603   5.122   3.648
 7583TIP3    H222707   3.536   4.987   3.663
 7584TIP3   OH222708   5.911   3.095   5.823
 7584TIP3    H122709   5.881   3.009   5.796
 7584TIP3    H222710   5.833   3.138   5.858
 7585TIP3   OH222711   4.054   3.738   1.249
 7585TIP3    H122712   4.042   3.826   1.213
 7585TIP3    H222713   4.100   3.751   1.332
 7586TIP3   OH222714   2.734   6.624   4.361
 7586TIP3    H122715   2.824   6.596   4.343
 7586TIP3    H222716   2.698   6.554   4.415
 7587TIP3   OH222717   5.909   1.444   5.342
 7587TIP3    H122718   5.831   1.398   5.374
 7587TIP3    H222719   5.875   1.525   5.303
 7588TIP3   OH222720   4.873   1.265   3.934
 7588TIP3    H122721   4.881   1.310   3.850
 7588TIP3    H222722   4.921   1.183   3.923
 7589TIP3   OH222723   3.272   2.355   5.681
 7589TIP3    H122724   3.269   2.429   5.742
 7589TIP3    H222725   3.185   2.355   5.640
 7590TIP3   OH222726   6.878   2.794   4.884
 7590TIP3    H122727   6.803   2.735   4.894
 7590TIP3    H222728   6.954   2.735   4.880
 7591TIP3   OH222729   6.072   6.449   5.151
 7591TIP3    H122730   6.069   6.425   5.058
 7591TIP3    H222731   6.080   6.366   5.197
 7592TIP3   OH222732   0.091   1.187   0.098
 7592TIP3    H122733   0.110   1.130   0.025
 7592TIP3    H222734   0.099   1.276   0.063
 7593TIP3   OH222735   5.506   1.524   0.037
 7593TIP3    H122736   5.444   1.486  -0.026
 7593TIP3    H222737   5.465   1.510   0.122
 7594TIP3   OH222738   1.255   4.950   4.017
 7594TIP3    H122739   1.161   4.934   4.018
 7594TIP3    H222740   1.295   4.864   4.029
 7595TIP3   OH222741   1.486   6.549   0.672
 7595TIP3    H122742   1.464   6.613   0.740
 7595TIP3    H222743   1.468   6.464   0.712
 7596TIP3   OH222744   5.207  -0.060   2.314
 7596TIP3    H122745   5.115  -0.062   2.287
 7596TIP3    H222746   5.239   0.025   2.284
 7597TIP3   OH222747   2.310   3.925   0.147
 7597TIP3    H122748   2.231   3.914   0.200
 7597TIP3    H222749   2.300   3.862   0.075
 7598TIP3   OH222750   3.689   5.850   5.238
 7598TIP3    H122751   3.688   5.778   5.302
 7598TIP3    H222752   3.748   5.819   5.170
 7599TIP3   OH222753   0.643   4.683   5.305
 7599TIP3    H122754   0.558   4.715   5.274
 7599TIP3    H222755   0.700   4.689   5.227
 7600TIP3   OH222756   4.867   3.330   2.413
 7600TIP3    H122757   4.847   3.368   2.328
 7600TIP3    H222758   4.935   3.265   2.395
 7601TIP3   OH222759   0.936   1.615   2.010
 7601TIP3    H122760   0.964   1.634   1.920
 7601TIP3    H222761   0.882   1.536   2.002
 7602TIP3   OH222762   7.008   7.250   6.006
 7602TIP3    H122763   7.019   7.201   5.925
 7602TIP3    H222764   6.914   7.272   6.008
 7603TIP3   OH222765   2.472   3.571   2.114
 7603TIP3    H122766   2.530   3.496   2.127
 7603TIP3    H222767   2.471   3.616   2.199
 7604TIP3   OH222768   6.242   3.325   3.507
 7604TIP3    H122769   6.302   3.318   3.581
 7604TIP3    H222770   6.155   3.318   3.546
 7605TIP3   OH222771   3.229   3.801   3.268
 7605TIP3    H122772   3.216   3.764   3.355
 7605TIP3    H222773   3.174   3.879   3.266
 7606TIP3   OH222774   8.022   3.893   3.705
 7606TIP3    H122775   8.078   3.891   3.627
 7606TIP3    H222776   7.975   3.977   3.698
 7607TIP3   OH222777   6.436   1.176   1.256
 7607TIP3    H122778   6.532   1.178   1.256
 7607TIP3    H222779   6.410   1.257   1.213
 7608TIP3   OH222780   6.660   6.038   1.237
 7608TIP3    H122781   6.681   5.946   1.246
 7608TIP3    H222782   6.565   6.040   1.221
 7609TIP3   OH222783   7.449   4.036   3.901
 7609TIP3    H122784   7.521   4.096   3.921
 7609TIP3    H222785   7.441   3.982   3.980
 7610TIP3   OH222786   3.794   3.000   2.653
 7610TIP3    H122787   3.881   2.965   2.671
 7610TIP3    H222788   3.765   3.039   2.736
 7611TIP3   OH222789   5.355   3.279   2.427
 7611TIP3    H122790   5.284   3.214   2.426
 7611TIP3    H222791   5.320   3.353   2.377
 7612TIP3   OH222792   6.101   6.271   1.094
 7612TIP3    H122793   6.090   6.288   1.188
 7612TIP3    H222794   6.082   6.178   1.084
 7613TIP3   OH222795   7.396   0.246   0.253
 7613TIP3    H122796   7.446   0.213   0.179
 7613TIP3    H222797   7.456   0.237   0.328
 7614TIP3   OH222798   2.446   0.402   6.086
 7614TIP3    H122799   2.357   0.428   6.061
 7614TIP3    H222800   2.486   0.372   6.004
 7615TIP3   OH222801   3.408   2.908   1.387
 7615TIP3    H122802   3.328   2.921   1.336
 7615TIP3    H222803   3.391   2.830   1.439
 7616TIP3   OH222804   2.022   0.860   5.735
 7616TIP3    H122805   2.094   0.914   5.767
 7616TIP3    H222806   2.063   0.802   5.671
 7617TIP3   OH222807   4.696   1.771   0.040
 7617TIP3    H122808   4.698   1.734   0.129
 7617TIP3    H222809   4.691   1.694  -0.017
 7618TIP3   OH222810   7.054   1.610   2.067
 7618TIP3    H122811   6.975   1.590   2.017
 7618TIP3    H222812   7.055   1.545   2.138
 7619TIP3   OH222813   1.220   0.857   2.839
 7619TIP3    H122814   1.310   0.830   2.819
 7619TIP3    H222815   1.227   0.907   2.920
 7620TIP3   OH222816   1.112   1.986   0.536
 7620TIP3    H122817   1.097   1.939   0.454
 7620TIP3    H222818   1.182   2.048   0.516
 7621TIP3   OH222819   0.875   4.143   5.086
 7621TIP3    H122820   0.911   4.192   5.160
 7621TIP3    H222821   0.796   4.101   5.121
 7622TIP3   OH222822   3.172   6.666   6.441
 7622TIP3    H122823   3.209   6.703   6.521
 7622TIP3    H222824   3.233   6.597   6.416
 7623TIP3   OH222825   4.397   5.221   1.926
 7623TIP3    H122826   4.338   5.296   1.933
 7623TIP3    H222827   4.484   5.256   1.947
 7624TIP3   OH222828   5.772   3.813   6.132
 7624TIP3    H122829   5.715   3.748   6.091
 7624TIP3    H222830   5.726   3.837   6.213
 7625TIP3   OH222831   7.451   3.749   2.847
 7625TIP3    H122832   7.517   3.679   2.847
 7625TIP3    H222833   7.437   3.768   2.940
 7626TIP3   OH222834   0.942   3.875   3.800
 7626TIP3    H122835   0.884   3.879   3.725
 7626TIP3    H222836   0.905   3.807   3.856
 7627TIP3   OH222837   0.924   7.086   0.937
 7627TIP3    H122838   0.976   7.102   1.016
 7627TIP3    H222839   0.835   7.070   0.969
 7628TIP3   OH222840   4.090   0.498   5.547
 7628TIP3    H122841   4.149   0.549   5.491
 7628TIP3    H222842   4.003   0.517   5.512
 7629TIP3   OH222843   1.249   3.150   1.292
 7629TIP3    H122844   1.328   3.194   1.262
 7629TIP3    H222845   1.204   3.125   1.212
 7630TIP3   OH222846   1.872   1.884   6.285
 7630TIP3    H122847   1.816   1.897   6.209
 7630TIP3    H222848   1.892   1.972   6.316
 7631TIP3   OH222849   6.980   3.377   0.536
 7631TIP3    H122850   6.997   3.340   0.450
 7631TIP3    H222851   7.067   3.391   0.574
 7632TIP3   OH222852   5.500   2.462   3.662
 7632TIP3    H122853   5.443   2.396   3.622
 7632TIP3    H222854   5.535   2.512   3.588
 7633TIP3   OH222855   4.503   1.787   0.865
 7633TIP3    H122856   4.572   1.729   0.897
 7633TIP3    H222857   4.542   1.832   0.790
 7634TIP3   OH222858   3.840   2.350   6.107
 7634TIP3    H122859   3.934   2.363   6.094
 7634TIP3    H222860   3.833   2.268   6.157
 7635TIP3   OH222861   3.293   0.891   4.490
 7635TIP3    H122862   3.222   0.930   4.541
 7635TIP3    H222863   3.367   0.949   4.505
 7636TIP3   OH222864   5.317   0.242   4.059
 7636TIP3    H122865   5.311   0.337   4.053
 7636TIP3    H222866   5.343   0.214   3.972
 7637TIP3   OH222867   3.156   1.017   2.164
 7637TIP3    H122868   3.122   0.964   2.092
 7637TIP3    H222869   3.138   0.965   2.242
 7638TIP3   OH222870   6.611   5.988   3.940
 7638TIP3    H122871   6.681   6.042   3.977
 7638TIP3    H222872   6.655   5.935   3.873
 7639TIP3   OH222873   4.428   2.801   6.254
 7639TIP3    H122874   4.362   2.754   6.306
 7639TIP3    H222875   4.502   2.742   6.250
 7640TIP3   OH222876   0.251   4.119   2.799
 7640TIP3    H122877   0.159   4.138   2.814
 7640TIP3    H222878   0.278   4.181   2.731
 7641TIP3   OH222879   6.823   4.118   5.623
 7641TIP3    H122880   6.796   4.095   5.534
 7641TIP3    H222881   6.865   4.203   5.613
 7642TIP3   OH222882   3.724   7.287   1.889
 7642TIP3    H122883   3.781   7.210   1.883
 7642TIP3    H222884   3.656   7.261   1.952
 7643TIP3   OH222885   0.470   3.293   4.450
 7643TIP3    H122886   0.450   3.223   4.512
 7643TIP3    H222887   0.451   3.374   4.497
 7644TIP3   OH222888   6.674   2.423   3.394
 7644TIP3    H122889   6.662   2.333   3.364
 7644TIP3    H222890   6.722   2.414   3.477
 7645TIP3   OH222891   7.312   2.351   0.846
 7645TIP3    H122892   7.352   2.426   0.889
 7645TIP3    H222893   7.232   2.386   0.807
 7646TIP3   OH222894   0.994   6.382   0.226
 7646TIP3    H122895   0.938   6.445   0.271
 7646TIP3    H222896   1.071   6.433   0.199
 7647TIP3   OH222897   3.540   2.661   5.611
 7647TIP3    H122898   3.576   2.587   5.661
 7647TIP3    H222899   3.453   2.632   5.584
 7648TIP3   OH222900   7.613   7.341   1.126
 7648TIP3    H122901   7.654   7.301   1.049
 7648TIP3    H222902   7.606   7.434   1.103
 7649TIP3   OH222903   2.224   0.864   0.505
 7649TIP3    H122904   2.229   0.834   0.596
 7649TIP3    H222905   2.310   0.845   0.469
 7650TIP3   OH222906   8.026   2.515   5.038
 7650TIP3    H122907   8.067   2.566   4.969
 7650TIP3    H222908   8.006   2.431   4.997
 7651TIP3   OH222909   7.053   0.998   5.838
 7651TIP3    H122910   6.973   0.947   5.826
 7651TIP3    H222911   7.036   1.081   5.792
 7652TIP3   OH222912   0.178   6.635   0.261
 7652TIP3    H122913   0.097   6.602   0.222
 7652TIP3    H222914   0.246   6.615   0.196
 7653TIP3   OH222915   3.833   3.018   6.769
 7653TIP3    H122916   3.805   3.077   6.700
 7653TIP3    H222917   3.759   3.013   6.829
 7654TIP3   OH222918   5.529   3.934   5.249
 7654TIP3    H122919   5.581   4.011   5.270
 7654TIP3    H222920   5.448   3.946   5.300
 7655TIP3   OH222921   5.088   3.665   6.574
 7655TIP3    H122922   5.037   3.700   6.647
 7655TIP3    H222923   5.162   3.620   6.615
 7656TIP3   OH222924   3.738   1.007   0.050
 7656TIP3    H122925   3.697   1.008   0.136
 7656TIP3    H222926   3.776   1.095   0.041
 7657TIP3   OH222927   0.330   1.249   1.235
 7657TIP3    H122928   0.291   1.330   1.268
 7657TIP3    H222929   0.306   1.183   1.300
 7658TIP3   OH222930   5.863   7.458   1.285
 7658TIP3    H122931   5.774   7.459   1.320
 7658TIP3    H222932   5.866   7.532   1.225
 7659TIP3   OH222933   0.198   3.029   1.806
 7659TIP3    H122934   0.239   3.105   1.764
 7659TIP3    H222935   0.271   2.971   1.826
 7660TIP3   OH222936   3.642   3.290   2.184
 7660TIP3    H122937   3.645   3.374   2.139
 7660TIP3    H222938   3.719   3.290   2.241
 7661TIP3   OH222939   6.426   4.914   5.138
 7661TIP3    H122940   6.432   4.987   5.077
 7661TIP3    H222941   6.377   4.949   5.213
 7662TIP3   OH222942   3.452   7.596   4.243
 7662TIP3    H122943   3.492   7.682   4.256
 7662TIP3    H222944   3.490   7.564   4.161
 7663TIP3   OH222945   6.914   7.703   6.525
 7663TIP3    H122946   6.951   7.693   6.437
 7663TIP3    H222947   6.838   7.645   6.526
 7664TIP3   OH222948   5.180   6.930   3.724
 7664TIP3    H122949   5.231   6.939   3.643
 7664TIP3    H222950   5.244   6.940   3.794
 7665TIP3   OH222951   5.166   6.376   6.185
 7665TIP3    H122952   5.252   6.383   6.146
 7665TIP3    H222953   5.105   6.381   6.111
 7666TIP3   OH222954   2.446   2.821   5.456
 7666TIP3    H122955   2.407   2.782   5.534
 7666TIP3    H222956   2.441   2.916   5.472
 7667TIP3   OH222957   0.117   1.274   6.349
 7667TIP3    H122958   0.110   1.234   6.262
 7667TIP3    H222959   0.097   1.203   6.410
 7668TIP3   OH222960   1.751   6.997   0.205
 7668TIP3    H122961   1.812   6.938   0.247
 7668TIP3    H222962   1.805   7.049   0.145
 7669TIP3   OH222963   5.983   0.481   0.097
 7669TIP3    H122964   6.000   0.487   0.003
 7669TIP3    H222965   5.889   0.461   0.102
 7670TIP3   OH222966   7.334   6.535   6.664
 7670TIP3    H122967   7.426   6.527   6.687
 7670TIP3    H222968   7.298   6.598   6.726
 7671TIP3   OH222969   5.272   5.904   1.639
 7671TIP3    H122970   5.255   5.910   1.545
 7671TIP3    H222971   5.184   5.901   1.678
 7672TIP3   OH222972   3.416   3.663   4.039
 7672TIP3    H122973   3.399   3.747   4.082
 7672TIP3    H222974   3.376   3.598   4.096
 7673TIP3   OH222975   5.981   3.331   3.572
 7673TIP3    H122976   5.927   3.374   3.506
 7673TIP3    H222977   5.919   3.285   3.628
 7674TIP3   OH222978   1.215   1.213   1.352
 7674TIP3    H122979   1.251   1.125   1.350
 7674TIP3    H222980   1.241   1.252   1.268
 7675TIP3   OH222981   8.076   2.043   2.746
 7675TIP3    H122982   7.981   2.045   2.758
 7675TIP3    H222983   8.111   2.037   2.835
 7676TIP3   OH222984   5.322   5.396   6.563
 7676TIP3    H122985   5.379   5.433   6.495
 7676TIP3    H222986   5.299   5.309   6.530
 7677TIP3   OH222987   2.433   3.802   4.643
 7677TIP3    H122988   2.509   3.794   4.585
 7677TIP3    H222989   2.392   3.885   4.619
 7678TIP3   OH222990   7.324   7.342   1.046
 7678TIP3    H122991   7.292   7.362   1.134
 7678TIP3    H222992   7.373   7.420   1.020
 7679TIP3   OH222993   3.316   7.409   6.625
 7679TIP3    H122994   3.243   7.403   6.687
 7679TIP3    H222995   3.312   7.327   6.576
 7680TIP3   OH222996   1.843   5.373   2.071
 7680TIP3    H122997   1.830   5.303   2.007
 7680TIP3    H222998   1.780   5.353   2.141
 7681TIP3   OH222999   3.135   2.882   2.887
 7681TIP3    H123000   3.049   2.922   2.873
 7681TIP3    H223001   3.120   2.789   2.874
 7682TIP3   OH223002   2.434   2.325   4.891
 7682TIP3    H123003   2.444   2.240   4.849
 7682TIP3    H223004   2.510   2.375   4.862
 7683TIP3   OH223005   5.698   7.090   1.716
 7683TIP3    H123006   5.700   7.181   1.689
 7683TIP3    H223007   5.706   7.093   1.812
 7684TIP3   OH223008   3.731   7.743   1.120
 7684TIP3    H123009   3.689   7.809   1.174
 7684TIP3    H223010   3.815   7.781   1.096
 7685TIP3   OH223011   3.189   3.931   2.423
 7685TIP3    H123012   3.228   4.005   2.469
 7685TIP3    H223013   3.262   3.870   2.410
 7686TIP3   OH223014   3.295   4.916   2.578
 7686TIP3    H123015   3.294   4.987   2.515
 7686TIP3    H223016   3.242   4.948   2.651
 7687TIP3   OH223017   4.246   5.798   3.399
 7687TIP3    H123018   4.328   5.848   3.407
 7687TIP3    H223019   4.187   5.858   3.353
 7688TIP3   OH223020   7.659   6.354   4.819
 7688TIP3    H123021   7.716   6.333   4.746
 7688TIP3    H223022   7.614   6.272   4.840
 7689TIP3   OH223023   4.847   3.197   4.322
 7689TIP3    H123024   4.865   3.140   4.397
 7689TIP3    H223025   4.899   3.160   4.251
 7690TIP3   OH223026   6.680   0.106   5.566
 7690TIP3    H123027   6.646   0.191   5.535
 7690TIP3    H223028   6.746   0.129   5.631
 7691TIP3   OH223029   4.581   4.932   1.021
 7691TIP3    H123030   4.534   4.997   1.075
 7691TIP3    H223031   4.606   4.980   0.942
 7692TIP3   OH223032   2.544   1.411   0.772
 7692TIP3    H123033   2.562   1.355   0.696
 7692TIP3    H223034   2.538   1.351   0.846
 7693TIP3   OH223035   0.877   4.018   0.390
 7693TIP3    H123036   0.885   4.059   0.304
 7693TIP3    H223037   0.834   3.935   0.373
 7694TIP3   OH223038   7.823   4.565   0.491
 7694TIP3    H123039   7.848   4.574   0.399
 7694TIP3    H223040   7.863   4.640   0.534
 7695TIP3   OH223041   1.966   2.852   1.490
 7695TIP3    H123042   1.965   2.937   1.535
 7695TIP3    H223043   1.997   2.791   1.556
 7696TIP3   OH223044   6.409   5.022   5.716
 7696TIP3    H123045   6.414   4.944   5.771
 7696TIP3    H223046   6.353   5.083   5.764
 7697TIP3   OH223047   5.830   3.799   4.357
 7697TIP3    H123048   5.745   3.842   4.358
 7697TIP3    H223049   5.878   3.841   4.285
 7698TIP3   OH223050   3.818   4.443   1.729
 7698TIP3    H123051   3.772   4.502   1.669
 7698TIP3    H223052   3.903   4.429   1.688
 7699TIP3   OH223053   7.427   0.934   4.472
 7699TIP3    H123054   7.410   0.865   4.409
 7699TIP3    H223055   7.430   0.890   4.557
 7700TIP3   OH223056   4.192   3.184   5.448
 7700TIP3    H123057   4.179   3.277   5.466
 7700TIP3    H223058   4.283   3.167   5.473
 7701TIP3   OH223059   7.099   7.375   3.744
 7701TIP3    H123060   7.109   7.282   3.723
 7701TIP3    H223061   7.030   7.406   3.685
 7702TIP3   OH223062   7.886   7.241   6.612
 7702TIP3    H123063   7.843   7.183   6.549
 7702TIP3    H223064   7.904   7.184   6.687
 7703TIP3   OH223065   2.701   3.515   0.449
 7703TIP3    H123066   2.664   3.588   0.400
 7703TIP3    H223067   2.784   3.547   0.483
 7704TIP3   OH223068   1.536   7.368   0.050
 7704TIP3    H123069   1.538   7.318   0.132
 7704TIP3    H223070   1.612   7.337   0.001
 7705TIP3   OH223071   2.695   5.394   3.314
 7705TIP3    H123072   2.766   5.378   3.253
 7705TIP3    H223073   2.666   5.483   3.294
 7706TIP3   OH223074   2.977   5.969   3.006
 7706TIP3    H123075   2.906   5.988   2.945
 7706TIP3    H223076   3.038   6.042   2.995
 7707TIP3   OH223077   7.256   1.700   2.407
 7707TIP3    H123078   7.297   1.649   2.337
 7707TIP3    H223079   7.195   1.757   2.361
 7708TIP3   OH223080   5.714   1.599   6.623
 7708TIP3    H123081   5.690   1.515   6.662
 7708TIP3    H223082   5.755   1.648   6.695
 7709TIP3   OH223083   7.978   2.774   1.382
 7709TIP3    H123084   8.007   2.718   1.310
 7709TIP3    H223085   8.014   2.732   1.461
 7710TIP3   OH223086   0.193   1.232   4.742
 7710TIP3    H123087   0.216   1.208   4.652
 7710TIP3    H223088   0.195   1.149   4.790
 7711TIP3   OH223089   7.587   3.472   1.443
 7711TIP3    H123090   7.670   3.425   1.452
 7711TIP3    H223091   7.609   3.563   1.462
 7712TIP3   OH223092   7.097   6.441   3.907
 7712TIP3    H123093   7.003   6.438   3.927
 7712TIP3    H223094   7.139   6.461   3.990
 7713TIP3   OH223095   6.322   3.667   3.764
 7713TIP3    H123096   6.263   3.668   3.689
 7713TIP3    H223097   6.408   3.688   3.727
 7714TIP3   OH223098   0.700   7.191   5.782
 7714TIP3    H123099   0.658   7.246   5.848
 7714TIP3    H223100   0.735   7.253   5.718
 7715TIP3   OH223101   3.221   1.410   1.020
 7715TIP3    H123102   3.173   1.343   1.068
 7715TIP3    H223103   3.245   1.474   1.087
 7716TIP3   OH223104   3.179   3.102   4.736
 7716TIP3    H123105   3.139   3.155   4.805
 7716TIP3    H223106   3.212   3.024   4.781
 7717TIP3   OH223107   0.269   3.332   5.262
 7717TIP3    H123108   0.194   3.337   5.202
 7717TIP3    H223109   0.333   3.278   5.215
 7718TIP3   OH223110   7.217   2.553   1.590
 7718TIP3    H123111   7.295   2.555   1.646
 7718TIP3    H223112   7.221   2.468   1.547
 7719TIP3   OH223113   3.349   3.625   1.409
 7719TIP3    H123114   3.301   3.545   1.389
 7719TIP3    H223115   3.425   3.596   1.460
 7720TIP3   OH223116   2.681   7.431   6.393
 7720TIP3    H123117   2.612   7.494   6.372
 7720TIP3    H223118   2.669   7.413   6.486
 7721TIP3   OH223119   1.323   1.640   1.180
 7721TIP3    H123120   1.285   1.636   1.267
 7721TIP3    H223121   1.415   1.662   1.194
 7722TIP3   OH223122   6.029   4.108   0.296
 7722TIP3    H123123   6.018   4.191   0.342
 7722TIP3    H223124   6.123   4.098   0.286
 7723TIP3   OH223125   3.256   5.417   4.122
 7723TIP3    H123126   3.316   5.480   4.163
 7723TIP3    H223127   3.183   5.410   4.183
 7724TIP3   OH223128   7.951   6.739   3.332
 7724TIP3    H123129   7.947   6.648   3.302
 7724TIP3    H223130   7.932   6.791   3.254
 7725TIP3   OH223131   4.104   5.352   5.396
 7725TIP3    H123132   4.155   5.271   5.408
 7725TIP3    H223133   4.132   5.408   5.469
 7726TIP3   OH223134   7.143   1.537   3.184
 7726TIP3    H123135   7.167   1.552   3.092
 7726TIP3    H223136   7.115   1.445   3.186
 7727TIP3   OH223137   0.149   3.341   6.360
 7727TIP3    H123138   0.223   3.396   6.333
 7727TIP3    H223139   0.183   3.291   6.434
 7728TIP3   OH223140   1.574   6.020   4.278
 7728TIP3    H123141   1.479   6.025   4.292
 7728TIP3    H223142   1.594   6.095   4.221
 7729TIP3   OH223143   8.309   3.800   2.400
 7729TIP3    H123144   8.279   3.880   2.445
 7729TIP3    H223145   8.243   3.734   2.423
 7730TIP3   OH223146   0.958   0.349   5.653
 7730TIP3    H123147   1.027   0.291   5.685
 7730TIP3    H223148   0.944   0.412   5.724
 7731TIP3   OH223149   3.103   6.897   2.855
 7731TIP3    H123150   3.051   6.884   2.776
 7731TIP3    H223151   3.124   6.991   2.855
 7732TIP3   OH223152   8.128   2.504   1.840
 7732TIP3    H123153   8.154   2.588   1.877
 7732TIP3    H223154   8.195   2.484   1.774
 7733TIP3   OH223155   5.528   4.767   0.385
 7733TIP3    H123156   5.515   4.859   0.407
 7733TIP3    H223157   5.494   4.759   0.296
 7734TIP3   OH223158   3.596   5.165   1.379
 7734TIP3    H123159   3.624   5.238   1.434
 7734TIP3    H223160   3.500   5.165   1.387
 7735TIP3   OH223161   3.992   1.893   6.148
 7735TIP3    H123162   3.931   1.830   6.109
 7735TIP3    H223163   4.043   1.926   6.073
 7736TIP3   OH223164   5.904   2.164   6.257
 7736TIP3    H123165   5.921   2.233   6.193
 7736TIP3    H223166   5.954   2.191   6.334
 7737TIP3   OH223167   2.608   3.302   4.842
 7737TIP3    H123168   2.575   3.318   4.931
 7737TIP3    H223169   2.641   3.212   4.845
 7738TIP3   OH223170   4.474   7.509   4.048
 7738TIP3    H123171   4.467   7.517   3.953
 7738TIP3    H223172   4.563   7.476   4.063
 7739TIP3   OH223173   3.060   4.236   3.722
 7739TIP3    H123174   3.073   4.277   3.636
 7739TIP3    H223175   3.009   4.157   3.703
 7740TIP3   OH223176   4.836   6.345  -0.045
 7740TIP3    H123177   4.747   6.354  -0.079
 7740TIP3    H223178   4.824   6.333   0.049
 7741TIP3   OH223179   0.726   5.337   1.236
 7741TIP3    H123180   0.659   5.271   1.216
 7741TIP3    H223181   0.759   5.364   1.151
 7742TIP3   OH223182   0.824   3.948   2.550
 7742TIP3    H123183   0.736   3.944   2.587
 7742TIP3    H223184   0.813   3.917   2.460
 7743TIP3   OH223185   5.011   7.556   1.763
 7743TIP3    H123186   5.050   7.587   1.681
 7743TIP3    H223187   5.010   7.634   1.819
 7744TIP3   OH223188   8.251   0.095   1.887
 7744TIP3    H123189   8.284   0.180   1.858
 7744TIP3    H223190   8.327   0.038   1.885
 7745TIP3   OH223191   7.382   4.915   2.665
 7745TIP3    H123192   7.375   4.872   2.579
 7745TIP3    H223193   7.455   4.870   2.708
 7746TIP3   OH223194   3.349   0.913   2.641
 7746TIP3    H123195   3.280   0.976   2.662
 7746TIP3    H223196   3.346   0.905   2.546
 7747TIP3   OH223197   7.330   2.000   5.472
 7747TIP3    H123198   7.381   1.933   5.427
 7747TIP3    H223199   7.396   2.053   5.518
 7748TIP3   OH223200   4.344   0.963   5.034
 7748TIP3    H123201   4.429   0.945   5.075
 7748TIP3    H223202   4.281   0.956   5.105
 7749TIP3   OH223203   7.890   3.425   0.339
 7749TIP3    H123204   7.959   3.383   0.390
 7749TIP3    H223205   7.812   3.416   0.393
 7750TIP3   OH223206   1.613   1.061   4.065
 7750TIP3    H123207   1.549   1.002   4.104
 7750TIP3    H223208   1.562   1.117   4.006
 7751TIP3   OH223209   1.517   1.593   4.724
 7751TIP3    H123210   1.518   1.644   4.805
 7751TIP3    H223211   1.434   1.544   4.728
 7752TIP3   OH223212   3.255   0.073   1.743
 7752TIP3    H123213   3.170   0.041   1.774
 7752TIP3    H223214   3.318   0.042   1.809
 7753TIP3   OH223215   2.700   7.377   2.137
 7753TIP3    H123216   2.731   7.439   2.070
 7753TIP3    H223217   2.625   7.421   2.177
 7754TIP3   OH223218   0.774   7.691   3.647
 7754TIP3    H123219   0.790   7.780   3.679
 7754TIP3    H223220   0.806   7.634   3.716
 7755TIP3   OH223221   4.897   5.533   6.168
 7755TIP3    H123222   4.920   5.444   6.141
 7755TIP3    H223223   4.937   5.543   6.255
 7756TIP3   OH223224   2.233   2.222   2.874
 7756TIP3    H123225   2.311   2.219   2.818
 7756TIP3    H223226   2.196   2.134   2.868
 7757TIP3   OH223227   0.709   6.697   3.245
 7757TIP3    H123228   0.718   6.626   3.182
 7757TIP3    H223229   0.622   6.734   3.227
 7758TIP3   OH223230   7.692   1.477   4.310
 7758TIP3    H123231   7.755   1.439   4.371
 7758TIP3    H223232   7.672   1.564   4.347
 7759TIP3   OH223233   2.134   1.669   0.231
 7759TIP3    H123234   2.038   1.671   0.230
 7759TIP3    H223235   2.160   1.753   0.193
 7760TIP3   OH223236   5.814   7.000   6.528
 7760TIP3    H123237   5.740   6.941   6.510
 7760TIP3    H223238   5.793   7.038   6.613
 7761TIP3   OH223239   4.844   3.879   3.854
 7761TIP3    H123240   4.835   3.790   3.888
 7761TIP3    H223241   4.873   3.931   3.929
 7762TIP3   OH223242   7.799   3.582   4.723
 7762TIP3    H123243   7.834   3.585   4.634
 7762TIP3    H223244   7.734   3.511   4.722
 7763TIP3   OH223245   6.670   5.799   2.213
 7763TIP3    H123246   6.694   5.812   2.305
 7763TIP3    H223247   6.594   5.740   2.216
 7764TIP3   OH223248   1.563   1.991   5.084
 7764TIP3    H123249   1.544   1.936   5.008
 7764TIP3    H223250   1.623   2.058   5.052
 7765TIP3   OH223251   7.661   1.953   1.195
 7765TIP3    H123252   7.743   1.923   1.156
 7765TIP3    H223253   7.602   1.964   1.120
 7766TIP3   OH223254   1.103   5.327   1.403
 7766TIP3    H123255   1.130   5.331   1.312
 7766TIP3    H223256   1.104   5.418   1.433
 7767TIP3   OH223257   1.579   0.680   3.983
 7767TIP3    H123258   1.516   0.752   3.987
 7767TIP3    H223259   1.559   0.635   3.901
 7768TIP3   OH223260   2.703   5.886   5.204
 7768TIP3    H123261   2.677   5.926   5.287
 7768TIP3    H223262   2.654   5.804   5.201
 7769TIP3   OH223263   0.646   3.201   5.018
 7769TIP3    H123264   0.651   3.293   5.046
 7769TIP3    H223265   0.596   3.203   4.936
 7770TIP3   OH223266   4.755   1.663   4.100
 7770TIP3    H123267   4.727   1.619   4.020
 7770TIP3    H223268   4.763   1.755   4.076
 7771TIP3   OH223269   6.594   5.170   6.793
 7771TIP3    H123270   6.592   5.227   6.869
 7771TIP3    H223271   6.559   5.223   6.722
 7772TIP3   OH223272   0.264   5.742   0.368
 7772TIP3    H123273   0.233   5.816   0.419
 7772TIP3    H223274   0.207   5.669   0.394
 7773TIP3   OH223275   5.242   2.399   4.516
 7773TIP3    H123276   5.170   2.346   4.549
 7773TIP3    H223277   5.318   2.371   4.567
 7774TIP3   OH223278   2.412   6.317   3.061
 7774TIP3    H123279   2.356   6.342   2.988
 7774TIP3    H223280   2.406   6.390   3.122
 7775TIP3   OH223281   7.069   3.290   6.410
 7775TIP3    H123282   6.986   3.335   6.425
 7775TIP3    H223283   7.136   3.353   6.437
 7776TIP3   OH223284   3.714   0.625   5.014
 7776TIP3    H123285   3.632   0.673   5.029
 7776TIP3    H223286   3.686   0.545   4.969
 7777TIP3   OH223287   5.336   3.098   3.012
 7777TIP3    H123288   5.293   3.031   3.067
 7777TIP3    H223289   5.277   3.173   3.017
 7778TIP3   OH223290   4.398   1.772   4.748
 7778TIP3    H123291   4.390   1.677   4.758
 7778TIP3    H223292   4.340   1.808   4.815
 7779TIP3   OH223293   4.926   3.178   3.418
 7779TIP3    H123294   4.953   3.192   3.328
 7779TIP3    H223295   4.835   3.206   3.421
 7780TIP3   OH223296   6.204   3.987   4.350
 7780TIP3    H123297   6.296   4.000   4.374
 7780TIP3    H223298   6.186   4.056   4.287
 7781TIP3   OH223299   5.750   7.625   6.286
 7781TIP3    H123300   5.754   7.535   6.254
 7781TIP3    H223301   5.787   7.677   6.215
 7782TIP3   OH223302   5.419   3.947   6.690
 7782TIP3    H123303   5.403   3.934   6.597
 7782TIP3    H223304   5.492   4.009   6.694
 7783TIP3   OH223305   6.021   6.696   4.194
 7783TIP3    H123306   6.011   6.626   4.258
 7783TIP3    H223307   6.025   6.776   4.247
 7784TIP3   OH223308   1.998   5.597   3.786
 7784TIP3    H123309   2.010   5.688   3.812
 7784TIP3    H223310   1.974   5.602   3.693
 7785TIP3   OH223311   0.787   6.260   2.805
 7785TIP3    H123312   0.758   6.210   2.728
 7785TIP3    H223313   0.720   6.243   2.871
 7786TIP3   OH223314   1.046   1.570   5.595
 7786TIP3    H123315   1.061   1.652   5.547
 7786TIP3    H223316   0.996   1.596   5.672
 7787TIP3   OH223317   1.515   0.491   0.681
 7787TIP3    H123318   1.506   0.559   0.614
 7787TIP3    H223319   1.486   0.533   0.762
 7788TIP3   OH223320   3.380   0.234   0.462
 7788TIP3    H123321   3.465   0.190   0.463
 7788TIP3    H223322   3.350   0.224   0.371
 7789TIP3   OH223323   1.260   1.922   3.991
 7789TIP3    H123324   1.308   1.931   3.909
 7789TIP3    H223325   1.173   1.956   3.973
 7790TIP3   OH223326   1.031   0.077   2.181
 7790TIP3    H123327   1.057   0.025   2.105
 7790TIP3    H223328   0.945   0.113   2.158
 7791TIP3   OH223329   3.768   6.434   5.110
 7791TIP3    H123330   3.859   6.461   5.101
 7791TIP3    H223331   3.762   6.400   5.200
 7792TIP3   OH223332   6.914   7.134   2.426
 7792TIP3    H123333   6.915   7.225   2.399
 7792TIP3    H223334   6.982   7.127   2.492
 7793TIP3   OH223335   2.722   3.040   5.765
 7793TIP3    H123336   2.694   2.954   5.733
 7793TIP3    H223337   2.689   3.102   5.700
 7794TIP3   OH223338   5.459   7.125   6.596
 7794TIP3    H123339   5.521   7.193   6.572
 7794TIP3    H223340   5.497   7.083   6.673
 7795TIP3   OH223341   5.909   0.775   1.333
 7795TIP3    H123342   5.841   0.838   1.309
 7795TIP3    H223343   5.970   0.824   1.388
 7796TIP3   OH223344   5.089   7.751   0.735
 7796TIP3    H123345   5.000   7.730   0.709
 7796TIP3    H223346   5.090   7.743   0.830
 7797TIP3   OH223347   4.975   2.640   1.467
 7797TIP3    H123348   5.048   2.695   1.494
 7797TIP3    H223349   4.898   2.697   1.472
 7798TIP3   OH223350   4.040   1.054   5.414
 7798TIP3    H123351   4.085   1.003   5.481
 7798TIP3    H223352   3.962   1.089   5.459
 7799TIP3   OH223353   1.420   6.974   3.881
 7799TIP3    H123354   1.384   6.965   3.969
 7799TIP3    H223355   1.352   6.939   3.823
 7800TIP3   OH223356   0.068   0.335   5.432
 7800TIP3    H123357   0.139   0.271   5.421
 7800TIP3    H223358   0.005   0.291   5.488
 7801TIP3   OH223359   3.805   0.878   3.016
 7801TIP3    H123360   3.869   0.944   2.992
 7801TIP3    H223361   3.725   0.904   2.971
 7802TIP3   OH223362   1.416   7.661   3.799
 7802TIP3    H123363   1.347   7.685   3.737
 7802TIP3    H223364   1.488   7.720   3.778
 7803TIP3   OH223365   6.500   5.191   0.496
 7803TIP3    H123366   6.498   5.156   0.585
 7803TIP3    H223367   6.551   5.127   0.446
 7804TIP3   OH223368   2.782   7.783   0.192
 7804TIP3    H123369   2.791   7.846   0.263
 7804TIP3    H223370   2.747   7.834   0.119
 7805TIP3   OH223371   7.166   0.383   4.243
 7805TIP3    H123372   7.073   0.363   4.247
 7805TIP3    H223373   7.187   0.381   4.150
 7806TIP3   OH223374   4.758   0.979   2.005
 7806TIP3    H123375   4.781   0.888   2.023
 7806TIP3    H223376   4.796   1.028   2.078
 7807TIP3   OH223377   8.168   1.068   0.574
 7807TIP3    H123378   8.205   0.992   0.529
 7807TIP3    H223379   8.226   1.141   0.551
 7808TIP3   OH223380   0.568   7.576   2.858
 7808TIP3    H123381   0.579   7.629   2.937
 7808TIP3    H223382   0.486   7.528   2.873
 7809TIP3   OH223383   2.462   0.951   3.454
 7809TIP3    H123384   2.374   0.941   3.419
 7809TIP3    H223385   2.449   0.963   3.548
 7810TIP3   OH223386   6.228   2.540   4.724
 7810TIP3    H123387   6.205   2.544   4.817
 7810TIP3    H223388   6.282   2.462   4.715
 7811TIP3   OH223389   4.476   3.530   2.385
 7811TIP3    H123390   4.434   3.558   2.304
 7811TIP3    H223391   4.551   3.590   2.396
 7812TIP3   OH223392   4.789   3.869   1.055
 7812TIP3    H123393   4.850   3.822   0.998
 7812TIP3    H223394   4.703   3.835   1.030
 7813TIP3   OH223395   0.013   7.184   5.390
 7813TIP3    H123396   0.022   7.121   5.319
 7813TIP3    H223397   0.098   7.227   5.396
 7814TIP3   OH223398   4.884   0.228   5.503
 7814TIP3    H123399   4.957   0.210   5.562
 7814TIP3    H223400   4.825   0.153   5.513
 7815TIP3   OH223401   7.130   3.009   2.809
 7815TIP3    H123402   7.128   2.936   2.871
 7815TIP3    H223403   7.146   2.968   2.724
 7816TIP3   OH223404   5.689   1.071   1.030
 7816TIP3    H123405   5.680   1.018   1.109
 7816TIP3    H223406   5.603   1.067   0.989
 7817TIP3   OH223407   7.875   6.862   3.084
 7817TIP3    H123408   7.954   6.853   3.030
 7817TIP3    H223409   7.862   6.956   3.092
 7818TIP3   OH223410   2.218   7.593   0.580
 7818TIP3    H123411   2.199   7.500   0.563
 7818TIP3    H223412   2.234   7.597   0.675
 7819TIP3   OH223413   0.941   7.193   2.432
 7819TIP3    H123414   0.990   7.127   2.480
 7819TIP3    H223415   0.953   7.169   2.340
 7820TIP3   OH223416   2.050   0.770   2.953
 7820TIP3    H123417   2.020   0.861   2.963
 7820TIP3    H223418   2.011   0.723   3.027
 7821TIP3   OH223419   2.051   6.552   1.986
 7821TIP3    H123420   2.075   6.555   1.893
 7821TIP3    H223421   1.992   6.626   1.998
 7822TIP3   OH223422   1.157   4.974   2.029
 7822TIP3    H123423   1.094   5.042   2.053
 7822TIP3    H223424   1.182   4.995   1.939
 7823TIP3   OH223425   6.117   2.493   4.305
 7823TIP3    H123426   6.180   2.471   4.237
 7823TIP3    H223427   6.032   2.466   4.270
 7824TIP3   OH223428   7.624   0.494   4.534
 7824TIP3    H123429   7.598   0.437   4.607
 7824TIP3    H223430   7.542   0.523   4.495
 7825TIP3   OH223431   4.617   2.831   2.825
 7825TIP3    H123432   4.636   2.838   2.731
 7825TIP3    H223433   4.547   2.895   2.840
 7826TIP3   OH223434   0.816   6.842   3.714
 7826TIP3    H123435   0.722   6.857   3.724
 7826TIP3    H223436   0.830   6.755   3.751
 7827TIP3   OH223437   5.603   1.332   5.105
 7827TIP3    H123438   5.663   1.288   5.166
 7827TIP3    H223439   5.598   1.273   5.029
 7828TIP3   OH223440   4.217   2.928   3.466
 7828TIP3    H123441   4.251   2.856   3.519
 7828TIP3    H223442   4.270   2.927   3.386
 7829TIP3   OH223443   1.954   1.276   2.351
 7829TIP3    H123444   2.016   1.290   2.422
 7829TIP3    H223445   1.943   1.362   2.311
 7830TIP3   OH223446   1.508   6.151   1.034
 7830TIP3    H123447   1.488   6.069   0.990
 7830TIP3    H223448   1.496   6.131   1.127
 7831TIP3   OH223449   3.502   3.119   1.198
 7831TIP3    H123450   3.473   3.088   1.112
 7831TIP3    H223451   3.445   3.074   1.260
 7832TIP3   OH223452   5.398   2.031   0.254
 7832TIP3    H123453   5.388   1.937   0.272
 7832TIP3    H223454   5.457   2.062   0.323
 7833TIP3   OH223455   6.251   2.359   5.569
 7833TIP3    H123456   6.274   2.344   5.477
 7833TIP3    H223457   6.173   2.415   5.565
 7834TIP3   OH223458   0.138   1.519   3.272
 7834TIP3    H123459   0.147   1.426   3.290
 7834TIP3    H223460   0.226   1.547   3.245
 7835TIP3   OH223461   6.954   4.012   6.802
 7835TIP3    H123462   6.875   4.010   6.747
 7835TIP3    H223463   7.023   3.978   6.745
 7836TIP3   OH223464   0.501   4.027   5.498
 7836TIP3    H123465   0.432   3.962   5.508
 7836TIP3    H223466   0.457   4.105   5.465
 7837TIP3   OH223467   1.711   5.120   2.558
 7837TIP3    H123468   1.619   5.137   2.580
 7837TIP3    H223469   1.710   5.096   2.465
 7838TIP3   OH223470   0.953   2.001   2.222
 7838TIP3    H123471   0.941   1.907   2.208
 7838TIP3    H223472   0.899   2.021   2.298
 7839TIP3   OH223473   0.389   0.172   6.233
 7839TIP3    H123474   0.431   0.127   6.306
 7839TIP3    H223475   0.428   0.260   6.233
 7840TIP3   OH223476   3.481   1.648   6.236
 7840TIP3    H123477   3.533   1.591   6.292
 7840TIP3    H223478   3.466   1.727   6.289
 7841TIP3   OH223479   5.829   6.748   3.465
 7841TIP3    H123480   5.815   6.694   3.543
 7841TIP3    H223481   5.853   6.686   3.397
 7842TIP3   OH223482   1.339   4.199   1.392
 7842TIP3    H123483   1.353   4.294   1.389
 7842TIP3    H223484   1.258   4.185   1.344
 7843TIP3   OH223485   3.318   7.165   6.487
 7843TIP3    H123486   3.385   7.130   6.546
 7843TIP3    H223487   3.366   7.183   6.406
 7844TIP3   OH223488   7.186   2.335   4.147
 7844TIP3    H123489   7.100   2.304   4.172
 7844TIP3    H223490   7.240   2.323   4.225
 7845TIP3   OH223491   6.033   0.453   4.177
 7845TIP3    H123492   6.009   0.374   4.226
 7845TIP3    H223493   6.123   0.472   4.204
 7846TIP3   OH223494   4.787   5.982   0.215
 7846TIP3    H123495   4.739   6.024   0.145
 7846TIP3    H223496   4.726   5.979   0.289
 7847TIP3   OH223497   6.177   7.488   0.186
 7847TIP3    H123498   6.190   7.397   0.212
 7847TIP3    H223499   6.254   7.509   0.133
 7848TIP3   OH223500   1.769   3.701   2.806
 7848TIP3    H123501   1.860   3.713   2.781
 7848TIP3    H223502   1.738   3.789   2.829
 7849TIP3   OH223503   5.173   3.308   4.691
 7849TIP3    H123504   5.162   3.229   4.638
 7849TIP3    H223505   5.252   3.350   4.656
 7850TIP3   OH223506   0.222   3.343   1.823
 7850TIP3    H123507   0.171   3.408   1.871
 7850TIP3    H223508   0.195   3.353   1.732
 7851TIP3   OH223509   1.253   7.135   6.389
 7851TIP3    H123510   1.248   7.186   6.308
 7851TIP3    H223511   1.303   7.191   6.449
 7852TIP3   OH223512   5.128   0.171   6.107
 7852TIP3    H123513   5.115   0.123   6.188
 7852TIP3    H223514   5.040   0.194   6.077
 7853TIP3   OH223515   1.331   6.961   3.272
 7853TIP3    H123516   1.346   6.993   3.183
 7853TIP3    H223517   1.236   6.961   3.282
 7854TIP3   OH223518   3.364   3.030   2.980
 7854TIP3    H123519   3.414   3.007   2.902
 7854TIP3    H223520   3.286   2.974   2.977
 7855TIP3   OH223521   0.345   6.743   3.040
 7855TIP3    H123522   0.326   6.832   3.013
 7855TIP3    H223523   0.378   6.750   3.129
 7856TIP3   OH223524   4.336   5.480   2.079
 7856TIP3    H123525   4.360   5.419   2.148
 7856TIP3    H223526   4.270   5.537   2.119
 7857TIP3   OH223527   2.514   5.658   4.292
 7857TIP3    H123528   2.471   5.682   4.209
 7857TIP3    H223529   2.606   5.682   4.279
 7858TIP3   OH223530   2.593   5.327   5.941
 7858TIP3    H123531   2.544   5.383   6.001
 7858TIP3    H223532   2.536   5.318   5.864
 7859TIP3   OH223533   7.687   5.322   3.631
 7859TIP3    H123534   7.718   5.408   3.603
 7859TIP3    H223535   7.755   5.291   3.692
 7860TIP3   OH223536   6.015   3.859   0.640
 7860TIP3    H123537   5.955   3.792   0.673
 7860TIP3    H223538   6.098   3.813   0.629
 7861TIP3   OH223539   5.464   5.006   4.346
 7861TIP3    H123540   5.384   5.018   4.294
 7861TIP3    H223541   5.491   4.916   4.329
 7862TIP3   OH223542   2.243   2.992   1.846
 7862TIP3    H123543   2.209   3.079   1.825
 7862TIP3    H223544   2.210   2.974   1.934
 7863TIP3   OH223545   1.262   2.803   6.038
 7863TIP3    H123546   1.277   2.894   6.010
 7863TIP3    H223547   1.275   2.751   5.960
 7864TIP3   OH223548   4.571   6.981   1.262
 7864TIP3    H123549   4.520   6.971   1.342
 7864TIP3    H223550   4.588   6.891   1.233
 7865TIP3   OH223551   5.897   1.493   0.274
 7865TIP3    H123552   5.957   1.544   0.328
 7865TIP3    H223553   5.828   1.466   0.334
 7866TIP3   OH223554   1.208   7.221   4.813
 7866TIP3    H123555   1.265   7.281   4.764
 7866TIP3    H223556   1.120   7.242   4.782
 7867TIP3   OH223557   0.625   1.230   0.530
 7867TIP3    H123558   0.537   1.262   0.507
 7867TIP3    H223559   0.649   1.280   0.608
 7868TIP3   OH223560   1.693   0.272   2.918
 7868TIP3    H123561   1.648   0.300   2.838
 7868TIP3    H223562   1.662   0.183   2.933
 7869TIP3   OH223563   6.730   4.137   4.388
 7869TIP3    H123564   6.766   4.174   4.468
 7869TIP3    H223565   6.788   4.170   4.319
 7870TIP3   OH223566   4.839   4.727   0.167
 7870TIP3    H123567   4.792   4.659   0.119
 7870TIP3    H223568   4.926   4.729   0.127
 7871TIP3   OH223569   5.730   1.158   4.008
 7871TIP3    H123570   5.736   1.098   4.082
 7871TIP3    H223571   5.640   1.147   3.976
 7872TIP3   OH223572   5.073   1.102   1.158
 7872TIP3    H123573   5.093   1.191   1.131
 7872TIP3    H223574   5.120   1.089   1.240
 7873TIP3   OH223575   1.608   3.963   2.063
 7873TIP3    H123576   1.601   3.894   1.996
 7873TIP3    H223577   1.696   3.953   2.099
 7874TIP3   OH223578   1.952   3.403   0.892
 7874TIP3    H123579   1.863   3.439   0.888
 7874TIP3    H223580   2.001   3.465   0.944
 7875TIP3   OH223581   4.861   6.867   1.099
 7875TIP3    H123582   4.820   6.868   1.185
 7875TIP3    H223583   4.862   6.774   1.073
 7876TIP3   OH223584   1.270   0.708   0.355
 7876TIP3    H123585   1.196   0.683   0.410
 7876TIP3    H223586   1.265   0.804   0.349
 7877TIP3   OH223587   4.731   6.429   3.130
 7877TIP3    H123588   4.687   6.476   3.059
 7877TIP3    H223589   4.689   6.459   3.210
 7878TIP3   OH223590   0.852   3.934   2.919
 7878TIP3    H123591   0.891   3.962   3.001
 7878TIP3    H223592   0.917   3.955   2.852
 7879TIP3   OH223593   7.703   4.778   6.315
 7879TIP3    H123594   7.621   4.762   6.362
 7879TIP3    H223595   7.706   4.710   6.248
 7880TIP3   OH223596   7.689   6.503   2.813
 7880TIP3    H123597   7.656   6.586   2.780
 7880TIP3    H223598   7.617   6.468   2.866
 7881TIP3   OH223599   8.065   6.881   0.470
 7881TIP3    H123600   8.050   6.877   0.375
 7881TIP3    H223601   7.989   6.836   0.508
 7882TIP3   OH223602   5.881   0.382   0.818
 7882TIP3    H123603   5.965   0.357   0.779
 7882TIP3    H223604   5.821   0.386   0.743
 7883TIP3   OH223605   6.668   0.712   4.860
 7883TIP3    H123606   6.754   0.752   4.848
 7883TIP3    H223607   6.664   0.689   4.953
 7884TIP3   OH223608   0.471   2.583   2.230
 7884TIP3    H123609   0.536   2.625   2.174
 7884TIP3    H223610   0.520   2.513   2.274
 7885TIP3   OH223611   5.490   0.199   1.496
 7885TIP3    H123612   5.543   0.123   1.471
 7885TIP3    H223613   5.444   0.222   1.416
 7886TIP3   OH223614   6.966   5.724   6.144
 7886TIP3    H123615   6.920   5.642   6.162
 7886TIP3    H223616   7.012   5.744   6.225
 7887TIP3   OH223617   1.173   0.734   5.903
 7887TIP3    H123618   1.251   0.749   5.850
 7887TIP3    H223619   1.200   0.753   5.993
 7888TIP3   OH223620   7.866   4.460   3.383
 7888TIP3    H123621   7.859   4.505   3.467
 7888TIP3    H223622   7.801   4.501   3.327
 7889TIP3   OH223623   7.371   3.563   0.270
 7889TIP3    H123624   7.341   3.654   0.267
 7889TIP3    H223625   7.466   3.570   0.281
 7890TIP3   OH223626   5.239   2.804   0.418
 7890TIP3    H123627   5.278   2.888   0.441
 7890TIP3    H223628   5.300   2.739   0.452
 7891TIP3   OH223629   1.661   3.420   5.903
 7891TIP3    H123630   1.719   3.387   5.971
 7891TIP3    H223631   1.718   3.436   5.828
 7892TIP3   OH223632   4.824   0.876   1.667
 7892TIP3    H123633   4.750   0.929   1.638
 7892TIP3    H223634   4.805   0.857   1.759
 7893TIP3   OH223635   7.053   2.594   1.190
 7893TIP3    H123636   6.987   2.585   1.258
 7893TIP3    H223637   7.126   2.539   1.219
 7894TIP3   OH223638   5.283   2.981   1.374
 7894TIP3    H123639   5.204   2.959   1.425
 7894TIP3    H223640   5.278   2.925   1.297
 7895TIP3   OH223641   7.214   7.520   6.302
 7895TIP3    H123642   7.233   7.534   6.210
 7895TIP3    H223643   7.162   7.439   6.304
 7896TIP3   OH223644   6.088   5.567   3.939
 7896TIP3    H123645   6.030   5.644   3.944
 7896TIP3    H223646   6.079   5.525   4.024
 7897TIP3   OH223647   0.518   7.221   2.650
 7897TIP3    H123648   0.565   7.218   2.567
 7897TIP3    H223649   0.584   7.250   2.713
 7898TIP3   OH223650   6.971   4.170   2.447
 7898TIP3    H123651   7.030   4.100   2.417
 7898TIP3    H223652   6.957   4.150   2.540
 7899TIP3   OH223653   1.277   7.648   1.392
 7899TIP3    H123654   1.324   7.590   1.331
 7899TIP3    H223655   1.343   7.677   1.454
 7900TIP3   OH223656   6.464   2.037   2.013
 7900TIP3    H123657   6.435   1.993   1.933
 7900TIP3    H223658   6.528   1.977   2.051
 7901TIP3   OH223659   4.814   6.546   5.613
 7901TIP3    H123660   4.733   6.523   5.567
 7901TIP3    H223661   4.786   6.575   5.699
 7902TIP3   OH223662   3.884   3.367   0.748
 7902TIP3    H123663   3.965   3.343   0.793
 7902TIP3    H223664   3.820   3.376   0.819
 7903TIP3   OH223665   0.325   5.118   4.367
 7903TIP3    H123666   0.257   5.069   4.322
 7903TIP3    H223667   0.406   5.093   4.323
 7904TIP3   OH223668   3.490   2.810   2.228
 7904TIP3    H123669   3.493   2.840   2.137
 7904TIP3    H223670   3.406   2.843   2.261
 7905TIP3   OH223671   8.151   0.812   5.348
 7905TIP3    H123672   8.245   0.819   5.365
 7905TIP3    H223673   8.140   0.725   5.310
 7906TIP3   OH223674   3.075   5.961   2.334
 7906TIP3    H123675   3.039   5.927   2.416
 7906TIP3    H223676   3.169   5.948   2.341
 7907TIP3   OH223677   8.230   1.673   2.617
 7907TIP3    H123678   8.150   1.724   2.606
 7907TIP3    H223679   8.300   1.738   2.608
 7908TIP3   OH223680   2.908   3.543   2.888
 7908TIP3    H123681   2.851   3.513   2.816
 7908TIP3    H223682   2.955   3.464   2.916
 7909TIP3   OH223683   7.323   3.401   1.393
 7909TIP3    H123684   7.334   3.307   1.377
 7909TIP3    H223685   7.407   3.428   1.431
 7910TIP3   OH223686   2.373   6.207   0.747
 7910TIP3    H123687   2.420   6.276   0.700
 7910TIP3    H223688   2.439   6.168   0.804
 7911TIP3   OH223689   6.215   0.693   6.539
 7911TIP3    H123690   6.221   0.657   6.628
 7911TIP3    H223691   6.286   0.650   6.491
 7912TIP3   OH223692   1.830   4.163   1.820
 7912TIP3    H123693   1.828   4.208   1.905
 7912TIP3    H223694   1.922   4.139   1.808
 7913TIP3   OH223695   4.746   6.472   5.023
 7913TIP3    H123696   4.768   6.485   4.931
 7913TIP3    H223697   4.705   6.554   5.050
 7914TIP3   OH223698   7.608   6.243   5.516
 7914TIP3    H123699   7.573   6.203   5.596
 7914TIP3    H223700   7.669   6.178   5.481
 7915TIP3   OH223701   0.208   6.315   5.056
 7915TIP3    H123702   0.139   6.358   5.107
 7915TIP3    H223703   0.289   6.346   5.095
 7916TIP3   OH223704   0.812   0.156   2.441
 7916TIP3    H123705   0.716   0.162   2.435
 7916TIP3    H223706   0.830   0.062   2.435
 7917TIP3   OH223707   0.612   4.241   0.289
 7917TIP3    H123708   0.680   4.298   0.326
 7917TIP3    H223709   0.653   4.200   0.214
 7918TIP3   OH223710   6.324   6.411   6.355
 7918TIP3    H123711   6.392   6.438   6.416
 7918TIP3    H223712   6.336   6.316   6.346
 7919TIP3   OH223713   7.075   5.034   2.854
 7919TIP3    H123714   7.066   4.995   2.767
 7919TIP3    H223715   7.166   5.018   2.878
 7920TIP3   OH223716   6.106   5.201   0.156
 7920TIP3    H123717   6.188   5.174   0.197
 7920TIP3    H223718   6.078   5.124   0.106
 7921TIP3   OH223719   2.930   0.677   0.819
 7921TIP3    H123720   2.942   0.681   0.914
 7921TIP3    H223721   2.995   0.615   0.789
 7922TIP3   OH223722   4.816   3.110   1.468
 7922TIP3    H123723   4.741   3.142   1.417
 7922TIP3    H223724   4.851   3.188   1.511
 7923TIP3   OH223725   2.201   0.486   3.185
 7923TIP3    H123726   2.296   0.472   3.192
 7923TIP3    H223727   2.169   0.406   3.143
 7924TIP3   OH223728   2.899   0.703   2.717
 7924TIP3    H123729   2.842   0.734   2.647
 7924TIP3    H223730   2.868   0.615   2.735
 7925TIP3   OH223731   1.203   5.057   0.544
 7925TIP3    H123732   1.241   5.014   0.621
 7925TIP3    H223733   1.117   5.017   0.534
 7926TIP3   OH223734   5.011   1.373   2.418
 7926TIP3    H123735   5.034   1.356   2.510
 7926TIP3    H223736   4.933   1.428   2.422
 7927TIP3   OH223737   7.153   6.835   5.750
 7927TIP3    H123738   7.125   6.754   5.708
 7927TIP3    H223739   7.213   6.875   5.686
 7928TIP3   OH223740   5.654   5.293   3.103
 7928TIP3    H123741   5.583   5.236   3.133
 7928TIP3    H223742   5.734   5.251   3.135
 7929TIP3   OH223743   1.402   6.520   4.900
 7929TIP3    H123744   1.480   6.478   4.935
 7929TIP3    H223745   1.348   6.448   4.867
 7930TIP3   OH223746   3.981   1.676   3.671
 7930TIP3    H123747   3.945   1.764   3.657
 7930TIP3    H223748   3.950   1.651   3.758
 7931TIP3   OH223749   2.239   6.949   2.524
 7931TIP3    H123750   2.180   6.889   2.478
 7931TIP3    H223751   2.299   6.980   2.456
 7932TIP3   OH223752   7.097   1.809   5.402
 7932TIP3    H123753   7.175   1.864   5.406
 7932TIP3    H223754   7.105   1.763   5.318
 7933TIP3   OH223755   8.213   6.721   6.742
 7933TIP3    H123756   8.128   6.701   6.781
 7933TIP3    H223757   8.255   6.636   6.731
 7934TIP3   OH223758   1.107   1.227   0.555
 7934TIP3    H123759   1.041   1.190   0.497
 7934TIP3    H223760   1.171   1.267   0.496
 7935TIP3   OH223761   2.921   1.886   4.234
 7935TIP3    H123762   2.872   1.888   4.152
 7935TIP3    H223763   2.906   1.798   4.269
 7936TIP3   OH223764   6.082   3.686   2.750
 7936TIP3    H123765   6.091   3.607   2.697
 7936TIP3    H223766   6.032   3.746   2.695
 7937TIP3   OH223767   4.236   3.121   1.174
 7937TIP3    H123768   4.306   3.062   1.202
 7937TIP3    H223769   4.166   3.062   1.145
 7938TIP3   OH223770   5.385   6.700   5.726
 7938TIP3    H123771   5.290   6.715   5.718
 7938TIP3    H223772   5.422   6.787   5.742
 7939TIP3   OH223773   4.863   7.579   6.067
 7939TIP3    H123774   4.901   7.660   6.033
 7939TIP3    H223775   4.928   7.512   6.048
 7940TIP3   OH223776   2.024   2.138   3.716
 7940TIP3    H123777   2.102   2.169   3.670
 7940TIP3    H223778   2.010   2.050   3.683
 7941TIP3   OH223779   7.282   4.199   6.777
 7941TIP3    H123780   7.229   4.133   6.732
 7941TIP3    H223781   7.343   4.230   6.711
 7942TIP3   OH223782   5.122   6.826   6.332
 7942TIP3    H123783   5.106   6.879   6.254
 7942TIP3    H223784   5.137   6.889   6.402
 7943TIP3   OH223785   0.465   4.292   2.941
 7943TIP3    H123786   0.506   4.205   2.938
 7943TIP3    H223787   0.425   4.302   2.855
 7944TIP3   OH223788   3.106   0.286   1.758
 7944TIP3    H123789   3.048   0.269   1.684
 7944TIP3    H223790   3.166   0.211   1.758
 7945TIP3   OH223791   0.749   0.756   0.488
 7945TIP3    H123792   0.698   0.751   0.569
 7945TIP3    H223793   0.734   0.844   0.455
 7946TIP3   OH223794   3.804   3.163   4.512
 7946TIP3    H123795   3.875   3.211   4.470
 7946TIP3    H223796   3.806   3.191   4.603
 7947TIP3   OH223797   5.282   2.924   3.228
 7947TIP3    H123798   5.208   2.900   3.172
 7947TIP3    H223799   5.314   2.841   3.262
 7948TIP3   OH223800   6.567   3.724   3.046
 7948TIP3    H123801   6.640   3.665   3.026
 7948TIP3    H223802   6.489   3.677   3.017
 7949TIP3   OH223803   6.986   2.652   2.332
 7949TIP3    H123804   6.998   2.561   2.358
 7949TIP3    H223805   7.072   2.693   2.346
 7950TIP3   OH223806   7.201   3.937   4.372
 7950TIP3    H123807   7.290   3.950   4.406
 7950TIP3    H223808   7.202   3.978   4.285
 7951TIP3   OH223809   3.387   3.017   0.969
 7951TIP3    H123810   3.297   2.985   0.968
 7951TIP3    H223811   3.408   3.035   0.878
 7952TIP3   OH223812   2.828   0.783   5.226
 7952TIP3    H123813   2.738   0.752   5.234
 7952TIP3    H223814   2.871   0.751   5.305
 7953TIP3   OH223815   2.176   4.694   4.187
 7953TIP3    H123816   2.218   4.700   4.273
 7953TIP3    H223817   2.098   4.750   4.195
 7954TIP3   OH223818   6.849   6.355   0.520
 7954TIP3    H123819   6.942   6.339   0.535
 7954TIP3    H223820   6.826   6.298   0.447
 7955TIP3   OH223821   3.739   2.889   1.057
 7955TIP3    H123822   3.661   2.897   1.003
 7955TIP3    H223823   3.766   2.797   1.047
 7956TIP3   OH223824   7.897   0.881   0.420
 7956TIP3    H123825   7.896   0.855   0.328
 7956TIP3    H223826   7.964   0.825   0.460
 7957TIP3   OH223827   6.609   4.464   2.148
 7957TIP3    H123828   6.549   4.531   2.179
 7957TIP3    H223829   6.635   4.417   2.227
 7958TIP3   OH223830   6.711   1.320   6.737
 7958TIP3    H123831   6.629   1.357   6.705
 7958TIP3    H223832   6.688   1.284   6.823
 7959TIP3   OH223833   6.233   1.222   0.808
 7959TIP3    H123834   6.286   1.156   0.853
 7959TIP3    H223835   6.144   1.208   0.842
 7960TIP3   OH223836   6.579   3.820   1.956
 7960TIP3    H123837   6.618   3.748   2.006
 7960TIP3    H223838   6.498   3.783   1.921
 7961TIP3   OH223839   0.375   6.709   0.747
 7961TIP3    H123840   0.414   6.622   0.743
 7961TIP3    H223841   0.330   6.720   0.663
 7962TIP3   OH223842   3.725   0.116   1.328
 7962TIP3    H123843   3.689   0.031   1.354
 7962TIP3    H223844   3.729   0.166   1.410
 7963TIP3   OH223845   7.200   1.031   5.354
 7963TIP3    H123846   7.282   1.031   5.304
 7963TIP3    H223847   7.170   0.940   5.350
 7964TIP3   OH223848   0.725   7.226   0.774
 7964TIP3    H123849   0.821   7.224   0.774
 7964TIP3    H223850   0.703   7.297   0.834
 7965TIP3   OH223851   5.492   6.331   1.576
 7965TIP3    H123852   5.478   6.401   1.640
 7965TIP3    H223853   5.540   6.374   1.505
 7966TIP3   OH223854   3.984   5.259   2.987
 7966TIP3    H123855   4.041   5.336   2.999
 7966TIP3    H223856   3.932   5.255   3.067
 7967TIP3   OH223857   6.999   4.827   4.768
 7967TIP3    H123858   6.965   4.813   4.856
 7967TIP3    H223859   7.015   4.921   4.763
 7968TIP3   OH223860   7.936   4.637   2.550
 7968TIP3    H123861   7.860   4.595   2.510
 7968TIP3    H223862   7.902   4.716   2.591
 7969TIP3   OH223863   3.860   6.591   2.155
 7969TIP3    H123864   3.813   6.538   2.091
 7969TIP3    H223865   3.925   6.638   2.103
 7970TIP3   OH223866   0.889   1.260   5.359
 7970TIP3    H123867   0.895   1.260   5.455
 7970TIP3    H223868   0.947   1.189   5.331
 7971TIP3   OH223869   4.375   3.565   1.252
 7971TIP3    H123870   4.358   3.603   1.166
 7971TIP3    H223871   4.466   3.536   1.248
 7972TIP3   OH223872   2.355   6.398   6.038
 7972TIP3    H123873   2.389   6.450   6.111
 7972TIP3    H223874   2.295   6.456   5.992
 7973TIP3   OH223875   0.672   4.483   3.611
 7973TIP3    H123876   0.632   4.534   3.680
 7973TIP3    H223877   0.701   4.548   3.547
 7974TIP3   OH223878   1.010   1.041   3.928
 7974TIP3    H123879   0.997   1.003   4.015
 7974TIP3    H223880   1.097   1.080   3.932
 7975TIP3   OH223881   0.063   2.178   0.073
 7975TIP3    H123882   0.149   2.145   0.045
 7975TIP3    H223883   0.027   2.220  -0.005
 7976TIP3   OH223884   2.087   6.551   3.991
 7976TIP3    H123885   2.158   6.608   4.022
 7976TIP3    H223886   2.036   6.607   3.932
 7977TIP3   OH223887   3.364   1.180   3.994
 7977TIP3    H123888   3.423   1.106   4.006
 7977TIP3    H223889   3.286   1.157   4.043
 7978TIP3   OH223890   7.947   6.570   5.627
 7978TIP3    H123891   8.021   6.554   5.569
 7978TIP3    H223892   7.958   6.507   5.698
 7979TIP3   OH223893   1.506   1.821   3.179
 7979TIP3    H123894   1.524   1.776   3.262
 7979TIP3    H223895   1.411   1.817   3.169
 7980TIP3   OH223896   7.236   2.952   2.106
 7980TIP3    H123897   7.316   2.901   2.119
 7980TIP3    H223898   7.255   3.008   2.031
 7981TIP3   OH223899   1.127   6.707   5.182
 7981TIP3    H123900   1.215   6.732   5.155
 7981TIP3    H223901   1.078   6.790   5.184
 7982TIP3   OH223902   6.658   6.913   2.082
 7982TIP3    H123903   6.662   6.987   2.142
 7982TIP3    H223904   6.696   6.947   2.000
 7983TIP3   OH223905   8.179   7.807   3.053
 7983TIP3    H123906   8.195   7.901   3.046
 7983TIP3    H223907   8.202   7.785   3.144
 7984TIP3   OH223908   6.414   1.350   0.497
 7984TIP3    H123909   6.393   1.442   0.513
 7984TIP3    H223910   6.368   1.328   0.417
 7985TIP3   OH223911   8.126   5.454   2.270
 7985TIP3    H123912   8.206   5.494   2.236
 7985TIP3    H223913   8.075   5.527   2.305
 7986TIP3   OH223914   6.532   7.640   5.391
 7986TIP3    H123915   6.578   7.592   5.322
 7986TIP3    H223916   6.496   7.717   5.347
 7987TIP3   OH223917   3.755   5.695   2.444
 7987TIP3    H123918   3.790   5.779   2.414
 7987TIP3    H223919   3.673   5.684   2.395
 7988TIP3   OH223920   1.834   6.462   0.131
 7988TIP3    H123921   1.904   6.398   0.120
 7988TIP3    H223922   1.755   6.410   0.143
 7989TIP3   OH223923   0.769   7.764   1.419
 7989TIP3    H123924   0.680   7.799   1.427
 7989TIP3    H223925   0.783   7.716   1.500
 7990TIP3   OH223926   6.127   0.282   5.935
 7990TIP3    H123927   6.036   0.311   5.927
 7990TIP3    H223928   6.134   0.207   5.876
 7991TIP3   OH223929   1.057   4.852   0.822
 7991TIP3    H123930   1.106   4.800   0.886
 7991TIP3    H223931   1.006   4.788   0.773
 7992TIP3   OH223932   6.723   6.758   4.289
 7992TIP3    H123933   6.746   6.702   4.363
 7992TIP3    H223934   6.658   6.709   4.240
 7993TIP3   OH223935   7.700   3.369   0.132
 7993TIP3    H123936   7.753   3.309   0.080
 7993TIP3    H223937   7.762   3.408   0.194
 7994TIP3   OH223938   0.013   4.668   0.524
 7994TIP3    H123939   0.035   4.761   0.520
 7994TIP3    H223940   0.048   4.631   0.443
 7995TIP3   OH223941   5.734   4.434   3.089
 7995TIP3    H123942   5.686   4.508   3.127
 7995TIP3    H223943   5.771   4.388   3.164
 7996TIP3   OH223944   1.657   4.945   4.665
 7996TIP3    H123945   1.565   4.935   4.687
 7996TIP3    H223946   1.703   4.934   4.749
 7997TIP3   OH223947   0.080   6.932   6.612
 7997TIP3    H123948   0.121   7.011   6.648
 7997TIP3    H223949   0.041   6.888   6.687
 7998TIP3   OH223950   2.596   1.145   6.701
 7998TIP3    H123951   2.645   1.094   6.766
 7998TIP3    H223952   2.570   1.081   6.635
 7999TIP3   OH223953   7.844   0.456   3.095
 7999TIP3    H123954   7.789   0.457   3.017
 7999TIP3    H223955   7.783   0.439   3.167
 8000TIP3   OH223956   7.502   3.933   5.710
 8000TIP3    H123957   7.521   3.878   5.786
 8000TIP3    H223958   7.414   3.906   5.682
 8001TIP3   OH223959   6.972   4.853   2.014
 8001TIP3    H123960   7.062   4.867   2.042
 8001TIP3    H223961   6.921   4.917   2.064
 8002TIP3   OH223962   2.705   3.038   6.540
 8002TIP3    H123963   2.690   2.956   6.493
 8002TIP3    H223964   2.632   3.044   6.601
 8003TIP3   OH223965   8.123   5.317   6.595
 8003TIP3    H123966   8.178   5.255   6.547
 8003TIP3    H223967   8.149   5.403   6.563
 8004TIP3   OH223968   1.639   2.496   5.056
 8004TIP3    H123969   1.664   2.539   5.137
 8004TIP3    H223970   1.609   2.566   4.999
 8005TIP3   OH223971   7.625   5.238   5.202
 8005TIP3    H123972   7.676   5.309   5.241
 8005TIP3    H223973   7.535   5.270   5.203
 8006TIP3   OH223974   0.182   4.214   0.660
 8006TIP3    H123975   0.178   4.191   0.753
 8006TIP3    H223976   0.275   4.231   0.644
 8007TIP3   OH223977   6.541   4.163   1.949
 8007TIP3    H123978   6.506   4.119   1.871
 8007TIP3    H223979   6.585   4.241   1.915
 8008TIP3   OH223980   6.003   1.161   5.862
 8008TIP3    H123981   5.951   1.226   5.910
 8008TIP3    H223982   5.939   1.095   5.835
 8009TIP3   OH223983   6.180   0.729   5.839
 8009TIP3    H123984   6.200   0.648   5.886
 8009TIP3    H223985   6.129   0.781   5.901
 8010TIP3   OH223986   4.597   6.589   6.239
 8010TIP3    H123987   4.555   6.503   6.235
 8010TIP3    H223988   4.586   6.625   6.151
 8011TIP3   OH223989   6.543   0.669   3.615
 8011TIP3    H123990   6.520   0.761   3.605
 8011TIP3    H223991   6.619   0.657   3.558
 8012TIP3   OH223992   7.862   4.992   1.529
 8012TIP3    H123993   7.872   4.970   1.622
 8012TIP3    H223994   7.938   5.047   1.510
 8013TIP3   OH223995   7.533   2.444   4.251
 8013TIP3    H123996   7.464   2.462   4.188
 8013TIP3    H223997   7.614   2.466   4.206
 8014TIP3   OH223998   2.511   1.142   3.277
 8014TIP3    H123999   2.507   1.087   3.356
 8014TIP3    H224000   2.573   1.097   3.220
 8015TIP3   OH224001   7.587   2.285   4.523
 8015TIP3    H124002   7.609   2.371   4.488
 8015TIP3    H224003   7.579   2.229   4.445
 8016TIP3   OH224004   7.945   2.731   2.917
 8016TIP3    H124005   7.902   2.762   2.838
 8016TIP3    H224006   7.922   2.638   2.922
 8017TIP3   OH224007   7.831   3.717   3.657
 8017TIP3    H124008   7.835   3.702   3.563
 8017TIP3    H224009   7.905   3.775   3.675
 8018TIP3   OH224010   5.596   7.137   2.030
 8018TIP3    H124011   5.613   7.220   2.074
 8018TIP3    H224012   5.509   7.146   1.993
 8019TIP3   OH224013   6.345   7.364   1.284
 8019TIP3    H124014   6.250   7.359   1.279
 8019TIP3    H224015   6.362   7.387   1.376
 8020TIP3   OH224016   3.149   1.218   2.550
 8020TIP3    H124017   3.137   1.140   2.495
 8020TIP3    H224018   3.244   1.222   2.566
 8021TIP3   OH224019   6.092   4.421   3.626
 8021TIP3    H124020   6.178   4.406   3.585
 8021TIP3    H224021   6.071   4.512   3.606
 8022TIP3   OH224022   4.040   3.777   2.335
 8022TIP3    H124023   4.057   3.738   2.421
 8022TIP3    H224024   3.982   3.714   2.292
 8023TIP3   OH224025   4.127   7.618   5.174
 8023TIP3    H124026   4.078   7.536   5.170
 8023TIP3    H224027   4.132   7.647   5.083
 8024TIP3   OH224028   6.887   4.175   0.635
 8024TIP3    H124029   6.903   4.191   0.542
 8024TIP3    H224030   6.804   4.128   0.638
 8025TIP3   OH224031   1.203   5.878   0.603
 8025TIP3    H124032   1.241   5.812   0.546
 8025TIP3    H224033   1.115   5.892   0.567
 8026TIP3   OH224034   2.671   6.246   4.364
 8026TIP3    H124035   2.721   6.210   4.437
 8026TIP3    H224036   2.615   6.313   4.404
 8027TIP3   OH224037   6.047   0.323   0.317
 8027TIP3    H124038   6.042   0.403   0.266
 8027TIP3    H224039   5.970   0.273   0.290
 8028TIP3   OH224040   6.526   7.281   3.077
 8028TIP3    H124041   6.474   7.345   3.126
 8028TIP3    H224042   6.571   7.231   3.145
 8029TIP3   OH224043   1.889   6.915   6.625
 8029TIP3    H124044   1.918   6.986   6.683
 8029TIP3    H224045   1.852   6.960   6.549
 8030TIP3   OH224046   5.170   7.270   2.618
 8030TIP3    H124047   5.195   7.178   2.632
 8030TIP3    H224048   5.076   7.273   2.635
 8031TIP3   OH224049   7.566   4.467   6.340
 8031TIP3    H124050   7.587   4.442   6.430
 8031TIP3    H224051   7.471   4.459   6.334
 8032TIP3   OH224052   2.048   5.679   1.253
 8032TIP3    H124053   2.052   5.592   1.212
 8032TIP3    H224054   2.055   5.661   1.347
 8033TIP3   OH224055   7.504   1.283   4.287
 8033TIP3    H124056   7.552   1.365   4.296
 8033TIP3    H224057   7.564   1.216   4.319
 8034TIP3   OH224058   0.091   7.226   4.388
 8034TIP3    H124059   0.160   7.162   4.409
 8034TIP3    H224060   0.075   7.271   4.470
 8035TIP3   OH224061   3.165   3.785   0.769
 8035TIP3    H124062   3.177   3.835   0.850
 8035TIP3    H224063   3.234   3.718   0.771
 8036TIP3   OH224064   8.150   2.195   1.449
 8036TIP3    H124065   8.079   2.140   1.482
 8036TIP3    H224066   8.132   2.205   1.356
 8037TIP3   OH224067   8.197   3.251   6.290
 8037TIP3    H124068   8.282   3.294   6.298
 8037TIP3    H224069   8.149   3.304   6.227
 8038TIP3   OH224070   5.971   6.380   6.770
 8038TIP3    H124071   5.935   6.469   6.763
 8038TIP3    H224072   6.064   6.390   6.747
 8039TIP3   OH224073   3.075   3.333   2.982
 8039TIP3    H124074   3.111   3.380   3.057
 8039TIP3    H224075   3.149   3.321   2.923
 8040TIP3   OH224076   4.791   6.938   3.262
 8040TIP3    H124077   4.854   6.934   3.190
 8040TIP3    H224078   4.793   6.851   3.301
 8041TIP3   OH224079   7.570   3.035   3.741
 8041TIP3    H124080   7.499   3.052   3.802
 8041TIP3    H224081   7.543   2.956   3.693
 8042TIP3   OH224082   8.285   6.593   1.847
 8042TIP3    H124083   8.375   6.569   1.826
 8042TIP3    H224084   8.241   6.595   1.763
 8043TIP3   OH224085   0.098   0.142   1.328
 8043TIP3    H124086   0.103   0.105   1.239
 8043TIP3    H224087   0.186   0.132   1.363
 8044TIP3   OH224088   0.614   5.493   3.178
 8044TIP3    H124089   0.556   5.471   3.105
 8044TIP3    H224090   0.699   5.456   3.154
 8045TIP3   OH224091   1.452   0.702   0.147
 8045TIP3    H124092   1.367   0.736   0.175
 8045TIP3    H224093   1.515   0.768   0.175
 8046TIP3   OH224094   3.284   7.780   5.268
 8046TIP3    H124095   3.255   7.769   5.359
 8046TIP3    H224096   3.276   7.693   5.229
 8047TIP3   OH224097   2.786   3.666   2.315
 8047TIP3    H124098   2.729   3.704   2.248
 8047TIP3    H224099   2.758   3.706   2.397
 8048TIP3   OH224100   4.239   5.648   5.072
 8048TIP3    H124101   4.261   5.740   5.059
 8048TIP3    H224102   4.162   5.649   5.128
 8049TIP3   OH224103   4.687   4.094   0.456
 8049TIP3    H124104   4.616   4.153   0.480
 8049TIP3    H224105   4.765   4.149   0.458
 8050TIP3   OH224106   1.327   7.057   4.570
 8050TIP3    H124107   1.274   6.978   4.578
 8050TIP3    H224108   1.363   7.072   4.657
 8051TIP3   OH224109   5.937   7.345   4.581
 8051TIP3    H124110   6.019   7.334   4.630
 8051TIP3    H224111   5.963   7.336   4.489
 8052TIP3   OH224112   6.874   3.151   6.065
 8052TIP3    H124113   6.845   3.088   6.132
 8052TIP3    H224114   6.881   3.099   5.985
 8053TIP3   OH224115   0.484   3.803   6.376
 8053TIP3    H124116   0.530   3.885   6.395
 8053TIP3    H224117   0.419   3.795   6.447
 8054TIP3   OH224118   2.762   7.682   6.173
 8054TIP3    H124119   2.791   7.661   6.262
 8054TIP3    H224120   2.685   7.736   6.185
 8055TIP3   OH224121   4.071   4.313   4.529
 8055TIP3    H124122   3.992   4.355   4.562
 8055TIP3    H224123   4.066   4.224   4.563
 8056TIP3   OH224124   7.703   0.725   3.066
 8056TIP3    H124125   7.775   0.663   3.079
 8056TIP3    H224126   7.741   0.810   3.086
 8057TIP3   OH224127   5.588   0.190   6.166
 8057TIP3    H124128   5.636   0.250   6.109
 8057TIP3    H224129   5.655   0.135   6.205
 8058TIP3   OH224130   3.533   2.353   0.953
 8058TIP3    H124131   3.517   2.302   1.033
 8058TIP3    H224132   3.446   2.373   0.920
 8059TIP3   OH224133   0.157   2.705  -0.029
 8059TIP3    H124134   0.245   2.692  -0.064
 8059TIP3    H224135   0.171   2.712   0.066
 8060TIP3   OH224136   4.422   3.274   2.943
 8060TIP3    H124137   4.329   3.254   2.948
 8060TIP3    H224138   4.425   3.367   2.919
 8061TIP3   OH224139   2.360   2.264   1.815
 8061TIP3    H124140   2.431   2.209   1.781
 8061TIP3    H224141   2.394   2.353   1.808
 8062TIP3   OH224142   5.687   2.833   1.449
 8062TIP3    H124143   5.691   2.903   1.383
 8062TIP3    H224144   5.755   2.772   1.424
 8063TIP3   OH224145   4.303   6.099   0.559
 8063TIP3    H124146   4.291   6.006   0.540
 8063TIP3    H224147   4.217   6.127   0.592
 8064TIP3   OH224148   3.563   7.115   0.324
 8064TIP3    H124149   3.507   7.124   0.401
 8064TIP3    H224150   3.506   7.136   0.250
 8065TIP3   OH224151   2.942   2.593   5.820
 8065TIP3    H124152   2.899   2.672   5.855
 8065TIP3    H224153   2.897   2.521   5.863
 8066TIP3   OH224154   1.420   5.096   5.599
 8066TIP3    H124155   1.334   5.080   5.638
 8066TIP3    H224156   1.466   5.012   5.607
 8067TIP3   OH224157   5.123   4.596   1.070
 8067TIP3    H124158   5.137   4.516   1.019
 8067TIP3    H224159   5.029   4.598   1.088
 8068TIP3   OH224160   6.483   0.238   5.862
 8068TIP3    H124161   6.574   0.239   5.833
 8068TIP3    H224162   6.432   0.253   5.783
 8069TIP3   OH224163   8.283   2.241   3.710
 8069TIP3    H124164   8.317   2.328   3.692
 8069TIP3    H224165   8.262   2.204   3.624
 8070TIP3   OH224166   6.740   1.338   3.456
 8070TIP3    H124167   6.745   1.426   3.493
 8070TIP3    H224168   6.752   1.350   3.362
 8071TIP3   OH224169   7.272   4.486   6.260
 8071TIP3    H124170   7.276   4.546   6.185
 8071TIP3    H224171   7.274   4.399   6.221
 8072TIP3   OH224172   7.547   3.595   3.977
 8072TIP3    H124173   7.638   3.598   3.948
 8072TIP3    H224174   7.531   3.681   4.015
 8073TIP3   OH224175   7.492   1.345   0.820
 8073TIP3    H124176   7.538   1.261   0.810
 8073TIP3    H224177   7.424   1.328   0.884
 8074TIP3   OH224178   6.588   4.738   0.523
 8074TIP3    H124179   6.621   4.706   0.607
 8074TIP3    H224180   6.542   4.663   0.486
 8075TIP3   OH224181   0.684   3.996   1.520
 8075TIP3    H124182   0.651   4.060   1.584
 8075TIP3    H224183   0.639   4.019   1.439
 8076TIP3   OH224184   2.147   6.659   0.648
 8076TIP3    H124185   2.168   6.753   0.653
 8076TIP3    H224186   2.194   6.621   0.722
 8077TIP3   OH224187   5.664   5.414   5.352
 8077TIP3    H124188   5.604   5.446   5.420
 8077TIP3    H224189   5.748   5.406   5.397
 8078TIP3   OH224190   2.153   4.283   2.096
 8078TIP3    H124191   2.083   4.318   2.152
 8078TIP3    H224192   2.226   4.267   2.157
 8079TIP3   OH224193   3.327   0.533   6.782
 8079TIP3    H124194   3.414   0.496   6.798
 8079TIP3    H224195   3.276   0.460   6.746
 8080TIP3   OH224196   1.521   5.131   1.976
 8080TIP3    H124197   1.527   5.036   1.993
 8080TIP3    H224198   1.481   5.137   1.889
 8081TIP3   OH224199   5.433   4.252   0.859
 8081TIP3    H124200   5.506   4.202   0.823
 8081TIP3    H224201   5.382   4.279   0.782
 8082TIP3   OH224202   3.059   1.756   1.294
 8082TIP3    H124203   3.014   1.757   1.378
 8082TIP3    H224204   3.040   1.669   1.257
 8083TIP3   OH224205   1.758   1.198   6.588
 8083TIP3    H124206   1.750   1.149   6.506
 8083TIP3    H224207   1.725   1.138   6.655
 8084TIP3   OH224208   2.209   7.032   0.123
 8084TIP3    H124209   2.175   7.121   0.134
 8084TIP3    H224210   2.264   7.017   0.200
 8085TIP3   OH224211   7.244   7.443   3.977
 8085TIP3    H124212   7.186   7.425   3.903
 8085TIP3    H224213   7.228   7.535   3.998
 8086TIP3   OH224214   4.954   1.159   0.766
 8086TIP3    H124215   5.033   1.109   0.784
 8086TIP3    H224216   4.983   1.250   0.765
 8087TIP3   OH224217   1.039   1.911   5.686
 8087TIP3    H124218   1.024   1.909   5.781
 8087TIP3    H224219   1.113   1.970   5.675
 8088TIP3   OH224220   5.892   7.195   3.142
 8088TIP3    H124221   5.896   7.111   3.095
 8088TIP3    H224222   5.807   7.192   3.187
 8089TIP3   OH224223   7.411   6.932   4.658
 8089TIP3    H124224   7.371   7.015   4.683
 8089TIP3    H224225   7.471   6.955   4.587
 8090TIP3   OH224226   0.841   0.106   1.403
 8090TIP3    H124227   0.829   0.167   1.330
 8090TIP3    H224228   0.800   0.025   1.373
 8091TIP3   OH224229   7.431   2.171   5.650
 8091TIP3    H124230   7.351   2.212   5.683
 8091TIP3    H224231   7.486   2.245   5.623
 8092TIP3   OH224232   6.137   7.408   2.548
 8092TIP3    H124233   6.140   7.352   2.626
 8092TIP3    H224234   6.207   7.472   2.562
 8093TIP3   OH224235   4.432   3.167   1.531
 8093TIP3    H124236   4.488   3.140   1.458
 8093TIP3    H224237   4.467   3.251   1.559
 8094TIP3   OH224238   3.448   4.307   1.229
 8094TIP3    H124239   3.536   4.322   1.264
 8094TIP3    H224240   3.433   4.381   1.170
 8095TIP3   OH224241   1.107   2.720   2.773
 8095TIP3    H124242   1.077   2.738   2.684
 8095TIP3    H224243   1.194   2.757   2.778
 8096TIP3   OH224244   8.096   3.307   0.528
 8096TIP3    H124245   8.050   3.326   0.610
 8096TIP3    H224246   8.174   3.362   0.531
 8097TIP3   OH224247   3.641   5.776   3.623
 8097TIP3    H124248   3.677   5.709   3.680
 8097TIP3    H224249   3.560   5.738   3.589
 8098TIP3   OH224250   5.799   3.908   1.580
 8098TIP3    H124251   5.730   3.917   1.645
 8098TIP3    H224252   5.850   3.833   1.609
 8099TIP3   OH224253   3.970   6.489   1.868
 8099TIP3    H124254   3.904   6.419   1.871
 8099TIP3    H224255   4.047   6.451   1.910
 8100TIP3   OH224256   8.223   1.357   1.437
 8100TIP3    H124257   8.171   1.392   1.364
 8100TIP3    H224258   8.159   1.335   1.504
 8101TIP3   OH224259   2.014   6.519   5.996
 8101TIP3    H124260   2.077   6.505   5.925
 8101TIP3    H224261   2.055   6.585   6.052
 8102TIP3   OH224262   0.018   4.233   1.348
 8102TIP3    H124263   0.061   4.280   1.276
 8102TIP3    H224264  -0.075   4.236   1.327
 8103TIP3   OH224265   4.327   6.432   5.286
 8103TIP3    H124266   4.298   6.345   5.258
 8103TIP3    H224267   4.349   6.477   5.204
 8104TIP3   OH224268   7.661   6.877   1.986
 8104TIP3    H124269   7.743   6.915   1.953
 8104TIP3    H224270   7.604   6.952   2.001
 8105TIP3   OH224271   2.692   0.668   3.906
 8105TIP3    H124272   2.729   0.581   3.892
 8105TIP3    H224273   2.682   0.675   4.001
 8106TIP3   OH224274   7.946   3.795   5.353
 8106TIP3    H124275   7.896   3.767   5.276
 8106TIP3    H224276   7.882   3.838   5.410
 8107TIP3   OH224277   3.954   3.788   4.760
 8107TIP3    H124278   3.862   3.785   4.788
 8107TIP3    H224279   3.957   3.732   4.683
 8108TIP3   OH224280   1.273   1.692   1.730
 8108TIP3    H124281   1.183   1.687   1.697
 8108TIP3    H224282   1.272   1.765   1.791
 8109TIP3   OH224283   2.709   3.779   6.152
 8109TIP3    H124284   2.788   3.806   6.198
 8109TIP3    H224285   2.740   3.732   6.075
 8110TIP3   OH224286   0.184   2.026   2.378
 8110TIP3    H124287   0.101   1.978   2.385
 8110TIP3    H224288   0.161   2.106   2.331
 8111TIP3   OH224289   4.063   2.023   2.160
 8111TIP3    H124290   4.151   2.031   2.123
 8111TIP3    H224291   4.032   1.938   2.128
 8112TIP3   OH224292   3.438   0.905   5.181
 8112TIP3    H124293   3.527   0.913   5.215
 8112TIP3    H224294   3.404   0.994   5.181
 8113TIP3   OH224295   2.626   0.759   4.167
 8113TIP3    H124296   2.625   0.827   4.101
 8113TIP3    H224297   2.692   0.787   4.231
 8114TIP3   OH224298   1.638   3.444   5.565
 8114TIP3    H124299   1.716   3.497   5.548
 8114TIP3    H224300   1.566   3.495   5.527
 8115TIP3   OH224301   5.288   7.228   4.204
 8115TIP3    H124302   5.258   7.196   4.289
 8115TIP3    H224303   5.258   7.163   4.141
 8116TIP3   OH224304   0.097   3.021   0.320
 8116TIP3    H124305   0.009   3.032   0.358
 8116TIP3    H224306   0.154   3.073   0.376
 8117TIP3   OH224307   3.677   6.035   4.657
 8117TIP3    H124308   3.583   6.052   4.662
 8117TIP3    H224309   3.708   6.095   4.590
 8118TIP3   OH224310   4.068   7.674   4.353
 8118TIP3    H124311   4.076   7.724   4.433
 8118TIP3    H224312   4.104   7.588   4.375
 8119TIP3   OH224313   8.088   1.706   5.574
 8119TIP3    H124314   8.069   1.703   5.480
 8119TIP3    H224315   8.048   1.626   5.608
 8120TIP3   OH224316   3.779   3.161   2.441
 8120TIP3    H124317   3.785   3.114   2.524
 8120TIP3    H224318   3.734   3.100   2.382
 8121TIP3   OH224319   4.318   4.106   6.418
 8121TIP3    H124320   4.394   4.057   6.388
 8121TIP3    H224321   4.297   4.068   6.503
 8122TIP3   OH224322   2.572   1.740   2.996
 8122TIP3    H124323   2.610   1.827   2.985
 8122TIP3    H224324   2.537   1.719   2.909
 8123TIP3   OH224325   3.457   5.522   4.565
 8123TIP3    H124326   3.474   5.591   4.501
 8123TIP3    H224327   3.373   5.485   4.539
 8124TIP3   OH224328   7.906   0.276   6.579
 8124TIP3    H124329   7.836   0.334   6.549
 8124TIP3    H224330   7.876   0.244   6.664
 8125TIP3   OH224331   3.730   4.424   3.185
 8125TIP3    H124332   3.645   4.394   3.218
 8125TIP3    H224333   3.792   4.399   3.254
 8126TIP3   OH224334   7.926   1.186   1.720
 8126TIP3    H124335   7.956   1.146   1.802
 8126TIP3    H224336   7.856   1.246   1.747
 8127TIP3   OH224337   6.626   5.277   0.207
 8127TIP3    H124338   6.717   5.300   0.187
 8127TIP3    H224339   6.633   5.210   0.275
 8128TIP3   OH224340   3.661   1.198   4.374
 8128TIP3    H124341   3.653   1.291   4.354
 8128TIP3    H224342   3.755   1.182   4.382
 8129TIP3   OH224343   4.572   7.245   1.261
 8129TIP3    H124344   4.642   7.259   1.197
 8129TIP3    H224345   4.548   7.153   1.252
 8130TIP3   OH224346   3.703   0.937   3.536
 8130TIP3    H124347   3.690   0.860   3.591
 8130TIP3    H224348   3.694   0.905   3.446
 8131TIP3   OH224349   1.322   0.466   1.231
 8131TIP3    H124350   1.260   0.461   1.158
 8131TIP3    H224351   1.364   0.551   1.221
 8132TIP3   OH224352   3.866   5.834   6.765
 8132TIP3    H124353   3.835   5.862   6.679
 8132TIP3    H224354   3.866   5.738   6.760
 8133TIP3   OH224355   8.222   4.531   2.820
 8133TIP3    H124356   8.213   4.523   2.726
 8133TIP3    H224357   8.136   4.508   2.855
 8134TIP3   OH224358   5.210   3.444   1.978
 8134TIP3    H124359   5.289   3.396   2.003
 8134TIP3    H224360   5.153   3.378   1.938
 8135TIP3   OH224361   5.001   5.766   6.050
 8135TIP3    H124362   5.089   5.780   6.084
 8135TIP3    H224363   4.971   5.686   6.093
 8136TIP3   OH224364   6.272   5.787   1.975
 8136TIP3    H124365   6.307   5.700   1.994
 8136TIP3    H224366   6.181   5.783   2.004
 8137TIP3   OH224367   0.699   6.936   2.462
 8137TIP3    H124368   0.639   6.974   2.398
 8137TIP3    H224369   0.753   6.874   2.412
 8138TIP3   OH224370   5.967   1.937   4.712
 8138TIP3    H124371   5.887   1.981   4.683
 8138TIP3    H224372   6.009   1.906   4.632
 8139TIP3   OH224373   4.346   2.979   2.670
 8139TIP3    H124374   4.269   3.034   2.662
 8139TIP3    H224375   4.419   3.037   2.650
 8140TIP3   OH224376   1.348   4.339   0.396
 8140TIP3    H124377   1.415   4.408   0.403
 8140TIP3    H224378   1.269   4.385   0.368
 8141TIP3   OH224379   0.696   2.294   4.806
 8141TIP3    H124380   0.732   2.324   4.723
 8141TIP3    H224381   0.696   2.199   4.800
 8142TIP3   OH224382   4.074   1.460   3.125
 8142TIP3    H124383   4.043   1.415   3.046
 8142TIP3    H224384   4.139   1.522   3.094
 8143TIP3   OH224385   7.617   7.760   5.142
 8143TIP3    H124386   7.653   7.672   5.148
 8143TIP3    H224387   7.574   7.762   5.056
 8144TIP3   OH224388   2.112   5.861   5.787
 8144TIP3    H124389   2.051   5.861   5.713
 8144TIP3    H224390   2.198   5.877   5.747
 8145TIP3   OH224391   2.212   4.810   0.752
 8145TIP3    H124392   2.169   4.736   0.795
 8145TIP3    H224393   2.247   4.862   0.825
 8146TIP3   OH224394   4.986   4.766   4.873
 8146TIP3    H124395   4.995   4.693   4.934
 8146TIP3    H224396   4.904   4.750   4.827
 8147TIP3   OH224397   0.481   4.049   3.151
 8147TIP3    H124398   0.537   4.072   3.077
 8147TIP3    H224399   0.395   4.086   3.129
 8148TIP3   OH224400   2.962   1.190   0.361
 8148TIP3    H124401   2.931   1.273   0.325
 8148TIP3    H224402   2.887   1.155   0.407
 8149TIP3   OH224403   5.025   5.440   4.532
 8149TIP3    H124404   4.959   5.398   4.587
 8149TIP3    H224405   4.978   5.509   4.486
 8150TIP3   OH224406   0.135   4.930   4.650
 8150TIP3    H124407   0.098   4.895   4.569
 8150TIP3    H224408   0.137   5.025   4.636
 8151TIP3   OH224409   1.614   5.975   1.238
 8151TIP3    H124410   1.521   5.991   1.250
 8151TIP3    H224411   1.623   5.953   1.146
 8152TIP3   OH224412   5.403   4.580   1.598
 8152TIP3    H124413   5.472   4.646   1.604
 8152TIP3    H224414   5.367   4.576   1.687
 8153TIP3   OH224415   4.745   1.750   2.177
 8153TIP3    H124416   4.822   1.705   2.143
 8153TIP3    H224417   4.680   1.681   2.190
 8154TIP3   OH224418   2.537   1.022   2.279
 8154TIP3    H124419   2.525   0.952   2.215
 8154TIP3    H224420   2.579   0.979   2.353
 8155TIP3   OH224421   4.649   6.623   0.536
 8155TIP3    H124422   4.653   6.563   0.462
 8155TIP3    H224423   4.740   6.630   0.566
 8156TIP3   OH224424   1.433   0.589   3.758
 8156TIP3    H124425   1.421   0.508   3.807
 8156TIP3    H224426   1.351   0.599   3.708
 8157TIP3   OH224427   7.240   2.406   1.269
 8157TIP3    H124428   7.230   2.358   1.351
 8157TIP3    H224429   7.324   2.377   1.234
 8158TIP3   OH224430   0.137   6.154   5.560
 8158TIP3    H124431   0.173   6.125   5.643
 8158TIP3    H224432   0.193   6.227   5.534
 8159TIP3   OH224433   8.070   0.059   3.648
 8159TIP3    H124434   8.114   0.143   3.638
 8159TIP3    H224435   8.030   0.042   3.563
 8160TIP3   OH224436   2.736   5.401   5.611
 8160TIP3    H124437   2.651   5.357   5.606
 8160TIP3    H224438   2.715   5.493   5.627
 8161TIP3   OH224439   7.925   1.171   3.294
 8161TIP3    H124440   7.956   1.171   3.203
 8161TIP3    H224441   7.927   1.263   3.321
 8162TIP3   OH224442   3.965   4.813   6.178
 8162TIP3    H124443   3.980   4.877   6.248
 8162TIP3    H224444   3.977   4.862   6.097
 8163TIP3   OH224445   7.221   4.385   1.632
 8163TIP3    H124446   7.200   4.448   1.701
 8163TIP3    H224447   7.276   4.435   1.571
 8164TIP3   OH224448   5.224   7.831   6.072
 8164TIP3    H124449   5.152   7.785   6.030
 8164TIP3    H224450   5.249   7.775   6.146
 8165TIP3   OH224451   8.170   5.687   0.718
 8165TIP3    H124452   8.250   5.694   0.770
 8165TIP3    H224453   8.106   5.647   0.777
 8166TIP3   OH224454   6.906   7.548   5.751
 8166TIP3    H124455   6.974   7.594   5.701
 8166TIP3    H224456   6.906   7.590   5.837
 8167TIP3   OH224457   7.360   5.102   1.893
 8167TIP3    H124458   7.288   5.125   1.834
 8167TIP3    H224459   7.362   5.173   1.957
 8168TIP3   OH224460   5.016   6.881   5.527
 8168TIP3    H124461   4.969   6.849   5.450
 8168TIP3    H224462   5.108   6.866   5.507
 8169TIP3   OH224463   0.509   3.949   4.710
 8169TIP3    H124464   0.483   4.041   4.711
 8169TIP3    H224465   0.582   3.945   4.648
 8170TIP3   OH224466   5.132   3.655   1.313
 8170TIP3    H124467   5.148   3.735   1.263
 8170TIP3    H224468   5.067   3.607   1.262
 8171TIP3   OH224469   6.133   5.388   2.543
 8171TIP3    H124470   6.071   5.343   2.485
 8171TIP3    H224471   6.100   5.370   2.632
 8172TIP3   OH224472   3.336   3.277   5.027
 8172TIP3    H124473   3.249   3.292   4.991
 8172TIP3    H224474   3.394   3.276   4.951
 8173TIP3   OH224475   0.145   0.123   5.109
 8173TIP3    H124476   0.210   0.100   5.043
 8173TIP3    H224477   0.193   0.122   5.192
 8174TIP3   OH224478   5.303   4.831   2.494
 8174TIP3    H124479   5.322   4.761   2.556
 8174TIP3    H224480   5.307   4.911   2.546
 8175TIP3   OH224481   3.352   2.460   2.022
 8175TIP3    H124482   3.314   2.469   1.934
 8175TIP3    H224483   3.278   2.472   2.081
 8176TIP3   OH224484   1.247   5.097   4.634
 8176TIP3    H124485   1.267   5.028   4.570
 8176TIP3    H224486   1.214   5.169   4.581
 8177TIP3   OH224487   3.664   1.932   5.122
 8177TIP3    H124488   3.615   1.892   5.050
 8177TIP3    H224489   3.735   1.980   5.079
 8178TIP3   OH224490   5.152   6.433   6.723
 8178TIP3    H124491   5.109   6.517   6.736
 8178TIP3    H224492   5.097   6.387   6.659
 8179TIP3   OH224493   5.183   1.914   4.027
 8179TIP3    H124494   5.217   1.989   4.076
 8179TIP3    H224495   5.135   1.954   3.954
 8180TIP3   OH224496   6.614   2.414   0.279
 8180TIP3    H124497   6.584   2.336   0.233
 8180TIP3    H224498   6.559   2.485   0.245
 8181TIP3   OH224499   2.099   2.605   4.898
 8181TIP3    H124500   2.018   2.556   4.886
 8181TIP3    H224501   2.154   2.549   4.953
 8182TIP3   OH224502   2.263   5.744   0.117
 8182TIP3    H124503   2.324   5.781   0.181
 8182TIP3    H224504   2.318   5.718   0.044
 8183TIP3   OH224505   7.384   4.175   4.435
 8183TIP3    H124506   7.351   4.242   4.495
 8183TIP3    H224507   7.451   4.220   4.383
 8184TIP3   OH224508   1.072   0.372   1.906
 8184TIP3    H124509   1.026   0.296   1.872
 8184TIP3    H224510   1.008   0.418   1.959
 8185TIP3   OH224511   4.173   3.934   3.134
 8185TIP3    H124512   4.223   4.016   3.130
 8185TIP3    H224513   4.140   3.922   3.045
 8186TIP3   OH224514   7.337   3.706   1.047
 8186TIP3    H124515   7.244   3.684   1.036
 8186TIP3    H224516   7.373   3.703   0.959
 8187TIP3   OH224517   7.788   5.851   0.496
 8187TIP3    H124518   7.692   5.861   0.499
 8187TIP3    H224519   7.818   5.884   0.581
 8188TIP3   OH224520   0.980   5.856   5.471
 8188TIP3    H124521   1.060   5.804   5.461
 8188TIP3    H224522   0.931   5.839   5.390
 8189TIP3   OH224523   4.349   4.737   0.117
 8189TIP3    H124524   4.407   4.671   0.155
 8189TIP3    H224525   4.266   4.691   0.104
 8190TIP3   OH224526   3.967   1.004   3.237
 8190TIP3    H124527   4.056   0.979   3.215
 8190TIP3    H224528   3.938   0.938   3.300
 8191TIP3   OH224529   5.900   0.883   3.247
 8191TIP3    H124530   5.950   0.842   3.176
 8191TIP3    H224531   5.901   0.976   3.226
 8192TIP3   OH224532   7.765   6.622   2.083
 8192TIP3    H124533   7.774   6.645   2.175
 8192TIP3    H224534   7.728   6.700   2.042
 8193TIP3   OH224535   0.536   5.927   6.521
 8193TIP3    H124536   0.625   5.893   6.512
 8193TIP3    H224537   0.480   5.850   6.525
 8194TIP3   OH224538   5.416   4.082   5.977
 8194TIP3    H124539   5.412   4.177   5.989
 8194TIP3    H224540   5.509   4.061   5.974
 8195TIP3   OH224541   5.554   1.013   4.606
 8195TIP3    H124542   5.477   1.014   4.549
 8195TIP3    H224543   5.559   0.923   4.639
 8196TIP3   OH224544   1.358   0.197   5.931
 8196TIP3    H124545   1.272   0.239   5.937
 8196TIP3    H224546   1.340   0.104   5.943
 8197TIP3   OH224547   0.089   0.310   3.811
 8197TIP3    H124548   0.014   0.306   3.752
 8197TIP3    H224549   0.069   0.246   3.879
 8198TIP3   OH224550   6.772   4.285   1.843
 8198TIP3    H124551   6.826   4.302   1.920
 8198TIP3    H224552   6.834   4.271   1.772
 8199TIP3   OH224553   6.726   4.340   6.759
 8199TIP3    H124554   6.760   4.321   6.847
 8199TIP3    H224555   6.768   4.277   6.702
 8200TIP3   OH224556   5.484   1.439   1.238
 8200TIP3    H124557   5.548   1.382   1.195
 8200TIP3    H224558   5.444   1.384   1.306
 8201TIP3   OH224559   4.804   4.289   2.447
 8201TIP3    H124560   4.873   4.295   2.382
 8201TIP3    H224561   4.810   4.199   2.480
 8202TIP3   OH224562   4.458   7.463   2.554
 8202TIP3    H124563   4.378   7.411   2.562
 8202TIP3    H224564   4.525   7.412   2.600
 8203TIP3   OH224565   2.863   1.634   4.325
 8203TIP3    H124566   2.782   1.584   4.315
 8203TIP3    H224567   2.865   1.658   4.417
 8204TIP3   OH224568   7.378   6.036   5.976
 8204TIP3    H124569   7.402   6.025   6.068
 8204TIP3    H224570   7.282   6.043   5.976
 8205TIP3   OH224571   3.117   5.816   4.110
 8205TIP3    H124572   3.107   5.859   4.026
 8205TIP3    H224573   3.060   5.739   4.106
 8206TIP3   OH224574   5.478   4.789   2.255
 8206TIP3    H124575   5.458   4.852   2.323
 8206TIP3    H224576   5.458   4.704   2.294
 8207TIP3   OH224577   1.356   6.424   5.737
 8207TIP3    H124578   1.293   6.370   5.784
 8207TIP3    H224579   1.437   6.373   5.736
 8208TIP3   OH224580   5.871   5.552   6.187
 8208TIP3    H124581   5.922   5.478   6.220
 8208TIP3    H224582   5.839   5.523   6.102
 8209TIP3   OH224583   4.011   5.287   4.640
 8209TIP3    H124584   4.001   5.303   4.547
 8209TIP3    H224585   3.987   5.195   4.652
 8210TIP3   OH224586   4.382   2.349   5.692
 8210TIP3    H124587   4.361   2.351   5.598
 8210TIP3    H224588   4.469   2.388   5.698
 8211TIP3   OH224589   3.022   5.683   6.384
 8211TIP3    H124590   3.042   5.591   6.405
 8211TIP3    H224591   3.105   5.718   6.351
 8212TIP3   OH224592   6.725   0.215   6.749
 8212TIP3    H124593   6.791   0.220   6.680
 8212TIP3    H224594   6.715   0.305   6.780
 8213TIP3   OH224595   6.177   2.112   4.368
 8213TIP3    H124596   6.144   2.141   4.453
 8213TIP3    H224597   6.116   2.149   4.305
 8214TIP3   OH224598   3.905   4.469   1.409
 8214TIP3    H124599   3.979   4.466   1.348
 8214TIP3    H224600   3.926   4.543   1.468
 8215TIP3   OH224601   0.463   5.654   2.282
 8215TIP3    H124602   0.527   5.686   2.218
 8215TIP3    H224603   0.400   5.605   2.230
 8216TIP3   OH224604   6.036   7.623   1.947
 8216TIP3    H124605   5.996   7.706   1.973
 8216TIP3    H224606   6.121   7.622   1.992
 8217TIP3   OH224607   1.231   4.284   5.864
 8217TIP3    H124608   1.281   4.228   5.805
 8217TIP3    H224609   1.143   4.245   5.866
 8218TIP3   OH224610   6.457   5.462   4.247
 8218TIP3    H124611   6.504   5.534   4.289
 8218TIP3    H224612   6.483   5.384   4.296
 8219TIP3   OH224613   3.221   0.113   1.206
 8219TIP3    H124614   3.233   0.114   1.301
 8219TIP3    H224615   3.256   0.029   1.177
 8220TIP3   OH224616   3.204   5.064   4.578
 8220TIP3    H124617   3.175   4.982   4.618
 8220TIP3    H224618   3.204   5.045   4.484
 8221TIP3   OH224619   2.239   4.377   3.791
 8221TIP3    H124620   2.197   4.411   3.713
 8221TIP3    H224621   2.211   4.436   3.861
 8222TIP3   OH224622   3.621   5.130   6.261
 8222TIP3    H124623   3.538   5.175   6.277
 8222TIP3    H224624   3.599   5.037   6.266
 8223TIP3   OH224625   1.282   1.757   5.635
 8223TIP3    H124626   1.203   1.807   5.655
 8223TIP3    H224627   1.339   1.819   5.589
 8224TIP3   OH224628   6.309   1.202   6.679
 8224TIP3    H124629   6.320   1.134   6.613
 8224TIP3    H224630   6.373   1.269   6.657
 8225TIP3   OH224631   2.209   5.348   4.309
 8225TIP3    H124632   2.285   5.395   4.343
 8225TIP3    H224633   2.221   5.257   4.338
 8226TIP3   OH224634   1.203   1.765   3.137
 8226TIP3    H124635   1.115   1.770   3.101
 8226TIP3    H224636   1.261   1.783   3.063
 8227TIP3   OH224637   7.046   5.655   3.144
 8227TIP3    H124638   7.083   5.574   3.179
 8227TIP3    H224639   6.954   5.634   3.126
 8228TIP3   OH224640   0.109   7.560   2.699
 8228TIP3    H124641   0.196   7.599   2.698
 8228TIP3    H224642   0.072   7.584   2.614
 8229TIP3   OH224643   0.895   0.958   4.760
 8229TIP3    H124644   0.837   0.985   4.688
 8229TIP3    H224645   0.977   1.005   4.743
 8230TIP3   OH224646   6.233   4.647   1.939
 8230TIP3    H124647   6.228   4.723   1.881
 8230TIP3    H224648   6.147   4.643   1.981
 8231TIP3   OH224649   5.772   4.292   3.364
 8231TIP3    H124650   5.848   4.341   3.331
 8231TIP3    H224651   5.807   4.206   3.388
 8232TIP3   OH224652   3.871   1.518   0.595
 8232TIP3    H124653   3.801   1.491   0.654
 8232TIP3    H224654   3.924   1.578   0.647
 8233TIP3   OH224655   4.671   1.893   0.682
 8233TIP3    H124656   4.677   1.966   0.621
 8233TIP3    H224657   4.706   1.818   0.635
 8234TIP3   OH224658   2.310   5.761   0.778
 8234TIP3    H124659   2.320   5.842   0.728
 8234TIP3    H224660   2.239   5.779   0.840
 8235TIP3   OH224661   7.540   0.765   5.034
 8235TIP3    H124662   7.585   0.705   4.975
 8235TIP3    H224663   7.610   0.806   5.085
 8236TIP3   OH224664   8.175   1.653   3.606
 8236TIP3    H124665   8.177   1.563   3.574
 8236TIP3    H224666   8.264   1.686   3.591
 8237TIP3   OH224667   5.882   3.762   0.329
 8237TIP3    H124668   5.827   3.687   0.306
 8237TIP3    H224669   5.971   3.732   0.313
 8238TIP3   OH224670   7.047   7.311   1.987
 8238TIP3    H124671   6.958   7.311   2.022
 8238TIP3    H224672   7.042   7.368   1.910
 8239TIP3   OH224673   4.440   0.208   4.207
 8239TIP3    H124674   4.498   0.247   4.272
 8239TIP3    H224675   4.411   0.282   4.154
 8240TIP3   OH224676   5.178   4.693   2.087
 8240TIP3    H124677   5.205   4.783   2.107
 8240TIP3    H224678   5.211   4.641   2.161
 8241TIP3   OH224679   7.746   2.796   0.883
 8241TIP3    H124680   7.759   2.862   0.815
 8241TIP3    H224681   7.801   2.825   0.956
 8242TIP3   OH224682   0.886   4.747   4.235
 8242TIP3    H124683   0.924   4.814   4.292
 8242TIP3    H224684   0.792   4.754   4.249
 8243TIP3   OH224685   5.600   6.511   3.064
 8243TIP3    H124686   5.662   6.510   2.991
 8243TIP3    H224687   5.540   6.439   3.045
 8244TIP3   OH224688   0.093   7.329   1.872
 8244TIP3    H124689   0.186   7.314   1.891
 8244TIP3    H224690   0.052   7.243   1.879
 8245TIP3   OH224691   8.087   2.653   4.827
 8245TIP3    H124692   8.024   2.691   4.765
 8245TIP3    H224693   8.118   2.573   4.783
 8246TIP3   OH224694   3.288   6.782   6.224
 8246TIP3    H124695   3.223   6.743   6.282
 8246TIP3    H224696   3.258   6.760   6.136
 8247TIP3   OH224697   2.837   4.975   2.540
 8247TIP3    H124698   2.832   4.982   2.635
 8247TIP3    H224699   2.870   5.061   2.512
 8248TIP3   OH224700   6.001   6.338   3.388
 8248TIP3    H124701   6.069   6.319   3.323
 8248TIP3    H224702   6.029   6.291   3.466
 8249TIP3   OH224703   3.947   6.941   6.303
 8249TIP3    H124704   3.899   6.917   6.224
 8249TIP3    H224705   4.036   6.960   6.272
 8250TIP3   OH224706   0.449   2.192   4.009
 8250TIP3    H124707   0.377   2.210   4.069
 8250TIP3    H224708   0.447   2.097   3.996
 8251TIP3   OH224709   5.469   3.184   2.786
 8251TIP3    H124710   5.467   3.146   2.874
 8251TIP3    H224711   5.395   3.143   2.740
 8252TIP3   OH224712   0.352   0.610   6.263
 8252TIP3    H124713   0.427   0.668   6.248
 8252TIP3    H224714   0.381   0.525   6.230
 8253TIP3   OH224715   5.346   5.232   0.198
 8253TIP3    H124716   5.418   5.171   0.184
 8253TIP3    H224717   5.273   5.195   0.148
 8254TIP3   OH224718   3.286   7.759   0.999
 8254TIP3    H124719   3.362   7.758   0.942
 8254TIP3    H224720   3.241   7.676   0.981
 8255TIP3   OH224721   4.676   7.748   3.262
 8255TIP3    H124722   4.679   7.728   3.169
 8255TIP3    H224723   4.586   7.726   3.289
 8256TIP3   OH224724   6.499   2.922   5.342
 8256TIP3    H124725   6.470   2.961   5.259
 8256TIP3    H224726   6.419   2.911   5.393
 8257TIP3   OH224727   4.380   5.552   0.373
 8257TIP3    H124728   4.378   5.487   0.443
 8257TIP3    H224729   4.288   5.576   0.359
 8258TIP3   OH224730   1.843   2.769   4.134
 8258TIP3    H124731   1.829   2.784   4.040
 8258TIP3    H224732   1.933   2.800   4.149
 8259TIP3   OH224733   2.885   2.891   5.937
 8259TIP3    H124734   2.821   2.946   5.893
 8259TIP3    H224735   2.846   2.872   6.022
 8260TIP3   OH224736   5.277   5.768   0.535
 8260TIP3    H124737   5.305   5.677   0.545
 8260TIP3    H224738   5.324   5.816   0.603
 8261TIP3   OH224739   2.422   4.672   3.000
 8261TIP3    H124740   2.372   4.593   2.978
 8261TIP3    H224741   2.454   4.704   2.915
 8262TIP3   OH224742   7.969   2.593   3.855
 8262TIP3    H124743   7.944   2.507   3.888
 8262TIP3    H224744   7.946   2.654   3.924
 8263TIP3   OH224745   5.815   0.623   3.377
 8263TIP3    H124746   5.908   0.599   3.383
 8263TIP3    H224747   5.771   0.541   3.357
 8264TIP3   OH224748   6.777   0.724   3.502
 8264TIP3    H124749   6.839   0.773   3.447
 8264TIP3    H224750   6.807   0.740   3.592
 8265TIP3   OH224751   4.422   0.405   1.436
 8265TIP3    H124752   4.486   0.434   1.371
 8265TIP3    H224753   4.351   0.468   1.428
 8266TIP3   OH224754  -0.021   1.780   6.119
 8266TIP3    H124755  -0.006   1.697   6.163
 8266TIP3    H224756   0.050   1.837   6.151
 8267TIP3   OH224757   6.069   2.697   0.686
 8267TIP3    H124758   6.013   2.734   0.618
 8267TIP3    H224759   6.097   2.772   0.739
 8268TIP3   OH224760   4.313   6.675   1.215
 8268TIP3    H124761   4.255   6.603   1.191
 8268TIP3    H224762   4.280   6.705   1.299
 8269TIP3   OH224763   6.853   3.994   5.869
 8269TIP3    H124764   6.830   4.057   5.801
 8269TIP3    H224765   6.933   4.029   5.908
 8270TIP3   OH224766   6.336   6.941   3.493
 8270TIP3    H124767   6.366   6.861   3.537
 8270TIP3    H224768   6.370   6.934   3.404
 8271TIP3   OH224769   0.761   5.657   0.254
 8271TIP3    H124770   0.745   5.650   0.348
 8271TIP3    H224771   0.776   5.751   0.240
 8272TIP3   OH224772   6.476   0.723   0.302
 8272TIP3    H124773   6.568   0.700   0.313
 8272TIP3    H224774   6.444   0.661   0.236
 8273TIP3   OH224775   6.107   5.971   6.781
 8273TIP3    H124776   6.074   6.036   6.719
 8273TIP3    H224777   6.032   5.913   6.797
 8274TIP3   OH224778   6.048   7.333   4.285
 8274TIP3    H124779   6.133   7.330   4.328
 8274TIP3    H224780   6.068   7.348   4.193
 8275TIP3   OH224781   2.342   3.359   5.782
 8275TIP3    H124782   2.249   3.369   5.805
 8275TIP3    H224783   2.371   3.285   5.835
 8276TIP3   OH224784   6.242   4.214   0.809
 8276TIP3    H124785   6.196   4.137   0.843
 8276TIP3    H224786   6.185   4.288   0.829
 8277TIP3   OH224787   4.954   4.053   4.061
 8277TIP3    H124788   4.935   4.033   4.152
 8277TIP3    H224789   4.880   4.107   4.032
 8278TIP3   OH224790   0.341   5.359   4.063
 8278TIP3    H124791   0.374   5.423   4.126
 8278TIP3    H224792   0.247   5.371   4.063
 8279TIP3   OH224793   2.727   6.026   0.819
 8279TIP3    H124794   2.717   6.097   0.882
 8279TIP3    H224795   2.751   6.069   0.737
 8280TIP3   OH224796   2.898   3.668   3.976
 8280TIP3    H124797   2.830   3.713   3.925
 8280TIP3    H224798   2.870   3.577   3.977
 8281TIP3   OH224799   1.030   0.851   4.145
 8281TIP3    H124800   1.094   0.819   4.081
 8281TIP3    H224801   1.078   0.854   4.228
 8282TIP3   OH224802   2.194   1.378   0.356
 8282TIP3    H124803   2.229   1.467   0.357
 8282TIP3    H224804   2.104   1.388   0.387
 8283TIP3   OH224805   0.145   1.878   3.775
 8283TIP3    H124806   0.128   1.808   3.712
 8283TIP3    H224807   0.103   1.849   3.855
 8284TIP3   OH224808   1.315   3.613   0.790
 8284TIP3    H124809   1.307   3.524   0.824
 8284TIP3    H224810   1.336   3.666   0.868
 8285TIP3   OH224811   6.906   3.838   0.033
 8285TIP3    H124812   6.918   3.866  -0.058
 8285TIP3    H224813   6.991   3.854   0.074
 8286TIP3   OH224814   8.139   1.030   3.495
 8286TIP3    H124815   8.058   0.980   3.490
 8286TIP3    H224816   8.123   1.096   3.563
 8287TIP3   OH224817   5.780   5.837   2.160
 8287TIP3    H124818   5.719   5.846   2.086
 8287TIP3    H224819   5.810   5.926   2.177
 8288TIP3   OH224820   2.398   0.326   4.644
 8288TIP3    H124821   2.387   0.373   4.726
 8288TIP3    H224822   2.485   0.350   4.613
 8289TIP3   OH224823   3.872   3.943   4.407
 8289TIP3    H124824   3.929   4.010   4.367
 8289TIP3    H224825   3.803   3.929   4.343
 8290TIP3   OH224826   1.816   5.882   4.183
 8290TIP3    H124827   1.735   5.924   4.210
 8290TIP3    H224828   1.884   5.947   4.201
 8291TIP3   OH224829   6.179   5.375   5.975
 8291TIP3    H124830   6.239   5.450   5.978
 8291TIP3    H224831   6.236   5.299   5.963
 8292TIP3   OH224832   6.510   3.634   2.214
 8292TIP3    H124833   6.542   3.564   2.157
 8292TIP3    H224834   6.429   3.599   2.251
 8293TIP3   OH224835   0.319   1.460   5.292
 8293TIP3    H124836   0.379   1.385   5.298
 8293TIP3    H224837   0.244   1.436   5.346
 8294TIP3   OH224838   3.453   0.432   5.827
 8294TIP3    H124839   3.524   0.477   5.782
 8294TIP3    H224840   3.476   0.339   5.821
 8295TIP3   OH224841   1.395   4.920   0.725
 8295TIP3    H124842   1.455   4.960   0.663
 8295TIP3    H224843   1.441   4.923   0.809
 8296TIP3   OH224844   0.043   1.406   4.438
 8296TIP3    H124845   0.137   1.388   4.427
 8296TIP3    H224846   0.022   1.470   4.370
 8297TIP3   OH224847   5.940   5.566   4.278
 8297TIP3    H124848   6.035   5.560   4.288
 8297TIP3    H224849   5.921   5.659   4.290
 8298TIP3   OH224850   5.829   1.667   4.583
 8298TIP3    H124851   5.913   1.705   4.609
 8298TIP3    H224852   5.839   1.574   4.602
 8299TIP3   OH224853   5.671   5.765   0.923
 8299TIP3    H124854   5.626   5.848   0.906
 8299TIP3    H224855   5.764   5.785   0.911
 8300TIP3   OH224856   2.174   1.944   0.127
 8300TIP3    H124857   2.175   2.039   0.117
 8300TIP3    H224858   2.235   1.926   0.199
 8301TIP3   OH224859   5.864   5.192   6.525
 8301TIP3    H124860   5.945   5.243   6.518
 8301TIP3    H224861   5.892   5.109   6.563
 8302TIP3   OH224862   4.867   5.327   4.979
 8302TIP3    H124863   4.825   5.399   5.026
 8302TIP3    H224864   4.959   5.334   5.002
 8303TIP3   OH224865   3.569   0.052   3.143
 8303TIP3    H124866   3.494   0.094   3.102
 8303TIP3    H224867   3.620   0.016   3.071
 8304TIP3   OH224868   5.748   5.410   0.325
 8304TIP3    H124869   5.686   5.372   0.387
 8304TIP3    H224870   5.719   5.500   0.312
 8305TIP3   OH224871   6.944   4.288   1.619
 8305TIP3    H124872   6.937   4.290   1.523
 8305TIP3    H224873   7.037   4.274   1.636
 8306TIP3   OH224874   7.650   4.189   2.735
 8306TIP3    H124875   7.584   4.244   2.777
 8306TIP3    H224876   7.601   4.115   2.699
 8307TIP3   OH224877   5.503   1.054   3.618
 8307TIP3    H124878   5.443   1.045   3.693
 8307TIP3    H224879   5.449   1.091   3.548
 8308TIP3   OH224880   6.623   1.034   5.491
 8308TIP3    H124881   6.710   1.071   5.505
 8308TIP3    H224882   6.626   0.999   5.402
 8309TIP3   OH224883   0.167   2.269   4.792
 8309TIP3    H124884   0.218   2.322   4.853
 8309TIP3    H224885   0.099   2.229   4.846
 8310TIP3   OH224886   3.661   4.365   1.418
 8310TIP3    H124887   3.699   4.284   1.453
 8310TIP3    H224888   3.734   4.427   1.417
 8311TIP3   OH224889   0.509   7.734   3.578
 8311TIP3    H124890   0.471   7.706   3.661
 8311TIP3    H224891   0.602   7.714   3.586
 8312TIP3   OH224892   1.517   5.031   2.915
 8312TIP3    H124893   1.497   5.058   2.825
 8312TIP3    H224894   1.500   4.937   2.916
 8313TIP3   OH224895   3.780   1.407   4.788
 8313TIP3    H124896   3.744   1.474   4.846
 8313TIP3    H224897   3.706   1.382   4.732
 8314TIP3   OH224898   5.274   0.362   5.894
 8314TIP3    H124899   5.180   0.372   5.878
 8314TIP3    H224900   5.282   0.361   5.989
 8315TIP3   OH224901   6.884   5.191   0.420
 8315TIP3    H124902   6.854   5.262   0.363
 8315TIP3    H224903   6.853   5.111   0.377
 8316TIP3   OH224904   1.625   1.753   4.231
 8316TIP3    H124905   1.612   1.726   4.322
 8316TIP3    H224906   1.690   1.822   4.235
 8317TIP3   OH224907   7.767   6.238   2.631
 8317TIP3    H124908   7.773   6.290   2.711
 8317TIP3    H224909   7.782   6.300   2.560
 8318TIP3   OH224910   7.041   7.314   6.359
 8318TIP3    H124911   7.052   7.276   6.446
 8318TIP3    H224912   6.950   7.296   6.336
 8319TIP3   OH224913   4.622   5.711   0.650
 8319TIP3    H124914   4.646   5.619   0.662
 8319TIP3    H224915   4.690   5.760   0.697
 8320TIP3   OH224916   1.289   5.730   1.349
 8320TIP3    H124917   1.211   5.685   1.318
 8320TIP3    H224918   1.337   5.753   1.270
 8321TIP3   OH224919   1.970   0.714   2.318
 8321TIP3    H124920   1.920   0.783   2.361
 8321TIP3    H224921   1.929   0.633   2.348
 8322TIP3   OH224922   7.154   3.944   2.612
 8322TIP3    H124923   7.216   3.876   2.587
 8322TIP3    H224924   7.117   3.914   2.695
 8323TIP3   OH224925   2.201   1.939   2.824
 8323TIP3    H124926   2.140   1.905   2.759
 8323TIP3    H224927   2.165   1.910   2.908
 8324TIP3   OH224928   5.350   1.324   4.380
 8324TIP3    H124929   5.338   1.277   4.463
 8324TIP3    H224930   5.343   1.257   4.313
 8325TIP3   OH224931   7.490   3.904   0.665
 8325TIP3    H124932   7.410   3.880   0.617
 8325TIP3    H224933   7.514   3.990   0.630
 8326TIP3   OH224934   0.731   3.562   6.538
 8326TIP3    H124935   0.659   3.581   6.598
 8326TIP3    H224936   0.771   3.482   6.573
 8327TIP3   OH224937   5.360   3.591   6.378
 8327TIP3    H124938   5.448   3.627   6.394
 8327TIP3    H224939   5.315   3.601   6.462
 8328TIP3   OH224940   7.176   3.581   2.983
 8328TIP3    H124941   7.240   3.517   2.952
 8328TIP3    H224942   7.170   3.645   2.912
 8329TIP3   OH224943   2.353   3.961   4.274
 8329TIP3    H124944   2.283   4.026   4.266
 8329TIP3    H224945   2.363   3.948   4.369
 8330TIP3   OH224946   4.928   7.390   3.942
 8330TIP3    H124947   4.853   7.361   3.994
 8330TIP3    H224948   4.897   7.467   3.894
 8331TIP3   OH224949   7.479   6.084   2.177
 8331TIP3    H124950   7.571   6.057   2.179
 8331TIP3    H224951   7.451   6.082   2.268
 8332TIP3   OH224952   7.616   0.442   3.272
 8332TIP3    H124953   7.603   0.474   3.362
 8332TIP3    H224954   7.572   0.357   3.271
 8333TIP3   OH224955   2.586   6.723   0.280
 8333TIP3    H124956   2.509   6.749   0.330
 8333TIP3    H224957   2.584   6.776   0.201
 8334TIP3   OH224958   8.130   1.106   2.698
 8334TIP3    H124959   8.102   1.164   2.769
 8334TIP3    H224960   8.088   1.022   2.717
 8335TIP3   OH224961   7.644   5.596   1.061
 8335TIP3    H124962   7.639   5.637   0.975
 8335TIP3    H224963   7.581   5.644   1.115
 8336TIP3   OH224964   3.413   7.654   2.144
 8336TIP3    H124965   3.418   7.650   2.049
 8336TIP3    H224966   3.420   7.748   2.165
 8337TIP3   OH224967   6.176   6.726   0.418
 8337TIP3    H124968   6.200   6.723   0.511
 8337TIP3    H224969   6.258   6.748   0.373
 8338TIP3   OH224970   1.580   4.297   6.480
 8338TIP3    H124971   1.592   4.210   6.519
 8338TIP3    H224972   1.540   4.279   6.395
 8339TIP3   OH224973   7.406   0.524   0.819
 8339TIP3    H124974   7.465   0.478   0.759
 8339TIP3    H224975   7.429   0.616   0.811
 8340TIP3   OH224976   1.185   1.939   6.503
 8340TIP3    H124977   1.271   1.967   6.535
 8340TIP3    H224978   1.196   1.934   6.408
 8341TIP3   OH224979   1.058   1.896   2.738
 8341TIP3    H124980   0.981   1.847   2.766
 8341TIP3    H224981   1.133   1.840   2.761
 8342TIP3   OH224982   6.408   7.415   3.837
 8342TIP3    H124983   6.359   7.472   3.777
 8342TIP3    H224984   6.375   7.327   3.818
 8343TIP3   OH224985   5.522   4.058   6.243
 8343TIP3    H124986   5.486   4.064   6.154
 8343TIP3    H224987   5.595   4.120   6.244
 8344TIP3   OH224988   1.021   4.780   2.792
 8344TIP3    H124989   1.030   4.822   2.878
 8344TIP3    H224990   0.939   4.732   2.797
 8345TIP3   OH224991   0.322   7.268   6.206
 8345TIP3    H124992   0.270   7.336   6.164
 8345TIP3    H224993   0.263   7.231   6.273
 8346TIP3   OH224994   2.541   0.448   2.108
 8346TIP3    H124995   2.471   0.505   2.140
 8346TIP3    H224996   2.561   0.391   2.182
 8347TIP3   OH224997   6.682   1.742   6.690
 8347TIP3    H124998   6.627   1.689   6.633
 8347TIP3    H224999   6.621   1.781   6.752
 8348TIP3   OH225000   4.365   1.983   5.217
 8348TIP3    H125001   4.429   2.011   5.151
 8348TIP3    H225002   4.386   1.892   5.234
 8349TIP3   OH225003   3.955   4.212   2.840
 8349TIP3    H125004   4.043   4.174   2.837
 8349TIP3    H225005   3.915   4.172   2.918
 8350TIP3   OH225006   1.170   0.425   0.219
 8350TIP3    H125007   1.195   0.429   0.311
 8350TIP3    H225008   1.191   0.335   0.192
 8351TIP3   OH225009   4.269   0.107   4.410
 8351TIP3    H125010   4.324   0.141   4.339
 8351TIP3    H225011   4.329   0.097   4.484
 8352TIP3   OH225012   5.118   4.313   5.200
 8352TIP3    H125013   5.147   4.322   5.291
 8352TIP3    H225014   5.197   4.320   5.148
 8353TIP3   OH225015   3.915   3.406   4.024
 8353TIP3    H125016   3.843   3.356   4.064
 8353TIP3    H225017   3.871   3.468   3.966
 8354TIP3   OH225018   1.669   2.869   5.443
 8354TIP3    H125019   1.601   2.838   5.502
 8354TIP3    H225020   1.623   2.924   5.380
 8355TIP3   OH225021   1.230   0.947   3.424
 8355TIP3    H125022   1.295   0.989   3.368
 8355TIP3    H225023   1.257   0.968   3.513
 8356TIP3   OH225024   2.884   4.922   3.888
 8356TIP3    H125025   2.925   4.992   3.938
 8356TIP3    H225026   2.798   4.957   3.864
 8357TIP3   OH225027   0.216   7.055   5.044
 8357TIP3    H125028   0.180   7.136   5.006
 8357TIP3    H225029   0.294   7.084   5.091
 8358TIP3   OH225030   5.977   2.162   5.349
 8358TIP3    H125031   6.067   2.156   5.381
 8358TIP3    H225032   5.965   2.254   5.327
 8359TIP3   OH225033   5.590   6.571   2.708
 8359TIP3    H125034   5.577   6.560   2.614
 8359TIP3    H225035   5.593   6.482   2.743
 8360TIP3   OH225036   4.955   3.382   0.766
 8360TIP3    H125037   4.906   3.329   0.703
 8360TIP3    H225038   4.889   3.421   0.822
 8361TIP3   OH225039   5.990   3.546   4.938
 8361TIP3    H125040   5.997   3.498   4.856
 8361TIP3    H225041   5.913   3.508   4.982
 8362TIP3   OH225042   3.625   1.232   1.711
 8362TIP3    H125043   3.683   1.228   1.787
 8362TIP3    H225044   3.564   1.160   1.724
 8363TIP3   OH225045   5.349   7.185   3.725
 8363TIP3    H125046   5.389   7.266   3.757
 8363TIP3    H225047   5.275   7.170   3.785
 8364TIP3   OH225048   7.517   6.959   0.687
 8364TIP3    H125049   7.539   7.019   0.759
 8364TIP3    H225050   7.588   6.895   0.686
 8365TIP3   OH225051   8.292   6.411   5.194
 8365TIP3    H125052   8.228   6.353   5.152
 8365TIP3    H225053   8.298   6.486   5.136
 8366TIP3   OH225054   6.441   0.900   2.128
 8366TIP3    H125055   6.436   0.833   2.196
 8366TIP3    H225056   6.390   0.973   2.163
 8367TIP3   OH225057   7.623   3.388   4.789
 8367TIP3    H125058   7.642   3.311   4.735
 8367TIP3    H225059   7.527   3.394   4.790
 8368TIP3   OH225060   8.044   2.323   1.210
 8368TIP3    H125061   8.047   2.418   1.216
 8368TIP3    H225062   7.959   2.299   1.246
 8369TIP3   OH225063   3.146   2.742   6.151
 8369TIP3    H125064   3.140   2.655   6.189
 8369TIP3    H225065   3.239   2.757   6.136
 8370TIP3   OH225066   0.555   0.643   3.149
 8370TIP3    H125067   0.526   0.571   3.092
 8370TIP3    H225068   0.616   0.601   3.210
 8371TIP3   OH225069   3.338   1.572   0.033
 8371TIP3    H125070   3.256   1.524   0.045
 8371TIP3    H225071   3.367   1.592   0.122
 8372TIP3   OH225072   0.004  -0.017   1.587
 8372TIP3    H125073   0.010   0.022   1.500
 8372TIP3    H225074   0.046   0.046   1.645
 8373TIP3   OH225075   7.943   2.861   4.025
 8373TIP3    H125076   7.974   2.930   4.084
 8373TIP3    H225077   7.951   2.899   3.938
 8374TIP3   OH225078   4.259   0.819   1.743
 8374TIP3    H125079   4.254   0.913   1.728
 8374TIP3    H225080   4.228   0.807   1.832
 8375TIP3   OH225081   6.717   5.808   0.136
 8375TIP3    H125082   6.705   5.835   0.045
 8375TIP3    H225083   6.659   5.732   0.146
 8376TIP3   OH225084   1.550   1.124   0.776
 8376TIP3    H125085   1.535   1.057   0.843
 8376TIP3    H225086   1.486   1.104   0.708
 8377TIP3   OH225087   0.756   2.075   3.792
 8377TIP3    H125088   0.684   2.095   3.733
 8377TIP3    H225089   0.808   2.155   3.794
 8378TIP3   OH225090   0.213   5.041   2.801
 8378TIP3    H125091   0.120   5.066   2.809
 8378TIP3    H225092   0.252   5.071   2.883
 8379TIP3   OH225093   6.308   2.456   3.841
 8379TIP3    H125094   6.339   2.370   3.815
 8379TIP3    H225095   6.215   2.456   3.818
 8380TIP3   OH225096   5.857   4.098   6.546
 8380TIP3    H125097   5.943   4.057   6.541
 8380TIP3    H225098   5.833   4.117   6.456
 8381TIP3   OH225099   4.459   5.669   6.643
 8381TIP3    H125100   4.539   5.654   6.592
 8381TIP3    H225101   4.444   5.586   6.688
 8382TIP3   OH225102   0.750   1.683   5.496
 8382TIP3    H125103   0.718   1.661   5.408
 8382TIP3    H225104   0.823   1.743   5.480
 8383TIP3   OH225105   2.174   0.257   1.599
 8383TIP3    H125106   2.225   0.338   1.589
 8383TIP3    H225107   2.238   0.187   1.585
 8384TIP3   OH225108   0.883   7.353   3.696
 8384TIP3    H125109   0.965   7.401   3.688
 8384TIP3    H225110   0.906   7.276   3.749
 8385TIP3   OH225111   7.407   0.606   4.410
 8385TIP3    H125112   7.424   0.655   4.329
 8385TIP3    H225113   7.322   0.564   4.395
 8386TIP3   OH225114   1.244   7.308   5.330
 8386TIP3    H125115   1.183   7.305   5.256
 8386TIP3    H225116   1.319   7.358   5.297
 8387TIP3   OH225117   3.256   4.514   5.754
 8387TIP3    H125118   3.238   4.424   5.728
 8387TIP3    H225119   3.339   4.509   5.802
 8388TIP3   OH225120   2.300   0.800   3.702
 8388TIP3    H125121   2.222   0.754   3.670
 8388TIP3    H225122   2.372   0.739   3.686
 8389TIP3   OH225123   4.213   4.227   1.918
 8389TIP3    H125124   4.158   4.192   1.847
 8389TIP3    H225125   4.247   4.149   1.962
 8390TIP3   OH225126   5.479   5.253   1.439
 8390TIP3    H125127   5.548   5.212   1.491
 8390TIP3    H225128   5.399   5.209   1.465
 8391TIP3   OH225129   6.232   6.136   5.162
 8391TIP3    H125130   6.317   6.170   5.134
 8391TIP3    H225131   6.251   6.049   5.197
 8392TIP3   OH225132   7.085   6.923   5.428
 8392TIP3    H125133   7.118   6.842   5.466
 8392TIP3    H225134   6.991   6.922   5.447
 8393TIP3   OH225135   3.870   2.106   6.265
 8393TIP3    H125136   3.931   2.148   6.325
 8393TIP3    H225137   3.919   2.033   6.228
 8394TIP3   OH225138   2.302   7.693   5.643
 8394TIP3    H125139   2.342   7.610   5.616
 8394TIP3    H225140   2.213   7.670   5.668
 8395TIP3   OH225141   5.997   2.618   1.617
 8395TIP3    H125142   5.965   2.611   1.527
 8395TIP3    H225143   6.011   2.712   1.631
 8396TIP3   OH225144   0.262   6.000   0.460
 8396TIP3    H125145   0.194   6.067   0.463
 8396TIP3    H225146   0.293   5.991   0.550
 8397TIP3   OH225147   4.550   3.350   3.941
 8397TIP3    H125148   4.636   3.375   3.974
 8397TIP3    H225149   4.530   3.268   3.985
 8398TIP3   OH225150   4.392   6.609   3.553
 8398TIP3    H125151   4.338   6.598   3.475
 8398TIP3    H225152   4.440   6.691   3.538
 8399TIP3   OH225153   0.190   4.801   6.203
 8399TIP3    H125154   0.257   4.869   6.196
 8399TIP3    H225155   0.173   4.774   6.113
 8400TIP3   OH225156   5.948   6.896   4.442
 8400TIP3    H125157   5.976   6.846   4.518
 8400TIP3    H225158   5.882   6.957   4.477
 8401TIP3   OH225159   7.033   6.130   4.985
 8401TIP3    H125160   7.112   6.076   4.993
 8401TIP3    H225161   7.006   6.145   5.076
 8402TIP3   OH225162   4.182   3.886   2.737
 8402TIP3    H125163   4.261   3.845   2.772
 8402TIP3    H225164   4.118   3.881   2.809
 8403TIP3   OH225165   3.016   0.957   1.024
 8403TIP3    H125166   2.938   1.009   1.005
 8403TIP3    H225167   3.071   0.966   0.946
 8404TIP3   OH225168   3.874   1.152   4.632
 8404TIP3    H125169   3.910   1.116   4.713
 8404TIP3    H225170   3.850   1.242   4.654
 8405TIP3   OH225171   6.341   2.599   6.382
 8405TIP3    H125172   6.350   2.611   6.288
 8405TIP3    H225173   6.337   2.687   6.418
 8406TIP3   OH225174   3.514   0.068   4.509
 8406TIP3    H125175   3.427   0.067   4.469
 8406TIP3    H225176   3.566   0.009   4.454
 8407TIP3   OH225177   8.066   4.363   5.666
 8407TIP3    H125178   8.052   4.418   5.589
 8407TIP3    H225179   8.006   4.289   5.653
 8408TIP3   OH225180   6.409   1.732   3.120
 8408TIP3    H125181   6.333   1.694   3.163
 8408TIP3    H225182   6.479   1.728   3.186
 8409TIP3   OH225183   5.170   2.502   2.388
 8409TIP3    H125184   5.100   2.449   2.350
 8409TIP3    H225185   5.250   2.454   2.367
 8410TIP3   OH225186   4.186   3.820   6.432
 8410TIP3    H125187   4.199   3.856   6.520
 8410TIP3    H225188   4.159   3.895   6.379
 8411TIP3   OH225189   7.361   5.214   4.229
 8411TIP3    H125190   7.334   5.299   4.193
 8411TIP3    H225191   7.279   5.166   4.240
 8412TIP3   OH225192   2.718   5.704   5.544
 8412TIP3    H125193   2.636   5.729   5.501
 8412TIP3    H225194   2.744   5.783   5.593
 8413TIP3   OH225195   0.334   4.260   1.270
 8413TIP3    H125196   0.353   4.323   1.200
 8413TIP3    H225197   0.259   4.210   1.237
 8414TIP3   OH225198   2.750   7.520   5.743
 8414TIP3    H125199   2.747   7.586   5.674
 8414TIP3    H225200   2.798   7.447   5.703
 8415TIP3   OH225201   5.187   3.925   4.846
 8415TIP3    H125202   5.121   3.856   4.859
 8415TIP3    H225203   5.200   3.962   4.933
 8416TIP3   OH225204   7.913   5.173   3.158
 8416TIP3    H125205   7.983   5.126   3.203
 8416TIP3    H225206   7.958   5.218   3.086
 8417TIP3   OH225207   4.110   4.989   1.811
 8417TIP3    H125208   4.108   5.062   1.873
 8417TIP3    H225209   4.144   5.027   1.730
 8418TIP3   OH225210   6.844   3.758   4.676
 8418TIP3    H125211   6.939   3.744   4.682
 8418TIP3    H225212   6.807   3.670   4.682
 8419TIP3   OH225213   6.789   7.214   5.732
 8419TIP3    H125214   6.845   7.145   5.767
 8419TIP3    H225215   6.842   7.294   5.738
 8420TIP3   OH225216   4.257   0.844   1.368
 8420TIP3    H125217   4.237   0.752   1.346
 8420TIP3    H225218   4.184   0.893   1.329
 8421TIP3   OH225219   3.674   1.493   3.843
 8421TIP3    H125220   3.758   1.523   3.878
 8421TIP3    H225221   3.671   1.530   3.755
 8422TIP3   OH225222   6.446   4.346   4.720
 8422TIP3    H125223   6.468   4.397   4.641
 8422TIP3    H225224   6.438   4.412   4.789
 8423TIP3   OH225225   5.908   6.306   2.147
 8423TIP3    H125226   5.864   6.388   2.169
 8423TIP3    H225227   5.909   6.304   2.051
 8424TIP3   OH225228   2.119   1.650   4.688
 8424TIP3    H125229   2.108   1.662   4.594
 8424TIP3    H225230   2.182   1.717   4.714
 8425TIP3   OH225231   8.209   0.316   6.756
 8425TIP3    H125232   8.269   0.254   6.798
 8425TIP3    H225233   8.123   0.292   6.790
 8426TIP3   OH225234   0.689   5.125   4.969
 8426TIP3    H125235   0.762   5.166   4.922
 8426TIP3    H225236   0.689   5.168   5.054
 8427TIP3   OH225237   3.033   4.493   1.801
 8427TIP3    H125238   3.044   4.399   1.786
 8427TIP3    H225239   3.118   4.530   1.779
 8428TIP3   OH225240   5.561   6.390   6.380
 8428TIP3    H125241   5.634   6.354   6.329
 8428TIP3    H225242   5.497   6.417   6.314
 8429TIP3   OH225243   3.790   3.680   0.271
 8429TIP3    H125244   3.788   3.687   0.366
 8429TIP3    H225245   3.881   3.699   0.248
 8430TIP3   OH225246   5.553   4.354   2.877
 8430TIP3    H125247   5.542   4.260   2.891
 8430TIP3    H225248   5.620   4.380   2.940
 8431TIP3   OH225249   8.031   6.723   6.442
 8431TIP3    H125250   8.123   6.743   6.427
 8431TIP3    H225251   8.033   6.642   6.494
 8432TIP3   OH225252   1.424   4.144   3.100
 8432TIP3    H125253   1.417   4.226   3.148
 8432TIP3    H225254   1.335   4.128   3.067
 8433TIP3   OH225255   2.493   6.051   3.027
 8433TIP3    H125256   2.494   6.016   3.116
 8433TIP3    H225257   2.477   6.145   3.038
 8434TIP3   OH225258   5.182   1.713   5.249
 8434TIP3    H125259   5.216   1.626   5.270
 8434TIP3    H225260   5.242   1.747   5.183
 8435TIP3   OH225261   0.929   3.160   2.052
 8435TIP3    H125262   0.881   3.233   2.090
 8435TIP3    H225263   0.862   3.102   2.017
 8436TIP3   OH225264   7.486   0.433   3.604
 8436TIP3    H125265   7.528   0.436   3.690
 8436TIP3    H225266   7.459   0.523   3.587
 8437TIP3   OH225267   4.835   4.118   1.498
 8437TIP3    H125268   4.818   4.186   1.433
 8437TIP3    H225269   4.836   4.037   1.447
 8438TIP3   OH225270   5.023   1.615   5.961
 8438TIP3    H125271   5.060   1.588   6.045
 8438TIP3    H225272   5.021   1.711   5.965
 8439TIP3   OH225273   1.634   4.346   2.610
 8439TIP3    H125274   1.718   4.379   2.643
 8439TIP3    H225275   1.582   4.425   2.596
 8440TIP3   OH225276   6.458   7.682   6.508
 8440TIP3    H125277   6.528   7.625   6.539
 8440TIP3    H225278   6.379   7.627   6.511
 8441TIP3   OH225279   1.705   0.113   1.036
 8441TIP3    H125280   1.700   0.169   1.114
 8441TIP3    H225281   1.795   0.125   1.004
 8442TIP3   OH225282   4.028   0.254   2.233
 8442TIP3    H125283   3.967   0.209   2.175
 8442TIP3    H225284   3.972   0.298   2.297
 8443TIP3   OH225285   5.314   0.247   0.511
 8443TIP3    H125286   5.276   0.203   0.435
 8443TIP3    H225287   5.326   0.176   0.575
 8444TIP3   OH225288   3.333   0.481   2.307
 8444TIP3    H125289   3.297   0.541   2.372
 8444TIP3    H225290   3.302   0.516   2.223
 8445TIP3   OH225291   2.511   6.178   6.201
 8445TIP3    H125292   2.468   6.259   6.176
 8445TIP3    H225293   2.473   6.155   6.286
 8446TIP3   OH225294   7.065   5.394   6.532
 8446TIP3    H125295   7.103   5.433   6.610
 8446TIP3    H225296   6.986   5.350   6.563
 8447TIP3   OH225297   0.864   1.645   5.169
 8447TIP3    H125298   0.899   1.724   5.128
 8447TIP3    H225299   0.939   1.607   5.215
 8448TIP3   OH225300   4.914   6.574   0.574
 8448TIP3    H125301   4.958   6.491   0.595
 8448TIP3    H225302   4.968   6.613   0.505
 8449TIP3   OH225303   8.236   2.970   3.363
 8449TIP3    H125304   8.265   3.042   3.305
 8449TIP3    H225305   8.142   2.964   3.348
 8450TIP3   OH225306   5.031   7.397   5.715
 8450TIP3    H125307   5.120   7.403   5.681
 8450TIP3    H225308   4.978   7.370   5.640
 8451TIP3   OH225309   0.184   4.996   2.500
 8451TIP3    H125310   0.184   4.998   2.405
 8451TIP3    H225311   0.092   4.985   2.524
 8452TIP3   OH225312   8.262   3.121   5.560
 8452TIP3    H125313   8.288   3.043   5.609
 8452TIP3    H225314   8.192   3.160   5.612
 8453TIP3   OH225315   0.137   4.953   4.245
 8453TIP3    H125316   0.045   4.968   4.222
 8453TIP3    H225317   0.147   4.857   4.241
 8454TIP3   OH225318   4.718   3.671   2.431
 8454TIP3    H125319   4.722   3.666   2.526
 8454TIP3    H225320   4.809   3.687   2.404
 8455TIP3   OH225321   4.871   4.356   0.730
 8455TIP3    H125322   4.881   4.440   0.684
 8455TIP3    H225323   4.948   4.305   0.703
 8456TIP3   OH225324   8.073   2.324   2.330
 8456TIP3    H125325   8.098   2.356   2.243
 8456TIP3    H225326   8.136   2.254   2.348
 8457TIP3   OH225327   5.951   2.005   5.106
 8457TIP3    H125328   5.929   2.055   5.185
 8457TIP3    H225329   6.046   2.013   5.098
 8458TIP3   OH225330   0.620   7.408   5.950
 8458TIP3    H125331   0.689   7.474   5.939
 8458TIP3    H225332   0.539   7.454   5.929
 8459TIP3   OH225333   4.866   2.755   0.067
 8459TIP3    H125334   4.902   2.751  -0.022
 8459TIP3    H225335   4.778   2.792   0.056
 8460TIP3   OH225336   3.681   6.587   0.670
 8460TIP3    H125337   3.727   6.635   0.739
 8460TIP3    H225338   3.746   6.575   0.601
 8461TIP3   OH225339   3.571   7.390   6.555
 8461TIP3    H125340   3.563   7.306   6.510
 8461TIP3    H225341   3.482   7.411   6.583
 8462TIP3   OH225342   1.335   4.834   1.176
 8462TIP3    H125343   1.282   4.881   1.240
 8462TIP3    H225344   1.398   4.785   1.228
 8463TIP3   OH225345   0.516   5.783   2.843
 8463TIP3    H125346   0.458   5.858   2.852
 8463TIP3    H225347   0.543   5.785   2.751
 8464TIP3   OH225348   6.061   6.963   5.786
 8464TIP3    H125349   5.987   6.960   5.725
 8464TIP3    H225350   6.022   6.985   5.870
 8465TIP3   OH225351   3.391   5.148   5.278
 8465TIP3    H125352   3.425   5.220   5.225
 8465TIP3    H225353   3.335   5.191   5.342
 8466TIP3   OH225354   7.728   1.388   6.035
 8466TIP3    H125355   7.723   1.308   5.982
 8466TIP3    H225356   7.637   1.414   6.048
 8467TIP3   OH225357   3.292   2.216   4.896
 8467TIP3    H125358   3.209   2.207   4.849
 8467TIP3    H225359   3.288   2.147   4.963
 8468TIP3   OH225360   3.240   6.016   1.442
 8468TIP3    H125361   3.205   6.100   1.473
 8468TIP3    H225362   3.183   5.951   1.483
 8469TIP3   OH225363   5.347   6.688   6.419
 8469TIP3    H125364   5.394   6.646   6.347
 8469TIP3    H225365   5.267   6.722   6.380
 8470TIP3   OH225366   3.789   2.774   3.219
 8470TIP3    H125367   3.797   2.706   3.286
 8470TIP3    H225368   3.791   2.727   3.136
 8471TIP3   OH225369   1.641   2.556   0.810
 8471TIP3    H125370   1.723   2.510   0.794
 8471TIP3    H225371   1.597   2.560   0.725
 8472TIP3   OH225372   3.535   3.091   0.432
 8472TIP3    H125373   3.495   3.140   0.360
 8472TIP3    H225374   3.519   2.999   0.411
 8473TIP3   OH225375   5.929   3.489   1.042
 8473TIP3    H125376   5.970   3.507   1.127
 8473TIP3    H225377   5.998   3.446   0.991
 8474TIP3   OH225378   4.994   2.281   4.493
 8474TIP3    H125379   4.950   2.289   4.578
 8474TIP3    H225380   4.970   2.361   4.446
 8475TIP3   OH225381   2.287   4.807   1.082
 8475TIP3    H125382   2.257   4.822   1.172
 8475TIP3    H225383   2.299   4.712   1.076
 8476TIP3   OH225384   6.969   1.158   0.546
 8476TIP3    H125385   7.029   1.232   0.554
 8476TIP3    H225386   7.014   1.085   0.588
 8477TIP3   OH225387   6.101   4.769   1.083
 8477TIP3    H125388   6.049   4.694   1.055
 8477TIP3    H225389   6.079   4.838   1.020
 8478TIP3   OH225390   1.682   7.047   3.443
 8478TIP3    H125391   1.738   7.020   3.516
 8478TIP3    H225392   1.674   7.142   3.452
 8479TIP3   OH225393   6.408   2.709   4.589
 8479TIP3    H125394   6.390   2.647   4.518
 8479TIP3    H225395   6.368   2.669   4.666
 8480TIP3   OH225396   1.307   1.584   0.727
 8480TIP3    H125397   1.329   1.512   0.787
 8480TIP3    H225398   1.212   1.589   0.729
 8481TIP3   OH225399   4.140   4.205   1.651
 8481TIP3    H125400   4.194   4.189   1.573
 8481TIP3    H225401   4.122   4.299   1.649
 8482TIP3   OH225402   5.777   0.806   4.372
 8482TIP3    H125403   5.797   0.747   4.299
 8482TIP3    H225404   5.812   0.890   4.344
 8483TIP3   OH225405   5.636   4.564   0.808
 8483TIP3    H125406   5.585   4.530   0.882
 8483TIP3    H225407   5.712   4.506   0.803
 8484TIP3   OH225408   0.668   2.808   3.427
 8484TIP3    H125409   0.637   2.763   3.349
 8484TIP3    H225410   0.729   2.874   3.395
 8485TIP3   OH225411   4.563   0.990   5.383
 8485TIP3    H125412   4.551   1.077   5.418
 8485TIP3    H225413   4.605   1.004   5.298
 8486TIP3   OH225414   8.232   3.053   4.491
 8486TIP3    H125415   8.218   3.116   4.562
 8486TIP3    H225416   8.160   2.989   4.501
 8487TIP3   OH225417   5.606   0.803   3.303
 8487TIP3    H125418   5.528   0.824   3.355
 8487TIP3    H225419   5.571   0.774   3.219
 8488TIP3   OH225420   6.004   2.895   1.649
 8488TIP3    H125421   5.944   2.967   1.628
 8488TIP3    H225422   6.089   2.937   1.661
 8489TIP3   OH225423   1.139   5.040   3.316
 8489TIP3    H125424   1.087   5.109   3.358
 8489TIP3    H225425   1.111   4.959   3.359
 8490TIP3   OH225426   7.556   6.938   0.175
 8490TIP3    H125427   7.625   6.892   0.223
 8490TIP3    H225428   7.543   7.019   0.224
 8491TIP3   OH225429   6.269   0.541   5.498
 8491TIP3    H125430   6.208   0.480   5.539
 8491TIP3    H225431   6.216   0.619   5.478
 8492TIP3   OH225432   7.979   6.630   5.064
 8492TIP3    H125433   7.998   6.642   5.157
 8492TIP3    H225434   7.917   6.558   5.061
 8493TIP3   OH225435   5.129   6.238   3.071
 8493TIP3    H125436   5.152   6.213   3.160
 8493TIP3    H225437   5.040   6.205   3.059
 8494TIP3   OH225438  -0.047   5.666   4.875
 8494TIP3    H125439  -0.031   5.597   4.811
 8494TIP3    H225440   0.038   5.707   4.887
 8495TIP3   OH225441   4.710   7.047   3.611
 8495TIP3    H125442   4.666   7.095   3.681
 8495TIP3    H225443   4.784   7.003   3.654
 8496TIP3   OH225444   5.707   6.330   4.666
 8496TIP3    H125445   5.635   6.359   4.610
 8496TIP3    H225446   5.664   6.286   4.739
 8497TIP3   OH225447   0.275   6.828   1.918
 8497TIP3    H125448   0.206   6.790   1.864
 8497TIP3    H225449   0.237   6.831   2.006
 8498TIP3   OH225450   7.677   7.436   5.469
 8498TIP3    H125451   7.595   7.389   5.478
 8498TIP3    H225452   7.662   7.521   5.510
 8499TIP3   OH225453   5.398   7.265   3.418
 8499TIP3    H125454   5.418   7.212   3.495
 8499TIP3    H225455   5.387   7.354   3.452
 8500TIP3   OH225456   7.289   5.715   3.924
 8500TIP3    H125457   7.255   5.632   3.891
 8500TIP3    H225458   7.228   5.781   3.891
 8501TIP3   OH225459   5.258   4.430   6.680
 8501TIP3    H125460   5.353   4.423   6.666
 8501TIP3    H225461   5.222   4.441   6.593
 8502TIP3   OH225462   1.873   6.794   2.618
 8502TIP3    H125463   1.820   6.819   2.693
 8502TIP3    H225464   1.822   6.727   2.573
 8503TIP3   OH225465   5.945   7.271   0.410
 8503TIP3    H125466   5.916   7.227   0.330
 8503TIP3    H225467   5.932   7.364   0.392
 8504TIP3   OH225468   2.058   6.142   5.820
 8504TIP3    H125469   2.119   6.131   5.892
 8504TIP3    H225470   2.029   6.054   5.798
 8505TIP3   OH225471   8.067   4.064   5.766
 8505TIP3    H125472   8.022   4.014   5.835
 8505TIP3    H225473   8.150   4.090   5.806
 8506TIP3   OH225474   7.638   1.356   1.468
 8506TIP3    H125475   7.587   1.371   1.388
 8506TIP3    H225476   7.576   1.313   1.527
 8507TIP3   OH225477   2.615   0.050   3.511
 8507TIP3    H125478   2.695   0.003   3.536
 8507TIP3    H225479   2.550   0.022   3.576
 8508TIP3   OH225480   0.502   7.746   0.678
 8508TIP3    H125481   0.507   7.795   0.760
 8508TIP3    H225482   0.485   7.812   0.611
 8509TIP3   OH225483   3.647   6.830   2.828
 8509TIP3    H125484   3.587   6.888   2.781
 8509TIP3    H225485   3.680   6.883   2.901
 8510TIP3   OH225486   7.239   6.100   6.468
 8510TIP3    H125487   7.198   6.083   6.552
 8510TIP3    H225488   7.167   6.098   6.405
 8511TIP3   OH225489   0.218   4.459   1.539
 8511TIP3    H125490   0.238   4.367   1.556
 8511TIP3    H225491   0.298   4.505   1.563
 8512TIP3   OH225492   7.942   1.166   4.139
 8512TIP3    H125493   8.032   1.173   4.171
 8512TIP3    H225494   7.942   1.085   4.088
 8513TIP3   OH225495   2.176   6.685   0.210
 8513TIP3    H125496   2.254   6.689   0.265
 8513TIP3    H225497   2.141   6.597   0.224
 8514TIP3   OH225498   4.768   1.324   1.519
 8514TIP3    H125499   4.785   1.408   1.478
 8514TIP3    H225500   4.694   1.342   1.579
 8515TIP3   OH225501   1.918   1.977   2.847
 8515TIP3    H125502   1.947   1.995   2.758
 8515TIP3    H225503   1.849   1.911   2.836
 8516TIP3   OH225504   8.044   6.005   5.836
 8516TIP3    H125505   7.963   5.981   5.791
 8516TIP3    H225506   8.112   5.951   5.794
 8517TIP3   OH225507   4.932   6.735   1.767
 8517TIP3    H125508   4.967   6.824   1.759
 8517TIP3    H225509   4.867   6.728   1.697
 8518TIP3   OH225510   5.241   7.612   6.285
 8518TIP3    H125511   5.312   7.649   6.338
 8518TIP3    H225512   5.170   7.598   6.347
 8519TIP3   OH225513   4.576   1.088   3.609
 8519TIP3    H125514   4.523   1.015   3.641
 8519TIP3    H225515   4.592   1.067   3.517
 8520TIP3   OH225516   1.922   0.882   0.742
 8520TIP3    H125517   1.830   0.872   0.716
 8520TIP3    H225518   1.945   0.970   0.715
 8521TIP3   OH225519   7.070   3.276   0.931
 8521TIP3    H125520   7.055   3.189   0.968
 8521TIP3    H225521   6.982   3.311   0.917
 8522TIP3   OH225522   2.254   5.117   0.820
 8522TIP3    H125523   2.173   5.081   0.856
 8522TIP3    H225524   2.246   5.104   0.726
 8523TIP3   OH225525   2.158   4.387   1.467
 8523TIP3    H125526   2.240   4.337   1.463
 8523TIP3    H225527   2.179   4.465   1.519
 8524TIP3   OH225528   0.618   7.346   2.024
 8524TIP3    H125529   0.676   7.272   2.008
 8524TIP3    H225530   0.581   7.330   2.111
 8525TIP3   OH225531   3.145   3.148   6.591
 8525TIP3    H125532   3.139   3.061   6.553
 8525TIP3    H225533   3.220   3.144   6.650
 8526TIP3   OH225534   0.151   2.837   1.614
 8526TIP3    H125535   0.162   2.896   1.689
 8526TIP3    H225536   0.095   2.886   1.553
 8527TIP3   OH225537   6.539   5.023   4.331
 8527TIP3    H125538   6.581   5.043   4.247
 8527TIP3    H225539   6.612   5.009   4.392
 8528TIP3   OH225540   2.118   6.051   0.768
 8528TIP3    H125541   2.032   6.077   0.736
 8528TIP3    H225542   2.180   6.110   0.725
 8529TIP3   OH225543   0.153   4.089   4.024
 8529TIP3    H125544   0.215   4.025   3.990
 8529TIP3    H225545   0.068   4.044   4.020
 8530TIP3   OH225546   6.059   0.815   0.268
 8530TIP3    H125547   6.143   0.799   0.223
 8530TIP3    H225548   6.073   0.896   0.316
 8531TIP3   OH225549   4.449   6.892   1.497
 8531TIP3    H125550   4.448   6.851   1.584
 8531TIP3    H225551   4.360   6.881   1.464
 8532TIP3   OH225552   8.067   5.989   1.671
 8532TIP3    H125553   8.156   5.955   1.664
 8532TIP3    H225554   8.078   6.084   1.677
 8533TIP3   OH225555   4.401   6.504   5.031
 8533TIP3    H125556   4.381   6.577   4.971
 8533TIP3    H225557   4.392   6.426   4.976
 8534TIP3   OH225558   4.741   4.066   3.629
 8534TIP3    H125559   4.785   4.001   3.685
 8534TIP3    H225560   4.764   4.150   3.667
 8535TIP3   OH225561   2.431   5.245   3.678
 8535TIP3    H125562   2.439   5.152   3.703
 8535TIP3    H225563   2.337   5.263   3.682
 8536TIP3   OH225564   4.188   5.820   5.714
 8536TIP3    H125565   4.119   5.851   5.655
 8536TIP3    H225566   4.143   5.763   5.776
 8537TIP3   OH225567   5.600   3.258   4.731
 8537TIP3    H125568   5.551   3.290   4.807
 8537TIP3    H225569   5.644   3.335   4.696
 8538TIP3   OH225570   4.061   5.615   5.893
 8538TIP3    H125571   4.069   5.525   5.922
 8538TIP3    H225572   3.966   5.630   5.889
 8539TIP3   OH225573   2.541   2.936   2.321
 8539TIP3    H125574   2.564   3.029   2.320
 8539TIP3    H225575   2.617   2.892   2.283
 8540TIP3   OH225576   2.821   5.488   0.311
 8540TIP3    H125577   2.903   5.535   0.328
 8540TIP3    H225578   2.800   5.510   0.220
 8541TIP3   OH225579   0.933   0.741   2.356
 8541TIP3    H125580   0.918   0.760   2.448
 8541TIP3    H225581   1.019   0.779   2.337
 8542TIP3   OH225582   6.853   4.639   1.572
 8542TIP3    H125583   6.775   4.585   1.563
 8542TIP3    H225584   6.918   4.581   1.613
 8543TIP3   OH225585   2.461   1.665   0.785
 8543TIP3    H125586   2.440   1.656   0.692
 8543TIP3    H225587   2.494   1.579   0.811
 8544TIP3   OH225588   0.616   4.476   4.819
 8544TIP3    H125589   0.693   4.526   4.792
 8544TIP3    H225590   0.558   4.541   4.859
 8545TIP3   OH225591   5.159   4.091   2.805
 8545TIP3    H125592   5.179   4.184   2.803
 8545TIP3    H225593   5.203   4.058   2.883
 8546TIP3   OH225594   2.703   4.689   4.350
 8546TIP3    H125595   2.718   4.614   4.293
 8546TIP3    H225596   2.699   4.653   4.438
 8547TIP3   OH225597   3.639   3.484   4.499
 8547TIP3    H125598   3.612   3.437   4.420
 8547TIP3    H225599   3.561   3.531   4.528
 8548TIP3   OH225600   7.948   6.157   3.376
 8548TIP3    H125601   7.891   6.158   3.299
 8548TIP3    H225602   7.989   6.071   3.376
 8549TIP3   OH225603   2.016   1.922   3.549
 8549TIP3    H125604   2.019   1.829   3.573
 8549TIP3    H225605   2.100   1.937   3.506
 8550TIP3   OH225606   6.287   4.485   4.369
 8550TIP3    H125607   6.318   4.507   4.282
 8550TIP3    H225608   6.361   4.507   4.427
 8551TIP3   OH225609   4.887   4.494   5.577
 8551TIP3    H125610   4.896   4.436   5.653
 8551TIP3    H225611   4.843   4.440   5.511
 8552TIP3   OH225612   2.548   3.227   2.335
 8552TIP3    H125613   2.595   3.289   2.280
 8552TIP3    H225614   2.458   3.229   2.303
 8553TIP3   OH225615   3.013   2.380   0.492
 8553TIP3    H125616   3.102   2.350   0.473
 8553TIP3    H225617   2.992   2.439   0.420
 8554TIP3   OH225618   2.547   6.961   4.905
 8554TIP3    H125619   2.572   6.912   4.983
 8554TIP3    H225620   2.503   7.039   4.937
 8555TIP3   OH225621   7.789   7.821   2.136
 8555TIP3    H125622   7.805   7.810   2.230
 8555TIP3    H225623   7.820   7.909   2.117
 8556TIP3   OH225624   0.705   5.585   5.506
 8556TIP3    H125625   0.749   5.500   5.497
 8556TIP3    H225626   0.754   5.643   5.447
 8557TIP3   OH225627   1.956   6.896   3.257
 8557TIP3    H125628   1.979   6.848   3.177
 8557TIP3    H225629   1.923   6.829   3.317
 8558TIP3   OH225630   3.157   3.930   6.625
 8558TIP3    H125631   3.200   3.905   6.543
 8558TIP3    H225632   3.109   3.851   6.651
 8559TIP3   OH225633   1.215   0.300   4.012
 8559TIP3    H125634   1.124   0.300   3.984
 8559TIP3    H225635   1.223   0.376   4.070
 8560TIP3   OH225636   3.833   5.953   2.395
 8560TIP3    H125637   3.851   5.987   2.307
 8560TIP3    H225638   3.886   6.007   2.453
 8561TIP3   OH225639   3.470   5.715   1.203
 8561TIP3    H125640   3.526   5.769   1.258
 8561TIP3    H225641   3.456   5.635   1.254
 8562TIP3   OH225642   0.393   4.628   5.189
 8562TIP3    H125643   0.338   4.706   5.187
 8562TIP3    H225644   0.344   4.566   5.243
 8563TIP3   OH225645   4.458   1.138   3.138
 8563TIP3    H125646   4.466   1.113   3.046
 8563TIP3    H225647   4.369   1.174   3.145
 8564TIP3   OH225648   0.512   7.538   1.383
 8564TIP3    H125649   0.587   7.510   1.331
 8564TIP3    H225650   0.490   7.625   1.349
 8565TIP3   OH225651   0.480   3.807   3.763
 8565TIP3    H125652   0.507   3.895   3.737
 8565TIP3    H225653   0.481   3.757   3.682
 8566TIP3   OH225654   4.938   0.616   5.664
 8566TIP3    H125655   4.988   0.697   5.670
 8566TIP3    H225656   4.849   0.640   5.691
 8567TIP3   OH225657   6.415   1.347   3.184
 8567TIP3    H125658   6.412   1.373   3.092
 8567TIP3    H225659   6.494   1.388   3.218
 8568TIP3   OH225660   8.168   7.015   4.268
 8568TIP3    H125661   8.097   7.016   4.204
 8568TIP3    H225662   8.133   6.963   4.341
 8569TIP3   OH225663   2.868   0.392   4.254
 8569TIP3    H125664   2.906   0.467   4.301
 8569TIP3    H225665   2.785   0.376   4.298
 8570TIP3   OH225666   3.750   7.173   6.166
 8570TIP3    H125667   3.823   7.192   6.226
 8570TIP3    H225668   3.769   7.086   6.132
 8571TIP3   OH225669   6.785   4.552   2.918
 8571TIP3    H125670   6.869   4.562   2.874
 8571TIP3    H225671   6.797   4.477   2.976
 8572TIP3   OH225672   5.530   5.754   1.686
 8572TIP3    H125673   5.589   5.761   1.611
 8572TIP3    H225674   5.449   5.796   1.658
 8573TIP3   OH225675   1.100   0.195   3.605
 8573TIP3    H125676   1.177   0.160   3.561
 8573TIP3    H225677   1.034   0.202   3.536
 8574TIP3   OH225678   6.997   4.719   4.213
 8574TIP3    H125679   7.005   4.624   4.202
 8574TIP3    H225680   7.085   4.752   4.199
 8575TIP3   OH225681   3.154   2.222   6.208
 8575TIP3    H125682   3.162   2.239   6.115
 8575TIP3    H225683   3.201   2.140   6.222
 8576TIP3   OH225684   0.667   4.404   4.364
 8576TIP3    H125685   0.596   4.433   4.307
 8576TIP3    H225686   0.645   4.313   4.385
 8577TIP3   OH225687   3.008   7.179   1.996
 8577TIP3    H125688   3.043   7.090   2.000
 8577TIP3    H225689   3.074   7.232   2.041
 8578TIP3   OH225690   4.424   4.079   4.990
 8578TIP3    H125691   4.383   4.086   5.076
 8578TIP3    H225692   4.482   4.155   4.984
 8579TIP3   OH225693   4.770   3.402   4.134
 8579TIP3    H125694   4.737   3.465   4.198
 8579TIP3    H225695   4.779   3.320   4.184
 8580TIP3   OH225696   6.680   7.369   4.337
 8580TIP3    H125697   6.644   7.330   4.258
 8580TIP3    H225698   6.677   7.463   4.321
 8581TIP3   OH225699   6.210   3.139   1.192
 8581TIP3    H125700   6.143   3.149   1.259
 8581TIP3    H225701   6.286   3.104   1.238
 8582TIP3   OH225702   0.060   7.066   3.679
 8582TIP3    H125703   0.079   6.981   3.639
 8582TIP3    H225704   0.114   7.128   3.630
 8583TIP3   OH225705   7.618   4.574   3.248
 8583TIP3    H125706   7.642   4.663   3.274
 8583TIP3    H225707   7.604   4.528   3.331
 8584TIP3   OH225708   0.940   4.472   4.285
 8584TIP3    H125709   0.851   4.441   4.302
 8584TIP3    H225710   0.932   4.567   4.279
 8585TIP3   OH225711   7.651   1.992   5.370
 8585TIP3    H125712   7.671   1.921   5.308
 8585TIP3    H225713   7.630   2.067   5.314
 8586TIP3   OH225714   5.624   1.398   3.495
 8586TIP3    H125715   5.690   1.467   3.488
 8586TIP3    H225716   5.578   1.400   3.411
 8587TIP3   OH225717   4.673   2.793   0.672
 8587TIP3    H125718   4.757   2.751   0.692
 8587TIP3    H225719   4.690   2.887   0.682
 8588TIP3   OH225720   7.286   3.087   1.298
 8588TIP3    H125721   7.300   3.013   1.357
 8588TIP3    H225722   7.193   3.107   1.306
 8589TIP3   OH225723   7.912   4.781   3.719
 8589TIP3    H125724   7.883   4.692   3.697
 8589TIP3    H225725   7.984   4.798   3.659
 8590TIP3   OH225726   0.176   1.532   1.287
 8590TIP3    H125727   0.265   1.566   1.284
 8590TIP3    H225728   0.144   1.542   1.197
 8591TIP3   OH225729   7.899   1.135   2.989
 8591TIP3    H125730   7.818   1.100   2.953
 8591TIP3    H225731   7.926   1.203   2.928
 8592TIP3   OH225732   6.379   2.641   4.319
 8592TIP3    H125733   6.298   2.592   4.304
 8592TIP3    H225734   6.402   2.675   4.232
 8593TIP3   OH225735   6.898   1.121   5.531
 8593TIP3    H125736   6.973   1.157   5.484
 8593TIP3    H225737   6.919   1.029   5.543
 8594TIP3   OH225738   3.772   1.316   1.914
 8594TIP3    H125739   3.811   1.316   2.002
 8594TIP3    H225740   3.792   1.402   1.878
 8595TIP3   OH225741   7.190   7.709   3.978
 8595TIP3    H125742   7.122   7.677   3.919
 8595TIP3    H225743   7.238   7.773   3.927
 8596TIP3   OH225744   7.501   1.865   1.691
 8596TIP3    H125745   7.512   1.856   1.786
 8596TIP3    H225746   7.409   1.847   1.675
 8597TIP3   OH225747   6.667   7.532   2.812
 8597TIP3    H125748   6.731   7.559   2.746
 8597TIP3    H225749   6.596   7.493   2.761
 8598TIP3   OH225750   7.201   4.922   4.151
 8598TIP3    H125751   7.201   4.932   4.246
 8598TIP3    H225752   7.149   4.995   4.119
 8599TIP3   OH225753   3.872   1.610   2.508
 8599TIP3    H125754   3.903   1.564   2.430
 8599TIP3    H225755   3.916   1.695   2.505
 8600TIP3   OH225756   7.000   3.142   1.485
 8600TIP3    H125757   6.965   3.054   1.478
 8600TIP3    H225758   6.973   3.185   1.404
 8601TIP3   OH225759   4.697   3.367   0.952
 8601TIP3    H125760   4.623   3.323   0.994
 8601TIP3    H225761   4.769   3.304   0.956
 8602TIP3   OH225762   7.040   7.748   3.298
 8602TIP3    H125763   7.133   7.732   3.311
 8602TIP3    H225764   6.996   7.681   3.350
 8603TIP3   OH225765   4.151   1.920   3.581
 8603TIP3    H125766   4.143   1.887   3.492
 8603TIP3    H225767   4.064   1.952   3.604
 8604TIP3   OH225768   4.840   2.533   0.354
 8604TIP3    H125769   4.898   2.608   0.343
 8604TIP3    H225770   4.835   2.493   0.267
 8605TIP3   OH225771   8.230   5.137   3.964
 8605TIP3    H125772   8.301   5.187   4.005
 8605TIP3    H225773   8.275   5.074   3.908
 8606TIP3   OH225774   0.901   2.491   4.843
 8606TIP3    H125775   0.858   2.465   4.925
 8606TIP3    H225776   0.946   2.411   4.813
 8607TIP3   OH225777   3.577   3.178   3.896
 8607TIP3    H125778   3.546   3.118   3.828
 8607TIP3    H225779   3.532   3.261   3.877
 8608TIP3   OH225780   1.101   1.057   4.618
 8608TIP3    H125781   1.129   1.116   4.688
 8608TIP3    H225782   1.096   1.113   4.540
 8609TIP3   OH225783   7.588   7.150   4.222
 8609TIP3    H125784   7.528   7.218   4.195
 8609TIP3    H225785   7.661   7.197   4.262
 8610TIP3   OH225786   6.100   3.468   4.574
 8610TIP3    H125787   6.192   3.459   4.600
 8610TIP3    H225788   6.103   3.474   4.479
 8611TIP3   OH225789   4.442   0.932   2.644
 8611TIP3    H125790   4.480   0.974   2.566
 8611TIP3    H225791   4.354   0.970   2.650
 8612TIP3   OH225792   7.082   2.337   0.487
 8612TIP3    H125793   7.160   2.376   0.449
 8612TIP3    H225794   7.009   2.377   0.438
 8613TIP3   OH225795   4.304   0.680   4.273
 8613TIP3    H125796   4.313   0.704   4.365
 8613TIP3    H225797   4.238   0.611   4.272
 8614TIP3   OH225798   6.882   3.752   3.599
 8614TIP3    H125799   6.869   3.664   3.634
 8614TIP3    H225800   6.977   3.763   3.598
 8615TIP3   OH225801   4.361   1.033   2.133
 8615TIP3    H125802   4.430   1.071   2.077
 8615TIP3    H225803   4.388   1.055   2.222
 8616TIP3   OH225804   3.125   0.103   4.498
 8616TIP3    H125805   3.148   0.185   4.454
 8616TIP3    H225806   3.131   0.123   4.591
 8617TIP3   OH225807   2.670   1.223   3.741
 8617TIP3    H125808   2.703   1.267   3.820
 8617TIP3    H225809   2.608   1.157   3.775
 8618TIP3   OH225810   2.416   4.425   0.821
 8618TIP3    H125811   2.337   4.418   0.768
 8618TIP3    H225812   2.389   4.471   0.900
 8619TIP3   OH225813   3.057   2.884   4.322
 8619TIP3    H125814   3.056   2.803   4.271
 8619TIP3    H225815   3.098   2.949   4.264
 8620TIP3   OH225816   4.406   6.239   1.293
 8620TIP3    H125817   4.394   6.316   1.348
 8620TIP3    H225818   4.341   6.176   1.325
 8621TIP3   OH225819   4.741   5.672   2.133
 8621TIP3    H125820   4.816   5.679   2.073
 8621TIP3    H225821   4.731   5.577   2.146
 8622TIP3   OH225822   0.618   1.556   4.983
 8622TIP3    H125823   0.650   1.485   5.038
 8622TIP3    H225824   0.697   1.601   4.953
 8623TIP3   OH225825   8.066   4.356   6.649
 8623TIP3    H125826   8.062   4.280   6.591
 8623TIP3    H225827   8.012   4.422   6.606
 8624TIP3   OH225828   2.273   5.332   4.640
 8624TIP3    H125829   2.329   5.376   4.576
 8624TIP3    H225830   2.293   5.239   4.629
 8625TIP3   OH225831   6.231   5.280   5.388
 8625TIP3    H125832   6.164   5.302   5.452
 8625TIP3    H225833   6.295   5.351   5.395
 8626TIP3   OH225834   8.071   7.471   4.690
 8626TIP3    H125835   8.125   7.510   4.621
 8626TIP3    H225836   7.981   7.487   4.661
 8627TIP3   OH225837   3.069   4.490   2.484
 8627TIP3    H125838   3.089   4.462   2.394
 8627TIP3    H225839   3.069   4.585   2.480
 8628TIP3   OH225840   4.009   7.609   6.337
 8628TIP3    H125841   3.979   7.519   6.328
 8628TIP3    H225842   4.011   7.642   6.247
 8629TIP3   OH225843   0.458   3.943   4.234
 8629TIP3    H125844   0.416   3.878   4.291
 8629TIP3    H225845   0.432   3.919   4.146
 8630TIP3   OH225846   2.920   5.214   1.996
 8630TIP3    H125847   2.924   5.264   2.078
 8630TIP3    H225848   2.967   5.268   1.932
 8631TIP3   OH225849   0.787   1.918   4.497
 8631TIP3    H125850   0.866   1.966   4.471
 8631TIP3    H225851   0.723   1.939   4.430
 8632TIP3   OH225852   4.172   1.162   6.195
 8632TIP3    H125853   4.078   1.175   6.197
 8632TIP3    H225854   4.183   1.068   6.181
 8633TIP3   OH225855   1.116   2.755   3.741
 8633TIP3    H125856   1.066   2.691   3.792
 8633TIP3    H225857   1.154   2.704   3.670
 8634TIP3   OH225858   2.459   1.783   1.359
 8634TIP3    H125859   2.437   1.764   1.267
 8634TIP3    H225860   2.542   1.736   1.373
 8635TIP3   OH225861   8.281   7.725   4.013
 8635TIP3    H125862   8.337   7.765   4.079
 8635TIP3    H225863   8.210   7.788   4.000
 8636TIP3   OH225864   0.389   2.547   5.216
 8636TIP3    H125865   0.404   2.508   5.130
 8636TIP3    H225866   0.314   2.605   5.203
 8637TIP3   OH225867   5.154   3.086   2.439
 8637TIP3    H125868   5.140   3.072   2.533
 8637TIP3    H225869   5.147   2.998   2.401
 8638TIP3   OH225870   5.480   3.510   1.048
 8638TIP3    H125871   5.562   3.464   1.026
 8638TIP3    H225872   5.413   3.442   1.046
 8639TIP3   OH225873   0.570   1.929   6.510
 8639TIP3    H125874   0.641   1.931   6.446
 8639TIP3    H225875   0.498   1.976   6.468
 8640TIP3   OH225876   1.306   2.466   1.402
 8640TIP3    H125877   1.235   2.404   1.386
 8640TIP3    H225878   1.384   2.411   1.415
 8641TIP3   OH225879   1.894   3.337   2.468
 8641TIP3    H125880   1.971   3.295   2.507
 8641TIP3    H225881   1.930   3.412   2.421
 8642TIP3   OH225882   1.449   6.565   5.992
 8642TIP3    H125883   1.514   6.500   6.015
 8642TIP3    H225884   1.423   6.543   5.902
 8643TIP3   OH225885   0.360   7.671   6.033
 8643TIP3    H125886   0.360   7.637   5.944
 8643TIP3    H225887   0.276   7.641   6.069
 8644TIP3   OH225888   0.476   5.667   2.571
 8644TIP3    H125889   0.472   5.679   2.476
 8644TIP3    H225890   0.548   5.605   2.584
 8645TIP3   OH225891   0.009   1.445   5.088
 8645TIP3    H125892  -0.061   1.493   5.043
 8645TIP3    H225893   0.083   1.448   5.028
 8646TIP3   OH225894   8.057   2.850   4.608
 8646TIP3    H125895   8.042   2.823   4.517
 8646TIP3    H225896   8.142   2.813   4.630
 8647TIP3   OH225897   2.558   4.539   6.254
 8647TIP3    H125898   2.572   4.629   6.283
 8647TIP3    H225899   2.646   4.501   6.253
 8648TIP3   OH225900   1.934   1.896   5.873
 8648TIP3    H125901   1.953   1.925   5.784
 8648TIP3    H225902   1.890   1.812   5.862
 8649TIP3   OH225903   4.162   4.464   3.607
 8649TIP3    H125904   4.248   4.457   3.565
 8649TIP3    H225905   4.169   4.408   3.684
 8650TIP3   OH225906   2.500   3.098   5.937
 8650TIP3    H125907   2.497   3.053   6.022
 8650TIP3    H225908   2.582   3.070   5.898
 8651TIP3   OH225909   1.209   5.253   2.076
 8651TIP3    H125910   1.268   5.203   2.020
 8651TIP3    H225911   1.254   5.261   2.159
 8652TIP3   OH225912   1.616   7.153   3.151
 8652TIP3    H125913   1.607   7.067   3.112
 8652TIP3    H225914   1.601   7.139   3.245
 8653TIP3   OH225915   0.133   0.969   4.181
 8653TIP3    H125916   0.095   0.995   4.096
 8653TIP3    H225917   0.226   0.990   4.173
 8654TIP3   OH225918   7.587   3.718   3.201
 8654TIP3    H125919   7.505   3.670   3.196
 8654TIP3    H225920   7.617   3.722   3.110
 8655TIP3   OH225921   0.679   1.034   6.060
 8655TIP3    H125922   0.771   1.009   6.067
 8655TIP3    H225923   0.661   1.086   6.139
 8656TIP3   OH225924   1.613   0.314   1.310
 8656TIP3    H125925   1.533   0.360   1.286
 8656TIP3    H225926   1.583   0.231   1.347
 8657TIP3   OH225927   8.315   2.743   1.001
 8657TIP3    H125928   8.339   2.725   0.910
 8657TIP3    H225929   8.258   2.820   0.996
 8658TIP3   OH225930   6.048   3.373   2.894
 8658TIP3    H125931   6.056   3.424   2.974
 8658TIP3    H225932   6.139   3.359   2.866
 8659TIP3   OH225933   3.213   3.444   2.618
 8659TIP3    H125934   3.224   3.379   2.687
 8659TIP3    H225935   3.170   3.518   2.660
 8660TIP3   OH225936   5.670   6.840   2.712
 8660TIP3    H125937   5.759   6.833   2.678
 8660TIP3    H225938   5.617   6.788   2.651
 8661TIP3   OH225939   6.459   6.724   2.115
 8661TIP3    H125940   6.412   6.744   2.034
 8661TIP3    H225941   6.545   6.765   2.103
 8662TIP3   OH225942   5.582   0.085   0.903
 8662TIP3    H125943   5.487   0.085   0.918
 8662TIP3    H225944   5.595   0.022   0.833
 8663TIP3   OH225945   3.099   5.602   3.584
 8663TIP3    H125946   3.017   5.573   3.543
 8663TIP3    H225947   3.116   5.539   3.653
 8664TIP3   OH225948   4.794   3.624   2.679
 8664TIP3    H125949   4.747   3.599   2.759
 8664TIP3    H225950   4.872   3.569   2.679
 8665TIP3   OH225951   0.256   0.999   4.892
 8665TIP3    H125952   0.169   0.975   4.923
 8665TIP3    H225953   0.290   0.919   4.853
 8666TIP3   OH225954   6.722   3.972   6.657
 8666TIP3    H125955   6.668   3.975   6.737
 8666TIP3    H225956   6.668   4.015   6.591
 8667TIP3   OH225957   5.841   2.070   1.521
 8667TIP3    H125958   5.798   2.017   1.588
 8667TIP3    H225959   5.814   2.160   1.540
 8668TIP3   OH225960   1.435   7.058   1.147
 8668TIP3    H125961   1.508   7.011   1.108
 8668TIP3    H225962   1.382   7.086   1.073
 8669TIP3   OH225963   6.368   0.580   2.671
 8669TIP3    H125964   6.391   0.505   2.725
 8669TIP3    H225965   6.423   0.651   2.704
 8670TIP3   OH225966   1.066   2.477   0.524
 8670TIP3    H125967   1.034   2.528   0.599
 8670TIP3    H225968   1.010   2.400   0.522
 8671TIP3   OH225969   2.131   7.075   4.977
 8671TIP3    H125970   2.154   6.996   5.027
 8671TIP3    H225971   2.055   7.111   5.022
 8672TIP3   OH225972   5.466   3.094   5.089
 8672TIP3    H125973   5.474   3.178   5.044
 8672TIP3    H225974   5.426   3.036   5.024
 8673TIP3   OH225975   2.995   0.099   0.848
 8673TIP3    H125976   3.042   0.155   0.786
 8673TIP3    H225977   3.019   0.010   0.822
 8674TIP3   OH225978   7.051   0.084   6.345
 8674TIP3    H125979   7.067   0.048   6.258
 8674TIP3    H225980   7.047   0.007   6.402
 8675TIP3   OH225981   4.026   1.653   0.887
 8675TIP3    H125982   4.005   1.714   0.816
 8675TIP3    H225983   4.113   1.619   0.865
 8676TIP3   OH225984   0.127   2.755   6.172
 8676TIP3    H125985   0.160   2.815   6.239
 8676TIP3    H225986   0.043   2.724   6.207
 8677TIP3   OH225987   2.700   3.140   3.050
 8677TIP3    H125988   2.725   3.209   3.112
 8677TIP3    H225989   2.626   3.176   3.002
 8678TIP3   OH225990   5.176   3.397   0.954
 8678TIP3    H125991   5.127   3.369   0.876
 8678TIP3    H225992   5.176   3.493   0.948
 8679TIP3   OH225993   0.009   2.897   5.691
 8679TIP3    H125994  -0.009   2.803   5.686
 8679TIP3    H225995   0.075   2.905   5.760
 8680TIP3   OH225996   5.131   2.812   6.110
 8680TIP3    H125997   5.098   2.889   6.064
 8680TIP3    H225998   5.140   2.840   6.201
 8681TIP3   OH225999   1.731   7.156   4.672
 8681TIP3    H126000   1.768   7.196   4.593
 8681TIP3    H226001   1.641   7.189   4.675
 8682TIP3   OH226002   0.105   3.270   3.840
 8682TIP3    H126003   0.060   3.330   3.899
 8682TIP3    H226004   0.049   3.263   3.763
 8683TIP3   OH226005   0.550   4.045   2.173
 8683TIP3    H126006   0.507   4.123   2.138
 8683TIP3    H226007   0.628   4.035   2.119
 8684TIP3   OH226008   0.752   3.742   5.322
 8684TIP3    H126009   0.734   3.652   5.295
 8684TIP3    H226010   0.749   3.792   5.240
 8685TIP3   OH226011   2.234   6.839   5.704
 8685TIP3    H126012   2.150   6.836   5.659
 8685TIP3    H226013   2.299   6.820   5.636
 8686TIP3   OH226014   4.174   2.385   0.416
 8686TIP3    H126015   4.096   2.434   0.443
 8686TIP3    H226016   4.236   2.396   0.489
 8687TIP3   OH226017   1.938   4.558   1.680
 8687TIP3    H126018   1.987   4.542   1.761
 8687TIP3    H226019   2.005   4.559   1.612
 8688TIP3   OH226020   5.518   4.806   1.530
 8688TIP3    H126021   5.526   4.856   1.449
 8688TIP3    H226022   5.552   4.865   1.597
 8689TIP3   OH226023   2.444   1.170   2.519
 8689TIP3    H126024   2.516   1.228   2.542
 8689TIP3    H226025   2.456   1.153   2.426
 8690TIP3   OH226026   4.549   7.148   1.671
 8690TIP3    H126027   4.466   7.142   1.622
 8690TIP3    H226028   4.616   7.121   1.608
 8691TIP3   OH226029   3.035   7.581   2.153
 8691TIP3    H126030   3.081   7.623   2.226
 8691TIP3    H226031   2.975   7.647   2.121
 8692TIP3   OH226032   4.570   1.984   2.117
 8692TIP3    H126033   4.551   1.956   2.028
 8692TIP3    H226034   4.636   1.921   2.148
 8693TIP3   OH226035   7.448   5.974   6.241
 8693TIP3    H126036   7.447   5.906   6.308
 8693TIP3    H226037   7.452   6.056   6.290
 8694TIP3   OH226038   3.245   7.431   0.604
 8694TIP3    H126039   3.164   7.472   0.634
 8694TIP3    H226040   3.299   7.426   0.682
 8695TIP3   OH226041   5.751   1.065   2.552
 8695TIP3    H126042   5.835   1.045   2.592
 8695TIP3    H226043   5.745   1.006   2.477
 8696TIP3   OH226044   2.124   1.028   0.036
 8696TIP3    H126045   2.058   0.961   0.056
 8696TIP3    H226046   2.145   1.068   0.121
 8697TIP3   OH226047   1.679   2.369   2.015
 8697TIP3    H126048   1.686   2.295   2.076
 8697TIP3    H226049   1.603   2.419   2.046
 8698TIP3   OH226050   1.471   4.373   1.843
 8698TIP3    H126051   1.393   4.394   1.792
 8698TIP3    H226052   1.541   4.423   1.801
 8699TIP3   OH226053   1.974   1.119   0.614
 8699TIP3    H126054   2.061   1.157   0.597
 8699TIP3    H226055   1.926   1.189   0.657
 8700TIP3   OH226056   4.158   7.611   4.908
 8700TIP3    H126057   4.221   7.607   4.837
 8700TIP3    H226058   4.113   7.695   4.896
 8701TIP3   OH226059   3.739   1.319   5.761
 8701TIP3    H126060   3.644   1.317   5.749
 8701TIP3    H226061   3.775   1.323   5.672
 8702TIP3   OH226062   3.188   5.539   3.263
 8702TIP3    H126063   3.138   5.620   3.271
 8702TIP3    H226064   3.130   5.479   3.215
 8703TIP3   OH226065   5.778   1.682   4.135
 8703TIP3    H126066   5.720   1.676   4.211
 8703TIP3    H226067   5.738   1.624   4.070
 8704TIP3   OH226068   0.561   2.988   5.800
 8704TIP3    H126069   0.610   3.069   5.786
 8704TIP3    H226070   0.628   2.922   5.816
 8705TIP3   OH226071   7.023   7.175   4.822
 8705TIP3    H126072   6.932   7.191   4.846
 8705TIP3    H226073   7.039   7.083   4.846
 8706TIP3   OH226074   4.837   3.497   4.913
 8706TIP3    H126075   4.895   3.565   4.945
 8706TIP3    H226076   4.757   3.543   4.887
 8707TIP3   OH226077   6.697   5.381   3.382
 8707TIP3    H126078   6.783   5.394   3.342
 8707TIP3    H226079   6.643   5.450   3.344
 8708TIP3   OH226080   3.200   5.128   5.872
 8708TIP3    H126081   3.153   5.179   5.806
 8708TIP3    H226082   3.188   5.037   5.844
 8709TIP3   OH226083   7.045   3.147   2.227
 8709TIP3    H126084   7.030   3.160   2.321
 8709TIP3    H226085   7.113   3.079   2.223
 8710TIP3   OH226086   5.135   0.126   3.763
 8710TIP3    H126087   5.150   0.216   3.793
 8710TIP3    H226088   5.043   0.124   3.737
 8711TIP3   OH226089   2.537   3.869   1.971
 8711TIP3    H126090   2.596   3.933   1.933
 8711TIP3    H226091   2.562   3.864   2.063
 8712TIP3   OH226092   8.025   0.767   3.039
 8712TIP3    H126093   8.050   0.748   3.129
 8712TIP3    H226094   8.011   0.680   2.999
 8713TIP3   OH226095   7.076   7.761   5.360
 8713TIP3    H126096   7.072   7.842   5.410
 8713TIP3    H226097   7.062   7.692   5.426
 8714TIP3   OH226098   7.440   3.679   0.782
 8714TIP3    H126099   7.491   3.618   0.729
 8714TIP3    H226100   7.445   3.762   0.735
 8715TIP3   OH226101   5.426   5.274   2.511
 8715TIP3    H126102   5.519   5.279   2.489
 8715TIP3    H226103   5.418   5.197   2.567
 8716TIP3   OH226104   0.686   2.213   6.358
 8716TIP3    H126105   0.752   2.278   6.335
 8716TIP3    H226106   0.707   2.188   6.448
 8717TIP3   OH226107   1.042   4.081   2.715
 8717TIP3    H126108   0.994   4.045   2.640
 8717TIP3    H226109   1.044   4.175   2.698
 8718TIP3   OH226110   5.433   1.549   0.601
 8718TIP3    H126111   5.397   1.638   0.605
 8718TIP3    H226112   5.392   1.503   0.675
 8719TIP3   OH226113   5.702   1.823   2.571
 8719TIP3    H126114   5.714   1.783   2.485
 8719TIP3    H226115   5.641   1.765   2.617
 8720TIP3   OH226116   3.466   1.605   0.598
 8720TIP3    H126117   3.442   1.533   0.657
 8720TIP3    H226118   3.547   1.576   0.557
 8721TIP3   OH226119   6.128   3.071   6.521
 8721TIP3    H126120   6.095   3.066   6.611
 8721TIP3    H226121   6.091   2.994   6.477
 8722TIP3   OH226122   2.750   1.504   2.998
 8722TIP3    H126123   2.708   1.588   2.983
 8722TIP3    H226124   2.813   1.521   3.069
 8723TIP3   OH226125   5.647   4.130   0.702
 8723TIP3    H126126   5.709   4.129   0.629
 8723TIP3    H226127   5.638   4.038   0.727
 8724TIP3   OH226128   4.931   0.770   0.574
 8724TIP3    H126129   4.920   0.748   0.482
 8724TIP3    H226130   4.879   0.850   0.586
 8725TIP3   OH226131   0.047   3.819   3.110
 8725TIP3    H126132   0.119   3.810   3.048
 8725TIP3    H226133  -0.031   3.830   3.055
 8726TIP3   OH226134   3.655   4.112   1.803
 8726TIP3    H126135   3.622   4.110   1.713
 8726TIP3    H226136   3.581   4.144   1.855
 8727TIP3   OH226137   5.395   0.522   2.177
 8727TIP3    H126138   5.365   0.606   2.210
 8727TIP3    H226139   5.315   0.479   2.145
 8728TIP3   OH226140   5.332   0.839   3.389
 8728TIP3    H126141   5.281   0.843   3.309
 8728TIP3    H226142   5.316   0.924   3.431
 8729TIP3   OH226143   3.053   0.986   2.727
 8729TIP3    H126144   3.025   0.896   2.743
 8729TIP3    H226145   2.975   1.032   2.698
 8730TIP3   OH226146   3.588   2.614   5.984
 8730TIP3    H126147   3.671   2.624   6.031
 8730TIP3    H226148   3.604   2.540   5.925
 8731TIP3   OH226149   7.921   2.603   5.269
 8731TIP3    H126150   7.964   2.574   5.189
 8731TIP3    H226151   7.839   2.553   5.272
 8732TIP3   OH226152   4.744   5.852   5.952
 8732TIP3    H126153   4.826   5.827   5.994
 8732TIP3    H226154   4.759   5.836   5.858
 8733TIP3   OH226155   6.002   2.513   6.312
 8733TIP3    H126156   6.052   2.505   6.393
 8733TIP3    H226157   5.914   2.535   6.341
 8734TIP3   OH226158   1.286   0.011   2.877
 8734TIP3    H126159   1.233   0.088   2.900
 8734TIP3    H226160   1.357   0.011   2.941
 8735TIP3   OH226161   1.878   3.737   3.728
 8735TIP3    H126162   1.783   3.742   3.734
 8735TIP3    H226163   1.900   3.650   3.762
 8736TIP3   OH226164   3.242   5.202   0.251
 8736TIP3    H126165   3.218   5.129   0.308
 8736TIP3    H226166   3.335   5.218   0.270
 8737TIP3   OH226167   6.508   1.147   2.304
 8737TIP3    H126168   6.544   1.176   2.220
 8737TIP3    H226169   6.477   1.227   2.345
 8738TIP3   OH226170   6.478   4.200   2.941
 8738TIP3    H126171   6.483   4.269   2.875
 8738TIP3    H226172   6.537   4.229   3.010
 8739TIP3   OH226173   6.538   6.207   3.184
 8739TIP3    H126174   6.611   6.269   3.191
 8739TIP3    H226175   6.460   6.261   3.201
 8740TIP3   OH226176   2.005   0.791   2.636
 8740TIP3    H126177   2.058   0.719   2.604
 8740TIP3    H226178   2.055   0.828   2.709
 8741TIP3   OH226179   1.979   2.279   4.272
 8741TIP3    H126180   1.975   2.368   4.238
 8741TIP3    H226181   1.910   2.232   4.224
 8742TIP3   OH226182   5.304   4.059   4.637
 8742TIP3    H126183   5.388   4.083   4.675
 8742TIP3    H226184   5.255   4.018   4.708
 8743TIP3   OH226185   7.340   3.940   1.436
 8743TIP3    H126186   7.253   3.903   1.457
 8743TIP3    H226187   7.359   3.999   1.509
 8744TIP3   OH226188   0.143   5.027   0.250
 8744TIP3    H126189   0.207   5.093   0.274
 8744TIP3    H226190   0.068   5.076   0.217
 8745TIP3   OH226191   1.270   1.839   2.479
 8745TIP3    H126192   1.227   1.753   2.480
 8745TIP3    H226193   1.252   1.875   2.565
 8746TIP3   OH226194   7.385   2.773   1.135
 8746TIP3    H126195   7.467   2.807   1.172
 8746TIP3    H226196   7.338   2.739   1.211
 8747TIP3   OH226197   3.856   7.504   5.503
 8747TIP3    H126198   3.775   7.502   5.453
 8747TIP3    H226199   3.895   7.590   5.482
 8748TIP3   OH226200   6.912   6.323   6.573
 8748TIP3    H126201   6.953   6.408   6.557
 8748TIP3    H226202   6.882   6.326   6.663
 8749TIP3   OH226203   1.121   0.344   4.416
 8749TIP3    H126204   1.124   0.276   4.484
 8749TIP3    H226205   1.070   0.305   4.346
 8750TIP3   OH226206   3.423   5.324   6.348
 8750TIP3    H126207   3.359   5.394   6.332
 8750TIP3    H226208   3.430   5.319   6.443
 8751TIP3   OH226209   5.956   5.154   4.979
 8751TIP3    H126210   5.963   5.163   5.074
 8751TIP3    H226211   5.902   5.228   4.953
 8752TIP3   OH226212   6.335   3.603   4.330
 8752TIP3    H126213   6.368   3.517   4.357
 8752TIP3    H226214   6.240   3.597   4.339
 8753TIP3   OH226215   1.136   6.479   2.177
 8753TIP3    H126216   1.146   6.386   2.197
 8753TIP3    H226217   1.076   6.512   2.244
 8754TIP3   OH226218   2.125   0.811   4.139
 8754TIP3    H126219   2.068   0.876   4.098
 8754TIP3    H226220   2.213   0.835   4.111
 8755TIP3   OH226221   5.941   1.832   0.820
 8755TIP3    H126222   6.011   1.799   0.877
 8755TIP3    H226223   5.987   1.879   0.750
 8756TIP3   OH226224   5.609   1.412   4.276
 8756TIP3    H126225   5.541   1.353   4.308
 8756TIP3    H226226   5.617   1.479   4.344
 8757TIP3   OH226227   5.101   5.571   1.019
 8757TIP3    H126228   5.193   5.589   0.999
 8757TIP3    H226229   5.059   5.657   1.016
 8758TIP3   OH226230   6.398   0.523   6.441
 8758TIP3    H126231   6.409   0.544   6.348
 8758TIP3    H226232   6.463   0.456   6.459
 8759TIP3   OH226233   1.096   5.696   1.580
 8759TIP3    H126234   1.179   5.737   1.554
 8759TIP3    H226235   1.030   5.742   1.528
 8760TIP3   OH226236   1.368   2.983   2.956
 8760TIP3    H126237   1.350   2.894   2.926
 8760TIP3    H226238   1.448   2.975   3.009
 8761TIP3   OH226239   0.999   7.010   5.159
 8761TIP3    H126240   0.938   6.969   5.098
 8761TIP3    H226241   1.026   7.091   5.116
 8762TIP3   OH226242   6.887   3.705   1.492
 8762TIP3    H126243   6.955   3.637   1.492
 8762TIP3    H226244   6.827   3.678   1.562
 8763TIP3   OH226245   4.132   3.105   4.659
 8763TIP3    H126246   4.206   3.144   4.705
 8763TIP3    H226247   4.164   3.089   4.570
 8764TIP3   OH226248   7.976   2.925   6.373
 8764TIP3    H126249   7.897   2.878   6.398
 8764TIP3    H226250   7.961   3.015   6.403
 8765TIP3   OH226251   3.026   4.267   3.018
 8765TIP3    H126252   3.018   4.248   2.925
 8765TIP3    H226253   2.940   4.246   3.055
 8766TIP3   OH226254   6.299   5.046   1.661
 8766TIP3    H126255   6.338   5.006   1.584
 8766TIP3    H226256   6.226   5.099   1.627
 8767TIP3   OH226257   0.248   7.020   2.964
 8767TIP3    H126258   0.157   7.001   2.940
 8767TIP3    H226259   0.241   7.078   3.039
 8768TIP3   OH226260   5.356   4.080   3.281
 8768TIP3    H126261   5.305   4.047   3.355
 8768TIP3    H226262   5.438   4.111   3.320
 8769TIP3   OH226263   7.976   5.654   4.446
 8769TIP3    H126264   7.959   5.564   4.418
 8769TIP3    H226265   7.917   5.708   4.392
 8770TIP3   OH226266   6.377   1.542   5.711
 8770TIP3    H126267   6.457   1.509   5.670
 8770TIP3    H226268   6.323   1.464   5.723
 8771TIP3   OH226269   1.623   6.633   1.042
 8771TIP3    H126270   1.631   6.551   1.090
 8771TIP3    H226271   1.529   6.645   1.031
 8772TIP3   OH226272   6.180   1.921   5.990
 8772TIP3    H126273   6.131   1.850   5.948
 8772TIP3    H226274   6.151   1.919   6.081
 8773TIP3   OH226275   1.302   5.680   2.519
 8773TIP3    H126276   1.334   5.615   2.583
 8773TIP3    H226277   1.208   5.684   2.535
 8774TIP3   OH226278   1.774   6.722   1.465
 8774TIP3    H126279   1.742   6.635   1.486
 8774TIP3    H226280   1.796   6.718   1.372
 8775TIP3   OH226281   5.781   4.335   1.945
 8775TIP3    H126282   5.824   4.315   2.028
 8775TIP3    H226283   5.751   4.250   1.912
 8776TIP3   OH226284   5.037   1.142   3.593
 8776TIP3    H126285   4.974   1.201   3.554
 8776TIP3    H226286   5.000   1.120   3.679
 8777TIP3   OH226287   4.352   3.746   4.209
 8777TIP3    H126288   4.299   3.764   4.287
 8777TIP3    H226289   4.375   3.653   4.218
 8778TIP3   OH226290   7.835   0.288   4.911
 8778TIP3    H126291   7.920   0.328   4.929
 8778TIP3    H226292   7.854   0.216   4.851
 8779TIP3   OH226293   4.846   3.437   3.177
 8779TIP3    H126294   4.847   3.513   3.235
 8779TIP3    H226295   4.765   3.446   3.126
 8780TIP3   OH226296   7.572   1.038   1.420
 8780TIP3    H126297   7.608   1.123   1.396
 8780TIP3    H226298   7.494   1.029   1.365
 8781TIP3   OH226299   2.909   1.058   1.737
 8781TIP3    H126300   2.866   0.973   1.746
 8781TIP3    H226301   2.971   1.060   1.810
 8782TIP3   OH226302   7.906   6.428   3.904
 8782TIP3    H126303   7.870   6.464   3.824
 8782TIP3    H226304   7.980   6.375   3.876
 8783TIP3   OH226305   8.101   2.028   4.314
 8783TIP3    H126306   8.154   2.001   4.389
 8783TIP3    H226307   8.010   2.013   4.343
 8784TIP3   OH226308   0.393   0.475   0.560
 8784TIP3    H126309   0.323   0.535   0.586
 8784TIP3    H226310   0.392   0.407   0.627
 8785TIP3   OH226311   6.704   0.750   0.817
 8785TIP3    H126312   6.739   0.743   0.728
 8785TIP3    H226313   6.762   0.695   0.869
 8786TIP3   OH226314   7.269   3.927   3.061
 8786TIP3    H126315   7.316   3.883   3.132
 8786TIP3    H226316   7.338   3.959   3.003
 8787TIP3   OH226317   1.439   5.182   6.681
 8787TIP3    H126318   1.446   5.126   6.758
 8787TIP3    H226319   1.497   5.256   6.701
 8788TIP3   OH226320   3.297   3.341   1.467
 8788TIP3    H126321   3.271   3.252   1.490
 8788TIP3    H226322   3.381   3.353   1.511
 8789TIP3   OH226323   1.641   0.340   6.702
 8789TIP3    H126324   1.686   0.343   6.787
 8789TIP3    H226325   1.591   0.422   6.699
 8790TIP3   OH226326   5.442   3.349   2.076
 8790TIP3    H126327   5.483   3.262   2.073
 8790TIP3    H226328   5.506   3.408   2.036
 8791TIP3   OH226329   6.219   2.743   5.486
 8791TIP3    H126330   6.296   2.703   5.527
 8791TIP3    H226331   6.153   2.675   5.486
 8792TIP3   OH226332   4.022   0.430   2.948
 8792TIP3    H126333   4.095   0.371   2.968
 8792TIP3    H226334   4.013   0.484   3.026
 8793TIP3   OH226335   7.436   7.178   3.649
 8793TIP3    H126336   7.414   7.269   3.627
 8793TIP3    H226337   7.512   7.158   3.594
 8794TIP3   OH226338   1.774   0.052   5.991
 8794TIP3    H126339   1.780   0.032   6.085
 8794TIP3    H226340   1.774  -0.034   5.949
 8795TIP3   OH226341   1.431   1.494   4.381
 8795TIP3    H126342   1.443   1.481   4.287
 8795TIP3    H226343   1.346   1.455   4.400
 8796TIP3   OH226344   1.995   6.677   4.280
 8796TIP3    H126345   2.061   6.691   4.212
 8796TIP3    H226346   1.945   6.758   4.283
 8797TIP3   OH226347   2.064   2.399   5.597
 8797TIP3    H126348   2.136   2.374   5.540
 8797TIP3    H226349   2.098   2.385   5.686
 8798TIP3   OH226350   6.955   1.468   0.106
 8798TIP3    H126351   6.901   1.397   0.142
 8798TIP3    H226352   6.895   1.543   0.102
 8799TIP3   OH226353   7.024   7.700   3.748
 8799TIP3    H126354   6.965   7.666   3.681
 8799TIP3    H226355   7.111   7.698   3.706
 8800TIP3   OH226356   0.218   2.303   4.138
 8800TIP3    H126357   0.216   2.396   4.163
 8800TIP3    H226358   0.165   2.259   4.205
 8801TIP3   OH226359   7.610   1.871   2.830
 8801TIP3    H126360   7.615   1.795   2.889
 8801TIP3    H226361   7.582   1.835   2.747
 8802TIP3   OH226362   7.640   4.833   0.243
 8802TIP3    H126363   7.716   4.890   0.253
 8802TIP3    H226364   7.673   4.757   0.197
 8803TIP3   OH226365   1.298   6.864   6.340
 8803TIP3    H126366   1.217   6.838   6.384
 8803TIP3    H226367   1.307   6.957   6.359
 8804TIP3   OH226368   0.286   5.311   6.579
 8804TIP3    H126369   0.297   5.350   6.493
 8804TIP3    H226370   0.277   5.386   6.638
 8805TIP3   OH226371   2.990   3.092   6.208
 8805TIP3    H126372   2.979   3.054   6.121
 8805TIP3    H226373   2.901   3.107   6.239
 8806TIP3   OH226374   7.183   1.300   1.412
 8806TIP3    H126375   7.152   1.294   1.321
 8806TIP3    H226376   7.224   1.215   1.429
 8807TIP3   OH226377   2.119   6.821   2.785
 8807TIP3    H126378   2.185   6.824   2.716
 8807TIP3    H226379   2.041   6.787   2.742
 8808TIP3   OH226380   1.600   7.329   2.566
 8808TIP3    H126381   1.615   7.260   2.501
 8808TIP3    H226382   1.505   7.333   2.574
 8809TIP3   OH226383   3.152   4.678   4.221
 8809TIP3    H126384   3.080   4.663   4.159
 8809TIP3    H226385   3.226   4.629   4.185
 8810TIP3   OH226386   5.719   0.097   4.509
 8810TIP3    H126387   5.718   0.010   4.547
 8810TIP3    H226388   5.627   0.121   4.501
 8811TIP3   OH226389   1.893   6.318   1.383
 8811TIP3    H126390   1.902   6.324   1.287
 8811TIP3    H226391   1.816   6.372   1.402
 8812TIP3   OH226392   7.740   6.128   6.710
 8812TIP3    H126393   7.688   6.051   6.686
 8812TIP3    H226394   7.827   6.111   6.674
 8813TIP3   OH226395   4.677   0.114   3.882
 8813TIP3    H126396   4.697   0.062   3.960
 8813TIP3    H226397   4.727   0.072   3.812
 8814TIP3   OH226398   6.735   2.489   2.716
 8814TIP3    H126399   6.696   2.416   2.669
 8814TIP3    H226400   6.686   2.493   2.798
 8815TIP3   OH226401   8.043   1.253   6.289
 8815TIP3    H126402   8.041   1.312   6.364
 8815TIP3    H226403   8.074   1.169   6.325
 8816TIP3   OH226404   4.668   3.039   3.619
 8816TIP3    H126405   4.672   3.119   3.567
 8816TIP3    H226406   4.667   2.968   3.555
 8817TIP3   OH226407   6.022   3.734   6.774
 8817TIP3    H126408   6.050   3.683   6.698
 8817TIP3    H226409   5.927   3.721   6.777
 8818TIP3   OH226410   1.248   5.170   5.327
 8818TIP3    H126411   1.342   5.189   5.323
 8818TIP3    H226412   1.210   5.244   5.373
 8819TIP3   OH226413   3.913   2.217   2.282
 8819TIP3    H126414   3.987   2.277   2.290
 8819TIP3    H226415   3.946   2.144   2.229
 8820TIP3   OH226416   5.916   5.531   0.747
 8820TIP3    H126417   5.974   5.607   0.741
 8820TIP3    H226418   5.935   5.480   0.669
 8821TIP3   OH226419   1.758   4.850   3.673
 8821TIP3    H126420   1.831   4.790   3.691
 8821TIP3    H226421   1.680   4.799   3.694
 8822TIP3   OH226422   0.293   0.735   4.845
 8822TIP3    H126423   0.293   0.687   4.762
 8822TIP3    H226424   0.222   0.694   4.896
 8823TIP3   OH226425   0.792   1.361   0.346
 8823TIP3    H126426   0.737   1.296   0.389
 8823TIP3    H226427   0.792   1.436   0.405
 8824TIP3   OH226428   3.008   2.410   2.963
 8824TIP3    H126429   3.097   2.383   2.941
 8824TIP3    H226430   2.983   2.354   3.036
 8825TIP3   OH226431   4.820   5.337   4.678
 8825TIP3    H126432   4.859   5.365   4.760
 8825TIP3    H226433   4.727   5.322   4.699
 8826TIP3   OH226434   4.093   4.131   5.529
 8826TIP3    H126435   4.186   4.115   5.519
 8826TIP3    H226436   4.065   4.169   5.446
 8827TIP3   OH226437   8.008   6.635   1.274
 8827TIP3    H126438   7.950   6.695   1.227
 8827TIP3    H226439   7.951   6.595   1.341
 8828TIP3   OH226440   0.666   1.244   2.623
 8828TIP3    H126441   0.629   1.277   2.704
 8828TIP3    H226442   0.716   1.167   2.649
 8829TIP3   OH226443   6.937   6.827   3.455
 8829TIP3    H126444   7.002   6.822   3.384
 8829TIP3    H226445   6.983   6.794   3.532
 8830TIP3   OH226446   4.892   3.998   1.785
 8830TIP3    H126447   4.962   4.049   1.826
 8830TIP3    H226448   4.852   4.058   1.722
 8831TIP3   OH226449   7.647   5.283   4.695
 8831TIP3    H126450   7.561   5.244   4.682
 8831TIP3    H226451   7.668   5.265   4.787
 8832TIP3   OH226452   3.069   5.470   4.943
 8832TIP3    H126453   3.129   5.428   4.881
 8832TIP3    H226454   3.125   5.501   5.013
 8833TIP3   OH226455   6.666   4.982   3.102
 8833TIP3    H126456   6.734   5.033   3.057
 8833TIP3    H226457   6.594   4.977   3.040
 8834TIP3   OH226458   4.504   6.645   4.361
 8834TIP3    H126459   4.444   6.693   4.418
 8834TIP3    H226460   4.449   6.617   4.288
 8835TIP3   OH226461   4.879   2.026   5.825
 8835TIP3    H126462   4.904   2.107   5.870
 8835TIP3    H226463   4.836   2.056   5.745
 8836TIP3   OH226464   1.176   3.215   6.796
 8836TIP3    H126465   1.082   3.221   6.775
 8836TIP3    H226466   1.215   3.176   6.718
 8837TIP3   OH226467   2.000   5.286   5.850
 8837TIP3    H126468   1.917   5.244   5.875
 8837TIP3    H226469   2.030   5.328   5.930
 8838TIP3   OH226470   6.660   6.829   4.644
 8838TIP3    H126471   6.609   6.817   4.564
 8838TIP3    H226472   6.618   6.772   4.708
 8839TIP3   OH226473   2.608   3.136   4.021
 8839TIP3    H126474   2.528   3.087   4.039
 8839TIP3    H226475   2.577   3.217   3.980
 8840TIP3   OH226476   5.335   7.752   5.050
 8840TIP3    H126477   5.250   7.725   5.085
 8840TIP3    H226478   5.396   7.737   5.122
 8841TIP3   OH226479   4.378   1.621   4.384
 8841TIP3    H126480   4.427   1.692   4.342
 8841TIP3    H226481   4.404   1.542   4.335
 8842TIP3   OH226482   4.560   6.172   2.483
 8842TIP3    H126483   4.554   6.095   2.539
 8842TIP3    H226484   4.646   6.209   2.501
 8843TIP3   OH226485   0.641   5.156   1.476
 8843TIP3    H126486   0.597   5.112   1.549
 8843TIP3    H226487   0.584   5.139   1.401
 8844TIP3   OH226488   7.107   4.519   5.226
 8844TIP3    H126489   7.016   4.539   5.204
 8844TIP3    H226490   7.148   4.605   5.237
 8845TIP3   OH226491   7.117   3.384   2.111
 8845TIP3    H126492   7.040   3.436   2.133
 8845TIP3    H226493   7.099   3.297   2.147
 8846TIP3   OH226494   1.767   7.108   0.681
 8846TIP3    H126495   1.851   7.080   0.718
 8846TIP3    H226496   1.784   7.117   0.587
 8847TIP3   OH226497   1.706   4.754   6.050
 8847TIP3    H126498   1.780   4.793   6.097
 8847TIP3    H226499   1.741   4.673   6.013
 8848TIP3   OH226500   3.436   3.782   3.668
 8848TIP3    H126501   3.505   3.819   3.723
 8848TIP3    H226502   3.355   3.804   3.713
 8849TIP3   OH226503   4.494   4.575   6.454
 8849TIP3    H126504   4.467   4.592   6.544
 8849TIP3    H226505   4.422   4.611   6.401
 8850TIP3   OH226506   1.488   4.946   2.250
 8850TIP3    H126507   1.562   4.915   2.198
 8850TIP3    H226508   1.415   4.889   2.224
 8851TIP3   OH226509   2.780   1.704   2.038
 8851TIP3    H126510   2.776   1.708   2.134
 8851TIP3    H226511   2.720   1.633   2.015
 8852TIP3   OH226512   1.336   6.911   5.752
 8852TIP3    H126513   1.244   6.891   5.738
 8852TIP3    H226514   1.357   6.873   5.836
 8853TIP3   OH226515   7.228   1.266   4.401
 8853TIP3    H126516   7.191   1.194   4.348
 8853TIP3    H226517   7.311   1.287   4.358
 8854TIP3   OH226518   4.635   5.701   4.380
 8854TIP3    H126519   4.563   5.725   4.322
 8854TIP3    H226520   4.597   5.704   4.468
 8855TIP3   OH226521   0.056   3.783   4.439
 8855TIP3    H126522  -0.020   3.779   4.497
 8855TIP3    H226523   0.022   3.823   4.359
 8856TIP3   OH226524   1.366   2.531   6.069
 8856TIP3    H126525   1.386   2.582   6.148
 8856TIP3    H226526   1.412   2.577   5.999
 8857TIP3   OH226527   0.301   0.083   5.975
 8857TIP3    H126528   0.328   0.120   6.059
 8857TIP3    H226529   0.309  -0.012   5.987
 8858TIP3   OH226530   6.733  -0.001   1.034
 8858TIP3    H126531   6.826  -0.021   1.040
 8858TIP3    H226532   6.724   0.048   0.953
 8859TIP3   OH226533   1.158   7.344   2.888
 8859TIP3    H126534   1.180   7.334   2.981
 8859TIP3    H226535   1.073   7.387   2.888
 8860TIP3   OH226536   8.072   6.559   0.387
 8860TIP3    H126537   7.996   6.566   0.329
 8860TIP3    H226538   8.048   6.611   0.464
 8861TIP3   OH226539   2.438   2.199   4.565
 8861TIP3    H126540   2.493   2.169   4.493
 8861TIP3    H226541   2.429   2.122   4.622
 8862TIP3   OH226542   0.559   5.430   2.011
 8862TIP3    H126543   0.635   5.436   2.068
 8862TIP3    H226544   0.569   5.346   1.967
 8863TIP3   OH226545   2.506   6.367   0.472
 8863TIP3    H126546   2.521   6.396   0.562
 8863TIP3    H226547   2.583   6.398   0.424
 8864TIP3   OH226548   3.123   4.082   3.357
 8864TIP3    H126549   3.039   4.049   3.325
 8864TIP3    H226550   3.121   4.176   3.336
 8865TIP3   OH226551   3.649   3.825   5.902
 8865TIP3    H126552   3.687   3.906   5.936
 8865TIP3    H226553   3.573   3.808   5.958
 8866TIP3   OH226554   6.742   1.950   0.782
 8866TIP3    H126555   6.829   1.990   0.792
 8866TIP3    H226556   6.681   2.019   0.806
 8867TIP3   OH226557   4.116   0.903   2.264
 8867TIP3    H126558   4.201   0.928   2.227
 8867TIP3    H226559   4.054   0.963   2.223
 8868TIP3   OH226560   2.536   0.857   2.794
 8868TIP3    H126561   2.528   0.828   2.884
 8868TIP3    H226562   2.534   0.953   2.799
 8869TIP3   OH226563   3.599   1.809   4.878
 8869TIP3    H126564   3.534   1.861   4.831
 8869TIP3    H226565   3.677   1.813   4.822
 8870TIP3   OH226566   6.489   3.599   1.526
 8870TIP3    H126567   6.514   3.658   1.597
 8870TIP3    H226568   6.451   3.657   1.460
 8871TIP3   OH226569   7.236   3.155   1.929
 8871TIP3    H126570   7.220   3.158   1.834
 8871TIP3    H226571   7.193   3.234   1.963
 8872TIP3   OH226572   7.812   3.341   0.843
 8872TIP3    H126573   7.888   3.383   0.803
 8872TIP3    H226574   7.812   3.373   0.934
 8873TIP3   OH226575   6.346   3.336   4.435
 8873TIP3    H126576   6.282   3.268   4.413
 8873TIP3    H226577   6.416   3.289   4.482
 8874TIP3   OH226578   2.998   6.153   0.347
 8874TIP3    H126579   3.048   6.158   0.428
 8874TIP3    H226580   3.051   6.098   0.289
 8875TIP3   OH226581   5.064   3.717   5.210
 8875TIP3    H126582   4.985   3.750   5.253
 8875TIP3    H226583   5.132   3.723   5.277
 8876TIP3   OH226584   1.599   0.142   2.684
 8876TIP3    H126585   1.583   0.201   2.610
 8876TIP3    H226586   1.559   0.060   2.658
 8877TIP3   OH226587   7.530   3.735   5.195
 8877TIP3    H126588   7.488   3.680   5.130
 8877TIP3    H226589   7.465   3.802   5.216
 8878TIP3   OH226590   0.286   3.449   6.598
 8878TIP3    H126591   0.316   3.475   6.511
 8878TIP3    H226592   0.214   3.508   6.618
 8879TIP3   OH226593   0.452   0.594   6.617
 8879TIP3    H126594   0.391   0.599   6.690
 8879TIP3    H226595   0.454   0.501   6.594
 8880TIP3   OH226596   6.799   1.816   2.742
 8880TIP3    H126597   6.722   1.774   2.704
 8880TIP3    H226598   6.805   1.780   2.831
 8881TIP3   OH226599   1.646   0.793   1.107
 8881TIP3    H126600   1.723   0.820   1.157
 8881TIP3    H226601   1.681   0.754   1.028
 8882TIP3   OH226602   2.135   4.712   6.601
 8882TIP3    H126603   2.188   4.669   6.534
 8882TIP3    H226604   2.165   4.674   6.684
 8883TIP3   OH226605   6.151   6.052   0.761
 8883TIP3    H126606   6.234   6.045   0.713
 8883TIP3    H226607   6.151   6.141   0.795
 8884TIP3   OH226608   5.422   1.810   3.612
 8884TIP3    H126609   5.337   1.794   3.653
 8884TIP3    H226610   5.401   1.834   3.522
 8885TIP3   OH226611   1.474   7.407   5.223
 8885TIP3    H126612   1.473   7.458   5.304
 8885TIP3    H226613   1.517   7.464   5.159
 8886TIP3   OH226614   1.498   4.584   0.456
 8886TIP3    H126615   1.421   4.627   0.492
 8886TIP3    H226616   1.565   4.595   0.524
 8887TIP3   OH226617   6.833   7.500   3.641
 8887TIP3    H126618   6.763   7.447   3.677
 8887TIP3    H226619   6.801   7.529   3.556
 8888TIP3   OH226620   7.338   0.920   3.209
 8888TIP3    H126621   7.386   0.843   3.180
 8888TIP3    H226622   7.248   0.905   3.182
 8889TIP3   OH226623   7.505   2.549   6.030
 8889TIP3    H126624   7.450   2.536   5.952
 8889TIP3    H226625   7.591   2.516   6.004
 8890TIP3   OH226626   2.185   3.252   6.197
 8890TIP3    H126627   2.111   3.212   6.152
 8890TIP3    H226628   2.147   3.290   6.277
 8891TIP3   OH226629   3.843   4.306   3.929
 8891TIP3    H126630   3.827   4.360   3.851
 8891TIP3    H226631   3.813   4.219   3.904
 8892TIP3   OH226632   5.128   7.743   3.826
 8892TIP3    H126633   5.176   7.762   3.745
 8892TIP3    H226634   5.124   7.827   3.871
 8893TIP3   OH226635   3.055   6.854   3.403
 8893TIP3    H126636   2.989   6.829   3.339
 8893TIP3    H226637   3.112   6.916   3.357
 8894TIP3   OH226638   0.730   4.026   1.972
 8894TIP3    H126639   0.819   4.015   1.937
 8894TIP3    H226640   0.703   4.112   1.941
 8895TIP3   OH226641   3.792   2.669   6.140
 8895TIP3    H126642   3.871   2.681   6.192
 8895TIP3    H226643   3.721   2.694   6.197
 8896TIP3   OH226644   2.291   5.307   6.102
 8896TIP3    H126645   2.296   5.325   6.196
 8896TIP3    H226646   2.363   5.246   6.086
 8897TIP3   OH226647   2.443   5.122   3.130
 8897TIP3    H126648   2.413   5.212   3.128
 8897TIP3    H226649   2.493   5.114   3.211
 8898TIP3   OH226650   4.029   7.703   5.449
 8898TIP3    H126651   4.100   7.716   5.385
 8898TIP3    H226652   4.009   7.792   5.480
 8899TIP3   OH226653   0.392   4.265   4.651
 8899TIP3    H126654   0.397   4.361   4.648
 8899TIP3    H226655   0.457   4.237   4.586
 8900TIP3   OH226656   7.318   0.073   5.555
 8900TIP3    H126657   7.358   0.047   5.471
 8900TIP3    H226658   7.230   0.035   5.553
 8901TIP3   OH226659   6.937   4.887   0.651
 8901TIP3    H126660   6.843   4.898   0.638
 8901TIP3    H226661   6.946   4.797   0.681
 8902TIP3   OH226662   5.724   6.633   1.699
 8902TIP3    H126663   5.772   6.692   1.641
 8902TIP3    H226664   5.756   6.654   1.787
 8903TIP3   OH226665   6.765   5.077   5.159
 8903TIP3    H126666   6.699   5.142   5.183
 8903TIP3    H226667   6.839   5.129   5.126
 8904TIP3   OH226668   2.758   0.290   5.554
 8904TIP3    H126669   2.729   0.219   5.611
 8904TIP3    H226670   2.784   0.360   5.615
 8905TIP3   OH226671   3.960   6.767   1.110
 8905TIP3    H126672   3.897   6.827   1.150
 8905TIP3    H226673   4.041   6.818   1.105
 8906TIP3   OH226674   4.638   5.857   3.568
 8906TIP3    H126675   4.730   5.883   3.564
 8906TIP3    H226676   4.615   5.866   3.660
 8907TIP3   OH226677   3.330   5.767   3.784
 8907TIP3    H126678   3.342   5.760   3.690
 8907TIP3    H226679   3.261   5.704   3.804
 8908TIP3   OH226680   0.105   6.518   0.741
 8908TIP3    H126681   0.197   6.525   0.768
 8908TIP3    H226682   0.107   6.532   0.646
 8909TIP3   OH226683   1.237   5.405   5.848
 8909TIP3    H126684   1.145   5.379   5.852
 8909TIP3    H226685   1.255   5.442   5.934
 8910TIP3   OH226686   1.945   2.967   2.126
 8910TIP3    H126687   2.009   2.999   2.190
 8910TIP3    H226688   1.958   3.022   2.049
 8911TIP3   OH226689   7.919   5.837   1.115
 8911TIP3    H126690   7.978   5.773   1.156
 8911TIP3    H226691   7.894   5.797   1.032
 8912TIP3   OH226692   6.875   0.460   3.385
 8912TIP3    H126693   6.965   0.473   3.356
 8912TIP3    H226694   6.828   0.536   3.348
 8913TIP3   OH226695   4.648   0.153   1.885
 8913TIP3    H126696   4.664   0.131   1.977
 8913TIP3    H226697   4.589   0.084   1.854
 8914TIP3   OH226698   5.087   7.138   5.309
 8914TIP3    H126699   5.074   7.155   5.216
 8914TIP3    H226700   5.005   7.167   5.351
 8915TIP3   OH226701   0.217   0.340   0.251
 8915TIP3    H126702   0.283   0.300   0.307
 8915TIP3    H226703   0.190   0.270   0.192
 8916TIP3   OH226704   2.031   5.150   2.321
 8916TIP3    H126705   1.942   5.125   2.297
 8916TIP3    H226706   2.086   5.114   2.251
 8917TIP3   OH226707   0.652   3.385   6.225
 8917TIP3    H126708   0.649   3.359   6.133
 8917TIP3    H226709   0.678   3.477   6.223
 8918TIP3   OH226710   8.329   1.941   3.330
 8918TIP3    H126711   8.269   1.911   3.262
 8918TIP3    H226712   8.274   1.994   3.389
 8919TIP3   OH226713   3.423   4.162   4.226
 8919TIP3    H126714   3.467   4.246   4.215
 8919TIP3    H226715   3.466   4.104   4.163
 8920TIP3   OH226716   1.778   1.467   1.489
 8920TIP3    H126717   1.729   1.490   1.410
 8920TIP3    H226718   1.851   1.529   1.491
 8921TIP3   OH226719   2.815   3.717   1.785
 8921TIP3    H126720   2.866   3.658   1.840
 8921TIP3    H226721   2.792   3.791   1.841
 8922TIP3   OH226722   2.182   0.537   4.122
 8922TIP3    H126723   2.164   0.629   4.140
 8922TIP3    H226724   2.274   0.525   4.148
 8923TIP3   OH226725   0.453   3.800   2.687
 8923TIP3    H126726   0.483   3.839   2.769
 8923TIP3    H226727   0.523   3.740   2.662
 8924TIP3   OH226728   0.304   4.004   2.336
 8924TIP3    H126729   0.383   3.999   2.281
 8924TIP3    H226730   0.253   3.927   2.312
 8925TIP3   OH226731   0.625   3.837   1.035
 8925TIP3    H126732   0.637   3.766   1.099
 8925TIP3    H226733   0.532   3.860   1.042
 8926TIP3   OH226734   5.114   4.035   5.091
 8926TIP3    H126735   5.024   4.047   5.122
 8926TIP3    H226736   5.168   4.041   5.170
 8927TIP3   OH226737   7.908   7.481   3.419
 8927TIP3    H126738   7.831   7.441   3.379
 8927TIP3    H226739   7.879   7.568   3.446
 8928TIP3   OH226740   7.064   1.621   5.890
 8928TIP3    H126741   7.091   1.594   5.977
 8928TIP3    H226742   7.129   1.582   5.831
 8929TIP3   OH226743   2.285   4.572   4.434
 8929TIP3    H126744   2.276   4.501   4.498
 8929TIP3    H226745   2.322   4.645   4.484
 8930TIP3   OH226746   7.677   0.688   3.466
 8930TIP3    H126747   7.670   0.716   3.558
 8930TIP3    H226748   7.592   0.710   3.428
 8931TIP3   OH226749   3.552   3.943   6.224
 8931TIP3    H126750   3.540   3.855   6.259
 8931TIP3    H226751   3.606   3.988   6.289
 8932TIP3   OH226752   5.494   4.561   3.158
 8932TIP3    H126753   5.419   4.579   3.215
 8932TIP3    H226754   5.462   4.583   3.070
 8933TIP3   OH226755   3.931   5.016   4.701
 8933TIP3    H126756   3.945   5.061   4.785
 8933TIP3    H226757   3.838   4.995   4.700
 8934TIP3   OH226758   1.390   2.314   2.416
 8934TIP3    H126759   1.448   2.286   2.487
 8934TIP3    H226760   1.334   2.238   2.400
 8935TIP3   OH226761   0.715   6.302   4.344
 8935TIP3    H126762   0.678   6.340   4.423
 8935TIP3    H226763   0.639   6.276   4.291
 8936TIP3   OH226764   5.250   4.042   5.341
 8936TIP3    H126765   5.232   4.114   5.402
 8936TIP3    H226766   5.222   3.963   5.386
 8937TIP3   OH226767   4.331   2.443   4.029
 8937TIP3    H126768   4.373   2.527   4.012
 8937TIP3    H226769   4.275   2.428   3.953
 8938TIP3   OH226770   4.930   3.390   5.603
 8938TIP3    H126771   4.843   3.350   5.602
 8938TIP3    H226772   4.984   3.331   5.551
 8939TIP3   OH226773   0.258   1.817   3.377
 8939TIP3    H126774   0.303   1.759   3.316
 8939TIP3    H226775   0.190   1.859   3.325
 8940TIP3   OH226776   3.687   0.460   1.475
 8940TIP3    H126777   3.621   0.482   1.409
 8940TIP3    H226778   3.728   0.544   1.496
 8941TIP3   OH226779   3.564   0.189   1.107
 8941TIP3    H126780   3.501   0.239   1.159
 8941TIP3    H226781   3.617   0.143   1.171
 8942TIP3   OH226782   4.287   6.619   6.407
 8942TIP3    H126783   4.338   6.690   6.446
 8942TIP3    H226784   4.252   6.570   6.481
 8943TIP3   OH226785   1.926   3.401   6.794
 8943TIP3    H126786   1.967   3.337   6.735
 8943TIP3    H226787   1.833   3.395   6.773
 8944TIP3   OH226788   7.141   0.946   6.126
 8944TIP3    H126789   7.061   0.935   6.179
 8944TIP3    H226790   7.211   0.953   6.191
 8945TIP3   OH226791   7.923   3.848   6.257
 8945TIP3    H126792   8.006   3.863   6.303
 8945TIP3    H226793   7.928   3.759   6.224
 8946TIP3   OH226794   6.567   4.139   4.862
 8946TIP3    H126795   6.601   4.077   4.797
 8946TIP3    H226796   6.510   4.197   4.812
 8947TIP3   OH226797   6.390   5.503   5.433
 8947TIP3    H126798   6.464   5.487   5.492
 8947TIP3    H226799   6.381   5.599   5.432
 8948TIP3   OH226800   5.488   0.726   4.615
 8948TIP3    H126801   5.401   0.735   4.577
 8948TIP3    H226802   5.474   0.676   4.695
 8949TIP3   OH226803   5.244   3.480   5.392
 8949TIP3    H126804   5.313   3.419   5.365
 8949TIP3    H226805   5.178   3.475   5.323
 8950TIP3   OH226806   7.146   0.189   4.037
 8950TIP3    H126807   7.065   0.235   4.015
 8950TIP3    H226808   7.177   0.154   3.953
 8951TIP3   OH226809   4.608   5.873   0.873
 8951TIP3    H126810   4.627   5.849   0.964
 8951TIP3    H226811   4.561   5.799   0.838
 8952TIP3   OH226812   0.996   4.139   5.872
 8952TIP3    H126813   0.959   4.060   5.832
 8952TIP3    H226814   0.937   4.209   5.846
 8953TIP3   OH226815   3.002   3.272   0.824
 8953TIP3    H126816   2.916   3.233   0.805
 8953TIP3    H226817   2.982   3.364   0.841
 8954TIP3   OH226818   0.409   6.985   4.850
 8954TIP3    H126819   0.392   6.921   4.920
 8954TIP3    H226820   0.467   7.050   4.890
 8955TIP3   OH226821   6.058   2.258   4.883
 8955TIP3    H126822   5.965   2.274   4.897
 8955TIP3    H226823   6.096   2.258   4.970
 8956TIP3   OH226824   6.816   2.170   0.989
 8956TIP3    H126825   6.726   2.148   0.965
 8956TIP3    H226826   6.809   2.206   1.078
 8957TIP3   OH226827   7.492   3.278   1.600
 8957TIP3    H126828   7.533   3.342   1.541
 8957TIP3    H226829   7.459   3.330   1.673
 8958TIP3   OH226830   1.049   1.114   6.330
 8958TIP3    H126831   0.987   1.133   6.400
 8958TIP3    H226832   1.076   1.200   6.297
 8959TIP3   OH226833   0.052   3.507   5.169
 8959TIP3    H126834   0.024   3.445   5.102
 8959TIP3    H226835   0.123   3.557   5.128
 8960TIP3   OH226836   5.586   7.633   2.223
 8960TIP3    H126837   5.666   7.674   2.258
 8960TIP3    H226838   5.518   7.698   2.237
 8961TIP3   OH226839   0.934   1.079   3.650
 8961TIP3    H126840   0.870   1.145   3.675
 8961TIP3    H226841   0.959   1.037   3.732
 8962TIP3   OH226842   4.994   1.462   4.713
 8962TIP3    H126843   5.019   1.479   4.622
 8962TIP3    H226844   5.077   1.461   4.760
 8963TIP3   OH226845   4.900   4.911   1.805
 8963TIP3    H126846   4.856   4.869   1.878
 8963TIP3    H226847   4.863   4.870   1.727
 8964TIP3   OH226848   2.375   1.217   6.035
 8964TIP3    H126849   2.388   1.301   5.993
 8964TIP3    H226850   2.406   1.153   5.971
 8965TIP3   OH226851   5.046   3.067   6.795
 8965TIP3    H126852   5.111   3.118   6.747
 8965TIP3    H226853   4.981   3.044   6.728
 8966TIP3   OH226854   3.595   1.807   4.272
 8966TIP3    H126855   3.615   1.798   4.365
 8966TIP3    H226856   3.556   1.723   4.246
 8967TIP3   OH226857   2.662   5.609   1.072
 8967TIP3    H126858   2.707   5.527   1.088
 8967TIP3    H226859   2.706   5.647   0.996
 8968TIP3   OH226860   4.519   3.854   2.288
 8968TIP3    H126861   4.586   3.804   2.334
 8968TIP3    H226862   4.557   3.942   2.280
 8969TIP3   OH226863   4.798   5.265   6.809
 8969TIP3    H126864   4.785   5.326   6.736
 8969TIP3    H226865   4.722   5.281   6.866
 8970TIP3   OH226866   5.914   1.870   5.419
 8970TIP3    H126867   5.933   1.961   5.399
 8970TIP3    H226868   5.966   1.820   5.357
 8971TIP3   OH226869   5.754   1.338   2.542
 8971TIP3    H126870   5.760   1.244   2.524
 8971TIP3    H226871   5.695   1.372   2.475
 8972TIP3   OH226872   3.177   4.219   1.300
 8972TIP3    H126873   3.262   4.261   1.290
 8972TIP3    H226874   3.186   4.162   1.376
 8973TIP3   OH226875   8.024   2.247   5.971
 8973TIP3    H126876   8.049   2.333   5.938
 8973TIP3    H226877   8.092   2.225   6.035
 8974TIP3   OH226878   7.367   5.530   0.132
 8974TIP3    H126879   7.401   5.476   0.203
 8974TIP3    H226880   7.422   5.609   0.133
 8975TIP3   OH226881   2.162   0.722   4.446
 8975TIP3    H126882   2.255   0.730   4.427
 8975TIP3    H226883   2.119   0.780   4.384
 8976TIP3   OH226884   0.608   7.289   1.721
 8976TIP3    H126885   0.694   7.253   1.700
 8976TIP3    H226886   0.597   7.272   1.815
 8977TIP3   OH226887   2.975   1.539   1.161
 8977TIP3    H126888   3.052   1.481   1.169
 8977TIP3    H226889   2.900   1.480   1.172
 8978TIP3   OH226890   4.683   4.487   2.305
 8978TIP3    H126891   4.734   4.416   2.345
 8978TIP3    H226892   4.742   4.562   2.308
 8979TIP3   OH226893   6.631   2.218   4.543
 8979TIP3    H126894   6.665   2.285   4.484
 8979TIP3    H226895   6.593   2.152   4.485
 8980TIP3   OH226896   1.376   7.592   2.481
 8980TIP3    H126897   1.285   7.622   2.483
 8980TIP3    H226898   1.370   7.500   2.454
 8981TIP3   OH226899   5.622   1.785   0.570
 8981TIP3    H126900   5.652   1.695   0.565
 8981TIP3    H226901   5.701   1.838   0.564
 8982TIP3   OH226902   4.212   5.469   4.847
 8982TIP3    H126903   4.239   5.524   4.921
 8982TIP3    H226904   4.215   5.380   4.881
 8983TIP3   OH226905   5.162   3.094   2.738
 8983TIP3    H126906   5.143   3.136   2.822
 8983TIP3    H226907   5.121   3.008   2.744
 8984TIP3   OH226908   0.323   2.596   3.285
 8984TIP3    H126909   0.337   2.599   3.379
 8984TIP3    H226910   0.247   2.653   3.270
 8985TIP3   OH226911   7.444   2.948   6.429
 8985TIP3    H126912   7.522   2.895   6.442
 8985TIP3    H226913   7.462   3.001   6.351
 8986TIP3   OH226914   6.742   7.218   4.910
 8986TIP3    H126915   6.749   7.183   4.999
 8986TIP3    H226916   6.648   7.233   4.897
 8987TIP3   OH226917   1.355   5.734   4.648
 8987TIP3    H126918   1.421   5.680   4.604
 8987TIP3    H226919   1.327   5.681   4.722
 8988TIP3   OH226920   3.621   4.701   6.463
 8988TIP3    H126921   3.644   4.633   6.399
 8988TIP3    H226922   3.684   4.772   6.446
 8989TIP3   OH226923   2.051   4.797   4.876
 8989TIP3    H126924   2.124   4.753   4.833
 8989TIP3    H226925   2.091   4.848   4.947
 8990TIP3   OH226926   4.063   2.848   4.749
 8990TIP3    H126927   4.084   2.941   4.735
 8990TIP3    H226928   3.992   2.849   4.813
 8991TIP3   OH226929   6.741   4.563   5.647
 8991TIP3    H126930   6.780   4.645   5.679
 8991TIP3    H226931   6.817   4.510   5.622
 8992TIP3   OH226932   4.844   4.787   4.076
 8992TIP3    H126933   4.752   4.811   4.090
 8992TIP3    H226934   4.875   4.762   4.163
 8993TIP3   OH226935   7.709   0.130   3.371
 8993TIP3    H126936   7.634   0.159   3.318
 8993TIP3    H226937   7.697   0.175   3.455
 8994TIP3   OH226938   0.564   0.394   4.383
 8994TIP3    H126939   0.585   0.483   4.356
 8994TIP3    H226940   0.480   0.375   4.340
 8995TIP3   OH226941   0.178   4.477   2.868
 8995TIP3    H126942   0.085   4.498   2.879
 8995TIP3    H226943   0.217   4.559   2.835
 8996TIP3   OH226944   5.743   4.461   6.391
 8996TIP3    H126945   5.751   4.556   6.387
 8996TIP3    H226946   5.760   4.439   6.483
 8997TIP3   OH226947   7.962   7.086   5.947
 8997TIP3    H126948   7.897   7.028   5.986
 8997TIP3    H226949   7.973   7.156   6.010
 8998TIP3   OH226950   5.276   0.596   1.239
 8998TIP3    H126951   5.212   0.581   1.308
 8998TIP3    H226952   5.233   0.654   1.177
 8999TIP3   OH226953   3.351   0.234   3.066
 8999TIP3    H126954   3.361   0.327   3.047
 8999TIP3    H226955   3.313   0.197   2.986
 9000TIP3   OH226956   2.955   2.054   2.733
 9000TIP3    H126957   3.041   2.014   2.718
 9000TIP3    H226958   2.924   2.017   2.815
 9001TIP3   OH226959   2.988   5.427   1.845
 9001TIP3    H126960   3.044   5.442   1.768
 9001TIP3    H226961   2.925   5.499   1.843
 9002TIP3   OH226962   2.179   5.186   3.956
 9002TIP3    H126963   2.204   5.278   3.940
 9002TIP3    H226964   2.252   5.150   4.006
 9003TIP3   OH226965   6.214   1.180   1.929
 9003TIP3    H126966   6.220   1.086   1.915
 9003TIP3    H226967   6.131   1.205   1.889
 9004TIP3   OH226968   6.284   5.752   6.494
 9004TIP3    H126969   6.215   5.761   6.428
 9004TIP3    H226970   6.278   5.660   6.522
 9005TIP3   OH226971   2.069   7.297   3.992
 9005TIP3    H126972   2.165   7.289   3.992
 9005TIP3    H226973   2.040   7.238   3.922
 9006TIP3   OH226974   6.559   2.409   1.073
 9006TIP3    H126975   6.480   2.463   1.082
 9006TIP3    H226976   6.631   2.472   1.077
 9007TIP3   OH226977   7.759   1.973   2.073
 9007TIP3    H126978   7.834   1.965   2.015
 9007TIP3    H226979   7.794   2.017   2.151
 9008TIP3   OH226980   5.772   6.202   0.690
 9008TIP3    H126981   5.770   6.258   0.767
 9008TIP3    H226982   5.693   6.150   0.696
 9009TIP3   OH226983  -0.001   0.906   4.995
 9009TIP3    H126984  -0.055   0.983   4.980
 9009TIP3    H226985  -0.052   0.834   4.958
 9010TIP3   OH226986   5.183   1.967   5.027
 9010TIP3    H126987   5.151   2.005   5.110
 9010TIP3    H226988   5.278   1.972   5.033
 9011TIP3   OH226989   0.154   6.858   2.177
 9011TIP3    H126990   0.215   6.898   2.239
 9011TIP3    H226991   0.093   6.808   2.231
 9012TIP3   OH226992   5.641   7.584   6.603
 9012TIP3    H126993   5.621   7.528   6.678
 9012TIP3    H226994   5.575   7.562   6.538
 9013TIP3   OH226995   5.382   4.963   1.119
 9013TIP3    H126996   5.465   4.953   1.167
 9013TIP3    H226997   5.369   4.878   1.077
 9014TIP3   OH226998   6.346   4.325   5.041
 9014TIP3    H126999   6.260   4.299   5.009
 9014TIP3    H227000   6.360   4.412   5.004
 9015TIP3   OH227001   4.321   4.584   4.535
 9015TIP3    H127002   4.303   4.678   4.548
 9015TIP3    H227003   4.247   4.553   4.483
 9016TIP3   OH227004   2.287   3.996   1.246
 9016TIP3    H127005   2.322   3.985   1.334
 9016TIP3    H227006   2.265   3.907   1.218
 9017TIP3   OH227007   4.890   2.093   5.348
 9017TIP3    H127008   4.826   2.162   5.364
 9017TIP3    H227009   4.880   2.033   5.422
 9018TIP3   OH227010   6.707   4.996   1.738
 9018TIP3    H127011   6.649   4.940   1.790
 9018TIP3    H227012   6.654   5.074   1.720
 9019TIP3   OH227013   6.603   2.199   4.067
 9019TIP3    H127014   6.615   2.182   3.973
 9019TIP3    H227015   6.642   2.123   4.110
 9020TIP3   OH227016   8.142   3.317   1.812
 9020TIP3    H127017   8.178   3.233   1.783
 9020TIP3    H227018   8.219   3.367   1.840
 9021TIP3   OH227019   6.084   2.596   3.244
 9021TIP3    H127020   5.995   2.623   3.266
 9021TIP3    H227021   6.122   2.566   3.327
 9022TIP3   OH227022   7.530   0.262   5.995
 9022TIP3    H127023   7.490   0.349   6.006
 9022TIP3    H227024   7.478   0.220   5.926
 9023TIP3   OH227025   2.912   1.145   6.028
 9023TIP3    H127026   2.962   1.226   6.026
 9023TIP3    H227027   2.971   1.081   6.067
 9024TIP3   OH227028   2.573   2.425   5.555
 9024TIP3    H127029   2.565   2.393   5.465
 9024TIP3    H227030   2.652   2.382   5.589
 9025TIP3   OH227031   0.321   1.230   2.759
 9025TIP3    H127032   0.254   1.274   2.811
 9025TIP3    H227033   0.291   1.240   2.668
 9026TIP3   OH227034   6.706   0.671   2.468
 9026TIP3    H127035   6.712   0.752   2.519
 9026TIP3    H227036   6.631   0.684   2.410
 9027TIP3   OH227037   8.236   6.219   2.851
 9027TIP3    H127038   8.294   6.206   2.926
 9027TIP3    H227039   8.291   6.261   2.785
 9028TIP3   OH227040   4.456   2.612   3.008
 9028TIP3    H127041   4.424   2.655   2.928
 9028TIP3    H227042   4.377   2.581   3.051
 9029TIP3   OH227043   5.232   4.542   2.332
 9029TIP3    H127044   5.325   4.521   2.329
 9029TIP3    H227045   5.211   4.549   2.425
 9030TIP3   OH227046   5.113   1.919   1.163
 9030TIP3    H127047   5.202   1.887   1.181
 9030TIP3    H227048   5.106   2.000   1.213
 9031TIP3   OH227049   7.978   3.780   3.314
 9031TIP3    H127050   8.040   3.819   3.377
 9031TIP3    H227051   7.921   3.853   3.290
 9032TIP3   OH227052   0.344   2.979   5.654
 9032TIP3    H127053   0.415   2.985   5.718
 9032TIP3    H227054   0.291   3.057   5.670
 9033TIP3   OH227055   5.164   5.448   5.961
 9033TIP3    H127056   5.256   5.451   5.935
 9033TIP3    H227057   5.162   5.481   6.051
 9034TIP3   OH227058   3.454   1.816   5.653
 9034TIP3    H127059   3.528   1.833   5.594
 9034TIP3    H227060   3.494   1.795   5.737
 9035TIP3   OH227061   5.328   5.800   1.246
 9035TIP3    H127062   5.268   5.826   1.315
 9035TIP3    H227063   5.311   5.706   1.234
 9036TIP3   OH227064   8.199   2.909   2.843
 9036TIP3    H127065   8.113   2.880   2.814
 9036TIP3    H227066   8.212   2.864   2.927
 9037TIP3   OH227067   3.777   3.700   1.298
 9037TIP3    H127068   3.865   3.706   1.263
 9037TIP3    H227069   3.789   3.668   1.387
 9038TIP3   OH227070   0.839   6.045   6.724
 9038TIP3    H127071   0.810   5.965   6.681
 9038TIP3    H227072   0.761   6.077   6.770
 9039TIP3   OH227073   6.744   7.107   1.881
 9039TIP3    H127074   6.826   7.107   1.931
 9039TIP3    H227075   6.760   7.046   1.809
 9040TIP3   OH227076   1.465   4.853   5.960
 9040TIP3    H127077   1.468   4.854   5.864
 9040TIP3    H227078   1.549   4.815   5.986
 9041TIP3   OH227079   1.943   3.830   4.071
 9041TIP3    H127080   1.984   3.760   4.122
 9041TIP3    H227081   1.941   3.905   4.131
 9042TIP3   OH227082   4.954   1.775   0.802
 9042TIP3    H127083   4.957   1.862   0.761
 9042TIP3    H227084   5.044   1.760   0.832
 9043TIP3   OH227085   2.306   1.672   5.403
 9043TIP3    H127086   2.320   1.601   5.465
 9043TIP3    H227087   2.363   1.743   5.434
 9044TIP3   OH227088   4.683   5.878   4.072
 9044TIP3    H127089   4.619   5.883   4.144
 9044TIP3    H227090   4.768   5.872   4.116
 9045TIP3   OH227091   3.215   4.312   0.171
 9045TIP3    H127092   3.188   4.355   0.252
 9045TIP3    H227093   3.266   4.378   0.125
 9046TIP3   OH227094   4.778   0.630   4.829
 9046TIP3    H127095   4.693   0.669   4.852
 9046TIP3    H227096   4.830   0.638   4.909
 9047TIP3   OH227097   4.646   1.540   3.881
 9047TIP3    H127098   4.551   1.544   3.886
 9047TIP3    H227099   4.664   1.514   3.791
 9048TIP3   OH227100   1.467   6.635   4.659
 9048TIP3    H127101   1.450   6.599   4.746
 9048TIP3    H227102   1.508   6.719   4.675
 9049TIP3   OH227103   1.603   3.638   6.665
 9049TIP3    H127104   1.615   3.606   6.755
 9049TIP3    H227105   1.633   3.566   6.610
 9050TIP3   OH227106   4.301   2.308   5.411
 9050TIP3    H127107   4.319   2.310   5.317
 9050TIP3    H227108   4.206   2.321   5.417
 9051TIP3   OH227109   6.422   1.774   5.961
 9051TIP3    H127110   6.390   1.685   5.949
 9051TIP3    H227111   6.344   1.829   5.952
 9052TIP3   OH227112   0.085   0.418   4.289
 9052TIP3    H127113   0.098   0.480   4.217
 9052TIP3    H227114   0.114   0.466   4.367
 9053TIP3   OH227115   7.088   6.812   6.357
 9053TIP3    H127116   7.099   6.881   6.291
 9053TIP3    H227117   7.140   6.842   6.432
 9054TIP3   OH227118   3.612   7.290   0.701
 9054TIP3    H127119   3.655   7.283   0.786
 9054TIP3    H227120   3.645   7.371   0.663
 9055TIP3   OH227121   3.742   4.570   4.324
 9055TIP3    H127122   3.720   4.486   4.286
 9055TIP3    H227123   3.805   4.549   4.393
 9056TIP3   OH227124   1.917   4.015   4.760
 9056TIP3    H127125   1.887   3.950   4.824
 9056TIP3    H227126   1.894   4.099   4.798
 9057TIP3   OH227127   1.896   4.386   0.926
 9057TIP3    H127128   1.828   4.400   0.861
 9057TIP3    H227129   1.866   4.433   1.004
 9058TIP3   OH227130   7.430   4.661   2.490
 9058TIP3    H127131   7.394   4.597   2.429
 9058TIP3    H227132   7.440   4.741   2.437
 9059TIP3   OH227133   5.222   3.631   0.155
 9059TIP3    H127134   5.179   3.705   0.113
 9059TIP3    H227135   5.289   3.603   0.093
 9060TIP3   OH227136   4.982   1.999   2.966
 9060TIP3    H127137   5.036   2.026   2.892
 9060TIP3    H227138   4.911   1.949   2.927
 9061TIP3   OH227139   0.170   3.820   1.740
 9061TIP3    H127140   0.100   3.755   1.751
 9061TIP3    H227141   0.127   3.894   1.698
 9062TIP3   OH227142   6.834   4.127   6.371
 9062TIP3    H127143   6.766   4.180   6.329
 9062TIP3    H227144   6.866   4.181   6.443
 9063TIP3   OH227145   2.421   1.789   3.253
 9063TIP3    H127146   2.440   1.754   3.166
 9063TIP3    H227147   2.506   1.791   3.298
 9064TIP3   OH227148   3.798   1.958   1.025
 9064TIP3    H127149   3.731   1.910   0.976
 9064TIP3    H227150   3.779   1.937   1.117
 9065TIP3   OH227151   1.717   4.676   4.671
 9065TIP3    H127152   1.652   4.745   4.660
 9065TIP3    H227153   1.714   4.654   4.764
 9066TIP3   OH227154   6.196   2.001   5.556
 9066TIP3    H127155   6.196   1.905   5.554
 9066TIP3    H227156   6.281   2.026   5.520
 9067TIP3   OH227157   3.506   4.652   4.168
 9067TIP3    H127158   3.589   4.649   4.215
 9067TIP3    H227159   3.472   4.562   4.172
 9068TIP3   OH227160   6.457   5.158   4.707
 9068TIP3    H127161   6.536   5.133   4.755
 9068TIP3    H227162   6.395   5.185   4.775
 9069TIP3   OH227163   0.910   3.180   2.529
 9069TIP3    H127164   0.963   3.118   2.579
 9069TIP3    H227165   0.824   3.176   2.570
 9070TIP3   OH227166   5.876   3.206   4.423
 9070TIP3    H127167   5.841   3.124   4.459
 9070TIP3    H227168   5.803   3.243   4.373
 9071TIP3   OH227169   3.598   7.221   4.998
 9071TIP3    H127170   3.551   7.208   4.915
 9071TIP3    H227171   3.621   7.133   5.027
 9072TIP3   OH227172   5.748   3.515   3.138
 9072TIP3    H127173   5.755   3.573   3.062
 9072TIP3    H227174   5.653   3.503   3.150
 9073TIP3   OH227175   4.802   2.064   1.313
 9073TIP3    H127176   4.778   2.142   1.363
 9073TIP3    H227177   4.780   1.990   1.370
 9074TIP3   OH227178   0.935   7.505   2.892
 9074TIP3    H127179   0.872   7.471   2.955
 9074TIP3    H227180   0.885   7.520   2.812
 9075TIP3   OH227181   1.839   0.499   2.412
 9075TIP3    H127182   1.809   0.489   2.503
 9075TIP3    H227183   1.764   0.471   2.359
 9076TIP3   OH227184   2.237   6.310   1.947
 9076TIP3    H127185   2.198   6.386   1.990
 9076TIP3    H227186   2.252   6.247   2.018
 9077TIP3   OH227187   1.256   4.895   0.274
 9077TIP3    H127188   1.203   4.864   0.348
 9077TIP3    H227189   1.345   4.869   0.296
 9078TIP3   OH227190   2.950   6.573   0.768
 9078TIP3    H127191   2.899   6.587   0.848
 9078TIP3    H227192   3.031   6.622   0.783
 9079TIP3   OH227193   2.358   4.670   6.458
 9079TIP3    H127194   2.305   4.719   6.395
 9079TIP3    H227195   2.389   4.737   6.520
 9080TIP3   OH227196   6.810   5.366   4.896
 9080TIP3    H127197   6.771   5.438   4.847
 9080TIP3    H227198   6.786   5.288   4.845
 9081TIP3   OH227199  -0.045   0.463   4.626
 9081TIP3    H127200   0.022   0.426   4.684
 9081TIP3    H227201   0.002   0.528   4.574
 9082TIP3   OH227202   4.275   1.280   4.677
 9082TIP3    H127203   4.234   1.366   4.688
 9082TIP3    H227204   4.359   1.298   4.634
 9083TIP3   OH227205   8.111   7.363   1.842
 9083TIP3    H127206   8.100   7.285   1.787
 9083TIP3    H227207   8.197   7.353   1.882
 9084TIP3   OH227208   5.884   5.779   3.987
 9084TIP3    H127209   5.916   5.858   3.945
 9084TIP3    H227210   5.873   5.803   4.079
 9085TIP3   OH227211   2.140   7.858   4.666
 9085TIP3    H127212   2.133   7.836   4.573
 9085TIP3    H227213   2.148   7.774   4.710
 9086TIP3   OH227214   0.816   5.631   4.385
 9086TIP3    H127215   0.780   5.719   4.400
 9086TIP3    H227216   0.910   5.643   4.388
 9087TIP3   OH227217   0.050   7.756   5.924
 9087TIP3    H127218   0.145   7.747   5.928
 9087TIP3    H227219   0.033   7.847   5.949
 9088TIP3   OH227220   6.229   5.186   6.577
 9088TIP3    H127221   6.257   5.188   6.486
 9088TIP3    H227222   6.266   5.105   6.612
 9089TIP3   OH227223   6.050   0.994   5.024
 9089TIP3    H127224   6.062   1.028   5.113
 9089TIP3    H227225   6.025   1.072   4.973
 9090TIP3   OH227226   5.878   4.944   6.690
 9090TIP3    H127227   5.878   4.972   6.782
 9090TIP3    H227228   5.939   4.871   6.687
 9091TIP3   OH227229   6.528   0.052   5.080
 9091TIP3    H127230   6.567   0.115   5.141
 9091TIP3    H227231   6.440   0.087   5.063
 9092TIP3   OH227232   5.431   0.452   0.967
 9092TIP3    H127233   5.377   0.519   1.010
 9092TIP3    H227234   5.429   0.476   0.874
 9093TIP3   OH227235   4.459   0.758   5.501
 9093TIP3    H127236   4.494   0.840   5.466
 9093TIP3    H227237   4.462   0.698   5.426
 9094TIP3   OH227238   7.615   4.724   3.862
 9094TIP3    H127239   7.651   4.660   3.801
 9094TIP3    H227240   7.665   4.712   3.942
 9095TIP3   OH227241   8.225   6.077   0.321
 9095TIP3    H127242   8.179   6.154   0.355
 9095TIP3    H227243   8.229   6.017   0.396
 9096TIP3   OH227244   4.998   1.546   0.957
 9096TIP3    H127245   4.975   1.624   0.908
 9096TIP3    H227246   5.036   1.579   1.039
 9097TIP3   OH227247   6.680   1.960   1.756
 9097TIP3    H127248   6.664   1.919   1.672
 9097TIP3    H227249   6.648   2.050   1.746
 9098TIP3   OH227250   2.302   0.501   3.725
 9098TIP3    H127251   2.343   0.452   3.797
 9098TIP3    H227252   2.214   0.519   3.756
 9099TIP3   OH227253   4.732   2.125   0.564
 9099TIP3    H127254   4.819   2.109   0.601
 9099TIP3    H227255   4.715   2.217   0.580
 9100TIP3   OH227256   1.976   0.582   4.791
 9100TIP3    H127257   1.954   0.563   4.700
 9100TIP3    H227258   2.070   0.566   4.796
 9101TIP3   OH227259   4.217   6.067   2.184
 9101TIP3    H127260   4.126   6.092   2.168
 9101TIP3    H227261   4.247   6.128   2.251
 9102TIP3   OH227262   7.438   2.526   4.002
 9102TIP3    H127263   7.374   2.580   4.049
 9102TIP3    H227264   7.440   2.562   3.914
 9103TIP3   OH227265   3.792   6.649   1.506
 9103TIP3    H127266   3.808   6.591   1.432
 9103TIP3    H227267   3.705   6.686   1.489
 9104TIP3   OH227268   3.873   0.457   6.696
 9104TIP3    H127269   3.900   0.544   6.668
 9104TIP3    H227270   3.853   0.467   6.790
 9105TIP3   OH227271   7.056   6.923   0.660
 9105TIP3    H127272   7.076   6.893   0.571
 9105TIP3    H227273   7.047   6.843   0.711
 9106TIP3   OH227274   4.299   5.071   4.162
 9106TIP3    H127275   4.349   5.112   4.233
 9106TIP3    H227276   4.364   5.046   4.097
 9107TIP3   OH227277   4.644   2.635   2.538
 9107TIP3    H127278   4.669   2.580   2.464
 9107TIP3    H227279   4.581   2.698   2.502
 9108TIP3   OH227280   7.561   1.370   0.164
 9108TIP3    H127281   7.512   1.451   0.149
 9108TIP3    H227282   7.495   1.306   0.189
 9109TIP3   OH227283   6.475   2.660   5.117
 9109TIP3    H127284   6.475   2.611   5.199
 9109TIP3    H227285   6.415   2.732   5.132
 9110TIP3   OH227286   6.538   1.625   1.134
 9110TIP3    H127287   6.601   1.636   1.205
 9110TIP3    H227288   6.579   1.668   1.059
 9111TIP3   OH227289   2.170   2.259   2.199
 9111TIP3    H127290   2.205   2.180   2.157
 9111TIP3    H227291   2.086   2.231   2.236
 9112TIP3   OH227292   2.691   4.414   0.249
 9112TIP3    H127293   2.648   4.495   0.223
 9112TIP3    H227294   2.622   4.362   0.291
 9113TIP3   OH227295   6.530   3.969   5.589
 9113TIP3    H127296   6.453   3.916   5.573
 9113TIP3    H227297   6.570   3.980   5.503
 9114TIP3   OH227298   2.400   3.199   6.750
 9114TIP3    H127299   2.386   3.293   6.755
 9114TIP3    H227300   2.331   3.161   6.803
 9115TIP3   OH227301   1.804   3.849   0.041
 9115TIP3    H127302   1.798   3.813  -0.047
 9115TIP3    H227303   1.713   3.864   0.067
 9116TIP3   OH227304   5.043   7.678   5.872
 9116TIP3    H127305   5.096   7.738   5.819
 9116TIP3    H227306   5.081   7.592   5.857
 9117TIP3   OH227307   5.187   1.004   6.710
 9117TIP3    H127308   5.098   1.038   6.721
 9117TIP3    H227309   5.179   0.910   6.725
 9118TIP3   OH227310   3.000   7.107   4.222
 9118TIP3    H127311   2.958   7.033   4.179
 9118TIP3    H227312   3.048   7.069   4.296
 9119TIP3   OH227313   6.914   5.362   2.892
 9119TIP3    H127314   7.009   5.356   2.903
 9119TIP3    H227315   6.902   5.380   2.799
 9120TIP3   OH227316   0.489   3.966   6.105
 9120TIP3    H127317   0.407   3.951   6.058
 9120TIP3    H227318   0.493   4.061   6.117
 9121TIP3   OH227319   7.185   1.561   2.914
 9121TIP3    H127320   7.186   1.604   2.828
 9121TIP3    H227321   7.208   1.470   2.895
 9122TIP3   OH227322   3.281   7.732   0.195
 9122TIP3    H127323   3.195   7.696   0.171
 9122TIP3    H227324   3.326   7.743   0.111
 9123TIP3   OH227325   3.146   7.766   4.341
 9123TIP3    H127326   3.083   7.700   4.313
 9123TIP3    H227327   3.095   7.847   4.349
 9124TIP3   OH227328   6.903   0.363   2.619
 9124TIP3    H127329   6.898   0.340   2.711
 9124TIP3    H227330   6.996   0.371   2.601
 9125TIP3   OH227331   4.632   5.561   4.068
 9125TIP3    H127332   4.693   5.619   4.022
 9125TIP3    H227333   4.668   5.473   4.055
 9126TIP3   OH227334   4.897   4.140   2.897
 9126TIP3    H127335   4.987   4.122   2.872
 9126TIP3    H227336   4.861   4.189   2.822
 9127TIP3   OH227337   3.104   0.805   1.421
 9127TIP3    H127338   3.050   0.749   1.477
 9127TIP3    H227339   3.168   0.746   1.383
 9128TIP3   OH227340   7.980   5.270   4.175
 9128TIP3    H127341   7.899   5.311   4.205
 9128TIP3    H227342   8.040   5.344   4.161
 9129TIP3   OH227343   0.454   4.855   3.667
 9129TIP3    H127344   0.426   4.946   3.671
 9129TIP3    H227345   0.545   4.857   3.699
 9130TIP3   OH227346   2.577   4.338   5.684
 9130TIP3    H127347   2.487   4.369   5.700
 9130TIP3    H227348   2.610   4.397   5.616
 9131TIP3   OH227349   6.832   1.232   6.045
 9131TIP3    H127350   6.841   1.138   6.031
 9131TIP3    H227351   6.918   1.268   6.020
 9132TIP3   OH227352   3.907   4.698   3.351
 9132TIP3    H127353   3.868   4.774   3.309
 9132TIP3    H227354   3.987   4.682   3.303
 9133TIP3   OH227355   7.045   4.754   3.322
 9133TIP3    H127356   7.003   4.737   3.237
 9133TIP3    H227357   6.986   4.815   3.366
 9134TIP3   OH227358   4.095   4.219   6.268
 9134TIP3    H127359   4.096   4.182   6.180
 9134TIP3    H227360   4.164   4.172   6.314
 9135TIP3   OH227361   0.501   2.492   4.703
 9135TIP3    H127362   0.558   2.420   4.732
 9135TIP3    H227363   0.558   2.569   4.705
 9136TIP3   OH227364   1.652   1.532   3.782
 9136TIP3    H127365   1.584   1.575   3.833
 9136TIP3    H227366   1.678   1.457   3.835
 9137TIP3   OH227367   6.521   6.755   1.537
 9137TIP3    H127368   6.601   6.780   1.585
 9137TIP3    H227369   6.548   6.752   1.446
 9138TIP3   OH227370   3.314   2.164   2.438
 9138TIP3    H127371   3.393   2.163   2.384
 9138TIP3    H227372   3.344   2.135   2.524
 9139TIP3   OH227373   3.486   7.033   4.767
 9139TIP3    H127374   3.544   7.023   4.691
 9139TIP3    H227375   3.520   6.971   4.831
 9140TIP3   OH227376   3.989   1.378   4.439
 9140TIP3    H127377   4.043   1.314   4.486
 9140TIP3    H227378   4.030   1.463   4.457
 9141TIP3   OH227379   6.527   7.685   1.339
 9141TIP3    H127380   6.463   7.707   1.407
 9141TIP3    H227381   6.579   7.614   1.377
 9142TIP3   OH227382   8.293   6.635   4.184
 9142TIP3    H127383   8.229   6.568   4.160
 9142TIP3    H227384   8.269   6.710   4.130
 9143TIP3   OH227385   7.329   4.246   5.245
 9143TIP3    H127386   7.319   4.293   5.327
 9143TIP3    H227387   7.241   4.217   5.223
 9144TIP3   OH227388   3.119   1.260   3.909
 9144TIP3    H127389   3.214   1.256   3.900
 9144TIP3    H227390   3.086   1.199   3.843
 9145TIP3   OH227391   0.488   5.938   4.490
 9145TIP3    H127392   0.576   5.923   4.458
 9145TIP3    H227393   0.456   5.852   4.516
 9146TIP3   OH227394   0.106   3.653   2.179
 9146TIP3    H127395   0.201   3.663   2.186
 9146TIP3    H227396   0.072   3.699   2.255
 9147TIP3   OH227397   3.781   0.957   0.571
 9147TIP3    H127398   3.821   0.894   0.630
 9147TIP3    H227399   3.713   1.000   0.623
 9148TIP3   OH227400   5.597   1.194   4.828
 9148TIP3    H127401   5.562   1.133   4.763
 9148TIP3    H227402   5.582   1.281   4.790
 9149TIP3   OH227403   0.526   2.283   2.993
 9149TIP3    H127404   0.440   2.322   3.008
 9149TIP3    H227405   0.582   2.321   3.061
 9150TIP3   OH227406   1.902   0.214   5.268
 9150TIP3    H127407   1.973   0.167   5.311
 9150TIP3    H227408   1.848   0.146   5.228
 9151TIP3   OH227409   5.063   2.449   0.872
 9151TIP3    H127410   5.089   2.523   0.926
 9151TIP3    H227411   4.973   2.429   0.899
 9152TIP3   OH227412   6.596   5.263   1.932
 9152TIP3    H127413   6.524   5.239   1.990
 9152TIP3    H227414   6.581   5.212   1.852
 9153TIP3   OH227415   3.705   0.740   2.670
 9153TIP3    H127416   3.763   0.755   2.596
 9153TIP3    H227417   3.730   0.654   2.705
 9154TIP3   OH227418   4.856   4.683   3.169
 9154TIP3    H127419   4.849   4.722   3.082
 9154TIP3    H227420   4.937   4.719   3.205
 9155TIP3   OH227421   0.587   0.385   2.995
 9155TIP3    H127422   0.544   0.343   2.921
 9155TIP3    H227423   0.674   0.407   2.963
 9156TIP3   OH227424   7.861   3.325   1.366
 9156TIP3    H127425   7.908   3.271   1.429
 9156TIP3    H227426   7.831   3.264   1.299
 9157TIP3   OH227427   6.759   3.731   2.312
 9157TIP3    H127428   6.763   3.767   2.401
 9157TIP3    H227429   6.666   3.711   2.299
 9158TIP3   OH227430   7.766   7.739   3.342
 9158TIP3    H127431   7.777   7.828   3.376
 9158TIP3    H227432   7.842   7.725   3.286
 9159TIP3   OH227433   7.018   4.444   2.352
 9159TIP3    H127434   6.926   4.458   2.374
 9159TIP3    H227435   7.017   4.365   2.297
 9160TIP3   OH227436   7.399   2.281   3.002
 9160TIP3    H127437   7.439   2.367   3.015
 9160TIP3    H227438   7.458   2.220   3.047
 9161TIP3   OH227439   1.877   1.568   5.650
 9161TIP3    H127440   1.844   1.533   5.567
 9161TIP3    H227441   1.812   1.633   5.677
 9162TIP3   OH227442   0.295   2.260   0.656
 9162TIP3    H127443   0.351   2.335   0.675
 9162TIP3    H227444   0.206   2.297   0.654
 9163TIP3   OH227445   0.264   1.480   0.618
 9163TIP3    H127446   0.183   1.431   0.630
 9163TIP3    H227447   0.320   1.422   0.566
 9164TIP3   OH227448   5.107   1.845   2.009
 9164TIP3    H127449   5.024   1.890   1.990
 9164TIP3    H227450   5.147   1.898   2.078
 9165TIP3   OH227451   0.035   5.449   2.847
 9165TIP3    H127452  -0.044   5.453   2.794
 9165TIP3    H227453   0.091   5.519   2.812
 9166TIP3   OH227454   6.642   1.738   4.143
 9166TIP3    H127455   6.565   1.695   4.182
 9166TIP3    H227456   6.700   1.665   4.120
 9167TIP3   OH227457   1.117   2.498   6.141
 9167TIP3    H127458   1.203   2.503   6.099
 9167TIP3    H227459   1.058   2.536   6.076
 9168TIP3   OH227460   7.844   3.697   1.734
 9168TIP3    H127461   7.906   3.651   1.790
 9168TIP3    H227462   7.759   3.659   1.755
 9169TIP3   OH227463   7.918   7.314   3.729
 9169TIP3    H127464   8.006   7.277   3.739
 9169TIP3    H227465   7.927   7.378   3.658
 9170TIP3   OH227466   0.523   7.282   2.289
 9170TIP3    H127467   0.434   7.303   2.319
 9170TIP3    H227468   0.526   7.186   2.292
 9171TIP3   OH227469   7.615   5.789   6.093
 9171TIP3    H127470   7.578   5.877   6.099
 9171TIP3    H227471   7.552   5.739   6.041
 9172TIP3   OH227472   2.936   6.308   3.530
 9172TIP3    H127473   2.900   6.395   3.511
 9172TIP3    H227474   2.940   6.264   3.445
 9173TIP3   OH227475   0.656   1.451   0.112
 9173TIP3    H127476   0.714   1.387   0.154
 9173TIP3    H227477   0.591   1.472   0.179
 9174TIP3   OH227478   2.850   1.921   1.656
 9174TIP3    H127479   2.938   1.917   1.692
 9174TIP3    H227480   2.792   1.917   1.732
 9175TIP3   OH227481   5.859   0.359   5.790
 9175TIP3    H127482   5.791   0.307   5.833
 9175TIP3    H227483   5.819   0.444   5.777
 9176TIP3   OH227484   7.928   4.128   3.655
 9176TIP3    H127485   7.952   4.140   3.563
 9176TIP3    H227486   7.851   4.184   3.667
 9177TIP3   OH227487   3.936   0.535   0.897
 9177TIP3    H127488   4.012   0.515   0.843
 9177TIP3    H227489   3.898   0.450   0.919
 9178TIP3   OH227490   4.143   0.524   2.087
 9178TIP3    H127491   4.094   0.461   2.141
 9178TIP3    H227492   4.235   0.503   2.104
 9179TIP3   OH227493   3.101   0.553   1.711
 9179TIP3    H127494   3.157   0.583   1.782
 9179TIP3    H227495   3.080   0.463   1.733
 9180TIP3   OH227496   4.229   5.811   6.546
 9180TIP3    H127497   4.320   5.796   6.574
 9180TIP3    H227498   4.233   5.809   6.451
 9181TIP3   OH227499   5.574   3.347   6.724
 9181TIP3    H127500   5.512   3.420   6.728
 9181TIP3    H227501   5.527   3.278   6.677
 9182TIP3   OH227502   5.144   6.124   4.746
 9182TIP3    H127503   5.062   6.082   4.771
 9182TIP3    H227504   5.118   6.210   4.714
 9183TIP3   OH227505   1.291   2.104   2.685
 9183TIP3    H127506   1.230   2.101   2.612
 9183TIP3    H227507   1.272   2.187   2.729
 9184TIP3   OH227508   2.330   6.245   5.708
 9184TIP3    H127509   2.294   6.189   5.777
 9184TIP3    H227510   2.316   6.195   5.627
 9185TIP3   OH227511   2.872   4.868   5.670
 9185TIP3    H127512   2.795   4.822   5.701
 9185TIP3    H227513   2.838   4.947   5.627
 9186TIP3   OH227514   1.919   5.216   4.089
 9186TIP3    H127515   2.015   5.221   4.084
 9186TIP3    H227516   1.889   5.280   4.024
 9187TIP3   OH227517   3.699   0.754   1.225
 9187TIP3    H127518   3.655   0.670   1.213
 9187TIP3    H227519   3.791   0.736   1.207
 9188TIP3   OH227520   7.681   4.560   6.132
 9188TIP3    H127521   7.638   4.516   6.205
 9188TIP3    H227522   7.649   4.515   6.054
 9189TIP3   OH227523   5.903   7.574   3.829
 9189TIP3    H127524   5.928   7.533   3.747
 9189TIP3    H227525   5.851   7.650   3.803
 9190TIP3   OH227526   3.059   3.500   1.114
 9190TIP3    H127527   3.002   3.487   1.190
 9190TIP3    H227528   3.127   3.433   1.123
 9191TIP3   OH227529   6.603   0.993   1.938
 9191TIP3    H127530   6.540   0.951   1.995
 9191TIP3    H227531   6.584   0.958   1.851
 9192TIP3   OH227532   1.305   0.330   0.728
 9192TIP3    H127533   1.339   0.294   0.811
 9192TIP3    H227534   1.378   0.378   0.691
 9193TIP3   OH227535   5.557   6.715   2.127
 9193TIP3    H127536   5.641   6.759   2.114
 9193TIP3    H227537   5.492   6.785   2.120
 9194TIP3   OH227538   5.596   6.330   2.817
 9194TIP3    H127539   5.534   6.265   2.785
 9194TIP3    H227540   5.680   6.285   2.818
 9195TIP3   OH227541   2.630   0.636   3.025
 9195TIP3    H127542   2.644   0.572   3.094
 9195TIP3    H227543   2.535   0.645   3.019
 9196TIP3   OH227544   2.431   4.502   4.191
 9196TIP3    H127545   2.400   4.420   4.153
 9196TIP3    H227546   2.376   4.515   4.268
 9197TIP3   OH227547   2.949   7.616   6.381
 9197TIP3    H127548   2.961   7.639   6.473
 9197TIP3    H227549   2.892   7.540   6.382
 9198TIP3   OH227550   6.437   3.898   0.750
 9198TIP3    H127551   6.367   3.959   0.730
 9198TIP3    H227552   6.512   3.929   0.699
 9199TIP3   OH227553   5.427   3.344   4.959
 9199TIP3    H127554   5.478   3.425   4.969
 9199TIP3    H227555   5.347   3.360   5.008
 9200TIP3   OH227556   3.598   2.631   2.375
 9200TIP3    H127557   3.535   2.695   2.342
 9200TIP3    H227558   3.545   2.558   2.407
 9201TIP3   OH227559   7.854   0.794   5.059
 9201TIP3    H127560   7.891   0.714   5.021
 9201TIP3    H227561   7.851   0.856   4.985
 9202TIP3   OH227562   7.504   7.141   0.914
 9202TIP3    H127563   7.509   7.091   0.996
 9202TIP3    H227564   7.431   7.201   0.928
 9203TIP3   OH227565   4.355   1.418   3.802
 9203TIP3    H127566   4.433   1.368   3.776
 9203TIP3    H227567   4.283   1.375   3.755
 9204TIP3   OH227568   7.628   6.255   5.219
 9204TIP3    H127569   7.595   6.303   5.294
 9204TIP3    H227570   7.719   6.234   5.242
 9205TIP3   OH227571   0.575   2.198   3.601
 9205TIP3    H127572   0.572   2.155   3.516
 9205TIP3    H227573   0.490   2.240   3.611
 9206TIP3   OH227574   5.384   2.575   4.071
 9206TIP3    H127575   5.369   2.580   4.165
 9206TIP3    H227576   5.479   2.564   4.062
 9207TIP3   OH227577   0.785   3.608   3.541
 9207TIP3    H127578   0.756   3.551   3.612
 9207TIP3    H227579   0.843   3.553   3.488
 9208TIP3   OH227580   7.965   5.605   6.767
 9208TIP3    H127581   7.990   5.542   6.835
 9208TIP3    H227582   8.026   5.588   6.695
 9209TIP3   OH227583   7.438   6.562   6.074
 9209TIP3    H127584   7.490   6.529   6.001
 9209TIP3    H227585   7.413   6.650   6.048
 9210TIP3   OH227586   3.361   7.406   0.859
 9210TIP3    H127587   3.456   7.399   0.867
 9210TIP3    H227588   3.328   7.317   0.874
 9211TIP3   OH227589   0.869   5.282   0.570
 9211TIP3    H127590   0.876   5.194   0.607
 9211TIP3    H227591   0.953   5.296   0.526
 9212TIP3   OH227592   3.950   7.211   3.448
 9212TIP3    H127593   3.914   7.269   3.514
 9212TIP3    H227594   3.899   7.130   3.456
 9213TIP3   OH227595   6.209   2.999   0.514
 9213TIP3    H127596   6.262   3.078   0.525
 9213TIP3    H227597   6.120   3.028   0.533
 9214TIP3   OH227598   5.919   5.756   0.405
 9214TIP3    H127599   5.913   5.851   0.402
 9214TIP3    H227600   5.996   5.738   0.459
 9215TIP3   OH227601   2.475   1.271   4.507
 9215TIP3    H127602   2.458   1.208   4.577
 9215TIP3    H227603   2.401   1.331   4.510
 9216TIP3   OH227604   4.561   5.822   3.833
 9216TIP3    H127605   4.467   5.838   3.829
 9216TIP3    H227606   4.588   5.852   3.920
 9217TIP3   OH227607   0.045   1.054   4.420
 9217TIP3    H127608   0.073   1.026   4.333
 9217TIP3    H227609   0.126   1.063   4.470
 9218TIP3   OH227610   2.954   7.662   5.206
 9218TIP3    H127611   2.954   7.598   5.135
 9218TIP3    H227612   2.985   7.613   5.283
 9219TIP3   OH227613   7.331   5.444   4.458
 9219TIP3    H127614   7.319   5.397   4.540
 9219TIP3    H227615   7.327   5.536   4.482
 9220TIP3   OH227616   4.222   1.266   6.675
 9220TIP3    H127617   4.256   1.301   6.593
 9220TIP3    H227618   4.265   1.318   6.744
 9221TIP3   OH227619   4.248   1.010   4.792
 9221TIP3    H127620   4.279   0.999   4.881
 9221TIP3    H227621   4.243   1.105   4.779
 9222TIP3   OH227622   4.822   1.116   1.020
 9222TIP3    H127623   4.843   1.122   0.927
 9222TIP3    H227624   4.907   1.101   1.063
 9223TIP3   OH227625   6.373   6.898   5.225
 9223TIP3    H127626   6.387   6.943   5.142
 9223TIP3    H227627   6.278   6.893   5.235
 9224TIP3   OH227628   4.690   3.246   5.634
 9224TIP3    H127629   4.630   3.223   5.705
 9224TIP3    H227630   4.668   3.185   5.564
 9225TIP3   OH227631   5.996   1.561   1.423
 9225TIP3    H127632   5.904   1.541   1.440
 9225TIP3    H227633   6.028   1.596   1.505
 9226TIP3   OH227634   1.278   2.649   1.588
 9226TIP3    H127635   1.284   2.596   1.508
 9226TIP3    H227636   1.301   2.737   1.559
 9227TIP3   OH227637   4.812   2.641   1.206
 9227TIP3    H127638   4.727   2.598   1.194
 9227TIP3    H227639   4.796   2.704   1.276
 9228TIP3   OH227640   1.579   4.706   5.269
 9228TIP3    H127641   1.617   4.754   5.195
 9228TIP3    H227642   1.637   4.632   5.282
 9229TIP3   OH227643   2.062   4.154   0.927
 9229TIP3    H127644   2.008   4.232   0.922
 9229TIP3    H227645   2.009   4.085   0.889
 9230TIP3   OH227646   3.266   3.515   4.210
 9230TIP3    H127647   3.249   3.560   4.292
 9230TIP3    H227648   3.181   3.480   4.183
 9231TIP3   OH227649   4.800   3.896   6.181
 9231TIP3    H127650   4.732   3.832   6.159
 9231TIP3    H227651   4.863   3.848   6.235
 9232TIP3   OH227652   3.606   1.392   6.102
 9232TIP3    H127653   3.613   1.307   6.146
 9232TIP3    H227654   3.687   1.437   6.122
 9233TIP3   OH227655   1.909   2.975   3.635
 9233TIP3    H127656   1.838   3.033   3.665
 9233TIP3    H227657   1.900   2.973   3.540
 9234TIP3   OH227658   2.518   0.810   5.424
 9234TIP3    H127659   2.570   0.818   5.503
 9234TIP3    H227660   2.467   0.891   5.420
 9235TIP3   OH227661   5.625   2.808   4.170
 9235TIP3    H127662   5.630   2.879   4.234
 9235TIP3    H227663   5.546   2.826   4.120
 9236TIP3   OH227664   5.449   0.123   3.269
 9236TIP3    H127665   5.393   0.161   3.337
 9236TIP3    H227666   5.390   0.111   3.194
 9237TIP3   OH227667   2.527   3.794   1.681
 9237TIP3    H127668   2.547   3.833   1.766
 9237TIP3    H227669   2.486   3.710   1.701
 9238TIP3   OH227670   5.537   0.834   5.425
 9238TIP3    H127671   5.613   0.822   5.483
 9238TIP3    H227672   5.495   0.748   5.424
 9239TIP3   OH227673   7.832   5.589   2.516
 9239TIP3    H127674   7.885   5.599   2.437
 9239TIP3    H227675   7.839   5.674   2.559
 9240TIP3   OH227676   1.490   7.064   0.702
 9240TIP3    H127677   1.454   7.092   0.618
 9240TIP3    H227678   1.584   7.078   0.694
 9241TIP3   OH227679   5.062   3.841   3.662
 9241TIP3    H127680   5.126   3.802   3.722
 9241TIP3    H227681   4.992   3.872   3.719
 9242TIP3   OH227682   6.441   1.987   5.444
 9242TIP3    H127683   6.506   1.944   5.389
 9242TIP3    H227684   6.456   1.952   5.532
 9243TIP3   OH227685   5.038   4.807   2.732
 9243TIP3    H127686   5.108   4.848   2.784
 9243TIP3    H227687   5.024   4.867   2.659
 9244TIP3   OH227688   2.502   7.697   4.832
 9244TIP3    H127689   2.498   7.747   4.913
 9244TIP3    H227690   2.576   7.735   4.784
 9245TIP3   OH227691   0.438   0.779   5.089
 9245TIP3    H127692   0.428   0.749   4.999
 9245TIP3    H227693   0.351   0.811   5.113
 9246TIP3   OH227694   1.773   4.931   5.174
 9246TIP3    H127695   1.694   4.947   5.225
 9246TIP3    H227696   1.810   5.018   5.159
 9247TIP3   OH227697   2.778   4.011   0.744
 9247TIP3    H127698   2.780   3.944   0.812
 9247TIP3    H227699   2.726   4.082   0.782
 9248TIP3   OH227700   3.368   2.958   5.420
 9248TIP3    H127701   3.340   2.866   5.411
 9248TIP3    H227702   3.393   2.984   5.332
 9249TIP3   OH227703   3.466   6.285   0.364
 9249TIP3    H127704   3.423   6.201   0.350
 9249TIP3    H227705   3.450   6.334   0.283
 9250TIP3   OH227706   2.794   0.960   0.434
 9250TIP3    H127707   2.726   0.995   0.377
 9250TIP3    H227708   2.795   0.866   0.415
 9251TIP3   OH227709   7.808   7.190   1.277
 9251TIP3    H127710   7.807   7.208   1.372
 9251TIP3    H227711   7.727   7.230   1.245
 9252TIP3   OH227712   7.087   3.810   0.739
 9252TIP3    H127713   7.119   3.720   0.739
 9252TIP3    H227714   6.992   3.803   0.748
 9253TIP3   OH227715   0.268   2.101   3.653
 9253TIP3    H127716   0.337   2.051   3.609
 9253TIP3    H227717   0.220   2.035   3.703
 9254TIP3   OH227718   3.800   1.051   6.277
 9254TIP3    H127719   3.812   1.139   6.242
 9254TIP3    H227720   3.845   0.993   6.215
 9255TIP3   OH227721   8.004   2.798   4.346
 9255TIP3    H127722   7.951   2.845   4.281
 9255TIP3    H227723   7.961   2.712   4.354
 9256TIP3   OH227724   5.206   7.358   0.020
 9256TIP3    H127725   5.286   7.360   0.072
 9256TIP3    H227726   5.141   7.402   0.075
 9257TIP3   OH227727   1.049   1.502   5.268
 9257TIP3    H127728   0.986   1.433   5.289
 9257TIP3    H227729   1.131   1.471   5.306
 9258TIP3   OH227730   4.749   6.935   1.992
 9258TIP3    H127731   4.786   6.873   1.930
 9258TIP3    H227732   4.687   6.884   2.044
 9259TIP3   OH227733   1.708   3.091   3.772
 9259TIP3    H127734   1.724   3.112   3.864
 9259TIP3    H227735   1.614   3.105   3.760
 9260TIP3   OH227736   4.473   1.614   6.587
 9260TIP3    H127737   4.428   1.673   6.648
 9260TIP3    H227738   4.561   1.605   6.624
 9261TIP3   OH227739   4.129   1.470   0.501
 9261TIP3    H127740   4.041   1.506   0.506
 9261TIP3    H227741   4.186   1.544   0.526
 9262TIP3   OH227742   5.613   2.214   1.771
 9262TIP3    H127743   5.619   2.302   1.734
 9262TIP3    H227744   5.580   2.160   1.699
 9263TIP3   OH227745   7.431   5.450   6.617
 9263TIP3    H127746   7.346   5.493   6.631
 9263TIP3    H227747   7.409   5.371   6.568
 9264TIP3   OH227748   4.849   4.301   6.522
 9264TIP3    H127749   4.936   4.265   6.541
 9264TIP3    H227750   4.839   4.372   6.585
 9265TIP3   OH227751   0.211   0.286   2.018
 9265TIP3    H127752   0.213   0.344   2.095
 9265TIP3    H227753   0.297   0.297   1.978
 9266TIP3   OH227754   5.213   1.689   0.826
 9266TIP3    H127755   5.269   1.660   0.898
 9266TIP3    H227756   5.269   1.743   0.771
 9267TIP3   OH227757   5.876   3.909   3.705
 9267TIP3    H127758   5.901   4.001   3.704
 9267TIP3    H227759   5.955   3.862   3.730
 9268TIP3   OH227760   1.730   0.870   3.136
 9268TIP3    H127761   1.768   0.785   3.114
 9268TIP3    H227762   1.797   0.912   3.191
 9269TIP3   OH227763   7.159   3.784   3.500
 9269TIP3    H127764   7.199   3.801   3.586
 9269TIP3    H227765   7.156   3.689   3.493
 9270TIP3   OH227766   0.652   3.181   6.748
 9270TIP3    H127767   0.581   3.218   6.800
 9270TIP3    H227768   0.628   3.200   6.657
 9271TIP3   OH227769   6.743   4.325   5.150
 9271TIP3    H127770   6.655   4.288   5.146
 9271TIP3    H227771   6.776   4.318   5.060
 9272TIP3   OH227772   4.585   6.358   6.523
 9272TIP3    H127773   4.649   6.310   6.576
 9272TIP3    H227774   4.628   6.371   6.439
 9273TIP3   OH227775   7.129   6.007   4.711
 9273TIP3    H127776   7.193   5.972   4.648
 9273TIP3    H227777   7.133   6.102   4.699
 9274TIP3   OH227778   4.452   1.309   0.124
 9274TIP3    H127779   4.393   1.240   0.096
 9274TIP3    H227780   4.539   1.269   0.122
 9275TIP3   OH227781   0.897   3.032   3.019
 9275TIP3    H127782   0.898   3.042   3.114
 9275TIP3    H227783   0.914   3.120   2.986
 9276TIP3   OH227784   0.361   6.155   3.288
 9276TIP3    H127785   0.412   6.186   3.363
 9276TIP3    H227786   0.423   6.156   3.215
 9277TIP3   OH227787   1.849   1.268   5.847
 9277TIP3    H127788   1.882   1.333   5.784
 9277TIP3    H227789   1.846   1.314   5.930
 9278TIP3   OH227790   0.674   4.786   1.599
 9278TIP3    H127791   0.683   4.695   1.570
 9278TIP3    H227792   0.712   4.838   1.528
 9279TIP3   OH227793   1.162   5.724   5.155
 9279TIP3    H127794   1.183   5.645   5.106
 9279TIP3    H227795   1.084   5.701   5.206
 9280TIP3   OH227796   8.184   1.650   0.699
 9280TIP3    H127797   8.090   1.636   0.699
 9280TIP3    H227798   8.221   1.567   0.668
 9281TIP3   OH227799   2.718   2.347   5.073
 9281TIP3    H127800   2.648   2.374   5.133
 9281TIP3    H227801   2.696   2.389   4.990
 9282TIP3   OH227802   3.002   5.355   0.113
 9282TIP3    H127803   3.004   5.303   0.194
 9282TIP3    H227804   3.061   5.309   0.053
 9283TIP3   OH227805   2.422   5.823   6.275
 9283TIP3    H127806   2.460   5.897   6.227
 9283TIP3    H227807   2.459   5.830   6.363
 9284TIP3   OH227808   2.691   1.385   0.073
 9284TIP3    H127809   2.744   1.376  -0.005
 9284TIP3    H227810   2.603   1.406   0.041
 9285TIP3   OH227811   3.897   7.608   3.014
 9285TIP3    H127812   3.988   7.590   2.987
 9285TIP3    H227813   3.882   7.699   2.988
 9286TIP3   OH227814   0.690   7.757   5.424
 9286TIP3    H127815   0.648   7.813   5.359
 9286TIP3    H227816   0.665   7.795   5.509
 9287TIP3   OH227817   8.164   7.164   2.698
 9287TIP3    H127818   8.163   7.259   2.685
 9287TIP3    H227819   8.119   7.129   2.621
 9288TIP3   OH227820   1.220   5.854   6.230
 9288TIP3    H127821   1.254   5.806   6.306
 9288TIP3    H227822   1.137   5.810   6.209
 9289TIP3   OH227823   6.515   6.400   0.815
 9289TIP3    H127824   6.524   6.479   0.869
 9289TIP3    H227825   6.500   6.329   0.878
 9290TIP3   OH227826   3.797   2.924   5.964
 9290TIP3    H127827   3.750   2.957   5.888
 9290TIP3    H227828   3.755   2.966   6.039
 9291TIP3   OH227829   3.526   4.304   2.476
 9291TIP3    H127830   3.566   4.256   2.549
 9291TIP3    H227831   3.481   4.378   2.517
 9292TIP3   OH227832   3.943   7.301   4.129
 9292TIP3    H127833   3.890   7.356   4.187
 9292TIP3    H227834   3.971   7.360   4.059
 9293TIP3   OH227835   3.032   3.830   2.975
 9293TIP3    H127836   2.956   3.869   2.931
 9293TIP3    H227837   3.009   3.738   2.984
 9294TIP3   OH227838   5.552   6.102   5.834
 9294TIP3    H127839   5.567   6.045   5.759
 9294TIP3    H227840   5.474   6.066   5.876
 9295TIP3   OH227841   6.321   7.292   0.582
 9295TIP3    H127842   6.320   7.278   0.677
 9295TIP3    H227843   6.412   7.274   0.556
 9296TIP3   OH227844   3.685   4.383   0.594
 9296TIP3    H127845   3.639   4.365   0.512
 9296TIP3    H227846   3.776   4.396   0.568
 9297TIP3   OH227847   4.066   6.277   3.372
 9297TIP3    H127848   4.091   6.266   3.280
 9297TIP3    H227849   3.976   6.245   3.377
 9298TIP3   OH227850   0.981   1.187   5.623
 9298TIP3    H127851   0.998   1.111   5.679
 9298TIP3    H227852   0.899   1.223   5.657
 9299TIP3   OH227853   2.832   3.353   3.413
 9299TIP3    H127854   2.806   3.321   3.499
 9299TIP3    H227855   2.750   3.358   3.364
 9300TIP3   OH227856   3.437   6.599   5.650
 9300TIP3    H127857   3.426   6.640   5.564
 9300TIP3    H227858   3.475   6.667   5.705
 9301TIP3   OH227859   3.211   1.508   1.268
 9301TIP3    H127860   3.274   1.555   1.322
 9301TIP3    H227861   3.184   1.434   1.323
 9302TIP3   OH227862   2.932   1.972   6.216
 9302TIP3    H127863   3.026   1.989   6.230
 9302TIP3    H227864   2.912   2.016   6.133
 9303TIP3   OH227865   6.298   1.981   0.768
 9303TIP3    H127866   6.358   1.955   0.838
 9303TIP3    H227867   6.283   2.074   0.783
 9304TIP3   OH227868   0.832   0.917   5.503
 9304TIP3    H127869   0.876   0.945   5.583
 9304TIP3    H227870   0.745   0.889   5.531
 9305TIP3   OH227871   0.414   3.728   1.688
 9305TIP3    H127872   0.334   3.780   1.703
 9305TIP3    H227873   0.405   3.696   1.598
 9306TIP3   OH227874   1.813   3.956   2.411
 9306TIP3    H127875   1.864   3.966   2.491
 9306TIP3    H227876   1.872   3.983   2.341
 9307TIP3   OH227877   6.919   1.672   6.440
 9307TIP3    H127878   6.955   1.583   6.440
 9307TIP3    H227879   6.826   1.660   6.422
 9308TIP3   OH227880   4.125   2.362   6.050
 9308TIP3    H127881   4.218   2.342   6.046
 9308TIP3    H227882   4.099   2.376   5.959
 9309TIP3   OH227883   0.002   6.630   2.635
 9309TIP3    H127884   0.089   6.660   2.663
 9309TIP3    H227885  -0.020   6.687   2.562
 9310TIP3   OH227886   5.181   6.321   1.674
 9310TIP3    H127887   5.265   6.338   1.715
 9310TIP3    H227888   5.174   6.387   1.605
 9311TIP3   OH227889   2.964   3.707   1.549
 9311TIP3    H127890   3.000   3.618   1.557
 9311TIP3    H227891   2.899   3.712   1.619
 9312TIP3   OH227892   0.101   1.323   2.901
 9312TIP3    H127893   0.053   1.379   2.840
 9312TIP3    H227894   0.051   1.328   2.983
 9313TIP3   OH227895   1.428   6.485   1.926
 9313TIP3    H127896   1.416   6.569   1.970
 9313TIP3    H227897   1.520   6.464   1.940
 9314TIP3   OH227898   7.772   5.405   4.312
 9314TIP3    H127899   7.734   5.436   4.394
 9314TIP3    H227900   7.700   5.410   4.249
 9315TIP3   OH227901   5.022   1.493   6.617
 9315TIP3    H127902   4.979   1.456   6.694
 9315TIP3    H227903   4.958   1.556   6.583
 9316TIP3   OH227904   5.719   7.311   3.696
 9316TIP3    H127905   5.800   7.260   3.697
 9316TIP3    H227906   5.651   7.247   3.672
 9317TIP3   OH227907   1.673   1.208   2.380
 9317TIP3    H127908   1.767   1.200   2.371
 9317TIP3    H227909   1.660   1.293   2.423
 9318TIP3   OH227910   1.960   6.756   0.071
 9318TIP3    H127911   2.047   6.757   0.111
 9318TIP3    H227912   1.958   6.833   0.015
 9319TIP3   OH227913   0.388   3.063   0.247
 9319TIP3    H127914   0.353   3.093   0.330
 9319TIP3    H227915   0.316   3.075   0.185
 9320TIP3   OH227916   5.204   6.573   0.204
 9320TIP3    H127917   5.143   6.632   0.159
 9320TIP3    H227918   5.215   6.612   0.291
 9321TIP3   OH227919   5.528   6.017   6.639
 9321TIP3    H127920   5.536   5.955   6.568
 9321TIP3    H227921   5.590   6.087   6.617
 9322TIP3   OH227922   1.061   3.434   1.264
 9322TIP3    H127923   1.045   3.409   1.173
 9322TIP3    H227924   1.138   3.383   1.290
 9323TIP3   OH227925   3.739   4.458   6.636
 9323TIP3    H127926   3.645   4.440   6.641
 9323TIP3    H227927   3.747   4.524   6.566
 9324TIP3   OH227928   1.776   4.528   5.912
 9324TIP3    H127929   1.734   4.447   5.938
 9324TIP3    H227930   1.734   4.552   5.829
 9325TIP3   OH227931   5.646   1.671   3.538
 9325TIP3    H127932   5.563   1.718   3.527
 9325TIP3    H227933   5.650   1.651   3.631
 9326TIP3   OH227934   2.683   6.439   0.261
 9326TIP3    H127935   2.677   6.441   0.166
 9326TIP3    H227936   2.647   6.523   0.290
 9327TIP3   OH227937   4.369   6.080   3.931
 9327TIP3    H127938   4.320   6.013   3.884
 9327TIP3    H227939   4.352   6.063   4.024
 9328TIP3   OH227940   5.195   2.788   4.182
 9328TIP3    H127941   5.149   2.807   4.100
 9328TIP3    H227942   5.188   2.693   4.191
 9329TIP3   OH227943   6.880   3.902   1.774
 9329TIP3    H127944   6.805   3.843   1.778
 9329TIP3    H227945   6.850   3.983   1.816
 9330TIP3   OH227946   3.223   5.594   0.408
 9330TIP3    H127947   3.287   5.619   0.474
 9330TIP3    H227948   3.162   5.536   0.454
 9331TIP3   OH227949   5.404   2.315   5.389
 9331TIP3    H127950   5.465   2.347   5.455
 9331TIP3    H227951   5.415   2.220   5.389
 9332TIP3   OH227952   4.444   6.780   6.608
 9332TIP3    H127953   4.525   6.730   6.619
 9332TIP3    H227954   4.391   6.755   6.684
 9333TIP3   OH227955   0.217   2.755   5.120
 9333TIP3    H127956   0.123   2.758   5.101
 9333TIP3    H227957   0.255   2.823   5.063
 9334TIP3   OH227958   0.555   3.945   4.993
 9334TIP3    H127959   0.498   4.022   5.004
 9334TIP3    H227960   0.576   3.944   4.900
 9335TIP3   OH227961   1.305   3.821   4.503
 9335TIP3    H127962   1.279   3.741   4.549
 9335TIP3    H227963   1.365   3.865   4.563
 9336TIP3   OH227964   2.347   1.389   3.401
 9336TIP3    H127965   2.280   1.448   3.435
 9336TIP3    H227966   2.393   1.357   3.478
 9337TIP3   OH227967   3.098   4.208   4.183
 9337TIP3    H127968   3.028   4.271   4.199
 9337TIP3    H227969   3.117   4.171   4.269
 9338TIP3   OH227970   4.639   7.638   6.228
 9338TIP3    H127971   4.720   7.619   6.181
 9338TIP3    H227972   4.653   7.725   6.266
 9339TIP3   OH227973   3.886   1.301   6.193
 9339TIP3    H127974   3.929   1.334   6.272
 9339TIP3    H227975   3.921   1.356   6.123
 9340TIP3   OH227976   1.367   3.869   6.418
 9340TIP3    H127977   1.437   3.818   6.377
 9340TIP3    H227978   1.395   3.881   6.508
 9341TIP3   OH227979   6.004   5.295   5.254
 9341TIP3    H127980   6.093   5.331   5.258
 9341TIP3    H227981   5.948   5.370   5.238
 9342TIP3   OH227982   0.804   1.147   2.884
 9342TIP3    H127983   0.778   1.055   2.886
 9342TIP3    H227984   0.728   1.194   2.917
 9343TIP3   OH227985   4.270   7.143   2.928
 9343TIP3    H127986   4.254   7.100   2.845
 9343TIP3    H227987   4.186   7.181   2.953
 9344TIP3   OH227988   1.708   1.446   4.833
 9344TIP3    H127989   1.635   1.480   4.781
 9344TIP3    H227990   1.786   1.460   4.778
 9345TIP3   OH227991   4.304   3.398   3.795
 9345TIP3    H127992   4.388   3.378   3.837
 9345TIP3    H227993   4.276   3.315   3.757
 9346TIP3   OH227994   7.525   4.483   1.279
 9346TIP3    H127995   7.437   4.489   1.316
 9346TIP3    H227996   7.537   4.391   1.259
 9347TIP3   OH227997   4.162   2.242   0.817
 9347TIP3    H127998   4.080   2.203   0.847
 9347TIP3    H227999   4.186   2.304   0.886
 9348TIP3   OH228000   5.757   2.178   2.199
 9348TIP3    H128001   5.725   2.133   2.121
 9348TIP3    H228002   5.852   2.168   2.196
 9349TIP3   OH228003   3.848   2.111   4.664
 9349TIP3    H128004   3.828   2.202   4.683
 9349TIP3    H228005   3.846   2.105   4.568
 9350TIP3   OH228006   6.249   4.657   1.439
 9350TIP3    H128007   6.318   4.629   1.378
 9350TIP3    H228008   6.272   4.614   1.522
 9351TIP3   OH228009   7.135   7.389   3.318
 9351TIP3    H128010   7.105   7.317   3.373
 9351TIP3    H228011   7.207   7.353   3.267
 9352TIP3   OH228012   7.660   6.687   3.049
 9352TIP3    H128013   7.675   6.594   3.034
 9352TIP3    H228014   7.748   6.724   3.056
 9353TIP3   OH228015   1.191   1.773   4.726
 9353TIP3    H128016   1.138   1.728   4.792
 9353TIP3    H228017   1.274   1.792   4.771
 9354TIP3   OH228018   0.582   3.513   3.798
 9354TIP3    H128019   0.545   3.550   3.718
 9354TIP3    H228020   0.512   3.456   3.832
 9355TIP3   OH228021   3.394   3.041   5.156
 9355TIP3    H128022   3.343   2.991   5.092
 9355TIP3    H228023   3.358   3.129   5.152
 9356TIP3   OH228024   3.513   3.242   4.796
 9356TIP3    H128025   3.585   3.303   4.779
 9356TIP3    H228026   3.549   3.156   4.773
 9357TIP3   OH228027   1.896   1.228   4.288
 9357TIP3    H128028   1.977   1.237   4.338
 9357TIP3    H228029   1.864   1.318   4.279
 9358TIP3   OH228030   3.888   5.749   5.080
 9358TIP3    H128031   3.924   5.727   4.994
 9358TIP3    H228032   3.959   5.729   5.142
 9359TIP3   OH228033   1.657   7.432   5.695
 9359TIP3    H128034   1.608   7.514   5.691
 9359TIP3    H228035   1.693   7.422   5.607
 9360TIP3   OH228036   7.387   0.568   0.033
 9360TIP3    H128037   7.403   0.559  -0.061
 9360TIP3    H228038   7.453   0.512   0.074
 9361TIP3   OH228039   1.992   7.806   5.492
 9361TIP3    H128040   2.018   7.775   5.579
 9361TIP3    H228041   1.969   7.726   5.444
 9362TIP3   OH228042   5.389   1.812   1.141
 9362TIP3    H128043   5.371   1.719   1.136
 9362TIP3    H228044   5.483   1.819   1.128
 9363TIP3   OH228045   7.700   1.799   0.708
 9363TIP3    H128046   7.664   1.737   0.771
 9363TIP3    H228047   7.746   1.864   0.761
 9364TIP3   OH228048   2.813   1.156   0.947
 9364TIP3    H128049   2.835   1.246   0.923
 9364TIP3    H228050   2.799   1.112   0.864
 9365TIP3   OH228051   4.524   0.540   0.627
 9365TIP3    H128052   4.441   0.532   0.581
 9365TIP3    H228053   4.579   0.471   0.591
 9366TIP3   OH228054   0.738   7.246   2.861
 9366TIP3    H128055   0.770   7.156   2.866
 9366TIP3    H228056   0.818   7.299   2.869
 9367TIP3   OH228057   4.451   4.843   6.662
 9367TIP3    H128058   4.520   4.909   6.660
 9367TIP3    H228059   4.491   4.768   6.706
 9368TIP3   OH228060   6.288   5.598   3.306
 9368TIP3    H128061   6.201   5.560   3.303
 9368TIP3    H228062   6.294   5.652   3.227
 9369TIP3   OH228063   4.678   7.808   2.732
 9369TIP3    H128064   4.585   7.786   2.729
 9369TIP3    H228065   4.695   7.850   2.647
 9370TIP3   OH228066   5.620   1.482   4.003
 9370TIP3    H128067   5.576   1.415   3.950
 9370TIP3    H228068   5.620   1.446   4.091
 9371TIP3   OH228069   3.190   7.478   3.125
 9371TIP3    H128070   3.189   7.560   3.175
 9371TIP3    H228071   3.101   7.469   3.091
 9372TIP3   OH228072   5.166   1.813   2.397
 9372TIP3    H128073   5.219   1.859   2.332
 9372TIP3    H228074   5.113   1.881   2.438
 9373TIP3   OH228075   1.163   2.718   2.289
 9373TIP3    H128076   1.129   2.731   2.378
 9373TIP3    H228077   1.085   2.719   2.233
 9374TIP3   OH228078   3.766   2.637   0.923
 9374TIP3    H128079   3.683   2.683   0.936
 9374TIP3    H228080   3.803   2.677   0.844
 9375TIP3   OH228081   3.310   7.047   6.107
 9375TIP3    H128082   3.256   7.062   6.030
 9375TIP3    H228083   3.279   6.963   6.142
 9376TIP3   OH228084   1.599   7.553   2.768
 9376TIP3    H128085   1.625   7.461   2.762
 9376TIP3    H228086   1.565   7.574   2.681
 9377TIP3   OH228087   1.874   0.381   1.267
 9377TIP3    H128088   1.787   0.351   1.293
 9377TIP3    H228089   1.902   0.320   1.199
 9378TIP3   OH228090   0.832   1.512   3.019
 9378TIP3    H128091   0.902   1.501   3.083
 9378TIP3    H228092   0.766   1.446   3.043
 9379TIP3   OH228093   0.010   4.607   1.411
 9379TIP3    H128094   0.093   4.573   1.444
 9379TIP3    H228095  -0.027   4.655   1.485
 9380TIP3   OH228096   2.726   2.205   5.666
 9380TIP3    H128097   2.633   2.199   5.645
 9380TIP3    H228098   2.766   2.128   5.625
 9381TIP3   OH228099   1.431   3.963   4.291
 9381TIP3    H128100   1.386   3.902   4.350
 9381TIP3    H228101   1.361   4.018   4.255
 9382TIP3   OH228102   1.372   3.212   5.150
 9382TIP3    H128103   1.287   3.176   5.127
 9382TIP3    H228104   1.354   3.302   5.176
 9383TIP3   OH228105   0.564   7.787   6.170
 9383TIP3    H128106   0.561   7.724   6.242
 9383TIP3    H228107   0.491   7.762   6.114
 9384TIP3   OH228108   0.058   2.107   1.300
 9384TIP3    H128109   0.061   2.012   1.300
 9384TIP3    H228110   0.008   2.130   1.379
 9385TIP3   OH228111   4.304   6.245   2.403
 9385TIP3    H128112   4.388   6.231   2.445
 9385TIP3    H228113   4.265   6.319   2.450
 9386TIP3   OH228114   5.204   2.793   1.745
 9386TIP3    H128115   5.221   2.746   1.663
 9386TIP3    H228116   5.160   2.730   1.801
 9387TIP3   OH228117   6.248   1.910   3.321
 9387TIP3    H128118   6.174   1.915   3.381
 9387TIP3    H228119   6.325   1.919   3.376
 9388TIP3   OH228120   3.885   0.839   2.454
 9388TIP3    H128121   3.963   0.832   2.400
 9388TIP3    H228122   3.812   0.831   2.392
 9389TIP3   OH228123   5.882   2.780   5.663
 9389TIP3    H128124   5.944   2.709   5.649
 9389TIP3    H228125   5.902   2.843   5.594
 9390TIP3   OH228126   4.820   7.755   3.533
 9390TIP3    H128127   4.726   7.763   3.513
 9390TIP3    H228128   4.863   7.811   3.468
 9391TIP3   OH228129   2.703   2.989   0.090
 9391TIP3    H128130   2.655   3.017   0.167
 9391TIP3    H228131   2.636   2.958   0.029
 9392TIP3   OH228132   3.280   0.177   3.333
 9392TIP3    H128133   3.220   0.103   3.327
 9392TIP3    H228134   3.291   0.206   3.242
 9393TIP3   OH228135   5.606   2.715   1.876
 9393TIP3    H128136   5.631   2.675   1.960
 9393TIP3    H228137   5.528   2.767   1.897
 9394TIP3   OH228138   2.269   0.471   5.077
 9394TIP3    H128139   2.350   0.462   5.028
 9394TIP3    H228140   2.215   0.396   5.051
 9395TIP3   OH228141   6.742   0.364   2.407
 9395TIP3    H128142   6.719   0.457   2.408
 9395TIP3    H228143   6.805   0.354   2.477
 9396TIP3   OH228144   0.220   4.372   4.401
 9396TIP3    H128145   0.265   4.310   4.343
 9396TIP3    H228146   0.286   4.436   4.425
 9397TIP3   OH228147   6.864   5.449   3.921
 9397TIP3    H128148   6.880   5.355   3.931
 9397TIP3    H228149   6.771   5.460   3.938
 9398TIP3   OH228150   1.600   4.703   1.245
 9398TIP3    H128151   1.653   4.776   1.213
 9398TIP3    H228152   1.649   4.670   1.320
 9399TIP3   OH228153   0.182   5.197   4.595
 9399TIP3    H128154   0.241   5.166   4.526
 9399TIP3    H228155   0.240   5.225   4.665
 9400TIP3   OH228156   5.453   4.444   5.427
 9400TIP3    H128157   5.469   4.351   5.415
 9400TIP3    H228158   5.521   4.487   5.374
 9401TIP3   OH228159   3.629   4.682   1.642
 9401TIP3    H128160   3.554   4.628   1.615
 9401TIP3    H228161   3.618   4.764   1.594
 9402TIP3   OH228162   2.166   0.976   5.328
 9402TIP3    H128163   2.189   1.007   5.240
 9402TIP3    H228164   2.094   0.914   5.313
 9403TIP3   OH228165   5.361   5.888   2.309
 9403TIP3    H128166   5.318   5.937   2.239
 9403TIP3    H228167   5.305   5.812   2.323
 9404TIP3   OH228168   5.120   7.370   4.816
 9404TIP3    H128169   5.120   7.387   4.722
 9404TIP3    H228170   5.205   7.401   4.846
 9405TIP3   OH228171   1.383   2.918   1.810
 9405TIP3    H128172   1.453   2.983   1.820
 9405TIP3    H228173   1.356   2.925   1.719
 9406TIP3   OH228174   4.134   3.366   1.327
 9406TIP3    H128175   4.176   3.436   1.276
 9406TIP3    H228176   4.173   3.286   1.293
 9407TIP3   OH228177   7.578   0.151   3.847
 9407TIP3    H128178   7.545   0.216   3.909
 9407TIP3    H228179   7.523   0.074   3.862
 9408TIP3   OH228180   0.488   1.583   4.176
 9408TIP3    H128181   0.406   1.584   4.126
 9408TIP3    H228182   0.552   1.623   4.118
 9409TIP3   OH228183   7.958   2.895   3.198
 9409TIP3    H128184   7.920   2.830   3.257
 9409TIP3    H228185   7.939   2.862   3.110
 9410TIP3   OH228186   4.273   4.153   1.094
 9410TIP3    H128187   4.341   4.220   1.089
 9410TIP3    H228188   4.265   4.120   1.004
 9411TIP3   OH228189   2.611   2.155   1.210
 9411TIP3    H128190   2.674   2.083   1.200
 9411TIP3    H228191   2.545   2.120   1.270
 9412TIP3   OH228192   1.584   5.296   2.194
 9412TIP3    H128193   1.502   5.303   2.243
 9412TIP3    H228194   1.561   5.244   2.117
 9413TIP3   OH228195   4.747   5.904   1.128
 9413TIP3    H128196   4.720   5.995   1.111
 9413TIP3    H228197   4.717   5.886   1.217
 9414TIP3   OH228198   0.847   4.316   6.392
 9414TIP3    H128199   0.808   4.309   6.480
 9414TIP3    H228200   0.918   4.252   6.392
 9415TIP3   OH228201   5.301   2.370   0.716
 9415TIP3    H128202   5.234   2.422   0.760
 9415TIP3    H228203   5.317   2.296   0.775
 9416TIP3   OH228204   6.248   1.157   3.863
 9416TIP3    H128205   6.270   1.226   3.801
 9416TIP3    H228206   6.157   1.134   3.843
 9417TIP3   OH228207   0.089   0.645   4.465
 9417TIP3    H128208   0.035   0.684   4.396
 9417TIP3    H228209   0.158   0.709   4.480
 9418TIP3   OH228210   2.455   3.348   0.799
 9418TIP3    H128211   2.505   3.294   0.738
 9418TIP3    H228212   2.472   3.438   0.772
 9419TIP3   OH228213   1.503   6.173   5.679
 9419TIP3    H128214   1.533   6.088   5.711
 9419TIP3    H228215   1.505   6.165   5.584
 9420TIP3   OH228216   6.294   3.493   6.323
 9420TIP3    H128217   6.255   3.406   6.313
 9420TIP3    H228218   6.224   3.546   6.361
 9421TIP3   OH228219   0.461   5.997   0.245
 9421TIP3    H128220   0.454   6.092   0.242
 9421TIP3    H228221   0.388   5.969   0.300
 9422TIP3   OH228222   0.894   5.139   2.199
 9422TIP3    H128223   0.872   5.048   2.178
 9422TIP3    H228224   0.897   5.141   2.295
 9423TIP3   OH228225   4.075   3.189   3.198
 9423TIP3    H128226   3.985   3.158   3.211
 9423TIP3    H228227   4.070   3.245   3.121
 9424TIP3   OH228228   0.365   5.163   3.710
 9424TIP3    H128229   0.446   5.151   3.660
 9424TIP3    H228230   0.355   5.258   3.718
 9425TIP3   OH228231   7.137   6.644   5.557
 9425TIP3    H128232   7.230   6.626   5.574
 9425TIP3    H228233   7.106   6.567   5.510
 9426TIP3   OH228234   2.556   1.392   2.660
 9426TIP3    H128235   2.473   1.439   2.672
 9426TIP3    H228236   2.620   1.460   2.639
 9427TIP3   OH228237   6.512   2.883   3.844
 9427TIP3    H128238   6.442   2.943   3.868
 9427TIP3    H228239   6.492   2.802   3.891
 9428TIP3   OH228240   3.551   2.620   1.894
 9428TIP3    H128241   3.504   2.704   1.893
 9428TIP3    H228242   3.492   2.560   1.940
 9429TIP3   OH228243   4.961   3.590   0.498
 9429TIP3    H128244   4.917   3.538   0.565
 9429TIP3    H228245   4.906   3.668   0.487
 9430TIP3   OH228246   5.658   1.263   6.297
 9430TIP3    H128247   5.629   1.199   6.362
 9430TIP3    H228248   5.741   1.228   6.265
 9431TIP3   OH228249   5.309   0.105   1.086
 9431TIP3    H128250   5.334   0.166   1.156
 9431TIP3    H228251   5.247   0.153   1.032
 9432TIP3   OH228252   1.030   0.749   3.400
 9432TIP3    H128253   1.084   0.826   3.416
 9432TIP3    H228254   0.945   0.769   3.439
 9433TIP3   OH228255   4.840   0.525   3.184
 9433TIP3    H128256   4.899   0.536   3.110
 9433TIP3    H228257   4.769   0.471   3.151
 9434TIP3   OH228258   2.294   5.041   4.363
 9434TIP3    H128259   2.248   4.975   4.415
 9434TIP3    H228260   2.310   4.999   4.279
 9435TIP3   OH228261   4.804   4.955   3.300
 9435TIP3    H128262   4.848   4.891   3.245
 9435TIP3    H228263   4.835   5.040   3.268
 9436TIP3   OH228264   5.262   0.756   5.790
 9436TIP3    H128265   5.271   0.685   5.854
 9436TIP3    H228266   5.241   0.833   5.843
 9437TIP3   OH228267   3.059   1.377   6.007
 9437TIP3    H128268   3.072   1.439   5.935
 9437TIP3    H228269   3.140   1.382   6.058
 9438TIP3   OH228270   5.727   4.294   1.179
 9438TIP3    H128271   5.747   4.200   1.172
 9438TIP3    H228272   5.702   4.306   1.271
 9439TIP3   OH228273   0.184   5.021   1.763
 9439TIP3    H128274   0.229   5.089   1.814
 9439TIP3    H228275   0.105   5.002   1.814
 9440TIP3   OH228276   7.268   0.455   6.741
 9440TIP3    H128277   7.360   0.437   6.760
 9440TIP3    H228278   7.225   0.369   6.743
 9441TIP3   OH228279   1.813   2.776   2.966
 9441TIP3    H128280   1.866   2.734   3.035
 9441TIP3    H228281   1.728   2.734   2.973
 9442TIP3   OH228282   3.847   5.283   3.219
 9442TIP3    H128283   3.795   5.247   3.291
 9442TIP3    H228284   3.854   5.377   3.239
 9443TIP3   OH228285   7.913   3.941   0.128
 9443TIP3    H128286   7.929   3.965   0.037
 9443TIP3    H228287   7.884   3.850   0.124
 9444TIP3   OH228288   1.526   4.296   2.202
 9444TIP3    H128289   1.471   4.263   2.131
 9444TIP3    H228290   1.538   4.220   2.260
 9445TIP3   OH228291   5.388   2.914   1.973
 9445TIP3    H128292   5.309   2.859   1.970
 9445TIP3    H228293   5.369   2.979   2.040
 9446TIP3   OH228294   1.962   2.690   1.723
 9446TIP3    H128295   1.869   2.690   1.703
 9446TIP3    H228296   1.975   2.615   1.781
 9447TIP3   OH228297   5.613   6.132   1.743
 9447TIP3    H128298   5.546   6.086   1.794
 9447TIP3    H228299   5.565   6.190   1.685
 9448TIP3   OH228300   5.532   3.044   6.234
 9448TIP3    H128301   5.460   3.064   6.294
 9448TIP3    H228302   5.607   3.091   6.270
 9449TIP3   OH228303   5.810   7.469   4.315
 9449TIP3    H128304   5.874   7.402   4.290
 9449TIP3    H228305   5.727   7.438   4.279
 9450TIP3   OH228306   5.299   6.147   5.294
 9450TIP3    H128307   5.241   6.212   5.256
 9450TIP3    H228308   5.273   6.143   5.386
 9451TIP3   OH228309   2.113   4.874   3.819
 9451TIP3    H128310   2.095   4.926   3.741
 9451TIP3    H228311   2.117   4.939   3.890
 9452TIP3   OH228312   3.509   0.173   5.874
 9452TIP3    H128313   3.567   0.136   5.941
 9452TIP3    H228314   3.477   0.097   5.825
 9453TIP3   OH228315   1.573   1.947   3.969
 9453TIP3    H128316   1.600   1.860   3.998
 9453TIP3    H228317   1.653   1.987   3.935
 9454TIP3   OH228318   5.637   2.738   2.545
 9454TIP3    H128319   5.548   2.720   2.515
 9454TIP3    H228320   5.686   2.753   2.464
 9455TIP3   OH228321   6.196   0.662   1.772
 9455TIP3    H128322   6.107   0.698   1.772
 9455TIP3    H228323   6.189   0.581   1.823
 9456TIP3   OH228324   2.571   3.411   1.728
 9456TIP3    H128325   2.647   3.404   1.784
 9456TIP3    H228326   2.526   3.490   1.757
 9457TIP3   OH228327   5.292   0.287   3.407
 9457TIP3    H128328   5.305   0.360   3.345
 9457TIP3    H228329   5.202   0.297   3.436
 9458TIP3   OH228330   3.175   0.538   0.090
 9458TIP3    H128331   3.116   0.498   0.154
 9458TIP3    H228332   3.231   0.596   0.142
 9459TIP3   OH228333   1.948   2.149   2.600
 9459TIP3    H128334   1.912   2.226   2.644
 9459TIP3    H228335   1.952   2.174   2.508
 9460TIP3   OH228336   3.562   0.516   1.205
 9460TIP3    H128337   3.581   0.516   1.111
 9460TIP3    H228338   3.473   0.482   1.211
 9461TIP3   OH228339   3.248   3.981   5.602
 9461TIP3    H128340   3.338   3.993   5.633
 9461TIP3    H228341   3.225   3.892   5.631
 9462TIP3   OH228342   1.019   6.012   1.693
 9462TIP3    H128343   1.095   5.988   1.746
 9462TIP3    H228344   0.945   5.969   1.737
 9463TIP3   OH228345   5.063   1.759   3.077
 9463TIP3    H128346   5.024   1.844   3.059
 9463TIP3    H228347   5.151   1.764   3.038
 9464TIP3   OH228348   5.690   0.660   0.322
 9464TIP3    H128349   5.708   0.718   0.395
 9464TIP3    H228350   5.714   0.573   0.353
 9465TIP3   OH228351   3.597   1.922   1.221
 9465TIP3    H128352   3.577   1.940   1.312
 9465TIP3    H228353   3.515   1.891   1.184
 9466TIP3   OH228354   0.211   1.897   6.245
 9466TIP3    H128355   0.273   1.968   6.230
 9466TIP3    H228356   0.162   1.923   6.323
 9467TIP3   OH228357   6.754   3.796   5.684
 9467TIP3    H128358   6.663   3.824   5.682
 9467TIP3    H228359   6.792   3.841   5.759
 9468TIP3   OH228360   7.614   1.157   5.371
 9468TIP3    H128361   7.631   1.079   5.319
 9468TIP3    H228362   7.698   1.178   5.412
 9469TIP3   OH228363   0.228   3.194   6.741
 9469TIP3    H128364   0.270   3.276   6.718
 9469TIP3    H228365   0.259   3.131   6.676
 9470TIP3   OH228366   1.451   3.438   6.084
 9470TIP3    H128367   1.440   3.532   6.074
 9470TIP3    H228368   1.507   3.412   6.011
 9471TIP3   OH228369   7.886   7.426   5.239
 9471TIP3    H128370   7.903   7.450   5.330
 9471TIP3    H228371   7.944   7.352   5.223
 9472TIP3   OH228372   2.181   5.895   1.120
 9472TIP3    H128373   2.139   5.855   1.196
 9472TIP3    H228374   2.191   5.987   1.145
 9473TIP3   OH228375   6.335   4.970   3.768
 9473TIP3    H128376   6.426   4.942   3.760
 9473TIP3    H228377   6.332   5.018   3.850
 9474TIP3   OH228378   0.678   2.110   1.590
 9474TIP3    H128379   0.643   2.058   1.517
 9474TIP3    H228380   0.741   2.169   1.549
 9475TIP3   OH228381   2.182   5.281   3.488
 9475TIP3    H128382   2.120   5.266   3.559
 9475TIP3    H228383   2.152   5.222   3.418
 9476TIP3   OH228384   7.020   2.444   6.019
 9476TIP3    H128385   6.932   2.431   5.984
 9476TIP3    H228386   7.008   2.507   6.091
 9477TIP3   OH228387   5.391   7.565   1.494
 9477TIP3    H128388   5.412   7.653   1.525
 9477TIP3    H228389   5.299   7.568   1.470
 9478TIP3   OH228390   0.394   0.365   5.175
 9478TIP3    H128391   0.460   0.426   5.208
 9478TIP3    H228392   0.422   0.345   5.086
 9479TIP3   OH228393   6.454   1.649   5.432
 9479TIP3    H128394   6.409   1.724   5.472
 9479TIP3    H228395   6.546   1.661   5.455
 9480TIP3   OH228396   5.801   3.913   2.582
 9480TIP3    H128397   5.738   3.881   2.646
 9480TIP3    H228398   5.871   3.951   2.634
 9481TIP3   OH228399   5.934   0.507   1.094
 9481TIP3    H128400   5.970   0.529   1.181
 9481TIP3    H228401   5.959   0.581   1.039
 9482TIP3   OH228402   8.298   7.320   5.994
 9482TIP3    H128403   8.275   7.294   6.083
 9482TIP3    H228404   8.280   7.414   5.990
 9483TIP3   OH228405   7.849   0.311   2.594
 9483TIP3    H128406   7.912   0.241   2.611
 9483TIP3    H228407   7.775   0.268   2.553
 9484TIP3   OH228408   4.597   1.398   1.735
 9484TIP3    H128409   4.584   1.493   1.732
 9484TIP3    H228410   4.642   1.382   1.818
 9485TIP3   OH228411   4.806   1.628   0.590
 9485TIP3    H128412   4.814   1.600   0.499
 9485TIP3    H228413   4.895   1.648   0.618
 9486TIP3   OH228414   1.786   6.831   2.915
 9486TIP3    H128415   1.860   6.867   2.962
 9486TIP3    H228416   1.712   6.886   2.940
 9487TIP3   OH228417   6.538   7.128   6.224
 9487TIP3    H128418   6.608   7.107   6.162
 9487TIP3    H228419   6.573   7.202   6.274
 9488TIP3   OH228420   5.860   1.816   4.949
 9488TIP3    H128421   5.920   1.831   4.876
 9488TIP3    H228422   5.893   1.873   5.019
 9489TIP3   OH228423   0.773   1.247   6.268
 9489TIP3    H128424   0.805   1.177   6.324
 9489TIP3    H228425   0.797   1.328   6.313
 9490TIP3   OH228426   4.171   5.876   4.848
 9490TIP3    H128427   4.114   5.799   4.850
 9490TIP3    H228428   4.116   5.946   4.812
 9491TIP3   OH228429   0.314   4.884   5.176
 9491TIP3    H128430   0.366   4.925   5.245
 9491TIP3    H228431   0.321   4.944   5.102
 9492TIP3   OH228432   6.409   6.541   1.267
 9492TIP3    H128433   6.461   6.460   1.265
 9492TIP3    H228434   6.430   6.584   1.184
 9493TIP3   OH228435   6.985   3.133   5.439
 9493TIP3    H128436   6.900   3.090   5.448
 9493TIP3    H228437   7.039   3.069   5.393
 9494TIP3   OH228438   2.914   4.999   5.926
 9494TIP3    H128439   2.822   5.026   5.923
 9494TIP3    H228440   2.929   4.952   5.844
 9495TIP3   OH228441   1.103   1.476   2.839
 9495TIP3    H128442   1.117   1.382   2.850
 9495TIP3    H228443   1.013   1.489   2.869
 9496TIP3   OH228444   4.734   0.381   2.947
 9496TIP3    H128445   4.717   0.456   2.890
 9496TIP3    H228446   4.818   0.346   2.915
 9497TIP3   OH228447   6.502   6.243   5.440
 9497TIP3    H128448   6.511   6.149   5.427
 9497TIP3    H228449   6.565   6.264   5.509
 9498TIP3   OH228450   5.888   7.220   5.249
 9498TIP3    H128451   5.834   7.185   5.320
 9498TIP3    H228452   5.968   7.250   5.292
 9499TIP3   OH228453   3.991   4.161   6.513
 9499TIP3    H128454   3.995   4.229   6.580
 9499TIP3    H228455   4.015   4.204   6.432
 9500TIP3   OH228456   3.088   0.028   0.197
 9500TIP3    H128457   3.125  -0.023   0.269
 9500TIP3    H228458   3.017   0.078   0.238
 9501TIP3   OH228459   1.747   4.983   0.131
 9501TIP3    H128460   1.705   5.010   0.049
 9501TIP3    H228461   1.841   4.983   0.110
 9502TIP3   OH228462   2.334   4.831   5.996
 9502TIP3    H128463   2.339   4.743   5.959
 9502TIP3    H228464   2.286   4.819   6.079
 9503TIP3   OH228465   6.386   3.202   0.531
 9503TIP3    H128466   6.378   3.176   0.440
 9503TIP3    H228467   6.481   3.200   0.548
 9504TIP3   OH228468   4.704   3.543   1.739
 9504TIP3    H128469   4.756   3.623   1.725
 9504TIP3    H228470   4.705   3.530   1.833
 9505TIP3   OH228471   1.604   4.989   1.706
 9505TIP3    H128472   1.634   4.988   1.616
 9505TIP3    H228473   1.668   4.937   1.754
 9506TIP3   OH228474   4.746   7.246   1.025
 9506TIP3    H128475   4.838   7.243   1.048
 9506TIP3    H228476   4.739   7.316   0.960
 9507TIP3   OH228477   7.035   3.338   5.641
 9507TIP3    H128478   7.025   3.257   5.590
 9507TIP3    H228479   6.951   3.383   5.632
 9508TIP3   OH228480   6.690   1.483   4.810
 9508TIP3    H128481   6.625   1.541   4.850
 9508TIP3    H228482   6.742   1.540   4.754
 9509TIP3   OH228483   0.705   1.740   6.275
 9509TIP3    H128484   0.658   1.684   6.213
 9509TIP3    H228485   0.702   1.692   6.358
 9510TIP3   OH228486   1.659   0.340   6.096
 9510TIP3    H128487   1.639   0.255   6.137
 9510TIP3    H228488   1.598   0.345   6.022
 9511TIP3   OH228489   5.033   6.985   2.414
 9511TIP3    H128490   5.122   6.979   2.381
 9511TIP3    H228491   5.005   7.074   2.395
 9512TIP3   OH228492   4.775   0.653   5.196
 9512TIP3    H128493   4.798   0.738   5.158
 9512TIP3    H228494   4.842   0.637   5.262
 9513TIP3   OH228495   6.723   7.716   5.925
 9513TIP3    H128496   6.637   7.695   5.961
 9513TIP3    H228497   6.724   7.673   5.839
 9514TIP3   OH228498   1.946   5.164   1.186
 9514TIP3    H128499   1.859   5.150   1.223
 9514TIP3    H228500   2.005   5.157   1.261
 9515TIP3   OH228501   8.175   0.169   5.134
 9515TIP3    H128502   8.127   0.101   5.086
 9515TIP3    H228503   8.258   0.128   5.156
 9516TIP3   OH228504   4.596   0.399   4.374
 9516TIP3    H128505   4.676   0.348   4.363
 9516TIP3    H228506   4.623   0.473   4.428
 9517TIP3   OH228507   1.128   4.219   6.449
 9517TIP3    H128508   1.097   4.168   6.523
 9517TIP3    H228509   1.214   4.251   6.476
 9518TIP3   OH228510   7.285   1.973   3.137
 9518TIP3    H128511   7.248   1.957   3.050
 9518TIP3    H228512   7.371   2.013   3.120
 9519TIP3   OH228513   2.135   2.010   1.436
 9519TIP3    H128514   2.157   1.949   1.507
 9519TIP3    H228515   2.104   2.089   1.481
 9520TIP3   OH228516   0.451   6.840   4.592
 9520TIP3    H128517   0.370   6.791   4.609
 9520TIP3    H228518   0.456   6.903   4.663
 9521TIP3   OH228519   1.453   3.250   1.524
 9521TIP3    H128520   1.409   3.334   1.536
 9521TIP3    H228521   1.423   3.197   1.599
 9522TIP3   OH228522   1.212   3.631   5.831
 9522TIP3    H128523   1.157   3.701   5.795
 9522TIP3    H228524   1.172   3.612   5.916
 9523TIP3   OH228525   1.286   5.916   3.132
 9523TIP3    H128526   1.219   5.951   3.073
 9523TIP3    H228527   1.326   5.993   3.172
 9524TIP3   OH228528   0.505   5.029   1.667
 9524TIP3    H128529   0.411   5.012   1.672
 9524TIP3    H228530   0.545   4.942   1.656
 9525TIP3   OH228531   2.271   2.666   1.040
 9525TIP3    H128532   2.329   2.594   1.063
 9525TIP3    H228533   2.232   2.693   1.124
 9526TIP3   OH228534   4.559   5.369   5.657
 9526TIP3    H128535   4.506   5.436   5.613
 9526TIP3    H228536   4.543   5.384   5.750
 9527TIP3   OH228537   2.755   6.014   2.831
 9527TIP3    H128538   2.724   6.079   2.894
 9527TIP3    H228539   2.680   5.957   2.817
 9528TIP3   OH228540   6.698   2.266   3.079
 9528TIP3    H128541   6.653   2.317   3.013
 9528TIP3    H228542   6.630   2.212   3.119
 9529TIP3   OH228543   5.204   3.255   6.047
 9529TIP3    H128544   5.170   3.275   5.959
 9529TIP3    H228545   5.136   3.203   6.088
 9530TIP3   OH228546   0.886   6.983   6.764
 9530TIP3    H128547   0.941   6.946   6.695
 9530TIP3    H228548   0.895   7.078   6.754
 9531TIP3   OH228549   7.449   1.425   6.034
 9531TIP3    H128550   7.376   1.487   6.041
 9531TIP3    H228551   7.437   1.382   5.950
 9532TIP3   OH228552   2.445   6.983   1.176
 9532TIP3    H128553   2.399   7.024   1.249
 9532TIP3    H228554   2.461   6.893   1.206
 9533TIP3   OH228555   2.650   2.656   1.444
 9533TIP3    H128556   2.646   2.565   1.474
 9533TIP3    H228557   2.660   2.649   1.349
 9534TIP3   OH228558   6.793   4.418   4.890
 9534TIP3    H128559   6.791   4.404   4.796
 9534TIP3    H228560   6.708   4.458   4.910
 9535TIP3   OH228561   7.441   4.594   5.459
 9535TIP3    H128562   7.492   4.670   5.487
 9535TIP3    H228563   7.427   4.607   5.365
 9536TIP3   OH228564   1.476   0.134   6.805
 9536TIP3    H128565   1.404   0.112   6.745
 9536TIP3    H228566   1.497   0.225   6.786
 9537TIP3   OH228567   7.608   3.306   5.049
 9537TIP3    H128568   7.661   3.357   4.988
 9537TIP3    H228569   7.562   3.243   4.994
 9538TIP3   OH228570   6.853   0.601   0.588
 9538TIP3    H128571   6.862   0.562   0.675
 9538TIP3    H228572   6.942   0.627   0.563
 9539TIP3   OH228573   7.343   5.185   2.662
 9539TIP3    H128574   7.343   5.091   2.680
 9539TIP3    H228575   7.417   5.219   2.712
 9540TIP3   OH228576   6.757   2.387   5.168
 9540TIP3    H128577   6.732   2.295   5.173
 9540TIP3    H228578   6.816   2.400   5.242
 9541TIP3   OH228579   1.522   7.817   6.272
 9541TIP3    H128580   1.497   7.754   6.339
 9541TIP3    H228581   1.476   7.897   6.297
 9542TIP3   OH228582   4.846   1.563   0.316
 9542TIP3    H128583   4.912   1.631   0.307
 9542TIP3    H228584   4.891   1.482   0.293
 9543TIP3   OH228585   5.701   1.260   5.358
 9543TIP3    H128586   5.619   1.213   5.369
 9543TIP3    H228587   5.769   1.196   5.378
 9544TIP3   OH228588   4.729   6.603   0.967
 9544TIP3    H128589   4.716   6.533   0.903
 9544TIP3    H228590   4.703   6.564   1.051
 9545TIP3   OH228591   0.487   3.147   6.264
 9545TIP3    H128592   0.481   3.084   6.192
 9545TIP3    H228593   0.498   3.232   6.220
 9546TIP3   OH228594   2.531   1.009   5.939
 9546TIP3    H128595   2.545   0.927   5.987
 9546TIP3    H228596   2.606   1.015   5.879
 9547TIP3   OH228597   4.054   5.596   0.085
 9547TIP3    H128598   3.975   5.625   0.039
 9547TIP3    H228599   4.120   5.589   0.016
 9548TIP3   OH228600   3.412   2.760   6.156
 9548TIP3    H128601   3.466   2.697   6.108
 9548TIP3    H228602   3.469   2.837   6.166
 9549TIP3   OH228603   6.187   5.837   4.206
 9549TIP3    H128604   6.256   5.796   4.153
 9549TIP3    H228605   6.226   5.847   4.293
 9550TIP3   OH228606   0.872   1.416   4.967
 9550TIP3    H128607   0.831   1.338   5.004
 9550TIP3    H228608   0.880   1.476   5.042
 9551TIP3   OH228609   2.773   6.186   0.587
 9551TIP3    H128610   2.748   6.162   0.497
 9551TIP3    H228611   2.843   6.250   0.575
 9552TIP3   OH228612   8.090   0.380   4.974
 9552TIP3    H128613   8.108   0.301   5.025
 9552TIP3    H228614   8.154   0.379   4.903
 9553TIP3   OH228615   2.174   3.242   1.739
 9553TIP3    H128616   2.244   3.264   1.677
 9553TIP3    H228617   2.179   3.311   1.806
 9554TIP3   OH228618   2.838   1.325   5.029
 9554TIP3    H128619   2.790   1.326   4.946
 9554TIP3    H228620   2.822   1.237   5.064
 9555TIP3   OH228621   6.020   2.445   0.786
 9555TIP3    H128622   6.062   2.520   0.744
 9555TIP3    H228623   6.037   2.456   0.879
 9556TIP3   OH228624   7.861   0.006   4.799
 9556TIP3    H128625   7.857  -0.030   4.888
 9556TIP3    H228626   7.858  -0.070   4.742
 9557TIP3   OH228627   0.178   5.772   4.068
 9557TIP3    H128628   0.190   5.847   4.009
 9557TIP3    H228629   0.168   5.697   4.009
 9558TIP3   OH228630   1.296   7.396   4.112
 9558TIP3    H128631   1.342   7.478   4.129
 9558TIP3    H228632   1.337   7.361   4.033
 9559TIP3   OH228633   8.073   3.445   2.214
 9559TIP3    H128634   7.984   3.414   2.232
 9559TIP3    H228635   8.065   3.540   2.218
 9560TIP3   OH228636   0.510   6.082   2.284
 9560TIP3    H128637   0.465   6.034   2.353
 9560TIP3    H228638   0.603   6.076   2.307
 9561TIP3   OH228639   4.651   5.610   0.316
 9561TIP3    H128640   4.667   5.553   0.242
 9561TIP3    H228641   4.556   5.606   0.329
 9562TIP3   OH228642   6.728   4.688   4.738
 9562TIP3    H128643   6.767   4.718   4.656
 9562TIP3    H228644   6.709   4.769   4.786
 9563TIP3   OH228645   5.737   5.500   1.846
 9563TIP3    H128646   5.643   5.498   1.865
 9563TIP3    H228647   5.778   5.474   1.929
 9564TIP3   OH228648   6.880   0.064   1.532
 9564TIP3    H128649   6.817   0.038   1.465
 9564TIP3    H228650   6.939  -0.012   1.540
 9565TIP3   OH228651   5.273   3.683   3.762
 9565TIP3    H128652   5.270   3.599   3.807
 9565TIP3    H228653   5.319   3.741   3.822
 9566TIP3   OH228654   3.661   5.025   2.797
 9566TIP3    H128655   3.629   5.043   2.709
 9566TIP3    H228656   3.617   4.944   2.823
 9567TIP3   OH228657   6.450   4.637   3.163
 9567TIP3    H128658   6.394   4.710   3.188
 9567TIP3    H228659   6.507   4.624   3.239
 9568TIP3   OH228660   1.596   0.350   3.909
 9568TIP3    H128661   1.617   0.274   3.962
 9568TIP3    H228662   1.562   0.313   3.827
 9569TIP3   OH228663   7.817   0.919   3.626
 9569TIP3    H128664   7.890   0.859   3.614
 9569TIP3    H228665   7.753   0.869   3.677
 9570TIP3   OH228666   0.156   0.378   3.481
 9570TIP3    H128667   0.227   0.440   3.464
 9570TIP3    H228668   0.146   0.331   3.398
 9571TIP3   OH228669   6.892   1.542   5.065
 9571TIP3    H128670   6.836   1.580   5.133
 9571TIP3    H228671   6.831   1.500   5.004
 9572TIP3   OH228672   5.192   5.446   2.682
 9572TIP3    H128673   5.169   5.444   2.589
 9572TIP3    H228674   5.156   5.365   2.717
 9573TIP3   OH228675   7.143   0.673   4.349
 9573TIP3    H128676   7.112   0.751   4.303
 9573TIP3    H228677   7.128   0.601   4.287
 9574TIP3   OH228678   7.143   0.445   1.088
 9574TIP3    H128679   7.196   0.389   1.031
 9574TIP3    H228680   7.067   0.391   1.110
 9575TIP3   OH228681   2.325   5.439   0.948
 9575TIP3    H128682   2.413   5.408   0.929
 9575TIP3    H228683   2.269   5.393   0.885
 9576TIP3   OH228684   6.155   4.996   0.615
 9576TIP3    H128685   6.197   5.082   0.612
 9576TIP3    H228686   6.225   4.934   0.595
 9577TIP3   OH228687   6.026   3.577   1.281
 9577TIP3    H128688   6.013   3.647   1.346
 9577TIP3    H228689   6.109   3.537   1.305
 9578TIP3   OH228690   2.669   4.281   5.970
 9578TIP3    H128691   2.631   4.253   5.887
 9578TIP3    H228692   2.655   4.207   6.029
 9579TIP3   OH228693   6.142   2.407   0.085
 9579TIP3    H128694   6.124   2.317   0.060
 9579TIP3    H228695   6.182   2.400   0.172
 9580TIP3   OH228696   5.162   1.134   1.426
 9580TIP3    H128697   5.114   1.212   1.451
 9580TIP3    H228698   5.161   1.078   1.504
 9581TIP3   OH228699   2.482   7.742   3.435
 9581TIP3    H128700   2.514   7.803   3.369
 9581TIP3    H228701   2.538   7.758   3.511
 9582TIP3   OH228702   3.862   5.819   2.677
 9582TIP3    H128703   3.844   5.784   2.590
 9582TIP3    H228704   3.776   5.825   2.719
 9583TIP3   OH228705   5.466   3.663   2.253
 9583TIP3    H128706   5.507   3.583   2.285
 9583TIP3    H228707   5.522   3.733   2.287
 9584TIP3   OH228708   3.161   3.079   1.480
 9584TIP3    H128709   3.193   3.023   1.550
 9584TIP3    H228710   3.078   3.114   1.513
 9585TIP3   OH228711   7.582   7.789   1.938
 9585TIP3    H128712   7.573   7.878   1.902
 9585TIP3    H228713   7.666   7.790   1.984
 9586TIP3   OH228714   4.736   4.353   5.265
 9586TIP3    H128715   4.728   4.419   5.196
 9586TIP3    H228716   4.667   4.373   5.327
 9587TIP3   OH228717   7.066   6.865   3.209
 9587TIP3    H128718   7.112   6.803   3.153
 9587TIP3    H228719   7.098   6.951   3.181
 9588TIP3   OH228720   0.509   4.805   4.084
 9588TIP3    H128721   0.414   4.795   4.079
 9588TIP3    H228722   0.523   4.900   4.088
 9589TIP3   OH228723   0.624   2.339   2.330
 9589TIP3    H128724   0.571   2.358   2.407
 9589TIP3    H228725   0.715   2.344   2.362
 9590TIP3   OH228726   4.324   2.370   5.121
 9590TIP3    H128727   4.292   2.454   5.090
 9590TIP3    H228728   4.399   2.350   5.064
 9591TIP3   OH228729   0.404   5.206   2.610
 9591TIP3    H128730   0.447   5.249   2.536
 9591TIP3    H228731   0.463   5.221   2.683
 9592TIP3   OH228732   8.158   5.427   6.226
 9592TIP3    H128733   8.204   5.495   6.177
 9592TIP3    H228734   8.078   5.411   6.175
 9593TIP3   OH228735   5.502   5.825   6.360
 9593TIP3    H128736   5.595   5.819   6.339
 9593TIP3    H228737   5.494   5.789   6.448
 9594TIP3   OH228738   0.293   1.944   4.464
 9594TIP3    H128739   0.368   1.885   4.469
 9594TIP3    H228740   0.325   2.028   4.498
 9595TIP3   OH228741   1.837   3.309   6.097
 9595TIP3    H128742   1.892   3.305   6.175
 9595TIP3    H228743   1.896   3.287   6.025
 9596TIP3   OH228744   3.141   3.776   3.920
 9596TIP3    H128745   3.182   3.689   3.925
 9596TIP3    H228746   3.047   3.759   3.923
 9597TIP3   OH228747   1.195   0.110   5.274
 9597TIP3    H128748   1.225   0.045   5.338
 9597TIP3    H228749   1.266   0.174   5.270
 9598TIP3   OH228750   4.780   1.443   5.344
 9598TIP3    H128751   4.732   1.447   5.427
 9598TIP3    H228752   4.822   1.529   5.337
 9599TIP3   OH228753   4.325   4.675   4.165
 9599TIP3    H128754   4.311   4.612   4.095
 9599TIP3    H228755   4.238   4.688   4.204
 9600TIP3   OH228756   1.107   3.648   6.155
 9600TIP3    H128757   1.030   3.638   6.099
 9600TIP3    H228758   1.083   3.720   6.214
 9601TIP3   OH228759   1.046   4.813   5.014
 9601TIP3    H128760   1.065   4.907   5.021
 9601TIP3    H228761   1.090   4.785   4.934
 9602TIP3   OH228762   5.306   5.469   3.233
 9602TIP3    H128763   5.270   5.424   3.156
 9602TIP3    H228764   5.327   5.556   3.201
 9603TIP3   OH228765   6.184   5.464   1.309
 9603TIP3    H128766   6.235   5.533   1.267
 9603TIP3    H228767   6.133   5.426   1.238
 9604TIP3   OH228768   2.823   4.330   2.237
 9604TIP3    H128769   2.851   4.392   2.170
 9604TIP3    H228770   2.736   4.302   2.209
 9605TIP3   OH228771   3.850   7.331   3.673
 9605TIP3    H128772   3.767   7.285   3.659
 9605TIP3    H228773   3.825   7.415   3.711
 9606TIP3   OH228774   3.661   3.390   0.947
 9606TIP3    H128775   3.568   3.368   0.960
 9606TIP3    H228776   3.667   3.482   0.970
 9607TIP3   OH228777   5.930   1.323   3.607
 9607TIP3    H128778   5.867   1.364   3.666
 9607TIP3    H228779   5.971   1.254   3.659
 9608TIP3   OH228780   7.921   0.687   6.139
 9608TIP3    H128781   7.847   0.742   6.116
 9608TIP3    H228782   7.910   0.608   6.086
 9609TIP3   OH228783   6.686   6.896   4.923
 9609TIP3    H128784   6.776   6.905   4.890
 9609TIP3    H228785   6.685   6.810   4.965
 9610TIP3   OH228786   1.129   1.020   0.774
 9610TIP3    H128787   1.046   1.052   0.810
 9610TIP3    H228788   1.158   1.090   0.715
 9611TIP3   OH228789   8.261   2.473   2.832
 9611TIP3    H128790   8.337   2.436   2.786
 9611TIP3    H228791   8.187   2.425   2.797
 9612TIP3   OH228792   7.796   2.042   5.105
 9612TIP3    H128793   7.884   2.029   5.143
 9612TIP3    H228794   7.791   2.135   5.086
 9613TIP3   OH228795   5.041   7.282   1.042
 9613TIP3    H128796   5.024   7.188   1.053
 9613TIP3    H228797   5.136   7.290   1.052
 9614TIP3   OH228798   2.658   3.381   0.108
 9614TIP3    H128799   2.581   3.423   0.145
 9614TIP3    H228800   2.683   3.437   0.034
 9615TIP3   OH228801   7.116   2.025   5.664
 9615TIP3    H128802   7.174   2.015   5.588
 9615TIP3    H228803   7.175   2.018   5.739
 9616TIP3   OH228804   5.812   7.519   0.387
 9616TIP3    H128805   5.828   7.592   0.326
 9616TIP3    H228806   5.718   7.523   0.404
 9617TIP3   OH228807   7.780   0.190   3.633
 9617TIP3    H128808   7.842   0.132   3.676
 9617TIP3    H228809   7.699   0.181   3.684
 9618TIP3   OH228810   8.219   4.002   4.285
 9618TIP3    H128811   8.191   3.977   4.197
 9618TIP3    H228812   8.256   4.090   4.275
 9619TIP3   OH228813   2.912   0.004   6.733
 9619TIP3    H128814   2.873   0.087   6.759
 9619TIP3    H228815   2.988  -0.006   6.789
 9620TIP3   OH228816   0.034   4.915   5.193
 9620TIP3    H128817   0.029   4.944   5.102
 9620TIP3    H228818   0.125   4.889   5.206
 9621TIP3   OH228819   3.266   7.233   5.822
 9621TIP3    H128820   3.199   7.168   5.799
 9621TIP3    H228821   3.234   7.273   5.902
 9622TIP3   OH228822   7.166   6.207   5.763
 9622TIP3    H128823   7.213   6.284   5.730
 9622TIP3    H228824   7.160   6.221   5.858
 9623TIP3   OH228825   3.764   2.426   4.014
 9623TIP3    H128826   3.720   2.474   4.084
 9623TIP3    H228827   3.770   2.488   3.942
 9624TIP3   OH228828   1.514   7.504   1.272
 9624TIP3    H128829   1.579   7.458   1.219
 9624TIP3    H228830   1.560   7.525   1.353
 9625TIP3   OH228831   7.862   5.105   3.532
 9625TIP3    H128832   7.807   5.060   3.596
 9625TIP3    H228833   7.802   5.135   3.464
 9626TIP3   OH228834   5.373   2.658   5.308
 9626TIP3    H128835   5.306   2.608   5.261
 9626TIP3    H228836   5.324   2.727   5.353
 9627TIP3   OH228837   0.106   0.950   1.747
 9627TIP3    H128838   0.078   0.861   1.726
 9627TIP3    H228839   0.026   1.002   1.747
 9628TIP3   OH228840   7.261   3.334   0.123
 9628TIP3    H128841   7.286   3.419   0.160
 9628TIP3    H228842   7.176   3.315   0.163
 9629TIP3   OH228843   5.752   2.023   1.924
 9629TIP3    H128844   5.721   2.078   1.852
 9629TIP3    H228845   5.847   2.036   1.924
 9630TIP3   OH228846   5.108   3.971   4.344
 9630TIP3    H128847   5.152   3.904   4.396
 9630TIP3    H228848   5.023   3.932   4.321
 9631TIP3   OH228849   4.730   0.363   0.516
 9631TIP3    H128850   4.820   0.347   0.545
 9631TIP3    H228851   4.738   0.390   0.425
 9632TIP3   OH228852   2.758   6.827   2.952
 9632TIP3    H128853   2.701   6.812   3.027
 9632TIP3    H228854   2.736   6.758   2.890
 9633TIP3   OH228855   2.955   7.368   4.149
 9633TIP3    H128856   2.958   7.278   4.183
 9633TIP3    H228857   3.044   7.401   4.161
 9634TIP3   OH228858   2.484   1.158   2.825
 9634TIP3    H128859   2.426   1.209   2.769
 9634TIP3    H228860   2.565   1.208   2.829
 9635TIP3   OH228861   1.069   1.495   0.303
 9635TIP3    H128862   1.151   1.509   0.255
 9635TIP3    H228863   1.097   1.479   0.393
 9636TIP3   OH228864   3.536   2.985   6.086
 9636TIP3    H128865   3.491   3.066   6.063
 9636TIP3    H228866   3.508   2.923   6.018
 9637TIP3   OH228867   6.450   7.085   1.687
 9637TIP3    H128868   6.518   7.071   1.621
 9637TIP3    H228869   6.449   7.005   1.738
 9638TIP3   OH228870   3.067   6.353   0.189
 9638TIP3    H128871   3.049   6.286   0.256
 9638TIP3    H228872   3.067   6.435   0.238
 9639TIP3   OH228873   0.533   4.846   0.275
 9639TIP3    H128874   0.570   4.768   0.234
 9639TIP3    H228875   0.564   4.919   0.221
 9640TIP3   OH228876   7.958   7.201   5.054
 9640TIP3    H128877   7.907   7.151   5.117
 9640TIP3    H228878   7.914   7.188   4.970
 9641TIP3   OH228879   1.630   5.031   3.490
 9641TIP3    H128880   1.664   4.959   3.543
 9641TIP3    H228881   1.537   5.034   3.510
 9642TIP3   OH228882   4.746   4.307   1.713
 9642TIP3    H128883   4.722   4.383   1.659
 9642TIP3    H228884   4.824   4.272   1.671
 9643TIP3   OH228885   0.452   1.739   4.421
 9643TIP3    H128886   0.376   1.684   4.402
 9643TIP3    H228887   0.505   1.735   4.341
 9644TIP3   OH228888   3.630   7.311   1.384
 9644TIP3    H128889   3.558   7.270   1.335
 9644TIP3    H228890   3.705   7.306   1.324
 9645TIP3   OH228891   5.507   4.535   4.412
 9645TIP3    H128892   5.540   4.540   4.502
 9645TIP3    H228893   5.421   4.577   4.416
 9646TIP3   OH228894   5.647   2.148   0.623
 9646TIP3    H128895   5.571   2.182   0.575
 9646TIP3    H228896   5.703   2.224   0.637
 9647TIP3   OH228897   2.344   7.407   4.270
 9647TIP3    H128898   2.328   7.350   4.194
 9647TIP3    H228899   2.357   7.346   4.343
 9648TIP3   OH228900   4.071   1.727   6.467
 9648TIP3    H128901   4.126   1.806   6.459
 9648TIP3    H228902   4.091   1.676   6.388
 9649TIP3   OH228903   3.835   6.966   5.786
 9649TIP3    H128904   3.833   7.039   5.723
 9649TIP3    H228905   3.878   6.895   5.739
 9650TIP3   OH228906   7.336   3.591   3.219
 9650TIP3    H128907   7.307   3.560   3.304
 9650TIP3    H228908   7.259   3.583   3.163
 9651TIP3   OH228909   6.727   0.352   3.598
 9651TIP3    H128910   6.727   0.444   3.627
 9651TIP3    H228911   6.799   0.347   3.535
 9652TIP3   OH228912   0.550   1.340   2.834
 9652TIP3    H128913   0.464   1.300   2.822
 9652TIP3    H228914   0.547   1.379   2.921
 9653TIP3   OH228915   5.531   6.065   5.099
 9653TIP3    H128916   5.560   6.136   5.157
 9653TIP3    H228917   5.441   6.090   5.075
 9654TIP3   OH228918   3.877   1.932   3.611
 9654TIP3    H128919   3.885   2.009   3.667
 9654TIP3    H228920   3.824   1.962   3.537
 9655TIP3   OH228921   7.194   6.766   4.633
 9655TIP3    H128922   7.122   6.823   4.604
 9655TIP3    H228923   7.269   6.824   4.639
 9656TIP3   OH228924   8.119   1.910   3.132
 9656TIP3    H128925   8.044   1.859   3.162
 9656TIP3    H228926   8.170   1.850   3.077
 9657TIP3   OH228927   2.670   4.251   4.205
 9657TIP3    H128928   2.714   4.212   4.280
 9657TIP3    H228929   2.733   4.242   4.133
 9658TIP3   OH228930   7.115   0.721   0.471
 9658TIP3    H128931   7.190   0.780   0.480
 9658TIP3    H228932   7.127   0.679   0.386
 9659TIP3   OH228933   0.954   0.439   6.762
 9659TIP3    H128934   1.029   0.492   6.734
 9659TIP3    H228935   0.991   0.354   6.785
 9660TIP3   OH228936   7.114   1.677   4.199
 9660TIP3    H128937   7.135   1.750   4.259
 9660TIP3    H228938   7.041   1.632   4.241
 9661TIP3   OH228939   4.778   1.618   5.023
 9661TIP3    H128940   4.749   1.565   5.097
 9661TIP3    H228941   4.790   1.555   4.951
 9662TIP3   OH228942   1.463   4.122   0.664
 9662TIP3    H128943   1.409   4.089   0.736
 9662TIP3    H228944   1.409   4.110   0.586
 9663TIP3   OH228945   0.631   7.035   4.467
 9663TIP3    H128946   0.574   7.105   4.497
 9663TIP3    H228947   0.587   6.954   4.496
 9664TIP3   OH228948   4.178   5.096   3.792
 9664TIP3    H128949   4.162   5.007   3.824
 9664TIP3    H228950   4.170   5.151   3.870
 9665TIP3   OH228951   3.671   3.643   1.056
 9665TIP3    H128952   3.752   3.681   1.024
 9665TIP3    H228953   3.664   3.674   1.147
 9666TIP3   OH228954   3.251   1.893   1.547
 9666TIP3    H128955   3.216   1.907   1.635
 9666TIP3    H228956   3.176   1.907   1.489
 9667TIP3   OH228957   2.759   5.364   3.028
 9667TIP3    H128958   2.772   5.425   2.956
 9667TIP3    H228959   2.674   5.323   3.010
 9668TIP3   OH228960   1.139   4.724   1.854
 9668TIP3    H128961   1.137   4.814   1.885
 9668TIP3    H228962   1.221   4.716   1.805
 9669TIP3   OH228963   3.558   3.286   2.793
 9669TIP3    H128964   3.597   3.351   2.734
 9669TIP3    H228965   3.632   3.245   2.837
 9670TIP3   OH228966   5.383   3.053   5.361
 9670TIP3    H128967   5.411   3.086   5.275
 9670TIP3    H228968   5.464   3.028   5.405
 9671TIP3   OH228969   8.007   6.576   4.142
 9671TIP3    H128970   7.934   6.635   4.158
 9671TIP3    H228971   7.978   6.521   4.069
 9672TIP3   OH228972   5.323   5.115   2.256
 9672TIP3    H128973   5.364   5.184   2.308
 9672TIP3    H228974   5.236   5.103   2.295
 9673TIP3   OH228975   3.297   1.782   6.668
 9673TIP3    H128976   3.232   1.750   6.731
 9673TIP3    H228977   3.381   1.751   6.703
 9674TIP3   OH228978   4.783   1.702   1.635
 9674TIP3    H128979   4.878   1.694   1.636
 9674TIP3    H228980   4.755   1.651   1.559
 9675TIP3   OH228981   3.640   0.132   5.226
 9675TIP3    H128982   3.646   0.041   5.253
 9675TIP3    H228983   3.599   0.129   5.140
 9676TIP3   OH228984   3.915   6.081   5.211
 9676TIP3    H128985   3.890   6.088   5.118
 9676TIP3    H228986   3.937   5.989   5.223
 9677TIP3   OH228987   2.607   4.862   5.407
 9677TIP3    H128988   2.658   4.936   5.440
 9677TIP3    H228989   2.644   4.786   5.452
 9678TIP3   OH228990   8.242   2.943   4.059
 9678TIP3    H128991   8.251   2.858   4.016
 9678TIP3    H228992   8.180   2.928   4.131
 9679TIP3   OH228993   7.352   3.076   4.300
 9679TIP3    H128994   7.370   3.015   4.229
 9679TIP3    H228995   7.357   3.023   4.380
 9680TIP3   OH228996   4.681   0.849   4.444
 9680TIP3    H128997   4.727   0.803   4.374
 9680TIP3    H228998   4.609   0.894   4.399
 9681TIP3   OH228999   6.677   7.375   4.611
 9681TIP3    H129000   6.660   7.289   4.649
 9681TIP3    H229001   6.662   7.364   4.517
 9682TIP3   OH229002   2.898   6.330   1.676
 9682TIP3    H129003   2.890   6.425   1.670
 9682TIP3    H229004   2.842   6.305   1.749
 9683TIP3   OH229005   4.388   2.019   1.581
 9683TIP3    H129006   4.457   1.964   1.543
 9683TIP3    H229007   4.366   2.081   1.512
 9684TIP3   OH229008   0.533   1.084   2.267
 9684TIP3    H129009   0.468   1.154   2.263
 9684TIP3    H229010   0.497   1.021   2.329
 9685TIP3   OH229011   4.362   5.343   0.545
 9685TIP3    H129012   4.316   5.305   0.620
 9685TIP3    H229013   4.453   5.319   0.558
 9686TIP3   OH229014   5.357   4.923   2.057
 9686TIP3    H129015   5.403   4.868   2.121
 9686TIP3    H229016   5.327   4.999   2.107
 9687TIP3   OH229017   6.892   3.040   5.812
 9687TIP3    H129018   6.888   2.951   5.778
 9687TIP3    H229019   6.852   3.094   5.744
 9688TIP3   OH229020   1.714   1.038   5.845
 9688TIP3    H129021   1.763   1.120   5.841
 9688TIP3    H229022   1.690   1.029   5.937
 9689TIP3   OH229023   0.489   0.936   4.561
 9689TIP3    H129024   0.510   0.917   4.653
 9689TIP3    H229025   0.568   0.979   4.527
 9690TIP3   OH229026   3.109   3.307   1.773
 9690TIP3    H129027   3.184   3.363   1.749
 9690TIP3    H229028   3.118   3.294   1.867
 9691TIP3   OH229029   2.936   4.292   1.481
 9691TIP3    H129030   2.951   4.263   1.391
 9691TIP3    H229031   2.938   4.211   1.532
 9692TIP3   OH229032   7.216   4.021   0.853
 9692TIP3    H129033   7.151   4.037   0.921
 9692TIP3    H229034   7.178   3.952   0.799
 9693TIP3   OH229035   4.704   4.402   2.020
 9693TIP3    H129036   4.661   4.418   2.104
 9693TIP3    H229037   4.792   4.438   2.032
 9694TIP3   OH229038   5.107   5.818   2.875
 9694TIP3    H129039   5.139   5.885   2.935
 9694TIP3    H229040   5.117   5.856   2.788
 9695TIP3   OH229041   3.751   2.292   5.456
 9695TIP3    H129042   3.845   2.286   5.439
 9695TIP3    H229043   3.742   2.265   5.548
 9696TIP3   OH229044   0.384   5.023   5.407
 9696TIP3    H129045   0.388   4.988   5.497
 9696TIP3    H229046   0.291   5.042   5.394
 9697TIP3   OH229047   4.556   3.995   3.891
 9697TIP3    H129048   4.588   3.988   3.801
 9697TIP3    H229049   4.601   4.071   3.927
 9698TIP3   OH229050   2.667   0.045   2.776
 9698TIP3    H129051   2.621   0.123   2.807
 9698TIP3    H229052   2.651  -0.021   2.843
 9699TIP3   OH229053   3.929   5.983   6.318
 9699TIP3    H129054   3.967   6.068   6.295
 9699TIP3    H229055   3.850   5.977   6.265
 9700TIP3   OH229056   0.844   7.523   6.415
 9700TIP3    H129057   0.888   7.521   6.330
 9700TIP3    H229058   0.753   7.543   6.395
 9701TIP3   OH229059   0.210   5.611   2.719
 9701TIP3    H129060   0.294   5.650   2.696
 9701TIP3    H229061   0.155   5.625   2.642
 9702TIP3   OH229062   8.066   4.001   2.985
 9702TIP3    H129063   8.090   3.910   2.971
 9702TIP3    H229064   8.112   4.049   2.916
 9703TIP3   OH229065   5.170   4.278   6.100
 9703TIP3    H129066   5.146   4.188   6.121
 9703TIP3    H229067   5.108   4.331   6.149
 9704TIP3   OH229068   6.276   0.114   5.163
 9704TIP3    H129069   6.254   0.207   5.166
 9704TIP3    H229070   6.199   0.070   5.200
 9705TIP3   OH229071   1.310   0.187   5.578
 9705TIP3    H129072   1.302   0.108   5.526
 9705TIP3    H229073   1.247   0.176   5.649
 9706TIP3   OH229074   2.461   7.539   0.974
 9706TIP3    H129075   2.405   7.464   0.995
 9706TIP3    H229076   2.410   7.588   0.909
 9707TIP3   OH229077   5.691   5.626   2.924
 9707TIP3    H129078   5.764   5.577   2.885
 9707TIP3    H229079   5.614   5.573   2.907
 9708TIP3   OH229080   6.767   0.728   4.553
 9708TIP3    H129081   6.752   0.784   4.477
 9708TIP3    H229082   6.680   0.718   4.593
 9709TIP3   OH229083   6.454   7.772   2.800
 9709TIP3    H129084   6.421   7.727   2.878
 9709TIP3    H229085   6.540   7.733   2.784
 9710TIP3   OH229086   2.274   6.125   5.984
 9710TIP3    H129087   2.236   6.073   6.055
 9710TIP3    H229088   2.301   6.207   6.025
 9711TIP3   OH229089   4.922   3.978   0.762
 9711TIP3    H129090   4.949   4.041   0.696
 9711TIP3    H229091   4.829   3.961   0.743
 9712TIP3   OH229092   8.019   5.337   4.744
 9712TIP3    H129093   8.099   5.388   4.734
 9712TIP3    H229094   7.955   5.398   4.779
 9713TIP3   OH229095   1.945   7.715   6.449
 9713TIP3    H129096   1.887   7.639   6.453
 9713TIP3    H229097   1.900   7.782   6.500
 9714TIP3   OH229098   6.536   2.529   0.520
 9714TIP3    H129099   6.466   2.471   0.550
 9714TIP3    H229100   6.579   2.480   0.450
 9715TIP3   OH229101   6.267   3.406   0.082
 9715TIP3    H129102   6.307   3.392  -0.004
 9715TIP3    H229103   6.299   3.332   0.135
 9716TIP3   OH229104   6.918   1.257   1.914
 9716TIP3    H129105   6.855   1.326   1.938
 9716TIP3    H229106   6.950   1.283   1.827
 9717TIP3   OH229107   4.928   6.945   0.572
 9717TIP3    H129108   4.875   7.002   0.627
 9717TIP3    H229109   4.962   6.878   0.631
 9718TIP3   OH229110   7.958   7.338   6.081
 9718TIP3    H129111   7.887   7.314   6.141
 9718TIP3    H229112   8.027   7.371   6.138
 9719TIP3   OH229113   4.657   6.121   5.383
 9719TIP3    H129114   4.715   6.046   5.366
 9719TIP3    H229115   4.700   6.195   5.341
 9720TIP3   OH229116   3.811   7.657   3.756
 9720TIP3    H129117   3.818   7.710   3.836
 9720TIP3    H229118   3.733   7.690   3.712
 9721TIP3   OH229119   5.522   4.482   2.627
 9721TIP3    H129120   5.552   4.445   2.710
 9721TIP3    H229121   5.464   4.553   2.652
 9722TIP3   OH229122   2.794   2.383   1.891
 9722TIP3    H129123   2.856   2.370   1.820
 9722TIP3    H229124   2.835   2.448   1.948
 9723TIP3   OH229125   4.912   3.183   0.963
 9723TIP3    H129126   4.982   3.132   0.922
 9723TIP3    H229127   4.870   3.121   1.024
 9724TIP3   OH229128   2.073   3.810   6.589
 9724TIP3    H129129   2.129   3.858   6.650
 9724TIP3    H229130   2.127   3.736   6.561
 9725TIP3   OH229131   4.912   6.837   2.644
 9725TIP3    H129132   4.909   6.907   2.710
 9725TIP3    H229133   4.977   6.866   2.581
 9726TIP3   OH229134   6.209   6.525   1.078
 9726TIP3    H129135   6.163   6.445   1.105
 9726TIP3    H229136   6.276   6.537   1.145
 9727TIP3   OH229137   7.986   1.323   4.689
 9727TIP3    H129138   8.080   1.339   4.702
 9727TIP3    H229139   7.979   1.292   4.599
 9728TIP3   OH229140   4.924   5.242   3.273
 9728TIP3    H129141   4.846   5.296   3.259
 9728TIP3    H229142   4.926   5.226   3.367
 9729TIP3   OH229143   7.376   3.905   3.318
 9729TIP3    H129144   7.450   3.849   3.339
 9729TIP3    H229145   7.300   3.857   3.351
 9730TIP3   OH229146   0.118   0.524   4.912
 9730TIP3    H129147   0.109   0.430   4.897
 9730TIP3    H229148   0.122   0.533   5.007
 9731TIP3   OH229149   3.455   6.398   2.853
 9731TIP3    H129150   3.439   6.304   2.841
 9731TIP3    H229151   3.402   6.421   2.930
 9732TIP3   OH229152   2.654   2.738   3.996
 9732TIP3    H129153   2.587   2.795   3.956
 9732TIP3    H229154   2.699   2.795   4.058
 9733TIP3   OH229155   7.253   1.809   2.085
 9733TIP3    H129156   7.180   1.748   2.091
 9733TIP3    H229157   7.322   1.760   2.041
 9734TIP3   OH229158   6.053   3.796   4.503
 9734TIP3    H129159   6.096   3.881   4.494
 9734TIP3    H229160   5.987   3.795   4.433
 9735TIP3   OH229161   3.444   2.142   5.766
 9735TIP3    H129162   3.390   2.219   5.781
 9735TIP3    H229163   3.428   2.118   5.675
 9736TIP3   OH229164   3.023   5.607   5.561
 9736TIP3    H129165   3.003   5.588   5.469
 9736TIP3    H229166   2.948   5.659   5.591
 9737TIP3   OH229167   2.120   0.098   5.993
 9737TIP3    H129168   2.100   0.118   5.901
 9737TIP3    H229169   2.077   0.167   6.043
 9738TIP3   OH229170   6.595   0.775   5.541
 9738TIP3    H129171   6.625   0.866   5.541
 9738TIP3    H229172   6.507   0.778   5.504
 9739TIP3   OH229173   5.012   1.454   4.416
 9739TIP3    H129174   5.022   1.544   4.385
 9739TIP3    H229175   5.025   1.400   4.338
 9740TIP3   OH229176   0.604   0.244   4.006
 9740TIP3    H129177   0.611   0.168   4.063
 9740TIP3    H229178   0.511   0.266   4.006
 9741TIP3   OH229179   4.354   5.392   3.453
 9741TIP3    H129180   4.369   5.476   3.496
 9741TIP3    H229181   4.432   5.378   3.400
 9742TIP3   OH229182   3.463   4.933   6.396
 9742TIP3    H129183   3.426   4.861   6.448
 9742TIP3    H229184   3.455   4.903   6.305
 9743TIP3   OH229185   0.610   2.032   4.817
 9743TIP3    H129186   0.624   1.992   4.903
 9743TIP3    H229187   0.540   1.979   4.778
 9744TIP3   OH229188   6.320   2.936   5.949
 9744TIP3    H129189   6.392   2.963   5.892
 9744TIP3    H229190   6.293   2.851   5.915
 9745TIP3   OH229191   6.403   3.767   1.330
 9745TIP3    H129192   6.371   3.857   1.318
 9745TIP3    H229193   6.336   3.712   1.290
 9746TIP3   OH229194   0.689   2.110   0.973
 9746TIP3    H129195   0.611   2.089   0.922
 9746TIP3    H229196   0.732   2.025   0.988
 9747TIP3   OH229197   1.697   5.612   2.727
 9747TIP3    H129198   1.680   5.607   2.821
 9747TIP3    H229199   1.649   5.538   2.690
 9748TIP3   OH229200   5.826   2.227   3.965
 9748TIP3    H129201   5.839   2.296   3.900
 9748TIP3    H229202   5.778   2.159   3.918
 9749TIP3   OH229203   0.444   5.702   5.507
 9749TIP3    H129204   0.536   5.676   5.510
 9749TIP3    H229205   0.440   5.782   5.559
 9750TIP3   OH229206   7.138   3.774   0.230
 9750TIP3    H129207   7.150   3.869   0.225
 9750TIP3    H229208   7.081   3.761   0.305
 9751TIP3   OH229209   0.888   1.626   5.827
 9751TIP3    H129210   0.937   1.571   5.887
 9751TIP3    H229211   0.917   1.715   5.846
 9752TIP3   OH229212   2.808   3.022   4.136
 9752TIP3    H129213   2.728   3.067   4.108
 9752TIP3    H229214   2.809   3.032   4.231
 9753TIP3   OH229215   6.781   5.018   1.109
 9753TIP3    H129216   6.847   5.004   1.042
 9753TIP3    H229217   6.771   4.932   1.150
 9754TIP3   OH229218   8.023   0.012   1.645
 9754TIP3    H129219   8.115  -0.011   1.635
 9754TIP3    H229220   8.023   0.098   1.686
 9755TIP3   OH229221   5.983   4.617   3.119
 9755TIP3    H129222   5.974   4.577   3.033
 9755TIP3    H229223   6.062   4.670   3.112
 9756TIP3   OH229224   6.072   0.695   4.559
 9756TIP3    H129225   6.050   0.684   4.652
 9756TIP3    H229226   6.040   0.616   4.517
 9757TIP3   OH229227   2.097   3.256   0.666
 9757TIP3    H129228   2.151   3.326   0.631
 9757TIP3    H229229   2.082   3.197   0.592
 9758TIP3   OH229230   0.538   3.568   6.754
 9758TIP3    H129231   0.450   3.556   6.717
 9758TIP3    H229232   0.545   3.500   6.821
 9759TIP3   OH229233   3.404   2.660   4.816
 9759TIP3    H129234   3.416   2.591   4.881
 9759TIP3    H229235   3.493   2.686   4.792
 9760TIP3   OH229236   4.825   4.668   1.109
 9760TIP3    H129237   4.750   4.659   1.168
 9760TIP3    H229238   4.840   4.762   1.103
 9761TIP3   OH229239   7.798   1.498   3.579
 9761TIP3    H129240   7.780   1.591   3.586
 9761TIP3    H229241   7.713   1.458   3.562
 9762TIP3   OH229242   1.983   0.746   3.396
 9762TIP3    H129243   2.052   0.810   3.415
 9762TIP3    H229244   1.940   0.732   3.480
 9763TIP3   OH229245   7.160   5.364   2.067
 9763TIP3    H129246   7.172   5.459   2.056
 9763TIP3    H229247   7.065   5.351   2.067
 9764TIP3   OH229248   7.962   7.149   0.632
 9764TIP3    H129249   7.958   7.068   0.683
 9764TIP3    H229250   8.039   7.195   0.667
 9765TIP3   OH229251   4.782   1.583   1.401
 9765TIP3    H129252   4.860   1.602   1.347
 9765TIP3    H229253   4.708   1.608   1.345
 9766TIP3   OH229254   3.752   0.211   3.275
 9766TIP3    H129255   3.719   0.299   3.257
 9766TIP3    H229256   3.690   0.153   3.230
 9767TIP3   OH229257   1.017   4.934   2.404
 9767TIP3    H129258   0.972   4.922   2.320
 9767TIP3    H229259   0.990   5.022   2.432
 9768TIP3   OH229260   4.657   3.061   5.431
 9768TIP3    H129261   4.692   2.981   5.390
 9768TIP3    H229262   4.569   3.070   5.394
 9769TIP3   OH229263   5.774   2.636   6.439
 9769TIP3    H129264   5.779   2.724   6.475
 9769TIP3    H229265   5.705   2.593   6.489
 9770TIP3   OH229266   7.335   3.707   1.988
 9770TIP3    H129267   7.393   3.782   1.975
 9770TIP3    H229268   7.260   3.725   1.931
 9771TIP3   OH229269   3.580   1.387   4.069
 9771TIP3    H129270   3.620   1.300   4.065
 9771TIP3    H229271   3.600   1.426   3.983
 9772TIP3   OH229272   1.855   5.690   4.577
 9772TIP3    H129273   1.861   5.785   4.568
 9772TIP3    H229274   1.903   5.670   4.658
 9773TIP3   OH229275   4.220   5.207   3.260
 9773TIP3    H129276   4.179   5.188   3.176
 9773TIP3    H229277   4.260   5.293   3.248
 9774TIP3   OH229278   1.591   3.644   3.650
 9774TIP3    H129279   1.654   3.575   3.671
 9774TIP3    H229280   1.593   3.650   3.554
 9775TIP3   OH229281   3.230   0.525   3.656
 9775TIP3    H129282   3.237   0.596   3.592
 9775TIP3    H229283   3.223   0.446   3.603
 9776TIP3   OH229284   3.488   6.405   4.669
 9776TIP3    H129285   3.398   6.419   4.699
 9776TIP3    H229286   3.481   6.397   4.574
 9777TIP3   OH229287   1.102   7.607   4.232
 9777TIP3    H129288   1.150   7.682   4.266
 9777TIP3    H229289   1.011   7.637   4.227
 9778TIP3   OH229290   3.856   4.294   4.298
 9778TIP3    H129291   3.924   4.338   4.349
 9778TIP3    H229292   3.904   4.229   4.246
 9779TIP3   OH229293   7.996   5.222   2.305
 9779TIP3    H129294   7.942   5.220   2.227
 9779TIP3    H229295   8.055   5.296   2.292
 9780TIP3   OH229296   1.117   5.102   5.090
 9780TIP3    H129297   1.160   5.102   5.176
 9780TIP3    H229298   1.171   5.162   5.037
 9781TIP3   OH229299   7.789   6.346   1.079
 9781TIP3    H129300   7.754   6.431   1.050
 9781TIP3    H229301   7.883   6.351   1.058
 9782TIP3   OH229302   5.940   4.906   2.087
 9782TIP3    H129303   5.846   4.896   2.101
 9782TIP3    H229304   5.954   4.879   1.996
 9783TIP3   OH229305   5.892   3.748   5.730
 9783TIP3    H129306   5.983   3.758   5.702
 9783TIP3    H229307   5.896   3.681   5.799
 9784TIP3   OH229308   6.153   6.956   0.183
 9784TIP3    H129309   6.095   6.900   0.133
 9784TIP3    H229310   6.236   6.954   0.136
 9785TIP3   OH229311   5.707   1.608   1.411
 9785TIP3    H129312   5.737   1.691   1.447
 9785TIP3    H229313   5.709   1.621   1.316
 9786TIP3   OH229314   5.417   4.205   1.395
 9786TIP3    H129315   5.475   4.279   1.414
 9786TIP3    H229316   5.401   4.211   1.300
 9787TIP3   OH229317   4.451   2.301   6.756
 9787TIP3    H129318   4.423   2.228   6.701
 9787TIP3    H229319   4.497   2.360   6.697
 9788TIP3   OH229320   0.582   0.976   0.903
 9788TIP3    H129321   0.501   1.026   0.909
 9788TIP3    H229322   0.590   0.933   0.988
 9789TIP3   OH229323   2.759   1.588   2.607
 9789TIP3    H129324   2.798   1.573   2.693
 9789TIP3    H229325   2.791   1.675   2.582
 9790TIP3   OH229326   5.776   5.543   2.324
 9790TIP3    H129327   5.796   5.455   2.292
 9790TIP3    H229328   5.701   5.571   2.271
 9791TIP3   OH229329   0.816   6.654   3.509
 9791TIP3    H129330   0.762   6.676   3.433
 9791TIP3    H229331   0.783   6.711   3.579
 9792TIP3   OH229332   1.382   5.707   3.767
 9792TIP3    H129333   1.366   5.692   3.674
 9792TIP3    H229334   1.295   5.705   3.807
 9793TIP3   OH229335   0.160   3.345   2.237
 9793TIP3    H129336   0.091   3.383   2.183
 9793TIP3    H229337   0.139   3.251   2.241
 9794TIP3   OH229338   7.323   0.860   0.539
 9794TIP3    H129339   7.388   0.817   0.595
 9794TIP3    H229340   7.369   0.934   0.500
 9795TIP3   OH229341   2.913   4.403   4.240
 9795TIP3    H129342   2.866   4.460   4.179
 9795TIP3    H229343   2.846   4.346   4.278
 9796TIP3   OH229344   0.528   6.826   5.068
 9796TIP3    H129345   0.536   6.918   5.092
 9796TIP3    H229346   0.582   6.818   4.989
 9797TIP3   OH229347   2.999   1.266   5.554
 9797TIP3    H129348   2.934   1.316   5.603
 9797TIP3    H229349   3.059   1.231   5.621
 9798TIP3   OH229350   0.077   4.948   0.514
 9798TIP3    H129351   0.091   5.038   0.487
 9798TIP3    H229352   0.163   4.906   0.502
 9799TIP3   OH229353   4.613   2.422   3.929
 9799TIP3    H129354   4.598   2.456   4.017
 9799TIP3    H229355   4.553   2.470   3.874
 9800TIP3   OH229356   0.162   1.081   5.865
 9800TIP3    H129357   0.175   1.155   5.806
 9800TIP3    H229358   0.074   1.048   5.844
 9801TIP3   OH229359   8.082   5.866   3.395
 9801TIP3    H129360   8.029   5.856   3.315
 9801TIP3    H229361   8.171   5.882   3.362
 9802TIP3   OH229362   7.806   6.205   5.860
 9802TIP3    H129363   7.721   6.246   5.878
 9802TIP3    H229364   7.790   6.111   5.866
 9803TIP3   OH229365   7.046   7.325   1.532
 9803TIP3    H129366   7.008   7.299   1.448
 9803TIP3    H229367   7.135   7.290   1.530
 9804TIP3   OH229368   3.598   7.781   0.308
 9804TIP3    H129369   3.616   7.738   0.224
 9804TIP3    H229370   3.518   7.739   0.339
 9805TIP3   OH229371   5.632   3.668   0.793
 9805TIP3    H129372   5.682   3.591   0.820
 9805TIP3    H229373   5.558   3.632   0.743
 9806TIP3   OH229374   3.300   2.723   3.664
 9806TIP3    H129375   3.314   2.818   3.669
 9806TIP3    H229376   3.205   2.713   3.664
 9807TIP3   OH229377   2.698   0.912   5.009
 9807TIP3    H129378   2.616   0.921   5.057
 9807TIP3    H229379   2.759   0.876   5.073
 9808TIP3   OH229380   3.469   4.578   0.389
 9808TIP3    H129381   3.386   4.534   0.407
 9808TIP3    H229382   3.529   4.507   0.365
 9809TIP3   OH229383   2.747   7.120   2.031
 9809TIP3    H129384   2.839   7.147   2.026
 9809TIP3    H229385   2.703   7.192   2.075
 9810TIP3   OH229386   6.459   4.608   5.662
 9810TIP3    H129387   6.529   4.543   5.650
 9810TIP3    H229388   6.419   4.616   5.576
 9811TIP3   OH229389   5.323   1.129   6.477
 9811TIP3    H129390   5.408   1.161   6.506
 9811TIP3    H229391   5.281   1.096   6.556
 9812TIP3   OH229392   4.738   1.281   6.661
 9812TIP3    H129393   4.681   1.222   6.710
 9812TIP3    H229394   4.776   1.338   6.728
 9813TIP3   OH229395   0.210   1.832   5.300
 9813TIP3    H129396   0.209   1.740   5.326
 9813TIP3    H229397   0.293   1.865   5.335
 9814TIP3   OH229398   0.540   2.983   1.184
 9814TIP3    H129399   0.621   2.960   1.230
 9814TIP3    H229400   0.478   2.916   1.212
 9815TIP3   OH229401   3.443   6.248   2.546
 9815TIP3    H129402   3.485   6.164   2.532
 9815TIP3    H229403   3.394   6.236   2.628
 9816TIP3   OH229404   1.640   7.729   0.460
 9816TIP3    H129405   1.696   7.802   0.486
 9816TIP3    H229406   1.615   7.749   0.370
 9817TIP3   OH229407   7.111   1.410   2.261
 9817TIP3    H129408   7.083   1.328   2.302
 9817TIP3    H229409   7.198   1.427   2.297
 9818TIP3   OH229410   5.367   0.563   4.887
 9818TIP3    H129411   5.434   0.625   4.917
 9818TIP3    H229412   5.379   0.486   4.943
 9819TIP3   OH229413   4.754   4.576   5.114
 9819TIP3    H129414   4.710   4.636   5.054
 9819TIP3    H229415   4.840   4.561   5.074
 9820TIP3   OH229416   8.029   7.727   0.208
 9820TIP3    H129417   7.995   7.793   0.148
 9820TIP3    H229418   8.028   7.646   0.156
 9821TIP3   OH229419   3.079   4.199   0.980
 9821TIP3    H129420   3.140   4.267   1.009
 9821TIP3    H229421   3.126   4.117   0.991
 9822TIP3   OH229422   0.592   3.512   4.695
 9822TIP3    H129423   0.666   3.549   4.647
 9822TIP3    H229424   0.548   3.587   4.735
 9823TIP3   OH229425   6.188   0.207   3.854
 9823TIP3    H129426   6.257   0.214   3.921
 9823TIP3    H229427   6.154   0.296   3.845
 9824TIP3   OH229428   4.448   3.418   5.724
 9824TIP3    H129429   4.379   3.483   5.706
 9824TIP3    H229430   4.477   3.439   5.813
 9825TIP3   OH229431   2.561   7.248   4.741
 9825TIP3    H129432   2.474   7.234   4.705
 9825TIP3    H229433   2.548   7.305   4.817
 9826TIP3   OH229434   1.496   2.571   3.285
 9826TIP3    H129435   1.539   2.516   3.350
 9826TIP3    H229436   1.449   2.509   3.228
 9827TIP3   OH229437   2.793   3.106   5.356
 9827TIP3    H129438   2.798   3.107   5.261
 9827TIP3    H229439   2.885   3.106   5.385
 9828TIP3   OH229440   4.276   0.216   5.332
 9828TIP3    H129441   4.206   0.182   5.388
 9828TIP3    H229442   4.348   0.233   5.393
 9829TIP3   OH229443   1.310   3.946   0.147
 9829TIP3    H129444   1.257   3.867   0.133
 9829TIP3    H229445   1.279   4.008   0.081
 9830TIP3   OH229446   7.334   7.712   2.471
 9830TIP3    H129447   7.283   7.793   2.475
 9830TIP3    H229448   7.329   7.685   2.380
 9831TIP3   OH229449   4.253   4.855   5.962
 9831TIP3    H129450   4.187   4.813   5.906
 9831TIP3    H229451   4.306   4.782   5.993
 9832TIP3   OH229452   1.820   7.666   3.651
 9832TIP3    H129453   1.832   7.687   3.558
 9832TIP3    H229454   1.785   7.745   3.690
 9833TIP3   OH229455   5.638   3.789   5.762
 9833TIP3    H129456   5.612   3.779   5.670
 9833TIP3    H229457   5.733   3.802   5.759
 9834TIP3   OH229458   5.714   4.531   3.608
 9834TIP3    H129459   5.792   4.586   3.616
 9834TIP3    H229460   5.740   4.462   3.547
 9835TIP3   OH229461   7.667   2.440   0.558
 9835TIP3    H129462   7.642   2.533   0.564
 9835TIP3    H229463   7.587   2.392   0.577
 9836TIP3   OH229464   4.747   4.561   0.860
 9836TIP3    H129465   4.767   4.606   0.943
 9836TIP3    H229466   4.800   4.482   0.863
 9837TIP3   OH229467   7.011   2.713   5.739
 9837TIP3    H129468   7.064   2.723   5.660
 9837TIP3    H229469   7.064   2.657   5.797
 9838TIP3   OH229470   5.496   2.128   2.274
 9838TIP3    H129471   5.491   2.048   2.222
 9838TIP3    H229472   5.583   2.164   2.255
 9839TIP3   OH229473   7.583   7.149   6.494
 9839TIP3    H129474   7.538   7.214   6.440
 9839TIP3    H229475   7.631   7.095   6.431
 9840TIP3   OH229476   6.560   1.717   3.784
 9840TIP3    H129477   6.644   1.761   3.772
 9840TIP3    H229478   6.518   1.766   3.855
 9841TIP3   OH229479   1.586   5.208   3.997
 9841TIP3    H129480   1.511   5.204   4.058
 9841TIP3    H229481   1.616   5.299   4.002
 9842TIP3   OH229482   5.900   5.962   0.777
 9842TIP3    H129483   5.847   6.024   0.726
 9842TIP3    H229484   5.990   5.996   0.769
 9843TIP3   OH229485   2.930   3.587   2.021
 9843TIP3    H129486   3.013   3.590   1.973
 9843TIP3    H229487   2.948   3.631   2.104
 9844TIP3   OH229488   3.803   1.330   5.502
 9844TIP3    H129489   3.800   1.309   5.409
 9844TIP3    H229490   3.867   1.401   5.509
 9845TIP3   OH229491   1.823   1.621   2.606
 9845TIP3    H129492   1.855   1.601   2.694
 9845TIP3    H229493   1.849   1.712   2.591
 9846TIP3   OH229494   7.752   0.122   4.184
 9846TIP3    H129495   7.658   0.109   4.202
 9846TIP3    H229496   7.781   0.182   4.253
 9847TIP3   OH229497   1.349   4.124   5.650
 9847TIP3    H129498   1.419   4.059   5.647
 9847TIP3    H229499   1.304   4.115   5.566
 9848TIP3   OH229500   2.048   7.658   5.749
 9848TIP3    H129501   1.992   7.584   5.775
 9848TIP3    H229502   2.052   7.714   5.827
 9849TIP3   OH229503   7.322   6.669   3.438
 9849TIP3    H129504   7.413   6.699   3.428
 9849TIP3    H229505   7.329   6.592   3.495
 9850TIP3   OH229506   8.182   2.404   4.758
 9850TIP3    H129507   8.234   2.378   4.681
 9850TIP3    H229508   8.226   2.361   4.831
 9851TIP3   OH229509   0.994   3.436   3.448
 9851TIP3    H129510   1.082   3.472   3.455
 9851TIP3    H229511   0.991   3.396   3.361
 9852TIP3   OH229512   3.467   4.387   0.073
 9852TIP3    H129513   3.550   4.371   0.028
 9852TIP3    H229514   3.474   4.335   0.154
 9853TIP3   OH229515   2.799   5.986   1.436
 9853TIP3    H129516   2.846   6.028   1.364
 9853TIP3    H229517   2.849   6.010   1.514
 9854TIP3   OH229518   5.022   4.818   4.301
 9854TIP3    H129519   5.046   4.892   4.246
 9854TIP3    H229520   4.932   4.836   4.329
 9855TIP3   OH229521   1.954   2.281   4.574
 9855TIP3    H129522   1.872   2.232   4.571
 9855TIP3    H229523   1.963   2.319   4.487
 9856TIP3   OH229524   3.877   3.305   1.498
 9856TIP3    H129525   3.926   3.223   1.507
 9856TIP3    H229526   3.916   3.348   1.422
 9857TIP3   OH229527   0.219   4.463   6.164
 9857TIP3    H129528   0.245   4.532   6.226
 9857TIP3    H229529   0.231   4.382   6.213
 9858TIP3   OH229530   3.756   6.908   3.078
 9858TIP3    H129531   3.665   6.936   3.085
 9858TIP3    H229532   3.778   6.872   3.164
 9859TIP3   OH229533   0.687   7.109   1.121
 9859TIP3    H129534   0.605   7.085   1.165
 9859TIP3    H229535   0.755   7.077   1.180
 9860TIP3   OH229536   2.471   7.563   1.906
 9860TIP3    H129537   2.564   7.542   1.916
 9860TIP3    H229538   2.425   7.493   1.954
 9861TIP3   OH229539   2.486   1.428   0.366
 9861TIP3    H129540   2.455   1.349   0.410
 9861TIP3    H229541   2.500   1.401   0.275
 9862TIP3   OH229542   4.414   3.462   6.356
 9862TIP3    H129543   4.466   3.427   6.283
 9862TIP3    H229544   4.447   3.415   6.433
 9863TIP3   OH229545   1.845   6.109   0.791
 9863TIP3    H129546   1.792   6.183   0.820
 9863TIP3    H229547   1.783   6.051   0.746
 9864TIP3   OH229548   2.382   5.879   4.073
 9864TIP3    H129549   2.365   5.824   3.997
 9864TIP3    H229550   2.450   5.940   4.045
 9865TIP3   OH229551   0.588   6.055   0.687
 9865TIP3    H129552   0.637   5.979   0.717
 9865TIP3    H229553   0.631   6.130   0.728
 9866TIP3   OH229554   8.090   7.359   3.255
 9866TIP3    H129555   8.173   7.346   3.300
 9866TIP3    H229556   8.035   7.406   3.318
 9867TIP3   OH229557   7.992   7.303   5.766
 9867TIP3    H129558   7.925   7.349   5.816
 9867TIP3    H229559   8.006   7.221   5.814
 9868TIP3   OH229560   4.173   4.720   1.813
 9868TIP3    H129561   4.166   4.815   1.821
 9868TIP3    H229562   4.228   4.694   1.887
 9869TIP3   OH229563   4.961   1.179   4.588
 9869TIP3    H129564   4.926   1.090   4.586
 9869TIP3    H229565   4.917   1.221   4.661
 9870TIP3   OH229566   2.137   2.248   0.170
 9870TIP3    H129567   2.069   2.227   0.234
 9870TIP3    H229568   2.154   2.342   0.183
 9871TIP3   OH229569   1.881   2.950   1.750
 9871TIP3    H129570   1.918   2.862   1.759
 9871TIP3    H229571   1.795   2.936   1.709
 9872TIP3   OH229572   4.401   5.142   2.848
 9872TIP3    H129573   4.448   5.124   2.929
 9872TIP3    H229574   4.392   5.237   2.846
 9873TIP3   OH229575   3.566   3.664   1.996
 9873TIP3    H129576   3.549   3.743   2.047
 9873TIP3    H229577   3.507   3.598   2.032
 9874TIP3   OH229578   0.835   1.079   0.834
 9874TIP3    H129579   0.815   1.170   0.812
 9874TIP3    H229580   0.749   1.036   0.835
 9875TIP3   OH229581   2.311   3.437   4.506
 9875TIP3    H129582   2.233   3.382   4.512
 9875TIP3    H229583   2.294   3.510   4.566
 9876TIP3   OH229584   0.118   3.687   2.625
 9876TIP3    H129585   0.144   3.610   2.575
 9876TIP3    H229586   0.092   3.751   2.559
 9877TIP3   OH229587   1.079   7.731   5.896
 9877TIP3    H129588   1.084   7.687   5.811
 9877TIP3    H229589   1.170   7.753   5.917
 9878TIP3   OH229590   7.971   6.517   4.422
 9878TIP3    H129591   7.959   6.585   4.355
 9878TIP3    H229592   7.913   6.446   4.394
 9879TIP3   OH229593   4.400   4.739   5.659
 9879TIP3    H129594   4.407   4.651   5.694
 9879TIP3    H229595   4.416   4.796   5.734
 9880TIP3   OH229596   3.958   5.706   4.827
 9880TIP3    H129597   3.869   5.728   4.800
 9880TIP3    H229598   3.964   5.611   4.813
 9881TIP3   OH229599   1.639   4.800   3.278
 9881TIP3    H129600   1.581   4.733   3.313
 9881TIP3    H229601   1.640   4.869   3.345
 9882TIP3   OH229602   3.422   0.744   6.210
 9882TIP3    H129603   3.404   0.747   6.303
 9882TIP3    H229604   3.438   0.651   6.191
 9883TIP3   OH229605   6.596   1.936   1.240
 9883TIP3    H129606   6.604   2.030   1.254
 9883TIP3    H229607   6.588   1.899   1.329
 9884TIP3   OH229608   4.416   0.958   0.310
 9884TIP3    H129609   4.504   0.931   0.284
 9884TIP3    H229610   4.386   1.013   0.237
 9885TIP3   OH229611   1.386   1.901   5.989
 9885TIP3    H129612   1.436   1.934   5.914
 9885TIP3    H229613   1.401   1.807   5.988
 9886TIP3   OH229614   1.231   5.377   3.690
 9886TIP3    H129615   1.293   5.338   3.752
 9886TIP3    H229616   1.286   5.422   3.626
 9887TIP3   OH229617   7.734   7.097   3.082
 9887TIP3    H129618   7.768   7.125   3.167
 9887TIP3    H229619   7.649   7.057   3.102
 9888TIP3   OH229620   1.796   0.765   4.128
 9888TIP3    H129621   1.843   0.682   4.127
 9888TIP3    H229622   1.718   0.749   4.074
 9889TIP3   OH229623   8.091   0.352   6.401
 9889TIP3    H129624   8.145   0.410   6.455
 9889TIP3    H229625   8.045   0.297   6.465
 9890TIP3   OH229626   3.607   2.083   5.351
 9890TIP3    H129627   3.675   2.150   5.366
 9890TIP3    H229628   3.643   2.028   5.281
 9891TIP3   OH229629   5.817   5.878   2.468
 9891TIP3    H129630   5.871   5.863   2.390
 9891TIP3    H229631   5.740   5.925   2.436
 9892TIP3   OH229632   3.741   7.709   4.457
 9892TIP3    H129633   3.696   7.787   4.424
 9892TIP3    H229634   3.752   7.726   4.551
 9893TIP3   OH229635   3.333   4.161   0.501
 9893TIP3    H129636   3.354   4.097   0.570
 9893TIP3    H229637   3.257   4.209   0.535
 9894TIP3   OH229638   6.145   3.795   3.139
 9894TIP3    H129639   6.233   3.827   3.120
 9894TIP3    H229640   6.092   3.825   3.065
 9895TIP3   OH229641   0.852   6.171   0.379
 9895TIP3    H129642   0.882   6.246   0.327
 9895TIP3    H229643   0.765   6.196   0.410
 9896TIP3   OH229644   8.190   6.960   6.202
 9896TIP3    H129645   8.217   6.902   6.131
 9896TIP3    H229646   8.220   6.917   6.282
 9897TIP3   OH229647   4.649   5.670   2.994
 9897TIP3    H129648   4.726   5.723   3.012
 9897TIP3    H229649   4.591   5.685   3.069
 9898TIP3   OH229650   0.369   5.565   5.985
 9898TIP3    H129651   0.346   5.578   5.893
 9898TIP3    H229652   0.423   5.642   6.007
 9899TIP3   OH229653   2.287   3.497   2.766
 9899TIP3    H129654   2.295   3.465   2.856
 9899TIP3    H229655   2.250   3.423   2.718
 9900TIP3   OH229656   1.684   6.788   4.153
 9900TIP3    H129657   1.708   6.841   4.228
 9900TIP3    H229658   1.685   6.697   4.185
 9901TIP3   OH229659   3.594   5.651   3.098
 9901TIP3    H129660   3.689   5.656   3.086
 9901TIP3    H229661   3.574   5.558   3.100
 9902TIP3   OH229662   4.570   1.659   0.336
 9902TIP3    H129663   4.638   1.593   0.323
 9902TIP3    H229664   4.618   1.737   0.365
 9903TIP3   OH229665   0.311   2.332   3.825
 9903TIP3    H129666   0.290   2.238   3.826
 9903TIP3    H229667   0.393   2.339   3.873
 9904TIP3   OH229668   0.803   5.060   4.087
 9904TIP3    H129669   0.863   5.118   4.041
 9904TIP3    H229670   0.855   4.980   4.101
 9905TIP3   OH229671   3.688   6.330   6.729
 9905TIP3    H129672   3.728   6.271   6.792
 9905TIP3    H229673   3.725   6.304   6.644
 9906TIP3   OH229674   4.692   2.080   5.618
 9906TIP3    H129675   4.632   2.016   5.657
 9906TIP3    H229676   4.639   2.127   5.554
 9907TIP3   OH229677   2.918   1.790   2.911
 9907TIP3    H129678   2.962   1.720   2.863
 9907TIP3    H229679   2.954   1.785   2.999
 9908TIP3   OH229680   7.960   0.144   1.922
 9908TIP3    H129681   7.944   0.180   2.009
 9908TIP3    H229682   8.055   0.153   1.910
 9909TIP3   OH229683   1.830   7.396   0.780
 9909TIP3    H129684   1.783   7.389   0.697
 9909TIP3    H229685   1.778   7.345   0.842
 9910TIP3   OH229686   6.563   3.475   1.984
 9910TIP3    H129687   6.522   3.389   1.969
 9910TIP3    H229688   6.642   3.472   1.930
 9911TIP3   OH229689   2.501   0.717   1.753
 9911TIP3    H129690   2.569   0.765   1.801
 9911TIP3    H229691   2.444   0.682   1.822
 9912TIP3   OH229692   8.064   7.221   1.209
 9912TIP3    H129693   8.077   7.210   1.115
 9912TIP3    H229694   7.969   7.225   1.220
 9913TIP3   OH229695   3.948   4.411   6.135
 9913TIP3    H129696   3.880   4.360   6.092
 9913TIP3    H229697   4.005   4.345   6.176
 9914TIP3   OH229698   3.412   2.944   4.585
 9914TIP3    H129699   3.346   2.991   4.636
 9914TIP3    H229700   3.495   2.966   4.627
 9915TIP3   OH229701   7.180   0.402   4.515
 9915TIP3    H129702   7.107   0.454   4.549
 9915TIP3    H229703   7.173   0.412   4.420
 9916TIP3   OH229704   0.147   4.944   4.907
 9916TIP3    H129705   0.187   5.025   4.938
 9916TIP3    H229706   0.119   4.963   4.817
 9917TIP3   OH229707   0.093   5.536   2.239
 9917TIP3    H129708   0.168   5.526   2.180
 9917TIP3    H229709   0.116   5.484   2.316
 9918TIP3   OH229710   1.090   2.300   1.362
 9918TIP3    H129711   1.025   2.286   1.430
 9918TIP3    H229712   1.039   2.318   1.283
 9919TIP3   OH229713   5.574   1.183   6.588
 9919TIP3    H129714   5.565   1.277   6.574
 9919TIP3    H229715   5.668   1.167   6.584
 9920TIP3   OH229716   4.130   5.798   2.703
 9920TIP3    H129717   4.037   5.782   2.690
 9920TIP3    H229718   4.148   5.878   2.653
 9921TIP3   OH229719   7.000   7.463   1.756
 9921TIP3    H129720   7.001   7.407   1.678
 9921TIP3    H229721   7.033   7.547   1.725
 9922TIP3   OH229722   0.913   0.563   2.039
 9922TIP3    H129723   0.898   0.531   2.128
 9922TIP3    H229724   0.967   0.641   2.051
 9923TIP3   OH229725   2.013   5.967   2.177
 9923TIP3    H129726   2.000   5.910   2.253
 9923TIP3    H229727   2.099   6.006   2.190
 9924TIP3   OH229728   2.168   4.226   5.950
 9924TIP3    H129729   2.072   4.236   5.952
 9924TIP3    H229730   2.200   4.315   5.936
 9925TIP3   OH229731   8.178   7.788   6.602
 9925TIP3    H129732   8.165   7.866   6.548
 9925TIP3    H229733   8.150   7.815   6.690
 9926TIP3   OH229734   0.883   3.815   4.093
 9926TIP3    H129735   0.868   3.910   4.087
 9926TIP3    H229736   0.812   3.777   4.042
 9927TIP3   OH229737   1.339   4.555   6.665
 9927TIP3    H129738   1.323   4.464   6.641
 9927TIP3    H229739   1.432   4.557   6.689
 9928TIP3   OH229740   2.091   1.081   5.995
 9928TIP3    H129741   2.062   1.164   5.958
 9928TIP3    H229742   2.174   1.063   5.951
 9929TIP3   OH229743   2.121   4.651   2.103
 9929TIP3    H129744   2.162   4.707   2.168
 9929TIP3    H229745   2.070   4.589   2.154
 9930TIP3   OH229746   5.018   3.349   0.370
 9930TIP3    H129747   4.933   3.330   0.331
 9930TIP3    H229748   5.013   3.441   0.395
 9931TIP3   OH229749   2.939   2.114   4.390
 9931TIP3    H129750   2.918   2.181   4.324
 9931TIP3    H229751   2.929   2.031   4.343
 9932TIP3   OH229752   3.362   1.082   1.821
 9932TIP3    H129753   3.295   1.025   1.783
 9932TIP3    H229754   3.314   1.139   1.881
 9933TIP3   OH229755   6.219   7.543   3.660
 9933TIP3    H129756   6.129   7.514   3.645
 9933TIP3    H229757   6.233   7.612   3.596
 9934TIP3   OH229758   2.778   0.454   1.995
 9934TIP3    H129759   2.695   0.437   2.039
 9934TIP3    H229760   2.841   0.397   2.040
 9935TIP3   OH229761   1.438   5.108   2.640
 9935TIP3    H129762   1.395   5.176   2.692
 9935TIP3    H229763   1.378   5.033   2.644
 9936TIP3   OH229764   7.995   6.172   6.200
 9936TIP3    H129765   7.962   6.162   6.289
 9936TIP3    H229766   7.929   6.226   6.156
 9937TIP3   OH229767   1.066   5.359   4.545
 9937TIP3    H129768   1.046   5.391   4.633
 9937TIP3    H229769   1.134   5.418   4.513
 9938TIP3   OH229770   8.221   2.703   3.883
 9938TIP3    H129771   8.282   2.636   3.852
 9938TIP3    H229772   8.134   2.665   3.869
 9939TIP3   OH229773   5.379   0.760   1.921
 9939TIP3    H129774   5.331   0.756   2.003
 9939TIP3    H229775   5.317   0.731   1.854
 9940TIP3   OH229776   4.002   1.203   2.504
 9940TIP3    H129777   3.987   1.191   2.411
 9940TIP3    H229778   3.969   1.291   2.522
 9941TIP3   OH229779   2.592   2.171   1.920
 9941TIP3    H129780   2.647   2.095   1.899
 9941TIP3    H229781   2.652   2.245   1.915
 9942TIP3   OH229782   3.811   2.038   5.833
 9942TIP3    H129783   3.897   1.996   5.840
 9942TIP3    H229784   3.831   2.130   5.811
 9943TIP3   OH229785   5.822   1.714   5.622
 9943TIP3    H129786   5.869   1.752   5.547
 9943TIP3    H229787   5.738   1.760   5.623
 9944TIP3   OH229788   1.722   7.633   4.621
 9944TIP3    H129789   1.749   7.662   4.708
 9944TIP3    H229790   1.792   7.664   4.563
 9945TIP3   OH229791   2.250   1.639   3.718
 9945TIP3    H129792   2.247   1.641   3.623
 9945TIP3    H229793   2.159   1.625   3.745
 9946TIP3   OH229794   2.637   1.021   3.062
 9946TIP3    H129795   2.663   1.094   3.004
 9946TIP3    H229796   2.709   0.959   3.056
 9947TIP3   OH229797   3.698   0.618   0.618
 9947TIP3    H129798   3.672   0.528   0.638
 9947TIP3    H229799   3.739   0.650   0.698
 9948TIP3   OH229800   6.808   6.887   1.048
 9948TIP3    H129801   6.899   6.905   1.069
 9948TIP3    H229802   6.767   6.974   1.042
 9949TIP3   OH229803   0.852   2.844   4.020
 9949TIP3    H129804   0.789   2.774   4.003
 9949TIP3    H229805   0.815   2.921   3.975
 9950TIP3   OH229806   6.783   1.851   3.783
 9950TIP3    H129807   6.833   1.908   3.725
 9950TIP3    H229808   6.842   1.835   3.857
 9951TIP3   OH229809   0.715   5.668   1.671
 9951TIP3    H129810   0.640   5.721   1.643
 9951TIP3    H229811   0.701   5.583   1.628
 9952TIP3   OH229812   2.796   1.361   5.737
 9952TIP3    H129813   2.776   1.365   5.831
 9952TIP3    H229814   2.734   1.421   5.697
 9953TIP3   OH229815   1.913   4.011   0.602
 9953TIP3    H129816   1.997   4.030   0.561
 9953TIP3    H229817   1.848   4.042   0.539
 9954TIP3   OH229818   7.116   5.343   6.252
 9954TIP3    H129819   7.157   5.259   6.228
 9954TIP3    H229820   7.105   5.338   6.347
 9955TIP3   OH229821   6.992   3.759   1.051
 9955TIP3    H129822   7.013   3.844   1.091
 9955TIP3    H229823   7.014   3.695   1.119
 9956TIP3   OH229824   2.997   4.041   4.563
 9956TIP3    H129825   3.063   4.071   4.500
 9956TIP3    H229826   3.048   3.993   4.628
 9957TIP3   OH229827   7.431   2.300   0.613
 9957TIP3    H129828   7.399   2.310   0.702
 9957TIP3    H229829   7.381   2.363   0.562
 9958TIP3   OH229830   5.299   4.709   4.288
 9958TIP3    H129831   5.318   4.681   4.199
 9958TIP3    H229832   5.204   4.718   4.291
 9959TIP3   OH229833   1.893   1.059   5.562
 9959TIP3    H129834   1.893   1.115   5.639
 9959TIP3    H229835   1.895   0.970   5.597
 9960TIP3   OH229836   7.193   2.310   4.597
 9960TIP3    H129837   7.260   2.359   4.646
 9960TIP3    H229838   7.132   2.378   4.567
 9961TIP3   OH229839   2.647   0.382   4.528
 9961TIP3    H129840   2.702   0.439   4.581
 9961TIP3    H229841   2.683   0.294   4.540
 9962TIP3   OH229842   4.897   7.590   1.245
 9962TIP3    H129843   4.819   7.601   1.192
 9962TIP3    H229844   4.885   7.505   1.288
 9963TIP3   OH229845   4.623   6.769   3.976
 9963TIP3    H129846   4.555   6.832   3.950
 9963TIP3    H229847   4.614   6.697   3.913
 9964TIP3   OH229848   3.432   4.948   0.028
 9964TIP3    H129849   3.442   5.009  -0.045
 9964TIP3    H229850   3.416   4.863  -0.012
 9965TIP3   OH229851   4.629   6.896   6.439
 9965TIP3    H129852   4.539   6.886   6.472
 9965TIP3    H229853   4.666   6.808   6.445
 9966TIP3   OH229854   7.255   4.859   0.811
 9966TIP3    H129855   7.317   4.911   0.862
 9966TIP3    H229856   7.245   4.907   0.729
 9967TIP3   OH229857   4.959   7.122   5.070
 9967TIP3    H129858   4.996   7.145   4.985
 9967TIP3    H229859   4.868   7.097   5.051
 9968TIP3   OH229860   2.434   1.881   3.657
 9968TIP3    H129861   2.414   1.789   3.670
 9968TIP3    H229862   2.481   1.907   3.737
 9969TIP3   OH229863   2.929   2.265   1.389
 9969TIP3    H129864   2.851   2.235   1.434
 9969TIP3    H229865   2.982   2.186   1.376
 9970TIP3   OH229866   0.617   2.216  -0.022
 9970TIP3    H129867   0.670   2.147  -0.063
 9970TIP3    H229868   0.652   2.222   0.067
 9971TIP3   OH229869   7.283   5.373   5.056
 9971TIP3    H129870   7.296   5.307   5.125
 9971TIP3    H229871   7.189   5.389   5.056
 9972TIP3   OH229872   0.829   6.488   5.979
 9972TIP3    H129873   0.887   6.549   5.933
 9972TIP3    H229874   0.889   6.423   6.017
 9973TIP3   OH229875   1.762   5.092   0.882
 9973TIP3    H129876   1.708   5.068   0.807
 9973TIP3    H229877   1.846   5.119   0.843
 9974TIP3   OH229878   6.294   2.378   4.107
 9974TIP3    H129879   6.293   2.285   4.084
 9974TIP3    H229880   6.299   2.423   4.022
 9975TIP3   OH229881   2.922   2.964   1.719
 9975TIP3    H129882   2.895   2.970   1.628
 9975TIP3    H229883   2.902   3.051   1.756
 9976TIP3   OH229884   6.161   3.716   0.981
 9976TIP3    H129885   6.069   3.706   1.005
 9976TIP3    H229886   6.184   3.632   0.939
 9977TIP3   OH229887   4.449   2.276  -0.018
 9977TIP3    H129888   4.454   2.366  -0.049
 9977TIP3    H229889   4.373   2.273   0.039
 9978TIP3   OH229890   2.008   6.730   5.491
 9978TIP3    H129891   2.007   6.664   5.561
 9978TIP3    H229892   2.073   6.698   5.429
 9979TIP3   OH229893   1.200   4.115   4.231
 9979TIP3    H129894   1.133   4.090   4.168
 9979TIP3    H229895   1.208   4.210   4.222
 9980TIP3   OH229896   7.996   0.897   1.419
 9980TIP3    H129897   7.977   0.962   1.351
 9980TIP3    H229898   7.923   0.904   1.481
 9981TIP3   OH229899   3.999   1.128   4.881
 9981TIP3    H129900   3.967   1.062   4.942
 9981TIP3    H229901   4.078   1.088   4.843
 9982TIP3   OH229902   0.746   0.220   3.752
 9982TIP3    H129903   0.687   0.174   3.693
 9982TIP3    H229904   0.698   0.224   3.835
 9983TIP3   OH229905   3.281   3.750   6.446
 9983TIP3    H129906   3.366   3.727   6.409
 9983TIP3    H229907   3.218   3.730   6.377
 9984TIP3   OH229908   6.519   5.250   4.460
 9984TIP3    H129909   6.494   5.232   4.550
 9984TIP3    H229910   6.494   5.171   4.411
 9985TIP3   OH229911   0.834   5.859   3.434
 9985TIP3    H129912   0.879   5.803   3.371
 9985TIP3    H229913   0.758   5.807   3.461
 9986TIP3   OH229914   7.541   7.167   2.602
 9986TIP3    H129915   7.586   7.137   2.681
 9986TIP3    H229916   7.610   7.202   2.547
 9987TIP3   OH229917   0.632   5.982   6.212
 9987TIP3    H129918   0.644   6.073   6.184
 9987TIP3    H229919   0.710   5.962   6.264
 9988TIP3   OH229920   1.514   1.589   2.856
 9988TIP3    H129921   1.507   1.502   2.818
 9988TIP3    H229922   1.548   1.574   2.945
 9989TIP3   OH229923   2.362   5.920   5.638
 9989TIP3    H129924   2.376   5.859   5.566
 9989TIP3    H229925   2.446   5.922   5.684
 9990TIP3   OH229926   1.974   4.702   3.418
 9990TIP3    H129927   2.030   4.671   3.346
 9990TIP3    H229928   2.020   4.777   3.453
 9991TIP3   OH229929   3.258   0.307   4.188
 9991TIP3    H129930   3.288   0.228   4.143
 9991TIP3    H229931   3.226   0.364   4.118
 9992TIP3   OH229932   3.047   4.049   0.266
 9992TIP3    H129933   3.052   3.954   0.273
 9992TIP3    H229934   3.138   4.077   0.258
 9993TIP3   OH229935   0.561   2.559   5.612
 9993TIP3    H129936   0.600   2.473   5.627
 9993TIP3    H229937   0.635   2.617   5.595
 9994TIP3   OH229938   7.241   1.344   0.663
 9994TIP3    H129939   7.195   1.407   0.718
 9994TIP3    H229940   7.327   1.333   0.705
 9995TIP3   OH229941   7.812   2.232   1.348
 9995TIP3    H129942   7.777   2.320   1.332
 9995TIP3    H229943   7.745   2.173   1.313
 9996TIP3   OH229944   7.515   2.542   5.727
 9996TIP3    H129945   7.520   2.457   5.683
 9996TIP3    H229946   7.586   2.593   5.688
 9997TIP3   OH229947   5.863   7.780   3.376
 9997TIP3    H129948   5.927   7.800   3.308
 9997TIP3    H229949   5.795   7.731   3.330
 9998TIP3   OH229950   5.611   0.330   3.139
 9998TIP3    H129951   5.585   0.244   3.172
 9998TIP3    H229952   5.599   0.323   3.044
 9999TIP3   OH229953   6.557   3.665   4.195
 9999TIP3    H129954   6.603   3.705   4.268
 9999TIP3    H229955   6.471   3.642   4.231
10000TIP3   OH229956   2.573   1.931   2.561
10000TIP3    H129957   2.522   1.989   2.505
10000TIP3    H229958   2.663   1.941   2.530
10001TIP3   OH229959   1.083   6.611   2.500
10001TIP3    H129960   1.019   6.567   2.443
10001TIP3    H229961   1.038   6.690   2.530
10002TIP3   OH229962   4.312   3.582   5.168
10002TIP3    H129963   4.252   3.656   5.165
10002TIP3    H229964   4.295   3.540   5.252
10003TIP3   OH229965   1.087   5.298   0.406
10003TIP3    H129966   1.150   5.240   0.450
10003TIP3    H229967   1.076   5.260   0.319
10004TIP3   OH229968   4.830   4.500   3.430
10004TIP3    H129969   4.867   4.565   3.488
10004TIP3    H229970   4.899   4.482   3.366
10005TIP3   OH229971   5.377   3.655   4.364
10005TIP3    H129972   5.318   3.696   4.427
10005TIP3    H229973   5.371   3.561   4.383
10006TIP3   OH229974   4.530   0.670   2.569
10006TIP3    H129975   4.485   0.750   2.595
10006TIP3    H229976   4.468   0.600   2.588
10007TIP3   OH229977   2.737   1.378   6.699
10007TIP3    H129978   2.683   1.303   6.721
10007TIP3    H229979   2.821   1.340   6.673
10008TIP3   OH229980   0.347   4.582   1.289
10008TIP3    H129981   0.435   4.615   1.302
10008TIP3    H229982   0.337   4.513   1.355
10009TIP3   OH229983   4.018   1.193   1.412
10009TIP3    H129984   4.046   1.130   1.345
10009TIP3    H229985   4.099   1.225   1.450
10010TIP3   OH229986   0.769   0.251   3.169
10010TIP3    H129987   0.691   0.224   3.218
10010TIP3    H229988   0.738   0.256   3.078
10011TIP3   OH229989   6.679   2.838   0.039
10011TIP3    H129990   6.623   2.889   0.097
10011TIP3    H229991   6.653   2.865  -0.049
10012TIP3   OH229992   4.256   3.533   5.443
10012TIP3    H129993   4.203   3.498   5.515
10012TIP3    H229994   4.322   3.587   5.485
10013TIP3   OH229995   3.264   0.810   2.971
10013TIP3    H129996   3.196   0.842   3.031
10013TIP3    H229997   3.227   0.730   2.933
10014TIP3   OH229998   6.729   1.679   5.500
10014TIP3    H129999   6.721   1.601   5.556
10014TIP3    H230000   6.812   1.719   5.525
10015TIP3   OH230001   7.987   6.440   4.729
10015TIP3    H130002   8.016   6.525   4.763
10015TIP3    H230003   8.055   6.414   4.667
10016TIP3   OH230004   2.651   7.467   5.206
10016TIP3    H130005   2.600   7.522   5.265
10016TIP3    H230006   2.730   7.445   5.255
10017TIP3   OH230007   3.040   4.720   5.489
10017TIP3    H130008   2.988   4.767   5.555
10017TIP3    H230009   3.004   4.632   5.489
10018TIP3   OH230010   2.343   4.509   2.709
10018TIP3    H130011   2.438   4.502   2.704
10018TIP3    H230012   2.314   4.509   2.618
10019TIP3   OH230013   0.965   2.948   5.250
10019TIP3    H130014   1.056   2.920   5.264
10019TIP3    H230015   0.935   2.897   5.175
10020TIP3   OH230016   7.005   7.620   0.107
10020TIP3    H130017   7.032   7.574   0.028
10020TIP3    H230018   7.086   7.658   0.141
10021TIP3   OH230019   8.213   6.331   4.599
10021TIP3    H130020   8.190   6.240   4.579
10021TIP3    H230021   8.280   6.324   4.666
10022TIP3   OH230022   5.841   2.861   3.344
10022TIP3    H130023   5.919   2.909   3.370
10022TIP3    H230024   5.776   2.928   3.325
10023TIP3   OH230025   2.794   1.153   3.459
10023TIP3    H130026   2.745   1.215   3.406
10023TIP3    H230027   2.781   1.182   3.549
10024TIP3   OH230028   2.704   1.357   5.415
10024TIP3    H130029   2.673   1.362   5.506
10024TIP3    H230030   2.763   1.431   5.405
10025TIP3   OH230031   6.039   7.521   2.304
10025TIP3    H130032   5.996   7.449   2.257
10025TIP3    H230033   6.076   7.479   2.382
10026TIP3   OH230034   2.928   6.453   0.531
10026TIP3    H130035   2.937   6.519   0.462
10026TIP3    H230036   2.948   6.500   0.611
10027TIP3   OH230037   5.608   1.019   2.850
10027TIP3    H130038   5.623   1.039   2.943
10027TIP3    H230039   5.571   1.099   2.814
10028TIP3   OH230040   7.330   1.155   2.253
10028TIP3    H130041   7.321   1.192   2.341
10028TIP3    H230042   7.402   1.203   2.214
10029TIP3   OH230043   6.786   7.170   0.987
10029TIP3    H130044   6.817   7.259   1.008
10029TIP3    H230045   6.829   7.149   0.905
10030TIP3   OH230046   0.343   3.328   6.010
10030TIP3    H130047   0.370   3.294   5.925
10030TIP3    H230048   0.372   3.420   6.009
10031TIP3   OH230049   6.252   4.029   6.106
10031TIP3    H130050   6.278   3.958   6.164
10031TIP3    H230051   6.158   4.037   6.119
10032TIP3   OH230052   0.804   6.964   0.466
10032TIP3    H130053   0.784   6.957   0.559
10032TIP3    H230054   0.886   6.916   0.455
10033TIP3   OH230055   7.621   7.654   5.745
10033TIP3    H130056   7.634   7.749   5.749
10033TIP3    H230057   7.634   7.624   5.835
10034TIP3   OH230058   0.812   4.161   5.548
10034TIP3    H130059   0.805   4.088   5.609
10034TIP3    H230060   0.762   4.232   5.590
10035TIP3   OH230061   2.045   3.104   2.860
10035TIP3    H130062   2.022   3.024   2.811
10035TIP3    H230063   2.092   3.071   2.937
10036TIP3   OH230064   1.567   7.791   4.889
10036TIP3    H130065   1.652   7.814   4.851
10036TIP3    H230066   1.504   7.808   4.818
10037TIP3   OH230067   1.349   0.358   2.778
10037TIP3    H130068   1.352   0.408   2.860
10037TIP3    H230069   1.290   0.285   2.797
10038TIP3   OH230070   3.562   3.479   6.122
10038TIP3    H130071   3.564   3.442   6.033
10038TIP3    H230072   3.638   3.440   6.166
10039TIP3   OH230073   6.203   1.794   4.147
10039TIP3    H130074   6.178   1.706   4.177
10039TIP3    H230075   6.120   1.834   4.119
10040TIP3   OH230076   5.915   4.040   2.367
10040TIP3    H130077   6.010   4.036   2.378
10040TIP3    H230078   5.883   3.956   2.400
10041TIP3   OH230079   5.043   2.419   4.810
10041TIP3    H130080   4.974   2.359   4.783
10041TIP3    H230081   5.109   2.363   4.850
10042TIP3   OH230082   8.024   0.550   2.559
10042TIP3    H130083   7.978   0.467   2.549
10042TIP3    H230084   8.060   0.548   2.647
10043TIP3   OH230085   6.954   0.672   6.168
10043TIP3    H130086   6.982   0.598   6.222
10043TIP3    H230087   6.872   0.701   6.208
10044TIP3   OH230088   6.615   1.368   5.099
10044TIP3    H130089   6.523   1.394   5.098
10044TIP3    H230090   6.618   1.286   5.049
10045TIP3   OH230091   4.393   5.568   6.191
10045TIP3    H130092   4.450   5.643   6.176
10045TIP3    H230093   4.379   5.531   6.103
10046TIP3   OH230094   0.769   0.655   3.787
10046TIP3    H130095   0.684   0.611   3.792
10046TIP3    H230096   0.768   0.701   3.703
10047TIP3   OH230097   2.032   0.925   1.605
10047TIP3    H130098   1.943   0.905   1.634
10047TIP3    H230099   2.088   0.867   1.657
10048TIP3   OH230100   3.864   0.755   4.513
10048TIP3    H130101   3.880   0.710   4.595
10048TIP3    H230102   3.783   0.805   4.528
10049TIP3   OH230103   4.923   0.913   4.579
10049TIP3    H130104   4.840   0.882   4.541
10049TIP3    H230105   4.980   0.837   4.576
10050TIP3   OH230106   4.110   3.868   1.890
10050TIP3    H130107   4.046   3.929   1.855
10050TIP3    H230108   4.070   3.837   1.972
10051TIP3   OH230109   4.136   2.728   0.007
10051TIP3    H130110   4.052   2.704   0.047
10051TIP3    H230111   4.201   2.675   0.053
10052TIP3   OH230112   2.052   7.219   1.885
10052TIP3    H130113   1.996   7.232   1.962
10052TIP3    H230114   2.039   7.128   1.861
10053TIP3   OH230115   5.616   6.579   6.623
10053TIP3    H130116   5.577   6.527   6.552
10053TIP3    H230117   5.560   6.562   6.698
10054TIP3   OH230118   4.689   6.075   4.732
10054TIP3    H130119   4.765   6.095   4.787
10054TIP3    H230120   4.654   5.995   4.769
10055TIP3   OH230121   1.010   1.527   1.758
10055TIP3    H130122   1.096   1.485   1.765
10055TIP3    H230123   1.011   1.571   1.673
10056TIP3   OH230124   0.507   0.028   1.047
10056TIP3    H130125   0.530   0.007   0.957
10056TIP3    H230126   0.591   0.039   1.092
10057TIP3   OH230127   2.184   0.446   4.492
10057TIP3    H130128   2.159   0.534   4.466
10057TIP3    H230129   2.248   0.458   4.561
10058TIP3   OH230130   7.974   3.562   5.626
10058TIP3    H130131   8.063   3.537   5.648
10058TIP3    H230132   7.967   3.653   5.655
10059TIP3   OH230133   5.091   7.564   1.467
10059TIP3    H130134   5.043   7.482   1.456
10059TIP3    H230135   5.047   7.626   1.409
10060TIP3   OH230136   5.978   4.698   0.859
10060TIP3    H130137   5.935   4.728   0.779
10060TIP3    H230138   6.009   4.610   0.839
10061TIP3   OH230139   7.751   3.904   5.519
10061TIP3    H130140   7.676   3.935   5.569
10061TIP3    H230141   7.793   3.839   5.575
10062TIP3   OH230142   1.137   4.276   0.905
10062TIP3    H130143   1.142   4.349   0.843
10062TIP3    H230144   1.146   4.198   0.851
10063TIP3   OH230145   6.700   6.581   6.188
10063TIP3    H130146   6.791   6.596   6.164
10063TIP3    H230147   6.650   6.635   6.127
10064TIP3   OH230148   5.565   7.111   5.816
10064TIP3    H130149   5.613   7.186   5.780
10064TIP3    H230150   5.545   7.057   5.740
10065TIP3   OH230151   1.663   4.264   3.026
10065TIP3    H130152   1.616   4.342   2.997
10065TIP3    H230153   1.595   4.208   3.063
10066TIP3   OH230154   6.315   4.454   3.349
10066TIP3    H130155   6.357   4.426   3.431
10066TIP3    H230156   6.346   4.544   3.336
10067TIP3   OH230157   1.952   6.548   0.487
10067TIP3    H130158   2.000   6.515   0.411
10067TIP3    H230159   2.020   6.583   0.545
10068TIP3   OH230160   1.696   1.513   5.128
10068TIP3    H130161   1.734   1.449   5.069
10068TIP3    H230162   1.620   1.547   5.081
10069TIP3   OH230163   1.758   0.816   5.680
10069TIP3    H130164   1.851   0.818   5.702
10069TIP3    H230165   1.716   0.874   5.743
10070TIP3   OH230166   6.318   0.624   0.540
10070TIP3    H130167   6.369   0.642   0.619
10070TIP3    H230168   6.377   0.644   0.468
10071TIP3   OH230169   3.649   6.828   2.390
10071TIP3    H130170   3.740   6.818   2.417
10071TIP3    H230171   3.601   6.843   2.472
10072TIP3   OH230172   0.781   5.415   2.169
10072TIP3    H130173   0.824   5.497   2.148
10072TIP3    H230174   0.850   5.349   2.163
10073TIP3   OH230175   3.424   7.684   6.443
10073TIP3    H130176   3.389   7.642   6.522
10073TIP3    H230177   3.419   7.778   6.461
10074TIP3   OH230178   1.936   1.583   4.096
10074TIP3    H130179   1.987   1.503   4.110
10074TIP3    H230180   1.859   1.573   4.152
10075TIP3   OH230181   7.512   2.312   0.244
10075TIP3    H130182   7.449   2.377   0.276
10075TIP3    H230183   7.511   2.244   0.311
10076TIP3   OH230184   6.477   0.126   4.775
10076TIP3    H130185   6.448   0.193   4.837
10076TIP3    H230186   6.421   0.139   4.698
10077TIP3   OH230187   3.836   6.504   3.277
10077TIP3    H130188   3.889   6.563   3.331
10077TIP3    H230189   3.898   6.463   3.217
10078TIP3   OH230190   1.064   4.130   3.255
10078TIP3    H130191   1.015   4.048   3.247
10078TIP3    H230192   1.074   4.161   3.165
10079TIP3   OH230193   2.095   4.446   3.282
10079TIP3    H130194   2.007   4.417   3.256
10079TIP3    H230195   2.151   4.369   3.265
10080TIP3   OH230196   3.196   5.057   6.173
10080TIP3    H130197   3.220   5.042   6.082
10080TIP3    H230198   3.131   4.990   6.193
10081TIP3   OH230199   6.217   7.442   4.885
10081TIP3    H130200   6.133   7.434   4.929
10081TIP3    H230201   6.262   7.513   4.931
10082TIP3   OH230202   4.641   4.100   1.003
10082TIP3    H130203   4.689   4.042   1.062
10082TIP3    H230204   4.588   4.041   0.949
10083TIP3   OH230205   6.090   0.359   3.213
10083TIP3    H130206   6.108   0.441   3.258
10083TIP3    H230207   6.132   0.369   3.128
10084TIP3   OH230208   7.889   2.908   6.773
10084TIP3    H130209   7.825   2.875   6.711
10084TIP3    H230210   7.838   2.966   6.830
10085TIP3   OH230211   3.012   3.775   0.125
10085TIP3    H130212   2.927   3.746   0.158
10085TIP3    H230213   3.051   3.696   0.087
10086TIP3   OH230214   8.103   4.286   0.687
10086TIP3    H130215   8.025   4.341   0.699
10086TIP3    H230216   8.174   4.336   0.726
10087TIP3   OH230217   5.960   6.195   5.048
10087TIP3    H130218   6.050   6.183   5.077
10087TIP3    H230219   5.908   6.135   5.101
10088TIP3   OH230220   8.067   0.283   4.534
10088TIP3    H130221   8.139   0.222   4.547
10088TIP3    H230222   8.100   0.367   4.565
10089TIP3   OH230223   1.324   5.660   2.235
10089TIP3    H130224   1.324   5.657   2.331
10089TIP3    H230225   1.292   5.748   2.215
10090TIP3   OH230226   6.219   4.567   4.964
10090TIP3    H130227   6.234   4.588   4.872
10090TIP3    H230228   6.181   4.646   5.001
10091TIP3   OH230229   2.799   1.717   1.468
10091TIP3    H130230   2.861   1.649   1.494
10091TIP3    H230231   2.814   1.788   1.530
10092TIP3   OH230232   8.101   5.219   3.548
10092TIP3    H130233   8.018   5.170   3.544
10092TIP3    H230234   8.077   5.304   3.584
10093TIP3   OH230235   1.443   1.133   3.383
10093TIP3    H130236   1.523   1.141   3.331
10093TIP3    H230237   1.470   1.156   3.472
10094TIP3   OH230238   0.081   2.111   3.946
10094TIP3    H130239   0.121   2.042   3.894
10094TIP3    H230240   0.078   2.187   3.888
10095TIP3   OH230241   3.899   1.133   2.256
10095TIP3    H130242   3.804   1.142   2.262
10095TIP3    H230243   3.917   1.126   2.162
10096TIP3   OH230244   3.810   7.541   6.634
10096TIP3    H130245   3.717   7.519   6.628
10096TIP3    H230246   3.815   7.633   6.609
10097TIP3   OH230247   2.033   0.478   5.589
10097TIP3    H130248   1.983   0.404   5.624
10097TIP3    H230249   2.027   0.469   5.494
10098TIP3   OH230250   1.485   0.225   1.601
10098TIP3    H130251   1.580   0.222   1.610
10098TIP3    H230252   1.462   0.140   1.564
10099TIP3   OH230253   3.773   0.145   2.181
10099TIP3    H130254   3.692   0.097   2.199
10099TIP3    H230255   3.775   0.214   2.247
10100TIP3   OH230256   1.150   5.283   2.471
10100TIP3    H130257   1.090   5.258   2.401
10100TIP3    H230258   1.094   5.299   2.547
10101TIP3   OH230259   2.684   1.042   1.583
10101TIP3    H130260   2.705   0.969   1.525
10101TIP3    H230261   2.769   1.073   1.615
10102TIP3   OH230262   6.350   0.157   4.515
10102TIP3    H130263   6.286   0.226   4.531
10102TIP3    H230264   6.299   0.076   4.519
10103TIP3   OH230265   5.587   6.438   2.469
10103TIP3    H130266   5.654   6.370   2.464
10103TIP3    H230267   5.578   6.470   2.380
10104TIP3   OH230268   1.195   7.491   4.687
10104TIP3    H130269   1.217   7.580   4.660
10104TIP3    H230270   1.148   7.454   4.612
10105TIP3   OH230271   3.619   6.689   6.110
10105TIP3    H130272   3.559   6.730   6.173
10105TIP3    H230273   3.696   6.667   6.163
10106TIP3   OH230274   2.193   5.230   0.247
10106TIP3    H130275   2.266   5.229   0.309
10106TIP3    H230276   2.149   5.314   0.263
10107TIP3   OH230277   3.064   7.181   1.565
10107TIP3    H130278   3.100   7.269   1.557
10107TIP3    H230279   3.133   7.123   1.533
10108TIP3   OH230280   3.134   3.662   6.242
10108TIP3    H130281   3.091   3.587   6.284
10108TIP3    H230282   3.172   3.626   6.162
10109TIP3   OH230283   8.017   0.713   3.822
10109TIP3    H130284   8.076   0.639   3.810
10109TIP3    H230285   7.987   0.734   3.733
10110TIP3   OH230286   2.224   7.656   5.204
10110TIP3    H130287   2.297   7.703   5.244
10110TIP3    H230288   2.149   7.672   5.261
10111TIP3   OH230289   4.603   4.966   3.713
10111TIP3    H130290   4.606   4.909   3.636
10111TIP3    H230291   4.692   4.999   3.721
10112TIP3   OH230292   7.231   4.827   0.438
10112TIP3    H130293   7.188   4.906   0.471
10112TIP3    H230294   7.324   4.839   0.457
10113TIP3   OH230295   7.550   0.269   4.722
10113TIP3    H130296   7.628   0.217   4.739
10113TIP3    H230297   7.533   0.314   4.805
10114TIP3   OH230298   3.112   3.794   1.082
10114TIP3    H130299   3.115   3.699   1.100
10114TIP3    H230300   3.105   3.834   1.169
10115TIP3   OH230301   5.662   6.909   3.299
10115TIP3    H130302   5.596   6.852   3.259
10115TIP3    H230303   5.712   6.852   3.357
10116TIP3   OH230304   7.695   5.101   6.684
10116TIP3    H130305   7.718   5.128   6.595
10116TIP3    H230306   7.738   5.016   6.695
10117TIP3   OH230307   5.737   2.129   6.598
10117TIP3    H130308   5.761   2.055   6.543
10117TIP3    H230309   5.819   2.159   6.636
10118TIP3   OH230310   7.543   3.141   4.650
10118TIP3    H130311   7.561   3.072   4.587
10118TIP3    H230312   7.482   3.101   4.713
10119TIP3   OH230313   3.858   6.684   2.775
10119TIP3    H130314   3.771   6.724   2.781
10119TIP3    H230315   3.910   6.732   2.840
10120TIP3   OH230316   7.176   5.171   3.842
10120TIP3    H130317   7.161   5.080   3.816
10120TIP3    H230318   7.270   5.177   3.855
10121TIP3   OH230319   0.888   2.025   4.895
10121TIP3    H130320   0.812   1.994   4.846
10121TIP3    H230321   0.910   1.954   4.955
10122TIP3   OH230322   7.953   0.335   1.349
10122TIP3    H130323   7.965   0.423   1.383
10122TIP3    H230324   7.911   0.287   1.421
10123TIP3   OH230325   2.926   6.871   4.128
10123TIP3    H130326   2.937   6.835   4.040
10123TIP3    H230327   2.966   6.805   4.185
10124TIP3   OH230328   2.332   7.691   1.714
10124TIP3    H130329   2.384   7.656   1.786
10124TIP3    H230330   2.387   7.758   1.674
10125TIP3   OH230331   8.229   4.044   1.790
10125TIP3    H130332   8.296   4.070   1.726
10125TIP3    H230333   8.260   4.078   1.873
10126TIP3   OH230334   2.218   7.088   3.105
10126TIP3    H130335   2.211   7.080   3.200
10126TIP3    H230336   2.304   7.128   3.091
10127TIP3   OH230337   3.685   5.230   3.917
10127TIP3    H130338   3.722   5.145   3.891
10127TIP3    H230339   3.613   5.208   3.976
10128TIP3   OH230340   6.692   2.648   4.533
10128TIP3    H130341   6.763   2.709   4.512
10128TIP3    H230342   6.616   2.705   4.547
10129TIP3   OH230343   7.523   4.193   5.812
10129TIP3    H130344   7.457   4.132   5.778
10129TIP3    H230345   7.597   4.136   5.835
10130TIP3   OH230346   1.875   5.929   5.232
10130TIP3    H130347   1.903   5.844   5.198
10130TIP3    H230348   1.906   5.931   5.322
10131TIP3   OH230349   8.239   5.469   5.152
10131TIP3    H130350   8.310   5.532   5.138
10131TIP3    H230351   8.214   5.482   5.244
10132TIP3   OH230352   7.531   7.595   2.620
10132TIP3    H130353   7.544   7.623   2.710
10132TIP3    H230354   7.448   7.634   2.594
10133TIP3   OH230355   1.067   6.451   5.195
10133TIP3    H130356   1.101   6.540   5.207
10133TIP3    H230357   0.985   6.450   5.245
10134TIP3   OH230358   3.254   4.547   3.785
10134TIP3    H130359   3.161   4.546   3.765
10134TIP3    H230360   3.296   4.574   3.704
10135TIP3   OH230361   7.046   1.859   2.368
10135TIP3    H130362   6.974   1.878   2.428
10135TIP3    H230363   7.016   1.891   2.283
10136TIP3   OH230364   6.326   3.182   0.234
10136TIP3    H130365   6.258   3.162   0.170
10136TIP3    H230366   6.391   3.112   0.222
10137TIP3   OH230367   5.387   3.068   6.004
10137TIP3    H130368   5.441   3.035   6.076
10137TIP3    H230369   5.336   3.139   6.043
10138TIP3   OH230370   6.388   1.683   1.632
10138TIP3    H130371   6.432   1.631   1.700
10138TIP3    H230372   6.333   1.619   1.586
10139TIP3   OH230373   1.030   3.377   0.990
10139TIP3    H130374   0.982   3.433   0.929
10139TIP3    H230375   1.112   3.357   0.945
10140TIP3   OH230376   0.795   2.207   6.603
10140TIP3    H130377   0.878   2.253   6.612
10140TIP3    H230378   0.730   2.265   6.643
10141TIP3   OH230379   1.895   7.242   2.110
10141TIP3    H130380   1.913   7.316   2.169
10141TIP3    H230381   1.829   7.191   2.156
10142TIP3   OH230382   7.054   5.780   2.228
10142TIP3    H130383   7.081   5.866   2.197
10142TIP3    H230384   6.968   5.795   2.267
10143TIP3   OH230385   0.319   3.081   6.505
10143TIP3    H130386   0.274   2.997   6.502
10143TIP3    H230387   0.366   3.087   6.422
10144TIP3   OH230388   5.515   0.107   6.573
10144TIP3    H130389   5.464   0.026   6.563
10144TIP3    H230390   5.606   0.078   6.568
10145TIP3   OH230391   6.203   5.755   1.577
10145TIP3    H130392   6.285   5.739   1.531
10145TIP3    H230393   6.229   5.781   1.665
10146TIP3   OH230394   0.473   7.460   0.995
10146TIP3    H130395   0.557   7.413   0.995
10146TIP3    H230396   0.419   7.412   0.933
10147TIP3   OH230397   1.641   5.792   1.838
10147TIP3    H130398   1.560   5.783   1.787
10147TIP3    H230399   1.668   5.702   1.855
10148TIP3   OH230400   2.421   4.598   1.314
10148TIP3    H130401   2.350   4.658   1.339
10148TIP3    H230402   2.416   4.527   1.379
10149TIP3   OH230403   0.038   7.753   3.264
10149TIP3    H130404   0.026   7.677   3.321
10149TIP3    H230405   0.130   7.775   3.272
10150TIP3   OH230406   7.976   3.424   5.387
10150TIP3    H130407   7.960   3.474   5.468
10150TIP3    H230408   8.055   3.462   5.351
10151TIP3   OH230409   1.189   4.369   3.463
10151TIP3    H130410   1.098   4.385   3.488
10151TIP3    H230411   1.199   4.274   3.468
10152TIP3   OH230412   5.735   0.592   4.538
10152TIP3    H130413   5.660   0.638   4.574
10152TIP3    H230414   5.769   0.651   4.470
10153TIP3   OH230415   5.910   6.718   4.940
10153TIP3    H130416   5.891   6.760   5.024
10153TIP3    H230417   5.856   6.640   4.940
10154TIP3   OH230418   3.386   3.643   6.678
10154TIP3    H130419   3.418   3.723   6.720
10154TIP3    H230420   3.339   3.675   6.601
10155TIP3   OH230421   2.341  -0.002   1.596
10155TIP3    H130422   2.346  -0.014   1.691
10155TIP3    H230423   2.428  -0.026   1.564
10156TIP3   OH230424   4.293   6.622   2.026
10156TIP3    H130425   4.240   6.587   2.097
10156TIP3    H230426   4.234   6.681   1.979
10157TIP3   OH230427   6.733   1.250   1.256
10157TIP3    H130428   6.743   1.174   1.314
10157TIP3    H230429   6.820   1.264   1.220
10158TIP3   OH230430   7.412   3.145   5.870
10158TIP3    H130431   7.483   3.201   5.838
10158TIP3    H230432   7.336   3.204   5.877
10159TIP3   OH230433   8.059   1.601   4.109
10159TIP3    H130434   8.145   1.562   4.096
10159TIP3    H230435   8.022   1.608   4.021
10160TIP3   OH230436   5.990   3.107   4.728
10160TIP3    H130437   5.918   3.075   4.782
10160TIP3    H230438   5.959   3.190   4.693
10161TIP3   OH230439   7.204   6.477   6.200
10161TIP3    H130440   7.292   6.490   6.163
10161TIP3    H230441   7.217   6.415   6.272
10162TIP3   OH230442   0.363   0.749   5.462
10162TIP3    H130443   0.342   0.663   5.501
10162TIP3    H230444   0.316   0.749   5.379
10163TIP3   OH230445   2.097   3.191   4.173
10163TIP3    H130446   2.020   3.155   4.216
10163TIP3    H230447   2.099   3.283   4.201
10164TIP3   OH230448   4.117   6.531   6.670
10164TIP3    H130449   4.044   6.511   6.612
10164TIP3    H230450   4.094   6.488   6.752
10165TIP3   OH230451   4.789   3.964   4.645
10165TIP3    H130452   4.804   4.036   4.584
10165TIP3    H230453   4.704   3.983   4.684
10166TIP3   OH230454   7.582   3.432   3.115
10166TIP3    H130455   7.596   3.477   3.199
10166TIP3    H230456   7.670   3.422   3.078
10167TIP3   OH230457   0.974   7.600   4.862
10167TIP3    H130458   1.039   7.553   4.914
10167TIP3    H230459   0.965   7.549   4.782
10168TIP3   OH230460   4.708   2.541   4.748
10168TIP3    H130461   4.634   2.491   4.781
10168TIP3    H230462   4.771   2.475   4.720
10169TIP3   OH230463   6.610   3.081   3.077
10169TIP3    H130464   6.626   3.042   3.164
10169TIP3    H230465   6.696   3.112   3.048
10170TIP3   OH230466   7.151   2.315   5.815
10170TIP3    H130467   7.175   2.346   5.727
10170TIP3    H230468   7.119   2.394   5.859
10171TIP3   OH230469   3.327   1.274   3.557
10171TIP3    H130470   3.241   1.230   3.561
10171TIP3    H230471   3.338   1.312   3.644
10172TIP3   OH230472   7.113   2.800   1.914
10172TIP3    H130473   7.052   2.731   1.941
10172TIP3    H230474   7.134   2.847   1.995
10173TIP3   OH230475   1.241   5.539   2.868
10173TIP3    H130476   1.287   5.511   2.788
10173TIP3    H230477   1.219   5.457   2.912
10174TIP3   OH230478   6.983   6.684   1.736
10174TIP3    H130479   7.040   6.760   1.725
10174TIP3    H230480   7.042   6.611   1.750
10175TIP3   OH230481   3.861   6.851   1.684
10175TIP3    H130482   3.843   6.772   1.634
10175TIP3    H230483   3.957   6.856   1.687
10176TIP3   OH230484   7.459   2.490   4.986
10176TIP3    H130485   7.390   2.442   5.032
10176TIP3    H230486   7.435   2.582   4.996
10177TIP3   OH230487   3.091   0.093   2.600
10177TIP3    H130488   3.088  -0.002   2.604
10177TIP3    H230489   3.002   0.120   2.578
10178TIP3   OH230490   0.862   1.051   2.391
10178TIP3    H130491   0.876   1.136   2.432
10178TIP3    H230492   0.801   1.006   2.450
10179TIP3   OH230493   2.986   1.707   0.953
10179TIP3    H130494   3.006   1.647   0.881
10179TIP3    H230495   2.975   1.651   1.029
10180TIP3   OH230496   6.682   3.974   1.552
10180TIP3    H130497   6.681   4.023   1.470
10180TIP3    H230498   6.764   3.925   1.550
10181TIP3   OH230499   0.833   6.358   4.720
10181TIP3    H130500   0.896   6.317   4.661
10181TIP3    H230501   0.866   6.338   4.808
10182TIP3   OH230502   2.593   5.113   2.896
10182TIP3    H130503   2.560   5.100   2.984
10182TIP3    H230504   2.600   5.025   2.859
10183TIP3   OH230505   2.132   2.031   5.574
10183TIP3    H130506   2.076   2.059   5.502
10183TIP3    H230507   2.205   2.094   5.573
10184TIP3   OH230508   2.241   6.707   5.358
10184TIP3    H130509   2.275   6.625   5.322
10184TIP3    H230510   2.304   6.731   5.426
10185TIP3   OH230511   0.755   5.791   6.562
10185TIP3    H130512   0.847   5.806   6.540
10185TIP3    H230513   0.740   5.699   6.541
10186TIP3   OH230514   1.101   4.624   4.472
10186TIP3    H130515   1.151   4.551   4.509
10186TIP3    H230516   1.012   4.590   4.461
10187TIP3   OH230517   3.787   1.268   0.470
10187TIP3    H130518   3.834   1.334   0.521
10187TIP3    H230519   3.696   1.275   0.501
10188TIP3   OH230520   6.875   7.732   0.309
10188TIP3    H130521   6.925   7.678   0.370
10188TIP3    H230522   6.906   7.704   0.223
10189TIP3   OH230523   4.043   0.993   1.225
10189TIP3    H130524   4.095   1.033   1.155
10189TIP3    H230525   3.993   0.924   1.182
10190TIP3   OH230526   8.175   3.880   3.469
10190TIP3    H130527   8.252   3.897   3.414
10190TIP3    H230528   8.209   3.831   3.544
10191TIP3   OH230529   1.836   1.572   6.382
10191TIP3    H130530   1.742   1.560   6.393
10191TIP3    H230531   1.867   1.487   6.349
10192TIP3   OH230532   7.414   3.401   4.125
10192TIP3    H130533   7.377   3.419   4.211
10192TIP3    H230534   7.457   3.483   4.100
10193TIP3   OH230535   5.173   7.015   4.031
10193TIP3    H130536   5.266   6.994   4.021
10193TIP3    H230537   5.127   6.942   3.990
10194TIP3   OH230538   3.999   2.356   0.037
10194TIP3    H130539   3.926   2.296   0.026
10194TIP3    H230540   3.959   2.437   0.070
10195TIP3   OH230541   1.474   7.219   5.643
10195TIP3    H130542   1.413   7.217   5.717
10195TIP3    H230543   1.536   7.288   5.665
10196TIP3   OH230544   5.197   4.052   3.508
10196TIP3    H130545   5.137   3.982   3.534
10196TIP3    H230546   5.236   4.081   3.591
10197TIP3   OH230547   1.025   4.957   4.334
10197TIP3    H130548   0.988   4.964   4.422
10197TIP3    H230549   1.017   5.046   4.298
10198TIP3   OH230550   4.032   2.209   6.434
10198TIP3    H130551   4.044   2.303   6.444
10198TIP3    H230552   4.084   2.171   6.505
10199TIP3   OH230553   0.463   3.287   1.338
10199TIP3    H130554   0.542   3.299   1.391
10199TIP3    H230555   0.488   3.220   1.273
10200TIP3   OH230556   7.496   0.789   0.196
10200TIP3    H130557   7.574   0.750   0.236
10200TIP3    H230558   7.455   0.716   0.149
10201TIP3   OH230559   6.328   6.477   1.549
10201TIP3    H130560   6.235   6.454   1.549
10201TIP3    H230561   6.345   6.510   1.461
10202TIP3   OH230562   0.101   7.330   4.956
10202TIP3    H130563   0.124   7.408   5.006
10202TIP3    H230564   0.006   7.325   4.962
10203TIP3   OH230565   5.526   7.535   4.586
10203TIP3    H130566   5.569   7.585   4.656
10203TIP3    H230567   5.582   7.547   4.510
10204TIP3   OH230568   4.964   2.154   2.205
10204TIP3    H130569   4.990   2.166   2.297
10204TIP3    H230570   4.907   2.229   2.187
10205TIP3   OH230571   1.736   1.999   1.941
10205TIP3    H130572   1.726   2.076   1.996
10205TIP3    H230573   1.648   1.963   1.933
10206TIP3   OH230574   1.605   7.570   2.285
10206TIP3    H130575   1.573   7.564   2.375
10206TIP3    H230576   1.700   7.580   2.294
10207TIP3   OH230577   4.799   3.583   3.688
10207TIP3    H130578   4.879   3.548   3.650
10207TIP3    H230579   4.829   3.640   3.759
10208TIP3   OH230580   4.313   1.589   1.434
10208TIP3    H130581   4.326   1.547   1.349
10208TIP3    H230582   4.218   1.601   1.439
10209TIP3   OH230583   5.353   0.187   2.250
10209TIP3    H130584   5.392   0.140   2.323
10209TIP3    H230585   5.413   0.260   2.234
10210TIP3   OH230586   0.399   2.373   2.509
10210TIP3    H130587   0.412   2.320   2.588
10210TIP3    H230588   0.350   2.449   2.540
10211TIP3   OH230589   0.567   5.763   6.052
10211TIP3    H130590   0.584   5.846   6.096
10211TIP3    H230591   0.618   5.769   5.970
10212TIP3   OH230592   3.113   3.337   4.899
10212TIP3    H130593   3.102   3.392   4.821
10212TIP3    H230594   3.091   3.395   4.972
10213TIP3   OH230595   3.652   7.543   0.557
10213TIP3    H130596   3.717   7.525   0.488
10213TIP3    H230597   3.578   7.581   0.511
10214TIP3   OH230598   4.392   7.012   6.121
10214TIP3    H130599   4.396   7.108   6.123
10214TIP3    H230600   4.471   6.984   6.168
10215TIP3   OH230601   6.905   5.375   2.389
10215TIP3    H130602   6.895   5.348   2.480
10215TIP3    H230603   6.987   5.424   2.387
10216TIP3   OH230604   3.962   7.017   2.479
10216TIP3    H130605   3.934   6.931   2.448
10216TIP3    H230606   3.901   7.037   2.550
10217TIP3   OH230607   7.642   0.436  -0.015
10217TIP3    H130608   7.672   0.511   0.036
10217TIP3    H230609   7.658   0.361   0.042
10218TIP3   OH230610   6.473   1.416   6.669
10218TIP3    H130611   6.431   1.448   6.749
10218TIP3    H230612   6.464   1.487   6.606
10219TIP3   OH230613   2.556   7.224   0.562
10219TIP3    H130614   2.631   7.259   0.515
10219TIP3    H230615   2.559   7.130   0.546
10220TIP3   OH230616   6.013   1.783   6.713
10220TIP3    H130617   5.948   1.750   6.775
10220TIP3    H230618   5.965   1.848   6.662
10221TIP3   OH230619   6.785   5.760   2.809
10221TIP3    H130620   6.859   5.711   2.774
10221TIP3    H230621   6.715   5.745   2.746
10222TIP3   OH230622   2.126   0.249   3.056
10222TIP3    H130623   2.151   0.224   2.967
10222TIP3    H230624   2.137   0.170   3.108
10223TIP3   OH230625   2.466   3.189   2.631
10223TIP3    H130626   2.455   3.095   2.621
10223TIP3    H230627   2.515   3.216   2.553
10224TIP3   OH230628   6.631   3.052   0.501
10224TIP3    H130629   6.687   3.053   0.578
10224TIP3    H230630   6.607   2.960   0.489
10225TIP3   OH230631   0.515   4.072   5.800
10225TIP3    H130632   0.496   3.979   5.806
10225TIP3    H230633   0.464   4.102   5.724
10226TIP3   OH230634   3.625   2.675   6.363
10226TIP3    H130635   3.645   2.584   6.381
10226TIP3    H230636   3.636   2.720   6.447
10227TIP3   OH230637   1.436   6.666   4.232
10227TIP3    H130638   1.426   6.760   4.214
10227TIP3    H230639   1.439   6.625   4.146
10228TIP3   OH230640   4.084   1.986   5.876
10228TIP3    H130641   4.102   2.041   5.800
10228TIP3    H230642   4.136   1.907   5.863
10229TIP3   OH230643   6.135   1.376   3.109
10229TIP3    H130644   6.207   1.344   3.163
10229TIP3    H230645   6.127   1.469   3.132
10230TIP3   OH230646   2.547   5.889   6.524
10230TIP3    H130647   2.514   5.814   6.574
10230TIP3    H230648   2.636   5.865   6.502
10231TIP3   OH230649   7.020   6.039   0.206
10231TIP3    H130650   7.009   6.033   0.111
10231TIP3    H230651   7.095   6.098   0.217
10232TIP3   OH230652  -0.039   7.465   6.472
10232TIP3    H130653   0.016   7.542   6.482
10232TIP3    H230654   0.022   7.391   6.467
10233TIP3   OH230655   2.985   2.268   5.525
10233TIP3    H130656   3.011   2.176   5.529
10233TIP3    H230657   2.940   2.284   5.607
10234TIP3   OH230658   2.436   4.847   4.979
10234TIP3    H130659   2.512   4.815   5.029
10234TIP3    H230660   2.455   4.939   4.964
10235TIP3   OH230661   4.655   4.775   4.975
10235TIP3    H130662   4.683   4.855   4.930
10235TIP3    H230663   4.580   4.803   5.028
10236TIP3   OH230664   0.886   6.812   2.637
10236TIP3    H130665   0.836   6.734   2.662
10236TIP3    H230666   0.821   6.872   2.600
10237TIP3   OH230667   1.929   4.221   1.441
10237TIP3    H130668   1.943   4.131   1.467
10237TIP3    H230669   2.012   4.265   1.458
10238TIP3   OH230670   2.681   1.896   6.464
10238TIP3    H130671   2.770   1.881   6.494
10238TIP3    H230672   2.663   1.987   6.488
10239TIP3   OH230673   7.116   2.138   1.224
10239TIP3    H130674   7.200   2.179   1.205
10239TIP3    H230675   7.083   2.108   1.139
10240TIP3   OH230676   1.313   5.950   5.726
10240TIP3    H130677   1.340   5.925   5.814
10240TIP3    H230678   1.258   6.027   5.738
10241TIP3   OH230679   5.871   2.171   5.797
10241TIP3    H130680   5.941   2.145   5.858
10241TIP3    H230681   5.804   2.103   5.809
10242TIP3   OH230682   6.499   5.990   2.031
10242TIP3    H130683   6.474   5.948   1.948
10242TIP3    H230684   6.465   5.932   2.099
10243TIP3   OH230685   2.792   3.677   5.897
10243TIP3    H130686   2.876   3.643   5.869
10243TIP3    H230687   2.746   3.601   5.934
10244TIP3   OH230688   1.217   2.700   5.761
10244TIP3    H130689   1.153   2.654   5.707
10244TIP3    H230690   1.183   2.790   5.766
10245TIP3   OH230691   3.253   6.998   1.452
10245TIP3    H130692   3.263   6.991   1.357
10245TIP3    H230693   3.325   7.055   1.479
10246TIP3   OH230694   4.325   5.787   1.426
10246TIP3    H130695   4.310   5.799   1.520
10246TIP3    H230696   4.245   5.821   1.385
10247TIP3   OH230697   2.045   7.219   2.557
10247TIP3    H130698   2.081   7.235   2.645
10247TIP3    H230699   2.077   7.132   2.534
10248TIP3   OH230700   6.804   6.034   2.094
10248TIP3    H130701   6.751   5.959   2.122
10248TIP3    H230702   6.787   6.041   2.000
10249TIP3   OH230703   2.567   6.690   6.400
10249TIP3    H130704   2.598   6.680   6.310
10249TIP3    H230705   2.640   6.732   6.446
10250TIP3   OH230706   2.141   7.379   3.021
10250TIP3    H130707   2.082   7.311   3.054
10250TIP3    H230708   2.182   7.415   3.099
10251TIP3   OH230709   7.724   4.851   2.268
10251TIP3    H130710   7.635   4.850   2.301
10251TIP3    H230711   7.773   4.902   2.332
10252TIP3   OH230712   3.569   6.848   1.498
10252TIP3    H130713   3.581   6.844   1.593
10252TIP3    H230714   3.581   6.941   1.476
10253TIP3   OH230715   1.821   6.294   5.320
10253TIP3    H130716   1.835   6.223   5.383
10253TIP3    H230717   1.728   6.291   5.301
10254TIP3   OH230718   4.512   6.119   0.088
10254TIP3    H130719   4.460   6.098   0.165
10254TIP3    H230720   4.526   6.035   0.044
10255TIP3   OH230721   4.243   5.763   4.417
10255TIP3    H130722   4.258   5.702   4.489
10255TIP3    H230723   4.157   5.801   4.435
10256TIP3   OH230724   5.667   1.061   0.112
10256TIP3    H130725   5.744   1.096   0.066
10256TIP3    H230726   5.672   0.967   0.099
10257TIP3   OH230727   1.225   4.880   5.395
10257TIP3    H130728   1.219   4.973   5.371
10257TIP3    H230729   1.139   4.860   5.432
10258TIP3   OH230730   6.620   3.669   3.806
10258TIP3    H130731   6.560   3.695   3.876
10258TIP3    H230732   6.707   3.670   3.847
10259TIP3   OH230733   7.403   6.082   2.440
10259TIP3    H130734   7.421   6.138   2.515
10259TIP3    H230735   7.427   5.994   2.469
10260TIP3   OH230736   5.947   5.181   1.816
10260TIP3    H130737   6.000   5.193   1.895
10260TIP3    H230738   5.857   5.195   1.846
10261TIP3   OH230739   3.747   7.025   3.541
10261TIP3    H130740   3.743   6.942   3.493
10261TIP3    H230741   3.663   7.033   3.585
10262TIP3   OH230742   2.589   6.239   2.739
10262TIP3    H130743   2.644   6.213   2.812
10262TIP3    H230744   2.641   6.303   2.690
10263TIP3   OH230745   0.822   5.384   6.262
10263TIP3    H130746   0.739   5.337   6.253
10263TIP3    H230747   0.872   5.359   6.184
10264TIP3   OH230748   1.766   3.230   3.383
10264TIP3    H130749   1.817   3.150   3.374
10264TIP3    H230750   1.817   3.296   3.336
10265TIP3   OH230751   6.356   2.610   2.254
10265TIP3    H130752   6.427   2.673   2.243
10265TIP3    H230753   6.284   2.660   2.293
10266TIP3   OH230754   3.787   6.091   5.468
10266TIP3    H130755   3.698   6.090   5.432
10266TIP3    H230756   3.844   6.095   5.391
10267TIP3   OH230757   1.935   1.011   4.093
10267TIP3    H130758   1.875   0.937   4.085
10267TIP3    H230759   1.887   1.076   4.143
10268TIP3   OH230760   0.937   5.120   0.942
10268TIP3    H130761   1.031   5.127   0.962
10268TIP3    H230762   0.910   5.039   0.986
10269TIP3   OH230763   4.356   5.513   1.076
10269TIP3    H130764   4.329   5.597   1.040
10269TIP3    H230765   4.448   5.525   1.099
10270TIP3   OH230766   6.732   5.467   4.490
10270TIP3    H130767   6.675   5.391   4.482
10270TIP3    H230768   6.796   5.443   4.556
10271TIP3   OH230769   6.824   2.501   4.715
10271TIP3    H130770   6.825   2.450   4.634
10271TIP3    H230771   6.748   2.559   4.706
10272TIP3   OH230772   5.329   5.150   0.914
10272TIP3    H130773   5.343   5.084   0.982
10272TIP3    H230774   5.255   5.202   0.945
10273TIP3   OH230775   5.911   5.615   1.502
10273TIP3    H130776   5.889   5.525   1.527
10273TIP3    H230777   6.004   5.611   1.479
10274TIP3   OH230778   1.119   2.679   6.338
10274TIP3    H130779   1.110   2.609   6.274
10274TIP3    H230780   1.052   2.743   6.314
10275TIP3   OH230781   1.410   7.630   4.095
10275TIP3    H130782   1.481   7.618   4.158
10275TIP3    H230783   1.450   7.679   4.023
10276TIP3   OH230784   7.849   1.934   6.466
10276TIP3    H130785   7.849   1.871   6.394
10276TIP3    H230786   7.939   1.935   6.498
10277TIP3   OH230787   7.182   2.464   3.207
10277TIP3    H130788   7.201   2.382   3.253
10277TIP3    H230789   7.089   2.481   3.225
10278TIP3   OH230790   6.977   5.863   6.457
10278TIP3    H130791   6.970   5.950   6.416
10278TIP3    H230792   7.024   5.880   6.538
10279TIP3   OH230793   1.576   1.887   0.249
10279TIP3    H130794   1.634   1.960   0.224
10279TIP3    H230795   1.508   1.887   0.181
10280TIP3   OH230796   7.953   7.711   5.727
10280TIP3    H130797   8.021   7.650   5.755
10280TIP3    H230798   7.909   7.736   5.809
10281TIP3   OH230799  -0.008   3.462   4.372
10281TIP3    H130800  -0.035   3.471   4.464
10281TIP3    H230801   0.088   3.467   4.376
10282TIP3   OH230802   2.832   7.345   0.430
10282TIP3    H130803   2.884   7.281   0.478
10282TIP3    H230804   2.871   7.430   0.452
10283TIP3   OH230805   5.944   4.036   2.089
10283TIP3    H130806   5.926   4.050   2.182
10283TIP3    H230807   5.861   4.056   2.045
10284TIP3   OH230808   0.709   3.193   5.710
10284TIP3    H130809   0.787   3.144   5.686
10284TIP3    H230810   0.722   3.280   5.673
10285TIP3   OH230811   0.299   4.581   3.969
10285TIP3    H130812   0.291   4.617   3.881
10285TIP3    H230813   0.276   4.488   3.959
10286TIP3   OH230814   5.966   1.887   4.055
10286TIP3    H130815   5.897   1.827   4.083
10286TIP3    H230816   5.920   1.961   4.015
10287TIP3   OH230817   6.343   5.852   5.148
10287TIP3    H130818   6.398   5.902   5.087
10287TIP3    H230819   6.299   5.787   5.093
10288TIP3   OH230820   6.793   5.104   2.116
10288TIP3    H130821   6.712   5.142   2.082
10288TIP3    H230822   6.844   5.180   2.145
10289TIP3   OH230823   7.356   6.994   1.852
10289TIP3    H130824   7.316   7.064   1.904
10289TIP3    H230825   7.298   6.919   1.866
10290TIP3   OH230826   5.899   5.215   3.225
10290TIP3    H130827   5.936   5.154   3.289
10290TIP3    H230828   5.939   5.191   3.142
10291TIP3   OH230829   3.285   3.297   4.541
10291TIP3    H130830   3.249   3.217   4.580
10291TIP3    H230831   3.373   3.272   4.513
10292TIP3   OH230832   1.089   4.136   5.469
10292TIP3    H130833   1.087   4.074   5.396
10292TIP3    H230834   0.996   4.154   5.487
10293TIP3   OH230835   7.492   1.845   0.508
10293TIP3    H130836   7.470   1.771   0.450
10293TIP3    H230837   7.564   1.812   0.562
10294TIP3   OH230838   7.635   4.105   0.163
10294TIP3    H130839   7.552   4.089   0.209
10294TIP3    H230840   7.680   4.021   0.165
10295TIP3   OH230841   1.139   1.098   5.310
10295TIP3    H130842   1.200   1.118   5.239
10295TIP3    H230843   1.192   1.107   5.389
10296TIP3   OH230844   7.319   0.346   5.551
10296TIP3    H130845   7.267   0.388   5.619
10296TIP3    H230846   7.299   0.253   5.559
10297TIP3   OH230847   3.613   7.453   3.372
10297TIP3    H130848   3.639   7.538   3.337
10297TIP3    H230849   3.529   7.469   3.414
10298TIP3   OH230850   0.799   3.189   0.368
10298TIP3    H130851   0.709   3.190   0.337
10298TIP3    H230852   0.812   3.276   0.407
10299TIP3   OH230853   3.186   5.021   1.348
10299TIP3    H130854   3.123   4.950   1.331
10299TIP3    H230855   3.165   5.051   1.437
10300TIP3   OH230856   1.829   3.678   5.556
10300TIP3    H130857   1.805   3.687   5.649
10300TIP3    H230858   1.911   3.629   5.557
10301TIP3   OH230859   2.689   3.856   5.701
10301TIP3    H130860   2.617   3.873   5.763
10301TIP3    H230861   2.736   3.783   5.740
10302TIP3   OH230862   4.753   6.615   4.611
10302TIP3    H130863   4.665   6.578   4.613
10302TIP3    H230864   4.744   6.701   4.653
10303TIP3   OH230865   3.203   7.371   2.104
10303TIP3    H130866   3.235   7.359   2.193
10303TIP3    H230867   3.143   7.445   2.110
10304TIP3   OH230868   8.317   6.624   3.404
10304TIP3    H130869   8.293   6.695   3.345
10304TIP3    H230870   8.242   6.614   3.462
10305TIP3   OH230871   2.596   3.480   5.623
10305TIP3    H130872   2.567   3.499   5.534
10305TIP3    H230873   2.591   3.385   5.630
10306TIP3   OH230874   0.492   4.532   2.388
10306TIP3    H130875   0.542   4.485   2.322
10306TIP3    H230876   0.408   4.487   2.391
10307TIP3   OH230877   3.814   1.011   1.533
10307TIP3    H130878   3.835   1.070   1.461
10307TIP3    H230879   3.883   1.026   1.598
10308TIP3   OH230880   5.533   3.068   4.268
10308TIP3    H130881   5.562   3.129   4.337
10308TIP3    H230882   5.576   3.100   4.189
10309TIP3   OH230883   5.107   6.719   5.763
10309TIP3    H130884   5.047   6.744   5.693
10309TIP3    H230885   5.064   6.749   5.843
10310TIP3   OH230886   2.267   3.269   5.119
10310TIP3    H130887   2.204   3.299   5.185
10310TIP3    H230888   2.246   3.321   5.041
10311TIP3   OH230889   8.183   7.853   5.677
10311TIP3    H130890   8.230   7.812   5.749
10311TIP3    H230891   8.098   7.809   5.675
10312TIP3   OH230892   4.199   6.542   4.295
10312TIP3    H130893   4.266   6.562   4.230
10312TIP3    H230894   4.120   6.523   4.244
10313TIP3   OH230895   0.924   4.979   5.940
10313TIP3    H130896   0.839   4.990   5.983
10313TIP3    H230897   0.906   4.923   5.864
10314TIP3   OH230898   2.739   5.403   0.588
10314TIP3    H130899   2.744   5.441   0.501
10314TIP3    H230900   2.828   5.409   0.623
10315TIP3   OH230901   4.163   2.476   3.801
10315TIP3    H130902   4.123   2.526   3.730
10315TIP3    H230903   4.097   2.412   3.827
10316TIP3   OH230904   5.609   3.642   5.997
10316TIP3    H130905   5.610   3.681   5.910
10316TIP3    H230906   5.524   3.599   6.004
10317TIP3   OH230907   8.067   7.194   0.934
10317TIP3    H130908   8.124   7.237   0.870
10317TIP3    H230909   8.083   7.101   0.921
10318TIP3   OH230910   4.017   6.458   2.788
10318TIP3    H130911   3.965   6.400   2.843
10318TIP3    H230912   3.955   6.523   2.755
10319TIP3   OH230913   7.757   3.455   1.089
10319TIP3    H130914   7.699   3.530   1.099
10319TIP3    H230915   7.818   3.463   1.162
10320TIP3   OH230916   4.849   4.603   1.772
10320TIP3    H130917   4.788   4.644   1.834
10320TIP3    H230918   4.792   4.570   1.702
10321TIP3   OH230919   7.643   6.727   0.567
10321TIP3    H130920   7.727   6.685   0.584
10321TIP3    H230921   7.664   6.801   0.510
10322TIP3   OH230922   2.129   2.403   6.072
10322TIP3    H130923   2.100   2.418   6.162
10322TIP3    H230924   2.225   2.399   6.079
10323TIP3   OH230925   2.726   3.352   2.517
10323TIP3    H130926   2.665   3.305   2.460
10323TIP3    H230927   2.806   3.359   2.465
10324TIP3   OH230928   0.121   1.669   1.513
10324TIP3    H130929   0.086   1.639   1.430
10324TIP3    H230930   0.150   1.589   1.557
10325TIP3   OH230931   3.146   0.638   6.340
10325TIP3    H130932   3.147   0.567   6.276
10325TIP3    H230933   3.232   0.633   6.383
10326TIP3   OH230934   5.626   5.689   4.882
10326TIP3    H130935   5.636   5.598   4.854
10326TIP3    H230936   5.534   5.696   4.907
10327TIP3   OH230937   3.958   4.253   1.164
10327TIP3    H130938   4.026   4.297   1.112
10327TIP3    H230939   3.876   4.293   1.136
10328TIP3   OH230940   8.318   0.910   3.277
10328TIP3    H130941   8.249   0.944   3.334
10328TIP3    H230942   8.293   0.942   3.190
10329TIP3   OH230943   0.752   6.228   6.162
10329TIP3    H130944   0.706   6.302   6.200
10329TIP3    H230945   0.829   6.216   6.218
10330TIP3   OH230946   3.459   1.295   5.650
10330TIP3    H130947   3.402   1.246   5.710
10330TIP3    H230948   3.485   1.230   5.585
10331TIP3   OH230949   3.644   1.376   0.723
10331TIP3    H130950   3.557   1.338   0.721
10331TIP3    H230951   3.660   1.396   0.815
10332TIP3   OH230952   4.543   2.274   6.334
10332TIP3    H130953   4.596   2.200   6.367
10332TIP3    H230954   4.456   2.238   6.323
10333TIP3   OH230955   3.425   5.629   2.802
10333TIP3    H130956   3.353   5.577   2.837
10333TIP3    H230957   3.501   5.570   2.805
10334TIP3   OH230958   3.724   3.056   1.952
10334TIP3    H130959   3.679   3.129   1.909
10334TIP3    H230960   3.726   2.987   1.885
10335TIP3   OH230961   1.936   6.980   4.739
10335TIP3    H130962   1.993   7.034   4.794
10335TIP3    H230963   1.856   7.031   4.729
10336TIP3   OH230964   2.565   1.532   4.395
10336TIP3    H130965   2.541   1.594   4.464
10336TIP3    H230966   2.522   1.450   4.420
10337TIP3   OH230967   2.958   6.629   4.975
10337TIP3    H130968   2.906   6.707   4.957
10337TIP3    H230969   3.014   6.653   5.049
10338TIP3   OH230970   2.742   4.688   0.593
10338TIP3    H130971   2.758   4.614   0.652
10338TIP3    H230972   2.647   4.700   0.594
10339TIP3   OH230973   1.055   3.858   1.636
10339TIP3    H130974   1.098   3.942   1.620
10339TIP3    H230975   1.034   3.824   1.549
10340TIP3   OH230976   4.998   5.681   2.068
10340TIP3    H130977   5.037   5.663   2.153
10340TIP3    H230978   5.066   5.727   2.019
10341TIP3   OH230979   8.150   0.677   1.364
10341TIP3    H130980   8.201   0.667   1.283
10341TIP3    H230981   8.101   0.758   1.351
10342TIP3   OH230982   8.211   4.307   5.007
10342TIP3    H130983   8.289   4.343   4.965
10342TIP3    H230984   8.165   4.384   5.042
10343TIP3   OH230985   5.198   6.293   3.382
10343TIP3    H130986   5.132   6.342   3.431
10343TIP3    H230987   5.272   6.354   3.375
10344TIP3   OH230988   4.363   2.188   6.144
10344TIP3    H130989   4.406   2.121   6.091
10344TIP3    H230990   4.281   2.148   6.172
10345TIP3   OH230991   4.840   0.956   3.237
10345TIP3    H130992   4.806   0.878   3.194
10345TIP3    H230993   4.767   0.990   3.288
10346TIP3   OH230994   0.913   4.517   1.879
10346TIP3    H130995   0.963   4.595   1.853
10346TIP3    H230996   0.965   4.478   1.949
10347TIP3   OH230997   7.342   3.860   3.684
10347TIP3    H130998   7.382   3.923   3.624
10347TIP3    H230999   7.415   3.828   3.737
10348TIP3   OH231000   4.979   6.159   5.171
10348TIP3    H131001   4.955   6.237   5.221
10348TIP3    H231002   4.927   6.089   5.210
10349TIP3   OH231003   7.513   0.906   0.993
10349TIP3    H131004   7.436   0.887   1.045
10349TIP3    H231005   7.587   0.895   1.053
10350TIP3   OH231006   5.264   5.098   0.664
10350TIP3    H131007   5.168   5.100   0.666
10350TIP3    H231008   5.291   5.121   0.753
10351TIP3   OH231009   5.632   0.989   0.586
10351TIP3    H131010   5.682   1.021   0.511
10351TIP3    H231011   5.543   1.020   0.570
10352TIP3   OH231012   6.177   6.235   2.313
10352TIP3    H131013   6.190   6.201   2.225
10352TIP3    H231014   6.175   6.330   2.302
10353TIP3   OH231015   6.195   1.234   6.123
10353TIP3    H131016   6.186   1.322   6.159
10353TIP3    H231017   6.269   1.240   6.062
10354TIP3   OH231018   5.440   0.783   1.410
10354TIP3    H131019   5.386   0.721   1.360
10354TIP3    H231020   5.470   0.732   1.486
10355TIP3   OH231021   4.231   6.496   3.368
10355TIP3    H131022   4.173   6.422   3.386
10355TIP3    H231023   4.248   6.491   3.274
10356TIP3   OH231024   0.551   1.688   2.828
10356TIP3    H131025   0.541   1.652   2.917
10356TIP3    H231026   0.482   1.754   2.821
10357TIP3   OH231027   7.955   3.044   1.987
10357TIP3    H131028   8.028   2.990   1.956
10357TIP3    H231029   7.926   3.091   1.909
10358TIP3   OH231030   3.319   1.654   3.802
10358TIP3    H131031   3.396   1.706   3.825
10358TIP3    H231032   3.354   1.569   3.775
10359TIP3   OH231033   8.105   1.236   3.676
10359TIP3    H131034   8.081   1.316   3.629
10359TIP3    H231035   8.125   1.265   3.765
10360TIP3   OH231036   7.723   0.065   0.494
10360TIP3    H131037   7.781   0.048   0.568
10360TIP3    H231038   7.642   0.099   0.534
10361TIP3   OH231039   3.742   5.120   0.887
10361TIP3    H131040   3.659   5.097   0.843
10361TIP3    H231041   3.733   5.084   0.975
10362TIP3   OH231042   0.885   6.726   2.130
10362TIP3    H131043   0.826   6.793   2.098
10362TIP3    H231044   0.859   6.646   2.084
10363TIP3   OH231045   0.403   1.030   4.173
10363TIP3    H131046   0.450   0.969   4.117
10363TIP3    H231047   0.465   1.102   4.189
10364TIP3   OH231048   6.279   2.739   1.824
10364TIP3    H131049   6.285   2.654   1.868
10364TIP3    H231050   6.225   2.792   1.882
10365TIP3   OH231051   0.759   6.962   2.952
10365TIP3    H131052   0.706   6.912   2.890
10365TIP3    H231053   0.700   6.976   3.027
10366TIP3   OH231054   3.887   6.134   4.454
10366TIP3    H131055   3.843   6.139   4.369
10366TIP3    H231056   3.889   6.224   4.485
10367TIP3   OH231057   5.042   6.423   5.783
10367TIP3    H131058   4.976   6.406   5.850
10367TIP3    H231059   5.036   6.517   5.766
10368TIP3   OH231060   3.218   2.565   5.836
10368TIP3    H131061   3.128   2.578   5.865
10368TIP3    H231062   3.238   2.644   5.785
10369TIP3   OH231063   1.345   6.686   2.112
10369TIP3    H131064   1.306   6.613   2.159
10369TIP3    H231065   1.271   6.743   2.089
10370TIP3   OH231066   1.237   6.229   0.325
10370TIP3    H131067   1.149   6.247   0.357
10370TIP3    H231068   1.290   6.300   0.361
10371TIP3   OH231069   7.915   6.156   5.591
10371TIP3    H131070   8.009   6.158   5.610
10371TIP3    H231071   7.874   6.168   5.677
10372TIP3   OH231072   7.951   4.267   3.966
10372TIP3    H131073   7.885   4.199   3.980
10372TIP3    H231074   8.034   4.219   3.962
10373TIP3   OH231075   2.089   2.212   1.885
10373TIP3    H131076   2.170   2.229   1.837
10373TIP3    H231077   2.114   2.150   1.954
10374TIP3   OH231078   7.750   7.221   1.570
10374TIP3    H131079   7.815   7.220   1.640
10374TIP3    H231080   7.671   7.183   1.609
10375TIP3   OH231081   3.767   2.921   3.705
10375TIP3    H131082   3.809   2.958   3.783
10375TIP3    H231083   3.835   2.922   3.638
10376TIP3   OH231084   4.616   1.748   2.628
10376TIP3    H131085   4.670   1.765   2.706
10376TIP3    H231086   4.571   1.831   2.612
10377TIP3   OH231087   6.395   2.343   4.616
10377TIP3    H131088   6.489   2.330   4.609
10377TIP3    H231089   6.360   2.307   4.535
10378TIP3   OH231090   3.678   2.543   4.237
10378TIP3    H131091   3.725   2.602   4.296
10378TIP3    H231092   3.614   2.499   4.293
10379TIP3   OH231093   4.460   3.003   2.340
10379TIP3    H131094   4.367   3.022   2.324
10379TIP3    H231095   4.507   3.061   2.280
10380TIP3   OH231096   7.950   0.541   1.549
10380TIP3    H131097   7.999   0.500   1.620
10380TIP3    H231098   8.014   0.595   1.503
10381TIP3   OH231099   2.286   3.407   3.989
10381TIP3    H131100   2.206   3.394   4.040
10381TIP3    H231101   2.284   3.500   3.966
10382TIP3   OH231102   4.594   0.140   4.524
10382TIP3    H131103   4.633   0.055   4.507
10382TIP3    H231104   4.657   0.204   4.491
10383TIP3   OH231105   7.534   5.937   2.886
10383TIP3    H131106   7.558   6.027   2.907
10383TIP3    H231107   7.463   5.916   2.946
10384TIP3   OH231108   0.851   5.552   5.983
10384TIP3    H131109   0.756   5.565   5.981
10384TIP3    H231110   0.865   5.471   5.934
10385TIP3   OH231111   2.618   2.822   6.427
10385TIP3    H131112   2.532   2.794   6.396
10385TIP3    H231113   2.672   2.743   6.421
10386TIP3   OH231114   7.019   5.308   1.198
10386TIP3    H131115   6.931   5.269   1.203
10386TIP3    H231116   7.068   5.248   1.143
10387TIP3   OH231117   4.827   3.591   6.415
10387TIP3    H131118   4.837   3.518   6.354
10387TIP3    H231119   4.880   3.661   6.376
10388TIP3   OH231120   4.045   4.713   4.233
10388TIP3    H131121   3.983   4.689   4.164
10388TIP3    H231122   4.064   4.630   4.277
10389TIP3   OH231123   2.633   3.604   3.096
10389TIP3    H131124   2.670   3.659   3.027
10389TIP3    H231125   2.662   3.645   3.178
10390TIP3   OH231126   2.145   1.590   3.441
10390TIP3    H131127   2.151   1.646   3.364
10390TIP3    H231128   2.064   1.541   3.429
10391TIP3   OH231129   6.106   0.881   1.522
10391TIP3    H131130   6.183   0.919   1.565
10391TIP3    H231131   6.040   0.877   1.590
10392TIP3   OH231132   0.350   7.281   1.936
10392TIP3    H131133   0.387   7.193   1.928
10392TIP3    H231134   0.418   7.331   1.981
10393TIP3   OH231135   5.271   1.042   3.777
10393TIP3    H131136   5.192   1.095   3.792
10393TIP3    H231137   5.238   0.955   3.757
10394TIP3   OH231138   0.629   5.916   1.293
10394TIP3    H131139   0.635   5.977   1.220
10394TIP3    H231140   0.573   5.845   1.261
10395TIP3   OH231141   0.215   4.926   2.221
10395TIP3    H131142   0.283   4.859   2.235
10395TIP3    H231143   0.142   4.878   2.182
10396TIP3   OH231144   3.635   2.014   0.511
10396TIP3    H131145   3.648   2.046   0.421
10396TIP3    H231146   3.724   2.002   0.545
10397TIP3   OH231147   0.439   5.642   6.677
10397TIP3    H131148   0.504   5.656   6.746
10397TIP3    H231149   0.371   5.588   6.719
10398TIP3   OH231150   2.934   2.672   1.488
10398TIP3    H131151   2.841   2.663   1.509
10398TIP3    H231152   2.936   2.732   1.414
10399TIP3   OH231153   0.515   2.489   4.296
10399TIP3    H131154   0.607   2.482   4.271
10399TIP3    H231155   0.490   2.399   4.319
10400TIP3   OH231156   6.376   7.458   3.213
10400TIP3    H131157   6.404   7.485   3.301
10400TIP3    H231158   6.282   7.445   3.220
10401TIP3   OH231159   5.580   4.576   5.180
10401TIP3    H131160   5.658   4.531   5.213
10401TIP3    H231161   5.534   4.509   5.129
10402TIP3   OH231162   0.321   6.738   5.733
10402TIP3    H131163   0.254   6.675   5.760
10402TIP3    H231164   0.283   6.823   5.750
10403TIP3   OH231165   7.706   6.936   3.782
10403TIP3    H131166   7.689   6.921   3.875
10403TIP3    H231167   7.797   6.912   3.769
10404TIP3   OH231168   4.424   5.096   6.442
10404TIP3    H131169   4.481   5.072   6.516
10404TIP3    H231170   4.464   5.054   6.367
10405TIP3   OH231171   4.002   6.068   2.596
10405TIP3    H131172   3.951   6.004   2.646
10405TIP3    H231173   3.971   6.153   2.626
10406TIP3   OH231174   7.327   4.091   2.460
10406TIP3    H131175   7.245   4.052   2.489
10406TIP3    H231176   7.320   4.093   2.364
10407TIP3   OH231177   4.480   2.439   0.416
10407TIP3    H131178   4.428   2.517   0.394
10407TIP3    H231179   4.424   2.390   0.476
10408TIP3   OH231180   1.696   3.022   5.740
10408TIP3    H131181   1.767   3.005   5.679
10408TIP3    H231182   1.703   2.952   5.805
10409TIP3   OH231183   6.787   0.281   4.992
10409TIP3    H131184   6.837   0.314   4.918
10409TIP3    H231185   6.850   0.278   5.064
10410TIP3   OH231186   4.561   3.767   6.148
10410TIP3    H131187   4.505   3.798   6.219
10410TIP3    H231188   4.525   3.810   6.070
10411TIP3   OH231189   4.515   6.291   6.185
10411TIP3    H131190   4.450   6.232   6.222
10411TIP3    H231191   4.466   6.347   6.125
10412TIP3   OH231192   3.098   7.311   4.861
10412TIP3    H131193   3.066   7.276   4.944
10412TIP3    H231194   3.026   7.364   4.828
10413TIP3   OH231195   3.892   2.527   6.670
10413TIP3    H131196   3.978   2.489   6.687
10413TIP3    H231197   3.905   2.622   6.677
10414TIP3   OH231198   6.021   7.223   0.695
10414TIP3    H131199   6.004   7.264   0.610
10414TIP3    H231200   6.116   7.216   0.700
10415TIP3   OH231201   0.782   4.734   6.056
10415TIP3    H131202   0.805   4.755   5.965
10415TIP3    H231203   0.845   4.668   6.083
10416TIP3   OH231204   6.593   5.965   5.416
10416TIP3    H131205   6.617   5.881   5.453
10416TIP3    H231206   6.638   5.968   5.331
10417TIP3   OH231207   0.318   5.976   2.809
10417TIP3    H131208   0.387   6.041   2.822
10417TIP3    H231209   0.249   6.023   2.763
10418TIP3   OH231210   2.571   5.924   4.959
10418TIP3    H131211   2.618   5.920   5.043
10418TIP3    H231212   2.532   5.838   4.949
10419TIP3   OH231213   3.517   4.055   1.156
10419TIP3    H131214   3.513   4.001   1.235
10419TIP3    H231215   3.478   4.138   1.181
10420TIP3   OH231216   6.929   2.236   5.584
10420TIP3    H131217   6.889   2.153   5.560
10420TIP3    H231218   7.014   2.212   5.620
10421TIP3   OH231219   6.507   5.434   2.603
10421TIP3    H131220   6.437   5.500   2.597
10421TIP3    H231221   6.464   5.352   2.577
10422TIP3   OH231222   6.990   5.683   3.608
10422TIP3    H131223   7.043   5.617   3.563
10422TIP3    H231224   6.939   5.724   3.538
10423TIP3   OH231225   2.059   0.339   6.598
10423TIP3    H131226   2.025   0.369   6.514
10423TIP3    H231227   2.053   0.244   6.594
10424TIP3   OH231228   7.229   3.921   5.916
10424TIP3    H131229   7.250   3.927   5.823
10424TIP3    H231230   7.196   3.832   5.927
10425TIP3   OH231231   0.978   6.131   4.600
10425TIP3    H131232   0.944   6.111   4.513
10425TIP3    H231233   1.064   6.169   4.585
10426TIP3   OH231234   0.674   6.861   2.018
10426TIP3    H131235   0.611   6.915   1.970
10426TIP3    H231236   0.637   6.773   2.017
10427TIP3   OH231237   1.263   5.935   1.820
10427TIP3    H131238   1.299   5.848   1.837
10427TIP3    H231239   1.222   5.960   1.903
10428TIP3   OH231240   2.241   0.132   1.319
10428TIP3    H131241   2.241   0.212   1.267
10428TIP3    H231242   2.308   0.147   1.386
10429TIP3   OH231243   7.415   3.662   4.244
10429TIP3    H131244   7.411   3.757   4.237
10429TIP3    H231245   7.416   3.645   4.338
10430TIP3   OH231246   1.731   1.375   6.054
10430TIP3    H131247   1.651   1.337   6.091
10430TIP3    H231248   1.792   1.376   6.128
10431TIP3   OH231249   5.939   5.745   6.796
10431TIP3    H131250   5.985   5.663   6.779
10431TIP3    H231251   5.866   5.745   6.735
10432TIP3   OH231252   2.849   3.002   3.251
10432TIP3    H131253   2.795   3.035   3.179
10432TIP3    H231254   2.802   3.029   3.330
10433TIP3   OH231255   0.593   2.029   3.018
10433TIP3    H131256   0.574   2.120   2.995
10433TIP3    H231257   0.603   1.985   2.933
10434TIP3   OH231258   3.407   3.405   5.498
10434TIP3    H131259   3.357   3.340   5.548
10434TIP3    H231260   3.413   3.369   5.410
10435TIP3   OH231261   2.527   0.994   1.927
10435TIP3    H131262   2.530   1.020   1.835
10435TIP3    H231263   2.445   1.031   1.959
10436TIP3   OH231264   5.292   3.772   5.448
10436TIP3    H131265   5.295   3.783   5.543
10436TIP3    H231266   5.280   3.678   5.435
10437TIP3   OH231267   7.557   7.435   1.452
10437TIP3    H131268   7.610   7.365   1.490
10437TIP3    H231269   7.618   7.509   1.441
10438TIP3   OH231270   6.401   7.663   1.907
10438TIP3    H131271   6.445   7.721   1.969
10438TIP3    H231272   6.393   7.580   1.953
10439TIP3   OH231273   7.566   2.555   3.012
10439TIP3    H131274   7.600   2.466   3.008
10439TIP3    H231275   7.613   2.601   2.942
10440TIP3   OH231276   6.682   3.601   3.470
10440TIP3    H131277   6.742   3.672   3.493
10440TIP3    H231278   6.603   3.646   3.440
10441TIP3   OH231279   4.939   6.788   6.648
10441TIP3    H131280   4.919   6.695   6.662
10441TIP3    H231281   4.940   6.798   6.553
10442TIP3   OH231282   4.056   0.720   1.590
10442TIP3    H131283   4.120   0.773   1.638
10442TIP3    H231284   4.059   0.634   1.632
10443TIP3   OH231285   7.028   0.486   6.596
10443TIP3    H131286   7.106   0.490   6.651
10443TIP3    H231287   7.062   0.481   6.506
10444TIP3   OH231288   2.594   5.979   6.044
10444TIP3    H131289   2.548   6.010   5.966
10444TIP3    H231290   2.605   6.058   6.098
10445TIP3   OH231291   5.666   5.673   0.351
10445TIP3    H131292   5.746   5.719   0.376
10445TIP3    H231293   5.609   5.680   0.428
10446TIP3   OH231294   5.540   0.839   2.618
10446TIP3    H131295   5.586   0.854   2.535
10446TIP3    H231296   5.556   0.919   2.668
10447TIP3   OH231297   1.773   0.228   1.677
10447TIP3    H131298   1.840   0.200   1.741
10447TIP3    H231299   1.814   0.300   1.629
10448TIP3   OH231300   7.099   1.351   0.334
10448TIP3    H131301   7.041   1.421   0.364
10448TIP3    H231302   7.048   1.271   0.344
10449TIP3   OH231303  -0.008   2.064   5.886
10449TIP3    H131304  -0.069   1.992   5.871
10449TIP3    H231305   0.075   2.032   5.849
10450TIP3   OH231306   2.166   7.818   4.043
10450TIP3    H131307   2.166   7.777   3.957
10450TIP3    H231308   2.238   7.776   4.090
10451TIP3   OH231309   4.012   7.171   3.832
10451TIP3    H131310   4.013   7.200   3.923
10451TIP3    H231311   3.942   7.222   3.791
10452TIP3   OH231312   4.177   3.035   1.895
10452TIP3    H131313   4.146   3.116   1.936
10452TIP3    H231314   4.101   3.002   1.847
10453TIP3   OH231315   6.709   6.956   0.571
10453TIP3    H131316   6.628   6.970   0.619
10453TIP3    H231317   6.758   6.893   0.624
10454TIP3   OH231318   1.927   4.473   4.028
10454TIP3    H131319   1.991   4.510   3.968
10454TIP3    H231320   1.861   4.432   3.971
10455TIP3   OH231321   1.734   0.499   6.324
10455TIP3    H131322   1.724   0.411   6.359
10455TIP3    H231323   1.719   0.490   6.230
10456TIP3   OH231324   7.771   4.078   5.848
10456TIP3    H131325   7.811   4.075   5.761
10456TIP3    H231326   7.830   4.132   5.900
10457TIP3   OH231327   3.841   3.792   6.277
10457TIP3    H131328   3.889   3.794   6.194
10457TIP3    H231329   3.816   3.884   6.292
10458TIP3   OH231330   3.788   5.210   4.224
10458TIP3    H131331   3.760   5.130   4.181
10458TIP3    H231332   3.767   5.279   4.161
10459TIP3   OH231333   4.763   2.503   6.753
10459TIP3    H131334   4.698   2.492   6.683
10459TIP3    H231335   4.735   2.441   6.821
10460TIP3   OH231336   0.999   0.643   4.991
10460TIP3    H131337   1.083   0.687   4.973
10460TIP3    H231338   0.960   0.694   5.062
10461TIP3   OH231339   0.241   2.529   6.040
10461TIP3    H131340   0.206   2.598   6.097
10461TIP3    H231341   0.164   2.493   5.996
10462TIP3   OH231342   4.697   0.525   2.348
10462TIP3    H131343   4.743   0.589   2.293
10462TIP3    H231344   4.620   0.571   2.380
10463TIP3   OH231345   0.326   0.402   3.717
10463TIP3    H131346   0.343   0.337   3.649
10463TIP3    H231347   0.247   0.369   3.762
10464TIP3   OH231348   3.750   0.371   6.408
10464TIP3    H131349   3.804   0.293   6.398
10464TIP3    H231350   3.783   0.413   6.488
10465TIP3   OH231351   3.193   1.510   1.715
10465TIP3    H131352   3.180   1.437   1.775
10465TIP3    H231353   3.287   1.512   1.699
10466TIP3   OH231354   3.607   3.079   3.322
10466TIP3    H131355   3.558   2.998   3.335
10466TIP3    H231356   3.592   3.129   3.402
10467TIP3   OH231357   6.826   6.493   0.768
10467TIP3    H131358   6.825   6.439   0.689
10467TIP3    H231359   6.832   6.431   0.840
10468TIP3   OH231360   6.667   3.560   4.611
10468TIP3    H131361   6.647   3.645   4.573
10468TIP3    H231362   6.594   3.541   4.669
10469TIP3   OH231363   5.328   6.237   0.039
10469TIP3    H131364   5.283   6.156   0.063
10469TIP3    H231365   5.260   6.289  -0.005
10470TIP3   OH231366   1.758   5.120   3.777
10470TIP3    H131367   1.688   5.133   3.841
10470TIP3    H231368   1.738   5.036   3.737
10471TIP3   OH231369   0.841   3.871   3.544
10471TIP3    H131370   0.781   3.914   3.483
10471TIP3    H231371   0.805   3.783   3.556
10472TIP3   OH231372   3.525   0.956   3.987
10472TIP3    H131373   3.597   0.942   3.925
10472TIP3    H231374   3.566   0.949   4.073
10473TIP3   OH231375   2.303   2.585   3.618
10473TIP3    H131376   2.383   2.556   3.573
10473TIP3    H231377   2.319   2.568   3.710
10474TIP3   OH231378   7.743   5.618   1.479
10474TIP3    H131379   7.717   5.654   1.564
10474TIP3    H231380   7.732   5.691   1.418
10475TIP3   OH231381   6.307   0.226   5.598
10475TIP3    H131382   6.225   0.272   5.576
10475TIP3    H231383   6.286   0.134   5.585
10476TIP3   OH231384   3.787   5.048   1.949
10476TIP3    H131385   3.764   5.002   2.029
10476TIP3    H231386   3.874   5.085   1.967
10477TIP3   OH231387   0.099   7.529   4.565
10477TIP3    H131388   0.012   7.526   4.525
10477TIP3    H231389   0.088   7.586   4.642
10478TIP3   OH231390   7.191   1.941   1.608
10478TIP3    H131391   7.105   1.981   1.601
10478TIP3    H231392   7.238   1.973   1.531
10479TIP3   OH231393   5.134   6.451   4.808
10479TIP3    H131394   5.113   6.483   4.896
10479TIP3    H231395   5.051   6.423   4.771
10480TIP3   OH231396   3.418   2.174   0.222
10480TIP3    H131397   3.492   2.231   0.201
10480TIP3    H231398   3.396   2.132   0.139
10481TIP3   OH231399   1.440   6.967   1.598
10481TIP3    H131400   1.525   6.999   1.569
10481TIP3    H231401   1.384   7.044   1.598
10482TIP3   OH231402   4.496   5.008   6.187
10482TIP3    H131403   4.526   5.097   6.209
10482TIP3    H231404   4.571   4.952   6.207
10483TIP3   OH231405   3.606   1.274   0.237
10483TIP3    H131406   3.647   1.359   0.224
10483TIP3    H231407   3.675   1.221   0.278
10484TIP3   OH231408   4.418   6.290   3.053
10484TIP3    H131409   4.388   6.381   3.063
10484TIP3    H231410   4.439   6.282   2.960
10485TIP3   OH231411   6.877   0.586   3.126
10485TIP3    H131412   6.892   0.517   3.061
10485TIP3    H231413   6.804   0.637   3.091
10486TIP3   OH231414   7.814   3.739   5.851
10486TIP3    H131415   7.812   3.643   5.855
10486TIP3    H231416   7.729   3.766   5.886
10487TIP3   OH231417   6.985   6.378   4.759
10487TIP3    H131418   6.991   6.463   4.803
10487TIP3    H231419   6.891   6.364   4.748
10488TIP3   OH231420   1.078   6.299   3.842
10488TIP3    H131421   1.078   6.258   3.756
10488TIP3    H231422   1.139   6.246   3.894
10489TIP3   OH231423   3.525   7.151   2.016
10489TIP3    H131424   3.606   7.112   2.051
10489TIP3    H231425   3.470   7.165   2.094
10490TIP3   OH231426   2.498   6.324   2.354
10490TIP3    H131427   2.403   6.336   2.364
10490TIP3    H231428   2.515   6.238   2.392
10491TIP3   OH231429   6.277   6.512   2.562
10491TIP3    H131430   6.332   6.497   2.485
10491TIP3    H231431   6.299   6.601   2.591
10492TIP3   OH231432   2.199   3.249   2.598
10492TIP3    H131433   2.290   3.220   2.600
10492TIP3    H231434   2.159   3.208   2.675
10493TIP3   OH231435   3.758   7.476   4.307
10493TIP3    H131436   3.764   7.553   4.363
10493TIP3    H231437   3.703   7.503   4.234
10494TIP3   OH231438   2.051   3.231   5.627
10494TIP3    H131439   1.971   3.179   5.615
10494TIP3    H231440   2.122   3.167   5.625
10495TIP3   OH231441   6.210   3.583   6.078
10495TIP3    H131442   6.232   3.541   6.161
10495TIP3    H231443   6.160   3.516   6.030
10496TIP3   OH231444   7.380   6.659   1.407
10496TIP3    H131445   7.329   6.711   1.345
10496TIP3    H231446   7.345   6.684   1.493
10497TIP3   OH231447   0.857   5.664   3.901
10497TIP3    H131448   0.819   5.704   3.979
10497TIP3    H231449   0.945   5.702   3.895
10498TIP3   OH231450   6.854   6.703   1.447
10498TIP3    H131451   6.915   6.644   1.402
10498TIP3    H231452   6.874   6.692   1.540
10499TIP3   OH231453   8.064   4.770   1.998
10499TIP3    H131454   8.036   4.742   1.911
10499TIP3    H231455   7.985   4.764   2.052
10500TIP3   OH231456   5.284   0.145   6.703
10500TIP3    H131457   5.242   0.197   6.634
10500TIP3    H231458   5.372   0.127   6.669
10501TIP3   OH231459   0.795   5.610   1.949
10501TIP3    H131460   0.750   5.547   1.893
10501TIP3    H231461   0.881   5.622   1.908
10502TIP3   OH231462   0.293   1.967   1.745
10502TIP3    H131463   0.260   1.891   1.793
10502TIP3    H231464   0.317   1.932   1.659
10503TIP3   OH231465   6.206   0.361   1.174
10503TIP3    H131466   6.230   0.441   1.127
10503TIP3    H231467   6.154   0.391   1.249
10504TIP3   OH231468   5.561   6.329   1.972
10504TIP3    H131469   5.531   6.247   1.933
10504TIP3    H231470   5.636   6.355   1.918
10505TIP3   OH231471   3.633   6.315   0.648
10505TIP3    H131472   3.609   6.407   0.645
10505TIP3    H231473   3.551   6.268   0.631
10506TIP3   OH231474   6.385   2.458   2.020
10506TIP3    H131475   6.437   2.391   2.065
10506TIP3    H231476   6.366   2.523   2.088
10507TIP3   OH231477   6.476   7.778   4.238
10507TIP3    H131478   6.483   7.871   4.259
10507TIP3    H231479   6.500   7.732   4.318
10508TIP3   OH231480   7.546   2.222   0.939
10508TIP3    H131481   7.638   2.213   0.914
10508TIP3    H231482   7.505   2.141   0.909
10509TIP3   OH231483   2.582   4.112   4.611
10509TIP3    H131484   2.524   4.128   4.685
10509TIP3    H231485   2.566   4.021   4.587
10510TIP3   OH231486   4.891   2.542   4.474
10510TIP3    H131487   4.830   2.609   4.504
10510TIP3    H231488   4.976   2.585   4.474
10511TIP3   OH231489   0.166   3.093   3.538
10511TIP3    H131490   0.119   3.169   3.574
10511TIP3    H231491   0.097   3.029   3.520
10512TIP3   OH231492   4.194   0.660   2.432
10512TIP3    H131493   4.162   0.690   2.517
10512TIP3    H231494   4.181   0.734   2.373
10513TIP3   OH231495   4.186   0.271   1.279
10513TIP3    H131496   4.215   0.335   1.213
10513TIP3    H231497   4.266   0.246   1.325
10514TIP3   OH231498   7.661   1.852   4.860
10514TIP3    H131499   7.750   1.830   4.834
10514TIP3    H231500   7.669   1.883   4.950
10515TIP3   OH231501   5.987   5.406   2.772
10515TIP3    H131502   6.032   5.486   2.800
10515TIP3    H231503   5.901   5.435   2.743
10516TIP3   OH231504   5.588   2.407   4.507
10516TIP3    H131505   5.676   2.444   4.513
10516TIP3    H231506   5.586   2.338   4.573
10517TIP3   OH231507   2.274   4.020   2.717
10517TIP3    H131508   2.284   4.110   2.746
10517TIP3    H231509   2.293   4.023   2.623
10518TIP3   OH231510   5.772   4.331   0.902
10518TIP3    H131511   5.702   4.296   0.848
10518TIP3    H231512   5.756   4.295   0.990
10519TIP3   OH231513   3.753   3.880   6.757
10519TIP3    H131514   3.663   3.910   6.749
10519TIP3    H231515   3.747   3.784   6.754
10520TIP3   OH231516   8.056   2.432   2.618
10520TIP3    H131517   8.060   2.524   2.593
10520TIP3    H231518   8.062   2.384   2.535
10521TIP3   OH231519   3.667   5.119   3.353
10521TIP3    H131520   3.603   5.088   3.288
10521TIP3    H231521   3.623   5.105   3.437
10522TIP3   OH231522   0.251   3.202   0.478
10522TIP3    H131523   0.339   3.199   0.515
10522TIP3    H231524   0.195   3.232   0.550
10523TIP3   OH231525   1.468   7.632   0.651
10523TIP3    H131526   1.520   7.567   0.698
10523TIP3    H231527   1.526   7.664   0.582
10524TIP3   OH231528   7.104   1.518   4.866
10524TIP3    H131529   7.142   1.595   4.824
10524TIP3    H231530   7.046   1.554   4.933
10525TIP3   OH231531   4.691   0.933   4.162
10525TIP3    H131532   4.629   0.861   4.153
10525TIP3    H231533   4.636   1.011   4.169
10526TIP3   OH231534   2.802   3.160   4.376
10526TIP3    H131535   2.768   3.223   4.440
10526TIP3    H231536   2.896   3.176   4.374
10527TIP3   OH231537   3.415   0.862   4.834
10527TIP3    H131538   3.460   0.944   4.814
10527TIP3    H231539   3.322   0.885   4.834
10528TIP3   OH231540   1.395   3.617   2.068
10528TIP3    H131541   1.346   3.561   2.008
10528TIP3    H231542   1.433   3.685   2.012
10529TIP3   OH231543   6.204   4.075   3.729
10529TIP3    H131544   6.239   4.160   3.700
10529TIP3    H231545   6.184   4.029   3.647
10530TIP3   OH231546   5.645   0.132   3.721
10530TIP3    H131547   5.558   0.150   3.685
10530TIP3    H231548   5.695   0.212   3.705
10531TIP3   OH231549   7.972   7.041   4.072
10531TIP3    H131550   7.935   6.963   4.030
10531TIP3    H231551   7.913   7.112   4.047
10532TIP3   OH231552   7.483   2.310   1.206
10532TIP3    H131553   7.514   2.287   1.119
10532TIP3    H231554   7.559   2.350   1.249
10533TIP3   OH231555   1.846   1.782   4.763
10533TIP3    H131556   1.937   1.776   4.735
10533TIP3    H231557   1.843   1.738   4.848
10534TIP3   OH231558   2.687   0.403   5.109
10534TIP3    H131559   2.671   0.489   5.147
10534TIP3    H231560   2.678   0.342   5.182
10535TIP3   OH231561   0.814   3.116   6.317
10535TIP3    H131562   0.767   3.084   6.394
10535TIP3    H231563   0.751   3.171   6.271
10536TIP3   OH231564   4.500   5.830   2.159
10536TIP3    H131565   4.498   5.847   2.253
10536TIP3    H231566   4.551   5.749   2.150
10537TIP3   OH231567   1.665   4.282   1.641
10537TIP3    H131568   1.714   4.314   1.565
10537TIP3    H231569   1.731   4.239   1.696
10538TIP3   OH231570   1.621   5.366   1.591
10538TIP3    H131571   1.548   5.308   1.566
10538TIP3    H231572   1.619   5.435   1.525
10539TIP3   OH231573   1.891   5.434   5.260
10539TIP3    H131574   1.894   5.371   5.332
10539TIP3    H231575   1.976   5.424   5.217
10540TIP3   OH231576   6.986   6.107   5.269
10540TIP3    H131577   7.066   6.070   5.305
10540TIP3    H231578   6.981   6.195   5.306
10541TIP3   OH231579   1.600   4.124   2.397
10541TIP3    H131580   1.606   4.179   2.475
10541TIP3    H231581   1.663   4.054   2.412
10542TIP3   OH231582   3.800   2.466   6.404
10542TIP3    H131583   3.841   2.510   6.478
10542TIP3    H231584   3.870   2.462   6.338
10543TIP3   OH231585   8.235   6.328   5.849
10543TIP3    H131586   8.248   6.303   5.941
10543TIP3    H231587   8.299   6.398   5.835
10544TIP3   OH231588   5.193   5.917   3.198
10544TIP3    H131589   5.227   5.959   3.119
10544TIP3    H231590   5.239   5.834   3.204
10545TIP3   OH231591   7.105   0.588   0.041
10545TIP3    H131592   7.152   0.661   0.000
10545TIP3    H231593   7.172   0.540   0.089
10546TIP3   OH231594   7.374   3.949   6.161
10546TIP3    H131595   7.312   3.912   6.098
10546TIP3    H231596   7.324   4.012   6.212
10547TIP3   OH231597   4.000   4.707   3.844
10547TIP3    H131598   3.936   4.717   3.915
10547TIP3    H231599   3.947   4.712   3.764
10548TIP3   OH231600   2.227   7.757   4.374
10548TIP3    H131601   2.227   7.838   4.324
10548TIP3    H231602   2.272   7.694   4.318
10549TIP3   OH231603   6.172   6.266   3.700
10549TIP3    H131604   6.253   6.257   3.650
10549TIP3    H231605   6.135   6.178   3.701
10550TIP3   OH231606   0.573   2.737   5.003
10550TIP3    H131607   0.501   2.738   4.940
10550TIP3    H231608   0.532   2.758   5.087
10551TIP3   OH231609   4.918   5.264   6.240
10551TIP3    H131610   4.959   5.183   6.207
10551TIP3    H231611   4.965   5.283   6.321
10552TIP3   OH231612   4.310   5.224   5.193
10552TIP3    H131613   4.336   5.310   5.226
10552TIP3    H231614   4.274   5.179   5.269
10553TIP3   OH231615   3.710   0.224   6.688
10553TIP3    H131616   3.770   0.298   6.700
10553TIP3    H231617   3.764   0.147   6.704
10554TIP3   OH231618   0.099   4.923   3.610
10554TIP3    H131619   0.147   4.969   3.542
10554TIP3    H231620   0.119   4.831   3.595
10555TIP3   OH231621   4.605   7.176   3.874
10555TIP3    H131622   4.547   7.103   3.896
10555TIP3    H231623   4.677   7.169   3.937
10556TIP3   OH231624   3.623   0.618   3.910
10556TIP3    H131625   3.665   0.542   3.949
10556TIP3    H231626   3.540   0.627   3.957
10557TIP3   OH231627   1.394   1.551   2.492
10557TIP3    H131628   1.321   1.550   2.429
10557TIP3    H231629   1.361   1.501   2.567
10558TIP3   OH231630   5.924   4.132   1.689
10558TIP3    H131631   5.968   4.159   1.608
10558TIP3    H231632   5.894   4.043   1.673
10559TIP3   OH231633   4.199   6.153   2.935
10559TIP3    H131634   4.278   6.197   2.903
10559TIP3    H231635   4.231   6.068   2.967
10560TIP3   OH231636   1.892   0.952   5.281
10560TIP3    H131637   1.832   0.891   5.323
10560TIP3    H231638   1.950   0.981   5.352
10561TIP3   OH231639   3.526   6.260   6.017
10561TIP3    H131640   3.471   6.315   5.961
10561TIP3    H231641   3.553   6.187   5.961
10562TIP3   OH231642   3.214   1.942   4.536
10562TIP3    H131643   3.152   1.871   4.547
10562TIP3    H231644   3.166   2.021   4.561
10563TIP3   OH231645   4.992   2.820   3.990
10563TIP3    H131646   4.902   2.848   3.977
10563TIP3    H231647   5.028   2.813   3.901
10564TIP3   OH231648   7.026   1.282   3.076
10564TIP3    H131649   6.940   1.243   3.089
10564TIP3    H231650   7.056   1.246   2.993
10565TIP3   OH231651   1.287   6.401   3.345
10565TIP3    H131652   1.356   6.446   3.295
10565TIP3    H231653   1.211   6.401   3.287
10566TIP3   OH231654   4.207   4.100   0.285
10566TIP3    H131655   4.198   4.071   0.195
10566TIP3    H231656   4.291   4.064   0.314
10567TIP3   OH231657   1.684   4.500   5.018
10567TIP3    H131658   1.689   4.522   5.112
10567TIP3    H231659   1.660   4.407   5.017
10568TIP3   OH231660   1.840   7.444   6.402
10568TIP3    H131661   1.763   7.414   6.353
10568TIP3    H231662   1.866   7.368   6.454
10569TIP3   OH231663   2.456   3.123   3.370
10569TIP3    H131664   2.508   3.197   3.338
10569TIP3    H231665   2.518   3.074   3.425
10570TIP3   OH231666   3.336   2.446   3.696
10570TIP3    H131667   3.320   2.540   3.685
10570TIP3    H231668   3.339   2.433   3.791
10571TIP3   OH231669   2.082   6.136   1.052
10571TIP3    H131670   1.989   6.158   1.050
10571TIP3    H231671   2.102   6.105   0.964
10572TIP3   OH231672   7.780   7.558   1.651
10572TIP3    H131673   7.723   7.625   1.689
10572TIP3    H231674   7.787   7.583   1.558
10573TIP3   OH231675   0.060   3.043   6.308
10573TIP3    H131676   0.086   3.063   6.218
10573TIP3    H231677  -0.027   3.081   6.317
10574TIP3   OH231678   3.598   3.756   0.076
10574TIP3    H131679   3.678   3.720   0.114
10574TIP3    H231680   3.568   3.688   0.015
10575TIP3   OH231681   2.986   6.060   3.651
10575TIP3    H131682   2.988   6.151   3.620
10575TIP3    H231683   3.025   6.010   3.580
10576TIP3   OH231684   2.296   1.542   3.074
10576TIP3    H131685   2.255   1.584   3.150
10576TIP3    H231686   2.223   1.501   3.027
10577TIP3   OH231687   7.615   6.554   1.256
10577TIP3    H131688   7.642   6.498   1.184
10577TIP3    H231689   7.624   6.644   1.223
10578TIP3   OH231690   2.179   6.021   5.265
10578TIP3    H131691   2.087   5.996   5.259
10578TIP3    H231692   2.227   5.939   5.249
10579TIP3   OH231693   6.957   6.893   4.590
10579TIP3    H131694   6.870   6.853   4.592
10579TIP3    H231695   6.949   6.964   4.526
10580TIP3   OH231696   4.117   1.034   0.868
10580TIP3    H131697   4.194   1.083   0.841
10580TIP3    H231698   4.088   0.989   0.789
10581TIP3   OH231699   7.843   7.354   0.900
10581TIP3    H131700   7.909   7.285   0.911
10581TIP3    H231701   7.887   7.420   0.846
10582TIP3   OH231702   8.142   4.812   6.486
10582TIP3    H131703   8.094   4.797   6.405
10582TIP3    H231704   8.076   4.809   6.555
10583TIP3   OH231705   7.629   7.402   2.443
10583TIP3    H131706   7.584   7.426   2.362
10583TIP3    H231707   7.588   7.456   2.510
10584TIP3   OH231708   7.741   3.414   2.000
10584TIP3    H131709   7.681   3.482   1.969
10584TIP3    H231710   7.688   3.334   2.004
10585TIP3   OH231711   0.930   7.783   6.513
10585TIP3    H131712   0.927   7.695   6.475
10585TIP3    H231713   0.840   7.815   6.506
10586TIP3   OH231714   3.153   3.893   5.889
10586TIP3    H131715   3.130   3.836   5.816
10586TIP3    H231716   3.148   3.982   5.854
10587TIP3   OH231717   5.467   2.961   0.232
10587TIP3    H131718   5.535   2.901   0.201
10587TIP3    H231719   5.395   2.950   0.169
10588TIP3   OH231720   4.527   4.204   0.171
10588TIP3    H131721   4.589   4.258   0.220
10588TIP3    H231722   4.532   4.118   0.212
10589TIP3   OH231723   1.874   3.067   5.171
10589TIP3    H131724   1.793   3.076   5.120
10589TIP3    H231725   1.915   3.153   5.167
10590TIP3   OH231726   6.501   1.632   6.509
10590TIP3    H131727   6.430   1.695   6.523
10590TIP3    H231728   6.552   1.668   6.436
10591TIP3   OH231729   5.865   7.664   4.510
10591TIP3    H131730   5.880   7.623   4.595
10591TIP3    H231731   5.857   7.591   4.449
10592TIP3   OH231732   4.191   0.835   5.566
10592TIP3    H131733   4.273   0.792   5.542
10592TIP3    H231734   4.219   0.916   5.609
10593TIP3   OH231735   7.654   5.539   3.813
10593TIP3    H131736   7.636   5.614   3.869
10593TIP3    H231737   7.673   5.577   3.727
10594TIP3   OH231738   6.771   4.215   2.216
10594TIP3    H131739   6.685   4.178   2.234
10594TIP3    H231740   6.814   4.221   2.302
10595TIP3   OH231741   0.988   6.327   3.473
10595TIP3    H131742   0.994   6.249   3.417
10595TIP3    H231743   1.072   6.372   3.459
10596TIP3   OH231744   6.661   3.120   3.866
10596TIP3    H131745   6.629   3.157   3.784
10596TIP3    H231746   6.609   3.040   3.878
10597TIP3   OH231747   7.383   7.126   2.366
10597TIP3    H131748   7.438   7.146   2.442
10597TIP3    H231749   7.445   7.111   2.295
10598TIP3   OH231750   2.004   0.477   2.820
10598TIP3    H131751   1.912   0.453   2.809
10598TIP3    H231752   2.010   0.565   2.783
10599TIP3   OH231753   5.827   3.254   1.886
10599TIP3    H131754   5.744   3.205   1.885
10599TIP3    H231755   5.894   3.186   1.896
10600TIP3   OH231756   8.121   2.847   1.620
10600TIP3    H131757   8.166   2.931   1.626
10600TIP3    H231758   8.117   2.815   1.711
10601TIP3   OH231759   2.645   0.775   3.322
10601TIP3    H131760   2.571   0.832   3.341
10601TIP3    H231761   2.719   0.835   3.309
10602TIP3   OH231762   6.044   5.448   0.226
10602TIP3    H131763   6.118   5.508   0.236
10602TIP3    H231764   6.082   5.361   0.224
10603TIP3   OH231765   2.010   1.959   4.048
10603TIP3    H131766   2.056   1.891   4.098
10603TIP3    H231767   2.073   1.990   3.984
10604TIP3   OH231768   4.347   5.032   0.545
10604TIP3    H131769   4.389   5.048   0.460
10604TIP3    H231770   4.267   5.084   0.542
10605TIP3   OH231771   1.200   3.696   3.210
10605TIP3    H131772   1.275   3.697   3.269
10605TIP3    H231773   1.206   3.612   3.164
10606TIP3   OH231774   6.607   5.678   4.354
10606TIP3    H131775   6.682   5.719   4.312
10606TIP3    H231776   6.646   5.621   4.421
10607TIP3   OH231777   5.396   5.231   5.584
10607TIP3    H131778   5.313   5.193   5.611
10607TIP3    H231779   5.384   5.253   5.491
10608TIP3   OH231780   2.179   5.762   1.654
10608TIP3    H131781   2.122   5.838   1.645
10608TIP3    H231782   2.138   5.709   1.723
10609TIP3   OH231783   7.313   4.691   4.927
10609TIP3    H131784   7.309   4.635   4.849
10609TIP3    H231785   7.271   4.773   4.900
10610TIP3   OH231786   3.869   5.054   5.959
10610TIP3    H131787   3.921   5.104   6.022
10610TIP3    H231788   3.830   5.120   5.902
10611TIP3   OH231789   2.114   3.095   2.339
10611TIP3    H131790   2.145   3.008   2.365
10611TIP3    H231791   2.123   3.148   2.418
10612TIP3   OH231792   5.765   2.187   1.244
10612TIP3    H131793   5.802   2.176   1.332
10612TIP3    H231794   5.672   2.168   1.255
10613TIP3   OH231795   3.455   0.499   6.101
10613TIP3    H131796   3.447   0.503   6.006
10613TIP3    H231797   3.393   0.431   6.127
10614TIP3   OH231798   3.182   2.113   5.217
10614TIP3    H131799   3.189   2.131   5.311
10614TIP3    H231800   3.108   2.166   5.188
10615TIP3   OH231801   7.118   1.077   0.074
10615TIP3    H131802   7.047   1.021   0.044
10615TIP3    H231803   7.195   1.020   0.076
10616TIP3   OH231804   4.341   2.698   0.420
10616TIP3    H131805   4.368   2.704   0.512
10616TIP3    H231806   4.392   2.766   0.376
10617TIP3   OH231807   2.932   2.988   2.199
10617TIP3    H131808   3.008   2.939   2.167
10617TIP3    H231809   2.864   2.922   2.213
10618TIP3   OH231810   2.299   5.767   3.475
10618TIP3    H131811   2.261   5.815   3.549
10618TIP3    H231812   2.328   5.684   3.513
10619TIP3   OH231813   8.213   0.713   4.849
10619TIP3    H131814   8.276   0.645   4.872
10619TIP3    H231815   8.203   0.705   4.754
10620TIP3   OH231816   4.532   6.185   3.284
10620TIP3    H131817   4.499   6.221   3.202
10620TIP3    H231818   4.489   6.236   3.352
10621TIP3   OH231819   5.781   3.559   2.603
10621TIP3    H131820   5.776   3.491   2.670
10621TIP3    H231821   5.698   3.550   2.554
10622TIP3   OH231822   7.911   4.641   1.806
10622TIP3    H131823   7.840   4.634   1.743
10622TIP3    H231824   7.867   4.650   1.891
10623TIP3   OH231825   2.275   3.457   1.221
10623TIP3    H131826   2.241   3.462   1.132
10623TIP3    H231827   2.242   3.374   1.255
10624TIP3   OH231828   2.341   2.686   4.757
10624TIP3    H131829   2.379   2.750   4.817
10624TIP3    H231830   2.270   2.645   4.807
10625TIP3   OH231831   2.459   7.175   6.413
10625TIP3    H131832   2.468   7.263   6.376
10625TIP3    H231833   2.514   7.120   6.358
10626TIP3   OH231834   1.663   5.367   6.692
10626TIP3    H131835   1.634   5.398   6.778
10626TIP3    H231836   1.703   5.443   6.651
10627TIP3   OH231837   6.306   0.790   4.813
10627TIP3    H131838   6.238   0.756   4.755
10627TIP3    H231839   6.343   0.864   4.765
10628TIP3   OH231840   0.444   2.332   6.004
10628TIP3    H131841   0.380   2.401   6.022
10628TIP3    H231842   0.432   2.269   6.075
10629TIP3   OH231843   1.828   6.123   4.657
10629TIP3    H131844   1.886   6.096   4.585
10629TIP3    H231845   1.877   6.103   4.736
10630TIP3   OH231846   1.842   5.173   5.090
10630TIP3    H131847   1.901   5.181   5.015
10630TIP3    H231848   1.848   5.257   5.135
10631TIP3   OH231849   7.616   3.640   2.083
10631TIP3    H131850   7.616   3.734   2.101
10631TIP3    H231851   7.570   3.601   2.158
10632TIP3   OH231852   5.056   4.352   3.934
10632TIP3    H131853   4.992   4.305   3.987
10632TIP3    H231854   5.139   4.340   3.982
10633TIP3   OH231855   1.995   4.482   2.322
10633TIP3    H131856   1.913   4.525   2.348
10633TIP3    H231857   2.012   4.419   2.393
10634TIP3   OH231858   0.235   3.877   5.981
10634TIP3    H131859   0.180   3.926   5.921
10634TIP3    H231860   0.291   3.824   5.924
10635TIP3   OH231861   1.836   5.159   6.651
10635TIP3    H131862   1.762   5.220   6.658
10635TIP3    H231863   1.848   5.126   6.740
10636TIP3   OH231864   1.176   6.298   4.591
10636TIP3    H131865   1.151   6.375   4.540
10636TIP3    H231866   1.209   6.333   4.673
10637TIP3   OH231867   3.931   7.344   6.334
10637TIP3    H131868   3.961   7.335   6.424
10637TIP3    H231869   3.995   7.294   6.282
10638TIP3   OH231870   2.021   7.088   0.733
10638TIP3    H131871   2.082   7.037   0.680
10638TIP3    H231872   2.061   7.174   0.741
10639TIP3   OH231873   6.695   6.666   1.722
10639TIP3    H131874   6.749   6.594   1.755
10639TIP3    H231875   6.605   6.634   1.731
10640TIP3   OH231876   1.721   1.592   1.960
10640TIP3    H131877   1.687   1.601   1.871
10640TIP3    H231878   1.708   1.679   1.999
10641TIP3   OH231879   3.670   3.911   2.349
10641TIP3    H131880   3.706   3.995   2.376
10641TIP3    H231881   3.649   3.866   2.431
10642TIP3   OH231882   0.398   0.197   0.382
10642TIP3    H131883   0.423   0.164   0.296
10642TIP3    H231884   0.477   0.188   0.435
10643TIP3   OH231885   1.951   3.214   0.258
10643TIP3    H131886   1.933   3.140   0.317
10643TIP3    H231887   2.046   3.220   0.256
10644TIP3   OH231888   7.017   7.680   6.820
10644TIP3    H131889   7.040   7.773   6.822
10644TIP3    H231890   7.001   7.661   6.727
10645TIP3   OH231891   8.208   6.850   1.069
10645TIP3    H131892   8.235   6.765   1.032
10645TIP3    H231893   8.256   6.856   1.152
10646TIP3   OH231894   5.471   0.503   2.557
10646TIP3    H131895   5.517   0.441   2.500
10646TIP3    H231896   5.540   0.564   2.585
10647TIP3   OH231897   7.854   1.812   4.171
10647TIP3    H131898   7.929   1.761   4.141
10647TIP3    H231899   7.877   1.842   4.259
10648TIP3   OH231900   3.153   4.685   1.393
10648TIP3    H131901   3.111   4.741   1.458
10648TIP3    H231902   3.192   4.614   1.444
10649TIP3   OH231903   6.000   7.330   6.308
10649TIP3    H131904   5.996   7.360   6.398
10649TIP3    H231905   6.056   7.393   6.263
10650TIP3   OH231906   1.511   3.774   0.083
10650TIP3    H131907   1.456   3.844   0.120
10650TIP3    H231908   1.467   3.750   0.001
10651TIP3   OH231909   7.550   2.808   5.001
10651TIP3    H131910   7.482   2.795   4.935
10651TIP3    H231911   7.620   2.747   4.977
10652TIP3   OH231912   8.304   5.981   2.413
10652TIP3    H131913   8.315   5.907   2.353
10652TIP3    H231914   8.279   6.054   2.357
10653TIP3   OH231915   5.425   5.571   2.513
10653TIP3    H131916   5.413   5.477   2.526
10653TIP3    H231917   5.462   5.579   2.426
10654TIP3   OH231918   8.287   0.627   1.115
10654TIP3    H131919   8.226   0.569   1.070
10654TIP3    H231920   8.367   0.576   1.123
10655TIP3   OH231921   5.373   0.153   5.769
10655TIP3    H131922   5.325   0.076   5.800
10655TIP3    H231923   5.324   0.227   5.802
10656TIP3   OH231924   5.760   2.415   3.762
10656TIP3    H131925   5.757   2.382   3.672
10656TIP3    H231926   5.675   2.457   3.775
10657TIP3   OH231927   4.450   3.007   2.973
10657TIP3    H131928   4.385   3.001   3.042
10657TIP3    H231929   4.448   3.099   2.946
10658TIP3   OH231930   4.761   6.527   4.332
10658TIP3    H131931   4.782   6.542   4.424
10658TIP3    H231932   4.666   6.536   4.328
10659TIP3   OH231933   1.549   5.515   1.354
10659TIP3    H131934   1.468   5.566   1.358
10659TIP3    H231935   1.617   5.580   1.335
10660TIP3   OH231936   4.510   4.675   2.593
10660TIP3    H131937   4.505   4.604   2.657
10660TIP3    H231938   4.437   4.658   2.533
10661TIP3   OH231939   0.930   2.797   4.281
10661TIP3    H131940   0.911   2.820   4.190
10661TIP3    H231941   0.972   2.875   4.317
10662TIP3   OH231942   3.990   7.327   2.591
10662TIP3    H131943   3.948   7.241   2.586
10662TIP3    H231944   3.932   7.380   2.645
10663TIP3   OH231945   5.544   2.548   6.569
10663TIP3    H131946   5.487   2.624   6.572
10663TIP3    H231947   5.484   2.473   6.577
10664TIP3   OH231948   3.543   0.998   4.534
10664TIP3    H131949   3.524   1.028   4.623
10664TIP3    H231950   3.588   1.072   4.493
10665TIP3   OH231951   4.694   2.354   6.117
10665TIP3    H131952   4.638   2.321   6.187
10665TIP3    H231953   4.660   2.314   6.037
10666TIP3   OH231954   6.611   3.220   1.259
10666TIP3    H131955   6.575   3.283   1.197
10666TIP3    H231956   6.646   3.274   1.330
10667TIP3   OH231957   5.257   4.039   2.100
10667TIP3    H131958   5.284   3.951   2.076
10667TIP3    H231959   5.174   4.052   2.053
10668TIP3   OH231960   2.873   2.395   2.219
10668TIP3    H131961   2.807   2.345   2.267
10668TIP3    H231962   2.915   2.450   2.285
10669TIP3   OH231963   5.855   3.225   3.292
10669TIP3    H131964   5.873   3.225   3.198
10669TIP3    H231965   5.770   3.267   3.300
10670TIP3   OH231966   2.013   6.103   4.850
10670TIP3    H131967   2.055   6.137   4.771
10670TIP3    H231968   2.085   6.074   4.905
10671TIP3   OH231969   6.803   0.232   6.431
10671TIP3    H131970   6.898   0.236   6.433
10671TIP3    H231971   6.780   0.235   6.338
10672TIP3   OH231972   5.677   4.048   2.011
10672TIP3    H131973   5.597   4.075   2.057
10672TIP3    H231974   5.650   3.975   1.956
10673TIP3   OH231975   5.049   7.600   6.776
10673TIP3    H131976   4.974   7.556   6.814
10673TIP3    H231977   5.031   7.602   6.682
10674TIP3   OH231978   2.271   0.790   1.610
10674TIP3    H131979   2.309   0.826   1.529
10674TIP3    H231980   2.347   0.779   1.668
10675TIP3   OH231981   2.596   3.814   6.632
10675TIP3    H131982   2.533   3.745   6.610
10675TIP3    H231983   2.634   3.786   6.715
10676TIP3   OH231984   2.409   2.889   0.673
10676TIP3    H131985   2.339   2.824   0.684
10676TIP3    H231986   2.398   2.949   0.746
10677TIP3   OH231987   6.855   6.682   3.043
10677TIP3    H131988   6.949   6.682   3.026
10677TIP3    H231989   6.818   6.626   2.974
10678TIP3   OH231990   7.000   1.802   6.716
10678TIP3    H131991   6.947   1.761   6.648
10678TIP3    H231992   7.052   1.867   6.670
10679TIP3   OH231993   2.132   2.971   6.425
10679TIP3    H131994   2.129   2.941   6.516
10679TIP3    H231995   2.181   3.053   6.429
10680TIP3   OH231996   6.768   2.797   5.729
10680TIP3    H131997   6.767   2.787   5.634
10680TIP3    H231998   6.853   2.762   5.756
10681TIP3   OH231999   4.570   7.657   1.396
10681TIP3    H132000   4.590   7.589   1.460
10681TIP3    H232001   4.545   7.609   1.317
10682TIP3   OH232002   0.936   2.537   1.477
10682TIP3    H132003   0.880   2.592   1.533
10682TIP3    H232004   1.007   2.595   1.451
10683TIP3   OH232005   7.742   0.993   2.803
10683TIP3    H132006   7.675   0.925   2.790
10683TIP3    H232007   7.714   1.065   2.747
10684TIP3   OH232008   1.303   1.710   0.372
10684TIP3    H132009   1.249   1.788   0.362
10684TIP3    H232010   1.285   1.657   0.294
10685TIP3   OH232011   1.749   7.744   5.902
10685TIP3    H132012   1.777   7.655   5.878
10685TIP3    H232013   1.721   7.737   5.993
10686TIP3   OH232014   1.185   0.631   3.599
10686TIP3    H132015   1.109   0.602   3.650
10686TIP3    H232016   1.147   0.677   3.524
10687TIP3   OH232017   1.016   1.647   4.890
10687TIP3    H132018   0.974   1.564   4.915
10687TIP3    H232019   0.949   1.695   4.844
10688TIP3   OH232020   4.010   6.264   1.561
10688TIP3    H132021   4.000   6.358   1.551
10688TIP3    H232022   4.081   6.254   1.625
10689TIP3   OH232023   3.458   6.767   4.466
10689TIP3    H132024   3.486   6.744   4.554
10689TIP3    H232025   3.492   6.696   4.411
10690TIP3   OH232026   7.125   3.033   6.267
10690TIP3    H132027   7.033   3.011   6.282
10690TIP3    H232028   7.131   3.125   6.292
10691TIP3   OH232029   5.268   6.280   5.839
10691TIP3    H132030   5.324   6.269   5.762
10691TIP3    H232031   5.200   6.341   5.810
10692TIP3   OH232032   0.234   7.129   6.779
10692TIP3    H132033   0.329   7.135   6.776
10692TIP3    H232034   0.214   7.100   6.868
10693TIP3   OH232035   7.843   2.026   3.091
10693TIP3    H132036   7.845   2.075   3.009
10693TIP3    H232037   7.935   2.007   3.110
10694TIP3   OH232038   4.385   0.490   4.628
10694TIP3    H132039   4.385   0.466   4.535
10694TIP3    H232040   4.421   0.579   4.630
10695TIP3   OH232041   4.668   7.224   5.149
10695TIP3    H132042   4.681   7.310   5.108
10695TIP3    H232043   4.667   7.163   5.075
10696TIP3   OH232044   0.841   6.877   4.960
10696TIP3    H132045   0.857   6.783   4.964
10696TIP3    H232046   0.788   6.889   4.881
10697TIP3   OH232047   5.517   6.592   6.201
10697TIP3    H132048   5.600   6.619   6.239
10697TIP3    H232049   5.532   6.595   6.106
10698TIP3   OH232050   1.645   4.551   6.533
10698TIP3    H132051   1.633   4.574   6.440
10698TIP3    H232052   1.627   4.457   6.536
10699TIP3   OH232053   6.480   3.309   5.343
10699TIP3    H132054   6.476   3.248   5.269
10699TIP3    H232055   6.439   3.261   5.415
10700TIP3   OH232056   5.120   0.984   5.921
10700TIP3    H132057   5.061   0.972   5.847
10700TIP3    H232058   5.075   0.943   5.995
10701TIP3   OH232059   4.146   5.424   3.930
10701TIP3    H132060   4.127   5.341   3.975
10701TIP3    H232061   4.241   5.435   3.940
10702TIP3   OH232062   3.114   6.244   1.529
10702TIP3    H132063   3.099   6.315   1.467
10702TIP3    H232064   3.045   6.255   1.595
10703TIP3   OH232065   4.985   0.281   2.838
10703TIP3    H132066   5.059   0.299   2.896
10703TIP3    H232067   5.024   0.269   2.752
10704TIP3   OH232068   2.605   1.467   2.047
10704TIP3    H132069   2.615   1.443   2.139
10704TIP3    H232070   2.541   1.539   2.048
10705TIP3   OH232071   7.204   1.698   1.701
10705TIP3    H132072   7.198   1.793   1.687
10705TIP3    H232073   7.204   1.661   1.613
10706TIP3   OH232074   5.972   6.003   6.113
10706TIP3    H132075   5.999   6.044   6.195
10706TIP3    H232076   5.903   6.060   6.079
10707TIP3   OH232077   3.092   6.971   0.199
10707TIP3    H132078   3.047   7.018   0.129
10707TIP3    H232079   3.154   6.913   0.153
10708TIP3   OH232080   5.544   4.078   2.673
10708TIP3    H132081   5.561   4.110   2.762
10708TIP3    H232082   5.520   3.986   2.684
10709TIP3   OH232083   1.128   0.631   6.704
10709TIP3    H132084   1.178   0.687   6.643
10709TIP3    H232085   1.038   0.662   6.697
10710TIP3   OH232086   1.610   6.584   3.851
10710TIP3    H132087   1.547   6.548   3.914
10710TIP3    H232088   1.562   6.585   3.768
10711TIP3   OH232089   4.160   3.412   4.200
10711TIP3    H132090   4.086   3.470   4.185
10711TIP3    H232091   4.236   3.461   4.169
10712TIP3   OH232092   6.150   0.324   0.769
10712TIP3    H132093   6.216   0.290   0.829
10712TIP3    H232094   6.174   0.287   0.684
10713TIP3   OH232095   7.399   2.395   4.726
10713TIP3    H132096   7.484   2.362   4.697
10713TIP3    H232097   7.419   2.439   4.809
10714TIP3   OH232098   1.792   7.594   5.087
10714TIP3    H132099   1.708   7.596   5.040
10714TIP3    H232100   1.852   7.550   5.026
10715TIP3   OH232101   7.397   3.357   5.606
10715TIP3    H132102   7.480   3.373   5.650
10715TIP3    H232103   7.339   3.322   5.674
10716TIP3   OH232104   8.203   2.600   6.193
10716TIP3    H132105   8.141   2.592   6.266
10716TIP3    H232106   8.243   2.514   6.186
10717TIP3   OH232107   4.924   2.557   5.290
10717TIP3    H132108   4.951   2.585   5.203
10717TIP3    H232109   5.004   2.563   5.343
10718TIP3   OH232110   7.726   6.603   3.715
10718TIP3    H132111   7.657   6.647   3.765
10718TIP3    H232112   7.806   6.648   3.739
10719TIP3   OH232113   1.466   4.508   3.495
10719TIP3    H132114   1.417   4.425   3.492
10719TIP3    H232115   1.415   4.568   3.441
10720TIP3   OH232116   7.661   5.038   1.966
10720TIP3    H132117   7.725   5.085   2.019
10720TIP3    H232118   7.577   5.052   2.011
10721TIP3   OH232119   5.328   3.956   6.422
10721TIP3    H132120   5.244   3.993   6.396
10721TIP3    H232121   5.393   4.022   6.395
10722TIP3   OH232122   7.910   1.606   0.667
10722TIP3    H132123   7.885   1.537   0.607
10722TIP3    H232124   7.865   1.684   0.635
10723TIP3   OH232125   2.498   2.381   3.489
10723TIP3    H132126   2.463   2.309   3.438
10723TIP3    H232127   2.561   2.424   3.431
10724TIP3   OH232128   2.229   0.630   6.501
10724TIP3    H132129   2.308   0.617   6.448
10724TIP3    H232130   2.191   0.711   6.466
10725TIP3   OH232131   5.844   1.195   4.949
10725TIP3    H132132   5.900   1.259   4.904
10725TIP3    H232133   5.781   1.168   4.883
10726TIP3   OH232134   7.341   3.368   6.211
10726TIP3    H132135   7.254   3.363   6.170
10726TIP3    H232136   7.323   3.389   6.302
10727TIP3   OH232137   3.325   3.170   5.606
10727TIP3    H132138   3.361   3.112   5.539
10727TIP3    H232139   3.264   3.115   5.655
10728TIP3   OH232140   1.781   0.285   6.489
10728TIP3    H132141   1.734   0.294   6.572
10728TIP3    H232142   1.734   0.217   6.442
10729TIP3   OH232143   1.087   2.480   2.498
10729TIP3    H132144   1.026   2.553   2.488
10729TIP3    H232145   1.033   2.402   2.483
10730TIP3   OH232146   0.934   1.044   1.103
10730TIP3    H132147   0.912   1.056   1.011
10730TIP3    H232148   0.860   1.083   1.150
10731TIP3   OH232149   6.294   3.970   5.039
10731TIP3    H132150   6.302   3.881   5.073
10731TIP3    H232151   6.373   4.014   5.071
10732TIP3   OH232152   0.704   1.221   3.719
10732TIP3    H132153   0.723   1.214   3.813
10732TIP3    H232154   0.694   1.315   3.704
10733TIP3   OH232155   0.350   7.648   2.648
10733TIP3    H132156   0.432   7.628   2.694
10733TIP3    H232157   0.374   7.648   2.555
10734TIP3   OH232158   4.995   1.612   2.004
10734TIP3    H132159   5.051   1.535   2.020
10734TIP3    H232160   5.053   1.687   2.017
10735TIP3   OH232161   4.126   7.822   4.612
10735TIP3    H132162   4.191   7.757   4.584
10735TIP3    H232163   4.174   7.881   4.670
10736TIP3   OH232164   4.940   1.010   3.815
10736TIP3    H132165   4.991   0.945   3.864
10736TIP3    H232166   4.852   0.971   3.809
10737TIP3   OH232167   4.617   6.234   5.059
10737TIP3    H132168   4.539   6.249   5.006
10737TIP3    H232169   4.673   6.310   5.043
10738TIP3   OH232170   5.129   2.100   1.873
10738TIP3    H132171   5.091   2.042   1.807
10738TIP3    H232172   5.108   2.188   1.844
10739TIP3   OH232173   3.929   6.905   1.374
10739TIP3    H132174   3.931   7.000   1.382
10739TIP3    H232175   3.883   6.875   1.453
10740TIP3   OH232176   5.528   6.470   4.963
10740TIP3    H132177   5.496   6.560   4.970
10740TIP3    H232178   5.484   6.435   4.885
10741TIP3   OH232179   0.731   7.655   3.333
10741TIP3    H132180   0.728   7.666   3.428
10741TIP3    H232181   0.774   7.734   3.301
10742TIP3   OH232182   5.018   7.357   6.286
10742TIP3    H132183   5.037   7.380   6.195
10742TIP3    H232184   4.968   7.432   6.320
10743TIP3   OH232185   3.827   7.214   5.638
10743TIP3    H132186   3.881   7.279   5.591
10743TIP3    H232187   3.759   7.266   5.680
10744TIP3   OH232188   0.085   1.286   6.030
10744TIP3    H132189   0.093   1.192   6.020
10744TIP3    H232190   0.046   1.316   5.948
10745TIP3   OH232191   0.423   3.704   4.746
10745TIP3    H132192   0.340   3.725   4.790
10745TIP3    H232193   0.463   3.789   4.730
10746TIP3   OH232194   0.543   0.931   5.828
10746TIP3    H132195   0.489   0.979   5.765
10746TIP3    H232196   0.536   0.981   5.909
10747TIP3   OH232197   0.237   4.166   3.112
10747TIP3    H132198   0.141   4.163   3.117
10747TIP3    H232199   0.256   4.224   3.038
10748TIP3   OH232200   5.375   1.349   0.796
10748TIP3    H132201   5.374   1.288   0.869
10748TIP3    H232202   5.464   1.343   0.760
10749TIP3   OH232203   5.822   3.680   2.899
10749TIP3    H132204   5.767   3.663   2.823
10749TIP3    H232205   5.891   3.614   2.895
10750TIP3   OH232206   2.564   3.001   4.422
10750TIP3    H132207   2.656   3.028   4.424
10750TIP3    H232208   2.520   3.065   4.477
10751TIP3   OH232209   1.721   5.397   3.701
10751TIP3    H132210   1.731   5.308   3.735
10751TIP3    H232211   1.664   5.440   3.764
10752TIP3   OH232212   3.483   6.670   0.401
10752TIP3    H132213   3.534   6.722   0.338
10752TIP3    H232214   3.533   6.673   0.482
10753TIP3   OH232215   0.071   7.593   1.044
10753TIP3    H132216   0.083   7.534   0.970
10753TIP3    H232217   0.149   7.580   1.098
10754TIP3   OH232218   2.316   3.181   3.020
10754TIP3    H132219   2.376   3.223   2.959
10754TIP3    H232220   2.292   3.099   2.977
10755TIP3   OH232221   3.969   5.030   6.632
10755TIP3    H132222   4.013   5.087   6.569
10755TIP3    H232223   3.939   4.956   6.580
10756TIP3   OH232224   7.281   2.504   6.173
10756TIP3    H132225   7.355   2.562   6.157
10756TIP3    H232226   7.210   2.540   6.118
10757TIP3   OH232227   3.135   0.910   2.430
10757TIP3    H132228   3.109   0.820   2.412
10757TIP3    H232229   3.094   0.932   2.514
10758TIP3   OH232230   3.229   1.126   5.127
10758TIP3    H132231   3.222   1.041   5.082
10758TIP3    H232232   3.190   1.112   5.212
10759TIP3   OH232233   8.057   4.828   5.236
10759TIP3    H132234   7.999   4.853   5.308
10759TIP3    H232235   8.132   4.886   5.245
10760TIP3   OH232236   5.344   1.558   3.154
10760TIP3    H132237   5.274   1.564   3.219
10760TIP3    H232238   5.351   1.647   3.119
10761TIP3   OH232239   2.109   2.321   0.624
10761TIP3    H132240   2.173   2.285   0.563
10761TIP3    H232241   2.153   2.323   0.709
10762TIP3   OH232242   2.992   6.183   4.321
10762TIP3    H132243   2.930   6.256   4.319
10762TIP3    H232244   2.950   6.118   4.378
10763TIP3   OH232245   3.773   0.741   1.520
10763TIP3    H132246   3.866   0.723   1.538
10763TIP3    H232247   3.773   0.828   1.479
10764TIP3   OH232248   2.827   7.204   4.732
10764TIP3    H132249   2.732   7.213   4.735
10764TIP3    H232250   2.860   7.286   4.767
10765TIP3   OH232251   3.154   1.950   4.069
10765TIP3    H132252   3.115   1.890   4.133
10765TIP3    H232253   3.247   1.949   4.090
10766TIP3   OH232254   4.331   6.857   5.852
10766TIP3    H132255   4.279   6.879   5.775
10766TIP3    H232256   4.268   6.833   5.919
10767TIP3   OH232257   7.632   1.197   2.654
10767TIP3    H132258   7.549   1.211   2.700
10767TIP3    H232259   7.678   1.281   2.660
10768TIP3   OH232260   2.010   0.633   5.892
10768TIP3    H132261   1.917   0.607   5.889
10768TIP3    H232262   2.012   0.718   5.847
10769TIP3   OH232263   3.242   2.305   0.941
10769TIP3    H132264   3.261   2.256   0.861
10769TIP3    H232265   3.165   2.358   0.919
10770TIP3   OH232266   7.605   6.531   6.318
10770TIP3    H132267   7.601   6.528   6.222
10770TIP3    H232268   7.533   6.475   6.346
10771TIP3   OH232269   0.796   5.556   6.462
10771TIP3    H132270   0.799   5.497   6.387
10771TIP3    H232271   0.776   5.500   6.536
10772TIP3   OH232272   2.833   1.461   0.294
10772TIP3    H132273   2.792   1.437   0.211
10772TIP3    H232274   2.760   1.476   0.353
10773TIP3   OH232275   3.263   2.615   0.317
10773TIP3    H132276   3.347   2.628   0.274
10773TIP3    H232277   3.285   2.577   0.402
10774TIP3   OH232278   5.613   4.404   1.407
10774TIP3    H132279   5.674   4.425   1.477
10774TIP3    H232280   5.579   4.488   1.378
10775TIP3   OH232281   2.023   1.513   5.947
10775TIP3    H132282   1.938   1.559   5.949
10775TIP3    H232283   2.064   1.543   5.866
10776TIP3   OH232284   4.756   0.303   2.521
10776TIP3    H132285   4.837   0.255   2.505
10776TIP3    H232286   4.757   0.374   2.457
10777TIP3   OH232287   8.043   3.633   1.263
10777TIP3    H132288   7.990   3.681   1.199
10777TIP3    H232289   8.125   3.682   1.268
10778TIP3   OH232290   7.414   0.771   1.262
10778TIP3    H132291   7.367   0.751   1.182
10778TIP3    H232292   7.491   0.714   1.260
10779TIP3   OH232293   3.309   4.634   6.318
10779TIP3    H132294   3.365   4.557   6.328
10779TIP3    H232295   3.366   4.702   6.283
10780TIP3   OH232296   2.805   5.840   6.485
10780TIP3    H132297   2.831   5.918   6.435
10780TIP3    H232298   2.848   5.767   6.439
10781TIP3   OH232299   4.425  -0.004   2.902
10781TIP3    H132300   4.430   0.068   2.839
10781TIP3    H232301   4.333  -0.009   2.926
10782TIP3   OH232302   6.135   7.588   5.369
10782TIP3    H132303   6.185   7.635   5.436
10782TIP3    H232304   6.176   7.615   5.286
10783TIP3   OH232305   6.689   0.330   3.071
10783TIP3    H132306   6.713   0.239   3.087
10783TIP3    H232307   6.717   0.377   3.149
10784TIP3   OH232308   3.769   0.692   0.353
10784TIP3    H132309   3.775   0.663   0.444
10784TIP3    H232310   3.859   0.711   0.328
10785TIP3   OH232311   0.113   1.684   4.347
10785TIP3    H132312   0.115   1.619   4.277
10785TIP3    H232313   0.129   1.767   4.303
10786TIP3   OH232314   7.021   7.013   1.397
10786TIP3    H132315   7.043   7.104   1.378
10786TIP3    H232316   6.926   7.009   1.395
10787TIP3   OH232317   7.619   6.991   4.449
10787TIP3    H132318   7.594   7.057   4.384
10787TIP3    H232319   7.715   6.989   4.445
10788TIP3   OH232320   4.901   6.132   4.906
10788TIP3    H132321   4.931   6.065   4.968
10788TIP3    H232322   4.918   6.215   4.950
10789TIP3   OH232323   3.168   1.775   6.428
10789TIP3    H132324   3.168   1.868   6.405
10789TIP3    H232325   3.222   1.769   6.506
10790TIP3   OH232326   3.875   2.730   2.865
10790TIP3    H132327   3.816   2.673   2.915
10790TIP3    H232328   3.854   2.712   2.773
10791TIP3   OH232329   0.618   2.163   2.118
10791TIP3    H132330   0.582   2.220   2.186
10791TIP3    H232331   0.697   2.207   2.089
10792TIP3   OH232332   0.453   4.236   6.066
10792TIP3    H132333   0.521   4.300   6.088
10792TIP3    H232334   0.460   4.225   5.971
10793TIP3   OH232335   2.479   1.845   4.223
10793TIP3    H132336   2.496   1.753   4.205
10793TIP3    H232337   2.439   1.879   4.142
10794TIP3   OH232338   7.063   0.921   1.933
10794TIP3    H132339   6.989   0.925   1.994
10794TIP3    H232340   7.138   0.900   1.989
10795TIP3   OH232341   7.700   2.819   6.441
10795TIP3    H132342   7.665   2.752   6.382
10795TIP3    H232343   7.737   2.770   6.514
10796TIP3   OH232344   0.126   5.127   5.818
10796TIP3    H132345   0.086   5.085   5.743
10796TIP3    H232346   0.174   5.202   5.782
10797TIP3   OH232347   1.343   6.623   2.555
10797TIP3    H132348   1.255   6.600   2.527
10797TIP3    H232349   1.338   6.627   2.651
10798TIP3   OH232350   5.939   2.192   1.035
10798TIP3    H132351   5.887   2.138   0.976
10798TIP3    H232352   5.881   2.210   1.109
10799TIP3   OH232353   4.087   2.612   4.636
10799TIP3    H132354   4.161   2.608   4.576
10799TIP3    H232355   4.088   2.702   4.669
10800TIP3   OH232356   4.998   4.959   5.943
10800TIP3    H132357   4.957   5.033   5.898
10800TIP3    H232358   5.013   4.895   5.873
10801TIP3   OH232359   5.508   0.637   3.894
10801TIP3    H132360   5.575   0.704   3.906
10801TIP3    H232361   5.492   0.635   3.800
10802TIP3   OH232362   1.749   0.046   5.580
10802TIP3    H132363   1.680   0.097   5.536
10802TIP3    H232364   1.801   0.111   5.627
10803TIP3   OH232365   2.775   2.182   3.026
10803TIP3    H132366   2.734   2.099   3.002
10803TIP3    H232367   2.734   2.247   2.969
10804TIP3   OH232368   3.073   3.238   4.377
10804TIP3    H132369   3.148   3.254   4.433
10804TIP3    H232370   3.092   3.287   4.297
10805TIP3   OH232371   3.412   2.086   3.676
10805TIP3    H132372   3.317   2.087   3.681
10805TIP3    H232373   3.437   2.000   3.710
10806TIP3   OH232374   1.171   0.545   1.714
10806TIP3    H132375   1.105   0.498   1.764
10806TIP3    H232376   1.202   0.481   1.650
10807TIP3   OH232377   1.251   6.667   0.293
10807TIP3    H132378   1.205   6.608   0.353
10807TIP3    H232379   1.305   6.610   0.239
10808TIP3   OH232380   4.775   4.656   6.009
10808TIP3    H132381   4.789   4.651   5.915
10808TIP3    H232382   4.698   4.602   6.025
10809TIP3   OH232383   1.254   3.757   5.488
10809TIP3    H132384   1.271   3.766   5.394
10809TIP3    H232385   1.313   3.687   5.515
10810TIP3   OH232386   7.196   5.514   1.564
10810TIP3    H132387   7.123   5.452   1.555
10810TIP3    H232388   7.171   5.570   1.638
10811TIP3   OH232389   4.475   0.218   5.523
10811TIP3    H132390   4.476   0.142   5.581
10811TIP3    H232391   4.532   0.282   5.567
10812TIP3   OH232392   4.465   0.067   1.090
10812TIP3    H132393   4.521  -0.006   1.114
10812TIP3    H232394   4.421   0.038   1.010
10813TIP3   OH232395   2.182   2.617   0.471
10813TIP3    H132396   2.197   2.707   0.444
10813TIP3    H232397   2.202   2.616   0.564
10814TIP3   OH232398   0.490   3.453   1.756
10814TIP3    H132399   0.463   3.544   1.766
10814TIP3    H232400   0.419   3.402   1.794
10815TIP3   OH232401   7.127   1.377   3.966
10815TIP3    H132402   7.171   1.457   3.995
10815TIP3    H232403   7.039   1.382   4.005
10816TIP3   OH232404   0.005   6.789   6.393
10816TIP3    H132405   0.089   6.760   6.357
10816TIP3    H232406   0.028   6.828   6.478
10817TIP3   OH232407   1.388   2.361   1.871
10817TIP3    H132408   1.382   2.359   1.966
10817TIP3    H232409   1.452   2.431   1.853
10818TIP3   OH232410   5.779   7.269   1.100
10818TIP3    H132411   5.795   7.291   1.191
10818TIP3    H232412   5.742   7.348   1.062
10819TIP3   OH232413   4.610   0.883   5.082
10819TIP3    H132414   4.582   0.819   5.016
10819TIP3    H232415   4.680   0.932   5.040
10820TIP3   OH232416   1.319   3.909   5.899
10820TIP3    H132417   1.250   3.961   5.860
10820TIP3    H232418   1.365   3.870   5.825
10821TIP3   OH232419   7.355   6.798   0.893
10821TIP3    H132420   7.376   6.851   0.816
10821TIP3    H232421   7.405   6.718   0.882
10822TIP3   OH232422   7.735   7.246   6.264
10822TIP3    H132423   7.733   7.305   6.340
10822TIP3    H232424   7.682   7.290   6.198
10823TIP3   OH232425   2.996   0.305   0.485
10823TIP3    H132426   3.068   0.244   0.500
10823TIP3    H232427   3.037   0.381   0.444
10824TIP3   OH232428   4.962   7.641   4.111
10824TIP3    H132429   5.013   7.691   4.176
10824TIP3    H232430   4.971   7.691   4.030
10825TIP3   OH232431   0.792   6.088   5.010
10825TIP3    H132432   0.820   6.055   5.096
10825TIP3    H232433   0.830   6.175   5.004
10826TIP3   OH232434   0.395   7.294   1.458
10826TIP3    H132435   0.490   7.281   1.464
10826TIP3    H232436   0.385   7.383   1.425
10827TIP3   OH232437   6.082   4.753   5.454
10827TIP3    H132438   6.038   4.698   5.389
10827TIP3    H232439   6.175   4.732   5.445
10828TIP3   OH232440   7.565   5.316   1.053
10828TIP3    H132441   7.614   5.395   1.076
10828TIP3    H232442   7.550   5.272   1.137
10829TIP3   OH232443   1.574   1.063   1.097
10829TIP3    H132444   1.558   0.969   1.091
10829TIP3    H232445   1.589   1.090   1.007
10830TIP3   OH232446   1.575   2.460   5.686
10830TIP3    H132447   1.531   2.381   5.655
10830TIP3    H232448   1.667   2.448   5.660
10831TIP3   OH232449   3.524   6.042   2.064
10831TIP3    H132450   3.619   6.051   2.071
10831TIP3    H232451   3.489   6.092   2.138
10832TIP3   OH232452   3.921   7.639   2.220
10832TIP3    H132453   3.967   7.557   2.202
10832TIP3    H232454   3.983   7.691   2.270
10833TIP3   OH232455   3.165   1.010   4.713
10833TIP3    H132456   3.171   1.101   4.743
10833TIP3    H232457   3.076   0.983   4.735
10834TIP3   OH232458   5.746   7.326   2.301
10834TIP3    H132459   5.652   7.334   2.283
10834TIP3    H232460   5.757   7.366   2.387
10835TIP3   OH232461   6.384   5.219   6.318
10835TIP3    H132462   6.406   5.293   6.261
10835TIP3    H232463   6.393   5.142   6.262
10836TIP3   OH232464   3.557   4.698   2.290
10836TIP3    H132465   3.634   4.641   2.282
10836TIP3    H232466   3.575   4.752   2.367
10837TIP3   OH232467   3.388   2.959   6.575
10837TIP3    H132468   3.325   2.913   6.631
10837TIP3    H232469   3.340   2.978   6.495
10838TIP3   OH232470   0.438   1.782   2.418
10838TIP3    H132471   0.356   1.736   2.402
10838TIP3    H232472   0.493   1.719   2.464
10839TIP3   OH232473   6.111   6.445   4.707
10839TIP3    H132474   6.198   6.406   4.700
10839TIP3    H232475   6.114   6.495   4.789
10840TIP3   OH232476   7.441   5.062   0.932
10840TIP3    H132477   7.519   5.012   0.955
10840TIP3    H232478   7.460   5.151   0.964
10841TIP3   OH232479   4.886   2.953   6.612
10841TIP3    H132480   4.841   2.887   6.665
10841TIP3    H232481   4.891   2.915   6.525
10842TIP3   OH232482   5.690   2.352   4.182
10842TIP3    H132483   5.738   2.322   4.259
10842TIP3    H232484   5.733   2.309   4.108
10843TIP3   OH232485   6.541   3.358   0.772
10843TIP3    H132486   6.582   3.363   0.685
10843TIP3    H232487   6.517   3.449   0.792
10844TIP3   OH232488   3.103   4.459   5.149
10844TIP3    H132489   3.092   4.553   5.164
10844TIP3    H232490   3.014   4.426   5.133
10845TIP3   OH232491   4.554   2.688   6.504
10845TIP3    H132492   4.560   2.778   6.474
10845TIP3    H232493   4.496   2.693   6.580
10846TIP3   OH232494   0.139   2.342   2.654
10846TIP3    H132495   0.214   2.313   2.707
10846TIP3    H232496   0.177   2.402   2.590
10847TIP3   OH232497   6.496   5.051   1.164
10847TIP3    H132498   6.574   5.056   1.108
10847TIP3    H232499   6.440   4.987   1.122
10848TIP3   OH232500   7.944   5.874   0.716
10848TIP3    H132501   8.031   5.844   0.689
10848TIP3    H232502   7.903   5.796   0.753
10849TIP3   OH232503   6.991   6.771   4.120
10849TIP3    H132504   6.906   6.727   4.123
10849TIP3    H232505   6.994   6.822   4.201
10850TIP3   OH232506   2.955   7.706   3.650
10850TIP3    H132507   2.921   7.794   3.665
10850TIP3    H232508   3.045   7.720   3.620
10851TIP3   OH232509   6.298   5.460   3.025
10851TIP3    H132510   6.361   5.511   3.077
10851TIP3    H232511   6.252   5.526   2.973
10852TIP3   OH232512   1.803   7.123   2.479
10852TIP3    H132513   1.782   7.110   2.571
10852TIP3    H232514   1.882   7.177   2.479
10853TIP3   OH232515   8.152   7.445   6.730
10853TIP3    H132516   8.173   7.352   6.719
10853TIP3    H232517   8.146   7.479   6.641
10854TIP3   OH232518   0.342   0.606   3.377
10854TIP3    H132519   0.363   0.593   3.284
10854TIP3    H232520   0.311   0.696   3.382
10855TIP3   OH232521   3.058   2.061   6.742
10855TIP3    H132522   2.999   2.033   6.812
10855TIP3    H232523   3.136   2.094   6.787
10856TIP3   OH232524   7.429   4.250   4.115
10856TIP3    H132525   7.490   4.188   4.156
10856TIP3    H232526   7.474   4.334   4.118
10857TIP3   OH232527   1.269   1.359   3.834
10857TIP3    H132528   1.219   1.432   3.869
10857TIP3    H232529   1.302   1.391   3.750
10858TIP3   OH232530   1.927   0.374   1.536
10858TIP3    H132531   1.898   0.359   1.446
10858TIP3    H232532   2.017   0.342   1.538
10859TIP3   OH232533   3.849   5.596   3.011
10859TIP3    H132534   3.932   5.632   2.980
10859TIP3    H232535   3.867   5.572   3.102
10860TIP3   OH232536   4.701   7.454   0.864
10860TIP3    H132537   4.658   7.427   0.783
10860TIP3    H232538   4.768   7.516   0.836
10861TIP3   OH232539   6.561   0.313   6.518
10861TIP3    H132540   6.647   0.300   6.478
10861TIP3    H232541   6.562   0.256   6.595
10862TIP3   OH232542   0.231   0.958   0.485
10862TIP3    H132543   0.282   1.011   0.425
10862TIP3    H232544   0.257   0.868   0.466
10863TIP3   OH232545   4.388   3.010   6.022
10863TIP3    H132546   4.468   2.957   6.018
10863TIP3    H232547   4.333   2.966   6.086
10864TIP3   OH232548   6.282   1.185   5.243
10864TIP3    H132549   6.308   1.262   5.294
10864TIP3    H232550   6.196   1.209   5.207
10865TIP3   OH232551   1.609   6.062   3.569
10865TIP3    H132552   1.651   5.993   3.518
10865TIP3    H232553   1.516   6.054   3.548
10866TIP3   OH232554   5.510   7.745   6.331
10866TIP3    H132555   5.534   7.821   6.279
10866TIP3    H232556   5.589   7.690   6.331
10867TIP3   OH232557   8.022   5.509   2.697
10867TIP3    H132558   8.087   5.574   2.725
10867TIP3    H232559   7.949   5.561   2.663
10868TIP3   OH232560   5.364   3.297   0.713
10868TIP3    H132561   5.364   3.262   0.802
10868TIP3    H232562   5.278   3.272   0.678
10869TIP3   OH232563   1.134   1.601   3.831
10869TIP3    H132564   1.042   1.595   3.858
10869TIP3    H232565   1.130   1.634   3.741
10870TIP3   OH232566   0.563   1.589   2.576
10870TIP3    H132567   0.510   1.535   2.516
10870TIP3    H232568   0.512   1.591   2.657
10871TIP3   OH232569   3.011   3.518   5.879
10871TIP3    H132570   3.003   3.429   5.843
10871TIP3    H232571   3.077   3.509   5.948
10872TIP3   OH232572   4.350   5.800   0.576
10872TIP3    H132573   4.434   5.755   0.569
10872TIP3    H232574   4.308   5.761   0.653
10873TIP3   OH232575   4.584   6.530   1.196
10873TIP3    H132576   4.562   6.450   1.245
10873TIP3    H232577   4.500   6.575   1.186
10874TIP3   OH232578   3.272   2.460   3.985
10874TIP3    H132579   3.290   2.374   4.023
10874TIP3    H232580   3.299   2.522   4.053
10875TIP3   OH232581   1.361   2.200   4.581
10875TIP3    H132582   1.354   2.107   4.560
10875TIP3    H232583   1.364   2.244   4.495
10876TIP3   OH232584   4.403   4.422   2.345
10876TIP3    H132585   4.421   4.336   2.383
10876TIP3    H232586   4.489   4.459   2.328
10877TIP3   OH232587   3.258   5.109   3.915
10877TIP3    H132588   3.282   5.167   3.843
10877TIP3    H232589   3.188   5.155   3.961
10878TIP3   OH232590   3.453   5.576   5.357
10878TIP3    H132591   3.391   5.596   5.426
10878TIP3    H232592   3.538   5.602   5.393
10879TIP3   OH232593   5.084   2.793   2.769
10879TIP3    H132594   5.087   2.809   2.864
10879TIP3    H232595   5.151   2.728   2.753
10880TIP3   OH232596   1.749   6.283   2.428
10880TIP3    H132597   1.845   6.279   2.435
10880TIP3    H232598   1.720   6.196   2.455
10881TIP3   OH232599   6.683   4.801   2.230
10881TIP3    H132600   6.710   4.810   2.322
10881TIP3    H232601   6.590   4.777   2.235
10882TIP3   OH232602   0.510   2.620   1.726
10882TIP3    H132603   0.428   2.593   1.685
10882TIP3    H232604   0.545   2.540   1.765
10883TIP3   OH232605   3.513   1.062   3.101
10883TIP3    H132606   3.525   1.023   3.014
10883TIP3    H232607   3.533   1.155   3.088
10884TIP3   OH232608   7.994   2.514   6.781
10884TIP3    H132609   8.080   2.528   6.740
10884TIP3    H232610   7.960   2.435   6.739
10885TIP3   OH232611   1.223   4.533   0.765
10885TIP3    H132612   1.255   4.562   0.679
10885TIP3    H232613   1.128   4.527   0.754
10886TIP3   OH232614   0.360   3.789   5.252
10886TIP3    H132615   0.388   3.801   5.162
10886TIP3    H232616   0.266   3.805   5.250
10887TIP3   OH232617   3.119   5.995   6.532
10887TIP3    H132618   3.038   5.958   6.567
10887TIP3    H232619   3.175   6.008   6.608
10888TIP3   OH232620   8.038   6.455   1.015
10888TIP3    H132621   8.113   6.474   1.071
10888TIP3    H232622   8.007   6.541   0.986
10889TIP3   OH232623   1.150   6.124   5.388
10889TIP3    H132624   1.128   6.069   5.464
10889TIP3    H232625   1.146   6.214   5.421
10890TIP3   OH232626   6.707   0.452   0.415
10890TIP3    H132627   6.720   0.469   0.321
10890TIP3    H232628   6.757   0.520   0.459
10891TIP3   OH232629   2.258   7.351   1.069
10891TIP3    H132630   2.163   7.352   1.083
10891TIP3    H232631   2.295   7.366   1.156
10892TIP3   OH232632   3.106   1.858   3.805
10892TIP3    H132633   3.186   1.807   3.822
10892TIP3    H232634   3.061   1.860   3.890
10893TIP3   OH232635   1.120   0.178   1.619
10893TIP3    H132636   1.125   0.108   1.554
10893TIP3    H232637   1.031   0.173   1.653
10894TIP3   OH232638   6.015   0.470   6.391
10894TIP3    H132639   5.969   0.395   6.353
10894TIP3    H232640   6.066   0.433   6.463
10895TIP3   OH232641   0.567   6.889   6.270
10895TIP3    H132642   0.597   6.811   6.224
10895TIP3    H232643   0.610   6.885   6.355
10896TIP3   OH232644   4.768   4.026   2.535
10896TIP3    H132645   4.850   3.984   2.560
10896TIP3    H232646   4.768   4.023   2.440
10897TIP3   OH232647   4.944   3.310   1.931
10897TIP3    H132648   4.856   3.282   1.908
10897TIP3    H232649   5.001   3.237   1.906
10898TIP3   OH232650   3.869   0.246   6.144
10898TIP3    H132651   3.928   0.261   6.071
10898TIP3    H232652   3.838   0.333   6.168
10899TIP3   OH232653   1.503   2.579   1.739
10899TIP3    H132654   1.444   2.598   1.666
10899TIP3    H232655   1.585   2.554   1.698
10900TIP3   OH232656   4.812   4.352   2.729
10900TIP3    H132657   4.825   4.348   2.634
10900TIP3    H232658   4.848   4.436   2.755
10901TIP3   OH232659   0.481   7.653   3.874
10901TIP3    H132660   0.444   7.644   3.961
10901TIP3    H232661   0.517   7.566   3.853
10902TIP3   OH232662   1.983   6.902   0.376
10902TIP3    H132663   2.034   6.840   0.324
10902TIP3    H232664   1.929   6.847   0.432
10903TIP3   OH232665   1.935   7.682   2.715
10903TIP3    H132666   1.853   7.662   2.670
10903TIP3    H232667   1.928   7.639   2.800
10904TIP3   OH232668   8.012   4.779   4.738
10904TIP3    H132669   8.062   4.829   4.803
10904TIP3    H232670   7.949   4.841   4.702
10905TIP3   OH232671   0.565   1.502   3.849
10905TIP3    H132672   0.586   1.514   3.756
10905TIP3    H232673   0.508   1.576   3.870
10906TIP3   OH232674   4.499   6.947   5.198
10906TIP3    H132675   4.507   7.041   5.212
10906TIP3    H232676   4.448   6.915   5.272
10907TIP3   OH232677   7.079   3.669   4.280
10907TIP3    H132678   7.024   3.593   4.299
10907TIP3    H232679   7.120   3.649   4.196
10908TIP3   OH232680   7.870   6.296   4.276
10908TIP3    H132681   7.958   6.315   4.245
10908TIP3    H232682   7.813   6.345   4.217
10909TIP3   OH232683   7.518   5.973   6.582
10909TIP3    H132684   7.449   5.929   6.531
10909TIP3    H232685   7.488   6.064   6.589
10910TIP3   OH232686   7.797   1.411   0.886
10910TIP3    H132687   7.764   1.465   0.813
10910TIP3    H232688   7.767   1.456   0.965
10911TIP3   OH232689   0.871   7.585   0.250
10911TIP3    H132690   0.785   7.544   0.239
10911TIP3    H232691   0.888   7.627   0.166
10912TIP3   OH232692   6.564   7.319   1.835
10912TIP3    H132693   6.639   7.262   1.851
10912TIP3    H232694   6.507   7.269   1.776
10913TIP3   OH232695   5.646   5.330   6.647
10913TIP3    H132696   5.708   5.261   6.623
10913TIP3    H232697   5.567   5.309   6.597
10914TIP3   OH232698   4.028   7.813   4.129
10914TIP3    H132699   4.110   7.787   4.088
10914TIP3    H232700   4.033   7.776   4.217
10915TIP3   OH232701   2.915   3.191   3.927
10915TIP3    H132702   2.879   3.123   3.984
10915TIP3    H232703   2.992   3.152   3.888
10916TIP3   OH232704   7.828   2.709   1.823
10916TIP3    H132705   7.815   2.727   1.916
10916TIP3    H232706   7.908   2.658   1.819
10917TIP3   OH232707   0.846   6.558   6.526
10917TIP3    H132708   0.819   6.558   6.435
10917TIP3    H232709   0.900   6.637   6.535
10918TIP3   OH232710   7.767   2.350   4.903
10918TIP3    H132711   7.721   2.267   4.893
10918TIP3    H232712   7.808   2.365   4.818
10919TIP3   OH232713   4.024   0.269   4.638
10919TIP3    H132714   3.960   0.341   4.638
10919TIP3    H232715   4.091   0.297   4.576
10920TIP3   OH232716   5.394   6.534   3.329
10920TIP3    H132717   5.336   6.553   3.255
10920TIP3    H232718   5.438   6.617   3.347
10921TIP3   OH232719   2.435   3.836   3.142
10921TIP3    H132720   2.466   3.831   3.052
10921TIP3    H232721   2.370   3.906   3.141
10922TIP3   OH232722   1.798   4.682   2.418
10922TIP3    H132723   1.742   4.623   2.367
10922TIP3    H232724   1.793   4.649   2.507
10923TIP3   OH232725   0.309   5.459   2.091
10923TIP3    H132726   0.399   5.478   2.063
10923TIP3    H232727   0.312   5.368   2.120
10924TIP3   OH232728   1.171   2.817   6.555
10924TIP3    H132729   1.157   2.756   6.483
10924TIP3    H232730   1.265   2.811   6.573
10925TIP3   OH232731   1.320   0.091   3.452
10925TIP3    H132732   1.253   0.029   3.423
10925TIP3    H232733   1.396   0.071   3.397
10926TIP3   OH232734   7.138   5.189   2.436
10926TIP3    H132735   7.185   5.168   2.516
10926TIP3    H232736   7.047   5.164   2.455
10927TIP3   OH232737   5.550   3.710   0.097
10927TIP3    H132738   5.505   3.642   0.047
10927TIP3    H232739   5.557   3.784   0.037
10928TIP3   OH232740   4.379   4.131   0.648
10928TIP3    H132741   4.287   4.156   0.659
10928TIP3    H232742   4.413   4.194   0.585
10929TIP3   OH232743   7.761   0.885   1.586
10929TIP3    H132744   7.709   0.958   1.552
10929TIP3    H232745   7.696   0.827   1.626
10930TIP3   OH232746   1.157   7.220   5.079
10930TIP3    H132747   1.227   7.157   5.099
10930TIP3    H232748   1.149   7.216   4.983
10931TIP3   OH232749   0.650   5.522   4.579
10931TIP3    H132750   0.627   5.436   4.544
10931TIP3    H232751   0.706   5.561   4.512
10932TIP3   OH232752   7.714   0.858   5.287
10932TIP3    H132753   7.756   0.860   5.372
10932TIP3    H232754   7.786   0.853   5.224
10933TIP3   OH232755   3.977   3.431   6.031
10933TIP3    H132756   3.887   3.401   6.042
10933TIP3    H232757   3.989   3.495   6.102
10934TIP3   OH232758   6.026   5.511   3.306
10934TIP3    H132759   5.944   5.536   3.348
10934TIP3    H232760   6.006   5.428   3.262
10935TIP3   OH232761   3.931   2.652   5.188
10935TIP3    H132762   3.840   2.679   5.193
10935TIP3    H232763   3.979   2.719   5.237
10936TIP3   OH232764   1.050   0.401   6.241
10936TIP3    H132765   1.046   0.491   6.276
10936TIP3    H232766   1.135   0.396   6.198
10937TIP3   OH232767   3.048   1.525   3.852
10937TIP3    H132768   3.076   1.433   3.856
10937TIP3    H232769   3.120   1.570   3.807
10938TIP3   OH232770   1.239   1.354   1.776
10938TIP3    H132771   1.298   1.299   1.724
10938TIP3    H232772   1.297   1.394   1.842
10939TIP3   OH232773   6.632   0.418   0.829
10939TIP3    H132774   6.623   0.356   0.756
10939TIP3    H232775   6.558   0.479   0.818
10940TIP3   OH232776   7.351   6.443   2.618
10940TIP3    H132777   7.318   6.404   2.537
10940TIP3    H232778   7.413   6.379   2.652
10941TIP3   OH232779   0.602   5.119   4.303
10941TIP3    H132780   0.645   5.198   4.333
10941TIP3    H232781   0.639   5.102   4.217
10942TIP3   OH232782   6.663   4.515   4.048
10942TIP3    H132783   6.617   4.598   4.060
10942TIP3    H232784   6.745   4.526   4.096
10943TIP3   OH232785   1.143   3.115   1.037
10943TIP3    H132786   1.066   3.172   1.033
10943TIP3    H232787   1.149   3.076   0.950
10944TIP3   OH232788   7.168   3.282   2.751
10944TIP3    H132789   7.223   3.317   2.821
10944TIP3    H232790   7.152   3.191   2.775
10945TIP3   OH232791   3.268   5.357   3.446
10945TIP3    H132792   3.230   5.429   3.397
10945TIP3    H232793   3.263   5.282   3.387
10946TIP3   OH232794   6.559   1.529   1.815
10946TIP3    H132795   6.513   1.446   1.806
10946TIP3    H232796   6.539   1.558   1.904
10947TIP3   OH232797   0.617   6.124   1.892
10947TIP3    H132798   0.661   6.167   1.819
10947TIP3    H232799   0.686   6.072   1.934
10948TIP3   OH232800   6.195   5.453   1.579
10948TIP3    H132801   6.286   5.482   1.592
10948TIP3    H232802   6.180   5.463   1.485
10949TIP3   OH232803   2.817   6.168   2.421
10949TIP3    H132804   2.743   6.114   2.450
10949TIP3    H232805   2.859   6.197   2.502
10950TIP3   OH232806   1.607   4.133   0.104
10950TIP3    H132807   1.544   4.126   0.032
10950TIP3    H232808   1.556   4.168   0.177
10951TIP3   OH232809   4.297   7.265   3.843
10951TIP3    H132810   4.279   7.348   3.800
10951TIP3    H232811   4.221   7.210   3.822
10952TIP3   OH232812   7.229   7.135   2.079
10952TIP3    H132813   7.198   7.050   2.108
10952TIP3    H232814   7.153   7.177   2.038
10953TIP3   OH232815   1.630   1.641   4.469
10953TIP3    H132816   1.667   1.639   4.557
10953TIP3    H232817   1.555   1.582   4.473
10954TIP3   OH232818   6.145   6.418   4.076
10954TIP3    H132819   6.127   6.324   4.084
10954TIP3    H232820   6.143   6.450   4.166
10955TIP3   OH232821   4.943   4.622   2.408
10955TIP3    H132822   4.880   4.669   2.464
10955TIP3    H232823   4.982   4.556   2.466
10956TIP3   OH232824   5.568   7.184   0.658
10956TIP3    H132825   5.652   7.155   0.694
10956TIP3    H232826   5.524   7.227   0.732
10957TIP3   OH232827   3.339   5.997   1.057
10957TIP3    H132828   3.339   5.999   1.153
10957TIP3    H232829   3.312   5.908   1.035
10958TIP3   OH232830   2.073   5.817   0.867
10958TIP3    H132831   2.079   5.902   0.823
10958TIP3    H232832   2.095   5.836   0.958
10959TIP3   OH232833   5.983   2.147   1.825
10959TIP3    H132834   6.061   2.149   1.880
10959TIP3    H232835   5.965   2.238   1.804
10960TIP3   OH232836   0.546   0.524   3.838
10960TIP3    H132837   0.471   0.480   3.799
10960TIP3    H232838   0.532   0.518   3.932
10961TIP3   OH232839   7.819   7.581   4.645
10961TIP3    H132840   7.746   7.586   4.706
10961TIP3    H232841   7.787   7.622   4.565
10962TIP3   OH232842   6.536   5.545   3.234
10962TIP3    H132843   6.562   5.604   3.163
10962TIP3    H232844   6.467   5.593   3.280
10963TIP3   OH232845   0.555   6.494   1.737
10963TIP3    H132846   0.480   6.475   1.680
10963TIP3    H232847   0.577   6.585   1.716
10964TIP3   OH232848   3.184   6.743   5.960
10964TIP3    H132849   3.178   6.775   5.870
10964TIP3    H232850   3.142   6.657   5.957
10965TIP3   OH232851   4.975   7.436   0.156
10965TIP3    H132852   4.961   7.519   0.110
10965TIP3    H232853   5.035   7.459   0.227
10966TIP3   OH232854   7.367   2.898   4.526
10966TIP3    H132855   7.411   2.839   4.587
10966TIP3    H232856   7.298   2.939   4.578
10967TIP3   OH232857   0.206   3.060   1.188
10967TIP3    H132858   0.167   3.103   1.112
10967TIP3    H232859   0.267   2.997   1.151
10968TIP3   OH232860   1.027   4.056   6.635
10968TIP3    H132861   0.976   4.094   6.707
10968TIP3    H232862   0.980   3.977   6.611
10969TIP3   OH232863   0.285   7.375   6.633
10969TIP3    H132864   0.284   7.312   6.704
10969TIP3    H232865   0.373   7.414   6.636
10970TIP3   OH232866   3.172   7.729   1.904
10970TIP3    H132867   3.106   7.765   1.963
10970TIP3    H232868   3.173   7.635   1.923
10971TIP3   OH232869   3.035   4.866   0.170
10971TIP3    H132870   2.998   4.837   0.254
10971TIP3    H232871   3.094   4.938   0.194
10972TIP3   OH232872   5.999   7.711   2.984
10972TIP3    H132873   5.984   7.804   2.968
10972TIP3    H232874   5.994   7.671   2.897
10973TIP3   OH232875   1.352   0.467   5.624
10973TIP3    H132876   1.328   0.382   5.588
10973TIP3    H232877   1.320   0.531   5.560
10974TIP3   OH232878   0.278   2.141   0.344
10974TIP3    H132879   0.200   2.189   0.372
10974TIP3    H232880   0.319   2.113   0.425
10975TIP3   OH232881   4.447   5.436   5.914
10975TIP3    H132882   4.356   5.429   5.888
10975TIP3    H232883   4.475   5.522   5.883
10976TIP3   OH232884   3.498   0.773   1.615
10976TIP3    H132885   3.590   0.746   1.614
10976TIP3    H232886   3.486   0.817   1.531
10977TIP3   OH232887   2.404   3.869   3.767
10977TIP3    H132888   2.408   3.958   3.804
10977TIP3    H232889   2.358   3.880   3.684
10978TIP3   OH232890   4.866   5.231   0.850
10978TIP3    H132891   4.949   5.254   0.891
10978TIP3    H232892   4.830   5.162   0.905
10979TIP3   OH232893   0.158   7.154   1.346
10979TIP3    H132894   0.115   7.230   1.308
10979TIP3    H232895   0.231   7.190   1.396
10980TIP3   OH232896   4.280   2.867   0.958
10980TIP3    H132897   4.221   2.842   0.887
10980TIP3    H232898   4.355   2.906   0.915
10981TIP3   OH232899   3.001   0.063   2.094
10981TIP3    H132900   3.026   0.154   2.112
10981TIP3    H232901   3.081   0.023   2.060
10982TIP3   OH232902   5.599   6.452   1.039
10982TIP3    H132903   5.584   6.375   1.092
10982TIP3    H232904   5.666   6.425   0.975
10983TIP3   OH232905   4.831   1.819   6.301
10983TIP3    H132906   4.783   1.741   6.273
10983TIP3    H232907   4.922   1.800   6.276
10984TIP3   OH232908   2.244   6.941   4.419
10984TIP3    H132909   2.242   6.987   4.335
10984TIP3    H232910   2.162   6.891   4.421
10985TIP3   OH232911   3.423   0.016   0.943
10985TIP3    H132912   3.381  -0.034   1.013
10985TIP3    H232913   3.470   0.085   0.989
10986TIP3   OH232914   3.380   3.340   0.968
10986TIP3    H132915   3.353   3.299   1.050
10986TIP3    H232916   3.349   3.280   0.900
10987TIP3   OH232917   3.975   3.283   0.509
10987TIP3    H132918   3.937   3.294   0.596
10987TIP3    H232919   4.061   3.323   0.514
10988TIP3   OH232920   7.407   3.995   4.667
10988TIP3    H132921   7.381   4.044   4.589
10988TIP3    H232922   7.485   3.946   4.640
10989TIP3   OH232923   3.577   1.773   0.953
10989TIP3    H132924   3.535   1.799   0.872
10989TIP3    H232925   3.507   1.775   1.018
10990TIP3   OH232926   2.607   3.267   0.597
10990TIP3    H132927   2.595   3.352   0.556
10990TIP3    H232928   2.581   3.204   0.530
10991TIP3   OH232929   5.590   4.369   0.355
10991TIP3    H132930   5.650   4.308   0.312
10991TIP3    H232931   5.648   4.431   0.400
10992TIP3   OH232932   3.809  -0.038   2.989
10992TIP3    H132933   3.875  -0.093   3.030
10992TIP3    H232934   3.837  -0.031   2.898
10993TIP3   OH232935   2.094   6.490   1.513
10993TIP3    H132936   2.085   6.572   1.464
10993TIP3    H232937   2.075   6.422   1.449
10994TIP3   OH232938   5.822   3.212   6.582
10994TIP3    H132939   5.837   3.270   6.656
10994TIP3    H232940   5.835   3.124   6.618
10995TIP3   OH232941   7.103   1.241   2.804
10995TIP3    H132942   7.159   1.168   2.831
10995TIP3    H232943   7.083   1.223   2.712
10996TIP3   OH232944   7.508   6.816   2.227
10996TIP3    H132945   7.574   6.842   2.163
10996TIP3    H232946   7.465   6.897   2.252
10997TIP3   OH232947   4.343   3.687   4.759
10997TIP3    H132948   4.276   3.619   4.765
10997TIP3    H232949   4.311   3.758   4.814
10998TIP3   OH232950   4.667   1.296   3.103
10998TIP3    H132951   4.585   1.247   3.098
10998TIP3    H232952   4.703   1.293   3.015
10999TIP3   OH232953   6.103   6.929   5.155
10999TIP3    H132954   6.023   6.964   5.194
10999TIP3    H232955   6.136   7.000   5.100
11000TIP3   OH232956   5.525   0.327   1.965
11000TIP3    H132957   5.448   0.282   2.001
11000TIP3    H232958   5.497   0.357   1.879
11001TIP3   OH232959   2.716   6.172   4.943
11001TIP3    H132960   2.688   6.222   5.020
11001TIP3    H232961   2.662   6.093   4.945
11002TIP3   OH232962   4.930   6.715   0.824
11002TIP3    H132963   4.927   6.667   0.742
11002TIP3    H232964   4.849   6.692   0.869
11003TIP3   OH232965   0.362   1.756   5.567
11003TIP3    H132966   0.438   1.722   5.615
11003TIP3    H232967   0.311   1.678   5.545
11004TIP3   OH232968   5.560   5.227   3.697
11004TIP3    H132969   5.502   5.152   3.708
11004TIP3    H232970   5.623   5.199   3.631
11005TIP3   OH232971   1.430   7.334   4.644
11005TIP3    H132972   1.371   7.407   4.625
11005TIP3    H232973   1.472   7.357   4.726
11006TIP3   OH232974   6.582   7.324   4.084
11006TIP3    H132975   6.590   7.248   4.026
11006TIP3    H232976   6.487   7.338   4.091
11007TIP3   OH232977   7.150   5.860   3.340
11007TIP3    H132978   7.239   5.828   3.355
11007TIP3    H232979   7.127   5.828   3.253
11008TIP3   OH232980   4.407   4.377   2.074
11008TIP3    H132981   4.408   4.383   2.170
11008TIP3    H232982   4.346   4.306   2.054
11009TIP3   OH232983   3.228   0.907   5.513
11009TIP3    H132984   3.177   0.929   5.435
11009TIP3    H232985   3.210   0.979   5.573
11010TIP3   OH232986   1.783   4.832   4.922
11010TIP3    H132987   1.872   4.805   4.901
11010TIP3    H232988   1.790   4.875   5.007
11011TIP3   OH232989   1.884   6.904   1.623
11011TIP3    H132990   1.822   6.976   1.639
11011TIP3    H232991   1.834   6.839   1.574
11012TIP3   OH232992   6.876   1.129   4.297
11012TIP3    H132993   6.958   1.086   4.273
11012TIP3    H232994   6.871   1.120   4.392
11013TIP3   OH232995   3.131   0.941   3.413
11013TIP3    H132996   3.193   0.891   3.465
11013TIP3    H232997   3.173   0.949   3.327
11014TIP3   OH232998   2.235   3.844   2.002
11014TIP3    H132999   2.327   3.854   1.978
11014TIP3    H233000   2.191   3.917   1.959
11015TIP3   OH233001   2.414   1.888   1.858
11015TIP3    H133002   2.365   1.893   1.776
11015TIP3    H233003   2.440   1.978   1.876
11016TIP3   OH233004   7.501   5.790   1.192
11016TIP3    H133005   7.447   5.867   1.174
11016TIP3    H233006   7.445   5.732   1.243
11017TIP3   OH233007   2.416   0.096   0.029
11017TIP3    H133008   2.487   0.061  -0.023
11017TIP3    H233009   2.343   0.035   0.016
11018TIP3   OH233010   5.465   2.452   6.237
11018TIP3    H133011   5.374   2.469   6.260
11018TIP3    H233012   5.506   2.539   6.236
11019TIP3   OH233013   8.171   0.141   0.010
11019TIP3    H133014   8.254   0.145   0.057
11019TIP3    H233015   8.116   0.208   0.052
11020TIP3   OH233016   1.829   2.800   3.843
11020TIP3    H133017   1.830   2.734   3.775
11020TIP3    H233018   1.851   2.882   3.798
11021TIP3   OH233019   5.485   5.794   5.266
11021TIP3    H133020   5.449   5.774   5.353
11021TIP3    H233021   5.518   5.883   5.273
11022TIP3   OH233022   6.755   1.005   2.316
11022TIP3    H133023   6.681   1.067   2.319
11022TIP3    H233024   6.728   0.934   2.375
11023TIP3   OH233025   4.495   0.783   1.531
11023TIP3    H133026   4.495   0.716   1.600
11023TIP3    H233027   4.407   0.779   1.493
11024TIP3   OH233028   3.576   7.503   4.930
11024TIP3    H133029   3.631   7.442   4.881
11024TIP3    H233030   3.638   7.565   4.970
11025TIP3   OH233031   4.071   6.765   2.936
11025TIP3    H133032   4.088   6.761   3.030
11025TIP3    H233033   4.153   6.739   2.895
11026TIP3   OH233034   3.386   4.953   2.127
11026TIP3    H133035   3.373   4.975   2.220
11026TIP3    H233036   3.357   4.862   2.120
11027TIP3   OH233037   0.654   3.832   6.747
11027TIP3    H133038   0.576   3.865   6.702
11027TIP3    H233039   0.650   3.737   6.736
11028TIP3   OH233040   6.414   5.616   1.148
11028TIP3    H133041   6.507   5.603   1.164
11028TIP3    H233042   6.396   5.566   1.068
11029TIP3   OH233043   5.940   7.552   2.758
11029TIP3    H133044   5.997   7.534   2.683
11029TIP3    H233045   5.855   7.517   2.732
11030TIP3   OH233046   5.319   0.952   1.195
11030TIP3    H133047   5.239   0.900   1.182
11030TIP3    H233048   5.319   0.971   1.288
11031TIP3   OH233049   0.229   7.135   1.008
11031TIP3    H133050   0.273   7.171   0.931
11031TIP3    H233051   0.158   7.082   0.974
11032TIP3   OH233052   8.158   5.033   4.844
11032TIP3    H133053   8.184   5.084   4.768
11032TIP3    H233054   8.218   5.061   4.914
11033TIP3   OH233055   1.116   1.601   2.517
11033TIP3    H133056   1.105   1.549   2.596
11033TIP3    H233057   1.031   1.598   2.473
11034TIP3   OH233058   7.579   3.171   1.948
11034TIP3    H133059   7.502   3.168   1.892
11034TIP3    H233060   7.548   3.142   2.034
11035TIP3   OH233061   0.212   2.611   1.119
11035TIP3    H133062   0.147   2.668   1.078
11035TIP3    H233063   0.161   2.554   1.175
11036TIP3   OH233064   6.188   7.667   6.463
11036TIP3    H133065   6.128   7.740   6.444
11036TIP3    H233066   6.167   7.602   6.396
11037TIP3   OH233067   4.538   7.115   2.461
11037TIP3    H133068   4.526   7.067   2.380
11037TIP3    H233069   4.562   7.204   2.433
11038TIP3   OH233070   6.470   3.395   5.636
11038TIP3    H133071   6.405   3.344   5.586
11038TIP3    H233072   6.497   3.464   5.575
11039TIP3   OH233073   6.522   4.253   0.909
11039TIP3    H133074   6.506   4.159   0.914
11039TIP3    H233075   6.438   4.290   0.883
11040TIP3   OH233076   5.228   2.279   2.047
11040TIP3    H133077   5.195   2.231   1.971
11040TIP3    H233078   5.154   2.334   2.074
11041TIP3   OH233079   8.065   6.465   6.200
11041TIP3    H133080   8.107   6.448   6.284
11041TIP3    H233081   7.986   6.411   6.201
11042TIP3   OH233082   1.557   4.252   5.359
11042TIP3    H133083   1.500   4.326   5.338
11042TIP3    H233084   1.620   4.287   5.421
11043TIP3   OH233085   5.006   2.586   5.025
11043TIP3    H133086   5.023   2.545   4.940
11043TIP3    H233087   4.946   2.658   5.006
11044TIP3   OH233088   3.796   0.306   0.968
11044TIP3    H133089   3.716   0.270   1.008
11044TIP3    H233090   3.868   0.264   1.015
11045TIP3   OH233091   4.757   0.558   2.758
11045TIP3    H133092   4.841   0.523   2.730
11045TIP3    H233093   4.702   0.556   2.680
11046TIP3   OH233094   5.093   2.391   3.286
11046TIP3    H133095   5.073   2.418   3.196
11046TIP3    H233096   5.096   2.472   3.336
11047TIP3   OH233097   0.662   1.526   0.591
11047TIP3    H133098   0.608   1.475   0.651
11047TIP3    H233099   0.709   1.587   0.647
11048TIP3   OH233100   3.502   1.180   5.931
11048TIP3    H133101   3.504   1.116   6.002
11048TIP3    H233102   3.497   1.265   5.975
11049TIP3   OH233103   0.907   1.687   0.416
11049TIP3    H133104   0.948   1.617   0.366
11049TIP3    H233105   0.827   1.707   0.368
11050TIP3   OH233106   7.662   5.547   2.910
11050TIP3    H133107   7.649   5.475   2.848
11050TIP3    H233108   7.579   5.596   2.908
11051TIP3   OH233109   5.074   2.931   1.543
11051TIP3    H133110   5.121   2.883   1.611
11051TIP3    H233111   4.997   2.967   1.587
11052TIP3   OH233112   2.783   4.576   3.143
11052TIP3    H133113   2.749   4.542   3.061
11052TIP3    H233114   2.804   4.498   3.194
11053TIP3   OH233115   6.400   2.683   4.010
11053TIP3    H133116   6.315   2.725   4.025
11053TIP3    H233117   6.383   2.622   3.938
11054TIP3   OH233118   6.320   7.083   6.365
11054TIP3    H133119   6.397   7.093   6.309
11054TIP3    H233120   6.335   7.142   6.439
11055TIP3   OH233121   4.133   3.534   2.045
11055TIP3    H133122   4.190   3.591   2.097
11055TIP3    H233123   4.188   3.505   1.972
11056TIP3   OH233124   2.348   0.667   2.964
11056TIP3    H133125   2.290   0.741   2.946
11056TIP3    H233126   2.294   0.607   3.015
11057TIP3   OH233127   6.128   2.752   6.121
11057TIP3    H133128   6.157   2.663   6.138
11057TIP3    H233129   6.146   2.766   6.028
11058TIP3   OH233130   5.298   5.102   4.147
11058TIP3    H133131   5.368   5.055   4.102
11058TIP3    H233132   5.218   5.058   4.118
11059TIP3   OH233133   7.418   3.341   5.306
11059TIP3    H133134   7.355   3.393   5.256
11059TIP3    H233135   7.402   3.364   5.397
11060TIP3   OH233136   2.281   7.656   0.097
11060TIP3    H133137   2.335   7.676   0.021
11060TIP3    H233138   2.328   7.585   0.142
11061TIP3   OH233139   0.563   0.392   6.286
11061TIP3    H133140   0.602   0.376   6.371
11061TIP3    H233141   0.627   0.446   6.240
11062TIP3   OH233142   6.706   0.011   5.945
11062TIP3    H133143   6.744   0.099   5.944
11062TIP3    H233144   6.650   0.009   5.867
11063TIP3   OH233145   1.703   5.259   0.185
11063TIP3    H133146   1.733   5.341   0.145
11063TIP3    H233147   1.658   5.212   0.114
11064TIP3   OH233148   2.960   5.427   5.255
11064TIP3    H133149   2.978   5.335   5.234
11064TIP3    H233150   3.039   5.474   5.228
11065TIP3   OH233151   6.549   3.673   1.087
11065TIP3    H133152   6.491   3.746   1.107
11065TIP3    H233153   6.608   3.668   1.162
11066TIP3   OH233154   7.349   5.777   6.486
11066TIP3    H133155   7.268   5.806   6.528
11066TIP3    H233156   7.324   5.698   6.439
11067TIP3   OH233157   2.545   1.793   6.214
11067TIP3    H133158   2.587   1.820   6.296
11067TIP3    H233159   2.616   1.795   6.149
11068TIP3   OH233160   1.047   6.326   2.875
11068TIP3    H133161   0.956   6.302   2.859
11068TIP3    H233162   1.081   6.352   2.790
11069TIP3   OH233163   6.056   7.493   1.477
11069TIP3    H133164   6.004   7.483   1.398
11069TIP3    H233165   6.014   7.563   1.526
11070TIP3   OH233166   3.424   7.438   4.494
11070TIP3    H133167   3.427   7.490   4.413
11070TIP3    H233168   3.512   7.448   4.531
11071TIP3   OH233169   5.875   2.960   5.473
11071TIP3    H133170   5.967   2.974   5.451
11071TIP3    H233171   5.834   3.046   5.460
11072TIP3   OH233172   5.643   1.679   4.379
11072TIP3    H133173   5.569   1.701   4.436
11072TIP3    H233174   5.719   1.676   4.437
11073TIP3   OH233175   0.176   0.782   5.231
11073TIP3    H133176   0.201   0.690   5.219
11073TIP3    H233177   0.096   0.791   5.179
11074TIP3   OH233178   5.705   3.719   5.209
11074TIP3    H133179   5.760   3.733   5.286
11074TIP3    H233180   5.625   3.768   5.227
11075TIP3   OH233181   3.568   0.184   4.002
11075TIP3    H133182   3.614   0.118   3.951
11075TIP3    H233183   3.516   0.232   3.938
11076TIP3   OH233184   1.614   4.943   6.569
11076TIP3    H133185   1.666   4.866   6.591
11076TIP3    H233186   1.618   4.997   6.647
11077TIP3   OH233187   4.368   1.770   6.774
11077TIP3    H133188   4.437   1.776   6.840
11077TIP3    H233189   4.330   1.857   6.770
11078TIP3   OH233190   7.557   4.336   0.687
11078TIP3    H133191   7.505   4.292   0.754
11078TIP3    H233192   7.505   4.412   0.662
11079TIP3   OH233193   6.992   6.278   2.024
11079TIP3    H133194   7.060   6.222   2.061
11079TIP3    H233195   6.936   6.218   1.975
11080TIP3   OH233196   0.078   4.305   5.950
11080TIP3    H133197   0.113   4.372   6.009
11080TIP3    H233198   0.001   4.272   5.995
11081TIP3   OH233199   2.761   5.067   1.737
11081TIP3    H133200   2.819   5.123   1.686
11081TIP3    H233201   2.799   4.979   1.729
11082TIP3   OH233202   0.019   0.526   1.983
11082TIP3    H133203   0.035   0.616   2.013
11082TIP3    H233204   0.070   0.472   2.043
11083TIP3   OH233205   3.722   1.018   5.860
11083TIP3    H133206   3.745   1.097   5.909
11083TIP3    H233207   3.697   0.954   5.927
11084TIP3   OH233208   3.178   1.958   0.874
11084TIP3    H133209   3.254   1.924   0.827
11084TIP3    H233210   3.118   1.884   0.879
11085TIP3   OH233211   7.000   4.560   2.732
11085TIP3    H133212   7.058   4.489   2.705
11085TIP3    H233213   7.059   4.632   2.754
11086TIP3   OH233214   7.316   5.177   5.300
11086TIP3    H133215   7.352   5.228   5.373
11086TIP3    H233216   7.230   5.149   5.332
11087TIP3   OH233217   0.976   2.224   2.805
11087TIP3    H133218   0.889   2.243   2.768
11087TIP3    H233219   0.991   2.132   2.783
11088TIP3   OH233220   1.539   0.340   5.813
11088TIP3    H133221   1.491   0.374   5.737
11088TIP3    H233222   1.476   0.283   5.857
11089TIP3   OH233223   4.236   3.161   3.689
11089TIP3    H133224   4.242   3.164   3.593
11089TIP3    H233225   4.294   3.089   3.714
11090TIP3   OH233226   6.355   4.911   6.628
11090TIP3    H133227   6.399   4.868   6.554
11090TIP3    H233228   6.410   4.892   6.703
11091TIP3   OH233229   7.141   6.457   1.780
11091TIP3    H133230   7.156   6.467   1.874
11091TIP3    H233231   7.168   6.368   1.760
11092TIP3   OH233232   4.363   3.235   4.347
11092TIP3    H133233   4.271   3.215   4.327
11092TIP3    H233234   4.412   3.201   4.272
11093TIP3   OH233235   4.462   7.315   0.321
11093TIP3    H133236   4.522   7.247   0.350
11093TIP3    H233237   4.418   7.345   0.400
11094TIP3   OH233238   4.793   7.180   5.376
11094TIP3    H133239   4.758   7.201   5.289
11094TIP3    H233240   4.721   7.139   5.422
11095TIP3   OH233241   3.307   3.589   5.245
11095TIP3    H133242   3.337   3.673   5.210
11095TIP3    H233243   3.383   3.531   5.239
11096TIP3   OH233244   6.548   2.425   4.891
11096TIP3    H133245   6.579   2.376   4.968
11096TIP3    H233246   6.488   2.365   4.847
11097TIP3   OH233247   3.096   1.936   1.797
11097TIP3    H133248   3.107   2.027   1.826
11097TIP3    H233249   3.162   1.887   1.845
11098TIP3   OH233250   7.145   3.720   5.036
11098TIP3    H133251   7.199   3.799   5.037
11098TIP3    H233252   7.083   3.732   5.108
11099TIP3   OH233253   5.843   1.831   2.840
11099TIP3    H133254   5.881   1.919   2.843
11099TIP3    H233255   5.794   1.829   2.757
11100TIP3   OH233256   6.350   0.170   2.944
11100TIP3    H133257   6.260   0.142   2.924
11100TIP3    H233258   6.377   0.115   3.017
11101TIP3   OH233259   0.468   5.091   3.951
11101TIP3    H133260   0.431   5.169   3.992
11101TIP3    H233261   0.450   5.101   3.858
11102TIP3   OH233262   5.986   6.682   2.499
11102TIP3    H133263   5.895   6.710   2.488
11102TIP3    H233264   5.980   6.591   2.528
11103TIP3   OH233265   6.031   0.327   2.852
11103TIP3    H133266   5.979   0.265   2.903
11103TIP3    H233267   6.061   0.277   2.776
11104TIP3   OH233268   2.784   5.049   5.466
11104TIP3    H133269   2.815   5.132   5.501
11104TIP3    H233270   2.729   5.073   5.392
11105TIP3   OH233271   0.176   1.725   1.823
11105TIP3    H133272   0.234   1.657   1.788
11105TIP3    H233273   0.091   1.707   1.783
11106TIP3   OH233274   6.024   2.019   3.138
11106TIP3    H133275   6.111   2.038   3.174
11106TIP3    H233276   6.023   1.924   3.127
11107TIP3   OH233277   6.215   3.946   4.766
11107TIP3    H133278   6.265   3.953   4.847
11107TIP3    H233279   6.183   4.034   4.749
11108TIP3   OH233280   6.011   0.304   4.957
11108TIP3    H133281   5.972   0.280   4.873
11108TIP3    H233282   5.971   0.244   5.020
11109TIP3   OH233283   2.163   1.205   2.202
11109TIP3    H133284   2.210   1.288   2.203
11109TIP3    H233285   2.102   1.210   2.275
11110TIP3   OH233286   7.251   4.554   6.531
11110TIP3    H133287   7.203   4.472   6.533
11110TIP3    H233288   7.246   4.582   6.440
11111TIP3   OH233289   4.225   1.301   5.011
11111TIP3    H133290   4.252   1.274   5.099
11111TIP3    H233291   4.133   1.275   5.006
11112TIP3   OH233292   6.447   3.874   3.952
11112TIP3    H133293   6.404   3.911   4.029
11112TIP3    H233294   6.377   3.867   3.887
11113TIP3   OH233295   5.567   1.584   5.178
11113TIP3    H133296   5.505   1.581   5.250
11113TIP3    H233297   5.574   1.494   5.147
11114TIP3   OH233298   4.990   3.009   1.244
11114TIP3    H133299   4.896   3.003   1.229
11114TIP3    H233300   5.002   2.975   1.333
11115TIP3   OH233301   8.121   0.479   3.133
11115TIP3    H133302   8.029   0.479   3.160
11115TIP3    H233303   8.165   0.535   3.197
11116TIP3   OH233304   4.187   7.305   3.288
11116TIP3    H133305   4.101   7.271   3.311
11116TIP3    H233306   4.247   7.259   3.346
11117TIP3   OH233307   5.780   4.401   1.644
11117TIP3    H133308   5.745   4.389   1.732
11117TIP3    H233309   5.873   4.382   1.652
11118TIP3   OH233310   5.890   2.877   4.025
11118TIP3    H133311   5.927   2.953   3.981
11118TIP3    H233312   5.811   2.911   4.068
11119TIP3   OH233313   4.439   1.086   2.408
11119TIP3    H133314   4.346   1.104   2.424
11119TIP3    H233315   4.484   1.163   2.443
11120TIP3   OH233316   5.916   4.697   5.246
11120TIP3    H133317   5.862   4.619   5.255
11120TIP3    H233318   5.857   4.763   5.211
11121TIP3   OH233319   4.689   1.867   5.297
11121TIP3    H133320   4.679   1.933   5.228
11121TIP3    H233321   4.777   1.831   5.282
11122TIP3   OH233322   7.999   7.538   0.707
11122TIP3    H133323   8.075   7.590   0.681
11122TIP3    H233324   7.944   7.535   0.628
11123TIP3   OH233325   7.174   2.046   4.264
11123TIP3    H133326   7.218   2.126   4.295
11123TIP3    H233327   7.088   2.049   4.306
11124TIP3   OH233328   1.951   3.747   0.641
11124TIP3    H133329   1.865   3.706   0.631
11124TIP3    H233330   1.935   3.839   0.620
11125TIP3   OH233331   2.830   2.376   1.140
11125TIP3    H133332   2.742   2.339   1.139
11125TIP3    H233333   2.872   2.336   1.216
11126TIP3   OH233334   7.458   4.952   3.867
11126TIP3    H133335   7.499   5.016   3.926
11126TIP3    H233336   7.493   4.868   3.897
11127TIP3   OH233337   7.130   5.299   3.215
11127TIP3    H133338   7.198   5.235   3.236
11127TIP3    H233339   7.116   5.290   3.121
11128TIP3   OH233340   5.399   4.885   4.911
11128TIP3    H133341   5.393   4.952   4.978
11128TIP3    H233342   5.439   4.930   4.836
11129TIP3   OH233343   0.768   7.058   6.210
11129TIP3    H133344   0.693   7.000   6.223
11129TIP3    H233345   0.804   7.071   6.297
11130TIP3   OH233346   0.592   6.237   0.452
11130TIP3    H133347   0.508   6.282   0.454
11130TIP3    H233348   0.580   6.161   0.509
11131TIP3   OH233349   4.345   0.488   0.416
11131TIP3    H133350   4.307   0.573   0.437
11131TIP3    H233351   4.342   0.483   0.320
11132TIP3   OH233352   0.038   2.479   0.218
11132TIP3    H133353   0.123   2.447   0.246
11132TIP3    H233354   0.039   2.573   0.239
11133TIP3   OH233355   4.622   5.230   5.959
11133TIP3    H133356   4.628   5.219   6.054
11133TIP3    H233357   4.590   5.319   5.947
11134TIP3   OH233358   1.941   2.132   2.311
11134TIP3    H133359   1.860   2.182   2.306
11134TIP3    H233360   1.919   2.044   2.282
11135TIP3   OH233361   1.381   1.429   1.472
11135TIP3    H133362   1.299   1.397   1.435
11135TIP3    H233363   1.359   1.512   1.513
11136TIP3   OH233364   5.473   5.519   1.953
11136TIP3    H133365   5.427   5.597   1.921
11136TIP3    H233366   5.410   5.447   1.939
11137TIP3   OH233367   6.996   2.469   3.839
11137TIP3    H133368   6.975   2.405   3.906
11137TIP3    H233369   7.068   2.431   3.790
11138TIP3   OH233370   2.118   2.934   3.069
11138TIP3    H133371   2.206   2.930   3.106
11138TIP3    H233372   2.081   2.847   3.087
11139TIP3   OH233373   6.027   6.405   6.382
11139TIP3    H133374   6.034   6.482   6.438
11139TIP3    H233375   6.085   6.424   6.309
11140TIP3   OH233376   2.875   7.517   6.002
11140TIP3    H133377   2.836   7.525   5.915
11140TIP3    H233378   2.831   7.584   6.054
11141TIP3   OH233379   1.711   6.341   0.877
11141TIP3    H133380   1.618   6.356   0.891
11141TIP3    H233381   1.736   6.402   0.808
11142TIP3   OH233382   6.757   1.421   3.203
11142TIP3    H133383   6.781   1.332   3.175
11142TIP3    H233384   6.813   1.478   3.151
11143TIP3   OH233385   7.191   1.563   6.127
11143TIP3    H133386   7.221   1.635   6.183
11143TIP3    H233387   7.187   1.487   6.185
11144TIP3   OH233388   2.737   6.714   0.599
11144TIP3    H133389   2.702   6.671   0.677
11144TIP3    H233390   2.831   6.720   0.614
11145TIP3   OH233391   2.170   7.528   5.987
11145TIP3    H133392   2.124   7.611   5.975
11145TIP3    H233393   2.143   7.499   6.075
11146TIP3   OH233394   7.223   5.084   6.265
11146TIP3    H133395   7.268   5.002   6.247
11146TIP3    H233396   7.134   5.058   6.288
11147TIP3   OH233397   3.619   5.520   4.958
11147TIP3    H133398   3.574   5.576   4.894
11147TIP3    H233399   3.679   5.579   5.004
11148TIP3   OH233400   6.679   5.533   3.662
11148TIP3    H133401   6.706   5.601   3.600
11148TIP3    H233402   6.761   5.489   3.686
11149TIP3   OH233403   7.669   6.791   6.364
11149TIP3    H133404   7.764   6.795   6.358
11149TIP3    H233405   7.647   6.701   6.340
11150TIP3   OH233406   6.426   2.568   0.149
11150TIP3    H133407   6.398   2.659   0.136
11150TIP3    H233408   6.352   2.527   0.193
11151TIP3   OH233409   3.089   2.881   3.343
11151TIP3    H133410   3.133   2.817   3.287
11151TIP3    H233411   3.021   2.919   3.287
11152TIP3   OH233412   2.487   4.275   1.869
11152TIP3    H133413   2.408   4.256   1.819
11152TIP3    H233414   2.553   4.297   1.802
11153TIP3   OH233415   1.667   3.617   1.495
11153TIP3    H133416   1.594   3.678   1.508
11153TIP3    H233417   1.632   3.532   1.520
11154TIP3   OH233418   6.231   3.431   0.617
11154TIP3    H133419   6.162   3.405   0.555
11154TIP3    H233420   6.297   3.362   0.609
11155TIP3   OH233421   7.119   7.673   5.618
11155TIP3    H133422   7.182   7.607   5.589
11155TIP3    H233423   7.171   7.753   5.628
11156TIP3   OH233424   6.820   2.176   2.753
11156TIP3    H133425   6.815   2.252   2.812
11156TIP3    H233426   6.744   2.185   2.696
11157TIP3   OH233427   1.331   4.681   1.427
11157TIP3    H133428   1.413   4.634   1.442
11157TIP3    H233429   1.270   4.613   1.398
11158TIP3   OH233430   4.063   5.632   5.270
11158TIP3    H133431   4.063   5.537   5.285
11158TIP3    H233432   4.060   5.670   5.358
11159TIP3   OH233433   3.466   1.063   5.469
11159TIP3    H133434   3.392   1.003   5.470
11159TIP3    H233435   3.528   1.027   5.533
11160TIP3   OH233436   7.065   0.806   4.818
11160TIP3    H133437   7.058   0.751   4.739
11160TIP3    H233438   7.111   0.884   4.788
11161TIP3   OH233439   8.139   3.737   0.651
11161TIP3    H133440   8.226   3.700   0.663
11161TIP3    H233441   8.129   3.800   0.723
11162TIP3   OH233442   7.815   2.537   5.577
11162TIP3    H133443   7.902   2.572   5.595
11162TIP3    H233444   7.764   2.611   5.544
11163TIP3   OH233445   2.562   1.074   0.288
11163TIP3    H133446   2.504   0.999   0.275
11163TIP3    H233447   2.523   1.144   0.235
11164TIP3   OH233448   6.612   4.776   2.697
11164TIP3    H133449   6.589   4.737   2.781
11164TIP3    H233450   6.529   4.782   2.649
11165TIP3   OH233451   3.652   3.439   5.854
11165TIP3    H133452   3.698   3.523   5.860
11165TIP3    H233453   3.695   3.394   5.781
11166TIP3   OH233454   1.611   7.847   5.178
11166TIP3    H133455   1.560   7.924   5.201
11166TIP3    H233456   1.581   7.823   5.090
11167TIP3   OH233457   0.262   6.191   6.704
11167TIP3    H133458   0.210   6.218   6.779
11167TIP3    H233459   0.237   6.100   6.688
11168TIP3   OH233460   6.113   7.201   4.807
11168TIP3    H133461   6.148   7.190   4.895
11168TIP3    H233462   6.151   7.283   4.776
11169TIP3   OH233463   2.811   4.399   2.505
11169TIP3    H133464   2.777   4.384   2.417
11169TIP3    H233465   2.906   4.404   2.493
11170TIP3   OH233466   2.907   7.671   4.586
11170TIP3    H133467   2.885   7.667   4.493
11170TIP3    H233468   2.954   7.590   4.603
11171TIP3   OH233469   0.342   5.175   1.919
11171TIP3    H133470   0.436   5.170   1.905
11171TIP3    H233471   0.332   5.184   2.013
11172TIP3   OH233472   0.591   5.510   5.084
11172TIP3    H133473   0.505   5.526   5.123
11172TIP3    H233474   0.608   5.589   5.032
11173TIP3   OH233475   4.903   6.910   3.756
11173TIP3    H133476   4.998   6.925   3.756
11173TIP3    H233477   4.894   6.816   3.770
11174TIP3   OH233478   2.923   0.177   3.819
11174TIP3    H133479   2.918   0.158   3.913
11174TIP3    H233480   3.017   0.181   3.800
11175TIP3   OH233481   6.449   6.008   0.716
11175TIP3    H133482   6.518   5.962   0.666
11175TIP3    H233483   6.401   6.058   0.650
11176TIP3   OH233484   5.741   1.630   3.277
11176TIP3    H133485   5.711   1.656   3.365
11176TIP3    H233486   5.823   1.678   3.264
11177TIP3   OH233487   6.005   4.656   0.167
11177TIP3    H133488   5.937   4.704   0.121
11177TIP3    H233489   6.019   4.578   0.114
11178TIP3   OH233490   5.422   5.482   1.288
11178TIP3    H133491   5.435   5.407   1.346
11178TIP3    H233492   5.507   5.496   1.247
11179TIP3   OH233493   6.073   5.811   5.040
11179TIP3    H133494   5.985   5.836   5.010
11179TIP3    H233495   6.084   5.854   5.124
11180TIP3   OH233496   0.961   4.521   6.126
11180TIP3    H133497   0.958   4.440   6.175
11180TIP3    H233498   1.045   4.560   6.149
11181TIP3   OH233499   7.959   7.678   6.497
11181TIP3    H133500   8.046   7.715   6.508
11181TIP3    H233501   7.972   7.583   6.505
11182TIP3   OH233502   3.130   0.633   4.964
11182TIP3    H133503   3.222   0.644   4.989
11182TIP3    H233504   3.131   0.567   4.896
11183TIP3   OH233505   4.839   3.912   4.982
11183TIP3    H133506   4.816   4.005   4.981
11183TIP3    H233507   4.761   3.868   4.948
11184TIP3   OH233508   7.388   4.615   5.180
11184TIP3    H133509   7.373   4.644   5.091
11184TIP3    H233510   7.445   4.538   5.171
11185TIP3   OH233511   3.279   5.425   2.276
11185TIP3    H133512   3.280   5.455   2.367
11185TIP3    H233513   3.368   5.439   2.245
11186TIP3   OH233514   4.182   0.942   3.593
11186TIP3    H133515   4.238   0.919   3.667
11186TIP3    H233516   4.094   0.917   3.622
11187TIP3   OH233517   1.283   7.722   4.558
11187TIP3    H133518   1.300   7.794   4.618
11187TIP3    H233519   1.247   7.765   4.480
11188TIP3   OH233520   6.536   1.158   3.482
11188TIP3    H133521   6.455   1.209   3.473
11188TIP3    H233522   6.605   1.224   3.485
11189TIP3   OH233523   4.280   3.380   4.977
11189TIP3    H133524   4.189   3.409   4.972
11189TIP3    H233525   4.320   3.436   5.044
11190TIP3   OH233526   1.317   7.312   2.330
11190TIP3    H133527   1.362   7.227   2.329
11190TIP3    H233528   1.312   7.337   2.238
11191TIP3   OH233529   7.445   1.937   0.945
11191TIP3    H133530   7.418   1.961   0.856
11191TIP3    H233531   7.464   1.843   0.939
11192TIP3   OH233532   6.063   2.415   3.789
11192TIP3    H133533   5.979   2.457   3.769
11192TIP3    H233534   6.064   2.337   3.735
11193TIP3   OH233535   1.972   6.918   4.035
11193TIP3    H133536   1.929   6.872   3.963
11193TIP3    H233537   2.065   6.918   4.012
11194TIP3   OH233538   3.802   1.609   1.885
11194TIP3    H133539   3.780   1.696   1.853
11194TIP3    H233540   3.851   1.569   1.814
11195TIP3   OH233541   1.694   0.393   5.195
11195TIP3    H133542   1.738   0.403   5.111
11195TIP3    H233543   1.754   0.339   5.247
11196TIP3   OH233544   2.833   2.871   1.178
11196TIP3    H133545   2.770   2.802   1.198
11196TIP3    H233546   2.796   2.917   1.102
11197TIP3   OH233547   7.300   0.443   1.339
11197TIP3    H133548   7.230   0.470   1.398
11197TIP3    H233549   7.268   0.465   1.252
11198TIP3   OH233550   3.615   3.274   3.503
11198TIP3    H133551   3.596   3.339   3.435
11198TIP3    H233552   3.674   3.320   3.564
11199TIP3   OH233553   3.799   1.813   1.635
11199TIP3    H133554   3.781   1.905   1.617
11199TIP3    H233555   3.894   1.807   1.636
11200TIP3   OH233556   4.763   1.927   6.710
11200TIP3    H133557   4.748   1.882   6.793
11200TIP3    H233558   4.677   1.962   6.685
11201TIP3   OH233559   4.609   5.909   0.427
11201TIP3    H133560   4.552   5.893   0.502
11201TIP3    H233561   4.679   5.844   0.435
11202TIP3   OH233562   4.110   7.330   1.112
11202TIP3    H133563   4.059   7.411   1.122
11202TIP3    H233564   4.133   7.328   1.020
11203TIP3   OH233565   6.521   2.382   5.616
11203TIP3    H133566   6.549   2.321   5.684
11203TIP3    H233567   6.425   2.383   5.623
11204TIP3   OH233568   6.833   0.907   2.084
11204TIP3    H133569   6.817   0.944   2.171
11204TIP3    H233570   6.756   0.931   2.033
11205TIP3   OH233571   2.105   1.949   1.156
11205TIP3    H133572   2.138   1.921   1.241
11205TIP3    H233573   2.168   1.915   1.093
11206TIP3   OH233574   0.083   3.596   1.479
11206TIP3    H133575   0.047   3.632   1.560
11206TIP3    H233576   0.007   3.570   1.428
11207TIP3   OH233577   2.207   6.823   1.226
11207TIP3    H133578   2.166   6.803   1.310
11207TIP3    H233579   2.286   6.770   1.224
11208TIP3   OH233580   3.735   5.279   6.068
11208TIP3    H133581   3.825   5.263   6.095
11208TIP3    H233582   3.682   5.218   6.120
11209TIP3   OH233583   5.749   2.283   3.530
11209TIP3    H133584   5.697   2.203   3.531
11209TIP3    H233585   5.736   2.320   3.443
11210TIP3   OH233586   1.679   5.558   2.331
11210TIP3    H133587   1.678   5.542   2.236
11210TIP3    H233588   1.772   5.566   2.352
11211TIP3   OH233589   6.368   2.780   0.613
11211TIP3    H133590   6.365   2.698   0.563
11211TIP3    H233591   6.326   2.844   0.556
11212TIP3   OH233592   7.820   4.413   0.997
11212TIP3    H133593   7.846   4.410   0.905
11212TIP3    H233594   7.791   4.324   1.017
11213TIP3   OH233595   2.775   4.675   2.103
11213TIP3    H133596   2.740   4.753   2.061
11213TIP3    H233597   2.739   4.676   2.192
11214TIP3   OH233598   2.489   2.236   0.969
11214TIP3    H133599   2.475   2.158   0.916
11214TIP3    H233600   2.535   2.204   1.047
11215TIP3   OH233601   6.214   7.702   4.695
11215TIP3    H133602   6.188   7.786   4.658
11215TIP3    H233603   6.285   7.723   4.755
11216TIP3   OH233604   1.310   3.862   4.971
11216TIP3    H133605   1.295   3.955   4.953
11216TIP3    H233606   1.378   3.836   4.908
11217TIP3   OH233607   1.875   4.257   4.407
11217TIP3    H133608   1.818   4.252   4.331
11217TIP3    H233609   1.961   4.278   4.371
11218TIP3   OH233610   6.460   6.853   3.229
11218TIP3    H133611   6.506   6.795   3.291
11218TIP3    H233612   6.443   6.798   3.153
11219TIP3   OH233613   6.953   0.919   2.768
11219TIP3    H133614   6.919   0.836   2.800
11219TIP3    H233615   6.991   0.898   2.683
11220TIP3   OH233616   0.906   6.773   1.073
11220TIP3    H133617   0.900   6.774   1.169
11220TIP3    H233618   0.983   6.826   1.053
11221TIP3   OH233619   7.040   6.050   1.125
11221TIP3    H133620   7.071   6.016   1.209
11221TIP3    H233621   6.981   5.981   1.092
11222TIP3   OH233622   6.295   2.418   1.537
11222TIP3    H133623   6.385   2.452   1.526
11222TIP3    H233624   6.304   2.323   1.530
11223TIP3   OH233625   5.770   3.648   1.918
11223TIP3    H133626   5.785   3.740   1.896
11223TIP3    H233627   5.852   3.620   1.957
11224TIP3   OH233628   2.468   0.262   1.479
11224TIP3    H133629   2.498   0.351   1.496
11224TIP3    H233630   2.518   0.208   1.540
11225TIP3   OH233631   0.133   6.779   1.670
11225TIP3    H133632   0.215   6.756   1.626
11225TIP3    H233633   0.082   6.826   1.604
11226TIP3   OH233634   7.084   5.174   4.132
11226TIP3    H133635   7.040   5.201   4.051
11226TIP3    H233636   7.085   5.253   4.186
11227TIP3   OH233637   2.333   0.219   6.263
11227TIP3    H133638   2.331   0.247   6.354
11227TIP3    H233639   2.332   0.300   6.212
11228TIP3   OH233640   0.698   3.541   0.513
11228TIP3    H133641   0.721   3.611   0.575
11228TIP3    H233642   0.612   3.566   0.479
11229TIP3   OH233643   0.971   5.388   4.024
11229TIP3    H133644   0.911   5.359   3.955
11229TIP3    H233645   0.934   5.471   4.055
11230TIP3   OH233646   2.261   4.266   2.844
11230TIP3    H133647   2.170   4.273   2.874
11230TIP3    H233648   2.282   4.353   2.810
11231TIP3   OH233649   3.598   1.938   6.230
11231TIP3    H133650   3.671   1.891   6.190
11231TIP3    H233651   3.575   2.006   6.167
11232TIP3   OH233652   5.454   2.103   0.000
11232TIP3    H133653   5.436   2.065   0.085
11232TIP3    H233654   5.448   2.029  -0.061
11233TIP3   OH233655   7.080   0.326   0.510
11233TIP3    H133656   7.111   0.386   0.578
11233TIP3    H233657   7.128   0.352   0.431
11234TIP3   OH233658   3.837   4.704   2.996
11234TIP3    H133659   3.917   4.757   3.005
11234TIP3    H233660   3.869   4.616   2.975
11235TIP3   OH233661   3.525   6.864   6.316
11235TIP3    H133662   3.540   6.958   6.316
11235TIP3    H233663   3.430   6.855   6.308
11236TIP3   OH233664   4.531   4.516   0.148
11236TIP3    H133665   4.465   4.455   0.181
11236TIP3    H233666   4.613   4.488   0.191
11237TIP3   OH233667   5.563   1.400   3.190
11237TIP3    H133668   5.480   1.444   3.172
11237TIP3    H233669   5.628   1.470   3.188
11238TIP3   OH233670   2.436   7.078   2.016
11238TIP3    H133671   2.380   7.034   1.952
11238TIP3    H233672   2.462   7.009   2.077
11239TIP3   OH233673   0.199   6.997   5.721
11239TIP3    H133674   0.141   7.034   5.786
11239TIP3    H233675   0.142   6.945   5.664
11240TIP3   OH233676   2.067   3.878   4.561
11240TIP3    H133677   2.006   3.921   4.622
11240TIP3    H233678   2.141   3.939   4.555
11241TIP3   OH233679   0.436   5.923   4.787
11241TIP3    H133680   0.500   5.936   4.716
11241TIP3    H233681   0.438   6.005   4.836
11242TIP3   OH233682   0.434   0.847   6.517
11242TIP3    H133683   0.438   0.759   6.555
11242TIP3    H233684   0.391   0.901   6.583
11243TIP3   OH233685   1.669   2.675   3.597
11243TIP3    H133686   1.751   2.641   3.633
11243TIP3    H233687   1.614   2.690   3.674
11244TIP3   OH233688   2.870   4.277   1.157
11244TIP3    H133689   2.951   4.257   1.112
11244TIP3    H233690   2.839   4.192   1.189
11245TIP3   OH233691   4.220   1.910   1.781
11245TIP3    H133692   4.157   1.982   1.787
11245TIP3    H233693   4.283   1.939   1.715
11246TIP3   OH233694   7.345   6.095   1.411
11246TIP3    H133695   7.261   6.134   1.436
11246TIP3    H233696   7.325   6.046   1.331
11247TIP3   OH233697   6.615   1.246   2.038
11247TIP3    H133698   6.605   1.161   1.996
11247TIP3    H233699   6.527   1.283   2.040
11248TIP3   OH233700   3.838   0.264   5.520
11248TIP3    H133701   3.854   0.235   5.431
11248TIP3    H233702   3.922   0.252   5.565
11249TIP3   OH233703   6.921   2.878   2.187
11249TIP3    H133704   6.886   2.960   2.222
11249TIP3    H233705   6.961   2.835   2.262
11250TIP3   OH233706   4.687   5.424   4.394
11250TIP3    H133707   4.663   5.457   4.480
11250TIP3    H233708   4.683   5.500   4.337
11251TIP3   OH233709   4.325   1.422   1.675
11251TIP3    H133710   4.324   1.467   1.590
11251TIP3    H233711   4.418   1.400   1.688
11252TIP3   OH233712   4.268   4.336   5.944
11252TIP3    H133713   4.319   4.336   6.024
11252TIP3    H233714   4.197   4.274   5.961
11253TIP3   OH233715   6.559   4.648   1.628
11253TIP3    H133716   6.565   4.608   1.715
11253TIP3    H233717   6.502   4.724   1.642
11254TIP3   OH233718   3.191   0.992   1.240
11254TIP3    H133719   3.156   0.936   1.309
11254TIP3    H233720   3.133   0.974   1.165
11255TIP3   OH233721   7.862   3.647   0.150
11255TIP3    H133722   7.903   3.623   0.067
11255TIP3    H233723   7.910   3.597   0.216
11256TIP3   OH233724   5.556   6.928   0.876
11256TIP3    H133725   5.616   6.930   0.802
11256TIP3    H233726   5.612   6.924   0.953
11257TIP3   OH233727   3.208   4.162   6.351
11257TIP3    H133728   3.194   4.076   6.312
11257TIP3    H233729   3.121   4.189   6.381
11258TIP3   OH233730   8.220   1.021   0.228
11258TIP3    H133731   8.138   1.071   0.225
11258TIP3    H233732   8.284   1.080   0.189
11259TIP3   OH233733   4.676   0.860   2.417
11259TIP3    H133734   4.696   0.930   2.478
11259TIP3    H233735   4.642   0.789   2.472
11260TIP3   OH233736   8.016   5.694   2.331
11260TIP3    H133737   8.102   5.707   2.290
11260TIP3    H233738   7.967   5.773   2.310
11261TIP3   OH233739   7.248   2.059   5.897
11261TIP3    H133740   7.170   2.026   5.944
11261TIP3    H233741   7.232   2.153   5.888
11262TIP3   OH233742   7.023   3.034   1.139
11262TIP3    H133743   7.034   2.968   1.070
11262TIP3    H233744   7.016   2.983   1.220
11263TIP3   OH233745   0.518   0.755   6.082
11263TIP3    H133746   0.610   0.769   6.062
11263TIP3    H233747   0.484   0.843   6.102
11264TIP3   OH233748   5.490   2.205   6.715
11264TIP3    H133749   5.425   2.142   6.685
11264TIP3    H233750   5.573   2.170   6.682
11265TIP3   OH233751   6.692   1.951   5.821
11265TIP3    H133752   6.768   1.910   5.780
11265TIP3    H233753   6.691   1.915   5.910
11266TIP3   OH233754   7.802   4.674   5.333
11266TIP3    H133755   7.818   4.736   5.261
11266TIP3    H233756   7.731   4.714   5.383
11267TIP3   OH233757   1.045   3.548   6.703
11267TIP3    H133758   0.988   3.471   6.702
11267TIP3    H233759   1.133   3.513   6.691
11268TIP3   OH233760   6.770   6.393   1.784
11268TIP3    H133761   6.862   6.388   1.810
11268TIP3    H233762   6.724   6.423   1.863
11269TIP3   OH233763   6.691   2.262   0.622
11269TIP3    H133764   6.725   2.195   0.564
11269TIP3    H233765   6.597   2.264   0.604
11270TIP3   OH233766   4.236   4.132   2.845
11270TIP3    H133767   4.325   4.131   2.811
11270TIP3    H233768   4.201   4.045   2.824
11271TIP3   OH233769   3.616   1.889   1.917
11271TIP3    H133770   3.542   1.949   1.911
11271TIP3    H233771   3.671   1.910   1.842
11272TIP3   OH233772   0.512   1.855   2.144
11272TIP3    H133773   0.506   1.841   2.239
11272TIP3    H233774   0.430   1.818   2.110
11273TIP3   OH233775   5.156   0.628   2.846
11273TIP3    H133776   5.192   0.550   2.888
11273TIP3    H233777   5.118   0.596   2.764
11274TIP3   OH233778   7.696   3.879   4.090
11274TIP3    H133779   7.757   3.848   4.024
11274TIP3    H233780   7.749   3.892   4.168
11275TIP3   OH233781   6.376   4.923   2.950
11275TIP3    H133782   6.342   4.914   2.861
11275TIP3    H233783   6.354   5.013   2.975
11276TIP3   OH233784   4.541   2.407   1.152
11276TIP3    H133785   4.519   2.336   1.213
11276TIP3    H233786   4.627   2.383   1.118
11277TIP3   OH233787   0.118   7.568   3.833
11277TIP3    H133788   0.058   7.598   3.901
11277TIP3    H233789   0.200   7.550   3.879
11278TIP3   OH233790   1.632   1.137   2.891
11278TIP3    H133791   1.601   1.082   2.819
11278TIP3    H233792   1.554   1.183   2.922
11279TIP3   OH233793   0.625   6.629   4.518
11279TIP3    H133794   0.714   6.662   4.503
11279TIP3    H233795   0.572   6.709   4.530
11280TIP3   OH233796   0.675   2.673   5.916
11280TIP3    H133797   0.586   2.661   5.950
11280TIP3    H233798   0.716   2.734   5.978
11281TIP3   OH233799   6.841   1.090   6.676
11281TIP3    H133800   6.895   1.132   6.609
11281TIP3    H233801   6.794   1.162   6.717
11282TIP3   OH233802   1.899   4.610   3.672
11282TIP3    H133803   1.890   4.632   3.579
11282TIP3    H233804   1.988   4.576   3.680
11283TIP3   OH233805   6.012   4.739   4.795
11283TIP3    H133806   5.959   4.788   4.732
11283TIP3    H233807   5.948   4.691   4.847
11284TIP3   OH233808   3.388   2.254   4.163
11284TIP3    H133809   3.359   2.163   4.169
11284TIP3    H233810   3.362   2.293   4.246
11285TIP3   OH233811   8.187   7.587   6.050
11285TIP3    H133812   8.242   7.664   6.035
11285TIP3    H233813   8.132   7.581   5.973
11286TIP3   OH233814   1.160   7.167   3.716
11286TIP3    H133815   1.247   7.133   3.698
11286TIP3    H233816   1.100   7.097   3.689
11287TIP3   OH233817   5.384   1.660   5.640
11287TIP3    H133818   5.298   1.688   5.669
11287TIP3    H233819   5.395   1.573   5.678
11288TIP3   OH233820   4.877   7.195   4.754
11288TIP3    H133821   4.922   7.114   4.729
11288TIP3    H233822   4.948   7.255   4.778
11289TIP3   OH233823   1.164   1.587   4.525
11289TIP3    H133824   1.214   1.516   4.566
11289TIP3    H233825   1.121   1.632   4.599
11290TIP3   OH233826   0.344   0.934   2.409
11290TIP3    H133827   0.364   0.849   2.450
11290TIP3    H233828   0.315   0.989   2.482
11291TIP3   OH233829   3.242   3.973   3.706
11291TIP3    H133830   3.223   3.931   3.791
11291TIP3    H233831   3.198   4.058   3.711
11292TIP3   OH233832   2.905   4.078   2.173
11292TIP3    H133833   2.940   4.066   2.261
11292TIP3    H233834   2.878   4.170   2.170
11293TIP3   OH233835   6.559   1.422   3.705
11293TIP3    H133836   6.476   1.390   3.670
11293TIP3    H233837   6.538   1.507   3.744
11294TIP3   OH233838   3.459   1.487   2.651
11294TIP3    H133839   3.461   1.531   2.736
11294TIP3    H233840   3.402   1.542   2.597
11295TIP3   OH233841   4.622   2.455   5.614
11295TIP3    H133842   4.616   2.476   5.521
11295TIP3    H233843   4.632   2.540   5.658
11296TIP3   OH233844   8.062   2.316   0.313
11296TIP3    H133845   8.105   2.235   0.340
11296TIP3    H233846   7.981   2.319   0.364
11297TIP3   OH233847   6.668   1.857   4.940
11297TIP3    H133848   6.722   1.796   4.990
11297TIP3    H233849   6.691   1.839   4.849
11298TIP3   OH233850   3.735   1.498   0.104
11298TIP3    H133851   3.823   1.524   0.074
11298TIP3    H233852   3.679   1.572   0.080
11299TIP3   OH233853   5.019   6.353   2.279
11299TIP3    H133854   5.038   6.418   2.211
11299TIP3    H233855   5.011   6.405   2.360
11300TIP3   OH233856   4.561   2.168   5.377
11300TIP3    H133857   4.577   2.258   5.348
11300TIP3    H233858   4.551   2.118   5.296
11301TIP3   OH233859   6.176   6.719   3.972
11301TIP3    H133860   6.118   6.696   4.045
11301TIP3    H233861   6.118   6.734   3.898
11302TIP3   OH233862   5.246   7.593   2.456
11302TIP3    H133863   5.236   7.565   2.365
11302TIP3    H233864   5.230   7.687   2.455
11303TIP3   OH233865   5.384   7.471   6.670
11303TIP3    H133866   5.366   7.426   6.587
11303TIP3    H233867   5.310   7.531   6.681
11304TIP3   OH233868   2.408   3.600   1.822
11304TIP3    H133869   2.345   3.536   1.854
11304TIP3    H233870   2.444   3.639   1.902
11305TIP3   OH233871   8.140   7.424   1.383
11305TIP3    H133872   8.116   7.342   1.339
11305TIP3    H233873   8.194   7.397   1.457
11306TIP3   OH233874   4.745   7.546   5.551
11306TIP3    H133875   4.666   7.491   5.551
11306TIP3    H233876   4.739   7.596   5.632
11307TIP3   OH233877   5.457   2.590   3.148
11307TIP3    H133878   5.395   2.647   3.100
11307TIP3    H233879   5.543   2.614   3.113
11308TIP3   OH233880   3.424   7.783   4.509
11308TIP3    H133881   3.407   7.755   4.599
11308TIP3    H233882   3.339   7.813   4.477
11309TIP3   OH233883   2.643   2.531   2.101
11309TIP3    H133884   2.560   2.484   2.096
11309TIP3    H233885   2.709   2.461   2.096
11310TIP3   OH233886   1.884   5.898   3.739
11310TIP3    H133887   1.837   5.825   3.698
11310TIP3    H233888   1.817   5.947   3.787
11311TIP3   OH233889   4.344   2.559   0.104
11311TIP3    H133890   4.429   2.579   0.143
11311TIP3    H233891   4.334   2.465   0.114
11312TIP3   OH233892   4.582   3.097   4.520
11312TIP3    H133893   4.507   3.148   4.490
11312TIP3    H233894   4.604   3.041   4.446
11313TIP3   OH233895   1.731   3.043   4.900
11313TIP3    H133896   1.818   3.003   4.897
11313TIP3    H233897   1.687   3.009   4.822
11314TIP3   OH233898   5.900   1.618   6.341
11314TIP3    H133899   5.844   1.587   6.270
11314TIP3    H233900   5.862   1.579   6.420
11315TIP3   OH233901   7.876   1.521   2.675
11315TIP3    H133902   7.937   1.508   2.603
11315TIP3    H233903   7.833   1.604   2.656
11316TIP3   OH233904   3.177   0.376   2.594
11316TIP3    H133905   3.215   0.462   2.615
11316TIP3    H233906   3.149   0.342   2.679
11317TIP3   OH233907   0.444   1.585   6.662
11317TIP3    H133908   0.361   1.628   6.645
11317TIP3    H233909   0.509   1.639   6.616
11318TIP3   OH233910   0.757   2.911  -0.013
11318TIP3    H133911   0.822   2.842  -0.006
11318TIP3    H233912   0.719   2.918   0.075
11319TIP3   OH233913   6.837   3.898   5.176
11319TIP3    H133914   6.893   3.826   5.204
11319TIP3    H233915   6.883   3.937   5.102
11320TIP3   OH233916   3.893   4.141   0.093
11320TIP3    H133917   3.831   4.090   0.144
11320TIP3    H233918   3.938   4.077   0.037
11321TIP3   OH233919   6.956   7.208   6.632
11321TIP3    H133920   6.877   7.261   6.619
11321TIP3    H233921   6.926   7.117   6.628
11322TIP3   OH233922   3.355   6.817   6.566
11322TIP3    H133923   3.416   6.810   6.639
11322TIP3    H233924   3.408   6.852   6.494
11323TIP3   OH233925   1.056   3.250   3.634
11323TIP3    H133926   1.019   3.164   3.621
11323TIP3    H233927   1.027   3.301   3.559
11324TIP3   OH233928   4.419   3.739   3.478
11324TIP3    H133929   4.347   3.802   3.468
11324TIP3    H233930   4.408   3.703   3.565
11325TIP3   OH233931   7.534   0.450   2.409
11325TIP3    H133932   7.537   0.355   2.396
11325TIP3    H233933   7.620   0.481   2.382
11326TIP3   OH233934   0.683   2.502   1.002
11326TIP3    H133935   0.685   2.594   0.975
11326TIP3    H233936   0.595   2.489   1.035
11327TIP3   OH233937   3.765   3.648   2.328
11327TIP3    H133938   3.713   3.728   2.336
11327TIP3    H233939   3.737   3.594   2.401
11328TIP3   OH233940   6.140   6.923   6.682
11328TIP3    H133941   6.114   6.932   6.590
11328TIP3    H233942   6.072   6.971   6.730
11329TIP3   OH233943   4.048   5.246   1.970
11329TIP3    H133944   4.116   5.307   1.940
11329TIP3    H233945   4.018   5.283   2.053
11330TIP3   OH233946   0.965   4.913   1.661
11330TIP3    H133947   0.953   4.913   1.566
11330TIP3    H233948   0.961   4.820   1.686
11331TIP3   OH233949   2.496   0.786   1.053
11331TIP3    H133950   2.530   0.725   0.987
11331TIP3    H233951   2.401   0.772   1.051
11332TIP3   OH233952   6.865   0.769   1.057
11332TIP3    H133953   6.867   0.690   1.111
11332TIP3    H233954   6.790   0.819   1.090
11333TIP3   OH233955   8.193   0.035   2.248
11333TIP3    H133956   8.184   0.007   2.157
11333TIP3    H233957   8.279   0.077   2.251
11334TIP3   OH233958   4.381   1.131   0.944
11334TIP3    H133959   4.340   1.208   0.984
11334TIP3    H233960   4.347   1.057   0.994
11335TIP3   OH233961   1.819   2.377   2.393
11335TIP3    H133962   1.761   2.451   2.412
11335TIP3    H233963   1.901   2.417   2.364
11336TIP3   OH233964   1.424   2.687   1.993
11336TIP3    H133965   1.460   2.667   1.906
11336TIP3    H233966   1.345   2.738   1.974
11337TIP3   OH233967   4.199   2.777   5.194
11337TIP3    H133968   4.256   2.716   5.241
11337TIP3    H233969   4.214   2.757   5.102
11338TIP3   OH233970   2.760   5.780   5.944
11338TIP3    H133971   2.683   5.826   5.978
11338TIP3    H233972   2.750   5.690   5.976
11339TIP3   OH233973   7.443   6.323   1.013
11339TIP3    H133974   7.355   6.304   0.983
11339TIP3    H233975   7.500   6.293   0.942
11340TIP3   OH233976   8.221   2.174   2.535
11340TIP3    H133977   8.174   2.149   2.614
11340TIP3    H233978   8.278   2.246   2.563
11341TIP3   OH233979   5.163   3.085   4.521
11341TIP3    H133980   5.256   3.100   4.507
11341TIP3    H233981   5.132   3.048   4.438
11342TIP3   OH233982   7.409   6.475   3.642
11342TIP3    H133983   7.324   6.433   3.628
11342TIP3    H233984   7.473   6.410   3.617
11343TIP3   OH233985   1.816   6.756   3.521
11343TIP3    H133986   1.736   6.741   3.472
11343TIP3    H233987   1.854   6.669   3.534
11344TIP3   OH233988   2.327   2.384   6.684
11344TIP3    H133989   2.327   2.290   6.664
11344TIP3    H233990   2.234   2.408   6.686
11345TIP3   OH233991   0.388   2.520   3.614
11345TIP3    H133992   0.346   2.441   3.578
11345TIP3    H233993   0.385   2.508   3.709
11346TIP3   OH233994   7.442   5.914   4.815
11346TIP3    H133995   7.430   5.886   4.724
11346TIP3    H233996   7.535   5.905   4.831
11347TIP3   OH233997   4.065   1.938   5.245
11347TIP3    H133998   4.159   1.923   5.249
11347TIP3    H233999   4.055   2.020   5.198
11348TIP3   OH234000   2.779   1.807   6.065
11348TIP3    H134001   2.794   1.713   6.076
11348TIP3    H234002   2.841   1.849   6.124
11349TIP3   OH234003   6.422   1.697   4.302
11349TIP3    H134004   6.398   1.627   4.363
11349TIP3    H234005   6.339   1.740   4.282
11350TIP3   OH234006   7.332   5.976   3.097
11350TIP3    H134007   7.357   5.914   3.165
11350TIP3    H234008   7.309   6.056   3.144
11351TIP3   OH234009   3.165   6.402   4.381
11351TIP3    H134010   3.214   6.384   4.461
11351TIP3    H234011   3.127   6.317   4.357
11352TIP3   OH234012   0.607   1.224   4.147
11352TIP3    H134013   0.688   1.216   4.097
11352TIP3    H234014   0.630   1.280   4.221
11353TIP3   OH234015   1.847   6.438   6.635
11353TIP3    H134016   1.907   6.512   6.628
11353TIP3    H234017   1.773   6.472   6.685
11354TIP3   OH234018   4.498   1.062   3.932
11354TIP3    H134019   4.483   0.977   3.974
11354TIP3    H234020   4.548   1.041   3.853
11355TIP3   OH234021   3.603   6.594   2.978
11355TIP3    H134022   3.620   6.673   2.928
11355TIP3    H234023   3.563   6.533   2.915
11356TIP3   OH234024   0.708   2.653   1.301
11356TIP3    H134025   0.628   2.605   1.318
11356TIP3    H234026   0.741   2.676   1.388
11357TIP3   OH234027   7.262   5.731   4.261
11357TIP3    H134028   7.194   5.734   4.329
11357TIP3    H234029   7.248   5.810   4.209
11358TIP3   OH234030   1.970   3.344   5.176
11358TIP3    H134031   1.956   3.426   5.129
11358TIP3    H234032   2.044   3.361   5.234
11359TIP3   OH234033   4.535   4.939   0.039
11359TIP3    H134034   4.509   4.853   0.073
11359TIP3    H234035   4.525   4.998   0.113
11360TIP3   OH234036   7.245   5.633   2.032
11360TIP3    H134037   7.185   5.676   2.094
11360TIP3    H234038   7.242   5.689   1.954
11361TIP3   OH234039   4.371   0.477   2.667
11361TIP3    H134040   4.277   0.461   2.666
11361TIP3    H234041   4.410   0.390   2.660
11362TIP3   OH234042   3.778   3.774   5.572
11362TIP3    H134043   3.726   3.704   5.533
11362TIP3    H234044   3.821   3.734   5.647
11363TIP3   OH234045   0.366   0.177   1.499
11363TIP3    H134046   0.372   0.148   1.590
11363TIP3    H234047   0.392   0.269   1.502
11364TIP3   OH234048   1.362   3.490   5.396
11364TIP3    H134049   1.284   3.471   5.342
11364TIP3    H234050   1.419   3.540   5.337
11365TIP3   OH234051   0.503   1.514   4.583
11365TIP3    H134052   0.498   1.485   4.675
11365TIP3    H234053   0.591   1.551   4.575
11366TIP3   OH234054   7.845   2.739   4.721
11366TIP3    H134055   7.795   2.752   4.641
11366TIP3    H234056   7.919   2.800   4.713
11367TIP3   OH234057   8.171   4.817   1.115
11367TIP3    H134058   8.183   4.862   1.032
11367TIP3    H234059   8.241   4.850   1.171
11368TIP3   OH234060   4.732   1.593   2.998
11368TIP3    H134061   4.806   1.548   3.039
11368TIP3    H234062   4.667   1.602   3.068
11369TIP3   OH234063   3.450   5.045   0.831
11369TIP3    H134064   3.397   5.076   0.904
11369TIP3    H234065   3.439   4.950   0.831
11370TIP3   OH234066   8.156   3.928   5.225
11370TIP3    H134067   8.072   3.928   5.271
11370TIP3    H234068   8.169   3.837   5.198
11371TIP3   OH234069   3.200   4.452   4.402
11371TIP3    H134070   3.129   4.419   4.456
11371TIP3    H234071   3.171   4.539   4.374
11372TIP3   OH234072   6.307   4.599   5.431
11372TIP3    H134073   6.288   4.510   5.461
11372TIP3    H234074   6.358   4.587   5.352
11373TIP3   OH234075   2.422   7.016   5.817
11373TIP3    H134076   2.398   7.087   5.757
11373TIP3    H234077   2.357   6.948   5.802
11374TIP3   OH234078   8.178   6.688   1.531
11374TIP3    H134079   8.115   6.730   1.589
11374TIP3    H234080   8.258   6.741   1.540
11375TIP3   OH234081   3.292   2.366   6.006
11375TIP3    H134082   3.245   2.414   5.938
11375TIP3    H234083   3.384   2.376   5.983
11376TIP3   OH234084   2.491   4.637   0.517
11376TIP3    H134085   2.510   4.657   0.426
11376TIP3    H234086   2.396   4.647   0.526
11377TIP3   OH234087   2.260   3.026   2.112
11377TIP3    H134088   2.215   3.094   2.163
11377TIP3    H234089   2.273   2.955   2.174
11378TIP3   OH234090   6.601   4.890   1.989
11378TIP3    H134091   6.650   4.869   2.069
11378TIP3    H234092   6.532   4.949   2.017
11379TIP3   OH234093   4.578   6.462   1.596
11379TIP3    H134094   4.654   6.432   1.545
11379TIP3    H234095   4.551   6.385   1.646
11380TIP3   OH234096   5.993   5.809   1.270
11380TIP3    H134097   5.902   5.781   1.267
11380TIP3    H234098   6.038   5.739   1.317
11381TIP3   OH234099   1.130   2.694   0.179
11381TIP3    H134100   1.186   2.767   0.203
11381TIP3    H234101   1.087   2.722   0.097
11382TIP3   OH234102   1.819   3.813   6.575
11382TIP3    H134103   1.783   3.735   6.617
11382TIP3    H234104   1.913   3.799   6.575
11383TIP3   OH234105   1.965   5.677   4.316
11383TIP3    H134106   1.938   5.679   4.408
11383TIP3    H234107   1.918   5.751   4.276
11384TIP3   OH234108   2.294   6.243   5.105
11384TIP3    H134109   2.286   6.197   5.022
11384TIP3    H234110   2.251   6.186   5.169
11385TIP3   OH234111   1.093   7.453   2.429
11385TIP3    H134112   1.179   7.416   2.407
11385TIP3    H234113   1.043   7.378   2.460
11386TIP3   OH234114   6.393   5.779   1.365
11386TIP3    H134115   6.426   5.728   1.290
11386TIP3    H234116   6.420   5.869   1.346
11387TIP3   OH234117   1.923   2.462   1.903
11387TIP3    H134118   1.840   2.448   1.948
11387TIP3    H234119   1.978   2.388   1.929
11388TIP3   OH234120   5.514   2.425   5.881
11388TIP3    H134121   5.543   2.392   5.966
11388TIP3    H234122   5.502   2.347   5.827
11389TIP3   OH234123   4.749   0.321   1.383
11389TIP3    H134124   4.677   0.339   1.322
11389TIP3    H234125   4.705   0.304   1.467
11390TIP3   OH234126   2.803   2.261   2.635
11390TIP3    H134127   2.821   2.183   2.687
11390TIP3    H234128   2.884   2.312   2.640
11391TIP3   OH234129   0.697   0.903   5.251
11391TIP3    H134130   0.769   0.929   5.193
11391TIP3    H234131   0.740   0.860   5.324
11392TIP3   OH234132   7.740   6.612   0.975
11392TIP3    H134133   7.694   6.575   0.899
11392TIP3    H234134   7.684   6.684   1.004
11393TIP3   OH234135   1.788   6.530   3.243
11393TIP3    H134136   1.766   6.486   3.325
11393TIP3    H234137   1.705   6.562   3.210
11394TIP3   OH234138   2.228   0.973   2.542
11394TIP3    H134139   2.281   1.051   2.527
11394TIP3    H234140   2.191   0.986   2.630
11395TIP3   OH234141   5.115   5.888   0.342
11395TIP3    H134142   5.138   5.840   0.422
11395TIP3    H234143   5.042   5.839   0.304
11396TIP3   OH234144   2.968   2.209   4.850
11396TIP3    H134145   2.901   2.144   4.831
11396TIP3    H234146   2.930   2.293   4.823
11397TIP3   OH234147   2.597   0.512   1.552
11397TIP3    H134148   2.557   0.580   1.606
11397TIP3    H234149   2.665   0.473   1.607
11398TIP3   OH234150   1.846   5.470   0.081
11398TIP3    H134151   1.852   5.476  -0.015
11398TIP3    H234152   1.789   5.542   0.106
11399TIP3   OH234153   3.628   2.348   0.201
11399TIP3    H134154   3.677   2.358   0.119
11399TIP3    H234155   3.592   2.435   0.219
11400TIP3   OH234156   5.093   0.767   2.426
11400TIP3    H134157   5.098   0.844   2.482
11400TIP3    H234158   5.017   0.783   2.370
11401TIP3   OH234159   4.621   7.390   1.493
11401TIP3    H134160   4.618   7.370   1.400
11401TIP3    H234161   4.699   7.344   1.525
11402TIP3   OH234162   6.339   2.384   5.322
11402TIP3    H134163   6.362   2.356   5.233
11402TIP3    H234164   6.416   2.431   5.353
11403TIP3   OH234165   5.208   4.281   5.482
11403TIP3    H134166   5.155   4.287   5.561
11403TIP3    H234167   5.280   4.342   5.496
11404TIP3   OH234168   8.054   5.737   0.365
11404TIP3    H134169   7.973   5.782   0.388
11404TIP3    H234170   8.116   5.761   0.434
11405TIP3   OH234171   4.301   3.688   6.049
11405TIP3    H134172   4.233   3.682   6.116
11405TIP3    H234173   4.318   3.781   6.040
11406TIP3   OH234174   0.439   0.836   2.004
11406TIP3    H134175   0.523   0.855   2.045
11406TIP3    H234176   0.380   0.815   2.077
11407TIP3   OH234177   3.343   0.707   1.843
11407TIP3    H134178   3.359   0.746   1.757
11407TIP3    H234179   3.427   0.716   1.889
11408TIP3   OH234180   3.731   4.664   1.192
11408TIP3    H134181   3.667   4.731   1.168
11408TIP3    H234182   3.702   4.633   1.277
11409TIP3   OH234183   3.999   4.918   5.738
11409TIP3    H134184   3.926   4.898   5.678
11409TIP3    H234185   3.957   4.931   5.823
11410TIP3   OH234186   2.526   2.974   6.193
11410TIP3    H134187   2.541   2.882   6.171
11410TIP3    H234188   2.461   2.972   6.263
11411TIP3   OH234189   1.096   1.791   6.719
11411TIP3    H134190   1.134   1.857   6.661
11411TIP3    H234191   1.059   1.841   6.791
11412TIP3   OH234192   5.000   1.357   0.166
11412TIP3    H134193   4.969   1.272   0.196
11412TIP3    H234194   5.081   1.338   0.119
11413TIP3   OH234195   1.671   7.780   1.815
11413TIP3    H134196   1.686   7.703   1.760
11413TIP3    H234197   1.617   7.748   1.887
11414TIP3   OH234198   0.584   7.260   6.308
11414TIP3    H134199   0.629   7.256   6.224
11414TIP3    H234200   0.494   7.232   6.289
11415TIP3   OH234201   6.328   5.076   0.298
11415TIP3    H134202   6.336   5.000   0.356
11415TIP3    H234203   6.360   5.150   0.350
11416TIP3   OH234204   1.058   2.528   4.340
11416TIP3    H134205   1.068   2.492   4.428
11416TIP3    H234206   0.966   2.554   4.336
11417TIP3   OH234207   2.972   6.506   3.139
11417TIP3    H134208   2.878   6.523   3.142
11417TIP3    H234209   2.994   6.477   3.228
11418TIP3   OH234210   2.247   6.699   5.980
11418TIP3    H134211   2.227   6.792   5.968
11418TIP3    H234212   2.273   6.669   5.893
11419TIP3   OH234213   1.605   2.826   3.330
11419TIP3    H134214   1.686   2.781   3.353
11419TIP3    H234215   1.537   2.759   3.335
11420TIP3   OH234216   7.970   6.137   0.959
11420TIP3    H134217   8.040   6.190   0.996
11420TIP3    H234218   7.966   6.060   1.015
11421TIP3   OH234219   4.599   1.040   1.638
11421TIP3    H134220   4.548   0.970   1.597
11421TIP3    H234221   4.582   1.117   1.583
11422TIP3   OH234222   5.792   2.309   2.470
11422TIP3    H134223   5.737   2.301   2.392
11422TIP3    H234224   5.820   2.220   2.490
11423TIP3   OH234225   6.980   3.093   3.843
11423TIP3    H134226   6.946   3.058   3.761
11423TIP3    H234227   6.943   3.036   3.911
11424TIP3   OH234228   7.503   4.122   5.076
11424TIP3    H134229   7.561   4.090   5.144
11424TIP3    H234230   7.445   4.184   5.120
11425TIP3   OH234231   7.000   2.023   2.881
11425TIP3    H134232   6.924   2.060   2.835
11425TIP3    H234233   7.035   2.096   2.932
11426TIP3   OH234234   5.981   1.345   6.612
11426TIP3    H134235   6.052   1.286   6.638
11426TIP3    H234236   5.907   1.288   6.592
11427TIP3   OH234237   1.907   0.657   2.043
11427TIP3    H134238   1.822   0.614   2.047
11427TIP3    H234239   1.922   0.689   2.132
11428TIP3   OH234240   2.922   1.154   2.282
11428TIP3    H134241   2.873   1.196   2.212
11428TIP3    H234242   2.993   1.108   2.238
11429TIP3   OH234243   5.346   6.359   0.923
11429TIP3    H134244   5.420   6.387   0.978
11429TIP3    H234245   5.311   6.441   0.887
11430TIP3   OH234246   7.766   4.358   4.650
11430TIP3    H134247   7.823   4.284   4.673
11430TIP3    H234248   7.827   4.431   4.637
11431TIP3   OH234249   2.385   5.985   1.858
11431TIP3    H134250   2.354   6.074   1.875
11431TIP3    H234251   2.433   5.991   1.775
11432TIP3   OH234252   3.956   6.779   2.354
11432TIP3    H134253   3.942   6.698   2.304
11432TIP3    H234254   3.997   6.839   2.291
11433TIP3   OH234255   1.762   4.624   0.288
11433TIP3    H134256   1.668   4.631   0.308
11433TIP3    H234257   1.772   4.537   0.252
11434TIP3   OH234258   5.402   3.506   5.800
11434TIP3    H134259   5.359   3.499   5.886
11434TIP3    H234260   5.330   3.509   5.737
11435TIP3   OH234261   0.562   2.481   0.669
11435TIP3    H134262   0.586   2.398   0.712
11435TIP3    H234263   0.641   2.534   0.674
11436TIP3   OH234264   4.596   3.733   6.508
11436TIP3    H134265   4.655   3.673   6.462
11436TIP3    H234266   4.596   3.812   6.454
11437TIP3   OH234267   5.307   4.581   3.679
11437TIP3    H134268   5.223   4.558   3.640
11437TIP3    H234269   5.333   4.503   3.729
11438TIP3   OH234270   6.359   5.760   3.092
11438TIP3    H134271   6.342   5.799   3.007
11438TIP3    H234272   6.386   5.833   3.148
11439TIP3   OH234273   0.875   2.791   5.044
11439TIP3    H134274   0.781   2.775   5.048
11439TIP3    H234275   0.915   2.716   5.087
11440TIP3   OH234276   6.801   3.428   2.758
11440TIP3    H134277   6.881   3.473   2.731
11440TIP3    H234278   6.740   3.442   2.686
11441TIP3   OH234279   0.866   0.105   6.420
11441TIP3    H134280   0.880   0.035   6.484
11441TIP3    H234281   0.797   0.159   6.457
11442TIP3   OH234282   0.977   1.390   6.426
11442TIP3    H134283   0.954   1.330   6.497
11442TIP3    H234284   0.928   1.470   6.446
11443TIP3   OH234285   2.137   7.350   3.368
11443TIP3    H134286   2.083   7.271   3.377
11443TIP3    H234287   2.077   7.416   3.335
11444TIP3   OH234288   7.550   3.813   5.945
11444TIP3    H134289   7.533   3.735   5.999
11444TIP3    H234290   7.520   3.886   5.999
11445TIP3   OH234291   5.912   6.314   0.464
11445TIP3    H134292   5.891   6.288   0.554
11445TIP3    H234293   6.005   6.337   0.467
11446TIP3   OH234294   6.416   5.546   6.283
11446TIP3    H134295   6.487   5.607   6.260
11446TIP3    H234296   6.337   5.598   6.273
11447TIP3   OH234297   6.367   4.788   3.371
11447TIP3    H134298   6.339   4.756   3.457
11447TIP3    H234299   6.431   4.856   3.390
11448TIP3   OH234300   1.493   7.142   6.038
11448TIP3    H134301   1.441   7.163   5.961
11448TIP3    H234302   1.478   7.048   6.052
11449TIP3   OH234303   7.248   5.948   5.009
11449TIP3    H134304   7.320   5.982   5.061
11449TIP3    H234305   7.287   5.928   4.924
11450TIP3   OH234306   4.582   4.588   3.315
11450TIP3    H134307   4.677   4.577   3.308
11450TIP3    H234308   4.549   4.566   3.227
11451TIP3   OH234309   5.452   1.755   4.561
11451TIP3    H134310   5.407   1.714   4.635
11451TIP3    H234311   5.392   1.823   4.530
11452TIP3   OH234312   4.492   2.015   2.701
11452TIP3    H134313   4.486   1.970   2.786
11452TIP3    H234314   4.532   2.100   2.722
11453TIP3   OH234315   6.295   0.944   0.065
11453TIP3    H134316   6.335   0.998  -0.003
11453TIP3    H234317   6.212   0.987   0.085
11454TIP3   OH234318   3.935   0.256   4.087
11454TIP3    H134319   3.950   0.170   4.049
11454TIP3    H234320   3.880   0.239   4.164
11455TIP3   OH234321   3.402   6.632   5.109
11455TIP3    H134322   3.422   6.567   5.042
11455TIP3    H234323   3.454   6.604   5.185
11456TIP3   OH234324   5.951   7.486   3.574
11456TIP3    H134325   5.926   7.528   3.492
11456TIP3    H234326   5.932   7.393   3.561
11457TIP3   OH234327   6.288   3.380   3.822
11457TIP3    H134328   6.285   3.475   3.811
11457TIP3    H234329   6.367   3.364   3.873
11458TIP3   OH234330   5.130   0.135   5.634
11458TIP3    H134331   5.107   0.043   5.644
11458TIP3    H234332   5.219   0.142   5.669
11459TIP3   OH234333   7.179   5.668   5.949
11459TIP3    H134334   7.207   5.582   5.979
11459TIP3    H234335   7.119   5.699   6.017
11460TIP3   OH234336   4.282   4.339   5.260
11460TIP3    H134337   4.353   4.378   5.311
11460TIP3    H234338   4.307   4.353   5.169
11461TIP3   OH234339   0.234   7.538   0.067
11461TIP3    H134340   0.166   7.525   0.001
11461TIP3    H234341   0.191   7.583   0.139
11462TIP3   OH234342   1.456   2.113   2.975
11462TIP3    H134343   1.412   2.055   2.912
11462TIP3    H234344   1.464   2.196   2.930
11463TIP3   OH234345   7.223   5.896   1.630
11463TIP3    H134346   7.314   5.886   1.604
11463TIP3    H234347   7.190   5.806   1.634
11464TIP3   OH234348   0.288   0.312   4.632
11464TIP3    H134349   0.375   0.306   4.672
11464TIP3    H234350   0.283   0.403   4.602
11465TIP3   OH234351   4.258   7.696   6.574
11465TIP3    H134352   4.266   7.602   6.556
11465TIP3    H234353   4.170   7.718   6.544
11466TIP3   OH234354   2.253   3.090   4.539
11466TIP3    H134355   2.307   3.169   4.546
11466TIP3    H234356   2.164   3.120   4.555
11467TIP3   OH234357   0.802   0.412   3.529
11467TIP3    H134358   0.860   0.354   3.480
11467TIP3    H234359   0.794   0.371   3.615
11468TIP3   OH234360   0.524   2.926   4.360
11468TIP3    H134361   0.591   2.859   4.350
11468TIP3    H234362   0.519   2.969   4.274
11469TIP3   OH234363   6.747   4.848   6.021
11469TIP3    H134364   6.793   4.769   6.050
11469TIP3    H234365   6.674   4.816   5.968
11470TIP3   OH234366   4.202   2.333   2.734
11470TIP3    H134367   4.285   2.370   2.701
11470TIP3    H234368   4.149   2.410   2.756
11471TIP3   OH234369   2.729   7.512   1.050
11471TIP3    H134370   2.770   7.594   1.076
11471TIP3    H234371   2.637   7.534   1.036
11472TIP3   OH234372   7.747   0.662   0.108
11472TIP3    H134373   7.745   0.753   0.138
11472TIP3    H234374   7.840   0.641   0.099
11473TIP3   OH234375   2.553   7.677   5.414
11473TIP3    H134376   2.486   7.745   5.414
11473TIP3    H234377   2.517   7.608   5.470
11474TIP3   OH234378   6.545   1.272   2.687
11474TIP3    H134379   6.599   1.323   2.627
11474TIP3    H234380   6.605   1.210   2.728
11475TIP3   OH234381   1.323   2.569   1.062
11475TIP3    H134382   1.319   2.563   0.967
11475TIP3    H234383   1.415   2.582   1.082
11476TIP3   OH234384   8.107   0.303   1.626
11476TIP3    H134385   8.178   0.322   1.565
11476TIP3    H234386   8.103   0.380   1.683
11477TIP3   OH234387   1.684   4.117   5.779
11477TIP3    H134388   1.719   4.056   5.845
11477TIP3    H234389   1.645   4.061   5.713
11478TIP3   OH234390   7.199   1.949   2.728
11478TIP3    H134391   7.118   1.977   2.770
11478TIP3    H234392   7.204   2.001   2.648
11479TIP3   OH234393   8.134   0.119   4.805
11479TIP3    H134394   8.160   0.058   4.874
11479TIP3    H234395   8.044   0.095   4.785
11480TIP3   OH234396   3.418   0.986   0.371
11480TIP3    H134397   3.507   0.970   0.339
11480TIP3    H234398   3.411   1.081   0.374
11481TIP3   OH234399   4.543   2.107   1.204
11481TIP3    H134400   4.562   2.087   1.113
11481TIP3    H234401   4.603   2.052   1.254
11482TIP3   OH234402   2.016   5.302   6.450
11482TIP3    H134403   1.969   5.246   6.511
11482TIP3    H234404   2.102   5.314   6.490
11483TIP3   OH234405   8.066   7.473   6.295
11483TIP3    H134406   8.089   7.528   6.221
11483TIP3    H234407   8.150   7.454   6.337
11484TIP3   OH234408   7.636   6.369   2.062
11484TIP3    H134409   7.688   6.449   2.049
11484TIP3    H234410   7.546   6.400   2.072
11485TIP3   OH234411   5.414   2.638   2.719
11485TIP3    H134412   5.355   2.604   2.785
11485TIP3    H234413   5.498   2.595   2.737
11486TIP3   OH234414   4.592   6.904   0.947
11486TIP3    H134415   4.618   6.826   0.995
11486TIP3    H234416   4.652   6.972   0.979
11487TIP3   OH234417   6.572   6.094   4.741
11487TIP3    H134418   6.666   6.080   4.742
11487TIP3    H234419   6.536   6.019   4.789
11488TIP3   OH234420   1.949   4.114   6.745
11488TIP3    H134421   1.933   4.188   6.687
11488TIP3    H234422   1.886   4.047   6.718
11489TIP3   OH234423   2.441   0.746   5.073
11489TIP3    H134424   2.462   0.690   5.148
11489TIP3    H234425   2.351   0.774   5.089
11490TIP3   OH234426   6.712   2.265   3.825
11490TIP3    H134427   6.731   2.190   3.769
11490TIP3    H234428   6.721   2.341   3.768
11491TIP3   OH234429   1.088   3.379   1.614
11491TIP3    H134430   1.024   3.445   1.643
11491TIP3    H234431   1.049   3.340   1.536
11492TIP3   OH234432   3.787   0.251   2.640
11492TIP3    H134433   3.735   0.178   2.606
11492TIP3    H234434   3.838   0.212   2.711
11493TIP3   OH234435   6.912   3.892   4.372
11493TIP3    H134436   6.863   3.899   4.290
11493TIP3    H234437   6.879   3.964   4.426
11494TIP3   OH234438   3.972   3.703   3.698
11494TIP3    H134439   3.975   3.613   3.730
11494TIP3    H234440   4.037   3.705   3.627
11495TIP3   OH234441   2.947   5.355   5.779
11495TIP3    H134442   2.859   5.354   5.740
11495TIP3    H234443   3.005   5.376   5.706
11496TIP3   OH234444   3.161   5.518   3.857
11496TIP3    H134445   3.075   5.558   3.870
11496TIP3    H234446   3.184   5.482   3.943
11497TIP3   OH234447   6.526   2.438   2.912
11497TIP3    H134448   6.460   2.382   2.872
11497TIP3    H234449   6.483   2.523   2.920
11498TIP3   OH234450   5.829   7.710   2.303
11498TIP3    H134451   5.839   7.735   2.395
11498TIP3    H234452   5.902   7.650   2.287
11499TIP3   OH234453   2.584   5.617   4.633
11499TIP3    H134454   2.654   5.655   4.579
11499TIP3    H234455   2.607   5.642   4.722
11500TIP3   OH234456   4.782   5.185   4.441
11500TIP3    H134457   4.805   5.204   4.532
11500TIP3    H234458   4.737   5.263   4.410
11501TIP3   OH234459   2.386   1.245   0.129
11501TIP3    H134460   2.356   1.321   0.080
11501TIP3    H234461   2.317   1.229   0.194
11502TIP3   OH234462   3.288   5.988   3.923
11502TIP3    H134463   3.319   5.905   3.885
11502TIP3    H234464   3.354   6.052   3.897
11503TIP3   OH234465   4.595   5.078   3.055
11503TIP3    H134466   4.544   4.997   3.067
11503TIP3    H234467   4.683   5.048   3.034
11504TIP3   OH234468   3.487   5.040   4.712
11504TIP3    H134469   3.517   4.960   4.755
11504TIP3    H234470   3.407   5.014   4.666
11505TIP3   OH234471   6.823   0.360   1.965
11505TIP3    H134472   6.853   0.442   1.927
11505TIP3    H234473   6.837   0.295   1.896
11506TIP3   OH234474   0.339   5.622   1.794
11506TIP3    H134475   0.427   5.659   1.808
11506TIP3    H234476   0.320   5.575   1.876
11507TIP3   OH234477   3.416   3.856   4.392
11507TIP3    H134478   3.458   3.940   4.408
11507TIP3    H234479   3.387   3.860   4.301
11508TIP3   OH234480   1.919   5.324   2.976
11508TIP3    H134481   1.930   5.243   3.026
11508TIP3    H234482   2.003   5.368   2.982
11509TIP3   OH234483   4.422   1.539  -0.014
11509TIP3    H134484   4.413   1.458   0.037
11509TIP3    H234485   4.398   1.608   0.047
11510TIP3   OH234486   4.460   7.310   1.001
11510TIP3    H134487   4.550   7.277   0.994
11510TIP3    H234488   4.460   7.388   0.945
11511TIP3   OH234489   3.585   5.869   5.911
11511TIP3    H134490   3.554   5.955   5.883
11511TIP3    H234491   3.507   5.814   5.912
11512TIP3   OH234492   7.485   7.709   3.957
11512TIP3    H134493   7.393   7.684   3.948
11512TIP3    H234494   7.522   7.643   4.014
11513TIP3   OH234495   3.882   4.167   3.484
11513TIP3    H134496   3.893   4.259   3.458
11513TIP3    H234497   3.820   4.170   3.557
11514TIP3   OH234498   7.907   3.961   5.082
11514TIP3    H134499   7.893   3.886   5.140
11514TIP3    H234500   7.836   3.955   5.018
11515TIP3   OH234501   3.269   1.249   2.067
11515TIP3    H134502   3.304   1.290   2.146
11515TIP3    H234503   3.231   1.166   2.098
11516TIP3   OH234504   1.493   1.759   6.351
11516TIP3    H134505   1.413   1.781   6.305
11516TIP3    H234506   1.510   1.668   6.327
11517TIP3   OH234507   4.756   5.490   1.118
11517TIP3    H134508   4.735   5.438   1.196
11517TIP3    H234509   4.844   5.524   1.134
11518TIP3   OH234510   7.040   4.217   4.868
11518TIP3    H134511   6.971   4.267   4.912
11518TIP3    H234512   7.121   4.258   4.898
11519TIP3   OH234513   0.752   1.758   1.700
11519TIP3    H134514   0.747   1.664   1.717
11519TIP3    H234515   0.821   1.767   1.635
11520TIP3   OH234516   3.572   4.888   1.145
11520TIP3    H134517   3.480   4.888   1.118
11520TIP3    H234518   3.597   4.980   1.141
11521TIP3   OH234519   1.073   6.324   6.080
11521TIP3    H134520   1.096   6.417   6.079
11521TIP3    H234521   1.046   6.307   6.171
11522TIP3   OH234522   2.875   6.261   1.079
11522TIP3    H134523   2.922   6.203   1.139
11522TIP3    H234524   2.928   6.341   1.077
11523TIP3   OH234525   6.291   4.747   0.771
11523TIP3    H134526   6.320   4.701   0.692
11523TIP3    H234527   6.212   4.793   0.744
11524TIP3   OH234528   4.898   3.658   3.323
11524TIP3    H134529   4.813   3.645   3.366
11524TIP3    H234530   4.909   3.753   3.320
11525TIP3   OH234531   5.918   6.975   6.033
11525TIP3    H134532   5.913   7.007   6.123
11525TIP3    H234533   5.832   6.996   5.995
11526TIP3   OH234534   6.328   1.697   2.252
11526TIP3    H134535   6.258   1.744   2.297
11526TIP3    H234536   6.340   1.617   2.302
11527TIP3   OH234537   8.319   5.872   1.171
11527TIP3    H134538   8.241   5.826   1.202
11527TIP3    H234539   8.391   5.813   1.192
11528TIP3   OH234540   1.840   1.016   3.578
11528TIP3    H134541   1.888   1.052   3.503
11528TIP3    H234542   1.897   0.947   3.612
11529TIP3   OH234543   7.526   2.415   6.581
11529TIP3    H134544   7.513   2.334   6.532
11529TIP3    H234545   7.517   2.484   6.515
11530TIP3   OH234546   1.892   7.416   4.201
11530TIP3    H134547   1.883   7.511   4.211
11530TIP3    H234548   1.951   7.405   4.127
11531TIP3   OH234549   5.358   4.284   0.519
11531TIP3    H134550   5.426   4.337   0.477
11531TIP3    H234551   5.386   4.193   0.504
11532TIP3   OH234552   8.047   6.195   2.038
11532TIP3    H134553   8.001   6.119   2.002
11532TIP3    H234554   8.101   6.227   1.966
11533TIP3   OH234555   0.399   1.527   3.558
11533TIP3    H134556   0.411   1.543   3.464
11533TIP3    H234557   0.467   1.579   3.601
11534TIP3   OH234558   5.143   4.413   4.250
11534TIP3    H134559   5.198   4.405   4.173
11534TIP3    H234560   5.160   4.334   4.301
11535TIP3   OH234561   6.377   4.115   1.227
11535TIP3    H134562   6.375   4.070   1.142
11535TIP3    H234563   6.322   4.192   1.214
11536TIP3   OH234564   0.924   6.094   3.349
11536TIP3    H134565   0.927   6.056   3.262
11536TIP3    H234566   0.879   6.029   3.403
11537TIP3   OH234567   1.188   0.622   2.607
11537TIP3    H134568   1.141   0.545   2.573
11537TIP3    H234569   1.138   0.649   2.684
11538TIP3   OH234570   6.017   2.086   0.244
11538TIP3    H134571   6.059   2.085   0.158
11538TIP3    H234572   6.061   2.016   0.292
11539TIP3   OH234573   6.797   1.426   2.586
11539TIP3    H134574   6.865   1.486   2.555
11539TIP3    H234575   6.742   1.479   2.643
11540TIP3   OH234576   8.241   5.033   1.896
11540TIP3    H134577   8.198   4.949   1.915
11540TIP3    H234578   8.233   5.083   1.978
11541TIP3   OH234579   7.116   5.746   0.657
11541TIP3    H134580   7.091   5.800   0.582
11541TIP3    H234581   7.130   5.810   0.728
11542TIP3   OH234582   2.522   2.681   2.467
11542TIP3    H134583   2.557   2.728   2.391
11542TIP3    H234584   2.468   2.611   2.429
11543TIP3   OH234585   7.451   2.024   4.161
11543TIP3    H134586   7.364   2.061   4.178
11543TIP3    H234587   7.493   2.088   4.104
11544TIP3   OH234588   8.264   4.988   5.660
11544TIP3    H134589   8.177   4.996   5.700
11544TIP3    H234590   8.260   4.906   5.610
11545TIP3   OH234591   0.891   0.680   3.093
11545TIP3    H134592   0.843   0.617   3.147
11545TIP3    H234593   0.886   0.763   3.142
11546TIP3   OH234594   2.848   1.545   6.122
11546TIP3    H134595   2.848   1.473   6.059
11546TIP3    H234596   2.935   1.543   6.160
11547TIP3   OH234597   0.850   6.795   4.500
11547TIP3    H134598   0.814   6.817   4.413
11547TIP3    H234599   0.869   6.880   4.540
11548TIP3   OH234600   7.079   3.075   3.450
11548TIP3    H134601   7.146   3.143   3.460
11548TIP3    H234602   7.121   2.995   3.482
11549TIP3   OH234603   0.833   5.742   5.236
11549TIP3    H134604   0.765   5.798   5.272
11549TIP3    H234605   0.828   5.756   5.141
11550TIP3   OH234606   7.037   2.125   2.202
11550TIP3    H134607   7.069   2.101   2.115
11550TIP3    H234608   6.986   2.205   2.188
11551TIP3   OH234609   8.003   4.161   1.630
11551TIP3    H134610   8.034   4.096   1.694
11551TIP3    H234611   7.992   4.111   1.549
11552TIP3   OH234612   6.601   6.389   0.223
11552TIP3    H134613   6.598   6.370   0.129
11552TIP3    H234614   6.616   6.304   0.264
11553TIP3   OH234615   6.422   3.381   3.272
11553TIP3    H134616   6.368   3.364   3.349
11553TIP3    H234617   6.512   3.372   3.304
11554TIP3   OH234618   3.946   5.045   2.829
11554TIP3    H134619   3.851   5.045   2.819
11554TIP3    H234620   3.965   5.128   2.873
11555TIP3   OH234621   3.111   2.223   4.563
11555TIP3    H134622   3.057   2.192   4.490
11555TIP3    H234623   3.049   2.237   4.634
11556TIP3   OH234624   5.447   4.082   4.266
11556TIP3    H134625   5.490   4.168   4.269
11556TIP3    H234626   5.357   4.099   4.293
11557TIP3   OH234627   4.138   0.766   4.835
11557TIP3    H134628   4.179   0.851   4.816
11557TIP3    H234629   4.192   0.729   4.905
11558TIP3   OH234630   7.545   4.787   2.838
11558TIP3    H134631   7.503   4.707   2.870
11558TIP3    H234632   7.608   4.809   2.907
11559TIP3   OH234633   4.593   2.949   5.662
11559TIP3    H134634   4.503   2.980   5.676
11559TIP3    H234635   4.611   2.970   5.571
11560TIP3   OH234636   5.234   0.049   3.126
11560TIP3    H134637   5.271  -0.022   3.075
11560TIP3    H234638   5.159   0.080   3.075
11561TIP3   OH234639   5.648   3.859   2.326
11561TIP3    H134640   5.702   3.903   2.260
11561TIP3    H234641   5.701   3.861   2.406
11562TIP3   OH234642   4.945   0.437   1.824
11562TIP3    H134643   4.990   0.461   1.743
11562TIP3    H234644   4.953   0.342   1.829
11563TIP3   OH234645   7.871   5.661   6.164
11563TIP3    H134646   7.906   5.747   6.141
11563TIP3    H234647   7.776   5.673   6.165
11564TIP3   OH234648   2.062   5.102   1.777
11564TIP3    H134649   2.142   5.051   1.792
11564TIP3    H234650   2.093   5.193   1.771
11565TIP3   OH234651   2.441   0.703   6.025
11565TIP3    H134652   2.414   0.697   5.933
11565TIP3    H234653   2.358   0.709   6.073
11566TIP3   OH234654   5.229   3.623   0.480
11566TIP3    H134655   5.136   3.622   0.499
11566TIP3    H234656   5.234   3.607   0.385
11567TIP3   OH234657   4.340   2.400   4.711
11567TIP3    H134658   4.372   2.402   4.621
11567TIP3    H234659   4.410   2.358   4.760
11568TIP3   OH234660   0.563   3.246   4.760
11568TIP3    H134661   0.611   3.194   4.696
11568TIP3    H234662   0.583   3.337   4.737
11569TIP3   OH234663   1.384   0.025   2.202
11569TIP3    H134664   1.319   0.093   2.180
11569TIP3    H234665   1.411  -0.010   2.117
11570TIP3   OH234666   2.604   3.934   4.990
11570TIP3    H134667   2.673   3.922   5.055
11570TIP3    H234668   2.568   3.846   4.977
11571TIP3   OH234669   6.645   0.970   6.226
11571TIP3    H134670   6.648   0.918   6.145
11571TIP3    H234671   6.551   0.983   6.242
11572TIP3   OH234672   8.211   3.223   2.093
11572TIP3    H134673   8.130   3.175   2.077
11572TIP3    H234674   8.186   3.296   2.150
11573TIP3   OH234675   0.867   4.679   4.787
11573TIP3    H134676   0.846   4.638   4.703
11573TIP3    H234677   0.927   4.617   4.829
11574TIP3   OH234678   1.454   0.881   4.960
11574TIP3    H134679   1.537   0.892   5.006
11574TIP3    H234680   1.477   0.886   4.867
11575TIP3   OH234681   6.551   3.209   4.554
11575TIP3    H134682   6.533   3.248   4.640
11575TIP3    H234683   6.580   3.120   4.574
11576TIP3   OH234684   3.644   4.883   5.937
11576TIP3    H134685   3.711   4.952   5.939
11576TIP3    H234686   3.582   4.913   5.870
11577TIP3   OH234687   3.154   5.805   4.809
11577TIP3    H134688   3.103   5.739   4.856
11577TIP3    H234689   3.245   5.773   4.814
11578TIP3   OH234690   1.409   0.738   5.797
11578TIP3    H134691   1.437   0.809   5.740
11578TIP3    H234692   1.422   0.659   5.745
11579TIP3   OH234693   5.676   4.521   2.127
11579TIP3    H134694   5.617   4.503   2.053
11579TIP3    H234695   5.695   4.435   2.164
11580TIP3   OH234696   3.468   3.989   0.014
11580TIP3    H134697   3.501   3.899   0.016
11580TIP3    H234698   3.418   3.997   0.095
11581TIP3   OH234699   1.354   3.570   0.385
11581TIP3    H134700   1.351   3.543   0.294
11581TIP3    H234701   1.267   3.604   0.403
11582TIP3   OH234702   7.536   5.163   1.276
11582TIP3    H134703   7.617   5.113   1.268
11582TIP3    H234704   7.470   5.099   1.299
11583TIP3   OH234705   5.064   5.213   2.717
11583TIP3    H134706   5.099   5.171   2.796
11583TIP3    H234707   4.972   5.187   2.715
11584TIP3   OH234708   0.647   5.688   6.831
11584TIP3    H134709   0.697   5.717   6.755
11584TIP3    H234710   0.707   5.698   6.905
11585TIP3   OH234711   3.863   3.827   2.055
11585TIP3    H134712   3.862   3.919   2.029
11585TIP3    H234713   3.801   3.821   2.127
11586TIP3   OH234714   6.742   7.061   5.155
11586TIP3    H134715   6.800   6.985   5.162
11586TIP3    H234716   6.667   7.030   5.105
11587TIP3   OH234717   5.242   5.404   4.085
11587TIP3    H134718   5.246   5.425   4.178
11587TIP3    H234719   5.256   5.309   4.081
11588TIP3   OH234720   6.957   2.709   1.654
11588TIP3    H134721   7.049   2.691   1.669
11588TIP3    H234722   6.935   2.780   1.714
11589TIP3   OH234723   5.324   6.865   2.384
11589TIP3    H134724   5.289   6.799   2.445
11589TIP3    H234725   5.296   6.835   2.298
11590TIP3   OH234726   7.711   0.907   1.197
11590TIP3    H134727   7.688   0.963   1.271
11590TIP3    H234728   7.691   0.818   1.226
11591TIP3   OH234729   3.906   4.056   5.013
11591TIP3    H134730   3.950   4.141   5.009
11591TIP3    H234731   3.860   4.057   5.097
11592TIP3   OH234732   3.487   6.695   4.728
11592TIP3    H134733   3.504   6.601   4.733
11592TIP3    H234734   3.471   6.721   4.819
11593TIP3   OH234735   7.610   1.607   2.108
11593TIP3    H134736   7.567   1.523   2.093
11593TIP3    H234737   7.656   1.596   2.192
11594TIP3   OH234738   3.507   0.226   5.476
11594TIP3    H134739   3.563   0.282   5.529
11594TIP3    H234740   3.532   0.247   5.386
11595TIP3   OH234741   8.177   5.263   1.736
11595TIP3    H134742   8.195   5.195   1.801
11595TIP3    H234743   8.249   5.326   1.747
11596TIP3   OH234744   3.029   0.890   3.099
11596TIP3    H134745   2.998   0.890   3.190
11596TIP3    H234746   2.949   0.878   3.047
11597TIP3   OH234747   2.748   3.886  -0.057
11597TIP3    H134748   2.781   3.842  -0.135
11597TIP3    H234749   2.698   3.818  -0.010
11598TIP3   OH234750   0.735   6.319   3.229
11598TIP3    H134751   0.763   6.237   3.270
11598TIP3    H234752   0.761   6.387   3.292
11599TIP3   OH234753   6.614   5.599   5.085
11599TIP3    H134754   6.637   5.562   5.001
11599TIP3    H234755   6.534   5.554   5.111
11600TIP3   OH234756   5.406   0.321   1.254
11600TIP3    H134757   5.459   0.316   1.174
11600TIP3    H234758   5.372   0.410   1.254
11601TIP3   OH234759   6.140   2.044   1.609
11601TIP3    H134760   6.076   2.102   1.650
11601TIP3    H234761   6.161   2.087   1.526
11602TIP3   OH234762   1.080   3.874   5.664
11602TIP3    H134763   1.114   3.829   5.586
11602TIP3    H234764   1.091   3.967   5.644
11603TIP3   OH234765   4.297   4.247   4.768
11603TIP3    H134766   4.323   4.167   4.813
11603TIP3    H234767   4.253   4.217   4.688
11604TIP3   OH234768   2.004   0.331   0.053
11604TIP3    H134769   2.023   0.420   0.021
11604TIP3    H234770   1.944   0.295  -0.012
11605TIP3   OH234771   6.753   3.089   2.288
11605TIP3    H134772   6.787   3.175   2.311
11605TIP3    H234773   6.743   3.044   2.371
11606TIP3   OH234774   7.738   2.785   5.825
11606TIP3    H134775   7.646   2.811   5.822
11606TIP3    H234776   7.757   2.777   5.919
11607TIP3   OH234777   8.111   0.194   5.916
11607TIP3    H134778   8.056   0.125   5.951
11607TIP3    H234779   8.160   0.227   5.992
11608TIP3   OH234780   0.505   7.085   6.796
11608TIP3    H134781   0.505   6.995   6.764
11608TIP3    H234782   0.570   7.130   6.742
11609TIP3   OH234783   7.853   6.261   1.638
11609TIP3    H134784   7.944   6.251   1.666
11609TIP3    H234785   7.856   6.326   1.569
11610TIP3   OH234786   7.466   2.118   0.413
11610TIP3    H134787   7.463   2.168   0.494
11610TIP3    H234788   7.477   2.027   0.441
11611TIP3   OH234789   4.096   0.092   0.920
11611TIP3    H134790   4.058   0.112   1.005
11611TIP3    H234791   4.149   0.014   0.935
11612TIP3   OH234792   1.752   0.078   3.814
11612TIP3    H134793   1.829   0.084   3.757
11612TIP3    H234794   1.687   0.135   3.772
11613TIP3   OH234795   3.614   1.542   5.000
11613TIP3    H134796   3.575   1.620   4.959
11613TIP3    H234797   3.664   1.577   5.073
11614TIP3   OH234798   2.319   5.623   0.547
11614TIP3    H134799   2.322   5.647   0.640
11614TIP3    H234800   2.336   5.528   0.546
11615TIP3   OH234801   6.682   7.058   1.428
11615TIP3    H134802   6.647   6.984   1.378
11615TIP3    H234803   6.679   7.132   1.368
11616TIP3   OH234804   3.356   1.638   2.894
11616TIP3    H134805   3.280   1.606   2.943
11616TIP3    H234806   3.428   1.633   2.957
11617TIP3   OH234807   4.142   2.112   0.482
11617TIP3    H134808   4.221   2.107   0.536
11617TIP3    H234809   4.144   2.200   0.445
11618TIP3   OH234810   4.634   1.264   6.152
11618TIP3    H134811   4.718   1.310   6.146
11618TIP3    H234812   4.630   1.232   6.242
11619TIP3   OH234813   2.471   6.428   3.792
11619TIP3    H134814   2.491   6.469   3.876
11619TIP3    H234815   2.407   6.487   3.752
11620TIP3   OH234816   7.102   1.269   6.041
11620TIP3    H134817   7.150   1.301   6.118
11620TIP3    H234818   7.166   1.274   5.970
11621TIP3   OH234819   4.360   1.321   3.376
11621TIP3    H134820   4.314   1.393   3.418
11621TIP3    H234821   4.302   1.246   3.387
11622TIP3   OH234822   6.796   6.116   1.807
11622TIP3    H134823   6.890   6.124   1.793
11622TIP3    H234824   6.759   6.197   1.773
11623TIP3   OH234825   1.328   1.268   6.589
11623TIP3    H134826   1.234   1.253   6.604
11623TIP3    H234827   1.370   1.186   6.613
11624TIP3   OH234828   7.847   4.533   6.557
11624TIP3    H134829   7.779   4.467   6.573
11624TIP3    H234830   7.837   4.555   6.464
11625TIP3   OH234831   4.034   3.490   4.919
11625TIP3    H134832   4.015   3.500   4.826
11625TIP3    H234833   4.006   3.573   4.958
11626TIP3   OH234834   1.057   2.271   0.900
11626TIP3    H134835   1.056   2.204   0.831
11626TIP3    H234836   1.146   2.305   0.899
11627TIP3   OH234837   2.606   1.991   0.277
11627TIP3    H134838   2.664   1.995   0.353
11627TIP3    H234839   2.664   2.009   0.203
11628TIP3   OH234840   2.538   1.417   3.940
11628TIP3    H134841   2.608   1.445   3.881
11628TIP3    H234842   2.582   1.401   4.024
11629TIP3   OH234843   6.374   1.353   2.091
11629TIP3    H134844   6.334   1.329   2.007
11629TIP3    H234845   6.302   1.391   2.141
11630TIP3   OH234846   3.279   5.121   6.715
11630TIP3    H134847   3.242   5.082   6.636
11630TIP3    H234848   3.368   5.088   6.719
11631TIP3   OH234849   2.754   2.385   6.168
11631TIP3    H134850   2.772   2.351   6.080
11631TIP3    H234851   2.662   2.363   6.184
11632TIP3   OH234852   4.366   4.891   1.557
11632TIP3    H134853   4.326   4.977   1.571
11632TIP3    H234854   4.432   4.907   1.489
11633TIP3   OH234855   1.295   1.394   0.467
11633TIP3    H134856   1.300   1.407   0.562
11633TIP3    H234857   1.368   1.444   0.432
11634TIP3   OH234858   7.844   2.023   0.826
11634TIP3    H134859   7.922   2.017   0.771
11634TIP3    H234860   7.846   2.112   0.862
11635TIP3   OH234861   0.243   6.133   4.632
11635TIP3    H134862   0.242   6.115   4.538
11635TIP3    H234863   0.334   6.155   4.651
11636TIP3   OH234864   1.930   2.908   0.030
11636TIP3    H134865   1.896   2.992  -0.001
11636TIP3    H234866   2.006   2.891  -0.027
11637TIP3   OH234867   3.957   2.534   0.501
11637TIP3    H134868   3.926   2.585   0.576
11637TIP3    H234869   3.926   2.445   0.517
11638TIP3   OH234870   3.731   2.334   4.817
11638TIP3    H134871   3.643   2.309   4.789
11638TIP3    H234872   3.746   2.418   4.775
11639TIP3   OH234873   1.593   1.484   1.007
11639TIP3    H134874   1.643   1.558   0.971
11639TIP3    H234875   1.610   1.488   1.102
11640TIP3   OH234876   7.646   0.191   2.290
11640TIP3    H134877   7.570   0.204   2.233
11640TIP3    H234878   7.721   0.219   2.237
11641TIP3   OH234879   0.002   2.989   0.710
11641TIP3    H134880   0.057   2.936   0.652
11641TIP3    H234881   0.022   3.079   0.687
11642TIP3   OH234882   1.322   4.707   5.206
11642TIP3    H134883   1.418   4.709   5.211
11642TIP3    H234884   1.295   4.794   5.235
11643TIP3   OH234885   0.682   5.100   3.128
11643TIP3    H134886   0.593   5.125   3.154
11643TIP3    H234887   0.671   5.018   3.080
11644TIP3   OH234888   0.596   4.046   2.894
11644TIP3    H134889   0.622   4.086   2.811
11644TIP3    H234890   0.663   3.980   2.910
11645TIP3   OH234891   6.342   4.333   5.950
11645TIP3    H134892   6.429   4.325   5.989
11645TIP3    H234893   6.329   4.250   5.904
11646TIP3   OH234894   5.580   5.226   0.831
11646TIP3    H134895   5.571   5.216   0.926
11646TIP3    H234896   5.494   5.203   0.796
11647TIP3   OH234897   0.309   5.643   5.736
11647TIP3    H134898   0.275   5.730   5.757
11647TIP3    H234899   0.351   5.654   5.651
11648TIP3   OH234900   8.231   6.069   4.461
11648TIP3    H134901   8.241   5.999   4.526
11648TIP3    H234902   8.253   6.028   4.377
11649TIP3   OH234903   1.273   1.816   6.228
11649TIP3    H134904   1.293   1.867   6.149
11649TIP3    H234905   1.186   1.781   6.212
11650TIP3   OH234906   5.739   4.669   1.103
11650TIP3    H134907   5.673   4.671   1.033
11650TIP3    H234908   5.790   4.749   1.090
11651TIP3   OH234909   4.411   2.609   5.333
11651TIP3    H134910   4.384   2.640   5.419
11651TIP3    H234911   4.476   2.542   5.351
11652TIP3   OH234912   0.344   4.016   6.738
11652TIP3    H134913   0.386   4.070   6.671
11652TIP3    H234914   0.341   4.072   6.815
11653TIP3   OH234915   1.982   0.024   0.794
11653TIP3    H134916   2.060  -0.031   0.798
11653TIP3    H234917   1.999   0.095   0.856
11654TIP3   OH234918   0.609   3.943   0.754
11654TIP3    H134919   0.627   3.978   0.841
11654TIP3    H234920   0.652   4.004   0.694
11655TIP3   OH234921   6.214   1.042   3.410
11655TIP3    H134922   6.268   0.973   3.372
11655TIP3    H234923   6.161   0.997   3.476
11656TIP3   OH234924   2.700   6.981   3.953
11656TIP3    H134925   2.750   6.927   4.014
11656TIP3    H234926   2.766   7.035   3.910
11657TIP3   OH234927   7.021   1.297   3.728
11657TIP3    H134928   7.047   1.388   3.713
11657TIP3    H234929   7.067   1.272   3.808
11658TIP3   OH234930   1.974   0.208   4.506
11658TIP3    H134931   2.022   0.275   4.554
11658TIP3    H234932   1.948   0.251   4.424
11659TIP3   OH234933   6.655   2.124   5.108
11659TIP3    H134934   6.708   2.072   5.046
11659TIP3    H234935   6.639   2.065   5.181
11660TIP3   OH234936   2.915   5.702   0.482
11660TIP3    H134937   2.820   5.710   0.486
11660TIP3    H234938   2.937   5.636   0.548
11661TIP3   OH234939   8.233   1.938   1.854
11661TIP3    H134940   8.302   1.996   1.823
11661TIP3    H234941   8.214   1.882   1.778
11662TIP3   OH234942   4.641   7.715   3.780
11662TIP3    H134943   4.635   7.626   3.814
11662TIP3    H234944   4.634   7.706   3.685
11663TIP3   OH234945   2.253   4.831   1.905
11663TIP3    H134946   2.195   4.799   1.974
11663TIP3    H234947   2.333   4.858   1.951
11664TIP3   OH234948   3.870   5.068   2.554
11664TIP3    H134949   3.925   5.093   2.628
11664TIP3    H234950   3.930   5.065   2.479
11665TIP3   OH234951   2.387   1.060   3.702
11665TIP3    H134952   2.364   1.126   3.768
11665TIP3    H234953   2.357   0.978   3.740
11666TIP3   OH234954   2.964   4.495   2.069
11666TIP3    H134955   2.989   4.489   1.976
11666TIP3    H234956   2.902   4.567   2.073
11667TIP3   OH234957   0.127   3.685   3.987
11667TIP3    H134958   0.111   3.596   3.956
11667TIP3    H234959   0.058   3.700   4.051
11668TIP3   OH234960   1.015   6.940   3.548
11668TIP3    H134961   0.987   6.907   3.463
11668TIP3    H234962   0.953   6.901   3.610
11669TIP3   OH234963   4.000   6.735   5.762
11669TIP3    H134964   4.066   6.702   5.823
11669TIP3    H234965   3.960   6.657   5.725
11670TIP3   OH234966   2.800   6.096   2.134
11670TIP3    H134967   2.825   6.143   2.213
11670TIP3    H234968   2.786   6.006   2.163
11671TIP3   OH234969   4.303   5.278   1.234
11671TIP3    H134970   4.252   5.201   1.210
11671TIP3    H234971   4.283   5.343   1.167
11672TIP3   OH234972   4.758   1.939   4.023
11672TIP3    H134973   4.759   2.020   3.973
11672TIP3    H234974   4.799   1.961   4.106
11673TIP3   OH234975   4.707   7.058   4.928
11673TIP3    H134976   4.760   7.115   4.872
11673TIP3    H234977   4.685   6.983   4.872
11674TIP3   OH234978   4.079   2.617   6.212
11674TIP3    H134979   4.089   2.598   6.306
11674TIP3    H234980   4.121   2.543   6.168
11675TIP3   OH234981   0.096   4.063   1.591
11675TIP3    H134982   0.187   4.093   1.586
11675TIP3    H234983   0.055   4.097   1.511
11676TIP3   OH234984   4.610   5.086   0.780
11676TIP3    H134985   4.660   5.157   0.741
11676TIP3    H234986   4.525   5.125   0.803
11677TIP3   OH234987   2.523   3.355   3.895
11677TIP3    H134988   2.438   3.381   3.931
11677TIP3    H234989   2.512   3.361   3.800
11678TIP3   OH234990   2.082   3.359   3.454
11678TIP3    H134991   2.090   3.351   3.359
11678TIP3    H234992   2.069   3.269   3.484
11679TIP3   OH234993   2.612   2.626   5.770
11679TIP3    H134994   2.578   2.555   5.716
11679TIP3    H234995   2.542   2.691   5.772
11680TIP3   OH234996   5.817   5.623   3.452
11680TIP3    H134997   5.730   5.590   3.429
11680TIP3    H234998   5.833   5.590   3.541
11681TIP3   OH234999   3.042   4.749   3.178
11681TIP3    H135000   2.958   4.707   3.158
11681TIP3    H235001   3.029   4.791   3.263
11682TIP3   OH235002   2.645   5.920   5.730
11682TIP3    H135003   2.708   5.990   5.745
11682TIP3    H235004   2.670   5.851   5.791
11683TIP3   OH235005   4.187   7.637   2.425
11683TIP3    H135006   4.236   7.625   2.344
11683TIP3    H235007   4.197   7.554   2.471
11684TIP3   OH235008   5.206   5.770   5.492
11684TIP3    H135009   5.164   5.820   5.561
11684TIP3    H235010   5.204   5.680   5.523
11685TIP3   OH235011   8.177   1.038   0.934
11685TIP3    H135012   8.204   0.965   0.879
11685TIP3    H235013   8.144   0.997   1.014
11686TIP3   OH235014   1.409   5.589   4.891
11686TIP3    H135015   1.492   5.542   4.877
11686TIP3    H235016   1.436   5.675   4.923
11687TIP3   OH235017   2.925   0.223   1.550
11687TIP3    H135018   2.919   0.253   1.459
11687TIP3    H235019   2.851   0.163   1.561
11688TIP3   OH235020   1.220   4.279   2.304
11688TIP3    H135021   1.266   4.271   2.221
11688TIP3    H235022   1.164   4.201   2.308
11689TIP3   OH235023   8.149   1.038   6.461
11689TIP3    H135024   8.243   1.027   6.478
11689TIP3    H235025   8.106   0.984   6.528
11690TIP3   OH235026   5.966   0.804   5.320
11690TIP3    H135027   6.050   0.840   5.293
11690TIP3    H235028   5.988   0.741   5.389
11691TIP3   OH235029   8.226   5.691   4.312
11691TIP3    H135030   8.241   5.784   4.294
11691TIP3    H235031   8.153   5.690   4.374
11692TIP3   OH235032   6.140   5.977   4.458
11692TIP3    H135033   6.205   5.908   4.445
11692TIP3    H235034   6.112   5.966   4.549
11693TIP3   OH235035   4.143   2.829   0.714
11693TIP3    H135036   4.223   2.787   0.682
11693TIP3    H235037   4.120   2.892   0.646
11694TIP3   OH235038   2.180   4.283   1.142
11694TIP3    H135039   2.129   4.261   1.064
11694TIP3    H235040   2.178   4.203   1.194
11695TIP3   OH235041   1.991   0.398   0.821
11695TIP3    H135042   2.054   0.460   0.857
11695TIP3    H235043   1.938   0.450   0.761
11696TIP3   OH235044   4.714   7.157   6.479
11696TIP3    H135045   4.687   7.067   6.465
11696TIP3    H235046   4.719   7.166   6.575
11697TIP3   OH235047   2.975   5.021   0.976
11697TIP3    H135048   2.901   4.973   0.940
11697TIP3    H235049   3.006   4.967   1.049
11698TIP3   OH235050   3.879   5.766   4.319
11698TIP3    H135051   3.859   5.774   4.226
11698TIP3    H235052   3.953   5.824   4.333
11699TIP3   OH235053   7.623   6.613   2.359
11699TIP3    H135054   7.574   6.667   2.296
11699TIP3    H235055   7.620   6.664   2.440
11700TIP3   OH235056   1.077   7.621   1.871
11700TIP3    H135057   1.077   7.695   1.810
11700TIP3    H235058   1.088   7.661   1.957
11701TIP3   OH235059   2.291   4.194   0.049
11701TIP3    H135060   2.302   4.258   0.119
11701TIP3    H235061   2.255   4.116   0.092
11702TIP3   OH235062   0.700   3.502   0.957
11702TIP3    H135063   0.636   3.558   1.000
11702TIP3    H235064   0.746   3.458   1.028
11703TIP3   OH235065   3.738   0.844   3.832
11703TIP3    H135066   3.708   0.760   3.867
11703TIP3    H235067   3.816   0.822   3.781
11704TIP3   OH235068   7.441   2.570   0.957
11704TIP3    H135069   7.406   2.627   1.025
11704TIP3    H235070   7.516   2.527   0.998
11705TIP3   OH235071   4.712   1.685   4.385
11705TIP3    H135072   4.707   1.592   4.406
11705TIP3    H235073   4.711   1.689   4.290
11706TIP3   OH235074   2.112   2.036   3.164
11706TIP3    H135075   2.071   2.063   3.247
11706TIP3    H235076   2.120   2.117   3.114
11707TIP3   OH235077   3.628   2.446   5.751
11707TIP3    H135078   3.586   2.360   5.751
11707TIP3    H235079   3.721   2.429   5.763
11708TIP3   OH235080   3.961   0.711   6.622
11708TIP3    H135081   3.992   0.763   6.549
11708TIP3    H235082   3.961   0.772   6.696
11709TIP3   OH235083   3.459   5.994   3.640
11709TIP3    H135084   3.539   5.942   3.642
11709TIP3    H235085   3.406   5.954   3.571
11710TIP3   OH235086   7.075   7.440   4.840
11710TIP3    H135087   7.129   7.493   4.781
11710TIP3    H235088   7.056   7.360   4.790
11711TIP3   OH235089   0.584   6.245   0.146
11711TIP3    H135090   0.502   6.289   0.122
11711TIP3    H235091   0.592   6.261   0.240
11712TIP3   OH235092   8.285   3.506   3.536
11712TIP3    H135093   8.251   3.498   3.447
11712TIP3    H235094   8.256   3.426   3.580
11713TIP3   OH235095   3.204   1.434   0.402
11713TIP3    H135096   3.172   1.524   0.410
11713TIP3    H235097   3.208   1.418   0.308
11714TIP3   OH235098   5.993   3.228   2.556
11714TIP3    H135099   5.911   3.268   2.527
11714TIP3    H235100   6.000   3.148   2.505
11715TIP3   OH235101   0.746   7.397   3.142
11715TIP3    H135102   0.790   7.313   3.149
11715TIP3    H235103   0.771   7.444   3.222
11716TIP3   OH235104   2.811   0.638   0.104
11716TIP3    H135105   2.889   0.689   0.123
11716TIP3    H235106   2.771   0.682   0.029
11717TIP3   OH235107   2.842   3.861   3.479
11717TIP3    H135108   2.898   3.898   3.411
11717TIP3    H235109   2.781   3.804   3.431
11718TIP3   OH235110   3.500   7.017   3.084
11718TIP3    H135111   3.446   6.954   3.131
11718TIP3    H235112   3.474   7.102   3.119
11719TIP3   OH235113   0.138   0.521   3.143
11719TIP3    H135114   0.139   0.572   3.062
11719TIP3    H235115   0.087   0.574   3.204
11720TIP3   OH235116   2.962   3.247   5.765
11720TIP3    H135117   3.034   3.197   5.803
11720TIP3    H235118   2.887   3.226   5.821
11721TIP3   OH235119   5.956   6.284   1.344
11721TIP3    H135120   5.878   6.238   1.375
11721TIP3    H235121   5.927   6.375   1.333
11722TIP3   OH235122   2.513   0.639   4.817
11722TIP3    H135123   2.524   0.697   4.893
11722TIP3    H235124   2.537   0.552   4.850
11723TIP3   OH235125   8.282   2.186   6.131
11723TIP3    H135126   8.228   2.133   6.190
11723TIP3    H235127   8.285   2.137   6.049
11724TIP3   OH235128   6.562   1.200   6.466
11724TIP3    H135129   6.621   1.273   6.485
11724TIP3    H235130   6.497   1.237   6.406
11725TIP3   OH235131   0.751   3.701   0.745
11725TIP3    H135132   0.696   3.778   0.758
11725TIP3    H235133   0.737   3.648   0.824
11726TIP3   OH235134   6.618   0.067   2.518
11726TIP3    H135135   6.534   0.060   2.474
11726TIP3    H235136   6.679   0.095   2.450
11727TIP3   OH235137   3.367   4.352   1.913
11727TIP3    H135138   3.360   4.270   1.961
11727TIP3    H235139   3.362   4.326   1.821
11728TIP3   OH235140   4.888   7.550   3.263
11728TIP3    H135141   4.963   7.556   3.322
11728TIP3    H235142   4.812   7.569   3.319
11729TIP3   OH235143   6.770   5.696   6.433
11729TIP3    H135144   6.725   5.723   6.514
11729TIP3    H235145   6.860   5.724   6.446
11730TIP3   OH235146   5.516   1.398   5.566
11730TIP3    H135147   5.584   1.360   5.511
11730TIP3    H235148   5.542   1.375   5.656
11731TIP3   OH235149   1.887   6.709   3.886
11731TIP3    H135150   1.806   6.665   3.914
11731TIP3    H235151   1.883   6.709   3.791
11732TIP3   OH235152   7.776   3.912   2.843
11732TIP3    H135153   7.772   3.858   2.764
11732TIP3    H235154   7.834   3.863   2.902
11733TIP3   OH235155   7.656   6.506   5.626
11733TIP3    H135156   7.648   6.424   5.577
11733TIP3    H235157   7.750   6.524   5.626
11734TIP3   OH235158   7.104   0.874   3.106
11734TIP3    H135159   7.095   0.868   3.011
11734TIP3    H235160   7.093   0.784   3.137
11735TIP3   OH235161   7.171   6.024   5.462
11735TIP3    H135162   7.242   6.049   5.521
11735TIP3    H235163   7.202   5.944   5.419
11736TIP3   OH235164   6.317   4.537   3.884
11736TIP3    H135165   6.368   4.459   3.901
11736TIP3    H235166   6.233   4.521   3.928
11737TIP3   OH235167   1.802   4.407   0.567
11737TIP3    H135168   1.777   4.495   0.596
11737TIP3    H235169   1.751   4.348   0.623
11738TIP3   OH235170   4.899   5.814   2.364
11738TIP3    H135171   4.856   5.786   2.283
11738TIP3    H235172   4.878   5.907   2.371
11739TIP3   OH235173   2.303   7.022   6.131
11739TIP3    H135174   2.363   7.095   6.116
11739TIP3    H235175   2.279   7.030   6.223
11740TIP3   OH235176   7.084   4.642   0.023
11740TIP3    H135177   7.137   4.632   0.101
11740TIP3    H235178   7.051   4.554   0.005
11741TIP3   OH235179   3.957   5.550   1.131
11741TIP3    H135180   3.961   5.527   1.224
11741TIP3    H235181   3.964   5.466   1.085
11742TIP3   OH235182   1.799   6.653   0.819
11742TIP3    H135183   1.877   6.688   0.863
11742TIP3    H235184   1.727   6.672   0.878
11743TIP3   OH235185   7.493   6.632   3.847
11743TIP3    H135186   7.421   6.650   3.907
11743TIP3    H235187   7.462   6.558   3.794
11744TIP3   OH235188   4.996   4.727   6.490
11744TIP3    H135189   4.928   4.712   6.425
11744TIP3    H235190   5.056   4.653   6.481
11745TIP3   OH235191   4.460   4.955   3.953
11745TIP3    H135192   4.502   4.961   3.867
11745TIP3    H235193   4.384   4.899   3.938
11746TIP3   OH235194   0.423   6.431   2.641
11746TIP3    H135195   0.379   6.441   2.557
11746TIP3    H235196   0.363   6.470   2.704
11747TIP3   OH235197   0.261   6.912   6.043
11747TIP3    H135198   0.177   6.866   6.046
11747TIP3    H235199   0.325   6.843   6.024
11748TIP3   OH235200   5.112   0.728   4.226
11748TIP3    H135201   5.084   0.637   4.225
11748TIP3    H235202   5.202   0.725   4.257
11749TIP3   OH235203   2.824   3.485   4.816
11749TIP3    H135204   2.876   3.509   4.893
11749TIP3    H235205   2.746   3.442   4.853
11750TIP3   OH235206   6.286   1.373   3.689
11750TIP3    H135207   6.266   1.332   3.606
11750TIP3    H235208   6.259   1.465   3.678
11751TIP3   OH235209   7.429   2.611   0.160
11751TIP3    H135210   7.525   2.609   0.158
11751TIP3    H235211   7.407   2.703   0.166
11752TIP3   OH235212   6.941   4.904   6.542
11752TIP3    H135213   6.991   4.986   6.534
11752TIP3    H235214   6.850   4.933   6.554
11753TIP3   OH235215   0.544   6.854   3.804
11753TIP3    H135216   0.541   6.759   3.798
11753TIP3    H235217   0.471   6.877   3.862
11754TIP3   OH235218   3.739   3.650   0.719
11754TIP3    H135219   3.810   3.713   0.713
11754TIP3    H235220   3.774   3.578   0.771
11755TIP3   OH235221   4.573   7.472   5.968
11755TIP3    H135222   4.593   7.378   5.965
11755TIP3    H235223   4.615   7.502   6.049
11756TIP3   OH235224   3.095   1.562   5.502
11756TIP3    H135225   3.108   1.473   5.532
11756TIP3    H235226   3.174   1.609   5.531
11757TIP3   OH235227   4.359   6.848   3.307
11757TIP3    H135228   4.413   6.904   3.250
11757TIP3    H235229   4.422   6.808   3.368
11758TIP3   OH235230   7.338   6.983   4.088
11758TIP3    H135231   7.377   7.067   4.065
11758TIP3    H235232   7.258   7.006   4.135
11759TIP3   OH235233   7.785   5.493   2.166
11759TIP3    H135234   7.814   5.531   2.083
11759TIP3    H235235   7.731   5.561   2.206
11760TIP3   OH235236   0.299   1.188   5.110
11760TIP3    H135237   0.393   1.202   5.116
11760TIP3    H235238   0.288   1.122   5.042
11761TIP3   OH235239   2.102   0.800   1.921
11761TIP3    H135240   2.079   0.891   1.937
11761TIP3    H235241   2.049   0.750   1.983
11762TIP3   OH235242   3.275   7.527   5.194
11762TIP3    H135243   3.285   7.544   5.101
11762TIP3    H235244   3.348   7.470   5.216
11763TIP3   OH235245   2.632   3.528   2.727
11763TIP3    H135246   2.634   3.622   2.709
11763TIP3    H235247   2.652   3.486   2.643
11764TIP3   OH235248   5.793   0.629   1.531
11764TIP3    H135249   5.744   0.560   1.485
11764TIP3    H235250   5.833   0.681   1.462
11765TIP3   OH235251   7.811   4.913   5.137
11765TIP3    H135252   7.860   4.993   5.117
11765TIP3    H235253   7.761   4.896   5.057
11766TIP3   OH235254   5.446   1.738   1.632
11766TIP3    H135255   5.440   1.797   1.708
11766TIP3    H235256   5.445   1.650   1.669
11767TIP3   OH235257   1.043   5.714   2.566
11767TIP3    H135258   0.994   5.792   2.540
11767TIP3    H235259   0.988   5.673   2.632
11768TIP3   OH235260   7.230   5.283   0.530
11768TIP3    H135261   7.219   5.369   0.489
11768TIP3    H235262   7.287   5.235   0.470
11769TIP3   OH235263   2.596   2.214   4.070
11769TIP3    H135264   2.644   2.155   4.013
11769TIP3    H235265   2.504   2.198   4.050
11770TIP3   OH235266   5.873   4.091   4.935
11770TIP3    H135267   5.884   4.001   4.905
11770TIP3    H235268   5.923   4.095   5.017
11771TIP3   OH235269   1.540   4.851   5.028
11771TIP3    H135270   1.616   4.830   4.974
11771TIP3    H235271   1.472   4.876   4.965
11772TIP3   OH235272   1.989   7.563   0.925
11772TIP3    H135273   1.924   7.502   0.889
11772TIP3    H235274   1.968   7.570   1.018
11773TIP3   OH235275   2.679   0.082   0.787
11773TIP3    H135276   2.738   0.155   0.769
11773TIP3    H235277   2.688   0.065   0.881
11774TIP3   OH235278   5.752   0.266   2.108
11774TIP3    H135279   5.683   0.264   2.042
11774TIP3    H235280   5.826   0.309   2.065
11775TIP3   OH235281   7.341   6.791   5.935
11775TIP3    H135282   7.402   6.739   5.882
11775TIP3    H235283   7.264   6.802   5.879
11776TIP3   OH235284   1.913   7.576   5.361
11776TIP3    H135285   1.890   7.492   5.400
11776TIP3    H235286   1.884   7.570   5.270
11777TIP3   OH235287   8.100   2.851   6.141
11777TIP3    H135288   8.142   2.766   6.157
11777TIP3    H235289   8.097   2.892   6.228
11778TIP3   OH235290   3.751   1.472   4.441
11778TIP3    H135291   3.774   1.564   4.452
11778TIP3    H235292   3.830   1.424   4.465
11779TIP3   OH235293   1.684   6.900   3.891
11779TIP3    H135294   1.699   6.876   3.983
11779TIP3    H235295   1.590   6.888   3.878
11780TIP3   OH235296   4.627   5.256   6.238
11780TIP3    H135297   4.723   5.257   6.243
11780TIP3    H235298   4.599   5.293   6.321
11781TIP3   OH235299   0.053   4.527   2.213
11781TIP3    H135300   0.079   4.532   2.120
11781TIP3    H235301   0.028   4.616   2.236
11782TIP3   OH235302   7.972   3.014   0.667
11782TIP3    H135303   7.936   2.931   0.635
11782TIP3    H235304   7.899   3.055   0.713
11783TIP3   OH235305   7.934   5.797   2.694
11783TIP3    H135306   8.003   5.862   2.679
11783TIP3    H235307   7.912   5.806   2.786
11784TIP3   OH235308   1.789   7.032   2.238
11784TIP3    H135309   1.760   7.055   2.326
11784TIP3    H235310   1.746   6.948   2.220
11785TIP3   OH235311   0.076   6.138   5.268
11785TIP3    H135312   0.083   6.131   5.363
11785TIP3    H235313   0.036   6.224   5.253
11786TIP3   OH235314   1.474   5.406   1.025
11786TIP3    H135315   1.545   5.392   0.962
11786TIP3    H235316   1.491   5.343   1.095
11787TIP3   OH235317   4.176   5.468   3.025
11787TIP3    H135318   4.183   5.502   3.115
11787TIP3    H235319   4.167   5.545   2.971
11788TIP3   OH235320   6.579   5.259   5.215
11788TIP3    H135321   6.496   5.219   5.241
11788TIP3    H235322   6.561   5.299   5.130
11789TIP3   OH235323   5.734   6.033   6.413
11789TIP3    H135324   5.778   6.090   6.349
11789TIP3    H235325   5.768   5.945   6.394
11790TIP3   OH235326   5.682   4.840   2.087
11790TIP3    H135327   5.656   4.795   2.007
11790TIP3    H235328   5.627   4.802   2.155
11791TIP3   OH235329   5.858   2.809   1.971
11791TIP3    H135330   5.873   2.901   1.947
11791TIP3    H235331   5.783   2.782   1.918
11792TIP3   OH235332   3.247   2.890   1.705
11792TIP3    H135333   3.229   2.805   1.665
11792TIP3    H235334   3.163   2.917   1.743
11793TIP3   OH235335   1.197   4.617   6.230
11793TIP3    H135336   1.204   4.638   6.323
11793TIP3    H235337   1.288   4.618   6.198
11794TIP3   OH235338   0.861   7.590   0.574
11794TIP3    H135339   0.936   7.614   0.519
11794TIP3    H235340   0.880   7.631   0.659
11795TIP3   OH235341   3.141   7.427   0.313
11795TIP3    H135342   3.144   7.405   0.406
11795TIP3    H235343   3.115   7.519   0.310
11796TIP3   OH235344   4.654   4.869   0.582
11796TIP3    H135345   4.628   4.959   0.600
11796TIP3    H235346   4.716   4.847   0.652
11797TIP3   OH235347   1.725   6.107   5.923
11797TIP3    H135348   1.739   6.107   6.018
11797TIP3    H235349   1.740   6.017   5.897
11798TIP3   OH235350   2.185   0.474   6.026
11798TIP3    H135351   2.133   0.417   6.083
11798TIP3    H235352   2.125   0.496   5.954
11799TIP3   OH235353   3.973   7.110   1.842
11799TIP3    H135354   4.035   7.038   1.838
11799TIP3    H235355   3.946   7.113   1.934
11800TIP3   OH235356   0.196   6.485   4.122
11800TIP3    H135357   0.171   6.415   4.182
11800TIP3    H235358   0.150   6.562   4.155
11801TIP3   OH235359   7.240   2.128   0.972
11801TIP3    H135360   7.315   2.068   0.980
11801TIP3    H235361   7.276   2.205   0.929
11802TIP3   OH235362   2.672   0.216   3.294
11802TIP3    H135363   2.649   0.165   3.372
11802TIP3    H235364   2.765   0.200   3.281
11803TIP3   OH235365   4.267   2.365   4.281
11803TIP3    H135366   4.310   2.398   4.202
11803TIP3    H235367   4.328   2.386   4.352
11804TIP3   OH235368   1.282   6.552   2.812
11804TIP3    H135369   1.198   6.594   2.835
11804TIP3    H235370   1.257   6.466   2.778
11805TIP3   OH235371   5.824   2.645   1.306
11805TIP3    H135372   5.765   2.645   1.230
11805TIP3    H235373   5.880   2.568   1.292
11806TIP3   OH235374   7.711   1.359   1.835
11806TIP3    H135375   7.639   1.296   1.833
11806TIP3    H235376   7.694   1.417   1.761
11807TIP3   OH235377   2.722   6.267   5.561
11807TIP3    H135378   2.708   6.240   5.652
11807TIP3    H235379   2.803   6.318   5.563
11808TIP3   OH235380   0.551   1.801   5.943
11808TIP3    H135381   0.458   1.796   5.964
11808TIP3    H235382   0.590   1.726   5.988
11809TIP3   OH235383   2.854   0.962   0.707
11809TIP3    H135384   2.837   0.881   0.755
11809TIP3    H235385   2.856   0.936   0.615
11810TIP3   OH235386   6.324   3.319   2.828
11810TIP3    H135387   6.389   3.308   2.897
11810TIP3    H235388   6.341   3.247   2.768
11811TIP3   OH235389   0.764   0.459   2.560
11811TIP3    H135390   0.715   0.490   2.484
11811TIP3    H235391   0.820   0.390   2.525
11812TIP3   OH235392   2.767   5.756   3.070
11812TIP3    H135393   2.746   5.789   3.157
11812TIP3    H235394   2.824   5.823   3.032
11813TIP3   OH235395   5.308   6.888   3.424
11813TIP3    H135396   5.276   6.922   3.341
11813TIP3    H235397   5.388   6.938   3.442
11814TIP3   OH235398   0.914   5.083   5.320
11814TIP3    H135399   0.940   5.050   5.234
11814TIP3    H235400   0.819   5.078   5.320
11815TIP3   OH235401   5.330   2.293   1.505
11815TIP3    H135402   5.341   2.328   1.416
11815TIP3    H235403   5.245   2.326   1.534
11816TIP3   OH235404   5.150   1.289   0.453
11816TIP3    H135405   5.169   1.222   0.388
11816TIP3    H235406   5.111   1.242   0.526
11817TIP3   OH235407   5.632   5.942   5.650
11817TIP3    H135408   5.726   5.960   5.653
11817TIP3    H235409   5.626   5.850   5.626
11818TIP3   OH235410   5.520   7.616   4.867
11818TIP3    H135411   5.439   7.632   4.917
11818TIP3    H235412   5.574   7.564   4.926
11819TIP3   OH235413   0.985   0.280   3.346
11819TIP3    H135414   0.939   0.276   3.262
11819TIP3    H235415   1.065   0.328   3.327
11820TIP3   OH235416   2.787   2.109   3.826
11820TIP3    H135417   2.712   2.135   3.772
11820TIP3    H235418   2.860   2.101   3.764
11821TIP3   OH235419   2.730   5.837   2.249
11821TIP3    H135420   2.710   5.744   2.242
11821TIP3    H235421   2.804   5.841   2.309
11822TIP3   OH235422   0.142   0.272   1.762
11822TIP3    H135423   0.173   0.272   1.853
11822TIP3    H235424   0.163   0.360   1.730
11823TIP3   OH235425   0.580   1.320   3.371
11823TIP3    H135426   0.575   1.414   3.386
11823TIP3    H235427   0.526   1.282   3.441
11824TIP3   OH235428   4.824   5.131   5.185
11824TIP3    H135429   4.768   5.184   5.243
11824TIP3    H235430   4.850   5.191   5.115
11825TIP3   OH235431   7.826   6.088   5.324
11825TIP3    H135432   7.907   6.062   5.280
11825TIP3    H235433   7.854   6.112   5.413
11826TIP3   OH235434   1.401   3.588   2.624
11826TIP3    H135435   1.374   3.512   2.676
11826TIP3    H235436   1.328   3.650   2.634
11827TIP3   OH235437   2.242   6.217   3.307
11827TIP3    H135438   2.231   6.230   3.213
11827TIP3    H235439   2.219   6.302   3.345
11828TIP3   OH235440   1.334   3.408   6.379
11828TIP3    H135441   1.284   3.462   6.317
11828TIP3    H235442   1.312   3.318   6.356
11829TIP3   OH235443   3.967   2.785   6.719
11829TIP3    H135444   4.036   2.850   6.703
11829TIP3    H235445   3.888   2.837   6.736
11830TIP3   OH235446   2.140   3.730   5.422
11830TIP3    H135447   2.197   3.771   5.357
11830TIP3    H235448   2.197   3.669   5.468
11831TIP3   OH235449   3.599   6.869   0.558
11831TIP3    H135450   3.548   6.938   0.599
11831TIP3    H235451   3.684   6.873   0.602
11832TIP3   OH235452   6.776   4.731   3.150
11832TIP3    H135453   6.714   4.801   3.129
11832TIP3    H235454   6.787   4.684   3.068
11833TIP3   OH235455   2.350   4.089   5.267
11833TIP3    H135456   2.376   4.094   5.359
11833TIP3    H235457   2.280   4.153   5.257
11834TIP3   OH235458   7.377   7.767   6.252
11834TIP3    H135459   7.350   7.739   6.340
11834TIP3    H235460   7.472   7.765   6.254
11835TIP3   OH235461   7.024   2.745   5.153
11835TIP3    H135462   7.021   2.840   5.164
11835TIP3    H235463   6.932   2.718   5.156
11836TIP3   OH235464   7.332   7.104   6.291
11836TIP3    H135465   7.355   7.190   6.326
11836TIP3    H235466   7.414   7.071   6.255
11837TIP3   OH235467   1.616   5.775   6.021
11837TIP3    H135468   1.535   5.823   6.005
11837TIP3    H235469   1.673   5.800   5.949
11838TIP3   OH235470   0.790   4.200   0.610
11838TIP3    H135471   0.790   4.112   0.572
11838TIP3    H235472   0.881   4.227   0.608
11839TIP3   OH235473   7.621   2.879   3.041
11839TIP3    H135474   7.684   2.948   3.020
11839TIP3    H235475   7.643   2.808   2.980
11840TIP3   OH235476   5.184   1.044   0.804
11840TIP3    H135477   5.227   1.036   0.719
11840TIP3    H235478   5.253   1.074   0.863
11841TIP3   OH235479   3.250   6.816   4.268
11841TIP3    H135480   3.327   6.816   4.325
11841TIP3    H235481   3.234   6.724   4.249
11842TIP3   OH235482   3.757   6.539   5.642
11842TIP3    H135483   3.716   6.535   5.729
11842TIP3    H235484   3.721   6.620   5.604
11843TIP3   OH235485   8.047   2.543   0.143
11843TIP3    H135486   8.023   2.574   0.055
11843TIP3    H235487   8.004   2.603   0.203
11844TIP3   OH235488   3.332   4.784   0.791
11844TIP3    H135489   3.313   4.690   0.795
11844TIP3    H235490   3.397   4.793   0.722
11845TIP3   OH235491   1.491   6.349   5.170
11845TIP3    H135492   1.403   6.328   5.141
11845TIP3    H235493   1.546   6.278   5.136
11846TIP3   OH235494   2.028   7.021   1.343
11846TIP3    H135495   2.015   6.980   1.429
11846TIP3    H235496   2.061   6.951   1.288
11847TIP3   OH235497   6.036   5.168   2.365
11847TIP3    H135498   5.979   5.182   2.289
11847TIP3    H235499   5.999   5.092   2.410
11848TIP3   OH235500   0.333   0.723   0.377
11848TIP3    H135501   0.410   0.672   0.402
11848TIP3    H235502   0.323   0.708   0.283
11849TIP3   OH235503   1.978   4.471   4.920
11849TIP3    H135504   1.975   4.449   4.827
11849TIP3    H235505   1.916   4.543   4.930
11850TIP3   OH235506   2.023   7.150   3.775
11850TIP3    H135507   1.956   7.094   3.734
11850TIP3    H235508   2.088   7.088   3.809
11851TIP3   OH235509   4.522   2.291   0.861
11851TIP3    H135510   4.524   2.354   0.933
11851TIP3    H235511   4.572   2.216   0.893
11852TIP3   OH235512   1.585   0.267   2.459
11852TIP3    H135513   1.547   0.355   2.454
11852TIP3    H235514   1.651   0.266   2.390
11853TIP3   OH235515   1.361   4.080   1.040
11853TIP3    H135516   1.303   4.069   0.965
11853TIP3    H235517   1.309   4.125   1.106
11854TIP3   OH235518   6.674   3.747   4.951
11854TIP3    H135519   6.669   3.788   4.865
11854TIP3    H235520   6.750   3.788   4.993
11855TIP3   OH235521   7.557   5.317   1.778
11855TIP3    H135522   7.586   5.283   1.693
11855TIP3    H235523   7.518   5.242   1.822
11856TIP3   OH235524   0.467   3.020   4.111
11856TIP3    H135525   0.375   3.041   4.101
11856TIP3    H235526   0.488   2.967   4.034
11857TIP3   OH235527   7.937   7.562   1.953
11857TIP3    H135528   7.981   7.477   1.943
11857TIP3    H235529   7.853   7.551   1.909
11858TIP3   OH235530   4.554   3.915   2.655
11858TIP3    H135531   4.639   3.944   2.623
11858TIP3    H235532   4.574   3.856   2.728
11859TIP3   OH235533   4.671   0.844   0.293
11859TIP3    H135534   4.719   0.926   0.294
11859TIP3    H235535   4.652   0.826   0.385
11860TIP3   OH235536   2.752   0.801   1.439
11860TIP3    H135537   2.679   0.768   1.491
11860TIP3    H235538   2.817   0.732   1.441
11861TIP3   OH235539   6.171   3.630   3.541
11861TIP3    H135540   6.084   3.638   3.501
11861TIP3    H235541   6.188   3.536   3.543
11862TIP3   OH235542   3.838   2.821   4.574
11862TIP3    H135543   3.846   2.817   4.478
11862TIP3    H235544   3.923   2.852   4.604
11863TIP3   OH235545   0.749   3.318   3.229
11863TIP3    H135546   0.714   3.229   3.234
11863TIP3    H235547   0.812   3.316   3.157
11864TIP3   OH235548   0.806   7.606   0.852
11864TIP3    H135549   0.731   7.665   0.861
11864TIP3    H235550   0.785   7.533   0.911
11865TIP3   OH235551   4.731   6.354   0.845
11865TIP3    H135552   4.735   6.321   0.935
11865TIP3    H235553   4.697   6.279   0.795
11866TIP3   OH235554   6.304   5.809   2.343
11866TIP3    H135555   6.210   5.815   2.360
11866TIP3    H235556   6.326   5.719   2.364
11867TIP3   OH235557   2.960   7.607   3.900
11867TIP3    H135558   2.867   7.600   3.923
11867TIP3    H235559   2.959   7.623   3.805
11868TIP3   OH235560   2.065   0.462   6.321
11868TIP3    H135561   2.134   0.490   6.380
11868TIP3    H235562   2.014   0.541   6.304
11869TIP3   OH235563   4.254   0.751   0.122
11869TIP3    H135564   4.167   0.741   0.084
11869TIP3    H235565   4.244   0.818   0.190
11870TIP3   OH235566   3.357   2.668   6.435
11870TIP3    H135567   3.409   2.710   6.366
11870TIP3    H235568   3.299   2.608   6.388
11871TIP3   OH235569   8.205   1.462   3.376
11871TIP3    H135570   8.280   1.493   3.325
11871TIP3    H235571   8.243   1.404   3.442
11872TIP3   OH235572   0.373   7.313   0.036
11872TIP3    H135573   0.358   7.257   0.112
11872TIP3    H235574   0.325   7.393   0.054
11873TIP3   OH235575   4.708   7.614   1.958
11873TIP3    H135576   4.709   7.699   1.915
11873TIP3    H235577   4.659   7.557   1.899
11874TIP3   OH235578   3.494   7.687   1.659
11874TIP3    H135579   3.529   7.713   1.574
11874TIP3    H235580   3.552   7.616   1.688
11875TIP3   OH235581   3.214   6.640   1.116
11875TIP3    H135582   3.152   6.703   1.152
11875TIP3    H235583   3.293   6.691   1.099
11876TIP3   OH235584   1.096   0.126   4.591
11876TIP3    H135585   1.166   0.151   4.651
11876TIP3    H235586   1.021   0.107   4.647
11877TIP3   OH235587   3.812   0.271   0.526
11877TIP3    H135588   3.875   0.341   0.541
11877TIP3    H235589   3.857   0.191   0.551
11878TIP3   OH235590   1.699   1.813   2.807
11878TIP3    H135591   1.641   1.876   2.766
11878TIP3    H235592   1.647   1.732   2.812
11879TIP3   OH235593   6.806   1.390   6.484
11879TIP3    H135594   6.869   1.318   6.492
11879TIP3    H235595   6.782   1.412   6.574
11880TIP3   OH235596   5.293   7.024   5.452
11880TIP3    H135597   5.238   7.054   5.380
11880TIP3    H235598   5.282   7.091   5.520
11881TIP3   OH235599   3.971   6.716   0.544
11881TIP3    H135600   4.055   6.698   0.500
11881TIP3    H235601   3.913   6.646   0.513
11882TIP3   OH235602   2.839   6.355   4.125
11882TIP3    H135603   2.890   6.417   4.073
11882TIP3    H235604   2.750   6.390   4.123
11883TIP3   OH235605   6.767   6.589   4.507
11883TIP3    H135606   6.776   6.625   4.596
11883TIP3    H235607   6.725   6.504   4.520
11884TIP3   OH235608   2.142   3.441   1.935
11884TIP3    H135609   2.126   3.381   2.009
11884TIP3    H235610   2.060   3.489   1.924
11885TIP3   OH235611   4.403   3.129   5.751
11885TIP3    H135612   4.400   3.225   5.744
11885TIP3    H235613   4.358   3.110   5.834
11886TIP3   OH235614   0.995   0.273   3.855
11886TIP3    H135615   1.053   0.259   3.780
11886TIP3    H235616   0.907   0.274   3.819
11887TIP3   OH235617   4.724   1.499   5.924
11887TIP3    H135618   4.818   1.515   5.919
11887TIP3    H235619   4.713   1.445   6.002
11888TIP3   OH235620   5.536   0.028   5.265
11888TIP3    H135621   5.459  -0.027   5.280
11888TIP3    H235622   5.606  -0.035   5.246
11889TIP3   OH235623   7.345   3.167   3.437
11889TIP3    H135624   7.382   3.168   3.349
11889TIP3    H235625   7.415   3.201   3.493
11890TIP3   OH235626   0.098   3.667   6.632
11890TIP3    H135627   0.065   3.676   6.722
11890TIP3    H235628   0.023   3.686   6.577
11891TIP3   OH235629   1.077   4.023   4.009
11891TIP3    H135630   1.161   4.024   3.962
11891TIP3    H235631   1.017   3.977   3.950
11892TIP3   OH235632   0.514   3.470   3.345
11892TIP3    H135633   0.451   3.469   3.273
11892TIP3    H235634   0.587   3.417   3.314
11893TIP3   OH235635   2.179   1.925   5.987
11893TIP3    H135636   2.107   1.905   5.927
11893TIP3    H235637   2.256   1.889   5.944
11894TIP3   OH235638   8.197   2.177   5.440
11894TIP3    H135639   8.135   2.108   5.464
11894TIP3    H235640   8.145   2.257   5.435
11895TIP3   OH235641   3.358   0.345   1.195
11895TIP3    H135642   3.321   0.343   1.284
11895TIP3    H235643   3.316   0.272   1.150
11896TIP3   OH235644   2.544   2.280   3.759
11896TIP3    H135645   2.586   2.365   3.770
11896TIP3    H235646   2.547   2.263   3.665
11897TIP3   OH235647   1.640   1.356   2.691
11897TIP3    H135648   1.673   1.295   2.757
11897TIP3    H235649   1.714   1.413   2.670
11898TIP3   OH235650   2.948   1.339   6.385
11898TIP3    H135651   3.019   1.399   6.407
11898TIP3    H235652   2.956   1.268   6.449
11899TIP3   OH235653   0.383   6.391   1.088
11899TIP3    H135654   0.334   6.473   1.085
11899TIP3    H235655   0.471   6.416   1.118
11900TIP3   OH235656   2.249   0.134   4.743
11900TIP3    H135657   2.321   0.074   4.763
11900TIP3    H235658   2.287   0.197   4.681
11901TIP3   OH235659   4.458   4.473   4.740
11901TIP3    H135660   4.412   4.390   4.725
11901TIP3    H235661   4.421   4.533   4.675
11902TIP3   OH235662   0.640   5.643   3.410
11902TIP3    H135663   0.550   5.676   3.403
11902TIP3    H235664   0.647   5.579   3.338
11903TIP3   OH235665   6.491   4.124   1.667
11903TIP3    H135666   6.571   4.076   1.646
11903TIP3    H235667   6.494   4.202   1.611
11904TIP3   OH235668   0.019   2.799   2.629
11904TIP3    H135669  -0.034   2.854   2.686
11904TIP3    H235670   0.073   2.860   2.579
11905TIP3   OH235671   6.729   7.597   1.102
11905TIP3    H135672   6.650   7.546   1.118
11905TIP3    H235673   6.772   7.551   1.029
11906TIP3   OH235674   7.400   1.143   0.463
11906TIP3    H135675   7.345   1.206   0.509
11906TIP3    H235676   7.385   1.162   0.371
11907TIP3   OH235677   8.286   7.094   5.831
11907TIP3    H135678   8.272   7.160   5.898
11907TIP3    H235679   8.250   7.014   5.868
11908TIP3   OH235680   6.989   1.823   3.980
11908TIP3    H135681   7.083   1.830   3.998
11908TIP3    H235682   6.957   1.757   4.042
11909TIP3   OH235683   5.938   3.115   2.813
11909TIP3    H135684   5.986   3.193   2.839
11909TIP3    H235685   5.974   3.092   2.727
11910TIP3   OH235686   7.995   0.065   2.464
11910TIP3    H135687   8.038   0.057   2.378
11910TIP3    H235688   8.065   0.092   2.523
11911TIP3   OH235689   6.753   0.946   5.263
11911TIP3    H135690   6.684   0.987   5.211
11911TIP3    H235691   6.780   0.870   5.212
11912TIP3   OH235692   3.167   6.929   3.670
11912TIP3    H135693   3.145   6.897   3.582
11912TIP3    H235694   3.226   6.864   3.706
11913TIP3   OH235695   6.864   3.111   4.647
11913TIP3    H135696   6.806   3.053   4.697
11913TIP3    H235697   6.820   3.196   4.650
11914TIP3   OH235698   7.476   0.051   1.867
11914TIP3    H135699   7.437   0.102   1.938
11914TIP3    H235700   7.437   0.087   1.788
11915TIP3   OH235701   7.491   7.468   0.566
11915TIP3    H135702   7.527   7.434   0.648
11915TIP3    H235703   7.441   7.395   0.530
11916TIP3   OH235704   0.388   4.569   6.370
11916TIP3    H135705   0.458   4.630   6.348
11916TIP3    H235706   0.410   4.537   6.458
11917TIP3   OH235707   5.498   0.597   0.137
11917TIP3    H135708   5.495   0.511   0.095
11917TIP3    H235709   5.579   0.596   0.188
11918TIP3   OH235710   4.042   0.821   6.386
11918TIP3    H135711   3.999   0.852   6.306
11918TIP3    H235712   4.109   0.760   6.356
11919TIP3   OH235713   3.860   7.556   1.837
11919TIP3    H135714   3.806   7.480   1.858
11919TIP3    H235715   3.950   7.526   1.851
11920TIP3   OH235716   7.255   1.469   6.565
11920TIP3    H135717   7.349   1.457   6.549
11920TIP3    H235718   7.245   1.563   6.580
11921TIP3   OH235719   2.057   6.821   0.964
11921TIP3    H135720   2.100   6.867   0.892
11921TIP3    H235721   2.108   6.847   1.041
11922TIP3   OH235722   4.402   3.056   0.685
11922TIP3    H135723   4.348   3.135   0.682
11922TIP3    H235724   4.470   3.076   0.750
11923TIP3   OH235725   1.169   0.913   1.208
11923TIP3    H135726   1.126   0.869   1.282
11923TIP3    H235727   1.104   0.974   1.175
11924TIP3   OH235728   1.786   4.235   2.109
11924TIP3    H135729   1.696   4.260   2.128
11924TIP3    H235730   1.839   4.309   2.141
11925TIP3   OH235731   8.007   0.891   2.794
11925TIP3    H135732   8.016   0.831   2.868
11925TIP3    H235733   7.919   0.928   2.804
11926TIP3   OH235734   6.660   2.204   1.277
11926TIP3    H135735   6.609   2.271   1.231
11926TIP3    H235736   6.735   2.251   1.313
11927TIP3   OH235737   8.289   2.000   4.528
11927TIP3    H135738   8.384   2.006   4.540
11927TIP3    H235739   8.255   1.976   4.615
11928TIP3   OH235740   4.940   7.480   4.323
11928TIP3    H135741   4.912   7.543   4.256
11928TIP3    H235742   4.975   7.406   4.273
11929TIP3   OH235743   3.290   0.042   1.473
11929TIP3    H135744   3.301   0.065   1.565
11929TIP3    H235745   3.205  -0.004   1.471
11930TIP3   OH235746   6.529   0.338   5.560
11930TIP3    H135747   6.439   0.305   5.555
11930TIP3    H235748   6.523   0.417   5.614
11931TIP3   OH235749   3.438   3.468   0.590
11931TIP3    H135750   3.358   3.430   0.554
11931TIP3    H235751   3.508   3.438   0.532
11932TIP3   OH235752   4.008   0.027   0.290
11932TIP3    H135753   4.092  -0.018   0.293
11932TIP3    H235754   3.999   0.065   0.378
11933TIP3   OH235755   0.087   4.318   0.033
11933TIP3    H135756   0.117   4.228   0.042
11933TIP3    H235757   0.001   4.319   0.074
11934TIP3   OH235758   7.749   7.285   4.400
11934TIP3    H135759   7.796   7.360   4.363
11934TIP3    H235760   7.813   7.242   4.456
11935TIP3   OH235761   0.762   0.806   4.028
11935TIP3    H135762   0.852   0.790   4.057
11935TIP3    H235763   0.760   0.773   3.938
11936TIP3   OH235764   6.199   1.220   4.661
11936TIP3    H135765   6.142   1.145   4.644
11936TIP3    H235766   6.269   1.185   4.716
11937TIP3   OH235767   7.867   1.761   6.229
11937TIP3    H135768   7.918   1.691   6.271
11937TIP3    H235769   7.917   1.784   6.151
11938TIP3   OH235770   7.507   1.901   3.816
11938TIP3    H135771   7.584   1.913   3.871
11938TIP3    H235772   7.436   1.884   3.878
11939TIP3   OH235773   6.939   3.621   2.135
11939TIP3    H135774   6.991   3.697   2.162
11939TIP3    H235775   6.860   3.625   2.189
11940TIP3   OH235776   1.196   2.330   1.671
11940TIP3    H135777   1.254   2.360   1.742
11940TIP3    H235778   1.196   2.402   1.608
11941TIP3   OH235779   2.036   3.300   1.513
11941TIP3    H135780   1.982   3.373   1.542
11941TIP3    H235781   2.085   3.273   1.592
11942TIP3   OH235782   8.036   1.036   5.097
11942TIP3    H135783   8.085   1.042   5.015
11942TIP3    H235784   7.997   0.948   5.095
11943TIP3   OH235785   1.925   6.112   5.538
11943TIP3    H135786   1.897   6.023   5.559
11943TIP3    H235787   1.965   6.145   5.618
11944TIP3   OH235788   1.529   3.320   3.827
11944TIP3    H135789   1.477   3.383   3.878
11944TIP3    H235790   1.479   3.308   3.746
11945TIP3   OH235791   5.959   2.728   1.013
11945TIP3    H135792   6.011   2.741   0.934
11945TIP3    H235793   6.022   2.728   1.084
11946TIP3   OH235794   2.297   2.631   5.614
11946TIP3    H135795   2.212   2.642   5.572
11946TIP3    H235796   2.279   2.576   5.691
11947TIP3   OH235797   4.518   0.778   2.179
11947TIP3    H135798   4.550   0.814   2.262
11947TIP3    H235799   4.442   0.831   2.158
11948TIP3   OH235800   1.618   1.467   6.547
11948TIP3    H135801   1.532   1.494   6.580
11948TIP3    H235802   1.637   1.386   6.595
11949TIP3   OH235803   7.900   3.731   3.009
11949TIP3    H135804   7.925   3.780   3.087
11949TIP3    H235805   7.983   3.712   2.964
11950TIP3   OH235806   7.882   3.605   2.575
11950TIP3    H135807   7.810   3.667   2.572
11950TIP3    H235808   7.891   3.573   2.485
11951TIP3   OH235809   6.459   7.275   2.393
11951TIP3    H135810   6.379   7.242   2.352
11951TIP3    H235811   6.472   7.362   2.355
11952TIP3   OH235812   3.455   3.824   5.175
11952TIP3    H135813   3.463   3.919   5.186
11952TIP3    H235814   3.535   3.788   5.212
11953TIP3   OH235815   6.080   6.331   0.837
11953TIP3    H135816   6.102   6.329   0.930
11953TIP3    H235817   5.990   6.299   0.833
11954TIP3   OH235818   1.366   5.077   3.561
11954TIP3    H135819   1.316   5.072   3.643
11954TIP3    H235820   1.309   5.122   3.500
11955TIP3   OH235821   6.227   0.917   5.300
11955TIP3    H135822   6.273   1.000   5.294
11955TIP3    H235823   6.263   0.864   5.229
11956TIP3   OH235824   7.008   5.628   2.754
11956TIP3    H135825   7.054   5.666   2.829
11956TIP3    H235826   7.058   5.549   2.733
11957TIP3   OH235827   6.892   2.356   1.333
11957TIP3    H135828   6.972   2.317   1.295
11957TIP3    H235829   6.924   2.408   1.407
11958TIP3   OH235830   6.120   7.764   0.783
11958TIP3    H135831   6.203   7.725   0.757
11958TIP3    H235832   6.055   7.721   0.728
11959TIP3   OH235833   7.741   5.829   1.309
11959TIP3    H135834   7.653   5.844   1.275
11959TIP3    H235835   7.796   5.824   1.232
11960TIP3   OH235836   1.819   0.418   0.238
11960TIP3    H135837   1.901   0.382   0.204
11960TIP3    H235838   1.771   0.342   0.271
11961TIP3   OH235839   3.878   2.306   5.724
11961TIP3    H135840   3.941   2.251   5.678
11961TIP3    H235841   3.932   2.367   5.775
11962TIP3   OH235842   0.233   2.707   2.232
11962TIP3    H135843   0.327   2.688   2.235
11962TIP3    H235844   0.210   2.701   2.140
11963TIP3   OH235845   5.378   6.949   2.096
11963TIP3    H135846   5.455   7.005   2.088
11963TIP3    H235847   5.317   6.999   2.151
11964TIP3   OH235848   6.584   5.386   1.430
11964TIP3    H135849   6.615   5.335   1.355
11964TIP3    H235850   6.651   5.453   1.443
11965TIP3   OH235851   7.925   4.203   6.212
11965TIP3    H135852   7.849   4.150   6.237
11965TIP3    H235853   7.897   4.250   6.134
11966TIP3   OH235854   5.642   1.094   1.519
11966TIP3    H135855   5.666   1.184   1.497
11966TIP3    H235856   5.578   1.102   1.589
11967TIP3   OH235857   7.845   3.381   4.532
11967TIP3    H135858   7.876   3.392   4.442
11967TIP3    H235859   7.753   3.358   4.522
11968TIP3   OH235860   7.172   7.262   4.193
11968TIP3    H135861   7.205   7.291   4.108
11968TIP3    H235862   7.089   7.218   4.174
11969TIP3   OH235863   5.260   7.854   4.157
11969TIP3    H135864   5.308   7.772   4.150
11969TIP3    H235865   5.322   7.915   4.198
11970TIP3   OH235866   5.243   5.117   1.584
11970TIP3    H135867   5.250   5.022   1.571
11970TIP3    H235868   5.149   5.135   1.580
11971TIP3   OH235869   2.904   4.877   4.789
11971TIP3    H135870   2.855   4.795   4.793
11971TIP3    H235871   2.987   4.853   4.748
11972TIP3   OH235872   4.220   2.296   3.458
11972TIP3    H135873   4.153   2.351   3.418
11972TIP3    H235874   4.174   2.247   3.526
11973TIP3   OH235875   0.543   7.433   4.945
11973TIP3    H135876   0.629   7.466   4.970
11973TIP3    H235877   0.537   7.347   4.987
11974TIP3   OH235878   5.333   3.372   4.469
11974TIP3    H135879   5.386   3.302   4.431
11974TIP3    H235880   5.250   3.368   4.422
11975TIP3   OH235881   1.308   1.135   1.992
11975TIP3    H135882   1.303   1.166   2.083
11975TIP3    H235883   1.354   1.205   1.946
11976TIP3   OH235884   6.752   3.370   5.891
11976TIP3    H135885   6.768   3.287   5.936
11976TIP3    H235886   6.657   3.371   5.875
11977TIP3   OH235887   2.994   5.850   4.578
11977TIP3    H135888   3.058   5.872   4.510
11977TIP3    H235889   3.046   5.811   4.648
11978TIP3   OH235890   5.181   4.028   5.837
11978TIP3    H135891   5.259   4.071   5.871
11978TIP3    H235892   5.165   3.956   5.899
11979TIP3   OH235893   3.992   6.505   0.807
11979TIP3    H135894   3.979   6.597   0.786
11979TIP3    H235895   4.077   6.501   0.850
11980TIP3   OH235896   6.989   6.441   4.333
11980TIP3    H135897   6.937   6.489   4.398
11980TIP3    H235898   6.925   6.410   4.269
11981TIP3   OH235899   6.732   6.019   5.175
11981TIP3    H135900   6.770   5.959   5.111
11981TIP3    H235901   6.807   6.053   5.224
11982TIP3   OH235902   8.268   3.641   6.001
11982TIP3    H135903   8.255   3.684   5.917
11982TIP3    H235904   8.328   3.569   5.982
11983TIP3   OH235905   4.781   2.996   3.213
11983TIP3    H135906   4.734   2.913   3.204
11983TIP3    H235907   4.738   3.054   3.151
11984TIP3   OH235908   6.544   0.914   4.450
11984TIP3    H135909   6.454   0.913   4.418
11984TIP3    H235910   6.536   0.948   4.540
11985TIP3   OH235911   7.247   2.404   0.172
11985TIP3    H135912   7.295   2.484   0.189
11985TIP3    H235913   7.216   2.413   0.082
11986TIP3   OH235914   3.232   4.234   3.951
11986TIP3    H135915   3.188   4.196   4.026
11986TIP3    H235916   3.161   4.262   3.893
11987TIP3   OH235917   0.689   4.278   6.668
11987TIP3    H135918   0.613   4.252   6.617
11987TIP3    H235919   0.715   4.199   6.716
11988TIP3   OH235920   6.766   0.704   6.365
11988TIP3    H135921   6.700   0.656   6.314
11988TIP3    H235922   6.769   0.658   6.449
11989TIP3   OH235923   0.198   5.665   3.812
11989TIP3    H135924   0.248   5.684   3.732
11989TIP3    H235925   0.140   5.593   3.787
11990TIP3   OH235926   6.419   6.352   4.436
11990TIP3    H135927   6.353   6.288   4.410
11990TIP3    H235928   6.382   6.436   4.411
11991TIP3   OH235929   3.136   3.946   6.209
11991TIP3    H135930   3.111   3.999   6.133
11991TIP3    H235931   3.202   3.885   6.176
11992TIP3   OH235932   4.066   6.373   3.085
11992TIP3    H135933   4.113   6.302   3.040
11992TIP3    H235934   4.023   6.422   3.015
11993TIP3   OH235935   0.942   6.939   6.032
11993TIP3    H135936   0.898   7.005   6.086
11993TIP3    H235937   0.950   6.863   6.090
11994TIP3   OH235938   6.707   5.090   4.831
11994TIP3    H135939   6.690   5.005   4.872
11994TIP3    H235940   6.803   5.098   4.832
11995TIP3   OH235941   1.997   4.014   5.190
11995TIP3    H135942   2.045   4.086   5.232
11995TIP3    H235943   1.921   4.056   5.150
11996TIP3   OH235944   5.492   5.677   3.461
11996TIP3    H135945   5.516   5.648   3.373
11996TIP3    H235946   5.421   5.618   3.488
11997TIP3   OH235947   6.382   6.019   1.214
11997TIP3    H135948   6.301   6.044   1.259
11997TIP3    H235949   6.358   6.014   1.122
11998TIP3   OH235950   7.028   1.961   6.021
11998TIP3    H135951   6.978   2.009   6.087
11998TIP3    H235952   7.016   1.869   6.043
11999TIP3   OH235953   6.308   1.556   2.632
11999TIP3    H135954   6.334   1.616   2.702
11999TIP3    H235955   6.232   1.599   2.592
12000TIP3   OH235956   3.097   3.452   6.439
12000TIP3    H135957   3.185   3.420   6.420
12000TIP3    H235958   3.049   3.374   6.469
12001TIP3   OH235959   4.067   6.038   0.964
12001TIP3    H135960   4.004   6.087   1.017
12001TIP3    H235961   4.014   5.975   0.915
12002TIP3   OH235962   3.167   2.881   0.294
12002TIP3    H135963   3.208   2.797   0.317
12002TIP3    H235964   3.090   2.856   0.243
12003TIP3   OH235965   8.107   3.665   5.100
12003TIP3    H135966   8.030   3.619   5.065
12003TIP3    H235967   8.172   3.596   5.113
12004TIP3   OH235968   2.369   4.224   4.072
12004TIP3    H135969   2.310   4.223   3.997
12004TIP3    H235970   2.445   4.174   4.043
12005TIP3   OH235971   0.433   2.741   2.788
12005TIP3    H135972   0.353   2.710   2.830
12005TIP3    H235973   0.411   2.748   2.696
12006TIP3   OH235974   3.015   1.147   2.970
12006TIP3    H135975   3.068   1.118   2.895
12006TIP3    H235976   3.043   1.091   3.042
12007TIP3   OH235977   5.868   1.339   4.272
12007TIP3    H135978   5.776   1.363   4.275
12007TIP3    H235979   5.892   1.344   4.180
12008TIP3   OH235980   7.649   4.747   5.535
12008TIP3    H135981   7.624   4.742   5.627
12008TIP3    H235982   7.680   4.837   5.524
12009TIP3   OH235983   4.186   6.319   1.958
12009TIP3    H135984   4.272   6.351   1.984
12009TIP3    H235985   4.159   6.259   2.028
12010TIP3   OH235986   4.496   0.584   5.273
12010TIP3    H135987   4.533   0.497   5.288
12010TIP3    H235988   4.568   0.634   5.233
12011TIP3   OH235989   6.044   0.727   6.337
12011TIP3    H135990   6.007   0.640   6.351
12011TIP3    H235991   6.111   0.736   6.404
12012TIP3   OH235992   8.250   2.033   0.832
12012TIP3    H135993   8.197   2.041   0.911
12012TIP3    H235994   8.191   1.997   0.766
12013TIP3   OH235995   3.789   4.894   2.164
12013TIP3    H135996   3.718   4.835   2.186
12013TIP3    H235997   3.860   4.837   2.133
12014TIP3   OH235998   0.181   0.538   0.068
12014TIP3    H135999   0.182   0.485   0.148
12014TIP3    H236000   0.188   0.628   0.099
12015TIP3   OH236001   0.014   0.381   1.461
12015TIP3    H136002   0.040   0.301   1.415
12015TIP3    H236003   0.092   0.408   1.509
12016TIP3   OH236004   5.032   7.344   3.660
12016TIP3    H136005   4.994   7.420   3.705
12016TIP3    H236006   5.088   7.302   3.725
12017TIP3   OH236007   4.655   0.349   4.829
12017TIP3    H136008   4.586   0.319   4.888
12017TIP3    H236009   4.667   0.441   4.851
12018TIP3   OH236010   3.962   6.669   4.524
12018TIP3    H136011   3.975   6.714   4.608
12018TIP3    H236012   3.988   6.734   4.458
12019TIP3   OH236013   5.999   0.718   0.921
12019TIP3    H136014   6.028   0.694   0.832
12019TIP3    H236015   5.911   0.753   0.908
12020TIP3   OH236016   7.519   1.362   6.579
12020TIP3    H136017   7.529   1.269   6.599
12020TIP3    H236018   7.601   1.386   6.536
12021TIP3   OH236019   1.807   0.263   3.441
12021TIP3    H136020   1.844   0.332   3.386
12021TIP3    H236021   1.718   0.251   3.407
12022TIP3   OH236022   4.068   0.923   0.375
12022TIP3    H136023   4.076   1.010   0.337
12022TIP3    H236024   4.011   0.935   0.451
12023TIP3   OH236025   7.665   3.109   5.302
12023TIP3    H136026   7.649   3.075   5.391
12023TIP3    H236027   7.733   3.052   5.267
12024TIP3   OH236028   1.201   0.818   2.290
12024TIP3    H136029   1.291   0.799   2.265
12024TIP3    H236030   1.209   0.874   2.367
12025TIP3   OH236031   4.068   1.478   1.317
12025TIP3    H136032   3.979   1.446   1.302
12025TIP3    H236033   4.067   1.569   1.288
12026TIP3   OH236034   6.482   0.554   5.700
12026TIP3    H136035   6.401   0.545   5.651
12026TIP3    H236036   6.518   0.638   5.673
12027TIP3   OH236037   2.798   6.995   5.690
12027TIP3    H136038   2.724   7.016   5.634
12027TIP3    H236039   2.777   7.037   5.774
12028TIP3   OH236040   3.501   3.670   6.311
12028TIP3    H136041   3.525   3.604   6.245
12028TIP3    H236042   3.563   3.656   6.383
12029TIP3   OH236043   2.654   6.638   0.851
12029TIP3    H136044   2.667   6.731   0.873
12029TIP3    H236045   2.571   6.615   0.893
12030TIP3   OH236046   6.410   1.825   0.555
12030TIP3    H136047   6.385   1.887   0.623
12030TIP3    H236048   6.506   1.823   0.558
12031TIP3   OH236049   0.524   5.156   6.285
12031TIP3    H136050   0.510   5.197   6.371
12031TIP3    H236051   0.503   5.224   6.222
12032TIP3   OH236052   6.505   7.548   0.081
12032TIP3    H136053   6.501   7.454   0.062
12032TIP3    H236054   6.492   7.553   0.176
12033TIP3   OH236055   5.582   3.724   6.617
12033TIP3    H136056   5.638   3.795   6.647
12033TIP3    H236057   5.508   3.725   6.678
12034TIP3   OH236058   2.180   3.711   0.814
12034TIP3    H136059   2.244   3.732   0.747
12034TIP3    H236060   2.097   3.701   0.767
12035TIP3   OH236061   7.950   1.827   4.757
12035TIP3    H136062   8.044   1.827   4.778
12035TIP3    H236063   7.945   1.867   4.670
12036TIP3   OH236064   5.784   6.090   5.248
12036TIP3    H136065   5.812   6.166   5.300
12036TIP3    H236066   5.708   6.056   5.295
12037TIP3   OH236067   2.382   6.722   1.466
12037TIP3    H136068   2.421   6.736   1.553
12037TIP3    H236069   2.289   6.741   1.478
12038TIP3   OH236070   1.474   3.416   0.094
12038TIP3    H136071   1.527   3.374   0.026
12038TIP3    H236072   1.449   3.501   0.055
12039TIP3   OH236073   1.935   4.311   6.549
12039TIP3    H136074   1.991   4.331   6.624
12039TIP3    H236075   1.985   4.342   6.474
12040TIP3   OH236076   5.012   1.257   5.905
12040TIP3    H136077   5.005   1.252   5.809
12040TIP3    H236078   5.058   1.177   5.930
12041TIP3   OH236079   2.667   2.753   6.742
12041TIP3    H136080   2.617   2.704   6.676
12041TIP3    H236081   2.624   2.838   6.746
12042TIP3   OH236082   5.537   7.188   5.236
12042TIP3    H136083   5.496   7.157   5.155
12042TIP3    H236084   5.509   7.279   5.244
12043TIP3   OH236085   7.563   1.172   1.114
12043TIP3    H136086   7.482   1.223   1.111
12043TIP3    H236087   7.545   1.095   1.061
12044TIP3   OH236088   4.635   2.897   4.308
12044TIP3    H136089   4.569   2.835   4.339
12044TIP3    H236090   4.589   2.952   4.244
12045TIP3   OH236091   3.151   6.158   0.617
12045TIP3    H136092   3.182   6.249   0.610
12045TIP3    H236093   3.123   6.149   0.708
12046TIP3   OH236094   6.109   4.762   6.433
12046TIP3    H136095   6.134   4.854   6.445
12046TIP3    H236096   6.103   4.727   6.522
12047TIP3   OH236097   3.004   4.883   6.208
12047TIP3    H136098   2.990   4.804   6.260
12047TIP3    H236099   2.946   4.873   6.133
12048TIP3   OH236100   2.246   3.469   4.906
12048TIP3    H136101   2.273   3.553   4.942
12048TIP3    H236102   2.234   3.486   4.812
12049TIP3   OH236103   1.749   3.096   6.377
12049TIP3    H136104   1.682   3.137   6.323
12049TIP3    H236105   1.819   3.161   6.382
12050TIP3   OH236106   0.311   3.641   3.042
12050TIP3    H136107   0.367   3.589   2.985
12050TIP3    H236108   0.285   3.716   2.988
12051TIP3   OH236109   6.607   0.839   5.994
12051TIP3    H136110   6.599   0.743   5.996
12051TIP3    H236111   6.539   0.867   5.933
12052TIP3   OH236112   0.557   7.498   4.679
12052TIP3    H136113   0.468   7.516   4.648
12052TIP3    H236114   0.548   7.484   4.773
12053TIP3   OH236115   5.503   4.936   3.975
12053TIP3    H136116   5.522   4.910   4.066
12053TIP3    H236117   5.578   4.902   3.925
12054TIP3   OH236118   7.056   5.874   3.792
12054TIP3    H136119   6.968   5.896   3.823
12054TIP3    H236120   7.040   5.827   3.710
12055TIP3   OH236121   7.385   5.792   5.792
12055TIP3    H136122   7.316   5.732   5.821
12055TIP3    H236123   7.382   5.864   5.854
12056TIP3   OH236124   7.450   1.453   3.242
12056TIP3    H136125   7.421   1.445   3.152
12056TIP3    H236126   7.441   1.547   3.262
12057TIP3   OH236127   3.782   0.336   2.378
12057TIP3    H136128   3.744   0.424   2.371
12057TIP3    H236129   3.799   0.325   2.471
12058TIP3   OH236130   0.448   3.190   0.968
12058TIP3    H136131   0.535   3.224   0.950
12058TIP3    H236132   0.400   3.265   1.004
12059TIP3   OH236133   7.009   3.292   0.200
12059TIP3    H136134   6.917   3.313   0.180
12059TIP3    H236135   7.004   3.212   0.253
12060TIP3   OH236136   3.009   1.341   4.141
12060TIP3    H136137   3.017   1.286   4.219
12060TIP3    H236138   3.058   1.293   4.073
12061TIP3   OH236139   3.129   6.453   1.331
12061TIP3    H136140   3.130   6.466   1.236
12061TIP3    H236141   3.181   6.525   1.366
12062TIP3   OH236142   2.844   0.425   2.740
12062TIP3    H136143   2.772   0.416   2.677
12062TIP3    H236144   2.812   0.384   2.820
12063TIP3   OH236145   5.301   6.103   3.828
12063TIP3    H136146   5.232   6.050   3.865
12063TIP3    H236147   5.382   6.057   3.849
12064TIP3   OH236148   7.896   1.296   5.049
12064TIP3    H136149   7.932   1.309   4.961
12064TIP3    H236150   7.905   1.202   5.065
12065TIP3   OH236151   8.103   7.150   0.343
12065TIP3    H136152   8.170   7.092   0.309
12065TIP3    H236153   8.071   7.106   0.422
12066TIP3   OH236154   7.799   2.618   2.571
12066TIP3    H136155   7.781   2.613   2.477
12066TIP3    H236156   7.857   2.543   2.588
12067TIP3   OH236157   5.793   5.875   5.904
12067TIP3    H136158   5.836   5.841   5.825
12067TIP3    H236159   5.849   5.845   5.975
12068TIP3   OH236160   8.138   3.801   5.534
12068TIP3    H136161   8.168   3.719   5.495
12068TIP3    H236162   8.081   3.840   5.467
12069TIP3   OH236163   6.632   4.316   6.022
12069TIP3    H136164   6.622   4.226   5.992
12069TIP3    H236165   6.719   4.343   5.993
12070TIP3   OH236166   7.440   3.435   1.101
12070TIP3    H136167   7.486   3.418   1.183
12070TIP3    H236168   7.453   3.529   1.086
12071TIP3   OH236169   6.293   3.199   5.525
12071TIP3    H136170   6.247   3.204   5.609
12071TIP3    H236171   6.261   3.119   5.484
12072TIP3   OH236172   5.726   5.001   4.862
12072TIP3    H136173   5.724   4.988   4.956
12072TIP3    H236174   5.814   5.034   4.843
12073TIP3   OH236175   4.603   7.181   5.922
12073TIP3    H136176   4.587   7.095   5.960
12073TIP3    H236177   4.536   7.191   5.855
12074TIP3   OH236178   2.080   0.350   2.455
12074TIP3    H136179   2.106   0.309   2.372
12074TIP3    H236180   1.998   0.395   2.434
12075TIP3   OH236181   3.958   7.505   4.580
12075TIP3    H136182   3.905   7.494   4.501
12075TIP3    H236183   3.922   7.583   4.622
12076TIP3   OH236184   7.074   3.487   1.505
12076TIP3    H136185   7.159   3.459   1.470
12076TIP3    H236186   7.013   3.417   1.480
12077TIP3   OH236187   5.869   5.265   3.634
12077TIP3    H136188   5.814   5.258   3.556
12077TIP3    H236189   5.862   5.356   3.660
12078TIP3   OH236190   5.741   0.848   5.618
12078TIP3    H136191   5.797   0.921   5.644
12078TIP3    H236192   5.700   0.819   5.700
12079TIP3   OH236193   0.812   0.744   5.771
12079TIP3    H136194   0.745   0.751   5.703
12079TIP3    H236195   0.764   0.744   5.853
12080TIP3   OH236196   0.478   4.750   4.621
12080TIP3    H136197   0.491   4.834   4.576
12080TIP3    H236198   0.490   4.771   4.714
12081TIP3   OH236199   2.114   5.365   1.770
12081TIP3    H136200   2.058   5.418   1.826
12081TIP3    H236201   2.098   5.397   1.681
12082TIP3   OH236202   3.970   4.466   2.977
12082TIP3    H136203   4.009   4.448   3.063
12082TIP3    H236204   4.005   4.398   2.920
12083TIP3   OH236205   2.877   1.837   2.549
12083TIP3    H136206   2.919   1.893   2.614
12083TIP3    H236207   2.879   1.888   2.468
12084TIP3   OH236208   2.771   1.687   4.600
12084TIP3    H136209   2.703   1.723   4.543
12084TIP3    H236210   2.740   1.703   4.689
12085TIP3   OH236211   2.200   6.304   1.226
12085TIP3    H136212   2.246   6.224   1.253
12085TIP3    H236213   2.118   6.273   1.188
12086TIP3   OH236214   6.532   6.620   0.632
12086TIP3    H136215   6.602   6.676   0.667
12086TIP3    H236216   6.531   6.544   0.690
12087TIP3   OH236217   4.688   0.202   3.176
12087TIP3    H136218   4.697   0.253   3.095
12087TIP3    H236219   4.673   0.112   3.146
12088TIP3   OH236220   6.794   3.094   2.729
12088TIP3    H136221   6.804   3.188   2.744
12088TIP3    H236222   6.835   3.054   2.806
12089TIP3   OH236223   3.939   6.851   6.547
12089TIP3    H136224   3.873   6.784   6.529
12089TIP3    H236225   3.954   6.893   6.463
12090TIP3   OH236226   2.452   7.183   4.382
12090TIP3    H136227   2.540   7.148   4.370
12090TIP3    H236228   2.402   7.111   4.420
12091TIP3   OH236229   4.155   4.335   3.141
12091TIP3    H136230   4.228   4.278   3.166
12091TIP3    H236231   4.077   4.283   3.163
12092TIP3   OH236232   4.749   6.612   5.869
12092TIP3    H136233   4.816   6.648   5.927
12092TIP3    H236234   4.667   6.624   5.917
12093TIP3   OH236235   8.094   4.274   1.203
12093TIP3    H136236   8.036   4.254   1.130
12093TIP3    H236237   8.097   4.370   1.205
12094TIP3   OH236238   7.968   2.876   2.680
12094TIP3    H136239   8.007   2.838   2.601
12094TIP3    H236240   7.890   2.922   2.649
12095TIP3   OH236241   6.353   1.704   6.254
12095TIP3    H136242   6.389   1.628   6.209
12095TIP3    H236243   6.369   1.778   6.195
12096TIP3   OH236244   1.351   7.762   6.022
12096TIP3    H136245   1.394   7.768   6.107
12096TIP3    H236246   1.369   7.846   5.980
12097TIP3   OH236247   3.456   4.877   4.341
12097TIP3    H136248   3.460   4.856   4.434
12097TIP3    H236249   3.436   4.793   4.299
12098TIP3   OH236250   0.752   2.280   0.773
12098TIP3    H136251   0.779   2.344   0.839
12098TIP3    H236252   0.754   2.196   0.818
12099TIP3   OH236253   5.504   0.946   6.731
12099TIP3    H136254   5.593   0.962   6.763
12099TIP3    H236255   5.482   1.023   6.679
12100TIP3   OH236256   4.413   6.777   0.730
12100TIP3    H136257   4.322   6.803   0.742
12100TIP3    H236258   4.458   6.816   0.805
12101TIP3   OH236259   6.366   0.049   3.734
12101TIP3    H136260   6.415   0.123   3.699
12101TIP3    H236261   6.298   0.089   3.788
12102TIP3   OH236262   7.703   2.655   1.527
12102TIP3    H136263   7.773   2.681   1.587
12102TIP3    H236264   7.683   2.736   1.479
12103TIP3   OH236265   4.748   7.104   1.476
12103TIP3    H136266   4.703   7.099   1.391
12103TIP3    H236267   4.841   7.092   1.455
12104TIP3   OH236268   2.923   5.144   6.605
12104TIP3    H136269   2.837   5.103   6.596
12104TIP3    H236270   2.984   5.080   6.567
12105TIP3   OH236271   7.576   4.127   0.513
12105TIP3    H136272   7.561   4.206   0.565
12105TIP3    H236273   7.671   4.127   0.497
12106TIP3   OH236274   6.486   6.459   6.582
12106TIP3    H136275   6.572   6.416   6.581
12106TIP3    H236276   6.504   6.551   6.563
12107TIP3   OH236277   6.574   6.573   3.253
12107TIP3    H136278   6.611   6.495   3.211
12107TIP3    H236279   6.620   6.646   3.212
12108TIP3   OH236280   0.206   7.666   2.248
12108TIP3    H136281   0.279   7.675   2.310
12108TIP3    H236282   0.209   7.745   2.195
12109TIP3   OH236283   7.505   3.143   6.223
12109TIP3    H136284   7.448   3.209   6.184
12109TIP3    H236285   7.565   3.120   6.152
12110TIP3   OH236286   5.305   1.895   1.451
12110TIP3    H136287   5.338   1.822   1.504
12110TIP3    H236288   5.290   1.857   1.364
12111TIP3   OH236289   5.280   4.816   3.821
12111TIP3    H136290   5.253   4.731   3.787
12111TIP3    H236291   5.309   4.797   3.911
12112TIP3   OH236292   0.577   4.135   4.416
12112TIP3    H136293   0.515   4.076   4.372
12112TIP3    H236294   0.652   4.079   4.436
12113TIP3   OH236295   5.289   6.141   4.992
12113TIP3    H136296   5.233   6.128   4.916
12113TIP3    H236297   5.263   6.226   5.027
12114TIP3   OH236298   4.890   5.813   3.052
12114TIP3    H136299   4.869   5.906   3.053
12114TIP3    H236300   4.961   5.805   2.988
12115TIP3   OH236301   6.796   6.942   1.670
12115TIP3    H136302   6.778   6.987   1.588
12115TIP3    H236303   6.782   6.850   1.651
12116TIP3   OH236304   6.323   5.879   0.937
12116TIP3    H136305   6.390   5.928   0.890
12116TIP3    H236306   6.328   5.791   0.901
12117TIP3   OH236307   8.251   6.806   3.875
12117TIP3    H136308   8.290   6.859   3.805
12117TIP3    H236309   8.315   6.736   3.890
12118TIP3   OH236310   5.276   5.865   0.063
12118TIP3    H136311   5.194   5.896   0.103
12118TIP3    H236312   5.320   5.818   0.134
12119TIP3   OH236313   4.258   3.193   6.233
12119TIP3    H136314   4.247   3.176   6.140
12119TIP3    H236315   4.340   3.242   6.239
12120TIP3   OH236316   4.873   6.770   5.280
12120TIP3    H136317   4.785   6.738   5.260
12120TIP3    H236318   4.870   6.864   5.260
12121TIP3   OH236319   2.600   1.233   1.088
12121TIP3    H136320   2.665   1.181   1.041
12121TIP3    H236321   2.575   1.178   1.163
12122TIP3   OH236322   2.301   2.031   5.164
12122TIP3    H136323   2.227   1.970   5.162
12122TIP3    H236324   2.272   2.105   5.110
12123TIP3   OH236325   5.652   0.890   1.908
12123TIP3    H136326   5.621   0.978   1.931
12123TIP3    H236327   5.746   0.892   1.928
12124TIP3   OH236328   1.462   2.708   5.527
12124TIP3    H136329   1.385   2.762   5.507
12124TIP3    H236330   1.426   2.621   5.543
12125TIP3   OH236331   1.184   5.272   6.632
12125TIP3    H136332   1.124   5.201   6.652
12125TIP3    H236333   1.269   5.242   6.664
12126TIP3   OH236334   5.642   1.638   0.970
12126TIP3    H136335   5.653   1.732   0.977
12126TIP3    H236336   5.694   1.602   1.043
12127TIP3   OH236337   0.998   4.078   1.430
12127TIP3    H136338   1.060   4.026   1.377
12127TIP3    H236339   0.915   4.031   1.422
12128TIP3   OH236340   2.222   5.694   4.530
12128TIP3    H136341   2.283   5.621   4.515
12128TIP3    H236342   2.216   5.738   4.446
12129TIP3   OH236343   5.043   6.443   3.533
12129TIP3    H136344   5.057   6.536   3.550
12129TIP3    H236345   4.951   6.429   3.554
12130TIP3   OH236346   7.162   6.674   2.383
12130TIP3    H136347   7.213   6.734   2.328
12130TIP3    H236348   7.080   6.719   2.398
12131TIP3   OH236349   3.003   7.053   6.080
12131TIP3    H136350   3.027   7.141   6.109
12131TIP3    H236351   2.938   7.023   6.143
12132TIP3   OH236352   4.634   0.360   5.342
12132TIP3    H136353   4.712   0.347   5.396
12132TIP3    H236354   4.567   0.308   5.385
12133TIP3   OH236355   6.830   7.406   3.037
12133TIP3    H136356   6.861   7.319   3.012
12133TIP3    H236357   6.758   7.424   2.976
12134TIP3   OH236358   7.822   3.592   3.901
12134TIP3    H136359   7.849   3.630   3.817
12134TIP3    H236360   7.822   3.497   3.884
12135TIP3   OH236361   7.923   0.233   6.219
12135TIP3    H136362   7.997   0.262   6.272
12135TIP3    H236363   7.953   0.153   6.177
12136TIP3   OH236364   6.903   7.485   5.459
12136TIP3    H136365   6.927   7.417   5.396
12136TIP3    H236366   6.969   7.479   5.528
12137TIP3   OH236367   8.340   7.374   2.397
12137TIP3    H136368   8.265   7.353   2.341
12137TIP3    H236369   8.302   7.386   2.484
12138TIP3   OH236370   0.624   0.755   6.787
12138TIP3    H136371   0.642   0.684   6.849
12138TIP3    H236372   0.550   0.723   6.735
12139TIP3   OH236373   7.747   5.966   6.267
12139TIP3    H136374   7.692   5.898   6.229
12139TIP3    H236375   7.686   6.031   6.301
12140TIP3   OH236376   5.922   0.210   6.443
12140TIP3    H136377   5.851   0.164   6.398
12140TIP3    H236378   5.998   0.151   6.435
12141TIP3   OH236379   1.470   3.233   1.828
12141TIP3    H136380   1.410   3.191   1.889
12141TIP3    H236381   1.429   3.317   1.808
12142TIP3   OH236382   0.172   5.367   2.447
12142TIP3    H136383   0.239   5.355   2.514
12142TIP3    H236384   0.090   5.345   2.490
12143TIP3   OH236385   2.280   5.094   6.380
12143TIP3    H136386   2.316   5.182   6.391
12143TIP3    H236387   2.231   5.078   6.460
12144TIP3   OH236388   1.780   6.790   0.518
12144TIP3    H136389   1.695   6.830   0.533
12144TIP3    H236390   1.788   6.724   0.587
12145TIP3   OH236391   4.434   3.172   3.321
12145TIP3    H136392   4.382   3.098   3.288
12145TIP3    H236393   4.371   3.229   3.364
12146TIP3   OH236394   2.727   0.743   2.252
12146TIP3    H136395   2.756   0.833   2.234
12146TIP3    H236396   2.649   0.732   2.199
12147TIP3   OH236397   2.953   7.242   2.865
12147TIP3    H136398   2.896   7.166   2.852
12147TIP3    H236399   3.037   7.216   2.827
12148TIP3   OH236400   4.487   4.581   3.048
12148TIP3    H136401   4.428   4.532   2.990
12148TIP3    H236402   4.574   4.568   3.011
12149TIP3   OH236403   0.653   6.433   1.176
12149TIP3    H136404   0.651   6.338   1.181
12149TIP3    H236405   0.739   6.453   1.139
12150TIP3   OH236406   4.060   5.177   4.031
12150TIP3    H136407   4.129   5.144   4.089
12150TIP3    H236408   3.988   5.115   4.042
12151TIP3   OH236409   4.609   1.673   1.209
12151TIP3    H136410   4.527   1.721   1.223
12151TIP3    H236411   4.592   1.619   1.133
12152TIP3   OH236412   1.602   1.764   1.191
12152TIP3    H136413   1.594   1.839   1.250
12152TIP3    H236414   1.666   1.791   1.126
12153TIP3   OH236415   6.572   5.137   6.048
12153TIP3    H136416   6.613   5.051   6.051
12153TIP3    H236417   6.632   5.191   5.997
12154TIP3   OH236418   0.531   7.680   0.290
12154TIP3    H136419   0.544   7.589   0.264
12154TIP3    H236420   0.545   7.730   0.210
12155TIP3   OH236421   1.285   0.635   4.575
12155TIP3    H136422   1.190   0.637   4.567
12155TIP3    H236423   1.309   0.543   4.564
12156TIP3   OH236424   2.962   0.135   1.139
12156TIP3    H136425   2.948   0.144   1.045
12156TIP3    H236426   3.054   0.109   1.148
12157TIP3   OH236427   0.973   4.362   5.263
12157TIP3    H136428   1.014   4.447   5.247
12157TIP3    H236429   1.039   4.312   5.312
12158TIP3   OH236430   5.007   3.783   6.343
12158TIP3    H136431   5.041   3.756   6.428
12158TIP3    H236432   5.024   3.877   6.340
12159TIP3   OH236433   7.668   6.485   4.068
12159TIP3    H136434   7.597   6.520   4.016
12159TIP3    H236435   7.732   6.452   4.004
12160TIP3   OH236436   6.216   1.316   5.804
12160TIP3    H136437   6.297   1.268   5.825
12160TIP3    H236438   6.146   1.255   5.826
12161TIP3   OH236439   6.576   1.962   2.884
12161TIP3    H136440   6.624   1.882   2.903
12161TIP3    H236441   6.640   2.018   2.839
12162TIP3   OH236442   6.023   1.878   4.449
12162TIP3    H136443   6.004   1.811   4.383
12162TIP3    H236444   6.081   1.939   4.405
12163TIP3   OH236445   6.693   0.256   4.194
12163TIP3    H136446   6.674   0.166   4.170
12163TIP3    H236447   6.717   0.252   4.287
12164TIP3   OH236448   7.247   0.497   4.934
12164TIP3    H136449   7.152   0.490   4.935
12164TIP3    H236450   7.267   0.559   5.004
12165TIP3   OH236451   1.466   7.521   1.865
12165TIP3    H136452   1.456   7.449   1.802
12165TIP3    H236453   1.401   7.586   1.838
12166TIP3   OH236454   1.407   4.706   1.759
12166TIP3    H136455   1.453   4.769   1.704
12166TIP3    H236456   1.394   4.630   1.702
12167TIP3   OH236457   4.503   1.349   2.549
12167TIP3    H136458   4.499   1.432   2.501
12167TIP3    H236459   4.533   1.374   2.636
12168TIP3   OH236460   0.210   5.458   3.471
12168TIP3    H136461   0.286   5.437   3.416
12168TIP3    H236462   0.241   5.442   3.560
12169TIP3   OH236463   1.980   3.743   3.121
12169TIP3    H136464   1.987   3.692   3.201
12169TIP3    H236465   1.899   3.793   3.131
12170TIP3   OH236466   3.615   2.656   5.105
12170TIP3    H136467   3.598   2.579   5.050
12170TIP3    H236468   3.641   2.621   5.190
12171TIP3   OH236469   3.941   3.096   5.036
12171TIP3    H136470   3.916   3.180   5.074
12171TIP3    H236471   4.028   3.079   5.073
12172TIP3   OH236472   1.268   5.075   1.771
12172TIP3    H136473   1.272   5.029   1.687
12172TIP3    H236474   1.222   5.157   1.752
12173TIP3   OH236475   5.684   5.245   3.425
12173TIP3    H136476   5.714   5.232   3.335
12173TIP3    H236477   5.593   5.273   3.415
12174TIP3   OH236478   2.538   0.070   4.066
12174TIP3    H136479   2.454   0.112   4.085
12174TIP3    H236480   2.570   0.041   4.152
12175TIP3   OH236481   6.112   4.574   2.258
12175TIP3    H136482   6.024   4.611   2.257
12175TIP3    H236483   6.100   4.483   2.230
12176TIP3   OH236484   0.441   2.027   0.845
12176TIP3    H136485   0.360   2.074   0.867
12176TIP3    H236486   0.416   1.934   0.849
12177TIP3   OH236487   7.246   2.989   0.781
12177TIP3    H136488   7.267   3.000   0.873
12177TIP3    H236489   7.308   3.046   0.735
12178TIP3   OH236490   6.323   4.096   0.270
12178TIP3    H136491   6.324   4.002   0.287
12178TIP3    H236492   6.415   4.119   0.256
12179TIP3   OH236493   4.787   0.293   2.165
12179TIP3    H136494   4.704   0.249   2.183
12179TIP3    H236495   4.767   0.386   2.176
12180TIP3   OH236496   0.470   4.588   0.581
12180TIP3    H136497   0.456   4.597   0.676
12180TIP3    H236498   0.462   4.677   0.548
12181TIP3   OH236499   6.432   6.056   6.066
12181TIP3    H136500   6.474   6.008   6.137
12181TIP3    H236501   6.495   6.124   6.042
12182TIP3   OH236502   0.403   6.985   2.752
12182TIP3    H136503   0.354   7.020   2.826
12182TIP3    H236504   0.412   7.059   2.692
12183TIP3   OH236505   1.524   1.913   4.499
12183TIP3    H136506   1.534   1.955   4.414
12183TIP3    H236507   1.479   1.830   4.479
12184TIP3   OH236508   5.917   6.463   0.014
12184TIP3    H136509   5.944   6.500   0.098
12184TIP3    H236510   5.988   6.488  -0.046
12185TIP3   OH236511   2.219   6.481   5.776
12185TIP3    H136512   2.266   6.405   5.741
12185TIP3    H236513   2.140   6.487   5.722
12186TIP3   OH236514   1.714   3.892   3.938
12186TIP3    H136515   1.697   3.986   3.930
12186TIP3    H236516   1.796   3.886   3.987
12187TIP3   OH236517   0.739   3.744   5.037
12187TIP3    H136518   0.673   3.813   5.031
12187TIP3    H236519   0.765   3.728   4.947
12188TIP3   OH236520   3.822   4.697   4.073
12188TIP3    H136521   3.783   4.658   4.151
12188TIP3    H236522   3.829   4.790   4.095
12189TIP3   OH236523   3.000   4.722   0.444
12189TIP3    H136524   2.912   4.715   0.481
12189TIP3    H236525   3.059   4.710   0.519
12190TIP3   OH236526   6.251   0.137   1.473
12190TIP3    H136527   6.309   0.068   1.441
12190TIP3    H236528   6.307   0.215   1.478
12191TIP3   OH236529   5.598   2.840   4.827
12191TIP3    H136530   5.670   2.895   4.857
12191TIP3    H236531   5.540   2.832   4.903
12192TIP3   OH236532   3.643   5.333   4.678
12192TIP3    H136533   3.590   5.262   4.715
12192TIP3    H236534   3.580   5.388   4.631
12193TIP3   OH236535   5.001   6.105   1.506
12193TIP3    H136536   4.917   6.127   1.545
12193TIP3    H236537   5.066   6.146   1.563
12194TIP3   OH236538   7.627   7.382   6.067
12194TIP3    H136539   7.610   7.476   6.061
12194TIP3    H236540   7.650   7.355   5.978
12195TIP3   OH236541   5.335   2.187   6.433
12195TIP3    H136542   5.422   2.206   6.399
12195TIP3    H236543   5.302   2.272   6.464
12196TIP3   OH236544   5.936   7.618   4.790
12196TIP3    H136545   6.024   7.630   4.755
12196TIP3    H236546   5.943   7.543   4.849
12197TIP3   OH236547   7.279   2.766   1.402
12197TIP3    H136548   7.337   2.830   1.443
12197TIP3    H236549   7.260   2.703   1.471
12198TIP3   OH236550   5.734   4.272   2.232
12198TIP3    H136551   5.649   4.229   2.220
12198TIP3    H236552   5.765   4.240   2.316
12199TIP3   OH236553   2.024   0.126   5.741
12199TIP3    H136554   1.934   0.145   5.767
12199TIP3    H236555   2.025   0.138   5.646
12200TIP3   OH236556   2.023   5.549   0.790
12200TIP3    H136557   2.073   5.539   0.709
12200TIP3    H236558   2.056   5.631   0.828
12201TIP3   OH236559   6.601   2.596   1.521
12201TIP3    H136560   6.595   2.527   1.587
12201TIP3    H236561   6.540   2.663   1.551
12202TIP3   OH236562   3.301   2.394   3.296
12202TIP3    H136563   3.352   2.331   3.347
12202TIP3    H236564   3.211   2.361   3.302
12203TIP3   OH236565   3.977   1.770   5.626
12203TIP3    H136566   4.068   1.800   5.623
12203TIP3    H236567   3.969   1.709   5.552
12204TIP3   OH236568   5.921   1.941   1.271
12204TIP3    H136569   5.934   2.024   1.225
12204TIP3    H236570   5.928   1.964   1.364
12205TIP3   OH236571   5.276   2.511   1.281
12205TIP3    H136572   5.348   2.484   1.223
12205TIP3    H236573   5.200   2.463   1.248
12206TIP3   OH236574   7.227   1.583   1.459
12206TIP3    H136575   7.235   1.493   1.426
12206TIP3    H236576   7.133   1.601   1.456
12207TIP3   OH236577   6.485   1.535   0.141
12207TIP3    H136578   6.578   1.533   0.117
12207TIP3    H236579   6.462   1.444   0.157
12208TIP3   OH236580   2.893   2.879   4.852
12208TIP3    H136581   2.875   2.858   4.760
12208TIP3    H236582   2.925   2.797   4.890
12209TIP3   OH236583   2.369   7.080   1.433
12209TIP3    H136584   2.322   7.011   1.481
12209TIP3    H236585   2.451   7.091   1.482
12210TIP3   OH236586   5.853   6.079   2.266
12210TIP3    H136587   5.850   6.128   2.348
12210TIP3    H236588   5.834   6.144   2.198
12211TIP3   OH236589   4.304   3.744   4.487
12211TIP3    H136590   4.349   3.664   4.458
12211TIP3    H236591   4.303   3.738   4.582
12212TIP3   OH236592   1.502   4.838   5.679
12212TIP3    H136593   1.442   4.765   5.662
12212TIP3    H236594   1.582   4.814   5.632
12213TIP3   OH236595   2.127   1.993   0.769
12213TIP3    H136596   2.206   1.994   0.822
12213TIP3    H236597   2.158   1.992   0.678
12214TIP3   OH236598   7.674   2.730   2.783
12214TIP3    H136599   7.620   2.800   2.746
12214TIP3    H236600   7.723   2.695   2.708
12215TIP3   OH236601   4.341   3.662   3.740
12215TIP3    H136602   4.279   3.709   3.795
12215TIP3    H236603   4.330   3.570   3.765
12216TIP3   OH236604   2.118   7.522   1.340
12216TIP3    H136605   2.101   7.441   1.292
12216TIP3    H236606   2.173   7.573   1.280
12217TIP3   OH236607   6.740   7.134   6.008
12217TIP3    H136608   6.775   7.046   5.994
12217TIP3    H236609   6.699   7.158   5.925
12218TIP3   OH236610   1.536   0.021   3.033
12218TIP3    H136611   1.502   0.007   3.121
12218TIP3    H236612   1.628  -0.004   3.038
12219TIP3   OH236613   7.312   4.594   2.065
12219TIP3    H136614   7.283   4.685   2.066
12219TIP3    H236615   7.342   4.580   1.975
12220TIP3   OH236616   5.293   3.455   2.655
12220TIP3    H136617   5.333   3.386   2.603
12220TIP3    H236618   5.201   3.456   2.628
12221TIP3   OH236619   3.579   5.099   1.730
12221TIP3    H136620   3.560   5.005   1.731
12221TIP3    H236621   3.658   5.108   1.784
12222TIP3   OH236622   2.366   1.454   5.593
12222TIP3    H136623   2.287   1.480   5.640
12222TIP3    H236624   2.346   1.366   5.560
12223TIP3   OH236625   6.350   0.211   1.778
12223TIP3    H136626   6.271   0.172   1.742
12223TIP3    H236627   6.396   0.137   1.819
12224TIP3   OH236628   0.300   2.565   4.079
12224TIP3    H136629   0.375   2.509   4.098
12224TIP3    H236630   0.311   2.640   4.138
12225TIP3   OH236631   2.166   6.768   3.384
12225TIP3    H136632   2.142   6.812   3.465
12225TIP3    H236633   2.118   6.814   3.316
12226TIP3   OH236634   3.087   3.021   0.522
12226TIP3    H136635   2.993   3.023   0.503
12226TIP3    H236636   3.122   2.953   0.464
12227TIP3   OH236637   4.334   6.078   6.245
12227TIP3    H136638   4.364   6.010   6.184
12227TIP3    H236639   4.310   6.030   6.324
12228TIP3   OH236640   5.947   6.121   6.642
12228TIP3    H136641   5.952   6.214   6.667
12228TIP3    H236642   5.854   6.099   6.650
12229TIP3   OH236643   4.947   0.967   4.211
12229TIP3    H136644   4.862   0.992   4.173
12229TIP3    H236645   4.930   0.885   4.257
12230TIP3   OH236646   4.511   0.176   0.742
12230TIP3    H136647   4.449   0.173   0.669
12230TIP3    H236648   4.561   0.095   0.734
12231TIP3   OH236649   1.630   5.767   4.410
12231TIP3    H136650   1.688   5.840   4.390
12231TIP3    H236651   1.680   5.713   4.471
12232TIP3   OH236652   1.792   5.679   2.083
12232TIP3    H136653   1.769   5.613   2.017
12232TIP3    H236654   1.876   5.648   2.118
12233TIP3   OH236655   6.953   4.428   1.354
12233TIP3    H136656   7.017   4.367   1.317
12233TIP3    H236657   7.001   4.511   1.363
12234TIP3   OH236658   7.847   4.338   4.300
12234TIP3    H136659   7.897   4.344   4.382
12234TIP3    H236660   7.912   4.354   4.231
12235TIP3   OH236661   4.788   6.217   3.391
12235TIP3    H136662   4.846   6.184   3.322
12235TIP3    H236663   4.700   6.199   3.358
12236TIP3   OH236664   5.636   0.427   1.439
12236TIP3    H136665   5.609   0.346   1.481
12236TIP3    H236666   5.590   0.428   1.355
12237TIP3   OH236667   2.195   0.118   2.525
12237TIP3    H136668   2.124   0.178   2.502
12237TIP3    H236669   2.181   0.042   2.468
12238TIP3   OH236670   0.128   1.190   1.423
12238TIP3    H136671   0.067   1.120   1.441
12238TIP3    H236672   0.073   1.263   1.392
12239TIP3   OH236673   4.209   3.449   0.074
12239TIP3    H136674   4.201   3.407  -0.012
12239TIP3    H236675   4.149   3.523   0.070
12240TIP3   OH236676   0.755   1.774   4.741
12240TIP3    H136677   0.779   1.833   4.669
12240TIP3    H236678   0.661   1.789   4.754
12241TIP3   OH236679   7.948   6.204   2.865
12241TIP3    H136680   8.040   6.187   2.883
12241TIP3    H236681   7.943   6.299   2.854
12242TIP3   OH236682   0.411   2.767   6.567
12242TIP3    H136683   0.413   2.794   6.659
12242TIP3    H236684   0.319   2.774   6.541
12243TIP3   OH236685   1.435   3.059   5.906
12243TIP3    H136686   1.487   3.132   5.940
12243TIP3    H236687   1.490   3.018   5.839
12244TIP3   OH236688   8.136   3.089   5.240
12244TIP3    H136689   8.212   3.114   5.292
12244TIP3    H236690   8.120   2.997   5.264
12245TIP3   OH236691   4.241   0.594   5.328
12245TIP3    H136692   4.334   0.576   5.321
12245TIP3    H236693   4.198   0.520   5.283
12246TIP3   OH236694   0.608   1.632   1.061
12246TIP3    H136695   0.687   1.685   1.075
12246TIP3    H236696   0.633   1.545   1.090
12247TIP3   OH236697   5.959   6.638   3.751
12247TIP3    H136698   6.038   6.600   3.714
12247TIP3    H236699   5.932   6.577   3.820
12248TIP3   OH236700   1.560   0.208   5.471
12248TIP3    H136701   1.609   0.277   5.515
12248TIP3    H236702   1.471   0.214   5.506
12249TIP3   OH236703   5.621   4.557   3.890
12249TIP3    H136704   5.664   4.480   3.926
12249TIP3    H236705   5.613   4.539   3.796
12250TIP3   OH236706   0.163   6.266   0.597
12250TIP3    H136707   0.171   6.334   0.664
12250TIP3    H236708   0.085   6.218   0.621
12251TIP3   OH236709   2.405   6.473   6.291
12251TIP3    H136710   2.457   6.537   6.341
12251TIP3    H236711   2.314   6.497   6.310
12252TIP3   OH236712   2.212   2.490   0.224
12252TIP3    H136713   2.200   2.531   0.310
12252TIP3    H236714   2.288   2.535   0.187
12253TIP3   OH236715   7.612   2.171   4.763
12253TIP3    H136716   7.611   2.205   4.674
12253TIP3    H236717   7.529   2.127   4.773
12254TIP3   OH236718   1.887   2.433   4.925
12254TIP3    H136719   1.803   2.469   4.955
12254TIP3    H236720   1.864   2.381   4.848
12255TIP3   OH236721   2.003   7.324   5.181
12255TIP3    H136722   1.965   7.315   5.094
12255TIP3    H236723   1.928   7.322   5.241
12256TIP3   OH236724   4.085   7.323   3.022
12256TIP3    H136725   3.998   7.284   3.030
12256TIP3    H236726   4.109   7.346   3.112
12257TIP3   OH236727   1.008   7.063   2.210
12257TIP3    H136728   1.076   7.124   2.181
12257TIP3    H236729   0.934   7.079   2.151
12258TIP3   OH236730   1.381   1.893   3.730
12258TIP3    H136731   1.455   1.887   3.669
12258TIP3    H236732   1.351   1.983   3.723
12259TIP3   OH236733   5.962   7.196   3.664
12259TIP3    H136734   5.990   7.139   3.593
12259TIP3    H236735   6.009   7.164   3.741
12260TIP3   OH236736   5.915   6.565   1.316
12260TIP3    H136737   5.973   6.580   1.391
12260TIP3    H236738   5.874   6.650   1.300
12261TIP3   OH236739   3.512   2.233   1.189
12261TIP3    H136740   3.449   2.204   1.255
12261TIP3    H236741   3.567   2.156   1.174
12262TIP3   OH236742   7.909   0.957   2.302
12262TIP3    H136743   8.002   0.939   2.291
12262TIP3    H236744   7.888   0.926   2.390
12263TIP3   OH236745   3.394   3.468   2.408
12263TIP3    H136746   3.480   3.435   2.433
12263TIP3    H236747   3.339   3.450   2.484
12264TIP3   OH236748   3.562   6.670   3.651
12264TIP3    H136749   3.535   6.665   3.742
12264TIP3    H236750   3.657   6.683   3.655
12265TIP3   OH236751   0.397   6.182   5.766
12265TIP3    H136752   0.468   6.245   5.768
12265TIP3    H236753   0.357   6.188   5.853
12266TIP3   OH236754   2.400   5.485   4.459
12266TIP3    H136755   2.435   5.536   4.387
12266TIP3    H236756   2.466   5.493   4.528
12267TIP3   OH236757   0.042   2.712   3.464
12267TIP3    H136758   0.133   2.739   3.459
12267TIP3    H236759  -0.003   2.764   3.397
12268TIP3   OH236760   4.313   5.139   3.556
12268TIP3    H136761   4.312   5.107   3.647
12268TIP3    H236762   4.361   5.222   3.561
12269TIP3   OH236763   8.201   2.593   1.500
12269TIP3    H136764   8.210   2.669   1.558
12269TIP3    H236765   8.213   2.517   1.557
12270TIP3   OH236766   7.207   2.744   4.371
12270TIP3    H136767   7.163   2.815   4.324
12270TIP3    H236768   7.271   2.788   4.426
12271TIP3   OH236769   1.428   4.638   5.505
12271TIP3    H136770   1.340   4.606   5.485
12271TIP3    H236771   1.463   4.667   5.420
12272TIP3   OH236772   1.054   2.478   2.074
12272TIP3    H136773   1.143   2.464   2.103
12272TIP3    H236774   1.060   2.550   2.011
12273TIP3   OH236775   3.688   5.129   5.349
12273TIP3    H136776   3.707   5.047   5.394
12273TIP3    H236777   3.593   5.135   5.348
12274TIP3   OH236778   7.331   3.331   0.882
12274TIP3    H136779   7.242   3.305   0.907
12274TIP3    H236780   7.370   3.363   0.963
12275TIP3   OH236781   0.862   7.021   1.315
12275TIP3    H136782   0.883   6.929   1.333
12275TIP3    H236783   0.886   7.066   1.396
12276TIP3   OH236784   3.218   4.500   1.567
12276TIP3    H136785   3.204   4.406   1.566
12276TIP3    H236786   3.312   4.511   1.582
12277TIP3   OH236787   7.985   5.365   5.123
12277TIP3    H136788   8.069   5.399   5.153
12277TIP3    H236789   7.951   5.431   5.064
12278TIP3   OH236790   5.803   6.749   0.258
12278TIP3    H136791   5.872   6.684   0.248
12278TIP3    H236792   5.722   6.702   0.240
12279TIP3   OH236793   6.116   7.392   5.734
12279TIP3    H136794   6.148   7.314   5.689
12279TIP3    H236795   6.189   7.454   5.730
12280TIP3   OH236796   1.722   2.234   4.127
12280TIP3    H136797   1.686   2.320   4.149
12280TIP3    H236798   1.712   2.227   4.032
12281TIP3   OH236799   3.208   2.211   0.393
12281TIP3    H136800   3.295   2.198   0.353
12281TIP3    H236801   3.149   2.161   0.338
12282TIP3   OH236802   1.381   0.961   4.371
12282TIP3    H136803   1.390   0.889   4.309
12282TIP3    H236804   1.390   0.921   4.457
12283TIP3   OH236805   7.905   4.340   5.951
12283TIP3    H136806   7.991   4.379   5.944
12283TIP3    H236807   7.844   4.411   5.930
12284TIP3   OH236808   3.979   2.321   3.908
12284TIP3    H136809   3.918   2.355   3.974
12284TIP3    H236810   3.997   2.231   3.936
12285TIP3   OH236811   1.866   7.682   4.142
12285TIP3    H136812   1.787   7.730   4.119
12285TIP3    H236813   1.904   7.656   4.058
12286TIP3   OH236814   0.945   0.957   6.111
12286TIP3    H136815   0.971   0.991   6.196
12286TIP3    H236816   1.026   0.951   6.061
12287TIP3   OH236817  -0.007   0.931   1.195
12287TIP3    H136818   0.009   0.863   1.129
12287TIP3    H236819   0.016   1.013   1.150
12288TIP3   OH236820   3.060   1.489   0.142
12288TIP3    H136821   2.991   1.514   0.203
12288TIP3    H236822   3.019   1.428   0.081
12289TIP3   OH236823   8.131   2.371   2.073
12289TIP3    H136824   8.126   2.415   1.988
12289TIP3    H236825   8.223   2.376   2.097
12290TIP3   OH236826   6.239   3.713   0.631
12290TIP3    H136827   6.328   3.740   0.655
12290TIP3    H236828   6.238   3.618   0.646
12291TIP3   OH236829   7.620   5.683   5.758
12291TIP3    H136830   7.599   5.594   5.731
12291TIP3    H236831   7.537   5.730   5.756
12292TIP3   OH236832   7.193   0.446   6.302
12292TIP3    H136833   7.250   0.502   6.249
12292TIP3    H236834   7.252   0.382   6.342
12293TIP3   OH236835   7.616   4.494   1.594
12293TIP3    H136836   7.664   4.576   1.583
12293TIP3    H236837   7.580   4.476   1.507
12294TIP3   OH236838   7.093   4.037   0.120
12294TIP3    H136839   7.035   4.067   0.050
12294TIP3    H236840   7.152   4.110   0.136
12295TIP3   OH236841   1.041   6.357   5.711
12295TIP3    H136842   1.062   6.363   5.618
12295TIP3    H236843   0.949   6.328   5.712
12296TIP3   OH236844   6.607   7.045   2.591
12296TIP3    H136845   6.603   7.071   2.683
12296TIP3    H236846   6.579   7.124   2.544
12297TIP3   OH236847   2.590   0.318   4.276
12297TIP3    H136848   2.607   0.224   4.275
12297TIP3    H236849   2.610   0.345   4.366
12298TIP3   OH236850   5.269   0.889   4.535
12298TIP3    H136851   5.253   0.975   4.497
12298TIP3    H236852   5.198   0.835   4.500
12299TIP3   OH236853   4.694   2.214   4.522
12299TIP3    H136854   4.622   2.193   4.581
12299TIP3    H236855   4.732   2.129   4.498
12300TIP3   OH236856   4.584   0.098   2.131
12300TIP3    H136857   4.612   0.037   2.199
12300TIP3    H236858   4.493   0.117   2.151
12301TIP3   OH236859   0.261   4.809   1.100
12301TIP3    H136860   0.219   4.736   1.055
12301TIP3    H236861   0.280   4.775   1.188
12302TIP3   OH236862   4.520   6.931   2.714
12302TIP3    H136863   4.524   6.978   2.630
12302TIP3    H236864   4.598   6.875   2.713
12303TIP3   OH236865   7.354   5.119   1.494
12303TIP3    H136866   7.261   5.097   1.484
12303TIP3    H236867   7.360   5.210   1.465
12304TIP3   OH236868   5.752   4.227   0.113
12304TIP3    H136869   5.731   4.153   0.170
12304TIP3    H236870   5.817   4.278   0.162
12305TIP3   OH236871   6.303   7.166   3.875
12305TIP3    H136872   6.257   7.114   3.809
12305TIP3    H236873   6.292   7.116   3.956
12306TIP3   OH236874   1.772   1.303   3.962
12306TIP3    H136875   1.735   1.215   3.965
12306TIP3    H236876   1.769   1.333   4.053
12307TIP3   OH236877   7.961   4.825   3.430
12307TIP3    H136878   8.053   4.811   3.408
12307TIP3    H236879   7.962   4.901   3.489
12308TIP3   OH236880   4.092   3.471   4.648
12308TIP3    H136881   4.055   3.431   4.569
12308TIP3    H236882   4.185   3.448   4.644
12309TIP3   OH236883   2.840   7.076   2.365
12309TIP3    H136884   2.761   7.117   2.331
12309TIP3    H236885   2.853   7.117   2.451
12310TIP3   OH236886   2.690   4.970   3.245
12310TIP3    H136887   2.669   4.877   3.243
12310TIP3    H236888   2.654   5.001   3.328
12311TIP3   OH236889   2.940   7.147   5.446
12311TIP3    H136890   3.033   7.124   5.442
12311TIP3    H236891   2.894   7.063   5.435
12312TIP3   OH236892   8.123   5.276   5.629
12312TIP3    H136893   8.146   5.261   5.721
12312TIP3    H236894   8.173   5.354   5.604
12313TIP3   OH236895   6.888   2.093   6.195
12313TIP3    H136896   6.889   2.113   6.288
12313TIP3    H236897   6.798   2.110   6.168
12314TIP3   OH236898   4.446   3.888   1.288
12314TIP3    H136899   4.379   3.835   1.245
12314TIP3    H236900   4.421   3.978   1.268
12315TIP3   OH236901   1.473   3.632   5.732
12315TIP3    H136902   1.536   3.607   5.799
12315TIP3    H236903   1.388   3.610   5.769
12316TIP3   OH236904   4.239   1.665   5.345
12316TIP3    H136905   4.274   1.675   5.433
12316TIP3    H236906   4.314   1.678   5.287
12317TIP3   OH236907   1.914   1.370   3.452
12317TIP3    H136908   1.940   1.295   3.397
12317TIP3    H236909   1.941   1.345   3.540
12318TIP3   OH236910   7.393   7.213   5.762
12318TIP3    H136911   7.407   7.166   5.844
12318TIP3    H236912   7.303   7.245   5.768
12319TIP3   OH236913   0.413   3.291   2.782
12319TIP3    H136914   0.322   3.262   2.782
12319TIP3    H236915   0.410   3.380   2.817
12320TIP3   OH236916   7.670   7.706   2.385
12320TIP3    H136917   7.631   7.664   2.461
12320TIP3    H236918   7.599   7.713   2.322
12321TIP3   OH236919   7.251   7.802   4.955
12321TIP3    H136920   7.301   7.796   5.036
12321TIP3    H236921   7.174   7.747   4.970
12322TIP3   OH236922   3.451   7.337   5.190
12322TIP3    H136923   3.412   7.251   5.205
12322TIP3    H236924   3.507   7.325   5.114
12323TIP3   OH236925   0.701   0.616   4.248
12323TIP3    H136926   0.745   0.701   4.244
12323TIP3    H236927   0.734   0.569   4.171
12324TIP3   OH236928   2.393   1.035   4.337
12324TIP3    H136929   2.471   1.090   4.328
12324TIP3    H236930   2.399   0.998   4.425
12325TIP3   OH236931   3.096   6.453   3.780
12325TIP3    H136932   3.141   6.370   3.767
12325TIP3    H236933   3.020   6.449   3.722
12326TIP3   OH236934   3.774   2.223   6.629
12326TIP3    H136935   3.719   2.299   6.646
12326TIP3    H236936   3.819   2.244   6.547
12327TIP3   OH236937   4.435   3.970   0.416
12327TIP3    H136938   4.386   3.975   0.498
12327TIP3    H236939   4.526   3.980   0.443
12328TIP3   OH236940   4.787   6.347   5.286
12328TIP3    H136941   4.771   6.337   5.193
12328TIP3    H236942   4.726   6.415   5.314
12329TIP3   OH236943   8.139   1.072   4.849
12329TIP3    H136944   8.150   1.163   4.819
12329TIP3    H236945   8.140   1.020   4.768
12330TIP3   OH236946   5.639   2.974   3.846
12330TIP3    H136947   5.612   2.893   3.887
12330TIP3    H236948   5.649   2.953   3.753
12331TIP3   OH236949   3.965   3.043   0.841
12331TIP3    H136950   4.019   2.964   0.839
12331TIP3    H236951   4.021   3.109   0.882
12332TIP3   OH236952   0.721   6.274   1.673
12332TIP3    H136953   0.669   6.351   1.654
12332TIP3    H236954   0.763   6.251   1.590
12333TIP3   OH236955   2.102   7.213   6.556
12333TIP3    H136956   2.015   7.176   6.539
12333TIP3    H236957   2.084   7.295   6.602
12334TIP3   OH236958   5.615   6.856   5.945
12334TIP3    H136959   5.632   6.880   6.036
12334TIP3    H236960   5.580   6.935   5.905
12335TIP3   OH236961   2.909   3.075   2.862
12335TIP3    H136962   2.842   3.067   2.930
12335TIP3    H236963   2.962   3.150   2.889
12336TIP3   OH236964   0.557   6.600   3.858
12336TIP3    H136965   0.498   6.526   3.845
12336TIP3    H236966   0.601   6.580   3.941
12337TIP3   OH236967   3.992   3.585   5.346
12337TIP3    H136968   4.079   3.557   5.374
12337TIP3    H236969   3.984   3.674   5.379
12338TIP3   OH236970   1.590   1.000   2.669
12338TIP3    H136971   1.517   1.016   2.609
12338TIP3    H236972   1.668   1.018   2.617
12339TIP3   OH236973   5.273   3.250   1.764
12339TIP3    H136974   5.316   3.178   1.717
12339TIP3    H236975   5.328   3.326   1.748
12340TIP3   OH236976   0.805   7.064   0.202
12340TIP3    H136977   0.820   7.041   0.294
12340TIP3    H236978   0.725   7.116   0.203
12341TIP3   OH236979   6.815   0.263   4.452
12341TIP3    H136980   6.805   0.324   4.525
12341TIP3    H236981   6.821   0.177   4.494
12342TIP3   OH236982   7.322   5.889   1.914
12342TIP3    H136983   7.411   5.923   1.902
12342TIP3    H236984   7.278   5.906   1.831
12343TIP3   OH236985   4.098   1.860   1.079
12343TIP3    H136986   4.017   1.865   1.029
12343TIP3    H236987   4.078   1.800   1.151
12344TIP3   OH236988   7.850   5.215   2.080
12344TIP3    H136989   7.806   5.300   2.084
12344TIP3    H236990   7.897   5.215   1.997
12345TIP3   OH236991   4.461   2.964   6.546
12345TIP3    H136992   4.513   3.007   6.615
12345TIP3    H236993   4.425   3.037   6.496
12346TIP3   OH236994   7.671   4.117   6.752
12346TIP3    H136995   7.765   4.120   6.770
12346TIP3    H236996   7.652   4.024   6.743
12347TIP3   OH236997   6.239   2.483   0.612
12347TIP3    H136998   6.170   2.424   0.643
12347TIP3    H236999   6.215   2.569   0.648
12348TIP3   OH237000   7.975   3.011   4.881
12348TIP3    H137001   7.898   2.986   4.830
12348TIP3    H237002   7.992   2.935   4.937
12349TIP3   OH237003   1.426   0.672   2.260
12349TIP3    H137004   1.483   0.697   2.333
12349TIP3    H237005   1.371   0.601   2.296
12350TIP3   OH237006   6.254   5.664   4.879
12350TIP3    H137007   6.208   5.591   4.839
12350TIP3    H237008   6.188   5.709   4.932
12351TIP3   OH237009   0.259   6.911   2.447
12351TIP3    H137010   0.208   6.973   2.500
12351TIP3    H237011   0.298   6.852   2.511
12352TIP3   OH237012   1.685   7.236   1.897
12352TIP3    H137013   1.758   7.287   1.934
12352TIP3    H237014   1.609   7.292   1.909
12353TIP3   OH237015   2.725   0.399   3.975
12353TIP3    H137016   2.812   0.371   3.949
12353TIP3    H237017   2.721   0.381   4.069
12354TIP3   OH237018   4.542   0.800   5.949
12354TIP3    H137019   4.522   0.869   5.886
12354TIP3    H237020   4.547   0.846   6.033
12355TIP3   OH237021   1.128   2.727   4.107
12355TIP3    H137022   1.139   2.812   4.149
12355TIP3    H237023   1.036   2.705   4.122
12356TIP3   OH237024   2.217   5.442   3.824
12356TIP3    H137025   2.272   5.520   3.814
12356TIP3    H237026   2.127   5.476   3.818
12357TIP3   OH237027   7.395   6.359   1.278
12357TIP3    H137028   7.433   6.319   1.200
12357TIP3    H237029   7.326   6.298   1.305
12358TIP3   OH237030   6.060   1.481   0.867
12358TIP3    H137031   6.126   1.420   0.835
12358TIP3    H237032   6.049   1.459   0.959
12359TIP3   OH237033   0.633   6.719   4.799
12359TIP3    H137034   0.676   6.646   4.755
12359TIP3    H237035   0.542   6.715   4.770
12360TIP3   OH237036   0.971   5.073   5.578
12360TIP3    H137037   0.958   5.074   5.483
12360TIP3    H237038   0.886   5.096   5.615
12361TIP3   OH237039   0.612   1.539   2.261
12361TIP3    H137040   0.529   1.507   2.226
12361TIP3    H237041   0.656   1.460   2.293
12362TIP3   OH237042   1.074   6.455   3.133
12362TIP3    H137043   1.008   6.389   3.115
12362TIP3    H237044   1.094   6.493   3.048
12363TIP3   OH237045   5.529   5.413   4.185
12363TIP3    H137046   5.468   5.353   4.229
12363TIP3    H237047   5.611   5.403   4.233
12364TIP3   OH237048   3.211   3.139   0.197
12364TIP3    H137049   3.303   3.159   0.181
12364TIP3    H237050   3.212   3.052   0.237
12365TIP3   OH237051   1.678   0.575   3.369
12365TIP3    H137052   1.645   0.665   3.371
12365TIP3    H237053   1.632   0.534   3.295
12366TIP3   OH237054   7.419   3.659   4.921
12366TIP3    H137055   7.373   3.743   4.915
12366TIP3    H237056   7.505   3.676   4.881
12367TIP3   OH237057   3.575   3.871   1.344
12367TIP3    H137058   3.632   3.795   1.343
12367TIP3    H237059   3.507   3.851   1.280
12368TIP3   OH237060   6.343   6.154   0.517
12368TIP3    H137061   6.432   6.188   0.523
12368TIP3    H237062   6.338   6.115   0.430
12369TIP3   OH237063   5.604   3.907   1.769
12369TIP3    H137064   5.590   3.992   1.728
12369TIP3    H237065   5.538   3.850   1.730
12370TIP3   OH237066   6.174   7.008   3.708
12370TIP3    H137067   6.254   6.995   3.656
12370TIP3    H237068   6.103   6.982   3.650
12371TIP3   OH237069   7.284   7.093   0.723
12371TIP3    H137070   7.356   7.034   0.703
12371TIP3    H237071   7.208   7.055   0.678
12372TIP3   OH237072   2.796   5.724   1.490
12372TIP3    H137073   2.830   5.809   1.464
12372TIP3    H237074   2.709   5.719   1.452
12373TIP3   OH237075   2.449   2.459   1.109
12373TIP3    H137076   2.489   2.441   1.194
12373TIP3    H237077   2.481   2.389   1.052
12374TIP3   OH237078   1.043   3.274   5.554
12374TIP3    H137079   1.026   3.322   5.473
12374TIP3    H237080   1.136   3.290   5.572
12375TIP3   OH237081   4.290   0.376   2.969
12375TIP3    H137082   4.317   0.333   2.889
12375TIP3    H237083   4.335   0.461   2.967
12376TIP3   OH237084   7.477   6.445   3.034
12376TIP3    H137085   7.382   6.455   3.035
12376TIP3    H237086   7.510   6.517   3.088
12377TIP3   OH237087   7.802   6.866   5.979
12377TIP3    H137088   7.750   6.909   6.047
12377TIP3    H237089   7.832   6.785   6.021
12378TIP3   OH237090   7.939   1.421   6.502
12378TIP3    H137091   7.850   1.432   6.467
12378TIP3    H237092   7.926   1.381   6.588
12379TIP3   OH237093   6.845   7.173   0.507
12379TIP3    H137094   6.764   7.122   0.500
12379TIP3    H237095   6.816   7.264   0.505
12380TIP3   OH237096   3.784   7.765   3.298
12380TIP3    H137097   3.773   7.831   3.367
12380TIP3    H237098   3.704   7.770   3.246
12381TIP3   OH237099   2.010   2.548   2.318
12381TIP3    H137100   1.973   2.632   2.343
12381TIP3    H237101   2.038   2.559   2.227
12382TIP3   OH237102   5.145   3.762   1.610
12382TIP3    H137103   5.198   3.839   1.590
12382TIP3    H237104   5.151   3.752   1.705
12383TIP3   OH237105   2.191   1.434   1.557
12383TIP3    H137106   2.145   1.500   1.609
12383TIP3    H237107   2.132   1.359   1.555
12384TIP3   OH237108   8.246   2.884   5.050
12384TIP3    H137109   8.164   2.836   5.043
12384TIP3    H237110   8.225   2.960   5.104
12385TIP3   OH237111   4.486   3.504   4.147
12385TIP3    H137112   4.485   3.435   4.081
12385TIP3    H237113   4.537   3.574   4.108
12386TIP3   OH237114   0.806   6.547   1.544
12386TIP3    H137115   0.799   6.537   1.639
12386TIP3    H237116   0.814   6.458   1.511
12387TIP3   OH237117   7.437   1.706   5.521
12387TIP3    H137118   7.467   1.776   5.580
12387TIP3    H237119   7.516   1.679   5.475
12388TIP3   OH237120   2.124   2.786   4.135
12388TIP3    H137121   2.184   2.835   4.190
12388TIP3    H237122   2.169   2.779   4.051
12389TIP3   OH237123   0.086   7.062   2.623
12389TIP3    H137124   0.135   7.143   2.636
12389TIP3    H237125   0.002   7.077   2.667
12390TIP3   OH237126   0.601   7.155   3.924
12390TIP3    H137127   0.604   7.066   3.891
12390TIP3    H237128   0.672   7.160   3.988
12391TIP3   OH237129   1.303   0.433   6.166
12391TIP3    H137130   1.344   0.519   6.157
12391TIP3    H237131   1.367   0.372   6.129
12392TIP3   OH237132   6.982   1.754   4.634
12392TIP3    H137133   6.963   1.701   4.557
12392TIP3    H237134   6.897   1.786   4.663
12393TIP3   OH237135   8.270   7.365   1.595
12393TIP3    H137136   8.345   7.332   1.644
12393TIP3    H237137   8.221   7.418   1.658
12394TIP3   OH237138   2.357   4.949   3.698
12394TIP3    H137139   2.291   4.907   3.754
12394TIP3    H237140   2.362   4.893   3.621
12395TIP3   OH237141   2.755   2.011   0.542
12395TIP3    H137142   2.713   1.959   0.611
12395TIP3    H237143   2.837   1.966   0.525
12396TIP3   OH237144   4.415   7.481   1.236
12396TIP3    H137145   4.476   7.408   1.249
12396TIP3    H237146   4.388   7.472   1.144
12397TIP3   OH237147   1.319   3.967   2.499
12397TIP3    H137148   1.264   3.974   2.421
12397TIP3    H237149   1.313   4.054   2.540
12398TIP3   OH237150   3.910   2.265   3.068
12398TIP3    H137151   3.869   2.295   2.986
12398TIP3    H237152   4.000   2.244   3.043
12399TIP3   OH237153   2.380   2.296   2.624
12399TIP3    H137154   2.295   2.338   2.621
12399TIP3    H237155   2.443   2.368   2.627
12400TIP3   OH237156   4.771   2.318   1.037
12400TIP3    H137157   4.767   2.226   1.008
12400TIP3    H237158   4.775   2.368   0.956
12401TIP3   OH237159   0.670   0.267   6.561
12401TIP3    H137160   0.674   0.344   6.619
12401TIP3    H237161   0.701   0.195   6.616
12402TIP3   OH237162   2.662   4.439   1.069
12402TIP3    H137163   2.594   4.378   1.098
12402TIP3    H237164   2.738   4.417   1.123
12403TIP3   OH237165   7.722   4.971   5.425
12403TIP3    H137166   7.766   5.045   5.466
12403TIP3    H237167   7.701   5.001   5.337
12404TIP3   OH237168   4.147  -0.006   2.988
12404TIP3    H137169   4.093   0.067   3.019
12404TIP3    H237170   4.104  -0.084   3.023
12405TIP3   OH237171   5.079   4.428   1.331
12405TIP3    H137172   5.095   4.469   1.416
12405TIP3    H237173   5.122   4.486   1.268
12406TIP3   OH237174   0.318   0.974   1.096
12406TIP3    H137175   0.377   1.005   1.165
12406TIP3    H237176   0.251   1.042   1.091
12407TIP3   OH237177   7.623   4.817   4.942
12407TIP3    H137178   7.655   4.818   4.852
12407TIP3    H237179   7.620   4.725   4.966
12408TIP3   OH237180   0.268   2.411   3.058
12408TIP3    H137181   0.302   2.459   3.134
12408TIP3    H237182   0.234   2.480   3.000
12409TIP3   OH237183   2.565   4.019   2.431
12409TIP3    H137184   2.561   4.011   2.526
12409TIP3    H237185   2.489   4.072   2.408
12410TIP3   OH237186   7.660   1.639   0.398
12410TIP3    H137187   7.590   1.590   0.441
12410TIP3    H237188   7.638   1.635   0.305
12411TIP3   OH237189   4.364   2.049   0.675
12411TIP3    H137190   4.315   2.051   0.757
12411TIP3    H237191   4.452   2.077   0.699
12412TIP3   OH237192   6.526   6.833   2.436
12412TIP3    H137193   6.546   6.908   2.492
12412TIP3    H237194   6.495   6.873   2.355
12413TIP3   OH237195   7.118   4.657   1.292
12413TIP3    H137196   7.037   4.708   1.302
12413TIP3    H237197   7.139   4.664   1.199
12414TIP3   OH237198   5.513   4.466   1.068
12414TIP3    H137199   5.595   4.460   1.117
12414TIP3    H237200   5.476   4.378   1.071
12415TIP3   OH237201   0.802   4.602   4.519
12415TIP3    H137202   0.736   4.535   4.500
12415TIP3    H237203   0.783   4.672   4.456
12416TIP3   OH237204   1.727   3.612   0.561
12416TIP3    H137205   1.677   3.659   0.495
12416TIP3    H237206   1.662   3.561   0.609
12417TIP3   OH237207   3.053   7.658   4.905
12417TIP3    H137208   3.143   7.626   4.906
12417TIP3    H237209   3.057   7.740   4.855
12418TIP3   OH237210   7.492   7.159   0.397
12418TIP3    H137211   7.572   7.195   0.436
12418TIP3    H237212   7.427   7.228   0.409
12419TIP3   OH237213   1.568   4.656   6.274
12419TIP3    H137214   1.520   4.590   6.224
12419TIP3    H237215   1.625   4.698   6.210
12420TIP3   OH237216   4.163   0.466   3.686
12420TIP3    H137217   4.154   0.523   3.763
12420TIP3    H237218   4.257   0.466   3.668
12421TIP3   OH237219   8.133   3.670   4.747
12421TIP3    H137220   8.182   3.749   4.771
12421TIP3    H237221   8.117   3.626   4.831
12422TIP3   OH237222   0.223   0.816   2.184
12422TIP3    H137223   0.191   0.900   2.152
12422TIP3    H237224   0.242   0.830   2.277
12423TIP3   OH237225   2.759   3.405   1.911
12423TIP3    H137226   2.704   3.396   1.988
12423TIP3    H237227   2.834   3.458   1.940
12424TIP3   OH237228   0.216   2.826   3.831
12424TIP3    H137229   0.199   2.892   3.899
12424TIP3    H237230   0.160   2.752   3.856
12425TIP3   OH237231   2.646   6.448   4.549
12425TIP3    H137232   2.716   6.422   4.609
12425TIP3    H237233   2.589   6.504   4.602
12426TIP3   OH237234   7.191   2.351   2.634
12426TIP3    H137235   7.158   2.261   2.632
12426TIP3    H237236   7.271   2.346   2.686
12427TIP3   OH237237   4.490   7.001   3.102
12427TIP3    H137238   4.574   7.036   3.073
12427TIP3    H237239   4.426   7.066   3.073
12428TIP3   OH237240   3.807   2.562   3.366
12428TIP3    H137241   3.770   2.584   3.451
12428TIP3    H237242   3.739   2.510   3.323
12429TIP3   OH237243   3.427   7.305   1.793
12429TIP3    H137244   3.485   7.381   1.788
12429TIP3    H237245   3.458   7.256   1.870
12430TIP3   OH237246   0.321   7.542   0.474
12430TIP3    H137247   0.261   7.560   0.402
12430TIP3    H237248   0.400   7.591   0.452
12431TIP3   OH237249   6.379   6.992   6.774
12431TIP3    H137250   6.427   7.020   6.695
12431TIP3    H237251   6.302   6.948   6.740
12432TIP3   OH237252   8.194   6.888   5.184
12432TIP3    H137253   8.149   6.815   5.226
12432TIP3    H237254   8.286   6.877   5.208
12433TIP3   OH237255   1.065   6.601   5.850
12433TIP3    H137256   1.104   6.675   5.803
12433TIP3    H237257   1.096   6.524   5.804
12434TIP3   OH237258   1.003   7.235   6.791
12434TIP3    H137259   1.024   7.279   6.873
12434TIP3    H237260   1.086   7.195   6.763
12435TIP3   OH237261   3.709   2.909   1.336
12435TIP3    H137262   3.714   2.920   1.241
12435TIP3    H237263   3.620   2.936   1.359
12436TIP3   OH237264   6.903   6.933   6.584
12436TIP3    H137265   6.876   6.931   6.492
12436TIP3    H237266   6.866   6.853   6.622
12437TIP3   OH237267   1.698   3.296   4.326
12437TIP3    H137268   1.726   3.388   4.327
12437TIP3    H237269   1.618   3.295   4.273
12438TIP3   OH237270   5.072   5.429   0.499
12438TIP3    H137271   5.023   5.409   0.419
12438TIP3    H237272   5.149   5.373   0.494
12439TIP3   OH237273   7.404   4.220   0.948
12439TIP3    H137274   7.352   4.154   0.902
12439TIP3    H237275   7.470   4.169   0.996
12440TIP3   OH237276   7.288   6.431   2.341
12440TIP3    H137277   7.244   6.512   2.365
12440TIP3    H237278   7.326   6.448   2.255
12441TIP3   OH237279   5.417   5.882   4.466
12441TIP3    H137280   5.416   5.935   4.546
12441TIP3    H237281   5.340   5.826   4.474
12442TIP3   OH237282   6.500   6.859   0.993
12442TIP3    H137283   6.455   6.903   1.065
12442TIP3    H237284   6.527   6.930   0.935
12443TIP3   OH237285   2.902   2.671   5.561
12443TIP3    H137286   2.819   2.717   5.557
12443TIP3    H237287   2.906   2.635   5.649
12444TIP3   OH237288   2.780   1.582   3.570
12444TIP3    H137289   2.869   1.552   3.556
12444TIP3    H237290   2.787   1.653   3.634
12445TIP3   OH237291   2.820   7.292   1.793
12445TIP3    H137292   2.895   7.238   1.818
12445TIP3    H237293   2.747   7.255   1.843
12446TIP3   OH237294   5.254   5.016   5.166
12446TIP3    H137295   5.182   4.952   5.162
12446TIP3    H237296   5.329   4.966   5.198
12447TIP3   OH237297   7.996   4.453   2.092
12447TIP3    H137298   8.068   4.502   2.053
12447TIP3    H237299   7.924   4.516   2.098
12448TIP3   OH237300   7.489   3.712   6.317
12448TIP3    H137301   7.446   3.796   6.333
12448TIP3    H237302   7.570   3.716   6.367
12449TIP3   OH237303   6.810   1.694   0.091
12449TIP3    H137304   6.874   1.765   0.095
12449TIP3    H237305   6.768   1.695   0.178
12450TIP3   OH237306   2.494   4.303   4.435
12450TIP3    H137307   2.551   4.299   4.359
12450TIP3    H237308   2.541   4.254   4.503
12451TIP3   OH237309   3.266   5.881   0.738
12451TIP3    H137310   3.273   5.862   0.832
12451TIP3    H237311   3.172   5.880   0.721
12452TIP3   OH237312   2.268   5.732   5.123
12452TIP3    H137313   2.343   5.675   5.137
12452TIP3    H237314   2.247   5.723   5.030
12453TIP3   OH237315   1.410   4.912   4.795
12453TIP3    H137316   1.352   4.977   4.756
12453TIP3    H237317   1.351   4.845   4.830
12454TIP3   OH237318   3.106   1.398   3.072
12454TIP3    H137319   3.090   1.311   3.035
12454TIP3    H237320   3.169   1.383   3.142
12455TIP3   OH237321   3.096   2.648   4.731
12455TIP3    H137322   3.127   2.680   4.646
12455TIP3    H237323   3.177   2.629   4.779
12456TIP3   OH237324   7.264   4.451   0.486
12456TIP3    H137325   7.353   4.461   0.451
12456TIP3    H237326   7.260   4.361   0.517
12457TIP3   OH237327   3.770   5.389   0.236
12457TIP3    H137328   3.856   5.369   0.271
12457TIP3    H237329   3.750   5.477   0.268
12458TIP3   OH237330   6.810   3.195   1.912
12458TIP3    H137331   6.852   3.272   1.874
12458TIP3    H237332   6.787   3.221   2.001
12459TIP3   OH237333   0.644   5.101   0.180
12459TIP3    H137334   0.621   5.117   0.088
12459TIP3    H237335   0.709   5.168   0.200
12460TIP3   OH237336   3.191   4.354   3.203
12460TIP3    H137337   3.274   4.309   3.189
12460TIP3    H237338   3.134   4.322   3.133
12461TIP3   OH237339   1.932   6.694   4.645
12461TIP3    H137340   1.965   6.659   4.729
12461TIP3    H237341   1.909   6.785   4.665
12462TIP3   OH237342   7.646   0.118   2.554
12462TIP3    H137343   7.624   0.111   2.462
12462TIP3    H237344   7.723   0.062   2.565
12463TIP3   OH237345   3.638   1.911   6.519
12463TIP3    H137346   3.593   1.915   6.434
12463TIP3    H237347   3.658   2.002   6.539
12464TIP3   OH237348   1.154   6.540   1.917
12464TIP3    H137349   1.236   6.493   1.925
12464TIP3    H237350   1.118   6.542   2.006
12465TIP3   OH237351   7.221   1.020   1.718
12465TIP3    H137352   7.186   0.992   1.634
12465TIP3    H237353   7.153   0.998   1.781
12466TIP3   OH237354   6.596   2.278   6.035
12466TIP3    H137355   6.510   2.260   6.073
12466TIP3    H237356   6.590   2.242   5.946
12467TIP3   OH237357   0.554   7.023   0.839
12467TIP3    H137358   0.611   7.079   0.786
12467TIP3    H237359   0.592   7.027   0.926
12468TIP3   OH237360   1.845   1.642   3.610
12468TIP3    H137361   1.775   1.582   3.636
12468TIP3    H237362   1.909   1.637   3.681
12469TIP3   OH237363   8.231   7.230   6.240
12469TIP3    H137364   8.218   7.140   6.208
12469TIP3    H237365   8.285   7.220   6.318
12470TIP3   OH237366   7.171   1.008   4.643
12470TIP3    H137367   7.171   1.085   4.700
12470TIP3    H237368   7.262   0.978   4.644
12471TIP3   OH237369   0.485   0.071   6.460
12471TIP3    H137370   0.521   0.142   6.513
12471TIP3    H237371   0.434   0.018   6.521
12472TIP3   OH237372   6.345   0.683   1.516
12472TIP3    H137373   6.329   0.684   1.422
12472TIP3    H237374   6.267   0.724   1.554
12473TIP3   OH237375   7.267   7.696   0.191
12473TIP3    H137376   7.303   7.726   0.108
12473TIP3    H237377   7.341   7.659   0.238
12474TIP3   OH237378   5.791   0.470   5.430
12474TIP3    H137379   5.762   0.388   5.390
12474TIP3    H237380   5.883   0.477   5.406
12475TIP3   OH237381   3.975   0.702   1.117
12475TIP3    H137382   3.918   0.639   1.073
12475TIP3    H237383   4.060   0.692   1.073
12476TIP3   OH237384   3.229   3.876   4.607
12476TIP3    H137385   3.261   3.959   4.643
12476TIP3    H237386   3.296   3.851   4.543
12477TIP3   OH237387   2.812   0.794   1.749
12477TIP3    H137388   2.815   0.782   1.844
12477TIP3    H237389   2.807   0.705   1.713
12478TIP3   OH237390   1.780   3.209   0.526
12478TIP3    H137391   1.728   3.188   0.604
12478TIP3    H237392   1.723   3.265   0.473
12479TIP3   OH237393   0.348   4.164   3.734
12479TIP3    H137394   0.425   4.117   3.700
12479TIP3    H237395   0.274   4.123   3.690
12480TIP3   OH237396   1.124   6.366   4.200
12480TIP3    H137397   1.153   6.431   4.264
12480TIP3    H237398   1.167   6.285   4.226
12481TIP3   OH237399   4.401   6.144   5.293
12481TIP3    H137400   4.422   6.157   5.201
12481TIP3    H237401   4.482   6.113   5.332
12482TIP3   OH237402   3.742   1.222   6.628
12482TIP3    H137403   3.756   1.315   6.608
12482TIP3    H237404   3.827   1.181   6.609
12483TIP3   OH237405   5.254   5.792   6.195
12483TIP3    H137406   5.343   5.808   6.228
12483TIP3    H237407   5.198   5.847   6.249
12484TIP3   OH237408   3.993   2.428   2.040
12484TIP3    H137409   3.969   2.446   2.131
12484TIP3    H237410   3.911   2.404   1.998
12485TIP3   OH237411   4.755   7.659   5.794
12485TIP3    H137412   4.702   7.593   5.839
12485TIP3    H237413   4.845   7.629   5.807
12486TIP3   OH237414   7.565   3.147   1.049
12486TIP3    H137415   7.480   3.104   1.034
12486TIP3    H237416   7.548   3.208   1.121
12487TIP3   OH237417   7.423   6.625   4.259
12487TIP3    H137418   7.425   6.529   4.266
12487TIP3    H237419   7.352   6.643   4.197
12488TIP3   OH237420   2.976   3.096   0.014
12488TIP3    H137421   3.044   3.082   0.080
12488TIP3    H237422   2.894   3.087   0.062
12489TIP3   OH237423   6.101   1.695   2.552
12489TIP3    H137424   6.011   1.663   2.542
12489TIP3    H237425   6.103   1.776   2.501
12490TIP3   OH237426   2.688   6.019   5.460
12490TIP3    H137427   2.632   5.981   5.528
12490TIP3    H237428   2.705   6.108   5.491
12491TIP3   OH237429   1.841   4.872   0.715
12491TIP3    H137430   1.919   4.909   0.675
12491TIP3    H237431   1.847   4.897   0.808
12492TIP3   OH237432   0.301   5.244   1.248
12492TIP3    H137433   0.249   5.318   1.218
12492TIP3    H237434   0.243   5.197   1.308
12493TIP3   OH237435   7.655   6.237   0.514
12493TIP3    H137436   7.698   6.306   0.565
12493TIP3    H237437   7.722   6.209   0.452
12494TIP3   OH237438   6.816   4.893   3.399
12494TIP3    H137439   6.851   4.979   3.377
12494TIP3    H237440   6.782   4.858   3.316
12495TIP3   OH237441   5.343   7.363   5.646
12495TIP3    H137442   5.340   7.448   5.603
12495TIP3    H237443   5.432   7.358   5.682
12496TIP3   OH237444   0.985   4.801   5.519
12496TIP3    H137445   0.898   4.767   5.503
12496TIP3    H237446   0.971   4.890   5.550
12497TIP3   OH237447   3.487   5.613   6.763
12497TIP3    H137448   3.442   5.535   6.796
12497TIP3    H237449   3.497   5.597   6.669
12498TIP3   OH237450   7.906   1.718   3.181
12498TIP3    H137451   7.820   1.746   3.147
12498TIP3    H237452   7.904   1.742   3.274
12499TIP3   OH237453   1.122   6.466   1.368
12499TIP3    H137454   1.205   6.504   1.398
12499TIP3    H237455   1.098   6.405   1.437
12500TIP3   OH237456   1.676   7.283   0.294
12500TIP3    H137457   1.662   7.213   0.358
12500TIP3    H237458   1.746   7.251   0.238
12501TIP3   OH237459   0.730   4.510   2.548
12501TIP3    H137460   0.751   4.601   2.568
12501TIP3    H237461   0.661   4.515   2.482
12502TIP3   OH237462   3.159   0.906   0.497
12502TIP3    H137463   3.203   0.930   0.415
12502TIP3    H237464   3.076   0.954   0.494
12503TIP3   OH237465   4.684   4.519   1.558
12503TIP3    H137466   4.598   4.517   1.517
12503TIP3    H237467   4.735   4.579   1.504
12504TIP3   OH237468   1.111   7.153   1.185
12504TIP3    H137469   1.076   7.241   1.193
12504TIP3    H237470   1.129   7.126   1.275
12505TIP3   OH237471   6.877   4.000   4.918
12505TIP3    H137472   6.869   3.990   4.823
12505TIP3    H237473   6.950   4.061   4.929
12506TIP3   OH237474   1.528   0.781   2.819
12506TIP3    H137475   1.536   0.846   2.750
12506TIP3    H237476   1.619   0.755   2.839
12507TIP3   OH237477   4.338   2.399   2.328
12507TIP3    H137478   4.373   2.447   2.254
12507TIP3    H237479   4.354   2.307   2.307
12508TIP3   OH237480   0.218   7.052   4.646
12508TIP3    H137481   0.236   7.145   4.662
12508TIP3    H237482   0.262   7.006   4.717
12509TIP3   OH237483   2.668   3.183   6.257
12509TIP3    H137484   2.606   3.121   6.218
12509TIP3    H237485   2.680   3.151   6.347
12510TIP3   OH237486   5.300   4.643   3.345
12510TIP3    H137487   5.362   4.677   3.410
12510TIP3    H237488   5.282   4.553   3.372
12511TIP3   OH237489   3.029   1.665   4.093
12511TIP3    H137490   2.968   1.620   4.151
12511TIP3    H237491   3.027   1.615   4.012
12512TIP3   OH237492   3.019   2.453   3.801
12512TIP3    H137493   2.936   2.451   3.849
12512TIP3    H237494   3.080   2.495   3.861
12513TIP3   OH237495   5.401   6.711   5.068
12513TIP3    H137496   5.353   6.774   5.014
12513TIP3    H237497   5.346   6.700   5.146
12514TIP3   OH237498   5.705   5.161   4.286
12514TIP3    H137499   5.714   5.161   4.191
12514TIP3    H237500   5.619   5.122   4.302
12515TIP3   OH237501   4.622   3.674   4.861
12515TIP3    H137502   4.546   3.707   4.812
12515TIP3    H237503   4.595   3.681   4.953
12516TIP3   OH237504   8.141   6.668   4.833
12516TIP3    H137505   8.201   6.742   4.842
12516TIP3    H237506   8.107   6.654   4.922
12517TIP3   OH237507   2.924   4.856   1.468
12517TIP3    H137508   2.908   4.812   1.552
12517TIP3    H237509   2.839   4.892   1.443
12518TIP3   OH237510   2.512   1.101   5.378
12518TIP3    H137511   2.509   1.088   5.283
12518TIP3    H237512   2.521   1.196   5.388
12519TIP3   OH237513   5.398   2.239   3.545
12519TIP3    H137514   5.395   2.278   3.457
12519TIP3    H237515   5.402   2.144   3.529
12520TIP3   OH237516   4.106   6.400   0.481
12520TIP3    H137517   4.105   6.304   0.483
12520TIP3    H237518   4.159   6.425   0.556
12521TIP3   OH237519   0.240   3.455   2.490
12521TIP3    H137520   0.229   3.425   2.400
12521TIP3    H237521   0.318   3.510   2.488
12522TIP3   OH237522   8.042   3.309   5.758
12522TIP3    H137523   8.087   3.393   5.750
12522TIP3    H237524   8.112   3.248   5.781
12523TIP3   OH237525   5.750   0.617   2.561
12523TIP3    H137526   5.828   0.649   2.515
12523TIP3    H237527   5.770   0.527   2.583
12524TIP3   OH237528   1.759   6.376   4.612
12524TIP3    H137529   1.786   6.288   4.640
12524TIP3    H237530   1.826   6.402   4.548
12525TIP3   OH237531   6.637   4.705   1.123
12525TIP3    H137532   6.600   4.635   1.070
12525TIP3    H237533   6.731   4.703   1.105
12526TIP3   OH237534   8.152   2.322   4.470
12526TIP3    H137535   8.123   2.340   4.380
12526TIP3    H237536   8.091   2.255   4.502
12527TIP3   OH237537   0.809   6.780   5.338
12527TIP3    H137538   0.795   6.686   5.353
12527TIP3    H237539   0.900   6.795   5.364
12528TIP3   OH237540   4.733   2.007   3.654
12528TIP3    H137541   4.686   1.925   3.641
12528TIP3    H237542   4.705   2.036   3.741
12529TIP3   OH237543   8.057   2.067   3.746
12529TIP3    H137544   7.989   2.124   3.709
12529TIP3    H237545   8.131   2.126   3.762
12530TIP3   OH237546   0.074   2.375   6.304
12530TIP3    H137547   0.030   2.333   6.378
12530TIP3    H237548   0.055   2.317   6.230
12531TIP3   OH237549   7.280   2.794   6.208
12531TIP3    H137550   7.285   2.877   6.256
12531TIP3    H237551   7.269   2.821   6.116
12532TIP3   OH237552   7.892   5.384   1.436
12532TIP3    H137553   7.840   5.432   1.500
12532TIP3    H237554   7.880   5.432   1.354
12533TIP3   OH237555   4.127   3.388   6.612
12533TIP3    H137556   4.212   3.432   6.610
12533TIP3    H237557   4.071   3.446   6.663
12534TIP3   OH237558   3.146   7.750   4.045
12534TIP3    H137559   3.150   7.701   4.128
12534TIP3    H237560   3.076   7.707   3.996
12535TIP3   OH237561   0.296   2.640   5.714
12535TIP3    H137562   0.354   2.568   5.690
12535TIP3    H237563   0.351   2.718   5.706
12536TIP3   OH237564   3.923   0.212   5.841
12536TIP3    H137565   3.977   0.141   5.806
12536TIP3    H237566   3.834   0.192   5.811
12537TIP3   OH237567   5.362   0.325   5.549
12537TIP3    H137568   5.382   0.268   5.623
12537TIP3    H237569   5.266   0.331   5.550
12538TIP3   OH237570   2.004   3.716   5.174
12538TIP3    H137571   2.026   3.677   5.259
12538TIP3    H237572   1.997   3.810   5.191
12539TIP3   OH237573   8.176   0.761   0.279
12539TIP3    H137574   8.224   0.762   0.361
12539TIP3    H237575   8.172   0.853   0.252
12540TIP3   OH237576   0.591   3.134   2.575
12540TIP3    H137577   0.529   3.206   2.562
12540TIP3    H237578   0.578   3.109   2.667
12541TIP3   OH237579   0.375   2.774   4.819
12541TIP3    H137580   0.395   2.772   4.726
12541TIP3    H237581   0.312   2.846   4.828
12542TIP3   OH237582   2.023   3.457   4.234
12542TIP3    H137583   2.063   3.533   4.192
12542TIP3    H237584   1.959   3.494   4.294
12543TIP3   OH237585   0.801   5.351   3.039
12543TIP3    H137586   0.757   5.266   3.040
12543TIP3    H237587   0.894   5.330   3.031
12544TIP3   OH237588   1.244   6.780   3.630
12544TIP3    H137589   1.195   6.837   3.571
12544TIP3    H237590   1.211   6.802   3.718
12545TIP3   OH237591   1.705   2.571   0.026
12545TIP3    H137592   1.720   2.537  -0.062
12545TIP3    H237593   1.724   2.497   0.084
12546TIP3   OH237594   7.957   6.475   2.843
12546TIP3    H137595   8.011   6.547   2.877
12546TIP3    H237596   7.874   6.516   2.820
12547TIP3   OH237597   0.165   7.390   4.139
12547TIP3    H137598   0.134   7.354   4.222
12547TIP3    H237599   0.133   7.328   4.073
12548TIP3   OH237600   2.940   4.332   0.348
12548TIP3    H137601   2.859   4.367   0.309
12548TIP3    H237602   2.953   4.248   0.304
12549TIP3   OH237603   5.594   5.096   2.118
12549TIP3    H137604   5.515   5.097   2.172
12549TIP3    H237605   5.615   5.003   2.110
12550TIP3   OH237606   2.891   4.203   6.272
12550TIP3    H137607   2.845   4.126   6.239
12550TIP3    H237608   2.908   4.256   6.194
12551TIP3   OH237609   6.538   3.427   3.641
12551TIP3    H137610   6.581   3.472   3.567
12551TIP3    H237611   6.567   3.476   3.718
12552TIP3   OH237612   4.066   4.095   4.239
12552TIP3    H137613   4.115   4.090   4.157
12552TIP3    H237614   4.131   4.116   4.305
12553TIP3   OH237615   7.011   6.165   4.468
12553TIP3    H137616   7.077   6.097   4.481
12553TIP3    H237617   7.054   6.232   4.414
12554TIP3   OH237618   5.606   2.256   6.406
12554TIP3    H137619   5.646   2.332   6.363
12554TIP3    H237620   5.667   2.234   6.477
12555TIP3   OH237621   6.225   5.637   3.636
12555TIP3    H137622   6.210   5.602   3.548
12555TIP3    H237623   6.243   5.559   3.689
12556TIP3   OH237624   7.818   2.908   1.614
12556TIP3    H137625   7.898   2.876   1.571
12556TIP3    H237626   7.828   2.880   1.705
12557TIP3   OH237627   2.482   4.679   0.230
12557TIP3    H137628   2.437   4.762   0.243
12557TIP3    H237629   2.424   4.628   0.173
12558TIP3   OH237630   4.643   5.014   2.021
12558TIP3    H137631   4.650   5.108   2.005
12558TIP3    H237632   4.712   4.995   2.086
12559TIP3   OH237633   0.208   2.423   1.850
12559TIP3    H137634   0.192   2.476   1.772
12559TIP3    H237635   0.302   2.405   1.848
12560TIP3   OH237636   0.257   5.984   4.314
12560TIP3    H137637   0.224   5.900   4.347
12560TIP3    H237638   0.341   5.995   4.358
12561TIP3   OH237639   6.839   5.226   6.204
12561TIP3    H137640   6.866   5.305   6.253
12561TIP3    H237641   6.753   5.204   6.240
12562TIP3   OH237642   4.918   0.778   2.990
12562TIP3    H137643   4.973   0.716   2.943
12562TIP3    H237644   4.828   0.753   2.966
12563TIP3   OH237645   7.680   0.311   0.208
12563TIP3    H137646   7.721   0.347   0.287
12563TIP3    H237647   7.705   0.219   0.208
12564TIP3   OH237648   6.452   0.496   3.900
12564TIP3    H137649   6.498   0.559   3.955
12564TIP3    H237650   6.363   0.531   3.893
12565TIP3   OH237651   6.358   2.872   0.140
12565TIP3    H137652   6.290   2.925   0.184
12565TIP3    H237653   6.376   2.919   0.059
12566TIP3   OH237654   2.484   0.616   6.307
12566TIP3    H137655   2.489   0.525   6.279
12566TIP3    H237656   2.486   0.667   6.226
12567TIP3   OH237657   0.550   5.118   1.208
12567TIP3    H137658   0.558   5.071   1.124
12567TIP3    H237659   0.460   5.151   1.207
12568TIP3   OH237660   8.036   2.027   5.218
12568TIP3    H137661   8.001   2.042   5.306
12568TIP3    H237662   8.117   1.978   5.232
12569TIP3   OH237663   5.306   4.784   6.542
12569TIP3    H137664   5.293   4.848   6.612
12569TIP3    H237665   5.218   4.752   6.522
12570TIP3   OH237666   6.846   2.487   0.683
12570TIP3    H137667   6.879   2.500   0.594
12570TIP3    H237668   6.785   2.413   0.676
12571TIP3   OH237669   7.267   3.074   3.939
12571TIP3    H137670   7.280   2.981   3.958
12571TIP3    H237671   7.175   3.081   3.916
12572TIP3   OH237672   3.596   2.683   2.714
12572TIP3    H137673   3.666   2.656   2.655
12572TIP3    H237674   3.616   2.774   2.737
12573TIP3   OH237675   3.316   0.639   2.666
12573TIP3    H137676   3.233   0.645   2.714
12573TIP3    H237677   3.349   0.729   2.666
12574TIP3   OH237678   0.194   6.883   5.276
12574TIP3    H137679   0.192   6.925   5.190
12574TIP3    H237680   0.286   6.883   5.301
12575TIP3   OH237681   7.645   6.932   1.424
12575TIP3    H137682   7.571   6.990   1.439
12575TIP3    H237683   7.720   6.990   1.417
12576TIP3   OH237684   5.645   5.199   1.873
12576TIP3    H137685   5.616   5.157   1.954
12576TIP3    H237686   5.565   5.235   1.835
12577TIP3   OH237687   2.977   4.841   6.553
12577TIP3    H137688   3.027   4.764   6.583
12577TIP3    H237689   3.042   4.894   6.507
12578TIP3   OH237690   4.607   2.952   2.568
12578TIP3    H137691   4.688   2.929   2.523
12578TIP3    H237692   4.546   2.977   2.499
12579TIP3   OH237693   7.792   3.730   5.141
12579TIP3    H137694   7.697   3.735   5.144
12579TIP3    H237695   7.811   3.646   5.099
12580TIP3   OH237696   4.578   4.283   3.209
12580TIP3    H137697   4.643   4.228   3.165
12580TIP3    H237698   4.630   4.340   3.266
12581TIP3   OH237699   0.023   1.228   1.934
12581TIP3    H137700   0.030   1.225   1.839
12581TIP3    H237701  -0.054   1.174   1.955
12582TIP3   OH237702   6.412   5.424   3.733
12582TIP3    H137703   6.477   5.477   3.686
12582TIP3    H237704   6.397   5.349   3.676
12583TIP3   OH237705   7.362   7.669   6.511
12583TIP3    H137706   7.454   7.675   6.538
12583TIP3    H237707   7.317   7.735   6.565
12584TIP3   OH237708   0.060   6.977   0.864
12584TIP3    H137709   0.030   6.931   0.786
12584TIP3    H237710   0.005   6.943   0.934
12585TIP3   OH237711   5.507   2.898   2.770
12585TIP3    H137712   5.588   2.905   2.719
12585TIP3    H237713   5.469   2.814   2.742
12586TIP3   OH237714   5.248   5.128   6.435
12586TIP3    H137715   5.167   5.110   6.482
12586TIP3    H237716   5.236   5.085   6.350
12587TIP3   OH237717   1.493   3.658   2.910
12587TIP3    H137718   1.585   3.660   2.886
12587TIP3    H237719   1.447   3.636   2.829
12588TIP3   OH237720   2.533   1.288   4.956
12588TIP3    H137721   2.501   1.365   4.911
12588TIP3    H237722   2.600   1.252   4.898
12589TIP3   OH237723   4.115   0.532   4.635
12589TIP3    H137724   4.198   0.515   4.679
12589TIP3    H237725   4.084   0.613   4.674
12590TIP3   OH237726   3.057   7.318   6.104
12590TIP3    H137727   3.100   7.377   6.167
12590TIP3    H237728   2.983   7.369   6.071
12591TIP3   OH237729   0.184   3.837   2.850
12591TIP3    H137730   0.144   3.786   2.779
12591TIP3    H237731   0.243   3.898   2.805
12592TIP3   OH237732   7.960   7.148   4.507
12592TIP3    H137733   8.046   7.179   4.476
12592TIP3    H237734   7.943   7.070   4.456
12593TIP3   OH237735   2.280   6.052   4.887
12593TIP3    H137736   2.259   6.012   4.803
12593TIP3    H237737   2.355   6.001   4.919
12594TIP3   OH237738   0.811   7.371   4.292
12594TIP3    H137739   0.769   7.288   4.270
12594TIP3    H237740   0.739   7.433   4.301
12595TIP3   OH237741   1.368   1.911   0.042
12595TIP3    H137742   1.406   1.909  -0.046
12595TIP3    H237743   1.274   1.923   0.027
12596TIP3   OH237744   3.047   3.019   0.986
12596TIP3    H137745   3.035   3.107   0.948
12596TIP3    H237746   2.959   2.992   1.012
12597TIP3   OH237747   7.151   7.110   3.724
12597TIP3    H137748   7.224   7.054   3.749
12597TIP3    H237749   7.075   7.052   3.725
12598TIP3   OH237750   6.686   6.071   5.863
12598TIP3    H137751   6.737   6.122   5.800
12598TIP3    H237752   6.663   5.991   5.815
12599TIP3   OH237753   4.154   7.468   3.679
12599TIP3    H137754   4.086   7.437   3.620
12599TIP3    H237755   4.168   7.560   3.654
12600TIP3   OH237756   3.905   7.295   1.642
12600TIP3    H137757   3.939   7.236   1.709
12600TIP3    H237758   3.951   7.377   1.656
12601TIP3   OH237759   6.262   7.312   4.512
12601TIP3    H137760   6.281   7.405   4.522
12601TIP3    H237761   6.337   7.268   4.553
12602TIP3   OH237762   5.972   4.090   3.354
12602TIP3    H137763   6.047   4.149   3.363
12602TIP3    H237764   5.957   4.085   3.259
12603TIP3   OH237765   2.751   7.785   4.779
12603TIP3    H137766   2.824   7.829   4.823
12603TIP3    H237767   2.793   7.729   4.714
12604TIP3   OH237768   4.536   4.936   5.404
12604TIP3    H137769   4.618   4.953   5.450
12604TIP3    H237770   4.474   4.998   5.442
12605TIP3   OH237771   5.703   4.140   5.614
12605TIP3    H137772   5.661   4.211   5.662
12605TIP3    H237773   5.786   4.125   5.660
12606TIP3   OH237774   8.016   1.836   2.578
12606TIP3    H137775   8.059   1.905   2.628
12606TIP3    H237776   7.926   1.866   2.569
12607TIP3   OH237777   2.011   5.616   1.891
12607TIP3    H137778   1.940   5.672   1.858
12607TIP3    H237779   2.069   5.675   1.939
12608TIP3   OH237780   7.740   4.950   5.910
12608TIP3    H137781   7.681   4.967   5.984
12608TIP3    H237782   7.692   4.888   5.855
12609TIP3   OH237783   3.587   5.234   2.964
12609TIP3    H137784   3.492   5.222   2.953
12609TIP3    H237785   3.626   5.164   2.911
12610TIP3   OH237786   7.563   0.597   5.341
12610TIP3    H137787   7.609   0.583   5.424
12610TIP3    H237788   7.615   0.663   5.295
12611TIP3   OH237789   4.991   3.712   2.417
12611TIP3    H137790   5.011   3.796   2.460
12611TIP3    H237791   4.997   3.731   2.324
12612TIP3   OH237792   0.196   3.087   2.737
12612TIP3    H137793   0.180   3.072   2.831
12612TIP3    H237794   0.197   2.999   2.699
12613TIP3   OH237795   3.448   4.796   6.141
12613TIP3    H137796   3.402   4.823   6.062
12613TIP3    H237797   3.527   4.752   6.109
12614TIP3   OH237798   0.493   7.024   1.904
12614TIP3    H137799   0.518   7.044   1.814
12614TIP3    H237800   0.420   6.962   1.895
12615TIP3   OH237801   2.346   3.672   3.995
12615TIP3    H137802   2.380   3.711   3.914
12615TIP3    H237803   2.425   3.648   4.044
12616TIP3   OH237804   5.904   7.657   5.136
12616TIP3    H137805   5.998   7.662   5.155
12616TIP3    H237806   5.881   7.745   5.107
12617TIP3   OH237807   6.255   3.513   1.665
12617TIP3    H137808   6.218   3.446   1.607
12617TIP3    H237809   6.314   3.563   1.610
12618TIP3   OH237810   5.860   2.788   4.388
12618TIP3    H137811   5.817   2.746   4.313
12618TIP3    H237812   5.831   2.737   4.464
12619TIP3   OH237813   5.501   3.457   1.422
12619TIP3    H137814   5.591   3.442   1.396
12619TIP3    H237815   5.454   3.378   1.394
12620TIP3   OH237816   5.209   0.759   2.167
12620TIP3    H137817   5.231   0.815   2.241
12620TIP3    H237818   5.140   0.702   2.200
12621TIP3   OH237819   6.519   5.291   6.565
12621TIP3    H137820   6.586   5.348   6.528
12621TIP3    H237821   6.471   5.257   6.490
12622TIP3   OH237822   2.831   1.978   4.868
12622TIP3    H137823   2.846   1.993   4.775
12622TIP3    H237824   2.760   1.914   4.871
12623TIP3   OH237825   5.891   2.438   5.299
12623TIP3    H137826   5.901   2.500   5.227
12623TIP3    H237827   5.798   2.416   5.301
12624TIP3   OH237828   1.382   7.294   1.685
12624TIP3    H137829   1.383   7.265   1.594
12624TIP3    H237830   1.292   7.320   1.701
12625TIP3   OH237831   1.569   6.791   4.429
12625TIP3    H137832   1.541   6.728   4.363
12625TIP3    H237833   1.552   6.747   4.512
12626TIP3   OH237834   7.361   3.308   3.892
12626TIP3    H137835   7.343   3.217   3.917
12626TIP3    H237836   7.392   3.349   3.972
12627TIP3   OH237837   8.010   7.821   5.407
12627TIP3    H137838   8.012   7.866   5.491
12627TIP3    H237839   7.936   7.861   5.361
12628TIP3   OH237840   2.961   7.330   5.662
12628TIP3    H137841   2.930   7.282   5.739
12628TIP3    H237842   2.942   7.271   5.588
12629TIP3   OH237843   4.353   2.830   4.230
12629TIP3    H137844   4.337   2.764   4.163
12629TIP3    H237845   4.360   2.912   4.182
12630TIP3   OH237846   6.377   7.442   2.038
12630TIP3    H137847   6.463   7.404   2.054
12630TIP3    H237848   6.324   7.369   2.006
12631TIP3   OH237849   0.972   1.883   5.147
12631TIP3    H137850   0.947   1.896   5.239
12631TIP3    H237851   1.038   1.950   5.131
12632TIP3   OH237852   2.677   7.125   1.198
12632TIP3    H137853   2.633   7.051   1.156
12632TIP3    H237854   2.740   7.085   1.258
12633TIP3   OH237855   2.767   6.858   1.286
12633TIP3    H137856   2.745   6.872   1.378
12633TIP3    H237857   2.800   6.769   1.282
12634TIP3   OH237858   0.280   7.012   6.337
12634TIP3    H137859   0.278   6.920   6.363
12634TIP3    H237860   0.320   7.012   6.250
12635TIP3   OH237861   7.775   4.909   4.402
12635TIP3    H137862   7.784   4.968   4.328
12635TIP3    H237863   7.765   4.966   4.478
12636TIP3   OH237864   1.583   6.890   4.761
12636TIP3    H137865   1.657   6.951   4.750
12636TIP3    H237866   1.595   6.853   4.848
12637TIP3   OH237867   5.274   3.947   2.481
12637TIP3    H137868   5.321   4.029   2.466
12637TIP3    H237869   5.342   3.880   2.477
12638TIP3   OH237870   2.019   3.917   1.580
12638TIP3    H137871   2.038   3.858   1.653
12638TIP3    H237872   1.923   3.915   1.572
12639TIP3   OH237873   3.037   2.717   3.562
12639TIP3    H137874   3.082   2.758   3.488
12639TIP3    H237875   2.992   2.642   3.523
12640TIP3   OH237876   6.682   0.233   0.203
12640TIP3    H137877   6.600   0.244   0.251
12640TIP3    H237878   6.709   0.322   0.182
12641TIP3   OH237879   7.542   4.489   0.440
12641TIP3    H137880   7.626   4.462   0.477
12641TIP3    H237881   7.535   4.583   0.461
12642TIP3   OH237882   0.657   3.372   5.917
12642TIP3    H137883   0.669   3.451   5.865
12642TIP3    H237884   0.653   3.301   5.852
12643TIP3   OH237885   0.606   5.149   3.583
12643TIP3    H137886   0.647   5.235   3.573
12643TIP3    H237887   0.668   5.089   3.542
12644TIP3   OH237888   1.327   1.349   4.932
12644TIP3    H137889   1.295   1.408   5.000
12644TIP3    H237890   1.358   1.272   4.980
12645TIP3   OH237891   7.659   6.644   1.602
12645TIP3    H137892   7.632   6.725   1.559
12645TIP3    H237893   7.609   6.642   1.684
12646TIP3   OH237894   7.845   5.351   5.378
12646TIP3    H137895   7.896   5.310   5.308
12646TIP3    H237896   7.894   5.431   5.400
12647TIP3   OH237897   1.840   3.073   3.055
12647TIP3    H137898   1.914   3.023   3.089
12647TIP3    H237899   1.879   3.141   3.001
12648TIP3   OH237900   4.655   3.205   3.087
12648TIP3    H137901   4.580   3.202   3.146
12648TIP3    H237902   4.645   3.289   3.041
12649TIP3   OH237903   7.500   4.766   0.450
12649TIP3    H137904   7.535   4.780   0.362
12649TIP3    H237905   7.545   4.832   0.504
12650TIP3   OH237906   2.606   3.077   1.581
12650TIP3    H137907   2.593   3.104   1.672
12650TIP3    H237908   2.593   2.982   1.582
12651TIP3   OH237909   6.472   2.157   3.258
12651TIP3    H137910   6.434   2.124   3.176
12651TIP3    H237911   6.500   2.079   3.305
12652TIP3   OH237912   4.179   5.813   6.272
12652TIP3    H137913   4.186   5.806   6.177
12652TIP3    H237914   4.094   5.856   6.287
12653TIP3   OH237915   1.077   1.319   4.154
12653TIP3    H137916   1.145   1.271   4.201
12653TIP3    H237917   1.108   1.409   4.154
12654TIP3   OH237918   4.311   6.214   5.807
12654TIP3    H137919   4.288   6.122   5.802
12654TIP3    H237920   4.367   6.229   5.730
12655TIP3   OH237921   5.376   2.996   1.644
12655TIP3    H137922   5.331   2.945   1.711
12655TIP3    H237923   5.354   2.951   1.562
12656TIP3   OH237924   0.049   1.551   1.047
12656TIP3    H137925   0.030   1.643   1.026
12656TIP3    H237926   0.080   1.513   0.965
12657TIP3   OH237927   0.576   6.621   3.001
12657TIP3    H137928   0.483   6.642   3.008
12657TIP3    H237929   0.611   6.686   2.940
12658TIP3   OH237930   2.375   5.975   0.578
12658TIP3    H137931   2.394   6.050   0.634
12658TIP3    H237932   2.387   6.008   0.489
12659TIP3   OH237933   5.432   0.396   1.709
12659TIP3    H137934   5.351   0.446   1.696
12659TIP3    H237935   5.435   0.337   1.633
12660TIP3   OH237936   1.690   0.771   6.259
12660TIP3    H137937   1.777   0.810   6.259
12660TIP3    H237938   1.706   0.676   6.266
12661TIP3   OH237939   6.442   1.988   6.332
12661TIP3    H137940   6.405   2.011   6.417
12661TIP3    H237941   6.430   2.066   6.279
12662TIP3   OH237942   3.036   3.380   6.137
12662TIP3    H137943   2.956   3.420   6.173
12662TIP3    H237944   3.034   3.290   6.169
12663TIP3   OH237945   0.576   6.374   4.782
12663TIP3    H137946   0.671   6.380   4.776
12663TIP3    H237947   0.546   6.370   4.691
12664TIP3   OH237948   5.319   1.386   6.066
12664TIP3    H137949   5.274   1.457   6.112
12664TIP3    H237950   5.281   1.306   6.101
12665TIP3   OH237951   5.085   4.191   1.870
12665TIP3    H137952   5.087   4.282   1.901
12665TIP3    H237953   5.139   4.191   1.792
12666TIP3   OH237954   7.290   0.575   2.888
12666TIP3    H137955   7.363   0.549   2.832
12666TIP3    H237956   7.327   0.576   2.976
12667TIP3   OH237957   4.885   4.573   2.846
12667TIP3    H137958   4.838   4.649   2.878
12667TIP3    H237959   4.959   4.609   2.796
12668TIP3   OH237960   2.725   6.444   2.601
12668TIP3    H137961   2.811   6.484   2.608
12668TIP3    H237962   2.696   6.463   2.512
12669TIP3   OH237963   3.813   1.736   6.050
12669TIP3    H137964   3.735   1.760   6.001
12669TIP3    H237965   3.830   1.645   6.025
12670TIP3   OH237966   7.436   0.631   3.136
12670TIP3    H137967   7.448   0.632   3.231
12670TIP3    H237968   7.520   0.660   3.101
12671TIP3   OH237969   0.239   5.373   5.714
12671TIP3    H137970   0.173   5.348   5.649
12671TIP3    H237971   0.261   5.464   5.693
12672TIP3   OH237972   6.387   6.824   1.770
12672TIP3    H137973   6.438   6.780   1.702
12672TIP3    H237974   6.312   6.767   1.785
12673TIP3   OH237975   0.468   4.579   1.630
12673TIP3    H137976   0.549   4.531   1.610
12673TIP3    H237977   0.482   4.666   1.592
12674TIP3   OH237978   0.523   6.093   6.764
12674TIP3    H137979   0.436   6.131   6.761
12674TIP3    H237980   0.529   6.040   6.685
12675TIP3   OH237981   1.854   1.581   2.906
12675TIP3    H137982   1.782   1.532   2.944
12675TIP3    H237983   1.867   1.655   2.965
12676TIP3   OH237984   1.761   5.690   1.179
12676TIP3    H137985   1.854   5.684   1.200
12676TIP3    H237986   1.752   5.638   1.098
12677TIP3   OH237987   4.019   2.952   5.441
12677TIP3    H137988   3.933   2.925   5.407
12677TIP3    H237989   4.039   2.888   5.508
12678TIP3   OH237990   0.361   4.391   0.221
12678TIP3    H137991   0.425   4.320   0.226
12678TIP3    H237992   0.318   4.378   0.136
12679TIP3   OH237993   6.009   3.576   6.551
12679TIP3    H137994   5.920   3.540   6.555
12679TIP3    H237995   6.027   3.587   6.458
12680TIP3   OH237996   5.815   4.057   0.507
12680TIP3    H137997   5.851   3.969   0.520
12680TIP3    H237998   5.772   4.053   0.421
12681TIP3   OH237999   4.243   5.133   6.077
12681TIP3    H138000   4.228   5.058   6.019
12681TIP3    H238001   4.292   5.097   6.151
12682TIP3   OH238002   6.466   4.092   4.430
12682TIP3    H138003   6.460   4.090   4.525
12682TIP3    H238004   6.559   4.108   4.412
12683TIP3   OH238005   1.506   5.601   0.646
12683TIP3    H138006   1.524   5.668   0.581
12683TIP3    H238007   1.586   5.548   0.650
12684TIP3   OH238008   4.285   7.170   1.603
12684TIP3    H138009   4.239   7.088   1.624
12684TIP3    H238010   4.258   7.190   1.514
12685TIP3   OH238011   0.705   3.366   0.725
12685TIP3    H138012   0.707   3.425   0.650
12685TIP3    H238013   0.722   3.422   0.800
12686TIP3   OH238014   0.539   3.492   2.933
12686TIP3    H138015   0.597   3.568   2.942
12686TIP3    H238016   0.595   3.424   2.897
12687TIP3   OH238017   1.444   7.564   4.975
12687TIP3    H138018   1.486   7.649   4.958
12687TIP3    H238019   1.494   7.502   4.922
12688TIP3   OH238020   8.186   0.342   0.650
12688TIP3    H138021   8.233   0.320   0.730
12688TIP3    H238022   8.096   0.312   0.665
12689TIP3   OH238023   3.613   1.557   6.469
12689TIP3    H138024   3.688   1.616   6.479
12689TIP3    H238025   3.563   1.567   6.550
12690TIP3   OH238026   4.014   7.394   4.822
12690TIP3    H138027   4.059   7.475   4.844
12690TIP3    H238028   4.016   7.390   4.727
12691TIP3   OH238029   4.364   0.460   0.143
12691TIP3    H138030   4.395   0.547   0.118
12691TIP3    H238031   4.395   0.402   0.073
12692TIP3   OH238032   1.110   6.531   0.478
12692TIP3    H138033   1.032   6.566   0.521
12692TIP3    H238034   1.131   6.453   0.530
12693TIP3   OH238035   2.093   6.418   0.304
12693TIP3    H138036   2.186   6.413   0.326
12693TIP3    H238037   2.086   6.375   0.219
12694TIP3   OH238038   5.456   4.341   1.962
12694TIP3    H138039   5.458   4.281   2.037
12694TIP3    H238040   5.489   4.290   1.889
12695TIP3   OH238041   4.001   3.611   6.741
12695TIP3    H138042   4.037   3.700   6.747
12695TIP3    H238043   3.913   3.618   6.777
12696TIP3   OH238044   0.597   5.281   2.368
12696TIP3    H138045   0.634   5.289   2.280
12696TIP3    H238046   0.545   5.201   2.365
12697TIP3   OH238047   7.605   2.139   6.475
12697TIP3    H138048   7.594   2.047   6.447
12697TIP3    H238049   7.554   2.189   6.411
12698TIP3   OH238050   2.438   5.387   3.200
12698TIP3    H138051   2.480   5.436   3.129
12698TIP3    H238052   2.507   5.374   3.265
12699TIP3   OH238053   3.623   7.524   4.040
12699TIP3    H138054   3.691   7.590   4.026
12699TIP3    H238055   3.586   7.509   3.953
12700TIP3   OH238056   3.911   3.947   5.754
12700TIP3    H138057   3.823   3.945   5.715
12700TIP3    H238058   3.907   4.018   5.818
12701TIP3   OH238059   5.393   1.554   1.013
12701TIP3    H138060   5.412   1.488   1.079
12701TIP3    H238061   5.480   1.584   0.984
12702TIP3   OH238062   2.225   1.013   5.059
12702TIP3    H138063   2.161   0.980   4.996
12702TIP3    H238064   2.224   1.108   5.048
12703TIP3   OH238065   1.039   1.905   5.945
12703TIP3    H138066   0.992   1.904   6.029
12703TIP3    H238067   1.120   1.857   5.963
12704TIP3   OH238068   5.394   7.146   0.914
12704TIP3    H138069   5.448   7.070   0.889
12704TIP3    H238070   5.314   7.135   0.863
12705TIP3   OH238071   2.742   4.637   5.773
12705TIP3    H138072   2.676   4.591   5.825
12705TIP3    H238073   2.808   4.666   5.837
12706TIP3   OH238074   0.806   5.013   6.324
12706TIP3    H138075   0.761   5.031   6.241
12706TIP3    H238076   0.887   5.063   6.319
12707TIP3   OH238077   6.364   1.938   1.786
12707TIP3    H138078   6.370   1.860   1.732
12707TIP3    H238079   6.285   1.983   1.756
12708TIP3   OH238080   5.711   1.888   0.249
12708TIP3    H138081   5.800   1.873   0.216
12708TIP3    H238082   5.655   1.861   0.176
12709TIP3   OH238083   4.264   4.466   4.998
12709TIP3    H138084   4.228   4.549   4.966
12709TIP3    H238085   4.317   4.433   4.926
12710TIP3   OH238086   5.172   7.386   0.340
12710TIP3    H138087   5.255   7.351   0.374
12710TIP3    H238088   5.121   7.408   0.418
12711TIP3   OH238089   2.541   5.624   3.330
12711TIP3    H138090   2.488   5.575   3.393
12711TIP3    H238091   2.478   5.656   3.265
12712TIP3   OH238092   5.682   4.943   5.418
12712TIP3    H138093   5.597   4.909   5.388
12712TIP3    H238094   5.680   4.933   5.513
12713TIP3   OH238095   0.530   0.986   1.320
12713TIP3    H138096   0.482   1.025   1.393
12713TIP3    H238097   0.537   0.893   1.342
12714TIP3   OH238098   6.706   5.697   3.068
12714TIP3    H138099   6.674   5.785   3.088
12714TIP3    H238100   6.710   5.695   2.972
12715TIP3   OH238101   7.265   5.455   4.176
12715TIP3    H138102   7.214   5.530   4.146
12715TIP3    H238103   7.294   5.478   4.264
12716TIP3   OH238104   6.097   2.731   4.557
12716TIP3    H138105   6.165   2.663   4.560
12716TIP3    H238106   6.052   2.716   4.474
12717TIP3   OH238107   8.317   4.944   0.845
12717TIP3    H138108   8.374   4.991   0.905
12717TIP3    H238109   8.305   5.004   0.771
12718TIP3   OH238110   6.159   2.074   1.108
12718TIP3    H138111   6.121   1.987   1.092
12718TIP3    H238112   6.091   2.135   1.081
12719TIP3   OH238113   4.081   1.324   1.814
12719TIP3    H138114   4.092   1.382   1.890
12719TIP3    H238115   4.165   1.329   1.769
12720TIP3   OH238116   5.056   4.973   4.082
12720TIP3    H138117   5.006   5.044   4.043
12720TIP3    H238118   5.011   4.893   4.053
12721TIP3   OH238119   0.971   6.747   6.237
12721TIP3    H138120   1.056   6.732   6.195
12721TIP3    H238121   0.991   6.755   6.330
12722TIP3   OH238122   2.849   0.634   5.459
12722TIP3    H138123   2.917   0.623   5.526
12722TIP3    H238124   2.854   0.554   5.407
12723TIP3   OH238125   1.580   6.821   6.384
12723TIP3    H138126   1.489   6.812   6.357
12723TIP3    H238127   1.589   6.912   6.410
12724TIP3   OH238128   7.252   2.245   5.329
12724TIP3    H138129   7.257   2.238   5.233
12724TIP3    H238130   7.280   2.160   5.361
12725TIP3   OH238131   7.560   0.999   6.081
12725TIP3    H138132   7.559   0.910   6.114
12725TIP3    H238133   7.619   1.046   6.140
12726TIP3   OH238134   4.268   2.174   2.009
12726TIP3    H138135   4.323   2.199   1.935
12726TIP3    H238136   4.179   2.201   1.983
12727TIP3   OH238137   2.178   4.729   5.755
12727TIP3    H138138   2.218   4.795   5.810
12727TIP3    H238139   2.154   4.775   5.675
12728TIP3   OH238140   3.191   7.433   1.842
12728TIP3    H138141   3.189   7.406   1.934
12728TIP3    H238142   3.268   7.388   1.806
12729TIP3   OH238143   5.178   7.764   1.008
12729TIP3    H138144   5.189   7.681   1.054
12729TIP3    H238145   5.264   7.805   1.013
12730TIP3   OH238146   4.326   6.689   0.441
12730TIP3    H138147   4.253   6.637   0.408
12730TIP3    H238148   4.305   6.779   0.415
12731TIP3   OH238149   5.043   6.744   4.059
12731TIP3    H138150   5.123   6.692   4.069
12731TIP3    H238151   4.972   6.682   4.077
12732TIP3   OH238152   7.560   1.098   6.664
12732TIP3    H138153   7.533   1.016   6.705
12732TIP3    H238154   7.637   1.125   6.714
12733TIP3   OH238155   1.511   5.472   3.840
12733TIP3    H138156   1.532   5.477   3.933
12733TIP3    H238157   1.468   5.556   3.821
12734TIP3   OH238158   5.656   2.678   5.895
12734TIP3    H138159   5.726   2.687   5.831
12734TIP3    H238160   5.700   2.660   5.978
12735TIP3   OH238161   5.575   3.439   2.446
12735TIP3    H138162   5.661   3.397   2.438
12735TIP3    H238163   5.513   3.366   2.451
12736TIP3   OH238164   0.648   6.489   5.044
12736TIP3    H138165   0.575   6.456   4.992
12736TIP3    H238166   0.678   6.566   4.996
12737TIP3   OH238167   6.824   1.787   1.903
12737TIP3    H138168   6.785   1.832   1.828
12737TIP3    H238169   6.765   1.805   1.976
12738TIP3   OH238170   3.818   4.445   3.696
12738TIP3    H138171   3.855   4.440   3.607
12738TIP3    H238172   3.765   4.525   3.696
12739TIP3   OH238173   5.977   7.297   2.137
12739TIP3    H138174   5.886   7.319   2.158
12739TIP3    H238175   5.979   7.292   2.041
12740TIP3   OH238176   4.072   1.768   1.317
12740TIP3    H138177   4.009   1.743   1.385
12740TIP3    H238178   4.142   1.813   1.365
12741TIP3   OH238179   4.418   4.646   2.036
12741TIP3    H138180   4.342   4.643   2.094
12741TIP3    H238181   4.435   4.554   2.015
12742TIP3   OH238182   6.256   2.692   5.875
12742TIP3    H138183   6.200   2.632   5.825
12742TIP3    H238184   6.345   2.668   5.849
12743TIP3   OH238185   1.375   5.133   4.195
12743TIP3    H138186   1.327   5.215   4.183
12743TIP3    H238187   1.324   5.068   4.146
12744TIP3   OH238188   7.178   4.558   3.455
12744TIP3    H138189   7.114   4.611   3.408
12744TIP3    H238190   7.130   4.523   3.530
12745TIP3   OH238191   7.237   7.216   6.727
12745TIP3    H138192   7.142   7.205   6.728
12745TIP3    H238193   7.252   7.299   6.682
12746TIP3   OH238194   7.100   4.682   2.482
12746TIP3    H138195   7.072   4.605   2.433
12746TIP3    H238196   7.193   4.667   2.498
12747TIP3   OH238197   0.754   6.362   3.589
12747TIP3    H138198   0.845   6.363   3.560
12747TIP3    H238199   0.729   6.455   3.595
12748TIP3   OH238200   4.889   6.788   0.350
12748TIP3    H138201   4.979   6.762   0.330
12748TIP3    H238202   4.898   6.854   0.419
12749TIP3   OH238203   2.720   7.544   3.561
12749TIP3    H138204   2.800   7.575   3.603
12749TIP3    H238205   2.727   7.449   3.563
12750TIP3   OH238206   6.690   2.238   1.628
12750TIP3    H138207   6.608   2.247   1.580
12750TIP3    H238208   6.702   2.323   1.671
12751TIP3   OH238209   0.397   1.352   0.448
12751TIP3    H138210   0.437   1.437   0.427
12751TIP3    H238211   0.375   1.315   0.362
12752TIP3   OH238212   1.182   4.088   4.683
12752TIP3    H138213   1.228   4.139   4.616
12752TIP3    H238214   1.089   4.099   4.662
12753TIP3   OH238215   6.500   4.806   5.856
12753TIP3    H138216   6.453   4.795   5.938
12753TIP3    H238217   6.486   4.724   5.809
12754TIP3   OH238218   4.842   4.009   5.909
12754TIP3    H138219   4.869   3.956   5.983
12754TIP3    H238220   4.860   3.955   5.832
12755TIP3   OH238221   5.846   7.633   6.015
12755TIP3    H138222   5.760   7.600   5.985
12755TIP3    H238223   5.907   7.562   5.994
12756TIP3   OH238224   4.437   5.816   5.351
12756TIP3    H138225   4.345   5.845   5.357
12756TIP3    H238226   4.472   5.865   5.277
12757TIP3   OH238227   3.402   6.066   4.675
12757TIP3    H138228   3.311   6.090   4.693
12757TIP3    H238229   3.405   6.055   4.579
12758TIP3   OH238230   7.871   1.578   4.615
12758TIP3    H138231   7.896   1.494   4.652
12758TIP3    H238232   7.938   1.639   4.644
12759TIP3   OH238233   7.788   2.180   4.120
12759TIP3    H138234   7.865   2.185   4.064
12759TIP3    H238235   7.822   2.189   4.209
12760TIP3   OH238236   2.551   5.314   0.893
12760TIP3    H138237   2.530   5.229   0.854
12760TIP3    H238238   2.645   5.311   0.908
12761TIP3   OH238239   7.164   4.683   1.025
12761TIP3    H138240   7.213   4.603   1.004
12761TIP3    H238241   7.192   4.746   0.958
12762TIP3   OH238242   3.021   3.522   5.090
12762TIP3    H138243   3.088   3.583   5.121
12762TIP3    H238244   2.976   3.494   5.169
12763TIP3   OH238245   7.395   1.546   3.662
12763TIP3    H138246   7.476   1.513   3.624
12763TIP3    H238247   7.395   1.511   3.751
12764TIP3   OH238248   2.989   4.683   4.003
12764TIP3    H138249   2.989   4.629   3.924
12764TIP3    H238250   2.974   4.772   3.972
12765TIP3   OH238251   4.313   2.749   2.834
12765TIP3    H138252   4.340   2.831   2.791
12765TIP3    H238253   4.242   2.716   2.778
12766TIP3   OH238254   5.866   0.824   0.497
12766TIP3    H138255   5.919   0.785   0.427
12766TIP3    H238256   5.928   0.842   0.567
12767TIP3   OH238257   5.842   6.902   3.741
12767TIP3    H138258   5.871   6.822   3.785
12767TIP3    H238259   5.885   6.900   3.656
12768TIP3   OH238260   1.131   1.452   5.932
12768TIP3    H138261   1.197   1.397   5.974
12768TIP3    H238262   1.048   1.425   5.972
12769TIP3   OH238263   7.311   6.222   1.688
12769TIP3    H138264   7.373   6.231   1.616
12769TIP3    H238265   7.365   6.197   1.763
12770TIP3   OH238266   0.002   5.917   3.673
12770TIP3    H138267  -0.062   5.848   3.690
12770TIP3    H238268   0.055   5.884   3.601
12771TIP3   OH238269   6.958   6.428   5.425
12771TIP3    H138270   6.888   6.464   5.372
12771TIP3    H238271   6.914   6.379   5.494
12772TIP3   OH238272   7.306   0.211   6.582
12772TIP3    H138273   7.306   0.115   6.579
12772TIP3    H238274   7.396   0.234   6.605
12773TIP3   OH238275   0.800   2.836   6.095
12773TIP3    H138276   0.760   2.922   6.109
12773TIP3    H238277   0.867   2.829   6.163
12774TIP3   OH238278   5.441   0.362   5.288
12774TIP3    H138279   5.422   0.331   5.377
12774TIP3    H238280   5.361   0.343   5.239
12775TIP3   OH238281   6.341   6.386   4.857
12775TIP3    H138282   6.379   6.474   4.860
12775TIP3    H238283   6.407   6.330   4.898
12776TIP3   OH238284   7.838   7.164   4.795
12776TIP3    H138285   7.823   7.069   4.794
12776TIP3    H238286   7.869   7.185   4.707
12777TIP3   OH238287   3.542   6.865   4.969
12777TIP3    H138288   3.596   6.913   5.032
12777TIP3    H238289   3.506   6.792   5.020
12778TIP3   OH238290   5.541   4.337   4.230
12778TIP3    H138291   5.541   4.393   4.307
12778TIP3    H238292   5.628   4.348   4.191
12779TIP3   OH238293   0.459   6.422   4.215
12779TIP3    H138294   0.372   6.454   4.189
12779TIP3    H238295   0.461   6.331   4.187
12780TIP3   OH238296   2.683   5.865   3.298
12780TIP3    H138297   2.638   5.782   3.315
12780TIP3    H238298   2.676   5.914   3.381
12781TIP3   OH238299   4.126   3.561   3.943
12781TIP3    H138300   4.202   3.506   3.927
12781TIP3    H238301   4.056   3.500   3.965
12782TIP3   OH238302   6.822   5.651   1.999
12782TIP3    H138303   6.805   5.664   2.092
12782TIP3    H238304   6.822   5.739   1.962
12783TIP3   OH238305   6.968   4.907   1.754
12783TIP3    H138306   6.952   4.891   1.847
12783TIP3    H238307   6.885   4.942   1.721
12784TIP3   OH238308   4.282   4.056   4.399
12784TIP3    H138309   4.376   4.063   4.381
12784TIP3    H238310   4.271   3.968   4.435
12785TIP3   OH238311   0.372   1.301   0.153
12785TIP3    H138312   0.418   1.270   0.075
12785TIP3    H238313   0.341   1.389   0.130
12786TIP3   OH238314   0.754   1.719   0.756
12786TIP3    H138315   0.719   1.711   0.844
12786TIP3    H238316   0.728   1.807   0.727
12787TIP3   OH238317   7.909   2.490   2.839
12787TIP3    H138318   7.945   2.450   2.760
12787TIP3    H238319   7.932   2.428   2.909
12788TIP3   OH238320   6.728   3.287   4.366
12788TIP3    H138321   6.655   3.295   4.427
12788TIP3    H238322   6.783   3.218   4.404
12789TIP3   OH238323   8.060   6.187   2.530
12789TIP3    H138324   8.094   6.276   2.540
12789TIP3    H238325   8.004   6.174   2.607
12790TIP3   OH238326   3.785   5.296   6.676
12790TIP3    H138327   3.699   5.279   6.639
12790TIP3    H238328   3.847   5.264   6.610
12791TIP3   OH238329   5.614   0.600   1.748
12791TIP3    H138330   5.585   0.510   1.733
12791TIP3    H238331   5.667   0.621   1.671
12792TIP3   OH238332   6.776   5.312   2.647
12792TIP3    H138333   6.753   5.224   2.617
12792TIP3    H238334   6.693   5.349   2.680
12793TIP3   OH238335   6.061   0.977   4.074
12793TIP3    H138336   6.125   1.027   4.023
12793TIP3    H238337   6.046   0.898   4.022
12794TIP3   OH238338   6.358   5.100   1.934
12794TIP3    H138339   6.308   5.034   1.982
12794TIP3    H238340   6.336   5.083   1.842
12795TIP3   OH238341   7.294   1.246   5.062
12795TIP3    H138342   7.324   1.331   5.031
12795TIP3    H238343   7.226   1.266   5.126
12796TIP3   OH238344   6.830   4.449   0.487
12796TIP3    H138345   6.912   4.497   0.474
12796TIP3    H238346   6.819   4.447   0.582
12797TIP3   OH238347   4.918   5.318   1.609
12797TIP3    H138348   4.884   5.293   1.695
12797TIP3    H238349   4.929   5.235   1.563
12798TIP3   OH238350   3.551   1.829   3.750
12798TIP3    H138351   3.610   1.785   3.690
12798TIP3    H238352   3.608   1.859   3.821
12799TIP3   OH238353   2.262   2.858   0.402
12799TIP3    H138354   2.287   2.925   0.465
12799TIP3    H238355   2.183   2.893   0.360
12800TIP3   OH238356   7.546   5.309   0.592
12800TIP3    H138357   7.613   5.288   0.656
12800TIP3    H238358   7.467   5.324   0.643
12801TIP3   OH238359   2.760   2.975   0.896
12801TIP3    H138360   2.809   2.983   0.814
12801TIP3    H238361   2.689   3.039   0.889
12802TIP3   OH238362   6.096   1.770   1.614
12802TIP3    H138363   6.140   1.835   1.560
12802TIP3    H238364   6.015   1.812   1.642
12803TIP3   OH238365   5.789   6.212   2.534
12803TIP3    H138366   5.772   6.118   2.534
12803TIP3    H238367   5.792   6.236   2.627
12804TIP3   OH238368   1.960   5.678   4.840
12804TIP3    H138369   2.023   5.609   4.819
12804TIP3    H238370   1.990   5.715   4.923
12805TIP3   OH238371   4.093   2.013   4.376
12805TIP3    H138372   4.097   2.078   4.306
12805TIP3    H238373   4.185   1.998   4.400
12806TIP3   OH238374   4.895   6.335   6.054
12806TIP3    H138375   4.808   6.307   6.024
12806TIP3    H238376   4.931   6.258   6.098
12807TIP3   OH238377   7.625   6.945   4.039
12807TIP3    H138378   7.536   6.912   4.051
12807TIP3    H238379   7.628   7.026   4.089
12808TIP3   OH238380   7.253   1.772   3.642
12808TIP3    H138381   7.311   1.697   3.628
12808TIP3    H238382   7.306   1.834   3.692
12809TIP3   OH238383   3.434   3.524   3.011
12809TIP3    H138384   3.475   3.437   3.017
12809TIP3    H238385   3.364   3.522   3.076
12810TIP3   OH238386   6.217   7.146   5.641
12810TIP3    H138387   6.152   7.080   5.664
12810TIP3    H238388   6.286   7.097   5.597
12811TIP3   OH238389   7.008   6.679   6.140
12811TIP3    H138390   7.041   6.595   6.174
12811TIP3    H238391   7.041   6.744   6.202
12812TIP3   OH238392   1.632   0.327   4.308
12812TIP3    H138393   1.541   0.298   4.308
12812TIP3    H238394   1.675   0.272   4.242
12813TIP3   OH238395   5.825   3.509   5.894
12813TIP3    H138396   5.857   3.437   5.949
12813TIP3    H238397   5.749   3.544   5.942
12814TIP3   OH238398   8.304   6.178   2.217
12814TIP3    H138399   8.338   6.267   2.228
12814TIP3    H238400   8.234   6.186   2.152
12815TIP3   OH238401   7.943   1.007   3.882
12815TIP3    H138402   7.928   1.007   3.787
12815TIP3    H238403   8.038   1.013   3.891
12816TIP3   OH238404   3.680   7.017   5.156
12816TIP3    H138405   3.729   7.089   5.197
12816TIP3    H238406   3.684   6.946   5.220
12817TIP3   OH238407   0.876   1.660   2.268
12817TIP3    H138408   0.787   1.646   2.237
12817TIP3    H238409   0.931   1.649   2.190
12818TIP3   OH238410   5.154   6.073   0.608
12818TIP3    H138411   5.220   6.003   0.609
12818TIP3    H238412   5.123   6.077   0.699
12819TIP3   OH238413   0.083   0.543   0.649
12819TIP3    H138414   0.073   0.575   0.559
12819TIP3    H238415   0.021   0.470   0.655
12820TIP3   OH238416   4.060   0.102   1.966
12820TIP3    H138417   4.048   0.098   1.871
12820TIP3    H238418   4.150   0.133   1.977
12821TIP3   OH238419   1.537   5.753   3.091
12821TIP3    H138420   1.581   5.796   3.017
12821TIP3    H238421   1.445   5.778   3.082
12822TIP3   OH238422   8.084   6.273   0.415
12822TIP3    H138423   8.090   6.294   0.508
12822TIP3    H238424   8.086   6.358   0.371
12823TIP3   OH238425   1.959   2.895   2.707
12823TIP3    H138426   1.905   2.863   2.779
12823TIP3    H238427   1.912   2.869   2.628
12824TIP3   OH238428   0.106   5.524   0.502
12824TIP3    H138429   0.121   5.588   0.572
12824TIP3    H238430   0.156   5.448   0.529
12825TIP3   OH238431   4.585   5.272   3.346
12825TIP3    H138432   4.547   5.303   3.264
12825TIP3    H238433   4.585   5.177   3.338
12826TIP3   OH238434   8.266   2.313   5.664
12826TIP3    H138435   8.232   2.282   5.581
12826TIP3    H238436   8.336   2.252   5.687
12827TIP3   OH238437   6.559   4.416   0.489
12827TIP3    H138438   6.652   4.436   0.475
12827TIP3    H238439   6.550   4.325   0.462
12828TIP3   OH238440   3.197   0.209   0.667
12828TIP3    H138441   3.258   0.245   0.602
12828TIP3    H238442   3.244   0.218   0.750
12829TIP3   OH238443   1.392   5.920   6.001
12829TIP3    H138444   1.400   6.015   6.006
12829TIP3    H238445   1.348   5.896   6.083
12830TIP3   OH238446   2.144   5.126   0.514
12830TIP3    H138447   2.090   5.159   0.442
12830TIP3    H238448   2.169   5.037   0.487
12831TIP3   OH238449   0.454   3.462   5.640
12831TIP3    H138450   0.420   3.494   5.557
12831TIP3    H238451   0.548   3.454   5.627
12832TIP3   OH238452   0.327   4.177   4.254
12832TIP3    H138453   0.261   4.170   4.186
12832TIP3    H238454   0.392   4.110   4.231
12833TIP3   OH238455   4.496   1.584   2.420
12833TIP3    H138456   4.485   1.651   2.488
12833TIP3    H238457   4.435   1.610   2.352
12834TIP3   OH238458   7.245   6.906   5.093
12834TIP3    H138459   7.296   6.876   5.017
12834TIP3    H238460   7.264   6.999   5.100
12835TIP3   OH238461   2.022   3.633   6.093
12835TIP3    H138462   1.962   3.585   6.150
12835TIP3    H238463   2.054   3.705   6.148
12836TIP3   OH238464   3.874   0.772   4.186
12836TIP3    H138465   3.812   0.845   4.189
12836TIP3    H238466   3.876   0.737   4.275
12837TIP3   OH238467   0.020   5.243   0.494
12837TIP3    H138468   0.006   5.320   0.438
12837TIP3    H238469  -0.061   5.236   0.545
12838TIP3   OH238470   4.504   4.292   0.461
12838TIP3    H138471   4.577   4.350   0.439
12838TIP3    H238472   4.427   4.336   0.425
12839TIP3   OH238473   4.559   2.663   4.502
12839TIP3    H138474   4.631   2.722   4.523
12839TIP3    H238475   4.493   2.680   4.569
12840TIP3   OH238476   4.962   7.084   2.778
12840TIP3    H138477   5.052   7.066   2.751
12840TIP3    H238478   4.938   7.163   2.731
12841TIP3   OH238479   2.015   3.300  -0.037
12841TIP3    H138480   2.000   3.300   0.058
12841TIP3    H238481   2.087   3.361  -0.050
12842TIP3   OH238482   2.900   0.385   1.270
12842TIP3    H138483   2.903   0.297   1.234
12842TIP3    H238484   2.914   0.443   1.195
12843TIP3   OH238485   2.209   0.445   0.482
12843TIP3    H138486   2.229   0.407   0.568
12843TIP3    H238487   2.175   0.373   0.430
12844TIP3   OH238488   7.599   6.285   3.592
12844TIP3    H138489   7.670   6.222   3.608
12844TIP3    H238490   7.523   6.231   3.571
12845TIP3   OH238491   7.005   0.004   1.232
12845TIP3    H138492   7.092   0.041   1.238
12845TIP3    H238493   6.954   0.069   1.184
12846TIP3   OH238494   1.973   2.870   0.320
12846TIP3    H138495   1.946   2.779   0.323
12846TIP3    H238496   1.956   2.898   0.231
12847TIP3   OH238497   7.931   2.307   3.620
12847TIP3    H138498   8.007   2.333   3.567
12847TIP3    H238499   7.856   2.325   3.563
12848TIP3   OH238500   1.780   1.995   4.222
12848TIP3    H138501   1.726   2.072   4.204
12848TIP3    H238502   1.865   2.016   4.185
12849TIP3   OH238503   2.365   7.348   1.315
12849TIP3    H138504   2.452   7.378   1.340
12849TIP3    H238505   2.358   7.260   1.351
12850TIP3   OH238506   3.793   7.735   4.022
12850TIP3    H138507   3.882   7.759   4.049
12850TIP3    H238508   3.736   7.783   4.081
12851TIP3   OH238509   4.174   7.032   5.303
12851TIP3    H138510   4.090   7.033   5.348
12851TIP3    H238511   4.151   7.032   5.210
12852TIP3   OH238512   1.515   6.529   3.173
12852TIP3    H138513   1.523   6.469   3.099
12852TIP3    H238514   1.451   6.595   3.144
12853TIP3   OH238515   1.681   1.525   0.039
12853TIP3    H138516   1.690   1.432   0.056
12853TIP3    H238517   1.602   1.532  -0.015
12854TIP3   OH238518   8.167   7.568   4.463
12854TIP3    H138519   8.163   7.660   4.436
12854TIP3    H238520   8.104   7.523   4.407
12855TIP3   OH238521   6.095   7.297   5.432
12855TIP3    H138522   6.171   7.355   5.436
12855TIP3    H238523   6.131   7.209   5.444
12856TIP3   OH238524   3.190   6.229   2.747
12856TIP3    H138525   3.145   6.312   2.764
12856TIP3    H238526   3.121   6.170   2.718
12857TIP3   OH238527   5.722   2.817   0.139
12857TIP3    H138528   5.766   2.827   0.223
12857TIP3    H238529   5.759   2.737   0.101
12858TIP3   OH238530   0.754   7.515   2.693
12858TIP3    H138531   0.714   7.456   2.629
12858TIP3    H238532   0.682   7.537   2.752
12859TIP3   OH238533   2.179   5.888   3.695
12859TIP3    H138534   2.085   5.893   3.676
12859TIP3    H238535   2.211   5.976   3.677
12860TIP3   OH238536   1.984   5.708   5.161
12860TIP3    H138537   1.947   5.622   5.182
12860TIP3    H238538   2.078   5.698   5.173
12861TIP3   OH238539   3.319   6.806   3.186
12861TIP3    H138540   3.383   6.739   3.209
12861TIP3    H238541   3.241   6.757   3.160
12862TIP3   OH238542   3.571   3.149   6.336
12862TIP3    H138543   3.555   3.066   6.290
12862TIP3    H238544   3.656   3.178   6.303
12863TIP3   OH238545   5.216   1.696   6.603
12863TIP3    H138546   5.125   1.668   6.589
12863TIP3    H238547   5.221   1.714   6.697
12864TIP3   OH238548   6.088   4.492   6.326
12864TIP3    H138549   6.098   4.586   6.340
12864TIP3    H238550   6.119   4.452   6.408
12865TIP3   OH238551   6.639   4.301   6.294
12865TIP3    H138552   6.579   4.373   6.315
12865TIP3    H238553   6.661   4.315   6.202
12866TIP3   OH238554   4.997   4.378   2.259
12866TIP3    H138555   5.054   4.446   2.295
12866TIP3    H238556   4.970   4.412   2.174
12867TIP3   OH238557   2.640   2.726   1.887
12867TIP3    H138558   2.630   2.791   1.956
12867TIP3    H238559   2.675   2.649   1.931
12868TIP3   OH238560   3.498   4.924   3.200
12868TIP3    H138561   3.452   4.900   3.120
12868TIP3    H238562   3.541   4.844   3.228
12869TIP3   OH238563   2.074   5.257   1.424
12869TIP3    H138564   2.095   5.350   1.433
12869TIP3    H238565   1.997   5.244   1.479
12870TIP3   OH238566   4.103   5.746   2.958
12870TIP3    H138567   4.116   5.774   2.867
12870TIP3    H238568   4.152   5.809   3.010
12871TIP3   OH238569   6.519   3.711   0.529
12871TIP3    H138570   6.482   3.693   0.443
12871TIP3    H238571   6.505   3.630   0.578
12872TIP3   OH238572   3.642   4.152   2.691
12872TIP3    H138573   3.724   4.103   2.696
12872TIP3    H238574   3.624   4.179   2.781
12873TIP3   OH238575   3.222   5.319   4.705
12873TIP3    H138576   3.229   5.230   4.670
12873TIP3    H238577   3.257   5.375   4.636
12874TIP3   OH238578   5.997   4.078   5.188
12874TIP3    H138579   6.090   4.061   5.175
12874TIP3    H238580   5.966   4.003   5.239
12875TIP3   OH238581   5.111   4.636   0.453
12875TIP3    H138582   5.154   4.689   0.520
12875TIP3    H238583   5.130   4.681   0.371
12876TIP3   OH238584   1.962   4.375   5.697
12876TIP3    H138585   2.029   4.310   5.675
12876TIP3    H238586   1.898   4.368   5.626
12877TIP3   OH238587   2.583   6.849   2.129
12877TIP3    H138588   2.629   6.914   2.076
12877TIP3    H238589   2.651   6.813   2.186
12878TIP3   OH238590   7.902   1.561   5.105
12878TIP3    H138591   7.989   1.589   5.079
12878TIP3    H238592   7.904   1.465   5.096
12879TIP3   OH238593   1.902   1.546   2.270
12879TIP3    H138594   1.815   1.578   2.293
12879TIP3    H238595   1.961   1.618   2.291
12880TIP3   OH238596   0.062   0.073   5.845
12880TIP3    H138597   0.151   0.066   5.881
12880TIP3    H238598   0.015   0.126   5.908
12881TIP3   OH238599   1.352   7.823   3.344
12881TIP3    H138600   1.294   7.862   3.279
12881TIP3    H238601   1.328   7.730   3.344
12882TIP3   OH238602   6.238   4.622   2.819
12882TIP3    H138603   6.322   4.641   2.861
12882TIP3    H238604   6.225   4.695   2.758
12883TIP3   OH238605   5.866   7.684   1.156
12883TIP3    H138606   5.794   7.747   1.150
12883TIP3    H238607   5.941   7.729   1.115
12884TIP3   OH238608   7.389   6.048   5.647
12884TIP3    H138609   7.314   6.052   5.706
12884TIP3    H238610   7.447   5.983   5.686
12885TIP3   OH238611   4.128   3.400   5.637
12885TIP3    H138612   4.113   3.310   5.668
12885TIP3    H238613   4.154   3.447   5.716
12886TIP3   OH238614   0.525   6.799   1.149
12886TIP3    H138615   0.465   6.869   1.175
12886TIP3    H238616   0.540   6.750   1.230
12887TIP3   OH238617   0.476   1.000   5.380
12887TIP3    H138618   0.556   0.975   5.333
12887TIP3    H238619   0.421   0.922   5.377
12888TIP3   OH238620   2.760   7.812   1.838
12888TIP3    H138621   2.689   7.876   1.839
12888TIP3    H238622   2.790   7.812   1.747
12889TIP3   OH238623   7.786   2.497   4.077
12889TIP3    H138624   7.854   2.431   4.091
12889TIP3    H238625   7.759   2.484   3.986
12890TIP3   OH238626   4.569   0.103   2.513
12890TIP3    H138627   4.627   0.175   2.490
12890TIP3    H238628   4.535   0.125   2.599
12891TIP3   OH238629   5.442   2.206   6.090
12891TIP3    H138630   5.453   2.280   6.149
12891TIP3    H238631   5.503   2.139   6.124
12892TIP3   OH238632   0.467   7.769   4.769
12892TIP3    H138633   0.553   7.782   4.729
12892TIP3    H238634   0.428   7.856   4.769
12893TIP3   OH238635   0.695   5.000   5.651
12893TIP3    H138636   0.736   4.914   5.645
12893TIP3    H238637   0.614   4.985   5.699
12894TIP3   OH238638   3.908   1.723   4.395
12894TIP3    H138639   3.912   1.784   4.469
12894TIP3    H238640   3.976   1.658   4.415
12895TIP3   OH238641   3.773   2.576   3.701
12895TIP3    H138642   3.865   2.595   3.684
12895TIP3    H238643   3.754   2.620   3.785
12896TIP3   OH238644   7.975   3.809   4.580
12896TIP3    H138645   8.007   3.746   4.644
12896TIP3    H238646   7.977   3.762   4.497
12897TIP3   OH238647   7.250   2.106   0.171
12897TIP3    H138648   7.295   2.191   0.172
12897TIP3    H238649   7.186   2.114   0.100
12898TIP3   OH238650   1.053   0.367   5.388
12898TIP3    H138651   1.031   0.378   5.481
12898TIP3    H238652   1.063   0.273   5.377
12899TIP3   OH238653   3.857   6.597   6.269
12899TIP3    H138654   3.944   6.635   6.274
12899TIP3    H238655   3.871   6.508   6.236
12900TIP3   OH238656   8.224   7.443   0.359
12900TIP3    H138657   8.189   7.501   0.291
12900TIP3    H238658   8.183   7.358   0.342
12901TIP3   OH238659   6.904   2.829   4.447
12901TIP3    H138660   6.944   2.897   4.392
12901TIP3    H238661   6.875   2.876   4.525
12902TIP3   OH238662   3.205   5.523   4.491
12902TIP3    H138663   3.175   5.442   4.449
12902TIP3    H238664   3.227   5.581   4.418
12903TIP3   OH238665   7.684   3.591   4.384
12903TIP3    H138666   7.629   3.665   4.408
12903TIP3    H238667   7.637   3.514   4.416
12904TIP3   OH238668   4.565   3.279   5.234
12904TIP3    H138669   4.625   3.270   5.160
12904TIP3    H238670   4.486   3.232   5.207
12905TIP3   OH238671   6.123   3.327   2.165
12905TIP3    H138672   6.145   3.335   2.073
12905TIP3    H238673   6.054   3.262   2.168
12906TIP3   OH238674   1.861   6.181   6.550
12906TIP3    H138675   1.907   6.179   6.465
12906TIP3    H238676   1.849   6.274   6.568
12907TIP3   OH238677   0.327   6.402   5.981
12907TIP3    H138678   0.418   6.402   5.951
12907TIP3    H238679   0.323   6.330   6.044
12908TIP3   OH238680   0.893   5.121   1.830
12908TIP3    H138681   0.929   5.045   1.784
12908TIP3    H238682   0.961   5.189   1.821
12909TIP3   OH238683   7.938   5.600   0.870
12909TIP3    H138684   7.847   5.599   0.841
12909TIP3    H238685   7.943   5.531   0.937
12910TIP3   OH238686   8.221   7.204   2.966
12910TIP3    H138687   8.307   7.226   3.002
12910TIP3    H238688   8.215   7.255   2.885
12911TIP3   OH238689   5.751   4.195   2.532
12911TIP3    H138690   5.801   4.122   2.497
12911TIP3    H238691   5.675   4.154   2.575
12912TIP3   OH238692   6.139   3.410   0.864
12912TIP3    H138693   6.202   3.341   0.884
12912TIP3    H238694   6.160   3.437   0.775
12913TIP3   OH238695   2.773   1.138   5.232
12913TIP3    H138696   2.747   1.221   5.273
12913TIP3    H238697   2.701   1.079   5.250
12914TIP3   OH238698   4.069   6.633   4.937
12914TIP3    H138699   4.066   6.593   5.024
12914TIP3    H238700   3.979   6.626   4.904
12915TIP3   OH238701   5.615   3.021   3.329
12915TIP3    H138702   5.610   2.998   3.236
12915TIP3    H238703   5.605   3.116   3.331
12916TIP3   OH238704   1.907   2.196   6.363
12916TIP3    H138705   1.940   2.285   6.351
12916TIP3    H238706   1.817   2.198   6.330
12917TIP3   OH238707   7.071   4.104   3.206
12917TIP3    H138708   7.023   4.043   3.261
12917TIP3    H238709   7.137   4.050   3.162
12918TIP3   OH238710   5.735   2.967   4.545
12918TIP3    H138711   5.791   2.922   4.481
12918TIP3    H238712   5.720   2.902   4.613
12919TIP3   OH238713   3.316   0.249   6.183
12919TIP3    H138714   3.335   0.222   6.273
12919TIP3    H238715   3.359   0.183   6.128
12920TIP3   OH238716   1.785   0.891   6.555
12920TIP3    H138717   1.803   0.800   6.577
12920TIP3    H238718   1.775   0.934   6.640
12921TIP3   OH238719   3.070   0.304   5.092
12921TIP3    H138720   3.026   0.356   5.159
12921TIP3    H238721   3.002   0.249   5.055
12922TIP3   OH238722   4.777   6.830   2.356
12922TIP3    H138723   4.804   6.777   2.281
12922TIP3    H238724   4.856   6.876   2.383
12923TIP3   OH238725   5.336   1.904   1.829
12923TIP3    H138726   5.248   1.906   1.867
12923TIP3    H238727   5.351   1.994   1.799
12924TIP3   OH238728   0.332   5.837   0.973
12924TIP3    H138729   0.409   5.794   1.010
12924TIP3    H238730   0.316   5.911   1.031
12925TIP3   OH238731   2.339   5.616   5.904
12925TIP3    H138732   2.260   5.669   5.901
12925TIP3    H238733   2.386   5.648   5.982
12926TIP3   OH238734   3.803   1.839   4.658
12926TIP3    H138735   3.726   1.838   4.600
12926TIP3    H238736   3.816   1.932   4.678
12927TIP3   OH238737   0.626   2.520   2.813
12927TIP3    H138738   0.685   2.543   2.885
12927TIP3    H238739   0.551   2.579   2.824
12928TIP3   OH238740   3.783   4.035   6.372
12928TIP3    H138741   3.854   4.060   6.431
12928TIP3    H238742   3.736   4.117   6.355
12929TIP3   OH238743   4.843   2.726   2.999
12929TIP3    H138744   4.766   2.746   3.052
12929TIP3    H238745   4.817   2.750   2.910
12930TIP3   OH238746   7.254   7.476   5.508
12930TIP3    H138747   7.316   7.492   5.437
12930TIP3    H238748   7.213   7.393   5.485
12931TIP3   OH238749   7.528   6.574   0.790
12931TIP3    H138750   7.557   6.619   0.710
12931TIP3    H238751   7.466   6.508   0.758
12932TIP3   OH238752   6.832   3.154   3.394
12932TIP3    H138753   6.787   3.084   3.346
12932TIP3    H238754   6.917   3.116   3.415
12933TIP3   OH238755   6.318   0.315   3.513
12933TIP3    H138756   6.224   0.323   3.529
12933TIP3    H238757   6.350   0.263   3.586
12934TIP3   OH238758   2.427   7.467   6.688
12934TIP3    H138759   2.500   7.407   6.674
12934TIP3    H238760   2.361   7.439   6.625
12935TIP3   OH238761   4.213   5.511   6.704
12935TIP3    H138762   4.176   5.465   6.629
12935TIP3    H238763   4.217   5.603   6.677
12936TIP3   OH238764   3.354   0.479   5.252
12936TIP3    H138765   3.397   0.418   5.192
12936TIP3    H238766   3.352   0.562   5.204
12937TIP3   OH238767   3.325   2.990   2.377
12937TIP3    H138768   3.255   2.939   2.336
12937TIP3    H238769   3.301   2.993   2.469
12938TIP3   OH238770   0.592   4.054   3.652
12938TIP3    H138771   0.627   4.076   3.566
12938TIP3    H238772   0.661   4.077   3.713
12939TIP3   OH238773   7.796   4.698   2.059
12939TIP3    H138774   7.707   4.675   2.030
12939TIP3    H238775   7.784   4.741   2.143
12940TIP3   OH238776   0.392   0.550   5.915
12940TIP3    H138777   0.435   0.465   5.920
12940TIP3    H238778   0.439   0.605   5.977
12941TIP3   OH238779   4.536   3.960   4.437
12941TIP3    H138780   4.536   3.963   4.532
12941TIP3    H238781   4.547   3.867   4.416
12942TIP3   OH238782   7.145   5.326   0.062
12942TIP3    H138783   7.201   5.403   0.053
12942TIP3    H238784   7.182   5.278   0.137
12943TIP3   OH238785   7.246   2.995   5.307
12943TIP3    H138786   7.310   2.933   5.272
12943TIP3    H238787   7.293   3.041   5.377
12944TIP3   OH238788   6.876   4.997   0.218
12944TIP3    H138789   6.948   5.011   0.156
12944TIP3    H238790   6.807   4.955   0.166
12945TIP3   OH238791   6.412   1.081   0.991
12945TIP3    H138792   6.412   1.111   1.082
12945TIP3    H238793   6.504   1.072   0.968
12946TIP3   OH238794   1.396   4.111   4.857
12946TIP3    H138795   1.400   4.189   4.913
12946TIP3    H238796   1.309   4.115   4.817
12947TIP3   OH238797   0.445   7.723   2.391
12947TIP3    H138798   0.456   7.818   2.391
12947TIP3    H238799   0.526   7.689   2.353
12948TIP3   OH238800   0.934   3.247   5.211
12948TIP3    H138801   0.908   3.155   5.214
12948TIP3    H238802   0.999   3.252   5.141
12949TIP3   OH238803  -0.020   5.444   0.948
12949TIP3    H138804   0.024   5.432   1.032
12949TIP3    H238805   0.012   5.529   0.917
12950TIP3   OH238806   7.507   7.623   3.410
12950TIP3    H138807   7.508   7.625   3.506
12950TIP3    H238808   7.583   7.674   3.384
12951TIP3   OH238809   0.761   3.452   5.296
12951TIP3    H138810   0.799   3.368   5.269
12951TIP3    H238811   0.671   3.448   5.264
12952TIP3   OH238812   4.594   2.144   4.168
12952TIP3    H138813   4.640   2.074   4.214
12952TIP3    H238814   4.611   2.222   4.220
12953TIP3   OH238815   3.933   5.148   4.937
12953TIP3    H138816   3.914   5.122   5.028
12953TIP3    H238817   3.905   5.239   4.932
12954TIP3   OH238818   1.298   7.094   0.900
12954TIP3    H138819   1.287   7.189   0.899
12954TIP3    H238820   1.365   7.077   0.834
12955TIP3   OH238821   6.011   4.660   1.683
12955TIP3    H138822   5.988   4.604   1.610
12955TIP3    H238823   5.971   4.619   1.760
12956TIP3   OH238824   3.389   1.123   4.330
12956TIP3    H138825   3.478   1.159   4.326
12956TIP3    H238826   3.350   1.167   4.406
12957TIP3   OH238827   2.296   4.021   4.553
12957TIP3    H138828   2.306   4.044   4.645
12957TIP3    H238829   2.306   4.105   4.507
12958TIP3   OH238830   6.774   7.431   0.454
12958TIP3    H138831   6.840   7.494   0.482
12958TIP3    H238832   6.802   7.402   0.368
12959TIP3   OH238833   7.192   4.114   4.084
12959TIP3    H138834   7.205   4.054   4.011
12959TIP3    H238835   7.279   4.150   4.103
12960TIP3   OH238836   5.155   4.217   4.447
12960TIP3    H138837   5.206   4.193   4.525
12960TIP3    H238838   5.121   4.134   4.415
12961TIP3   OH238839   1.030   3.938   4.423
12961TIP3    H138840   1.115   3.911   4.388
12961TIP3    H238841   0.974   3.862   4.411
12962TIP3   OH238842   5.864   3.921   5.446
12962TIP3    H138843   5.919   3.926   5.524
12962TIP3    H238844   5.780   3.887   5.478
12963TIP3   OH238845   4.285   0.207   1.608
12963TIP3    H138846   4.305   0.287   1.559
12963TIP3    H238847   4.313   0.225   1.697
12964TIP3   OH238848   2.592   4.203   0.833
12964TIP3    H138849   2.580   4.213   0.928
12964TIP3    H238850   2.520   4.253   0.795
12965TIP3   OH238851   4.524   1.704   5.957
12965TIP3    H138852   4.597   1.645   5.937
12965TIP3    H238853   4.471   1.657   6.021
12966TIP3   OH238854   3.652   3.715   3.013
12966TIP3    H138855   3.677   3.720   2.921
12966TIP3    H238856   3.585   3.646   3.016
12967TIP3   OH238857   4.331   3.888   3.980
12967TIP3    H138858   4.337   3.833   4.058
12967TIP3    H238859   4.420   3.924   3.969
12968TIP3   OH238860   2.425   4.197   6.260
12968TIP3    H138861   2.392   4.279   6.297
12968TIP3    H238862   2.348   4.143   6.247
12969TIP3   OH238863   1.536   2.713   4.913
12969TIP3    H138864   1.457   2.718   4.967
12969TIP3    H238865   1.539   2.797   4.867
12970TIP3   OH238866   4.232   6.769   0.038
12970TIP3    H138867   4.215   6.760  -0.055
12970TIP3    H238868   4.291   6.844   0.044
12971TIP3   OH238869   7.879   4.822   2.767
12971TIP3    H138870   7.963   4.864   2.752
12971TIP3    H238871   7.869   4.820   2.862
12972TIP3   OH238872   3.848   3.091   0.201
12972TIP3    H138873   3.848   3.176   0.243
12972TIP3    H238874   3.773   3.093   0.142
12973TIP3   OH238875   6.404   5.636   6.777
12973TIP3    H138876   6.346   5.627   6.853
12973TIP3    H238877   6.359   5.591   6.706
12974TIP3   OH238878   1.577   5.570   0.145
12974TIP3    H138879   1.524   5.494   0.168
12974TIP3    H238880   1.550   5.592   0.056
12975TIP3   OH238881   5.572   5.816   1.964
12975TIP3    H138882   5.603   5.907   1.962
12975TIP3    H238883   5.556   5.794   1.872
12976TIP3   OH238884   8.051   2.199   4.942
12976TIP3    H138885   8.025   2.144   4.867
12976TIP3    H238886   8.036   2.143   5.018
12977TIP3   OH238887   7.446   2.679   4.673
12977TIP3    H138888   7.398   2.635   4.742
12977TIP3    H238889   7.466   2.610   4.610
12978TIP3   OH238890   2.378   5.056   4.673
12978TIP3    H138891   2.401   5.025   4.760
12978TIP3    H238892   2.319   4.989   4.638
12979TIP3   OH238893   7.325   4.807   5.975
12979TIP3    H138894   7.253   4.747   5.994
12979TIP3    H238895   7.349   4.843   6.060
12980TIP3   OH238896   4.778   0.999   0.641
12980TIP3    H138897   4.848   1.049   0.684
12980TIP3    H238898   4.697   1.043   0.667
12981TIP3   OH238899   0.475   5.945   5.629
12981TIP3    H138900   0.429   6.021   5.663
12981TIP3    H238901   0.562   5.951   5.668
12982TIP3   OH238902   6.725   3.506   3.017
12982TIP3    H138903   6.650   3.447   3.019
12982TIP3    H238904   6.765   3.491   2.932
12983TIP3   OH238905   3.944   3.442   6.415
12983TIP3    H138906   4.017   3.416   6.472
12983TIP3    H238907   3.983   3.505   6.354
12984TIP3   OH238908   5.725   4.011   3.186
12984TIP3    H138909   5.737   3.999   3.281
12984TIP3    H238910   5.690   3.927   3.156
12985TIP3   OH238911   6.788   3.475   1.827
12985TIP3    H138912   6.808   3.452   1.736
12985TIP3    H238913   6.870   3.512   1.861
12986TIP3   OH238914   4.252   5.797   1.986
12986TIP3    H138915   4.337   5.804   2.030
12986TIP3    H238916   4.229   5.888   1.965
12987TIP3   OH238917   3.428   7.825   1.894
12987TIP3    H138918   3.456   7.786   1.811
12987TIP3    H238919   3.334   7.805   1.900
12988TIP3   OH238920   5.602   2.312   0.123
12988TIP3    H138921   5.539   2.255   0.078
12988TIP3    H238922   5.624   2.264   0.203
12989TIP3   OH238923   0.229   6.515   4.447
12989TIP3    H138924   0.192   6.432   4.417
12989TIP3    H238925   0.169   6.544   4.516
12990TIP3   OH238926   0.565   1.210   1.797
12990TIP3    H138927   0.597   1.179   1.882
12990TIP3    H238928   0.503   1.143   1.770
12991TIP3   OH238929   3.455   2.898   1.978
12991TIP3    H138930   3.428   2.976   2.027
12991TIP3    H238931   3.475   2.930   1.891
12992TIP3   OH238932   6.813   6.427   4.053
12992TIP3    H138933   6.753   6.436   4.126
12992TIP3    H238934   6.757   6.409   3.977
12993TIP3   OH238935   4.624   5.620   1.448
12993TIP3    H138936   4.534   5.589   1.441
12993TIP3    H238937   4.643   5.618   1.541
12994TIP3   OH238938   3.822   7.631   5.028
12994TIP3    H138939   3.875   7.665   4.957
12994TIP3    H238940   3.778   7.708   5.064
12995TIP3   OH238941   2.527   3.536   5.361
12995TIP3    H138942   2.518   3.502   5.273
12995TIP3    H238943   2.588   3.609   5.353
12996TIP3   OH238944   8.099   1.344   3.928
12996TIP3    H138945   8.168   1.401   3.960
12996TIP3    H238946   8.062   1.304   4.007
12997TIP3   OH238947   7.972   2.251   1.815
12997TIP3    H138948   8.036   2.322   1.809
12997TIP3    H238949   8.000   2.199   1.890
12998TIP3   OH238950   8.021   4.140   6.475
12998TIP3    H138951   8.008   4.159   6.382
12998TIP3    H238952   8.056   4.051   6.477
12999TIP3   OH238953   2.210   7.516   2.118
12999TIP3    H138954   2.206   7.421   2.112
12999TIP3    H238955   2.179   7.547   2.033
13000TIP3   OH238956   5.149   0.353   2.488
13000TIP3    H138957   5.104   0.272   2.511
13000TIP3    H238958   5.240   0.337   2.512
13001TIP3   OH238959   4.033   0.824   2.700
13001TIP3    H138960   3.972   0.884   2.656
13001TIP3    H238961   4.046   0.864   2.786
13002TIP3   OH238962   1.004   1.782   4.277
13002TIP3    H138963   1.028   1.813   4.364
13002TIP3    H238964   1.048   1.698   4.268
13003TIP3   OH238965   7.356   2.194   3.293
13003TIP3    H138966   7.407   2.143   3.356
13003TIP3    H238967   7.306   2.128   3.245
13004TIP3   OH238968   4.159   7.318   0.837
13004TIP3    H138969   4.074   7.360   0.824
13004TIP3    H238970   4.222   7.390   0.833
13005TIP3   OH238971   5.171   3.449   5.138
13005TIP3    H138972   5.126   3.384   5.085
13005TIP3    H238973   5.109   3.522   5.146
13006TIP3   OH238974   4.251   2.484   3.117
13006TIP3    H138975   4.175   2.464   3.172
13006TIP3    H238976   4.263   2.405   3.064
13007TIP3   OH238977   6.042   3.112   0.996
13007TIP3    H138978   5.971   3.079   1.051
13007TIP3    H238979   6.109   3.142   1.058
13008TIP3   OH238980   0.862   7.748   0.038
13008TIP3    H138981   0.928   7.818   0.043
13008TIP3    H238982   0.778   7.795   0.042
13009TIP3   OH238983   7.320   0.281   0.925
13009TIP3    H138984   7.388   0.221   0.897
13009TIP3    H238985   7.355   0.368   0.904
13010TIP3   OH238986   2.310   1.660   6.608
13010TIP3    H138987   2.387   1.609   6.581
13010TIP3    H238988   2.346   1.743   6.638
13011TIP3   OH238989   0.859   4.221   1.123
13011TIP3    H138990   0.826   4.189   1.039
13011TIP3    H238991   0.846   4.147   1.183
13012TIP3   OH238992   2.461   2.561   2.729
13012TIP3    H138993   2.475   2.615   2.652
13012TIP3    H238994   2.418   2.620   2.792
13013TIP3   OH238995   0.788   1.762   3.355
13013TIP3    H138996   0.861   1.817   3.327
13013TIP3    H238997   0.786   1.771   3.450
13014TIP3   OH238998   4.907   1.377   6.158
13014TIP3    H138999   4.954   1.336   6.085
13014TIP3    H239000   4.975   1.421   6.209
13015TIP3   OH239001   2.173   6.148   3.979
13015TIP3    H139002   2.218   6.107   3.905
13015TIP3    H239003   2.205   6.100   4.056
13016TIP3   OH239004   5.130   0.934   3.196
13016TIP3    H139005   5.035   0.926   3.205
13016TIP3    H239006   5.145   0.945   3.102
13017TIP3   OH239007   5.693   3.524   3.586
13017TIP3    H139008   5.734   3.493   3.506
13017TIP3    H239009   5.673   3.445   3.635
13018TIP3   OH239010   1.969   2.776   5.087
13018TIP3    H139011   2.005   2.779   4.998
13018TIP3    H239012   1.951   2.867   5.108
13019TIP3   OH239013   3.319   1.182   6.275
13019TIP3    H139014   3.313   1.268   6.235
13019TIP3    H239015   3.400   1.145   6.241
13020TIP3   OH239016   4.579   4.456   6.051
13020TIP3    H139017   4.592   4.434   6.143
13020TIP3    H239018   4.614   4.379   6.004
13021TIP3   OH239019   6.916   6.284   5.990
13021TIP3    H139020   6.859   6.353   5.955
13021TIP3    H239021   6.856   6.216   6.020
13022TIP3   OH239022   6.921   2.243   3.990
13022TIP3    H139023   6.831   2.253   3.960
13022TIP3    H239024   6.915   2.247   4.086
13023TIP3   OH239025   7.202   2.741   0.262
13023TIP3    H139026   7.225   2.833   0.249
13023TIP3    H239027   7.185   2.708   0.174
13024TIP3   OH239028   0.617   2.161   0.478
13024TIP3    H139029   0.596   2.227   0.411
13024TIP3    H239030   0.538   2.107   0.484
13025TIP3   OH239031   6.805   2.767   2.716
13025TIP3    H139032   6.743   2.807   2.777
13025TIP3    H239033   6.767   2.681   2.697
13026TIP3   OH239034   6.274   4.641   4.659
13026TIP3    H139035   6.352   4.692   4.637
13026TIP3    H239036   6.212   4.706   4.691
13027TIP3   OH239037   3.506   6.515   5.338
13027TIP3    H139038   3.570   6.458   5.295
13027TIP3    H239039   3.551   6.599   5.349
13028TIP3   OH239040   0.741   7.212   6.612
13028TIP3    H139041   0.699   7.243   6.532
13028TIP3    H239042   0.822   7.170   6.583
13029TIP3   OH239043   1.347   4.129   3.881
13029TIP3    H139044   1.397   4.165   3.808
13029TIP3    H239045   1.347   4.034   3.866
13030TIP3   OH239046   4.667   1.264   0.518
13030TIP3    H139047   4.700   1.267   0.608
13030TIP3    H239048   4.590   1.321   0.519
13031TIP3   OH239049   3.815   6.358   3.680
13031TIP3    H139050   3.852   6.315   3.603
13031TIP3    H239051   3.751   6.295   3.713
13032TIP3   OH239052  -0.016   6.303   1.906
13032TIP3    H139053   0.027   6.383   1.937
13032TIP3    H239054   0.055   6.239   1.901
13033TIP3   OH239055   7.505   7.700   5.506
13033TIP3    H139056   7.420   7.737   5.528
13033TIP3    H239057   7.545   7.678   5.590
13034TIP3   OH239058   4.878   2.772   6.397
13034TIP3    H139059   4.810   2.826   6.356
13034TIP3    H239060   4.846   2.682   6.387
13035TIP3   OH239061   6.360   2.577   1.010
13035TIP3    H139062   6.355   2.615   1.097
13035TIP3    H239063   6.269   2.552   0.990
13036TIP3   OH239064   7.155   6.828   6.664
13036TIP3    H139065   7.224   6.887   6.633
13036TIP3    H239066   7.076   6.882   6.665
13037TIP3   OH239067   5.662   6.880   0.519
13037TIP3    H139068   5.692   6.839   0.601
13037TIP3    H239069   5.570   6.901   0.535
13038TIP3   OH239070   5.013   0.850   1.454
13038TIP3    H139071   4.970   0.892   1.529
13038TIP3    H239072   4.943   0.837   1.390
13039TIP3   OH239073   6.657   3.034   4.183
13039TIP3    H139074   6.587   3.099   4.180
13039TIP3    H239075   6.630   2.974   4.254
13040TIP3   OH239076   1.355   6.411   6.385
13040TIP3    H139077   1.274   6.432   6.430
13040TIP3    H239078   1.400   6.495   6.374
13041TIP3   OH239079   1.947   6.056   2.933
13041TIP3    H139080   1.944   6.102   3.017
13041TIP3    H239081   2.033   6.013   2.933
13042TIP3   OH239082   2.535   0.672   3.670
13042TIP3    H139083   2.510   0.581   3.654
13042TIP3    H239084   2.591   0.668   3.747
13043TIP3   OH239085   3.174   3.252   3.667
13043TIP3    H139086   3.249   3.308   3.645
13043TIP3    H239087   3.201   3.164   3.640
13044TIP3   OH239088   6.434   1.797   0.212
13044TIP3    H139089   6.511   1.826   0.262
13044TIP3    H239090   6.448   1.703   0.198
13045TIP3   OH239091   8.234   0.649   3.308
13045TIP3    H139092   8.234   0.612   3.396
13045TIP3    H239093   8.264   0.739   3.320
13046TIP3   OH239094   3.505   5.369   0.276
13046TIP3    H139095   3.488   5.461   0.256
13046TIP3    H239096   3.597   5.356   0.254
13047TIP3   OH239097   3.760   7.814   5.749
13047TIP3    H139098   3.672   7.851   5.755
13047TIP3    H239099   3.788   7.833   5.660
13048TIP3   OH239100   1.754   2.089   4.515
13048TIP3    H139101   1.816   2.039   4.463
13048TIP3    H239102   1.705   2.023   4.565
13049TIP3   OH239103   4.428   4.302   4.508
13049TIP3    H139104   4.395   4.216   4.481
13049TIP3    H239105   4.354   4.361   4.495
13050TIP3   OH239106   0.655   7.215   1.415
13050TIP3    H139107   0.709   7.257   1.348
13050TIP3    H239108   0.718   7.171   1.472
13051TIP3   OH239109   0.153   5.773   4.462
13051TIP3    H139110   0.122   5.686   4.434
13051TIP3    H239111   0.239   5.756   4.501
13052TIP3   OH239112   8.256   1.322   4.707
13052TIP3    H139113   8.259   1.346   4.614
13052TIP3    H239114   8.342   1.284   4.724
13053TIP3   OH239115   5.728   7.496   0.959
13053TIP3    H139116   5.762   7.543   1.035
13053TIP3    H239117   5.772   7.536   0.885
13054TIP3   OH239118   2.306   2.201   6.457
13054TIP3    H139119   2.300   2.115   6.498
13054TIP3    H239120   2.294   2.184   6.364
13055TIP3   OH239121   1.812   5.260   3.467
13055TIP3    H139122   1.806   5.283   3.560
13055TIP3    H239123   1.745   5.194   3.454
13056TIP3   OH239124   2.216   1.227   0.590
13056TIP3    H139125   2.221   1.297   0.526
13056TIP3    H239126   2.300   1.181   0.583
13057TIP3   OH239127   1.915   7.471   2.264
13057TIP3    H139128   1.895   7.463   2.357
13057TIP3    H239129   1.934   7.564   2.252
13058TIP3   OH239130   1.341   4.537   5.855
13058TIP3    H139131   1.283   4.599   5.811
13058TIP3    H239132   1.284   4.463   5.879
13059TIP3   OH239133   5.268   2.640   3.776
13059TIP3    H139134   5.273   2.577   3.848
13059TIP3    H239135   5.352   2.630   3.731
13060TIP3   OH239136   1.398   5.352   0.140
13060TIP3    H139137   1.358   5.292   0.078
13060TIP3    H239138   1.424   5.297   0.214
13061TIP3   OH239139   8.227   3.794   1.175
13061TIP3    H139140   8.252   3.711   1.135
13061TIP3    H239141   8.308   3.845   1.178
13062TIP3   OH239142   2.525   2.399   1.372
13062TIP3    H139143   2.575   2.413   1.452
13062TIP3    H239144   2.516   2.304   1.365
13063TIP3   OH239145   4.215   7.663   3.252
13063TIP3    H139146   4.255   7.618   3.177
13063TIP3    H239147   4.132   7.617   3.266
13064TIP3   OH239148   1.516   1.580   0.520
13064TIP3    H139149   1.449   1.589   0.589
13064TIP3    H239150   1.478   1.622   0.444
13065TIP3   OH239151   4.081   2.895   6.263
13065TIP3    H139152   4.098   2.802   6.253
13065TIP3    H239153   4.135   2.922   6.337
13066TIP3   OH239154   1.650   6.075   5.206
13066TIP3    H139155   1.735   6.034   5.218
13066TIP3    H239156   1.607   6.023   5.137
13067TIP3   OH239157   4.603   2.790   3.122
13067TIP3    H139158   4.582   2.856   3.056
13067TIP3    H239159   4.547   2.716   3.101
13068TIP3   OH239160   4.385   0.199   4.708
13068TIP3    H139161   4.394   0.295   4.710
13068TIP3    H239162   4.464   0.169   4.662
13069TIP3   OH239163   8.146   5.627   3.019
13069TIP3    H139164   8.172   5.538   3.044
13069TIP3    H239165   8.190   5.683   3.083
13070TIP3   OH239166   3.355   2.639   2.864
13070TIP3    H139167   3.438   2.662   2.822
13070TIP3    H239168   3.370   2.655   2.957
13071TIP3   OH239169   5.159   1.571   2.262
13071TIP3    H139170   5.139   1.503   2.325
13071TIP3    H239171   5.149   1.653   2.310
13072TIP3   OH239172   0.528   3.202   0.554
13072TIP3    H139173   0.575   3.273   0.598
13072TIP3    H239174   0.518   3.135   0.622
13073TIP3   OH239175   6.447   7.467   3.468
13073TIP3    H139176   6.540   7.479   3.488
13073TIP3    H239177   6.416   7.403   3.532
13074TIP3   OH239178   0.545   2.155   5.189
13074TIP3    H139179   0.459   2.141   5.150
13074TIP3    H239180   0.527   2.200   5.272
13075TIP3   OH239181   1.818   5.897   6.153
13075TIP3    H139182   1.738   5.861   6.113
13075TIP3    H239183   1.787   5.966   6.211
13076TIP3   OH239184   5.138   5.053   4.895
13076TIP3    H139185   5.199   5.117   4.858
13076TIP3    H239186   5.192   4.998   4.950
13077TIP3   OH239187   5.740   4.914   5.691
13077TIP3    H139188   5.729   4.892   5.784
13077TIP3    H239189   5.816   4.862   5.663
13078TIP3   OH239190   5.954   4.671   3.618
13078TIP3    H139191   5.954   4.658   3.712
13078TIP3    H239192   6.022   4.737   3.603
13079TIP3   OH239193   1.501   1.479   2.179
13079TIP3    H139194   1.473   1.566   2.205
13079TIP3    H239195   1.571   1.456   2.240
13080TIP3   OH239196   5.924   6.550   5.510
13080TIP3    H139197   5.906   6.460   5.483
13080TIP3    H239198   5.968   6.589   5.435
13081TIP3   OH239199   4.428   5.649   4.209
13081TIP3    H139200   4.372   5.571   4.216
13081TIP3    H239201   4.499   5.622   4.151
13082TIP3   OH239202   0.430   3.356   4.186
13082TIP3    H139203   0.471   3.309   4.258
13082TIP3    H239204   0.373   3.421   4.228
13083TIP3   OH239205   1.075   7.660   1.225
13083TIP3    H139206   1.109   7.718   1.157
13083TIP3    H239207   1.138   7.667   1.296
13084TIP3   OH239208   1.567   6.310   2.234
13084TIP3    H139209   1.616   6.340   2.158
13084TIP3    H239210   1.632   6.271   2.292
13085TIP3   OH239211   1.194   2.699   3.121
13085TIP3    H139212   1.111   2.678   3.078
13085TIP3    H239213   1.261   2.677   3.057
13086TIP3   OH239214   1.274   4.895   2.745
13086TIP3    H139215   1.182   4.870   2.739
13086TIP3    H239216   1.308   4.844   2.819
13087TIP3   OH239217   1.960   6.534   3.623
13087TIP3    H139218   2.041   6.511   3.668
13087TIP3    H239219   1.890   6.502   3.679
13088TIP3   OH239220   5.029   2.657   1.912
13088TIP3    H139221   4.953   2.667   1.854
13088TIP3    H239222   5.024   2.733   1.970
13089TIP3   OH239223   7.883   6.257   6.440
13089TIP3    H139224   7.908   6.180   6.492
13089TIP3    H239225   7.907   6.332   6.496
13090TIP3   OH239226   1.722   4.150   4.192
13090TIP3    H139227   1.678   4.066   4.206
13090TIP3    H239228   1.674   4.191   4.120
13091TIP3   OH239229   5.431   1.334   0.446
13091TIP3    H139230   5.337   1.318   0.438
13091TIP3    H239231   5.438   1.410   0.504
13092TIP3   OH239232   1.941   2.058   1.648
13092TIP3    H139233   1.951   2.113   1.725
13092TIP3    H239234   1.926   1.970   1.683
13093TIP3   OH239235   2.087   5.779   2.415
13093TIP3    H139236   2.030   5.773   2.491
13093TIP3    H239237   2.058   5.708   2.357
13094TIP3   OH239238   7.695   0.669   0.982
13094TIP3    H139239   7.647   0.592   0.951
13094TIP3    H239240   7.725   0.645   1.070
13095TIP3   OH239241   4.670   3.874   6.720
13095TIP3    H139242   4.636   3.820   6.649
13095TIP3    H239243   4.642   3.963   6.698
13096TIP3   OH239244   5.871   1.583   0.691
13096TIP3    H139245   5.827   1.647   0.747
13096TIP3    H239246   5.929   1.535   0.751
13097TIP3   OH239247   1.296   3.340   5.620
13097TIP3    H139248   1.314   3.394   5.542
13097TIP3    H239249   1.383   3.318   5.654
13098TIP3   OH239250   5.257   4.319   3.123
13098TIP3    H139251   5.254   4.326   3.218
13098TIP3    H239252   5.335   4.266   3.105
13099TIP3   OH239253   0.981   1.264   4.427
13099TIP3    H139254   0.934   1.347   4.428
13099TIP3    H239255   0.974   1.233   4.337
13100TIP3   OH239256   7.359   0.648   4.728
13100TIP3    H139257   7.330   0.602   4.806
13100TIP3    H239258   7.347   0.585   4.656
13101TIP3   OH239259   2.531   5.632   6.615
13101TIP3    H139260   2.598   5.566   6.599
13101TIP3    H239261   2.455   5.582   6.647
13102TIP3   OH239262   0.648   5.922   3.026
13102TIP3    H139263   0.741   5.915   3.004
13102TIP3    H239264   0.605   5.860   2.967
13103TIP3   OH239265   4.390   1.893   4.042
13103TIP3    H139266   4.443   1.901   4.121
13103TIP3    H239267   4.375   1.983   4.014
13104TIP3   OH239268   4.978   7.695   0.060
13104TIP3    H139269   4.909   7.721   0.120
13104TIP3    H239270   5.040   7.768   0.061
13105TIP3   OH239271   2.106   1.477   2.847
13105TIP3    H139272   2.022   1.522   2.843
13105TIP3    H239273   2.084   1.388   2.876
13106TIP3   OH239274   3.483   2.307   4.683
13106TIP3    H139275   3.412   2.310   4.747
13106TIP3    H239276   3.439   2.298   4.599
13107TIP3   OH239277   3.429   1.137   1.492
13107TIP3    H139278   3.388   1.111   1.575
13107TIP3    H239279   3.475   1.059   1.462
13108TIP3   OH239280   2.404   2.011   0.825
13108TIP3    H139281   2.408   2.049   0.738
13108TIP3    H239282   2.474   1.945   0.826
13109TIP3   OH239283   0.625   5.447   0.144
13109TIP3    H139284   0.631   5.494   0.061
13109TIP3    H239285   0.648   5.512   0.211
13110TIP3   OH239286   2.820   5.305   6.218
13110TIP3    H139287   2.900   5.286   6.169
13110TIP3    H239288   2.799   5.223   6.262
13111TIP3   OH239289   7.285   1.573   5.348
13111TIP3    H139290   7.337   1.618   5.415
13111TIP3    H239291   7.340   1.501   5.319
13112TIP3   OH239292   2.734   2.710   0.399
13112TIP3    H139293   2.747   2.641   0.334
13112TIP3    H239294   2.795   2.779   0.374
13113TIP3   OH239295   7.961   3.629   6.628
13113TIP3    H139296   8.020   3.558   6.651
13113TIP3    H239297   8.016   3.692   6.581
13114TIP3   OH239298   6.403   1.410   2.403
13114TIP3    H139299   6.385   1.429   2.494
13114TIP3    H239300   6.317   1.415   2.360
13115TIP3   OH239301   7.161   5.998   2.071
13115TIP3    H139302   7.211   6.056   2.129
13115TIP3    H239303   7.227   5.956   2.017
13116TIP3   OH239304   3.849   4.026   5.284
13116TIP3    H139305   3.921   4.079   5.319
13116TIP3    H239306   3.863   3.939   5.322
13117TIP3   OH239307   6.120   1.299   0.545
13117TIP3    H139308   6.162   1.383   0.529
13117TIP3    H239309   6.173   1.258   0.613
13118TIP3   OH239310   2.533   0.259   5.869
13118TIP3    H139311   2.605   0.224   5.922
13118TIP3    H239312   2.513   0.188   5.808
13119TIP3   OH239313   2.505   1.157   0.561
13119TIP3    H139314   2.597   1.167   0.585
13119TIP3    H239315   2.504   1.080   0.504
13120TIP3   OH239316   5.174   3.174   0.518
13120TIP3    H139317   5.145   3.249   0.466
13120TIP3    H239318   5.099   3.114   0.518
13121TIP3   OH239319   6.084   3.515   3.137
13121TIP3    H139320   6.108   3.605   3.156
13121TIP3    H239321   6.051   3.481   3.221
13122TIP3   OH239322   1.929   3.484   3.832
13122TIP3    H139323   1.878   3.433   3.768
13122TIP3    H239324   1.873   3.487   3.910
13123TIP3   OH239325   3.870   5.474   3.941
13123TIP3    H139326   3.841   5.383   3.940
13123TIP3    H239327   3.965   5.469   3.929
13124TIP3   OH239328   4.979   0.116   2.504
13124TIP3    H139329   4.940   0.033   2.478
13124TIP3    H239330   5.030   0.096   2.583
13125TIP3   OH239331   6.659   3.353   3.378
13125TIP3    H139332   6.699   3.436   3.402
13125TIP3    H239333   6.732   3.290   3.378
13126TIP3   OH239334   7.663   7.598   4.878
13126TIP3    H139335   7.635   7.529   4.938
13126TIP3    H239336   7.608   7.673   4.901
13127TIP3   OH239337   5.286   1.760   2.924
13127TIP3    H139338   5.329   1.842   2.899
13127TIP3    H239339   5.259   1.721   2.841
13128TIP3   OH239340   0.565   5.210   2.843
13128TIP3    H139341   0.517   5.181   2.920
13128TIP3    H239342   0.559   5.305   2.844
13129TIP3   OH239343   1.563   1.205   4.300
13129TIP3    H139344   1.598   1.171   4.217
13129TIP3    H239345   1.542   1.126   4.350
13130TIP3   OH239346   1.901   1.313   6.279
13130TIP3    H139347   1.859   1.228   6.291
13130TIP3    H239348   1.995   1.294   6.284
13131TIP3   OH239349   2.753   7.097   0.072
13131TIP3    H139350   2.825   7.101   0.009
13131TIP3    H239351   2.712   7.012   0.056
13132TIP3   OH239352   6.512   6.681   4.809
13132TIP3    H139353   6.431   6.717   4.773
13132TIP3    H239354   6.488   6.646   4.894
13133TIP3   OH239355   4.258   6.424   0.935
13133TIP3    H139356   4.333   6.375   0.969
13133TIP3    H239357   4.212   6.455   1.013
13134TIP3   OH239358   4.252   1.778   0.614
13134TIP3    H139359   4.266   1.744   0.702
13134TIP3    H239360   4.311   1.854   0.608
13135TIP3   OH239361   4.703   2.406   1.717
13135TIP3    H139362   4.643   2.374   1.784
13135TIP3    H239363   4.658   2.481   1.678
13136TIP3   OH239364   7.934   5.972   4.375
13136TIP3    H139365   7.912   5.960   4.283
13136TIP3    H239366   7.995   6.046   4.375
13137TIP3   OH239367   6.330   1.074   5.594
13137TIP3    H139368   6.269   1.127   5.543
13137TIP3    H239369   6.416   1.102   5.564
13138TIP3   OH239370   5.080   4.912   3.681
13138TIP3    H139371   5.136   4.946   3.612
13138TIP3    H239372   5.141   4.885   3.750
13139TIP3   OH239373   6.772   6.301   0.960
13139TIP3    H139374   6.687   6.275   0.997
13139TIP3    H239375   6.798   6.226   0.906
13140TIP3   OH239376   1.088   4.393   2.032
13140TIP3    H139377   1.169   4.349   2.009
13140TIP3    H239378   1.100   4.420   2.123
13141TIP3   OH239379   1.995   2.245   0.392
13141TIP3    H139380   2.017   2.161   0.432
13141TIP3    H239381   1.998   2.308   0.465
13142TIP3   OH239382   5.808   6.095   1.468
13142TIP3    H139383   5.743   6.044   1.516
13142TIP3    H239384   5.892   6.054   1.491
13143TIP3   OH239385   2.197   4.002   0.489
13143TIP3    H139386   2.193   4.083   0.539
13143TIP3    H239387   2.269   3.953   0.527
13144TIP3   OH239388   5.533   2.787   2.216
13144TIP3    H139389   5.473   2.744   2.277
13144TIP3    H239390   5.564   2.716   2.159
13145TIP3   OH239391   4.010   4.653   2.379
13145TIP3    H139392   3.951   4.706   2.433
13145TIP3    H239393   3.951   4.597   2.328
13146TIP3   OH239394   1.369   2.152   4.087
13146TIP3    H139395   1.452   2.147   4.039
13146TIP3    H239396   1.334   2.063   4.085
13147TIP3   OH239397   6.275   5.318   0.607
13147TIP3    H139398   6.251   5.409   0.594
13147TIP3    H239399   6.345   5.302   0.543
13148TIP3   OH239400   6.631   7.453   0.726
13148TIP3    H139401   6.668   7.428   0.641
13148TIP3    H239402   6.598   7.542   0.713
13149TIP3   OH239403   7.421   7.533   5.272
13149TIP3    H139404   7.401   7.474   5.199
13149TIP3    H239405   7.515   7.522   5.286
13150TIP3   OH239406   7.316   7.272   2.700
13150TIP3    H139407   7.388   7.246   2.643
13150TIP3    H239408   7.351   7.345   2.752
13151TIP3   OH239409   3.043   1.524   4.848
13151TIP3    H139410   3.064   1.488   4.934
13151TIP3    H239411   3.066   1.617   4.854
13152TIP3   OH239412   5.254   7.110   3.232
13152TIP3    H139413   5.199   7.176   3.190
13152TIP3    H239414   5.288   7.154   3.310
13153TIP3   OH239415   6.355   7.364   4.227
13153TIP3    H139416   6.353   7.313   4.308
13153TIP3    H239417   6.344   7.455   4.256
13154TIP3   OH239418   3.473   1.884   0.698
13154TIP3    H139419   3.540   1.913   0.636
13154TIP3    H239420   3.468   1.789   0.684
13155TIP3   OH239421   5.108   3.894   1.160
13155TIP3    H139422   5.102   3.879   1.066
13155TIP3    H239423   5.116   3.989   1.169
13156TIP3   OH239424   1.238   3.602   4.996
13156TIP3    H139425   1.279   3.683   4.966
13156TIP3    H239426   1.291   3.532   4.957
13157TIP3   OH239427   0.830   5.265   0.216
13157TIP3    H139428   0.821   5.312   0.299
13157TIP3    H239429   0.880   5.325   0.160
13158TIP3   OH239430   2.726   4.800   6.073
13158TIP3    H139431   2.762   4.860   6.008
13158TIP3    H239432   2.646   4.766   6.032
13159TIP3   OH239433   8.301   6.260   3.997
13159TIP3    H139434   8.280   6.339   3.947
13159TIP3    H239435   8.386   6.279   4.037
13160TIP3   OH239436   7.909   1.075   0.642
13160TIP3    H139437   7.902   0.999   0.585
13160TIP3    H239438   8.003   1.091   0.649
13161TIP3   OH239439  -0.008   1.670   3.044
13161TIP3    H139440   0.061   1.627   3.095
13161TIP3    H239441   0.032   1.752   3.014
13162TIP3   OH239442   2.935   1.851   6.547
13162TIP3    H139443   3.012   1.821   6.499
13162TIP3    H239444   2.965   1.929   6.594
13163TIP3   OH239445   7.135   1.675   5.167
13163TIP3    H139446   7.055   1.624   5.153
13163TIP3    H239447   7.203   1.609   5.182
13164TIP3   OH239448   1.849   3.108   0.819
13164TIP3    H139449   1.855   3.014   0.802
13164TIP3    H239450   1.755   3.125   0.825
13165TIP3   OH239451   2.653   1.716   4.849
13165TIP3    H139452   2.577   1.759   4.889
13165TIP3    H239453   2.706   1.688   4.924
13166TIP3   OH239454   7.725   0.215   5.172
13166TIP3    H139455   7.731   0.239   5.079
13166TIP3    H239456   7.633   0.193   5.185
13167TIP3   OH239457   0.151   0.704   6.493
13167TIP3    H139458   0.171   0.695   6.586
13167TIP3    H239459   0.236   0.703   6.450
13168TIP3   OH239460   0.543   6.870   0.376
13168TIP3    H139461   0.636   6.880   0.397
13168TIP3    H239462   0.497   6.915   0.447
13169TIP3   OH239463   0.764   4.801   2.583
13169TIP3    H139464   0.843   4.827   2.535
13169TIP3    H239465   0.767   4.854   2.663
13170TIP3   OH239466   0.203   2.855   5.915
13170TIP3    H139467   0.228   2.784   5.856
13170TIP3    H239468   0.186   2.813   5.999
13171TIP3   OH239469   7.994   5.738   1.564
13171TIP3    H139470   7.967   5.814   1.616
13171TIP3    H239471   7.918   5.680   1.564
13172TIP3   OH239472   2.141   3.563   0.490
13172TIP3    H139473   2.114   3.645   0.530
13172TIP3    H239474   2.065   3.532   0.442
13173TIP3   OH239475   5.843   1.654   2.383
13173TIP3    H139476   5.881   1.659   2.295
13173TIP3    H239477   5.784   1.578   2.379
13174TIP3   OH239478   1.546   3.204   5.621
13174TIP3    H139479   1.612   3.154   5.669
13174TIP3    H239480   1.586   3.289   5.606
13175TIP3   OH239481   1.606   6.313   0.345
13175TIP3    H139482   1.660   6.347   0.417
13175TIP3    H239483   1.597   6.220   0.364
13176TIP3   OH239484   7.711   2.639   0.088
13176TIP3    H139485   7.689   2.713   0.031
13176TIP3    H239486   7.723   2.565   0.028
13177TIP3   OH239487   3.517   1.944   1.479
13177TIP3    H139488   3.476   1.911   1.558
13177TIP3    H239489   3.597   1.987   1.509
13178TIP3   OH239490   1.998   3.860   0.227
13178TIP3    H139491   1.927   3.869   0.163
13178TIP3    H239492   1.982   3.929   0.291
13179TIP3   OH239493   1.885   4.881   3.179
13179TIP3    H139494   1.970   4.843   3.203
13179TIP3    H239495   1.821   4.824   3.222
13180TIP3   OH239496   2.660   4.066   6.162
13180TIP3    H139497   2.597   4.107   6.222
13180TIP3    H239498   2.667   3.976   6.194
13181TIP3   OH239499   6.301   6.748   5.830
13181TIP3    H139500   6.251   6.666   5.836
13181TIP3    H239501   6.235   6.817   5.831
13182TIP3   OH239502   0.882   6.087   4.325
13182TIP3    H139503   0.824   6.163   4.319
13182TIP3    H239504   0.907   6.069   4.234
13183TIP3   OH239505   5.932   1.238   2.223
13183TIP3    H139506   5.889   1.240   2.308
13183TIP3    H239507   5.876   1.291   2.166
13184TIP3   OH239508   1.057   1.193   1.586
13184TIP3    H139509   1.108   1.195   1.505
13184TIP3    H239510   1.111   1.240   1.650
13185TIP3   OH239511   3.455   6.608   3.929
13185TIP3    H139512   3.427   6.526   3.969
13185TIP3    H239513   3.538   6.629   3.972
13186TIP3   OH239514   5.942   4.380   2.569
13186TIP3    H139515   5.916   4.442   2.501
13186TIP3    H239516   5.873   4.314   2.569
13187TIP3   OH239517   2.273   1.929   4.399
13187TIP3    H139518   2.327   1.891   4.330
13187TIP3    H239519   2.270   2.022   4.378
13188TIP3   OH239520   7.833   0.664   4.476
13188TIP3    H139521   7.765   0.604   4.506
13188TIP3    H239522   7.870   0.621   4.399
13189TIP3   OH239523   6.807   2.768   5.438
13189TIP3    H139524   6.857   2.702   5.485
13189TIP3    H239525   6.792   2.729   5.352
13190TIP3   OH239526   7.780   6.728   4.204
13190TIP3    H139527   7.717   6.669   4.244
13190TIP3    H239528   7.728   6.778   4.140
13191TIP3   OH239529   3.389   6.477   6.425
13191TIP3    H139530   3.411   6.384   6.424
13191TIP3    H239531   3.393   6.503   6.517
13192TIP3   OH239532   0.377   6.091   3.799
13192TIP3    H139533   0.447   6.026   3.790
13192TIP3    H239534   0.307   6.044   3.844
13193TIP3   OH239535   2.606   5.299   2.670
13193TIP3    H139536   2.573   5.279   2.758
13193TIP3    H239537   2.574   5.227   2.616
13194TIP3   OH239538   3.309   4.073   0.242
13194TIP3    H139539   3.277   4.148   0.193
13194TIP3    H239540   3.328   4.106   0.329
13195TIP3   OH239541   4.083   0.365   2.527
13195TIP3    H139542   4.012   0.310   2.559
13195TIP3    H239543   4.094   0.433   2.594
13196TIP3   OH239544   5.630   6.909   1.505
13196TIP3    H139545   5.706   6.882   1.558
13196TIP3    H239546   5.581   6.968   1.563
13197TIP3   OH239547   1.133   3.413   2.205
13197TIP3    H139548   1.140   3.331   2.156
13197TIP3    H239549   1.153   3.390   2.295
13198TIP3   OH239550   5.517   0.844   4.269
13198TIP3    H139551   5.438   0.794   4.292
13198TIP3    H239552   5.579   0.825   4.339
13199TIP3   OH239553   4.775   3.385   2.154
13199TIP3    H139554   4.824   3.386   2.072
13199TIP3    H239555   4.689   3.419   2.131
13200TIP3   OH239556   5.236   0.496   4.651
13200TIP3    H139557   5.223   0.402   4.660
13200TIP3    H239558   5.286   0.521   4.729
13201TIP3   OH239559   4.263   4.804   3.861
13201TIP3    H139560   4.331   4.759   3.810
13201TIP3    H239561   4.182   4.757   3.839
13202TIP3   OH239562   4.042   2.814   5.665
13202TIP3    H139563   4.088   2.868   5.730
13202TIP3    H239564   3.995   2.750   5.718
13203TIP3   OH239565   0.335   3.373   0.256
13203TIP3    H139566   0.424   3.340   0.247
13203TIP3    H239567   0.299   3.324   0.331
13204TIP3   OH239568   0.720   2.265   2.702
13204TIP3    H139569   0.658   2.321   2.748
13204TIP3    H239570   0.671   2.184   2.685
13205TIP3   OH239571   0.863   1.343   3.408
13205TIP3    H139572   0.925   1.285   3.365
13205TIP3    H239573   0.777   1.311   3.380
13206TIP3   OH239574   1.706   3.517   2.564
13206TIP3    H139575   1.768   3.541   2.632
13206TIP3    H239576   1.739   3.433   2.530
13207TIP3   OH239577   8.321   1.932   0.187
13207TIP3    H139578   8.310   1.891   0.101
13207TIP3    H239579   8.333   2.025   0.168
13208TIP3   OH239580   1.734   1.982   6.067
13208TIP3    H139581   1.818   1.983   6.022
13208TIP3    H239582   1.671   2.013   6.002
13209TIP3   OH239583   2.492   1.367   3.075
13209TIP3    H139584   2.464   1.452   3.041
13209TIP3    H239585   2.588   1.372   3.073
13210TIP3   OH239586   2.784   0.957   2.060
13210TIP3    H139587   2.815   1.045   2.036
13210TIP3    H239588   2.691   0.959   2.039
13211TIP3   OH239589   4.537   6.733   5.996
13211TIP3    H139590   4.595   6.799   6.036
13211TIP3    H239591   4.484   6.782   5.934
13212TIP3   OH239592   7.165   5.556   1.089
13212TIP3    H139593   7.240   5.540   1.146
13212TIP3    H239594   7.151   5.473   1.043
13213TIP3   OH239595   7.645   5.848   5.225
13213TIP3    H139596   7.566   5.891   5.191
13213TIP3    H239597   7.701   5.921   5.253
13214TIP3   OH239598   5.913   2.424   1.800
13214TIP3    H139599   5.945   2.498   1.749
13214TIP3    H239600   5.898   2.460   1.888
13215TIP3   OH239601   1.050   5.940   5.991
13215TIP3    H139602   1.124   5.979   6.037
13215TIP3    H239603   1.027   6.004   5.924
13216TIP3   OH239604   6.256   7.796   0.037
13216TIP3    H139605   6.245   7.888   0.014
13216TIP3    H239606   6.277   7.797   0.131
13217TIP3   OH239607   2.501   6.269   4.774
13217TIP3    H139608   2.590   6.303   4.780
13217TIP3    H239609   2.481   6.240   4.863
13218TIP3   OH239610   6.727   7.555   1.831
13218TIP3    H139611   6.810   7.534   1.788
13218TIP3    H239612   6.675   7.476   1.824
13219TIP3   OH239613   6.655   0.544   2.792
13219TIP3    H139614   6.622   0.460   2.825
13219TIP3    H239615   6.677   0.527   2.701
13220TIP3   OH239616   1.143   5.517   0.579
13220TIP3    H139617   1.226   5.553   0.547
13220TIP3    H239618   1.119   5.451   0.515
13221TIP3   OH239619   8.260   2.613   4.540
13221TIP3    H139620   8.289   2.592   4.629
13221TIP3    H239621   8.285   2.537   4.488
13222TIP3   OH239622   8.140   1.908   0.612
13222TIP3    H139623   8.175   1.819   0.619
13222TIP3    H239624   8.086   1.907   0.533
13223TIP3   OH239625   4.897   6.517   6.735
13223TIP3    H139626   4.846   6.440   6.711
13223TIP3    H239627   4.876   6.532   6.827
13224TIP3   OH239628   3.231   0.644   4.367
13224TIP3    H139629   3.299   0.593   4.411
13224TIP3    H239630   3.239   0.732   4.403
13225TIP3   OH239631   4.857   6.270   1.732
13225TIP3    H139632   4.833   6.362   1.716
13225TIP3    H239633   4.786   6.236   1.786
13226TIP3   OH239634   3.671   0.945   0.305
13226TIP3    H139635   3.680   0.849   0.303
13226TIP3    H239636   3.724   0.972   0.380
13227TIP3   OH239637   5.856   1.409   4.634
13227TIP3    H139638   5.814   1.330   4.599
13227TIP3    H239639   5.899   1.380   4.714
13228TIP3   OH239640   7.475   4.729   3.504
13228TIP3    H139641   7.431   4.795   3.558
13228TIP3    H239642   7.432   4.736   3.419
13229TIP3   OH239643   1.680   2.862   1.576
13229TIP3    H139644   1.660   2.775   1.610
13229TIP3    H239645   1.674   2.852   1.481
13230TIP3   OH239646   1.179   4.372   4.196
13230TIP3    H139647   1.097   4.410   4.228
13230TIP3    H239648   1.247   4.430   4.230
13231TIP3   OH239649   7.295   5.591   4.831
13231TIP3    H139650   7.273   5.549   4.914
13231TIP3    H239651   7.376   5.639   4.848
13232TIP3   OH239652   1.695   5.708   3.987
13232TIP3    H139653   1.760   5.741   4.049
13232TIP3    H239654   1.647   5.786   3.959
13233TIP3   OH239655   4.147   2.384   6.698
13233TIP3    H139656   4.180   2.425   6.778
13233TIP3    H239657   4.192   2.300   6.695
13234TIP3   OH239658   6.754   6.073   4.410
13234TIP3    H139659   6.723   6.020   4.483
13234TIP3    H239660   6.843   6.098   4.435
13235TIP3   OH239661   7.211   1.456   3.460
13235TIP3    H139662   7.298   1.470   3.498
13235TIP3    H239663   7.209   1.514   3.384
13236TIP3   OH239664   1.988   5.033   4.727
13236TIP3    H139665   2.032   5.081   4.797
13236TIP3    H239666   1.985   4.943   4.758
13237TIP3   OH239667   3.790   1.483   1.264
13237TIP3    H139668   3.776   1.444   1.350
13237TIP3    H239669   3.704   1.484   1.223
13238TIP3   OH239670   4.009   2.277   4.243
13238TIP3    H139671   3.982   2.301   4.331
13238TIP3    H239672   4.101   2.305   4.238
13239TIP3   OH239673   1.092   1.277   4.837
13239TIP3    H139674   1.028   1.346   4.850
13239TIP3    H239675   1.171   1.308   4.881
13240TIP3   OH239676   1.227   1.193   3.247
13240TIP3    H139677   1.318   1.200   3.275
13240TIP3    H239678   1.204   1.281   3.218
13241TIP3   OH239679   0.027   0.300   6.043
13241TIP3    H139680   0.104   0.356   6.040
13241TIP3    H239681   0.042   0.243   6.118
13242TIP3   OH239682   6.320   5.495   4.514
13242TIP3    H139683   6.250   5.464   4.572
13242TIP3    H239684   6.308   5.445   4.433
13243TIP3   OH239685   3.405   6.404   6.722
13243TIP3    H139686   3.382   6.326   6.773
13243TIP3    H239687   3.500   6.400   6.716
13244TIP3   OH239688   3.653   3.581   5.437
13244TIP3    H139689   3.688   3.607   5.352
13244TIP3    H239690   3.569   3.539   5.417
13245TIP3   OH239691   6.840   5.475   3.154
13245TIP3    H139692   6.872   5.433   3.074
13245TIP3    H239693   6.763   5.524   3.125
13246TIP3   OH239694   3.429   6.350   4.030
13246TIP3    H139695   3.446   6.298   3.951
13246TIP3    H239696   3.369   6.297   4.082
13247TIP3   OH239697   6.840   5.844   1.789
13247TIP3    H139698   6.752   5.824   1.759
13247TIP3    H239699   6.841   5.939   1.800
13248TIP3   OH239700   6.967   6.854   2.471
13248TIP3    H139701   6.893   6.800   2.499
13248TIP3    H239702   6.927   6.938   2.446
13249TIP3   OH239703   2.742   6.784   3.464
13249TIP3    H139704   2.710   6.776   3.554
13249TIP3    H239705   2.806   6.855   3.468
13250TIP3   OH239706   2.129   5.814   0.406
13250TIP3    H139707   2.197   5.786   0.467
13250TIP3    H239708   2.155   5.902   0.379
13251TIP3   OH239709   3.321   2.468   1.743
13251TIP3    H139710   3.336   2.417   1.663
13251TIP3    H239711   3.288   2.552   1.712
13252TIP3   OH239712   1.171   3.309   3.870
13252TIP3    H139713   1.170   3.224   3.914
13252TIP3    H239714   1.133   3.292   3.784
13253TIP3   OH239715   2.715   2.099   3.535
13253TIP3    H139716   2.810   2.087   3.546
13253TIP3    H239717   2.707   2.156   3.458
13254TIP3   OH239718   6.779   2.588   1.090
13254TIP3    H139719   6.770   2.640   1.011
13254TIP3    H239720   6.871   2.598   1.116
13255TIP3   OH239721   7.858   3.431   3.110
13255TIP3    H139722   7.936   3.453   3.058
13255TIP3    H239723   7.867   3.338   3.128
13256TIP3   OH239724   2.689   1.341   5.993
13256TIP3    H139725   2.603   1.383   5.994
13256TIP3    H239726   2.701   1.308   6.082
13257TIP3   OH239727   1.594   1.118   3.624
13257TIP3    H139728   1.685   1.092   3.634
13257TIP3    H239729   1.544   1.044   3.658
13258TIP3   OH239730   5.747   0.515   2.948
13258TIP3    H139731   5.798   0.540   2.871
13258TIP3    H239732   5.812   0.484   3.011
13259TIP3   OH239733   2.589   3.727   3.346
13259TIP3    H139734   2.522   3.675   3.390
13259TIP3    H239735   2.540   3.778   3.280
13260TIP3   OH239736   5.359   5.487   0.992
13260TIP3    H139737   5.358   5.448   1.079
13260TIP3    H239738   5.443   5.460   0.954
13261TIP3   OH239739   3.805   6.613   4.797
13261TIP3    H139740   3.745   6.593   4.869
13261TIP3    H239741   3.754   6.593   4.718
13262TIP3   OH239742   1.420   6.861   6.069
13262TIP3    H139743   1.442   6.774   6.038
13262TIP3    H239744   1.380   6.846   6.155
13263TIP3   OH239745   7.511   2.841   2.060
13263TIP3    H139746   7.604   2.853   2.080
13263TIP3    H239747   7.491   2.752   2.091
13264TIP3   OH239748   0.788   2.780   2.676
13264TIP3    H139749   0.764   2.872   2.685
13264TIP3    H239750   0.800   2.749   2.766
13265TIP3   OH239751   2.942   2.345   0.116
13265TIP3    H139752   3.003   2.404   0.161
13265TIP3    H239753   2.964   2.355   0.024
13266TIP3   OH239754   4.858   5.010   2.558
13266TIP3    H139755   4.821   5.081   2.611
13266TIP3    H239756   4.792   4.942   2.558
13267TIP3   OH239757   3.572   2.051   5.982
13267TIP3    H139758   3.511   2.089   5.919
13267TIP3    H239759   3.658   2.060   5.941
13268TIP3   OH239760   4.931   6.960   0.047
13268TIP3    H139761   4.902   7.018   0.118
13268TIP3    H239762   4.852   6.943  -0.004
13269TIP3   OH239763   1.780   0.150   4.097
13269TIP3    H139764   1.865   0.193   4.088
13269TIP3    H239765   1.765   0.108   4.012
13270TIP3   OH239766   8.062   1.547   3.001
13270TIP3    H139767   8.153   1.575   2.993
13270TIP3    H239768   8.026   1.601   3.071
13271TIP3   OH239769   5.703   4.760   4.731
13271TIP3    H139770   5.738   4.696   4.792
13271TIP3    H239771   5.694   4.840   4.783
13272TIP3   OH239772   0.363   2.775   1.294
13272TIP3    H139773   0.296   2.755   1.228
13272TIP3    H239774   0.398   2.689   1.319
13273TIP3   OH239775   4.928   5.686   4.407
13273TIP3    H139776   4.868   5.701   4.480
13273TIP3    H239777   4.879   5.715   4.330
13274TIP3   OH239778   5.180   1.631   4.952
13274TIP3    H139779   5.222   1.692   5.013
13274TIP3    H239780   5.228   1.549   4.964
13275TIP3   OH239781   3.870   7.169   3.052
13275TIP3    H139782   3.903   7.147   2.965
13275TIP3    H239783   3.824   7.090   3.080
13276TIP3   OH239784   3.333   4.802   0.311
13276TIP3    H139785   3.381   4.720   0.321
13276TIP3    H239786   3.349   4.828   0.221
13277TIP3   OH239787   0.432   3.708   0.693
13277TIP3    H139788   0.439   3.725   0.599
13277TIP3    H239789   0.474   3.784   0.734
13278TIP3   OH239790   2.728   6.144   0.328
13278TIP3    H139791   2.823   6.136   0.322
13278TIP3    H239792   2.708   6.228   0.286
13279TIP3   OH239793   1.318   5.698   0.406
13279TIP3    H139794   1.347   5.772   0.352
13279TIP3    H239795   1.293   5.630   0.344
13280TIP3   OH239796   4.957   1.236   5.628
13280TIP3    H139797   4.890   1.301   5.644
13280TIP3    H239798   5.013   1.274   5.560
13281TIP3   OH239799   8.280   2.490   3.605
13281TIP3    H139800   8.295   2.585   3.610
13281TIP3    H239801   8.286   2.470   3.512
13282TIP3   OH239802   0.810   2.541   1.841
13282TIP3    H139803   0.904   2.561   1.835
13282TIP3    H239804   0.806   2.445   1.838
13283TIP3   OH239805   5.823   2.925   6.468
13283TIP3    H139806   5.810   2.947   6.560
13283TIP3    H239807   5.846   3.009   6.427
13284TIP3   OH239808   1.219   6.113   4.012
13284TIP3    H139809   1.309   6.136   3.989
13284TIP3    H239810   1.199   6.036   3.959
13285TIP3   OH239811   1.909   7.505   3.229
13285TIP3    H139812   1.893   7.410   3.235
13285TIP3    H239813   1.865   7.530   3.147
13286TIP3   OH239814   5.272   6.725   1.909
13286TIP3    H139815   5.183   6.712   1.941
13286TIP3    H239816   5.314   6.780   1.976
13287TIP3   OH239817   4.770   1.869   2.858
13287TIP3    H139818   4.675   1.878   2.855
13287TIP3    H239819   4.785   1.787   2.906
13288TIP3   OH239820   5.601   7.634   5.885
13288TIP3    H139821   5.595   7.723   5.849
13288TIP3    H239822   5.526   7.628   5.944
13289TIP3   OH239823   3.867   4.946   3.226
13289TIP3    H139824   3.906   4.963   3.141
13289TIP3    H239825   3.820   5.026   3.248
13290TIP3   OH239826   2.874   3.413   5.575
13290TIP3    H139827   2.895   3.348   5.643
13290TIP3    H239828   2.794   3.455   5.607
13291TIP3   OH239829   5.078   3.282   4.961
13291TIP3    H139830   5.024   3.211   4.926
13291TIP3    H239831   5.090   3.342   4.887
13292TIP3   OH239832   4.958   0.283   1.195
13292TIP3    H139833   4.932   0.295   1.286
13292TIP3    H239834   4.928   0.195   1.173
13293TIP3   OH239835   5.850   0.520   6.692
13293TIP3    H139836   5.767   0.513   6.740
13293TIP3    H239837   5.834   0.473   6.611
13294TIP3   OH239838   6.380   5.143   5.001
13294TIP3    H139839   6.306   5.157   4.942
13294TIP3    H239840   6.412   5.231   5.021
13295TIP3   OH239841   4.294   1.849   2.533
13295TIP3    H139842   4.241   1.923   2.503
13295TIP3    H239843   4.358   1.888   2.592
13296TIP3   OH239844   3.472   2.828   5.864
13296TIP3    H139845   3.429   2.813   5.780
13296TIP3    H239846   3.498   2.742   5.894
13297TIP3   OH239847   5.193   2.168   5.959
13297TIP3    H139848   5.180   2.227   5.884
13297TIP3    H239849   5.266   2.207   6.007
13298TIP3   OH239850   7.530   2.249   3.981
13298TIP3    H139851   7.619   2.238   4.015
13298TIP3    H239852   7.506   2.338   4.004
13299TIP3   OH239853   0.481   3.732   0.425
13299TIP3    H139854   0.414   3.696   0.367
13299TIP3    H239855   0.501   3.818   0.388
13300TIP3   OH239856   1.876   5.597   5.796
13300TIP3    H139857   1.838   5.548   5.723
13300TIP3    H239858   1.962   5.557   5.809
13301TIP3   OH239859   7.384   7.182   3.932
13301TIP3    H139860   7.404   7.169   3.839
13301TIP3    H239861   7.331   7.262   3.934
13302TIP3   OH239862   4.583   6.825   3.513
13302TIP3    H139863   4.650   6.769   3.473
13302TIP3    H239864   4.630   6.905   3.538
13303TIP3   OH239865   1.687   6.745   6.721
13303TIP3    H139866   1.742   6.820   6.697
13303TIP3    H239867   1.601   6.784   6.739
13304TIP3   OH239868   0.293   6.445   1.622
13304TIP3    H139869   0.236   6.391   1.567
13304TIP3    H239870   0.290   6.532   1.582
13305TIP3   OH239871   1.080   5.323   1.831
13305TIP3    H139872   1.113   5.304   1.918
13305TIP3    H239873   1.062   5.417   1.831
13306TIP3   OH239874   5.029   3.491   2.565
13306TIP3    H139875   5.012   3.569   2.511
13306TIP3    H239876   4.990   3.419   2.516
13307TIP3   OH239877   2.193   4.315   6.411
13307TIP3    H139878   2.188   4.221   6.428
13307TIP3    H239879   2.273   4.344   6.454
13308TIP3   OH239880   8.213   5.827   6.160
13308TIP3    H139881   8.271   5.893   6.121
13308TIP3    H239882   8.126   5.848   6.126
13309TIP3   OH239883   3.968   1.027   4.371
13309TIP3    H139884   3.970   0.941   4.413
13309TIP3    H239885   3.940   1.087   4.440
13310TIP3   OH239886   7.849   5.170   4.501
13310TIP3    H139887   7.808   5.221   4.572
13310TIP3    H239888   7.825   5.218   4.422
13311TIP3   OH239889   3.748   1.217   2.781
13311TIP3    H139890   3.739   1.186   2.691
13311TIP3    H239891   3.840   1.242   2.788
13312TIP3   OH239892   0.543   5.860   4.071
13312TIP3    H139893   0.635   5.854   4.098
13312TIP3    H239894   0.545   5.842   3.977
13313TIP3   OH239895   3.521   2.953   1.705
13313TIP3    H139896   3.430   2.946   1.677
13313TIP3    H239897   3.544   3.045   1.690
13314TIP3   OH239898   5.096   3.049   5.147
13314TIP3    H139899   5.171   3.102   5.122
13314TIP3    H239900   5.052   3.029   5.065
13315TIP3   OH239901   2.464   2.861   5.065
13315TIP3    H139902   2.548   2.816   5.077
13315TIP3    H239903   2.475   2.945   5.111
13316TIP3   OH239904   1.690   3.803   5.344
13316TIP3    H139905   1.739   3.758   5.414
13316TIP3    H239906   1.617   3.744   5.325
13317TIP3   OH239907   5.075   7.017   1.073
13317TIP3    H139908   5.012   6.952   1.043
13317TIP3    H239909   5.148   6.966   1.108
13318TIP3   OH239910   4.857   5.941   5.307
13318TIP3    H139911   4.889   5.935   5.397
13318TIP3    H239912   4.845   5.850   5.280
13319TIP3   OH239913   1.702   6.388   0.600
13319TIP3    H139914   1.631   6.436   0.644
13319TIP3    H239915   1.763   6.456   0.571
13320TIP3   OH239916   7.302   7.275   0.098
13320TIP3    H139917   7.374   7.331   0.127
13320TIP3    H239918   7.297   7.205   0.164
13321TIP3   OH239919   7.933   1.695   6.693
13321TIP3    H139920   7.973   1.718   6.609
13321TIP3    H239921   7.899   1.606   6.680
13322TIP3   OH239922   5.157   0.794   3.700
13322TIP3    H139923   5.098   0.802   3.626
13322TIP3    H239924   5.102   0.760   3.771
13323TIP3   OH239925   3.468   5.382   5.152
13323TIP3    H139926   3.488   5.433   5.231
13323TIP3    H239927   3.526   5.419   5.085
13324TIP3   OH239928   2.323   5.330   0.606
13324TIP3    H139929   2.259   5.273   0.563
13324TIP3    H239930   2.404   5.279   0.605
13325TIP3   OH239931   6.771   5.078   4.201
13325TIP3    H139932   6.788   5.067   4.107
13325TIP3    H239933   6.756   5.171   4.212
13326TIP3   OH239934   1.671   3.602  -0.044
13326TIP3    H139935   1.631   3.660   0.021
13326TIP3    H239936   1.707   3.529   0.008
13327TIP3   OH239937   4.154   4.574   3.276
13327TIP3    H139938   4.178   4.494   3.228
13327TIP3    H239939   4.237   4.617   3.295
13328TIP3   OH239940   5.031   0.054   6.326
13328TIP3    H139941   4.992   0.123   6.380
13328TIP3    H239942   5.048  -0.017   6.388
13329TIP3   OH239943   4.865   4.007   6.496
13329TIP3    H139944   4.894   3.972   6.581
13329TIP3    H239945   4.898   4.097   6.495
13330TIP3   OH239946   2.129   1.060   6.666
13330TIP3    H139947   2.053   1.065   6.724
13330TIP3    H239948   2.134   1.147   6.626
13331TIP3   OH239949   4.080   3.058   4.361
13331TIP3    H139950   4.018   3.011   4.305
13331TIP3    H239951   4.151   2.995   4.376
13332TIP3   OH239952   2.727   4.972   2.115
13332TIP3    H139953   2.745   5.014   2.031
13332TIP3    H239954   2.808   4.984   2.166
13333TIP3   OH239955   0.570   2.182   4.426
13333TIP3    H139956   0.488   2.172   4.474
13333TIP3    H239957   0.630   2.223   4.488
13334TIP3   OH239958   0.414   5.507   1.357
13334TIP3    H139959   0.367   5.428   1.332
13334TIP3    H239960   0.500   5.477   1.384
13335TIP3   OH239961   6.255   7.059   4.130
13335TIP3    H139962   6.289   6.970   4.125
13335TIP3    H239963   6.160   7.049   4.128
13336TIP3   OH239964   3.416   3.138   2.138
13336TIP3    H139965   3.396   3.113   2.228
13336TIP3    H239966   3.500   3.183   2.144
13337TIP3   OH239967   7.242   4.234   1.958
13337TIP3    H139968   7.287   4.318   1.970
13337TIP3    H239969   7.149   4.256   1.963
13338TIP3   OH239970   7.637   7.490   1.926
13338TIP3    H139971   7.577   7.560   1.949
13338TIP3    H239972   7.582   7.413   1.916
13339TIP3   OH239973   5.627   5.558   0.748
13339TIP3    H139974   5.715   5.523   0.735
13339TIP3    H239975   5.637   5.621   0.819
13340TIP3   OH239976   1.254   7.583   3.399
13340TIP3    H139977   1.170   7.540   3.383
13340TIP3    H239978   1.311   7.514   3.432
13341TIP3   OH239979   6.973   6.154   6.365
13341TIP3    H139980   6.890   6.155   6.317
13341TIP3    H239981   6.961   6.217   6.436
13342TIP3   OH239982   0.116   2.014   6.480
13342TIP3    H139983   0.154   2.040   6.564
13342TIP3    H239984   0.047   2.079   6.464
13343TIP3   OH239985   2.968   1.055   3.760
13343TIP3    H139986   2.952   1.031   3.852
13343TIP3    H239987   2.921   0.989   3.709
13344TIP3   OH239988   7.671   2.749   5.472
13344TIP3    H139989   7.672   2.838   5.508
13344TIP3    H239990   7.608   2.753   5.400
13345TIP3   OH239991   1.087   1.897   4.524
13345TIP3    H139992   1.122   1.865   4.607
13345TIP3    H239993   1.068   1.989   4.539
13346TIP3   OH239994   5.316   5.340   5.305
13346TIP3    H139995   5.356   5.376   5.226
13346TIP3    H239996   5.245   5.284   5.273
13347TIP3   OH239997   3.374   0.403   4.445
13347TIP3    H139998   3.454   0.414   4.393
13347TIP3    H239999   3.307   0.380   4.380
13348TIP3   OH240000   2.040   5.145   6.114
13348TIP3    H140001   1.987   5.225   6.123
13348TIP3    H240002   2.129   5.173   6.135
13349TIP3   OH240003   3.268   0.400   3.923
13349TIP3    H140004   3.326   0.331   3.890
13349TIP3    H240005   3.249   0.454   3.847
13350TIP3   OH240006   1.924   2.981   3.341
13350TIP3    H140007   1.911   2.891   3.309
13350TIP3    H240008   2.018   2.996   3.332
13351TIP3   OH240009   4.918   6.080   6.504
13351TIP3    H140010   4.831   6.095   6.467
13351TIP3    H240011   4.944   6.165   6.540
13352TIP3   OH240012   2.932   4.642   6.312
13352TIP3    H140013   2.929   4.600   6.398
13352TIP3    H240014   2.931   4.570   6.250
13353TIP3   OH240015   3.427   5.380   0.542
13353TIP3    H140016   3.393   5.469   0.533
13353TIP3    H240017   3.478   5.365   0.463
13354TIP3   OH240018   2.521   3.676   1.137
13354TIP3    H140019   2.429   3.702   1.137
13354TIP3    H240020   2.520   3.582   1.119
13355TIP3   OH240021   0.715   1.162   1.253
13355TIP3    H140022   0.734   1.200   1.339
13355TIP3    H240023   0.634   1.114   1.265
13356TIP3   OH240024   5.668   4.002   0.282
13356TIP3    H140025   5.728   3.928   0.286
13356TIP3    H240026   5.581   3.962   0.288
13357TIP3   OH240027   2.798   3.239   5.989
13357TIP3    H140028   2.753   3.319   5.960
13357TIP3    H240029   2.748   3.211   6.066
13358TIP3   OH240030   0.867   6.570   1.843
13358TIP3    H140031   0.957   6.552   1.818
13358TIP3    H240032   0.858   6.665   1.836
13359TIP3   OH240033   7.354   4.532   4.682
13359TIP3    H140034   7.401   4.507   4.602
13359TIP3    H240035   7.356   4.454   4.736
13360TIP3   OH240036   4.483   0.211   5.899
13360TIP3    H140037   4.567   0.254   5.914
13360TIP3    H240038   4.504   0.117   5.898
13361TIP3   OH240039   6.408   0.911   5.821
13361TIP3    H140040   6.351   0.834   5.826
13361TIP3    H240041   6.371   0.964   5.750
13362TIP3   OH240042   4.691   2.272   5.828
13362TIP3    H140043   4.671   2.196   5.773
13362TIP3    H240044   4.706   2.343   5.766
13363TIP3   OH240045   4.505   1.820   6.411
13363TIP3    H140046   4.480   1.743   6.462
13363TIP3    H240047   4.586   1.794   6.367
13364TIP3   OH240048   7.981   6.695   6.098
13364TIP3    H140049   7.993   6.715   6.191
13364TIP3    H240050   7.989   6.600   6.093
13365TIP3   OH240051   4.031   6.523   5.180
13365TIP3    H140052   4.082   6.442   5.184
13365TIP3    H240053   4.011   6.544   5.272
13366TIP3   OH240054   6.181   2.581   3.537
13366TIP3    H140055   6.210   2.662   3.581
13366TIP3    H240056   6.095   2.563   3.575
13367TIP3   OH240057   2.777   4.200   4.449
13367TIP3    H140058   2.862   4.160   4.465
13367TIP3    H240059   2.720   4.167   4.518
13368TIP3   OH240060   5.157   4.529   2.611
13368TIP3    H140061   5.188   4.450   2.655
13368TIP3    H240062   5.204   4.601   2.654
13369TIP3   OH240063   8.264   4.662   4.697
13369TIP3    H140064   8.235   4.732   4.639
13369TIP3    H240065   8.360   4.672   4.702
13370TIP3   OH240066   8.268   2.368   1.625
13370TIP3    H140067   8.218   2.326   1.556
13370TIP3    H240068   8.309   2.296   1.673
13371TIP3   OH240069   7.718   2.482   1.295
13371TIP3    H140070   7.741   2.529   1.215
13371TIP3    H240071   7.723   2.547   1.364
13372TIP3   OH240072   3.132   6.691   5.173
13372TIP3    H140073   3.127   6.773   5.222
13372TIP3    H240074   3.222   6.688   5.140
13373TIP3   OH240075   2.506   3.137   1.887
13373TIP3    H140076   2.472   3.192   1.957
13373TIP3    H240077   2.446   3.063   1.883
13374TIP3   OH240078   3.268   0.114   2.830
13374TIP3    H140079   3.354   0.144   2.799
13374TIP3    H240080   3.212   0.115   2.752
13375TIP3   OH240081   7.881   3.083   3.812
13375TIP3    H140082   7.788   3.060   3.816
13375TIP3    H240083   7.900   3.096   3.719
13376TIP3   OH240084   0.571   1.640   5.274
13376TIP3    H140085   0.506   1.570   5.285
13376TIP3    H240086   0.639   1.601   5.218
13377TIP3   OH240087   6.157   3.964   6.710
13377TIP3    H140088   6.100   3.889   6.726
13377TIP3    H240089   6.167   3.966   6.615
13378TIP3   OH240090   5.435   2.323   5.084
13378TIP3    H140091   5.383   2.299   5.160
13378TIP3    H240092   5.372   2.354   5.019
13379TIP3   OH240093   3.340   7.521   3.422
13379TIP3    H140094   3.308   7.526   3.512
13379TIP3    H240095   3.289   7.587   3.375
13380TIP3   OH240096   2.476   5.283   0.002
13380TIP3    H140097   2.540   5.213  -0.015
13380TIP3    H240098   2.515   5.333   0.074
13381TIP3   OH240099   8.076   6.173   3.797
13381TIP3    H140100   8.112   6.095   3.755
13381TIP3    H240101   8.150   6.232   3.806
13382TIP3   OH240102   4.155   5.719   4.107
13382TIP3    H140103   4.136   5.634   4.149
13382TIP3    H240104   4.069   5.759   4.095
13383TIP3   OH240105   1.436   0.516   2.572
13383TIP3    H140106   1.418   0.462   2.648
13383TIP3    H240107   1.368   0.584   2.575
13384TIP3   OH240108   2.762   4.213   3.018
13384TIP3    H140109   2.781   4.127   2.981
13384TIP3    H240110   2.699   4.252   2.957
13385TIP3   OH240111   0.093   3.870   0.870
13385TIP3    H140112   0.017   3.929   0.866
13385TIP3    H240113   0.070   3.797   0.813
13386TIP3   OH240114   7.614   2.373  -0.015
13386TIP3    H140115   7.539   2.415  -0.058
13386TIP3    H240116   7.579   2.345   0.070
13387TIP3   OH240117   6.524   1.047   5.156
13387TIP3    H140118   6.476   0.983   5.104
13387TIP3    H240119   6.457   1.104   5.194
13388TIP3   OH240120   6.215   1.844   3.798
13388TIP3    H140121   6.128   1.867   3.766
13388TIP3    H240122   6.209   1.851   3.894
13389TIP3   OH240123   6.430   7.614   5.025
13389TIP3    H140124   6.492   7.585   4.958
13389TIP3    H240125   6.481   7.619   5.105
13390TIP3   OH240126   6.414   1.553   5.184
13390TIP3    H140127   6.319   1.547   5.182
13390TIP3    H240128   6.435   1.559   5.278
13391TIP3   OH240129   6.951   6.106   2.306
13391TIP3    H140130   6.920   6.098   2.216
13391TIP3    H240131   7.042   6.135   2.298
13392TIP3   OH240132   1.334   3.579   4.634
13392TIP3    H140133   1.378   3.512   4.686
13392TIP3    H240134   1.245   3.583   4.670
13393TIP3   OH240135   6.964   2.306   4.939
13393TIP3    H140136   6.898   2.303   5.008
13393TIP3    H240137   6.935   2.376   4.881
13394TIP3   OH240138   3.286   7.456   2.654
13394TIP3    H140139   3.284   7.364   2.681
13394TIP3    H240140   3.379   7.479   2.653
13395TIP3   OH240141   7.832   2.762   6.091
13395TIP3    H140142   7.927   2.773   6.097
13395TIP3    H240143   7.816   2.676   6.129
13396TIP3   OH240144   0.938   6.128   0.723
13396TIP3    H140145   0.969   6.055   0.670
13396TIP3    H240146   0.963   6.105   0.813
13397TIP3   OH240147   2.461   5.749   5.446
13397TIP3    H140148   2.418   5.665   5.431
13397TIP3    H240149   2.454   5.795   5.362
13398TIP3   OH240150   5.018   3.763   0.901
13398TIP3    H140151   5.111   3.753   0.884
13398TIP3    H240152   4.996   3.849   0.866
13399TIP3   OH240153   1.628   0.673   1.715
13399TIP3    H140154   1.600   0.591   1.754
13399TIP3    H240155   1.556   0.734   1.730
13400TIP3   OH240156   7.641   6.499   6.605
13400TIP3    H140157   7.667   6.414   6.570
13400TIP3    H240158   7.641   6.557   6.528
13401TIP3   OH240159   7.281   3.560   2.199
13401TIP3    H140160   7.299   3.604   2.116
13401TIP3    H240161   7.230   3.483   2.175
13402TIP3   OH240162   4.010   3.018   1.666
13402TIP3    H140163   3.971   3.019   1.578
13402TIP3    H240164   4.066   3.096   1.667
13403TIP3   OH240165   5.914   3.592   5.464
13403TIP3    H140166   5.873   3.618   5.547
13403TIP3    H240167   5.881   3.504   5.447
13404TIP3   OH240168   0.831   0.717   2.625
13404TIP3    H140169   0.794   0.628   2.623
13404TIP3    H240170   0.880   0.721   2.706
13405TIP3   OH240171   7.075   0.862   6.622
13405TIP3    H140172   6.984   0.834   6.633
13405TIP3    H240173   7.078   0.949   6.660
13406TIP3   OH240174   2.154   5.006   6.627
13406TIP3    H140175   2.131   4.914   6.616
13406TIP3    H240176   2.217   5.006   6.699
13407TIP3   OH240177   7.964   2.306   3.914
13407TIP3    H140178   8.030   2.260   3.966
13407TIP3    H240179   7.997   2.300   3.824
13408TIP3   OH240180   2.092   5.499   0.201
13408TIP3    H140181   2.021   5.509   0.138
13408TIP3    H240182   2.145   5.578   0.191
13409TIP3   OH240183   6.400   5.433   0.918
13409TIP3    H140184   6.494   5.413   0.923
13409TIP3    H240185   6.359   5.374   0.981
13410TIP3   OH240186   2.722   4.525   4.098
13410TIP3    H140187   2.700   4.562   4.013
13410TIP3    H240188   2.660   4.453   4.111
13411TIP3   OH240189   0.296   7.636   4.115
13411TIP3    H140190   0.273   7.543   4.123
13411TIP3    H240191   0.236   7.680   4.175
13412TIP3   OH240192   4.054   2.998   0.521
13412TIP3    H140193   4.054   3.094   0.527
13412TIP3    H240194   4.077   2.980   0.430
13413TIP3   OH240195   8.294   7.627   1.771
13413TIP3    H140196   8.203   7.627   1.743
13413TIP3    H240197   8.292   7.593   1.861
13414TIP3   OH240198   6.005   0.459   5.289
13414TIP3    H140199   6.020   0.495   5.201
13414TIP3    H240200   6.074   0.393   5.300
13415TIP3   OH240201   2.472   5.703   0.337
13415TIP3    H140202   2.535   5.731   0.403
13415TIP3    H240203   2.387   5.712   0.379
13416TIP3   OH240204   2.383   0.795   5.766
13416TIP3    H140205   2.448   0.729   5.744
13416TIP3    H240206   2.306   0.772   5.714
13417TIP3   OH240207   5.327   3.265   1.417
13417TIP3    H140208   5.339   3.170   1.425
13417TIP3    H240209   5.272   3.276   1.339
13418TIP3   OH240210   2.592   6.091   2.511
13418TIP3    H140211   2.612   6.124   2.598
13418TIP3    H240212   2.535   6.016   2.526
13419TIP3   OH240213   4.156   5.086   5.368
13419TIP3    H140214   4.151   5.034   5.449
13419TIP3    H240215   4.161   5.021   5.298
13420TIP3   OH240216   8.089   1.242   5.763
13420TIP3    H140217   8.153   1.171   5.766
13420TIP3    H240218   8.065   1.257   5.854
13421TIP3   OH240219   7.033   4.440   5.752
13421TIP3    H140220   7.041   4.513   5.691
13421TIP3    H240221   7.087   4.371   5.714
13422TIP3   OH240222   0.533   2.596   6.369
13422TIP3    H140223   0.478   2.533   6.417
13422TIP3    H240224   0.529   2.675   6.422
13423TIP3   OH240225   7.371   5.101   5.686
13423TIP3    H140226   7.316   5.057   5.750
13423TIP3    H240227   7.395   5.184   5.728
13424TIP3   OH240228   1.196   4.744   2.450
13424TIP3    H140229   1.267   4.790   2.494
13424TIP3    H240230   1.128   4.812   2.438
13425TIP3   OH240231   3.376   3.759   1.182
13425TIP3    H140232   3.380   3.684   1.122
13425TIP3    H240233   3.381   3.720   1.269
13426TIP3   OH240234   6.093   2.235   0.594
13426TIP3    H140235   6.076   2.143   0.571
13426TIP3    H240236   6.011   2.279   0.573
13427TIP3   OH240237   3.870   0.600   5.440
13427TIP3    H140238   3.903   0.688   5.458
13427TIP3    H240239   3.860   0.598   5.344
13428TIP3   OH240240   5.628   2.126   3.263
13428TIP3    H140241   5.714   2.088   3.278
13428TIP3    H240242   5.644   2.221   3.259
13429TIP3   OH240243   6.723   2.788   3.018
13429TIP3    H140244   6.655   2.726   3.044
13429TIP3    H240245   6.675   2.860   2.978
13430TIP3   OH240246   7.124   2.205   6.793
13430TIP3    H140247   7.143   2.235   6.703
13430TIP3    H240248   7.030   2.190   6.794
13431TIP3   OH240249   6.130   3.455   2.606
13431TIP3    H140250   6.218   3.421   2.626
13431TIP3    H240251   6.076   3.376   2.594
13432TIP3   OH240252   8.024   3.944   2.397
13432TIP3    H140253   7.946   3.974   2.350
13432TIP3    H240254   8.041   4.014   2.461
13433TIP3   OH240255   2.084   2.319   1.477
13433TIP3    H140256   2.157   2.380   1.483
13433TIP3    H240257   2.096   2.275   1.393
13434TIP3   OH240258   0.637   1.878   5.058
13434TIP3    H140259   0.596   1.792   5.046
13434TIP3    H240260   0.669   1.877   5.148
13435TIP3   OH240261   0.689   4.739   5.561
13435TIP3    H140262   0.673   4.747   5.467
13435TIP3    H240263   0.605   4.712   5.599
13436TIP3   OH240264   3.946   4.084   1.796
13436TIP3    H140265   3.992   4.124   1.722
13436TIP3    H240266   3.855   4.111   1.786
13437TIP3   OH240267   0.959   1.924   5.428
13437TIP3    H140268   0.997   1.927   5.516
13437TIP3    H240269   0.890   1.990   5.430
13438TIP3   OH240270   3.692   4.506   0.215
13438TIP3    H140271   3.709   4.437   0.279
13438TIP3    H240272   3.709   4.464   0.131
13439TIP3   OH240273   5.008   2.437   2.078
13439TIP3    H140274   5.025   2.529   2.056
13439TIP3    H240275   4.913   2.429   2.079
13440TIP3   OH240276   7.075   2.376   2.342
13440TIP3    H140277   7.147   2.437   2.357
13440TIP3    H240278   7.116   2.289   2.345
13441TIP3   OH240279   6.691   0.411   1.112
13441TIP3    H140280   6.651   0.404   1.025
13441TIP3    H240281   6.622   0.382   1.172
13442TIP3   OH240282   8.114   4.948   3.627
13442TIP3    H140283   8.131   5.028   3.577
13442TIP3    H240284   8.201   4.911   3.642
13443TIP3   OH240285   2.080   1.603   6.210
13443TIP3    H140286   2.172   1.606   6.235
13443TIP3    H240287   2.081   1.585   6.116
13444TIP3   OH240288   4.423   5.977   3.446
13444TIP3    H140289   4.494   5.930   3.490
13444TIP3    H240290   4.466   6.046   3.396
13445TIP3   OH240291   1.552   4.106   1.249
13445TIP3    H140292   1.484   4.145   1.304
13445TIP3    H240293   1.506   4.079   1.169
13446TIP3   OH240294   1.239   6.330   1.103
13446TIP3    H140295   1.195   6.395   1.048
13446TIP3    H240296   1.267   6.379   1.180
13447TIP3   OH240297   1.552   7.050   0.398
13447TIP3    H140298   1.542   6.961   0.432
13447TIP3    H240299   1.583   7.038   0.309
13448TIP3   OH240300   5.355   2.352   2.803
13448TIP3    H140301   5.399   2.295   2.740
13448TIP3    H240302   5.408   2.344   2.883
13449TIP3   OH240303   7.336   5.974   0.700
13449TIP3    H140304   7.251   6.019   0.691
13449TIP3    H240305   7.338   5.944   0.790
13450TIP3   OH240306   6.056   7.606   3.241
13450TIP3    H140307   6.040   7.514   3.222
13450TIP3    H240308   6.067   7.646   3.155
13451TIP3   OH240309   1.061   5.680   1.206
13451TIP3    H140310   1.032   5.602   1.160
13451TIP3    H240311   0.991   5.699   1.268
13452TIP3   OH240312   1.804   2.361   0.666
13452TIP3    H140313   1.892   2.339   0.634
13452TIP3    H240314   1.770   2.279   0.701
13453TIP3   OH240315   5.903   1.192   6.184
13453TIP3    H140316   5.956   1.251   6.130
13453TIP3    H240317   5.966   1.129   6.220
13454TIP3   OH240318   0.499   4.025   0.421
13454TIP3    H140319   0.520   4.037   0.514
13454TIP3    H240320   0.534   4.103   0.378
13455TIP3   OH240321   1.888   2.767   1.107
13455TIP3    H140322   1.882   2.672   1.102
13455TIP3    H240323   1.806   2.794   1.148
13456TIP3   OH240324   4.479   5.093   0.289
13456TIP3    H140325   4.404   5.153   0.281
13456TIP3    H240326   4.553   5.149   0.311
13457TIP3   OH240327   3.673   5.485   4.181
13457TIP3    H140328   3.606   5.421   4.158
13457TIP3    H240329   3.719   5.502   4.098
13458TIP3   OH240330   2.876   1.446   4.622
13458TIP3    H140331   2.836   1.531   4.602
13458TIP3    H240332   2.956   1.467   4.669
13459TIP3   OH240333   5.433   0.887   6.039
13459TIP3    H140334   5.491   0.916   6.109
13459TIP3    H240335   5.491   0.874   5.964
13460TIP3   OH240336   2.342   6.405   0.263
13460TIP3    H140337   2.379   6.438   0.181
13460TIP3    H240338   2.414   6.408   0.325
13461TIP3   OH240339   2.683   6.933   5.202
13461TIP3    H140340   2.745   6.901   5.136
13461TIP3    H240341   2.669   7.025   5.179
13462TIP3   OH240342   0.653   5.904   5.340
13462TIP3    H140343   0.605   5.987   5.334
13462TIP3    H240344   0.680   5.899   5.432
13463TIP3   OH240345   0.043   4.505   5.744
13463TIP3    H140346   0.045   4.410   5.761
13463TIP3    H240347   0.103   4.541   5.809
13464TIP3   OH240348   6.814   2.295   2.339
13464TIP3    H140349   6.759   2.355   2.288
13464TIP3    H240350   6.902   2.331   2.332
13465TIP3   OH240351   1.017   5.699   2.885
13465TIP3    H140352   1.098   5.648   2.883
13465TIP3    H240353   0.954   5.644   2.839
13466TIP3   OH240354   3.896   4.525   5.637
13466TIP3    H140355   3.934   4.557   5.718
13466TIP3    H240356   3.894   4.430   5.647
13467TIP3   OH240357   3.710   5.132   2.325
13467TIP3    H140358   3.739   5.072   2.257
13467TIP3    H240359   3.748   5.097   2.406
13468TIP3   OH240360   6.539   0.437   3.378
13468TIP3    H140361   6.584   0.446   3.462
13468TIP3    H240362   6.448   0.421   3.401
13469TIP3   OH240363   5.112   7.336   3.151
13469TIP3    H140364   5.022   7.324   3.181
13469TIP3    H240365   5.156   7.383   3.222
13470TIP3   OH240366   1.169   7.244   3.137
13470TIP3    H140367   1.224   7.277   3.208
13470TIP3    H240368   1.086   7.222   3.179
13471TIP3   OH240369   8.228   5.894   5.681
13471TIP3    H140370   8.315   5.901   5.721
13471TIP3    H240371   8.239   5.933   5.594
13472TIP3   OH240372   5.683   5.766   4.472
13472TIP3    H140373   5.595   5.792   4.443
13472TIP3    H240374   5.731   5.749   4.392
13473TIP3   OH240375   3.517   6.735   0.062
13473TIP3    H140376   3.577   6.715  -0.010
13473TIP3    H240377   3.575   6.749   0.138
13474TIP3   OH240378   6.918   0.218   1.757
13474TIP3    H140379   6.905   0.136   1.709
13474TIP3    H240380   6.876   0.284   1.702
13475TIP3   OH240381   1.914   3.591   3.390
13475TIP3    H140382   1.892   3.528   3.321
13475TIP3    H240383   1.973   3.543   3.448
13476TIP3   OH240384   4.390   7.178   6.642
13476TIP3    H140385   4.432   7.263   6.627
13476TIP3    H240386   4.336   7.165   6.564
13477TIP3   OH240387   7.809   6.832   6.680
13477TIP3    H140388   7.735   6.869   6.728
13477TIP3    H240389   7.793   6.854   6.589
13478TIP3   OH240390   6.992   1.151   2.222
13478TIP3    H140391   7.040   1.152   2.139
13478TIP3    H240392   6.962   1.060   2.231
13479TIP3   OH240393   1.460   4.766   2.976
13479TIP3    H140394   1.506   4.700   3.028
13479TIP3    H240395   1.409   4.816   3.039
13480TIP3   OH240396   6.176   5.954   1.373
13480TIP3    H140397   6.215   5.867   1.382
13480TIP3    H240398   6.090   5.938   1.333
13481TIP3   OH240399   5.520   4.238   3.436
13481TIP3    H140400   5.597   4.284   3.404
13481TIP3    H240401   5.555   4.167   3.490
13482TIP3   OH240402   3.575   6.123   3.198
13482TIP3    H140403   3.486   6.128   3.233
13482TIP3    H240404   3.581   6.035   3.160
13483TIP3   OH240405   3.609   6.088   1.119
13483TIP3    H140406   3.595   6.155   1.186
13483TIP3    H240407   3.523   6.075   1.079
13484TIP3   OH240408   4.206   6.514   2.268
13484TIP3    H140409   4.283   6.554   2.308
13484TIP3    H240410   4.208   6.423   2.299
13485TIP3   OH240411   3.402   1.428   1.543
13485TIP3    H140412   3.482   1.444   1.594
13485TIP3    H240413   3.403   1.334   1.525
13486TIP3   OH240414   2.956   1.528   1.592
13486TIP3    H140415   3.030   1.539   1.653
13486TIP3    H240416   2.964   1.437   1.562
13487TIP3   OH240417   0.126   7.175   3.917
13487TIP3    H140418   0.128   7.113   3.991
13487TIP3    H240419   0.099   7.121   3.843
13488TIP3   OH240420   4.419   5.469   5.242
13488TIP3    H140421   4.361   5.520   5.185
13488TIP3    H240422   4.396   5.497   5.330
13489TIP3   OH240423   3.927   0.166   5.265
13489TIP3    H140424   3.846   0.157   5.215
13489TIP3    H240425   3.995   0.138   5.204
13490TIP3   OH240426   5.092   0.063   5.335
13490TIP3    H140427   5.106   0.136   5.275
13490TIP3    H240428   5.084   0.105   5.421
13491TIP3   OH240429   1.362   2.657   3.571
13491TIP3    H140430   1.314   2.719   3.516
13491TIP3    H240431   1.454   2.684   3.564
13492TIP3   OH240432   5.451   5.554   0.524
13492TIP3    H140433   5.492   5.553   0.610
13492TIP3    H240434   5.417   5.465   0.512
13493TIP3   OH240435   0.723   1.072   4.518
13493TIP3    H140436   0.730   1.018   4.440
13493TIP3    H240437   0.786   1.142   4.505
13494TIP3   OH240438   4.246   1.056   1.543
13494TIP3    H140439   4.253   0.981   1.482
13494TIP3    H240440   4.301   1.124   1.503
13495TIP3   OH240441   3.125   5.212   5.609
13495TIP3    H140442   3.213   5.244   5.589
13495TIP3    H240443   3.098   5.165   5.531
13496TIP3   OH240444   6.638   4.621   3.364
13496TIP3    H140445   6.692   4.653   3.292
13496TIP3    H240446   6.686   4.546   3.399
13497TIP3   OH240447   1.752   3.228   1.724
13497TIP3    H140448   1.664   3.233   1.762
13497TIP3    H240449   1.772   3.135   1.722
13498TIP3   OH240450   2.471   2.126   0.587
13498TIP3    H140451   2.552   2.082   0.561
13498TIP3    H240452   2.462   2.199   0.525
13499TIP3   OH240453   6.386   5.606   6.003
13499TIP3    H140454   6.344   5.692   5.994
13499TIP3    H240455   6.453   5.619   6.070
13500TIP3   OH240456   7.191   4.291   4.598
13500TIP3    H140457   7.162   4.200   4.598
13500TIP3    H240458   7.142   4.332   4.669
13501TIP3   OH240459   4.930   6.013   3.242
13501TIP3    H140460   5.008   5.958   3.240
13501TIP3    H240461   4.892   5.998   3.329
13502TIP3   OH240462   3.176   3.281   2.046
13502TIP3    H140463   3.221   3.216   2.100
13502TIP3    H240464   3.123   3.331   2.109
13503TIP3   OH240465   6.894   4.374   5.507
13503TIP3    H140466   6.899   4.386   5.413
13503TIP3    H240467   6.983   4.350   5.533
13504TIP3   OH240468   0.742   4.546   0.005
13504TIP3    H140469   0.723   4.548   0.099
13504TIP3    H240470   0.835   4.524  -0.001
13505TIP3   OH240471   3.910   4.685   5.130
13505TIP3    H140472   3.819   4.659   5.145
13505TIP3    H240473   3.956   4.657   5.209
13506TIP3   OH240474   1.746   4.641   1.489
13506TIP3    H140475   1.813   4.619   1.425
13506TIP3    H240476   1.783   4.615   1.573
13507TIP3   OH240477   6.039   1.594   2.132
13507TIP3    H140478   5.961   1.573   2.080
13507TIP3    H240479   6.093   1.647   2.074
13508TIP3   OH240480   1.297   4.042   1.635
13508TIP3    H140481   1.339   4.089   1.564
13508TIP3    H240482   1.329   4.085   1.714
13509TIP3   OH240483   2.159   4.031   4.925
13509TIP3    H140484   2.084   4.006   4.871
13509TIP3    H240485   2.127   4.025   5.015
13510TIP3   OH240486   7.531   0.833   2.871
13510TIP3    H140487   7.492   0.754   2.832
13510TIP3    H240488   7.576   0.801   2.949
13511TIP3   OH240489   0.087   3.387   5.938
13511TIP3    H140490   0.057   3.299   5.960
13511TIP3    H240491   0.176   3.391   5.971
13512TIP3   OH240492   0.970   7.326   0.440
13512TIP3    H140493   0.910   7.398   0.463
13512TIP3    H240494   1.008   7.299   0.523
13513TIP3   OH240495   3.426   6.908   3.554
13513TIP3    H140496   3.490   6.839   3.538
13513TIP3    H240497   3.443   6.936   3.644
13514TIP3   OH240498   7.124   0.501   0.709
13514TIP3    H140499   7.190   0.486   0.777
13514TIP3    H240500   7.156   0.577   0.661
13515TIP3   OH240501   4.174   3.871   5.732
13515TIP3    H140502   4.222   3.946   5.768
13515TIP3    H240503   4.084   3.902   5.725
13516TIP3   OH240504   5.599   0.030   4.096
13516TIP3    H140505   5.577  -0.036   4.029
13516TIP3    H240506   5.517   0.077   4.111
13517TIP3   OH240507   0.011   6.364   6.359
13517TIP3    H140508   0.014   6.269   6.354
13517TIP3    H240509   0.066   6.386   6.435
13518TIP3   OH240510   6.755   5.397   6.427
13518TIP3    H140511   6.749   5.492   6.432
13518TIP3    H240512   6.793   5.371   6.511
13519TIP3   OH240513   2.793   5.517   6.040
13519TIP3    H140514   2.778   5.471   5.957
13519TIP3    H240515   2.832   5.450   6.097
13520TIP3   OH240516   1.045   3.381   6.148
13520TIP3    H140517   0.962   3.389   6.101
13520TIP3    H240518   1.073   3.472   6.161
13521TIP3   OH240519   2.992   5.217   3.631
13521TIP3    H140520   3.068   5.166   3.661
13521TIP3    H240521   2.925   5.151   3.613
13522TIP3   OH240522   7.054   7.195   0.329
13522TIP3    H140523   7.001   7.176   0.406
13522TIP3    H240524   7.006   7.264   0.283
13523TIP3   OH240525   2.855   3.733   4.700
13523TIP3    H140526   2.937   3.758   4.742
13523TIP3    H240527   2.831   3.650   4.743
13524TIP3   OH240528   3.171   5.838   2.692
13524TIP3    H140529   3.223   5.765   2.658
13524TIP3    H240530   3.214   5.862   2.775
13525TIP3   OH240531   5.564   3.787   3.095
13525TIP3    H140532   5.587   3.715   3.036
13525TIP3    H240533   5.476   3.764   3.127
13526TIP3   OH240534   7.227   6.296   2.921
13526TIP3    H140535   7.264   6.228   2.865
13526TIP3    H240536   7.200   6.365   2.860
13527TIP3   OH240537   3.714   6.831   3.362
13527TIP3    H140538   3.640   6.773   3.341
13527TIP3    H240539   3.790   6.773   3.363
13528TIP3   OH240540   5.382   1.132   0.986
13528TIP3    H140541   5.344   1.156   1.071
13528TIP3    H240542   5.407   1.040   0.997
13529TIP3   OH240543   1.336   1.267   0.069
13529TIP3    H140544   1.393   1.253  -0.007
13529TIP3    H240545   1.249   1.247   0.037
13530TIP3   OH240546   2.800   3.430   3.986
13530TIP3    H140547   2.710   3.406   4.006
13530TIP3    H240548   2.843   3.348   3.962
13531TIP3   OH240549   2.026   4.996   0.965
13531TIP3    H140550   2.055   4.930   1.027
13531TIP3    H240551   1.992   5.067   1.020
13532TIP3   OH240552   1.020   1.701   6.222
13532TIP3    H140553   1.003   1.655   6.304
13532TIP3    H240554   0.939   1.748   6.204
13533TIP3   OH240555   3.470   6.128   2.897
13533TIP3    H140556   3.540   6.071   2.928
13533TIP3    H240557   3.406   6.068   2.858
13534TIP3   OH240558   6.287   2.247   5.076
13534TIP3    H140559   6.270   2.166   5.124
13534TIP3    H240560   6.343   2.221   5.003
13535TIP3   OH240561   5.648   7.396   5.055
13535TIP3    H140562   5.653   7.397   5.151
13535TIP3    H240563   5.681   7.309   5.030
13536TIP3   OH240564   7.699   0.476   1.628
13536TIP3    H140565   7.783   0.486   1.584
13536TIP3    H240566   7.672   0.566   1.649
13537TIP3   OH240567   6.745   1.973   6.556
13537TIP3    H140568   6.711   1.911   6.491
13537TIP3    H240569   6.769   1.918   6.631
13538TIP3   OH240570   5.260   3.027   3.870
13538TIP3    H140571   5.190   3.092   3.878
13538TIP3    H240572   5.266   3.008   3.777
13539TIP3   OH240573   0.002   7.021   0.151
13539TIP3    H140574  -0.039   6.973   0.079
13539TIP3    H240575   0.062   7.082   0.109
13540TIP3   OH240576   0.666   7.601   4.112
13540TIP3    H140577   0.632   7.534   4.054
13540TIP3    H240578   0.628   7.581   4.198
13541TIP3   OH240579   6.191   6.773   1.480
13541TIP3    H140580   6.238   6.716   1.419
13541TIP3    H240581   6.194   6.726   1.563
13542TIP3   OH240582   1.989   7.007   2.963
13542TIP3    H140583   2.040   6.947   2.908
13542TIP3    H240584   2.054   7.049   3.019
13543TIP3   OH240585   6.437   2.134   4.375
13543TIP3    H140586   6.459   2.128   4.282
13543TIP3    H240587   6.344   2.113   4.380
13544TIP3   OH240588   5.611   3.924   4.442
13544TIP3    H140589   5.545   3.982   4.403
13544TIP3    H240590   5.613   3.949   4.534
13545TIP3   OH240591   7.973   7.388   0.255
13545TIP3    H140592   7.980   7.294   0.273
13545TIP3    H240593   7.998   7.396   0.163
13546TIP3   OH240594   2.509   7.686   1.379
13546TIP3    H140595   2.519   7.591   1.370
13546TIP3    H240596   2.438   7.708   1.319
13547TIP3   OH240597   3.287   5.193   2.891
13547TIP3    H140598   3.264   5.154   2.806
13547TIP3    H240599   3.238   5.140   2.955
13548TIP3   OH240600   3.441   4.174   6.531
13548TIP3    H140601   3.491   4.194   6.451
13548TIP3    H240602   3.364   4.127   6.500
13549TIP3   OH240603   2.566   3.933   4.087
13549TIP3    H140604   2.575   3.838   4.084
13549TIP3    H240605   2.497   3.948   4.152
13550TIP3   OH240606   6.441   7.691   1.612
13550TIP3    H140607   6.481   7.669   1.696
13550TIP3    H240608   6.367   7.748   1.635
13551TIP3   OH240609   0.879   0.202   1.771
13551TIP3    H140610   0.833   0.263   1.714
13551TIP3    H240611   0.814   0.136   1.794
13552TIP3   OH240612   4.318   3.662   0.986
13552TIP3    H140613   4.359   3.581   0.954
13552TIP3    H240614   4.266   3.693   0.912
13553TIP3   OH240615   1.322   6.091   0.102
13553TIP3    H140616   1.235   6.066   0.071
13553TIP3    H240617   1.307   6.129   0.189
13554TIP3   OH240618   4.570   2.641   1.920
13554TIP3    H140619   4.570   2.699   1.996
13554TIP3    H240620   4.493   2.668   1.869
13555TIP3   OH240621   5.541   5.052   0.432
13555TIP3    H140622   5.456   5.021   0.463
13555TIP3    H240623   5.570   5.115   0.497
13556TIP3   OH240624   2.475   2.802   1.185
13556TIP3    H140625   2.396   2.755   1.211
13556TIP3    H240626   2.540   2.734   1.171
13557TIP3   OH240627   7.741   7.095   2.803
13557TIP3    H140628   7.742   7.069   2.895
13557TIP3    H240629   7.801   7.169   2.798
13558TIP3   OH240630   5.560   7.734   3.251
13558TIP3    H140631   5.609   7.740   3.169
13558TIP3    H240632   5.491   7.671   3.233
13559TIP3   OH240633   3.594   0.624   2.961
13559TIP3    H140634   3.663   0.588   2.906
13559TIP3    H240635   3.577   0.711   2.925
13560TIP3   OH240636   3.174   1.482   6.418
13560TIP3    H140637   3.187   1.575   6.433
13560TIP3    H240638   3.253   1.440   6.453
13561TIP3   OH240639   0.946   7.132   3.247
13561TIP3    H140640   0.932   7.051   3.296
13561TIP3    H240641   0.938   7.202   3.312
13562TIP3   OH240642   2.932   6.795   5.536
13562TIP3    H140643   2.897   6.853   5.604
13562TIP3    H240644   3.006   6.752   5.578
13563TIP3   OH240645   3.115   2.121   2.240
13563TIP3    H140646   3.173   2.130   2.316
13563TIP3    H240647   3.077   2.034   2.249
13564TIP3   OH240648   6.932   1.833   5.750
13564TIP3    H140649   6.983   1.913   5.740
13564TIP3    H240650   6.977   1.784   5.819
13565TIP3   OH240651   7.046   1.794   3.040
13565TIP3    H140652   7.137   1.770   3.022
13565TIP3    H240653   7.031   1.872   2.985
13566TIP3   OH240654   5.298   3.077   6.399
13566TIP3    H140655   5.225   3.016   6.389
13566TIP3    H240656   5.262   3.162   6.377
13567TIP3   OH240657   3.495   5.889   1.420
13567TIP3    H140658   3.538   5.972   1.437
13567TIP3    H240659   3.402   5.908   1.426
13568TIP3   OH240660   0.126   3.094   6.028
13568TIP3    H140661   0.130   3.006   5.991
13568TIP3    H240662   0.218   3.118   6.041
13569TIP3   OH240663   5.799   4.353   6.652
13569TIP3    H140664   5.812   4.262   6.626
13569TIP3    H240665   5.859   4.367   6.725
13570TIP3   OH240666   0.948   2.050   2.537
13570TIP3    H140667   0.990   1.982   2.590
13570TIP3    H240668   0.870   2.008   2.502
13571TIP3   OH240669   1.771   7.752   6.178
13571TIP3    H140670   1.695   7.789   6.222
13571TIP3    H240671   1.837   7.743   6.247
13572TIP3   OH240672   2.563   4.017   0.177
13572TIP3    H140673   2.560   4.053   0.266
13572TIP3    H240674   2.474   3.989   0.159
13573TIP3   OH240675   0.235   0.007   3.835
13573TIP3    H140676   0.246   0.032   3.743
13573TIP3    H240677   0.141  -0.004   3.846
13574TIP3   OH240678   1.925   6.536   5.182
13574TIP3    H140679   1.852   6.544   5.242
13574TIP3    H240680   1.952   6.627   5.165
13575TIP3   OH240681   3.827   2.086   4.380
13575TIP3    H140682   3.915   2.048   4.389
13575TIP3    H240683   3.837   2.153   4.313
13576TIP3   OH240684   4.626   4.148   6.631
13576TIP3    H140685   4.701   4.198   6.600
13576TIP3    H240686   4.582   4.119   6.551
13577TIP3   OH240687   2.941   5.937   0.141
13577TIP3    H140688   3.002   5.880   0.187
13577TIP3    H240689   2.855   5.899   0.159
13578TIP3   OH240690   5.469   0.982   5.726
13578TIP3    H140691   5.422   0.900   5.737
13578TIP3    H240692   5.514   0.972   5.642
13579TIP3   OH240693   1.141   2.860   0.459
13579TIP3    H140694   1.074   2.841   0.394
13579TIP3    H240695   1.224   2.858   0.410
13580TIP3   OH240696   2.528   6.758   6.104
13580TIP3    H140697   2.451   6.759   6.048
13580TIP3    H240698   2.602   6.773   6.045
13581TIP3   OH240699   5.210   2.980   5.814
13581TIP3    H140700   5.298   2.982   5.850
13581TIP3    H240701   5.209   3.050   5.748
13582TIP3   OH240702   6.175   2.882   0.846
13582TIP3    H140703   6.147   2.964   0.888
13582TIP3    H240704   6.268   2.895   0.828
13583TIP3   OH240705   1.990   0.001   4.892
13583TIP3    H140706   1.896   0.001   4.910
13583TIP3    H240707   1.997   0.034   4.802
13584TIP3   OH240708   2.598   6.971   0.524
13584TIP3    H140709   2.681   6.998   0.484
13584TIP3    H240710   2.617   6.886   0.564
13585TIP3   OH240711   6.988   5.372   4.337
13585TIP3    H140712   6.996   5.462   4.306
13585TIP3    H240713   7.005   5.377   4.431
13586TIP3   OH240714   3.265   3.524   6.027
13586TIP3    H140715   3.317   3.498   5.951
13586TIP3    H240716   3.259   3.444   6.079
13587TIP3   OH240717   7.109   2.551   3.577
13587TIP3    H140718   7.190   2.502   3.570
13587TIP3    H240719   7.089   2.579   3.488
13588TIP3   OH240720   1.823   7.352   6.677
13588TIP3    H140721   1.790   7.276   6.725
13588TIP3    H240722   1.765   7.424   6.703
13589TIP3   OH240723   6.826   6.185   1.393
13589TIP3    H140724   6.778   6.245   1.450
13589TIP3    H240725   6.760   6.152   1.332
13590TIP3   OH240726   4.224   7.614   1.381
13590TIP3    H140727   4.208   7.691   1.327
13590TIP3    H240728   4.276   7.556   1.325
13591TIP3   OH240729   0.845   4.107   0.030
13591TIP3    H140730   0.877   4.167   0.097
13591TIP3    H240731   0.817   4.164  -0.042
13592TIP3   OH240732   7.030   6.415   3.377
13592TIP3    H140733   7.053   6.349   3.442
13592TIP3    H240734   7.099   6.409   3.311
13593TIP3   OH240735   6.792   5.522   0.482
13593TIP3    H140736   6.858   5.515   0.551
13593TIP3    H240737   6.828   5.584   0.419
13594TIP3   OH240738   2.995   4.535   0.890
13594TIP3    H140739   2.969   4.508   0.978
13594TIP3    H240740   2.915   4.527   0.838
13595TIP3   OH240741   3.843   7.716   4.728
13595TIP3    H140742   3.795   7.799   4.723
13595TIP3    H240743   3.925   7.739   4.772
13596TIP3   OH240744   2.315   6.365   2.810
13596TIP3    H140745   2.383   6.299   2.796
13596TIP3    H240746   2.332   6.432   2.744
13597TIP3   OH240747   7.383   5.518   0.725
13597TIP3    H140748   7.452   5.537   0.788
13597TIP3    H240749   7.303   5.511   0.778
13598TIP3   OH240750   0.798   7.105   2.007
13598TIP3    H140751   0.836   7.089   1.921
13598TIP3    H240752   0.751   7.025   2.029
13599TIP3   OH240753   1.412   1.541   3.383
13599TIP3    H140754   1.401   1.479   3.455
13599TIP3    H240755   1.491   1.589   3.405
13600TIP3   OH240756   6.992   5.665   1.280
13600TIP3    H140757   7.041   5.616   1.215
13600TIP3    H240758   6.965   5.598   1.344
13601TIP3   OH240759   3.335   5.587   6.267
13601TIP3    H140760   3.315   5.680   6.281
13601TIP3    H240761   3.269   5.558   6.204
13602TIP3   OH240762   7.550   0.406   4.977
13602TIP3    H140763   7.602   0.466   4.923
13602TIP3    H240764   7.469   0.454   4.993
13603TIP3   OH240765   0.945   7.086   6.456
13603TIP3    H140766   0.999   7.158   6.423
13603TIP3    H240767   1.007   7.015   6.472
13604TIP3   OH240768   1.259   1.106   4.001
13604TIP3    H140769   1.266   1.137   4.091
13604TIP3    H240770   1.297   1.177   3.949
13605TIP3   OH240771   3.230   6.957   2.533
13605TIP3    H140772   3.245   6.927   2.443
13605TIP3    H240773   3.148   6.916   2.558
13606TIP3   OH240774   6.887   5.165   3.936
13606TIP3    H140775   6.799   5.192   3.908
13606TIP3    H240776   6.917   5.106   3.868
13607TIP3   OH240777   7.124   6.839   1.937
13607TIP3    H140778   7.124   6.885   1.853
13607TIP3    H240779   7.065   6.765   1.924
13608TIP3   OH240780   1.752   7.168   0.958
13608TIP3    H140781   1.737   7.135   0.870
13608TIP3    H240782   1.729   7.094   1.015
13609TIP3   OH240783   3.324   5.744   0.985
13609TIP3    H140784   3.246   5.688   0.982
13609TIP3    H240785   3.374   5.713   1.060
13610TIP3   OH240786   2.118   6.528   4.796
13610TIP3    H140787   2.056   6.476   4.848
13610TIP3    H240788   2.176   6.463   4.756
13611TIP3   OH240789   2.412   3.474   0.463
13611TIP3    H140790   2.478   3.532   0.500
13611TIP3    H240791   2.331   3.500   0.507
13612TIP3   OH240792   2.411   0.024   0.703
13612TIP3    H140793   2.473   0.022   0.775
13612TIP3    H240794   2.465   0.034   0.625
13613TIP3   OH240795   5.309   4.339   4.042
13613TIP3    H140796   5.389   4.309   4.085
13613TIP3    H240797   5.327   4.328   3.948
13614TIP3   OH240798   8.202   2.682   0.409
13614TIP3    H140799   8.129   2.698   0.350
13614TIP3    H240800   8.252   2.763   0.408
13615TIP3   OH240801   0.516   4.765   3.340
13615TIP3    H140802   0.508   4.830   3.411
13615TIP3    H240803   0.427   4.730   3.331
13616TIP3   OH240804   2.226   1.612   2.385
13616TIP3    H140805   2.260   1.533   2.341
13616TIP3    H240806   2.252   1.601   2.477
13617TIP3   OH240807   4.446   1.497   4.792
13617TIP3    H140808   4.527   1.525   4.749
13617TIP3    H240809   4.464   1.407   4.819
13618TIP3   OH240810   5.830   1.028   5.313
13618TIP3    H140811   5.851   0.941   5.347
13618TIP3    H240812   5.753   1.014   5.258
13619TIP3   OH240813   4.844   5.402   3.788
13619TIP3    H140814   4.773   5.466   3.780
13619TIP3    H240815   4.870   5.385   3.697
13620TIP3   OH240816   0.280   5.533   5.024
13620TIP3    H140817   0.295   5.538   5.119
13620TIP3    H240818   0.238   5.616   5.002
13621TIP3   OH240819   8.313   1.393   0.672
13621TIP3    H140820   8.260   1.373   0.749
13621TIP3    H240821   8.298   1.319   0.613
13622TIP3   OH240822   4.320   1.251   5.983
13622TIP3    H140823   4.400   1.207   6.012
13622TIP3    H240824   4.253   1.223   6.047
13623TIP3   OH240825   2.076   5.129   3.291
13623TIP3    H140826   1.982   5.114   3.287
13623TIP3    H240827   2.099   5.165   3.205
13624TIP3   OH240828   0.964   1.080   3.364
13624TIP3    H140829   1.051   1.115   3.344
13624TIP3    H240830   0.952   1.097   3.457
13625TIP3   OH240831   2.439   6.714   3.840
13625TIP3    H140832   2.398   6.795   3.872
13625TIP3    H240833   2.468   6.669   3.919
13626TIP3   OH240834   3.714   2.967   4.334
13626TIP3    H140835   3.781   2.970   4.266
13626TIP3    H240836   3.750   3.019   4.405
13627TIP3   OH240837   3.595   5.080   0.268
13627TIP3    H140838   3.588   5.174   0.279
13627TIP3    H240839   3.546   5.061   0.188
13628TIP3   OH240840   2.532   7.427   2.992
13628TIP3    H140841   2.590   7.452   3.064
13628TIP3    H240842   2.591   7.417   2.917
13629TIP3   OH240843   7.682   4.118   5.288
13629TIP3    H140844   7.761   4.171   5.274
13629TIP3    H240845   7.704   4.063   5.363
13630TIP3   OH240846   7.704   6.501   5.954
13630TIP3    H140847   7.682   6.571   5.893
13630TIP3    H240848   7.789   6.469   5.924
13631TIP3   OH240849   0.703   6.254   0.833
13631TIP3    H140850   0.711   6.349   0.825
13631TIP3    H240851   0.792   6.221   0.827
13632TIP3   OH240852   5.650   7.277   6.455
13632TIP3    H140853   5.697   7.197   6.430
13632TIP3    H240854   5.717   7.345   6.458
13633TIP3   OH240855   4.539   0.529   3.876
13633TIP3    H140856   4.474   0.477   3.924
13633TIP3    H240857   4.523   0.508   3.784
13634TIP3   OH240858   4.233   6.057   3.630
13634TIP3    H140859   4.314   6.079   3.585
13634TIP3    H240860   4.221   5.963   3.615
13635TIP3   OH240861   8.059   6.981   1.370
13635TIP3    H140862   8.065   7.064   1.323
13635TIP3    H240863   8.010   6.924   1.311
13636TIP3   OH240864   4.137   6.249   6.120
13636TIP3    H140865   4.175   6.294   6.045
13636TIP3    H240866   4.207   6.193   6.152
13637TIP3   OH240867   0.109   3.029   5.313
13637TIP3    H140868   0.065   3.060   5.392
13637TIP3    H240869   0.145   2.943   5.338
13638TIP3   OH240870   1.540   2.777   3.797
13638TIP3    H140871   1.623   2.791   3.842
13638TIP3    H240872   1.504   2.865   3.785
13639TIP3   OH240873   3.812   0.348   1.862
13639TIP3    H140874   3.751   0.332   1.790
13639TIP3    H240875   3.875   0.276   1.857
13640TIP3   OH240876   0.524   0.220   3.309
13640TIP3    H140877   0.437   0.229   3.270
13640TIP3    H240878   0.507   0.224   3.404
13641TIP3   OH240879   0.467   5.887   1.894
13641TIP3    H140880   0.372   5.881   1.892
13641TIP3    H240881   0.488   5.958   1.833
13642TIP3   OH240882   6.236   0.014   2.346
13642TIP3    H140883   6.211   0.005   2.438
13642TIP3    H240884   6.330  -0.002   2.345
13643TIP3   OH240885   0.173   0.840   3.624
13643TIP3    H140886   0.215   0.840   3.538
13643TIP3    H240887   0.185   0.930   3.656
13644TIP3   OH240888   1.358   2.404   0.842
13644TIP3    H140889   1.400   2.440   0.764
13644TIP3    H240890   1.386   2.312   0.843
13645TIP3   OH240891   6.366   7.485   5.780
13645TIP3    H140892   6.319   7.494   5.863
13645TIP3    H240893   6.428   7.413   5.795
13646TIP3   OH240894   4.057   2.884   5.959
13646TIP3    H140895   4.063   2.900   6.053
13646TIP3    H240896   4.003   2.955   5.926
13647TIP3   OH240897   5.282   1.488   1.656
13647TIP3    H140898   5.238   1.454   1.578
13647TIP3    H240899   5.338   1.415   1.685
13648TIP3   OH240900   3.937   0.572   5.185
13648TIP3    H140901   3.879   0.579   5.110
13648TIP3    H240902   3.977   0.486   5.177
13649TIP3   OH240903   6.795   7.755   5.486
13649TIP3    H140904   6.844   7.676   5.508
13649TIP3    H240905   6.720   7.724   5.436
13650TIP3   OH240906   0.623   3.328   0.213
13650TIP3    H140907   0.704   3.370   0.186
13650TIP3    H240908   0.593   3.281   0.135
13651TIP3   OH240909   7.558   4.497   2.994
13651TIP3    H140910   7.594   4.514   3.080
13651TIP3    H240911   7.627   4.523   2.933
13652TIP3   OH240912   0.097   0.969   6.231
13652TIP3    H140913   0.014   0.957   6.185
13652TIP3    H240914   0.108   0.890   6.283
13653TIP3   OH240915   2.803   2.750   3.122
13653TIP3    H140916   2.830   2.830   3.167
13653TIP3    H240917   2.734   2.714   3.178
13654TIP3   OH240918   6.991   4.224   0.338
13654TIP3    H140919   6.962   4.157   0.276
13654TIP3    H240920   6.910   4.270   0.363
13655TIP3   OH240921   4.558   2.371   3.064
13655TIP3    H140922   4.614   2.372   3.142
13655TIP3    H240923   4.531   2.462   3.053
13656TIP3   OH240924   2.679   1.922   1.894
13656TIP3    H140925   2.601   1.871   1.872
13656TIP3    H240926   2.728   1.866   1.955
13657TIP3   OH240927   2.422   3.922   1.461
13657TIP3    H140928   2.432   3.828   1.445
13657TIP3    H240929   2.439   3.932   1.555
13658TIP3   OH240930   7.191   6.022   2.778
13658TIP3    H140931   7.185   5.939   2.825
13658TIP3    H240932   7.119   6.019   2.715
13659TIP3   OH240933   2.944   0.583   1.479
13659TIP3    H140934   2.990   0.550   1.556
13659TIP3    H240935   2.954   0.514   1.413
13660TIP3   OH240936   6.714   5.343   5.846
13660TIP3    H140937   6.761   5.424   5.826
13660TIP3    H240938   6.638   5.346   5.789
13661TIP3   OH240939   1.803   1.570   5.388
13661TIP3    H140940   1.885   1.614   5.366
13661TIP3    H240941   1.764   1.548   5.303
13662TIP3   OH240942   7.495   6.210   4.133
13662TIP3    H140943   7.537   6.133   4.095
13662TIP3    H240944   7.550   6.234   4.207
13663TIP3   OH240945   0.719   4.180   3.854
13663TIP3    H140946   0.704   4.267   3.891
13663TIP3    H240947   0.722   4.121   3.929
13664TIP3   OH240948   1.279   7.076   5.463
13664TIP3    H140949   1.356   7.086   5.519
13664TIP3    H240950   1.276   7.157   5.413
13665TIP3   OH240951   6.656   3.063   0.214
13665TIP3    H140952   6.674   3.157   0.219
13665TIP3    H240953   6.648   3.035   0.306
13666TIP3   OH240954   1.235   5.076   0.949
13666TIP3    H140955   1.193   4.995   0.921
13666TIP3    H240956   1.325   5.068   0.919
13667TIP3   OH240957   2.752   0.543   3.404
13667TIP3    H140958   2.737   0.635   3.383
13667TIP3    H240959   2.684   0.520   3.467
13668TIP3   OH240960   0.926   5.948   2.954
13668TIP3    H140961   1.004   6.000   2.975
13668TIP3    H240962   0.961   5.867   2.917
13669TIP3   OH240963   7.321   7.257   1.521
13669TIP3    H140964   7.366   7.331   1.479
13669TIP3    H240965   7.379   7.182   1.504
13670TIP3   OH240966   6.181   3.918   2.294
13670TIP3    H140967   6.251   3.870   2.339
13670TIP3    H240968   6.202   3.910   2.201
13671TIP3   OH240969   3.302   7.210   3.144
13671TIP3    H140970   3.265   7.144   3.203
13671TIP3    H240971   3.233   7.276   3.135
13672TIP3   OH240972   8.217   3.869   6.145
13672TIP3    H140973   8.224   3.931   6.072
13672TIP3    H240974   8.207   3.783   6.103
13673TIP3   OH240975   5.963   6.944   3.032
13673TIP3    H140976   6.036   6.961   2.972
13673TIP3    H240977   6.004   6.898   3.106
13674TIP3   OH240978   4.464   6.454   2.618
13674TIP3    H140979   4.371   6.476   2.623
13674TIP3    H240980   4.502   6.526   2.567
13675TIP3   OH240981   8.268   5.711   1.731
13675TIP3    H140982   8.219   5.738   1.809
13675TIP3    H240983   8.201   5.694   1.665
13676TIP3   OH240984   0.137   2.529   0.592
13676TIP3    H140985   0.085   2.593   0.641
13676TIP3    H240986   0.078   2.454   0.581
13677TIP3   OH240987   7.567   3.356   4.475
13677TIP3    H140988   7.475   3.367   4.453
13677TIP3    H240989   7.573   3.266   4.508
13678TIP3   OH240990   3.366   4.510   5.272
13678TIP3    H140991   3.338   4.572   5.339
13678TIP3    H240992   3.287   4.463   5.247
13679TIP3   OH240993   3.227   6.373   4.651
13679TIP3    H140994   3.169   6.437   4.692
13679TIP3    H240995   3.199   6.288   4.687
13680TIP3   OH240996   3.651   7.726   1.400
13680TIP3    H140997   3.711   7.652   1.410
13680TIP3    H240998   3.587   7.696   1.335
13681TIP3   OH240999   4.583   7.480   1.766
13681TIP3    H141000   4.491   7.466   1.785
13681TIP3    H241001   4.599   7.431   1.686
13682TIP3   OH241002   2.232   2.796   2.647
13682TIP3    H141003   2.143   2.827   2.667
13682TIP3    H241004   2.289   2.860   2.690
13683TIP3   OH241005   6.296   4.332   5.531
13683TIP3    H141006   6.387   4.333   5.563
13683TIP3    H241007   6.300   4.284   5.449
13684TIP3   OH241008   3.082   5.195   5.130
13684TIP3    H141009   3.078   5.112   5.082
13684TIP3    H241010   3.146   5.247   5.082
13685TIP3   OH241011   4.310   1.622   0.313
13685TIP3    H141012   4.402   1.647   0.305
13685TIP3    H241013   4.271   1.691   0.366
13686TIP3   OH241014   1.774   1.668   5.925
13686TIP3    H141015   1.698   1.664   5.983
13686TIP3    H241016   1.737   1.689   5.839
13687TIP3   OH241017   0.078   2.214   4.345
13687TIP3    H141018   0.005   2.265   4.381
13687TIP3    H241019   0.056   2.123   4.368
13688TIP3   OH241020   4.500   2.673   3.815
13688TIP3    H141021   4.584   2.711   3.790
13688TIP3    H241022   4.444   2.685   3.738
13689TIP3   OH241023   2.943   5.861   5.664
13689TIP3    H141024   2.897   5.937   5.698
13689TIP3    H241025   2.983   5.892   5.582
13690TIP3   OH241026   4.170   4.156   1.342
13690TIP3    H141027   4.214   4.142   1.259
13690TIP3    H241028   4.097   4.214   1.321
13691TIP3   OH241029   1.467   1.981   6.539
13691TIP3    H141030   1.468   1.914   6.470
13691TIP3    H241031   1.554   1.976   6.578
13692TIP3   OH241032   7.488   4.768   1.480
13692TIP3    H141033   7.584   4.775   1.472
13692TIP3    H241034   7.467   4.823   1.555
13693TIP3   OH241035   2.313   5.995   2.547
13693TIP3    H141036   2.255   5.944   2.490
13693TIP3    H241037   2.265   6.077   2.562
13694TIP3   OH241038   2.557   4.104   0.498
13694TIP3    H141039   2.649   4.091   0.473
13694TIP3    H241040   2.553   4.195   0.527
13695TIP3   OH241041   2.757   4.918   6.648
13695TIP3    H141042   2.844   4.886   6.627
13695TIP3    H241043   2.698   4.868   6.592
13696TIP3   OH241044   0.895   3.327   6.628
13696TIP3    H141045   0.891   3.270   6.704
13696TIP3    H241046   0.844   3.281   6.561
13697TIP3   OH241047   0.720  -0.046   5.538
13697TIP3    H141048   0.727  -0.007   5.626
13697TIP3    H241049   0.805  -0.028   5.497
13698TIP3   OH241050   0.756   1.878   2.417
13698TIP3    H141051   0.661   1.866   2.418
13698TIP3    H241052   0.792   1.791   2.397
13699TIP3   OH241053   2.081   1.362   4.090
13699TIP3    H141054   2.122   1.317   4.164
13699TIP3    H241055   2.072   1.294   4.023
13700TIP3   OH241056   2.651   0.399   2.542
13700TIP3    H141057   2.586   0.470   2.540
13700TIP3    H241058   2.618   0.334   2.481
13701TIP3   OH241059   0.048   6.487   6.747
13701TIP3    H141060   0.101   6.439   6.811
13701TIP3    H241061  -0.015   6.423   6.714
13702TIP3   OH241062   6.554   6.760   6.050
13702TIP3    H141063   6.510   6.781   5.967
13702TIP3    H241064   6.490   6.783   6.117
13703TIP3   OH241065   6.225   6.195   1.477
13703TIP3    H141066   6.143   6.239   1.453
13703TIP3    H241067   6.210   6.102   1.456
13704TIP3   OH241068   4.521   4.015   4.712
13704TIP3    H141069   4.535   4.108   4.695
13704TIP3    H241070   4.490   4.011   4.803
13705TIP3   OH241071   1.027   4.835   0.499
13705TIP3    H141072   1.007   4.746   0.529
13705TIP3    H241073   0.956   4.855   0.437
13706TIP3   OH241074   1.055   6.329   6.760
13706TIP3    H141075   0.987   6.264   6.743
13706TIP3    H241076   1.013   6.395   6.814
13707TIP3   OH241077   4.947   0.598   3.428
13707TIP3    H141078   4.958   0.690   3.451
13707TIP3    H241079   4.921   0.600   3.336
13708TIP3   OH241080   4.221   4.742   1.176
13708TIP3    H141081   4.196   4.707   1.262
13708TIP3    H241082   4.315   4.755   1.182
13709TIP3   OH241083   2.622   5.583   1.650
13709TIP3    H141084   2.585   5.655   1.701
13709TIP3    H241085   2.703   5.618   1.613
13710TIP3   OH241086   0.447   1.575   0.266
13710TIP3    H141087   0.360   1.566   0.227
13710TIP3    H241088   0.438   1.649   0.327
13711TIP3   OH241089   8.231   7.414   3.731
13711TIP3    H141090   8.304   7.463   3.769
13711TIP3    H241091   8.270   7.333   3.700
13712TIP3   OH241092   6.503   7.490   0.360
13712TIP3    H141093   6.591   7.486   0.398
13712TIP3    H241094   6.473   7.399   0.361
13713TIP3   OH241095   3.447   6.308   1.204
13713TIP3    H141096   3.452   6.401   1.185
13713TIP3    H241097   3.436   6.303   1.299
13714TIP3   OH241098   1.178   7.356   5.605
13714TIP3    H141099   1.259   7.383   5.649
13714TIP3    H241100   1.201   7.353   5.513
13715TIP3   OH241101   2.803   1.067   2.677
13715TIP3    H141102   2.747   1.000   2.637
13715TIP3    H241103   2.747   1.110   2.742
13716TIP3   OH241104   2.290   7.182   4.712
13716TIP3    H141105   2.259   7.180   4.803
13716TIP3    H241106   2.210   7.184   4.660
13717TIP3   OH241107   4.588   2.277   2.790
13717TIP3    H141108   4.501   2.302   2.758
13717TIP3    H241109   4.583   2.292   2.885
13718TIP3   OH241110   7.552   5.267   2.104
13718TIP3    H141111   7.583   5.332   2.166
13718TIP3    H241112   7.583   5.299   2.019
13719TIP3   OH241113   6.477   0.678   2.296
13719TIP3    H141114   6.390   0.698   2.333
13719TIP3    H241115   6.466   0.595   2.251
13720TIP3   OH241116   0.345   7.393   3.394
13720TIP3    H141117   0.408   7.443   3.342
13720TIP3    H241118   0.260   7.426   3.364
13721TIP3   OH241119   4.480   3.680   0.724
13721TIP3    H141120   4.491   3.606   0.782
13721TIP3    H241121   4.392   3.671   0.689
13722TIP3   OH241122   2.624   0.176   2.072
13722TIP3    H141123   2.678   0.200   1.997
13722TIP3    H241124   2.617   0.081   2.068
13723TIP3   OH241125   2.528   5.605   6.098
13723TIP3    H141126   2.507   5.659   6.174
13723TIP3    H241127   2.617   5.574   6.115
13724TIP3   OH241128   5.594   3.011   3.011
13724TIP3    H141129   5.504   3.039   3.030
13724TIP3    H241130   5.585   2.950   2.938
13725TIP3   OH241131   6.654   1.175   4.836
13725TIP3    H141132   6.655   1.264   4.799
13725TIP3    H241133   6.746   1.154   4.849
13726TIP3   OH241134   2.029   1.617   1.679
13726TIP3    H141135   1.978   1.666   1.744
13726TIP3    H241136   2.001   1.653   1.595
13727TIP3   OH241137   4.882   4.947   1.091
13727TIP3    H141138   4.801   4.989   1.119
13727TIP3    H241139   4.952   5.002   1.126
13728TIP3   OH241140   5.575   6.029   3.936
13728TIP3    H141141   5.625   6.067   3.864
13728TIP3    H241142   5.629   5.955   3.965
13729TIP3   OH241143   4.831   0.378   3.753
13729TIP3    H141144   4.808   0.289   3.778
13729TIP3    H241145   4.913   0.368   3.705
13730TIP3   OH241146   1.136   7.810   1.641
13730TIP3    H141147   1.094   7.886   1.600
13730TIP3    H241148   1.191   7.774   1.571
13731TIP3   OH241149   1.362   1.279   2.666
13731TIP3    H141150   1.450   1.308   2.644
13731TIP3    H241151   1.366   1.255   2.759
13732TIP3   OH241152   3.594   6.589   4.306
13732TIP3    H141153   3.540   6.515   4.279
13732TIP3    H241154   3.650   6.606   4.231
13733TIP3   OH241155   3.304   6.048   0.258
13733TIP3    H141156   3.232   6.003   0.300
13733TIP3    H241157   3.315   6.002   0.174
13734TIP3   OH241158   3.270   4.191   1.617
13734TIP3    H141159   3.223   4.173   1.698
13734TIP3    H241160   3.289   4.104   1.581
13735TIP3   OH241161   5.790   0.379   3.609
13735TIP3    H141162   5.800   0.360   3.515
13735TIP3    H241163   5.696   0.389   3.621
13736TIP3   OH241164   3.628   4.370   4.137
13736TIP3    H141165   3.643   4.394   4.045
13736TIP3    H241166   3.698   4.309   4.158
13737TIP3   OH241167   7.594   3.182   4.138
13737TIP3    H141168   7.572   3.095   4.103
13737TIP3    H241169   7.521   3.237   4.109
13738TIP3   OH241170   2.139   6.088   0.350
13738TIP3    H141171   2.138   6.162   0.289
13738TIP3    H241172   2.094   6.120   0.428
13739TIP3   OH241173   2.176   4.835   0.496
13739TIP3    H141174   2.191   4.821   0.589
13739TIP3    H241175   2.090   4.797   0.479
13740TIP3   OH241176   7.819   3.927   4.318
13740TIP3    H141177   7.855   3.842   4.341
13740TIP3    H241178   7.881   3.990   4.354
13741TIP3   OH241179   1.672   6.404   4.880
13741TIP3    H141180   1.668   6.389   4.785
13741TIP3    H241181   1.765   6.397   4.901
13742TIP3   OH241182   0.807   4.881   2.228
13742TIP3    H141183   0.797   4.787   2.218
13742TIP3    H241184   0.725   4.911   2.266
13743TIP3   OH241185   6.773   3.288   4.057
13743TIP3    H141186   6.757   3.214   3.999
13743TIP3    H241187   6.743   3.259   4.143
13744TIP3   OH241188   4.614   1.381   3.361
13744TIP3    H141189   4.522   1.353   3.365
13744TIP3    H241190   4.650   1.334   3.286
13745TIP3   OH241191   5.614   7.560   3.609
13745TIP3    H141192   5.625   7.547   3.515
13745TIP3    H241193   5.662   7.487   3.649
13746TIP3   OH241194   3.053   3.427   1.539
13746TIP3    H141195   3.122   3.377   1.496
13746TIP3    H241196   3.044   3.387   1.625
13747TIP3   OH241197   7.563   2.684   0.650
13747TIP3    H141198   7.474   2.691   0.684
13747TIP3    H241199   7.619   2.689   0.728
13748TIP3   OH241200   7.075   6.702   0.495
13748TIP3    H141201   7.069   6.642   0.568
13748TIP3    H241202   6.993   6.690   0.447
13749TIP3   OH241203   6.536   2.673   1.196
13749TIP3    H141204   6.623   2.644   1.168
13749TIP3    H241205   6.549   2.703   1.286
13750TIP3   OH241206   5.942   1.635   6.043
13750TIP3    H141207   5.879   1.686   6.094
13750TIP3    H241208   5.960   1.689   5.966
13751TIP3   OH241209   1.050   6.826   0.517
13751TIP3    H141210   1.093   6.849   0.600
13751TIP3    H241211   1.111   6.766   0.475
13752TIP3   OH241212   7.933   4.750   0.689
13752TIP3    H141213   7.945   4.842   0.710
13752TIP3    H241214   8.019   4.710   0.707
13753TIP3   OH241215   5.268   2.261   0.194
13753TIP3    H141216   5.329   2.189   0.208
13753TIP3    H241217   5.184   2.229   0.227
13754TIP3   OH241218   6.823   5.127   1.476
13754TIP3    H141219   6.835   5.047   1.424
13754TIP3    H241220   6.772   5.098   1.552
13755TIP3   OH241221   1.681   2.390   1.275
13755TIP3    H141222   1.661   2.364   1.185
13755TIP3    H241223   1.742   2.323   1.306
13756TIP3   OH241224   3.301   1.449   6.164
13756TIP3    H141225   3.383   1.493   6.143
13756TIP3    H241226   3.256   1.509   6.224
13757TIP3   OH241227   1.455   1.964   5.493
13757TIP3    H141228   1.418   2.006   5.415
13757TIP3    H241229   1.538   1.928   5.463
13758TIP3   OH241230   3.860   2.742   2.343
13758TIP3    H141231   3.780   2.691   2.352
13758TIP3    H241232   3.836   2.819   2.292
13759TIP3   OH241233   5.559   3.502   4.573
13759TIP3    H141234   5.542   3.572   4.509
13759TIP3    H241235   5.485   3.442   4.563
13760TIP3   OH241236   2.845   6.504   1.339
13760TIP3    H141237   2.936   6.480   1.323
13760TIP3    H241238   2.803   6.499   1.253
13761TIP3   OH241239   0.161   4.676   4.204
13761TIP3    H141240   0.208   4.639   4.129
13761TIP3    H241241   0.072   4.642   4.195
13762TIP3   OH241242   3.225   6.508   3.366
13762TIP3    H141243   3.276   6.588   3.378
13762TIP3    H241244   3.260   6.448   3.432
13763TIP3   OH241245   1.411   2.321   1.117
13763TIP3    H141246   1.492   2.330   1.067
13763TIP3    H241247   1.366   2.404   1.107
13764TIP3   OH241248   3.761   4.083   1.004
13764TIP3    H141249   3.683   4.068   1.058
13764TIP3    H241250   3.727   4.093   0.916
13765TIP3   OH241251   1.509   6.755   0.462
13765TIP3    H141252   1.449   6.767   0.389
13765TIP3    H241253   1.473   6.683   0.513
13766TIP3   OH241254   1.078   4.658   3.243
13766TIP3    H141255   1.036   4.578   3.274
13766TIP3    H241256   1.009   4.725   3.248
13767TIP3   OH241257   1.205   0.867   6.359
13767TIP3    H141258   1.151   0.945   6.373
13767TIP3    H241259   1.285   0.885   6.409
13768TIP3   OH241260   7.224   1.542   5.691
13768TIP3    H141261   7.298   1.564   5.634
13768TIP3    H241262   7.147   1.553   5.636
13769TIP3   OH241263   1.689   3.264   5.270
13769TIP3    H141264   1.682   3.253   5.365
13769TIP3    H241265   1.778   3.298   5.257
13770TIP3   OH241266   6.334   4.906   4.201
13770TIP3    H141267   6.377   4.926   4.283
13770TIP3    H241268   6.375   4.964   4.137
13771TIP3   OH241269   5.609   1.110   3.121
13771TIP3    H141270   5.576   1.198   3.141
13771TIP3    H241271   5.664   1.088   3.196
13772TIP3   OH241272   5.284   5.107   6.002
13772TIP3    H141273   5.246   5.192   5.980
13772TIP3    H241274   5.377   5.125   6.018
13773TIP3   OH241275   7.202   3.907   5.580
13773TIP3    H141276   7.261   3.845   5.538
13773TIP3    H241277   7.116   3.890   5.541
13774TIP3   OH241278   4.713   5.803   6.527
13774TIP3    H141279   4.763   5.766   6.600
13774TIP3    H241280   4.725   5.741   6.456
13775TIP3   OH241281   7.699   5.298   0.822
13775TIP3    H141282   7.723   5.205   0.815
13775TIP3    H241283   7.649   5.304   0.903
13776TIP3   OH241284   1.069   6.883   5.743
13776TIP3    H141285   1.026   6.933   5.674
13776TIP3    H241286   1.010   6.892   5.819
13777TIP3   OH241287   4.092   1.457   5.623
13777TIP3    H141288   4.017   1.496   5.577
13777TIP3    H241289   4.147   1.532   5.647
13778TIP3   OH241290   4.341   2.155   4.072
13778TIP3    H141291   4.433   2.151   4.100
13778TIP3    H241292   4.324   2.249   4.063
13779TIP3   OH241293   3.867   0.688   4.789
13779TIP3    H141294   3.959   0.704   4.810
13779TIP3    H241295   3.828   0.658   4.871
13780TIP3   OH241296   1.071   2.262   3.079
13780TIP3    H141297   1.086   2.351   3.047
13780TIP3    H241298   1.013   2.223   3.015
13781TIP3   OH241299   1.033   6.056   6.535
13781TIP3    H141300   1.063   5.969   6.563
13781TIP3    H241301   0.983   6.090   6.609
13782TIP3   OH241302   2.075   4.193   3.519
13782TIP3    H141303   2.142   4.126   3.509
13782TIP3    H241304   2.123   4.276   3.513
13783TIP3   OH241305   3.020   0.134   6.247
13783TIP3    H141306   3.063   0.115   6.330
13783TIP3    H241307   2.935   0.090   6.254
13784TIP3   OH241308   1.655   2.875   2.487
13784TIP3    H141309   1.662   2.879   2.582
13784TIP3    H241310   1.574   2.921   2.466
13785TIP3   OH241311   3.134   3.373   5.442
13785TIP3    H141312   3.041   3.393   5.455
13785TIP3    H241313   3.169   3.452   5.400
13786TIP3   OH241314   3.188   2.990   1.216
13786TIP3    H141315   3.134   3.006   1.139
13786TIP3    H241316   3.128   3.001   1.290
13787TIP3   OH241317   3.419   2.542   1.445
13787TIP3    H141318   3.506   2.565   1.477
13787TIP3    H241319   3.415   2.582   1.358
13788TIP3   OH241320   5.456   6.070   2.744
13788TIP3    H141321   5.431   6.133   2.676
13788TIP3    H241322   5.446   5.984   2.703
13789TIP3   OH241323   4.164   3.146   6.484
13789TIP3    H141324   4.160   3.232   6.527
13789TIP3    H241325   4.191   3.166   6.395
13790TIP3   OH241326   0.280   6.771   0.480
13790TIP3    H141327   0.266   6.771   0.386
13790TIP3    H241328   0.300   6.862   0.501
13791TIP3   OH241329   2.960   4.922   5.088
13791TIP3    H141330   2.978   4.886   5.001
13791TIP3    H241331   2.866   4.940   5.088
13792TIP3   OH241332   0.424   2.873   1.809
13792TIP3    H141333   0.511   2.911   1.798
13792TIP3    H241334   0.433   2.783   1.779
13793TIP3   OH241335   0.494   1.749   3.687
13793TIP3    H141336   0.472   1.827   3.636
13793TIP3    H241337   0.533   1.783   3.768
13794TIP3   OH241338   2.560   6.020   4.669
13794TIP3    H141339   2.524   6.105   4.693
13794TIP3    H241340   2.532   5.961   4.738
13795TIP3   OH241341   5.494   0.655   3.095
13795TIP3    H141342   5.464   0.666   3.005
13795TIP3    H241343   5.560   0.585   3.090
13796TIP3   OH241344   5.390   5.529   4.745
13796TIP3    H141345   5.475   5.516   4.702
13796TIP3    H241346   5.391   5.621   4.772
13797TIP3   OH241347   5.908   7.056   2.595
13797TIP3    H141348   5.824   7.101   2.601
13797TIP3    H241349   5.919   7.038   2.502
13798TIP3   OH241350   1.767   6.565   2.791
13798TIP3    H141351   1.802   6.511   2.862
13798TIP3    H241352   1.782   6.655   2.819
13799TIP3   OH241353   8.024   7.116   1.615
13799TIP3    H141354   8.039   7.062   1.537
13799TIP3    H241355   8.109   7.119   1.659
13800TIP3   OH241356   6.083   4.300   4.306
13800TIP3    H141357   6.156   4.350   4.342
13800TIP3    H241358   6.063   4.235   4.374
13801TIP3   OH241359   6.095   6.601   5.746
13801TIP3    H141360   6.079   6.539   5.816
13801TIP3    H241361   6.026   6.584   5.682
13802TIP3   OH241362   7.372   2.115   1.921
13802TIP3    H141363   7.383   2.024   1.949
13802TIP3    H241364   7.375   2.165   2.003
13803TIP3   OH241365   4.420   4.865   4.585
13803TIP3    H141366   4.382   4.946   4.551
13803TIP3    H241367   4.437   4.883   4.678
13804TIP3   OH241368   1.622   0.144   6.286
13804TIP3    H141369   1.632   0.050   6.302
13804TIP3    H241370   1.528   0.160   6.289
13805TIP3   OH241371   8.039   6.494   0.035
13805TIP3    H141372   8.018   6.416  -0.017
13805TIP3    H241373   7.955   6.536   0.051
13806TIP3   OH241374   7.545   5.585   2.398
13806TIP3    H141375   7.605   5.542   2.459
13806TIP3    H241376   7.462   5.538   2.409
13807TIP3   OH241377   7.648   2.545   4.540
13807TIP3    H141378   7.722   2.529   4.481
13807TIP3    H241379   7.657   2.637   4.565
13808TIP3   OH241380   7.797   0.852   5.554
13808TIP3    H141381   7.834   0.765   5.567
13808TIP3    H241382   7.873   0.909   5.543
13809TIP3   OH241383   3.619   4.097   1.536
13809TIP3    H141384   3.710   4.101   1.504
13809TIP3    H241385   3.579   4.028   1.485
13810TIP3   OH241386   0.037   5.675   6.326
13810TIP3    H141387   0.131   5.693   6.321
13810TIP3    H241388  -0.002   5.731   6.259
13811TIP3   OH241389   1.173   5.450   6.397
13811TIP3    H141390   1.258   5.412   6.420
13811TIP3    H241391   1.137   5.478   6.481
13812TIP3   OH241392   0.232   0.057   0.620
13812TIP3    H141393   0.218   0.140   0.666
13812TIP3    H241394   0.233   0.082   0.527
13813TIP3   OH241395   2.088   5.747   6.565
13813TIP3    H141396   2.109   5.725   6.474
13813TIP3    H241397   2.099   5.842   6.570
13814TIP3   OH241398   2.545   5.520   0.148
13814TIP3    H141399   2.502   5.571   0.080
13814TIP3    H241400   2.514   5.559   0.230
13815TIP3   OH241401   3.777   3.362   1.824
13815TIP3    H141402   3.868   3.346   1.796
13815TIP3    H241403   3.785   3.395   1.913
13816TIP3   OH241404   4.808   4.151   3.157
13816TIP3    H141405   4.882   4.173   3.214
13816TIP3    H241406   4.846   4.148   3.069
13817TIP3   OH241407   3.363   1.725   3.274
13817TIP3    H141408   3.439   1.667   3.269
13817TIP3    H241409   3.341   1.729   3.367
13818TIP3   OH241410   8.079   5.014   6.138
13818TIP3    H141411   8.029   5.072   6.196
13818TIP3    H241412   8.170   5.029   6.162
13819TIP3   OH241413   3.339   6.554   2.403
13819TIP3    H141414   3.314   6.468   2.371
13819TIP3    H241415   3.414   6.579   2.349
13820TIP3   OH241416   7.509   5.419   5.730
13820TIP3    H141417   7.470   5.410   5.643
13820TIP3    H241418   7.574   5.349   5.734
13821TIP3   OH241419   3.910   2.671   4.328
13821TIP3    H141420   3.974   2.656   4.397
13821TIP3    H241421   3.959   2.661   4.246
13822TIP3   OH241422   4.307   1.598   0.809
13822TIP3    H141423   4.371   1.669   0.809
13822TIP3    H241424   4.357   1.520   0.788
13823TIP3   OH241425   7.155   5.097   1.089
13823TIP3    H141426   7.163   5.056   1.003
13823TIP3    H241427   7.210   5.043   1.146
13824TIP3   OH241428   2.246   6.950   1.642
13824TIP3    H141429   2.334   6.961   1.680
13824TIP3    H241430   2.188   6.991   1.705
13825TIP3   OH241431   7.262   7.186   4.707
13825TIP3    H141432   7.174   7.167   4.740
13825TIP3    H241433   7.248   7.211   4.616
13826TIP3   OH241434   3.516   4.546   2.764
13826TIP3    H141435   3.433   4.498   2.758
13826TIP3    H241436   3.580   4.481   2.791
13827TIP3   OH241437   0.657   0.193   0.509
13827TIP3    H141438   0.682   0.110   0.550
13827TIP3    H241439   0.730   0.215   0.452
13828TIP3   OH241440   1.241   1.189   5.567
13828TIP3    H141441   1.265   1.275   5.534
13828TIP3    H241442   1.147   1.195   5.583
13829TIP3   OH241443   1.352   0.568   2.975
13829TIP3    H141444   1.330   0.608   3.059
13829TIP3    H241445   1.404   0.634   2.929
13830TIP3   OH241446   4.853   1.282   4.837
13830TIP3    H141447   4.901   1.359   4.808
13830TIP3    H241448   4.901   1.250   4.913
13831TIP3   OH241449   3.684   7.027   0.009
13831TIP3    H141450   3.589   7.017  -0.001
13831TIP3    H241451   3.705   6.980   0.090
13832TIP3   OH241452   1.554   6.161   4.703
13832TIP3    H141453   1.646   6.136   4.707
13832TIP3    H241454   1.515   6.121   4.781
13833TIP3   OH241455   0.222   6.195   4.161
13833TIP3    H141456   0.217   6.152   4.076
13833TIP3    H241457   0.237   6.124   4.224
13834TIP3   OH241458   5.024   2.850   2.113
13834TIP3    H141459   5.027   2.945   2.119
13834TIP3    H241460   5.043   2.820   2.202
13835TIP3   OH241461   4.958   1.810   4.888
13835TIP3    H141462   5.022   1.854   4.944
13835TIP3    H241463   4.931   1.733   4.938
13836TIP3   OH241464   5.015   4.419   3.227
13836TIP3    H141465   5.010   4.497   3.172
13836TIP3    H241466   5.081   4.363   3.185
13837TIP3   OH241467   2.230   5.626   4.159
13837TIP3    H141468   2.216   5.698   4.098
13837TIP3    H241469   2.148   5.620   4.209
13838TIP3   OH241470   3.191   7.508   4.639
13838TIP3    H141471   3.118   7.451   4.614
13838TIP3    H241472   3.269   7.458   4.616
13839TIP3   OH241473   6.148   5.442   2.203
13839TIP3    H141474   6.095   5.487   2.268
13839TIP3    H241475   6.237   5.471   2.219
13840TIP3   OH241476   7.066   2.185   3.576
13840TIP3    H141477   7.073   2.164   3.669
13840TIP3    H241478   7.109   2.111   3.532
13841TIP3   OH241479   8.057   2.497   0.569
13841TIP3    H141480   8.150   2.474   0.570
13841TIP3    H241481   8.052   2.576   0.514
13842TIP3   OH241482   4.210   3.280   3.405
13842TIP3    H141483   4.157   3.247   3.333
13842TIP3    H241484   4.210   3.375   3.393
13843TIP3   OH241485   4.247   0.864   6.162
13843TIP3    H141486   4.281   0.776   6.178
13843TIP3    H241487   4.322   0.914   6.129
13844TIP3   OH241488   7.747   5.986   2.538
13844TIP3    H141489   7.798   5.949   2.611
13844TIP3    H241490   7.762   6.081   2.545
13845TIP3   OH241491   1.733   3.954   2.883
13845TIP3    H141492   1.683   4.011   2.826
13845TIP3    H241493   1.813   4.003   2.903
13846TIP3   OH241494   2.801   0.395   1.755
13846TIP3    H141495   2.849   0.313   1.764
13846TIP3    H241496   2.785   0.424   1.845
13847TIP3   OH241497   3.907   1.491   1.663
13847TIP3    H141498   3.966   1.418   1.681
13847TIP3    H241499   3.856   1.463   1.587
13848TIP3   OH241500   1.191   6.900   4.829
13848TIP3    H141501   1.114   6.847   4.809
13848TIP3    H241502   1.157   6.988   4.845
13849TIP3   OH241503   7.867   6.964   5.710
13849TIP3    H141504   7.780   6.929   5.691
13849TIP3    H241505   7.863   6.988   5.803
13850TIP3   OH241506   4.698   0.864   3.836
13850TIP3    H141507   4.738   0.782   3.863
13850TIP3    H241508   4.666   0.847   3.747
13851TIP3   OH241509   1.417   1.016   6.735
13851TIP3    H141510   1.344   0.975   6.781
13851TIP3    H241511   1.495   0.980   6.778
13852TIP3   OH241512   1.042   2.524   4.617
13852TIP3    H141513   1.068   2.609   4.580
13852TIP3    H241514   0.968   2.546   4.674
13853TIP3   OH241515   0.964   4.870   3.749
13853TIP3    H141516   0.869   4.877   3.749
13853TIP3    H241517   0.988   4.867   3.842
13854TIP3   OH241518   4.665   4.747   1.934
13854TIP3    H141519   4.576   4.722   1.960
13854TIP3    H241520   4.671   4.840   1.957
13855TIP3   OH241521   3.232   7.675   1.560
13855TIP3    H141522   3.174   7.749   1.575
13855TIP3    H241523   3.317   7.705   1.591
13856TIP3   OH241524   2.636   2.500   4.820
13856TIP3    H141525   2.720   2.473   4.781
13856TIP3    H241526   2.623   2.590   4.788
13857TIP3   OH241527   2.404   6.599   0.930
13857TIP3    H141528   2.369   6.662   0.993
13857TIP3    H241529   2.344   6.524   0.936
13858TIP3   OH241530   8.132   3.393   1.391
13858TIP3    H141531   8.044   3.419   1.362
13858TIP3    H241532   8.119   3.307   1.432
13859TIP3   OH241533   6.861   3.387   4.695
13859TIP3    H141534   6.911   3.428   4.766
13859TIP3    H241535   6.780   3.438   4.690
13860TIP3   OH241536   4.095   5.525   6.219
13860TIP3    H141537   4.082   5.602   6.164
13860TIP3    H241538   4.184   5.536   6.253
13861TIP3   OH241539   0.366   1.156   0.867
13861TIP3    H141540   0.300   1.114   0.812
13861TIP3    H241541   0.326   1.161   0.954
13862TIP3   OH241542   0.620   5.154   5.417
13862TIP3    H141543   0.636   5.116   5.503
13862TIP3    H241544   0.528   5.135   5.399
13863TIP3   OH241545   4.766   1.508   2.517
13863TIP3    H141546   4.720   1.592   2.504
13863TIP3    H241547   4.718   1.466   2.588
13864TIP3   OH241548   6.878   5.359   2.114
13864TIP3    H141549   6.847   5.358   2.205
13864TIP3    H241550   6.837   5.437   2.077
13865TIP3   OH241551   3.849   5.804   5.835
13865TIP3    H141552   3.762   5.835   5.860
13865TIP3    H241553   3.907   5.875   5.860
13866TIP3   OH241554   3.844   6.051   2.967
13866TIP3    H141555   3.910   6.055   2.897
13866TIP3    H241556   3.840   6.141   3.000
13867TIP3   OH241557   2.841   2.839   3.725
13867TIP3    H141558   2.843   2.830   3.820
13867TIP3    H241559   2.903   2.772   3.693
13868TIP3   OH241560   3.067   0.592   0.432
13868TIP3    H141561   3.044   0.682   0.457
13868TIP3    H241562   3.156   0.599   0.399
13869TIP3   OH241563   6.413   1.912   3.638
13869TIP3    H141564   6.475   1.850   3.676
13869TIP3    H241565   6.328   1.883   3.672
13870TIP3   OH241566   5.101   2.053   4.409
13870TIP3    H141567   5.059   2.134   4.437
13870TIP3    H241568   5.114   2.063   4.315
13871TIP3   OH241569   3.737   2.268   3.541
13871TIP3    H141570   3.655   2.256   3.493
13871TIP3    H241571   3.709   2.281   3.632
13872TIP3   OH241572   0.773   3.756   0.346
13872TIP3    H141573   0.807   3.713   0.268
13872TIP3    H241574   0.693   3.708   0.367
13873TIP3   OH241575   3.109   5.099   2.672
13873TIP3    H141576   3.079   5.139   2.590
13873TIP3    H241577   3.038   5.118   2.734
13874TIP3   OH241578   4.033   4.411   2.091
13874TIP3    H141579   4.078   4.363   2.022
13874TIP3    H241580   3.941   4.405   2.068
13875TIP3   OH241581   6.528   1.057   3.192
13875TIP3    H141582   6.527   1.033   3.285
13875TIP3    H241583   6.504   1.150   3.192
13876TIP3   OH241584   5.213   3.697   3.433
13876TIP3    H141585   5.172   3.612   3.443
13876TIP3    H241586   5.174   3.751   3.501
13877TIP3   OH241587   6.216   0.935   2.479
13877TIP3    H141588   6.215   0.981   2.395
13877TIP3    H241589   6.182   0.998   2.542
13878TIP3   OH241590   2.517   3.810   0.867
13878TIP3    H141591   2.477   3.788   0.951
13878TIP3    H241592   2.607   3.836   0.889
13879TIP3   OH241593   8.076   6.928   0.840
13879TIP3    H141594   8.096   6.877   0.918
13879TIP3    H241595   8.034   6.866   0.781
13880TIP3   OH241596   3.195   0.974   0.793
13880TIP3    H141597   3.240   1.052   0.763
13880TIP3    H241598   3.181   0.922   0.714
13881TIP3   OH241599   6.530   3.422   4.034
13881TIP3    H141600   6.546   3.511   4.067
13881TIP3    H241601   6.617   3.384   4.024
13882TIP3   OH241602   6.895   4.378   4.632
13882TIP3    H141603   6.953   4.435   4.683
13882TIP3    H241604   6.876   4.429   4.553
13883TIP3   OH241605   6.936   2.294   4.265
13883TIP3    H141606   6.928   2.212   4.314
13883TIP3    H241607   6.875   2.354   4.309
13884TIP3   OH241608   8.102   1.633   1.169
13884TIP3    H141609   8.172   1.580   1.131
13884TIP3    H241610   8.023   1.579   1.161
13885TIP3   OH241611   7.915   4.147   4.731
13885TIP3    H141612   7.918   4.098   4.649
13885TIP3    H241613   7.999   4.130   4.773
13886TIP3   OH241614   1.797   1.160   1.778
13886TIP3    H141615   1.769   1.205   1.698
13886TIP3    H241616   1.791   1.067   1.756
13887TIP3   OH241617   0.660   1.969   0.705
13887TIP3    H141618   0.582   1.999   0.753
13887TIP3    H241619   0.682   2.042   0.647
13888TIP3   OH241620   1.740   3.707   1.226
13888TIP3    H141621   1.817   3.763   1.214
13888TIP3    H241622   1.772   3.618   1.212
13889TIP3   OH241623   5.495   1.014   2.246
13889TIP3    H141624   5.578   0.979   2.277
13889TIP3    H241625   5.438   0.938   2.239
13890TIP3   OH241626   5.723   3.706   3.783
13890TIP3    H141627   5.788   3.771   3.756
13890TIP3    H241628   5.714   3.648   3.707
13891TIP3   OH241629   0.374   6.663   6.043
13891TIP3    H141630   0.466   6.666   6.067
13891TIP3    H241631   0.362   6.577   6.002
13892TIP3   OH241632   0.665   2.435   6.799
13892TIP3    H141633   0.756   2.461   6.789
13892TIP3    H241634   0.619   2.516   6.822
13893TIP3   OH241635   5.527   5.944   3.568
13893TIP3    H141636   5.462   5.991   3.516
13893TIP3    H241637   5.526   5.855   3.533
13894TIP3   OH241638   0.455   1.952   3.490
13894TIP3    H141639   0.503   1.992   3.417
13894TIP3    H241640   0.385   1.902   3.448
13895TIP3   OH241641   1.339   4.287   6.608
13895TIP3    H141642   1.390   4.225   6.660
13895TIP3    H241643   1.394   4.307   6.532
13896TIP3   OH241644   3.848   6.309   0.936
13896TIP3    H141645   3.893   6.381   0.892
13896TIP3    H241646   3.758   6.314   0.905
13897TIP3   OH241647   7.220   6.838   1.280
13897TIP3    H141648   7.178   6.831   1.194
13897TIP3    H241649   7.152   6.878   1.336
13898TIP3   OH241650   2.235   0.815   2.297
13898TIP3    H141651   2.228   0.881   2.366
13898TIP3    H241652   2.145   0.782   2.287
13899TIP3   OH241653   6.934   7.405   2.639
13899TIP3    H141654   6.980   7.321   2.651
13899TIP3    H241655   6.954   7.455   2.718
13900TIP3   OH241656   5.330   7.288   5.962
13900TIP3    H141657   5.386   7.256   5.892
13900TIP3    H241658   5.332   7.219   6.028
13901TIP3   OH241659   3.299   0.048   4.061
13901TIP3    H141660   3.247  -0.023   4.098
13901TIP3    H241661   3.390   0.019   4.072
13902TIP3   OH241662   1.382   6.721   2.993
13902TIP3    H141663   1.453   6.782   2.973
13902TIP3    H241664   1.368   6.673   2.911
13903TIP3   OH241665   3.912   3.085   3.881
13903TIP3    H141666   3.844   3.152   3.883
13903TIP3    H241667   3.989   3.127   3.918
13904TIP3   OH241668   5.409   2.286   4.724
13904TIP3    H141669   5.431   2.195   4.705
13904TIP3    H241670   5.325   2.281   4.771
13905TIP3   OH241671   1.635   5.282   0.449
13905TIP3    H141672   1.696   5.352   0.474
13905TIP3    H241673   1.659   5.261   0.358
13906TIP3   OH241674   0.954   0.396   1.332
13906TIP3    H141675   0.939   0.396   1.237
13906TIP3    H241676   0.977   0.486   1.353
13907TIP3   OH241677   5.294   4.923   0.446
13907TIP3    H141678   5.303   4.876   0.528
13907TIP3    H241679   5.240   5.000   0.468
13908TIP3   OH241680   5.735   4.152   5.317
13908TIP3    H141681   5.820   4.130   5.281
13908TIP3    H241682   5.747   4.147   5.412
13909TIP3   OH241683   5.974   5.824   3.400
13909TIP3    H141684   5.903   5.872   3.358
13909TIP3    H241685   5.941   5.734   3.407
13910TIP3   OH241686   7.286   4.298   3.141
13910TIP3    H141687   7.218   4.283   3.207
13910TIP3    H241688   7.364   4.257   3.178
13911TIP3   OH241689   2.087   4.254   5.326
13911TIP3    H141690   2.073   4.347   5.308
13911TIP3    H241691   2.118   4.252   5.417
13912TIP3   OH241692   2.644   6.851   2.500
13912TIP3    H141693   2.695   6.816   2.427
13912TIP3    H241694   2.632   6.944   2.477
13913TIP3   OH241695   0.579   3.783   1.912
13913TIP3    H141696   0.670   3.811   1.903
13913TIP3    H241697   0.546   3.777   1.823
13914TIP3   OH241698   4.550   4.125   1.950
13914TIP3    H141699   4.516   4.088   2.032
13914TIP3    H241700   4.537   4.056   1.885
13915TIP3   OH241701   2.571   5.756   1.867
13915TIP3    H141702   2.510   5.830   1.867
13915TIP3    H241703   2.530   5.692   1.925
13916TIP3   OH241704   1.649   5.891   1.516
13916TIP3    H141705   1.680   5.938   1.594
13916TIP3    H241706   1.656   5.955   1.445
13917TIP3   OH241707   7.647   0.217   6.241
13917TIP3    H141708   7.600   0.232   6.158
13917TIP3    H241709   7.736   0.194   6.214
13918TIP3   OH241710   2.750   3.988   1.809
13918TIP3    H141711   2.807   3.968   1.735
13918TIP3    H241712   2.723   4.079   1.794
13919TIP3   OH241713   2.738   1.376   4.119
13919TIP3    H141714   2.735   1.318   4.195
13919TIP3    H241715   2.827   1.367   4.085
13920TIP3   OH241716   0.366   4.418   1.063
13920TIP3    H141717   0.425   4.437   0.990
13920TIP3    H241718   0.369   4.496   1.117
13921TIP3   OH241719   7.613   4.591   1.043
13921TIP3    H141720   7.687   4.531   1.034
13921TIP3    H241721   7.578   4.572   1.131
13922TIP3   OH241722   1.014   4.904   3.047
13922TIP3    H141723   1.098   4.872   3.080
13922TIP3    H241724   0.951   4.881   3.114
13923TIP3   OH241725   0.078   7.554   3.440
13923TIP3    H141726   0.077   7.625   3.504
13923TIP3    H241727   0.015   7.490   3.475
13924TIP3   OH241728   3.173   2.764   2.279
13924TIP3    H141729   3.188   2.719   2.196
13924TIP3    H241730   3.110   2.708   2.325
13925TIP3   OH241731   7.291   0.919   2.558
13925TIP3    H141732   7.295   0.830   2.595
13925TIP3    H241733   7.199   0.931   2.537
13926TIP3   OH241734   3.600   3.249   1.416
13926TIP3    H141735   3.694   3.264   1.430
13926TIP3    H241736   3.594   3.223   1.324
13927TIP3   OH241737   1.528   5.748   5.271
13927TIP3    H141738   1.482   5.665   5.281
13927TIP3    H241739   1.532   5.784   5.360
13928TIP3   OH241740   6.702   6.651   5.075
13928TIP3    H141741   6.716   6.576   5.016
13928TIP3    H241742   6.656   6.614   5.150
13929TIP3   OH241743   8.057   1.341   1.197
13929TIP3    H141744   8.008   1.295   1.266
13929TIP3    H241745   8.022   1.305   1.115
13930TIP3   OH241746   7.455   6.160   1.918
13930TIP3    H141747   7.519   6.232   1.923
13930TIP3    H241748   7.450   6.127   2.008
13931TIP3   OH241749   0.976   5.285   3.444
13931TIP3    H141750   0.930   5.321   3.520
13931TIP3    H241751   1.041   5.352   3.422
13932TIP3   OH241752   2.018   3.225   5.919
13932TIP3    H141753   2.036   3.223   5.825
13932TIP3    H241754   2.015   3.133   5.944
13933TIP3   OH241755   4.785   7.674   6.627
13933TIP3    H141756   4.706   7.695   6.577
13933TIP3    H241757   4.776   7.725   6.707
13934TIP3   OH241758   5.329   0.527   3.264
13934TIP3    H141759   5.397   0.571   3.213
13934TIP3    H241760   5.295   0.596   3.322
13935TIP3   OH241761   1.496   3.018   2.240
13935TIP3    H141762   1.446   2.975   2.171
13935TIP3    H241763   1.567   3.062   2.194
13936TIP3   OH241764   2.777   6.908   1.878
13936TIP3    H141765   2.770   6.990   1.928
13936TIP3    H241766   2.822   6.848   1.938
13937TIP3   OH241767   7.046   7.747   5.966
13937TIP3    H141768   7.059   7.838   5.940
13937TIP3    H241769   7.123   7.701   5.933
13938TIP3   OH241770   4.838   6.713   3.412
13938TIP3    H141771   4.896   6.711   3.487
13938TIP3    H241772   4.881   6.657   3.347
13939TIP3   OH241773   3.208   0.471   4.730
13939TIP3    H141774   3.266   0.531   4.684
13939TIP3    H241775   3.141   0.448   4.665
13940TIP3   OH241776   7.141   1.226   4.816
13940TIP3    H141777   7.121   1.320   4.809
13940TIP3    H241778   7.196   1.219   4.894
13941TIP3   OH241779   2.949   0.710   2.012
13941TIP3    H141780   2.888   0.780   2.037
13941TIP3    H241781   2.895   0.631   2.010
13942TIP3   OH241782   6.281   0.601   3.605
13942TIP3    H141783   6.265   0.577   3.696
13942TIP3    H241784   6.374   0.619   3.601
13943TIP3   OH241785   3.863   6.966   0.651
13943TIP3    H141786   3.922   6.897   0.623
13943TIP3    H241787   3.883   7.040   0.594
13944TIP3   OH241788   2.980   5.978   5.389
13944TIP3    H141789   3.005   6.068   5.365
13944TIP3    H241790   2.886   5.974   5.370
13945TIP3   OH241791   1.605   4.248   3.379
13945TIP3    H141792   1.642   4.318   3.325
13945TIP3    H241793   1.671   4.179   3.378
13946TIP3   OH241794   7.961   3.199   6.455
13946TIP3    H141795   8.047   3.229   6.424
13946TIP3    H241796   7.949   3.246   6.538
13947TIP3   OH241797   6.255   1.737   1.292
13947TIP3    H141798   6.217   1.693   1.368
13947TIP3    H241799   6.330   1.683   1.267
13948TIP3   OH241800   2.795   4.405   3.365
13948TIP3    H141801   2.879   4.390   3.408
13948TIP3    H241802   2.730   4.396   3.434
13949TIP3   OH241803   2.015   0.457   3.414
13949TIP3    H141804   2.064   0.462   3.332
13949TIP3    H241805   1.997   0.549   3.437
13950TIP3   OH241806   5.134   3.461   1.537
13950TIP3    H141807   5.175   3.383   1.499
13950TIP3    H241808   5.057   3.428   1.584
13951TIP3   OH241809   5.733   2.053   4.888
13951TIP3    H141810   5.768   1.965   4.873
13951TIP3    H241811   5.795   2.094   4.948
13952TIP3   OH241812   8.022   4.572   5.497
13952TIP3    H141813   7.997   4.604   5.583
13952TIP3    H241814   7.951   4.600   5.439
13953TIP3   OH241815   0.480   6.766   4.123
13953TIP3    H141816   0.532   6.686   4.133
13953TIP3    H241817   0.441   6.779   4.210
13954TIP3   OH241818   6.230   6.389   5.923
13954TIP3    H141819   6.203   6.340   6.001
13954TIP3    H241820   6.290   6.455   5.956
13955TIP3   OH241821   4.589   3.993   6.381
13955TIP3    H141822   4.682   3.996   6.406
13955TIP3    H241823   4.583   4.050   6.305
13956TIP3   OH241824   5.439   2.419   2.313
13956TIP3    H141825   5.469   2.463   2.234
13956TIP3    H241826   5.461   2.327   2.300
13957TIP3   OH241827   6.327   0.438   1.934
13957TIP3    H141828   6.396   0.482   1.983
13957TIP3    H241829   6.367   0.356   1.905
13958TIP3   OH241830   8.082   2.674   2.506
13958TIP3    H141831   8.098   2.651   2.414
13958TIP3    H241832   8.167   2.706   2.537
13959TIP3   OH241833   3.050   1.577   0.723
13959TIP3    H141834   3.132   1.620   0.696
13959TIP3    H241835   3.056   1.489   0.686
13960TIP3   OH241836   1.667   2.252   1.017
13960TIP3    H141837   1.701   2.183   1.075
13960TIP3    H241838   1.584   2.216   0.985
13961TIP3   OH241839   7.245   0.202   1.584
13961TIP3    H141840   7.155   0.233   1.577
13961TIP3    H241841   7.263   0.161   1.500
13962TIP3   OH241842   0.614   3.285   6.481
13962TIP3    H141843   0.538   3.229   6.463
13962TIP3    H241844   0.640   3.318   6.395
13963TIP3   OH241845   3.761   3.928   4.154
13963TIP3    H141846   3.692   3.967   4.099
13963TIP3    H241847   3.831   3.908   4.092
13964TIP3   OH241848   1.159   0.531   4.174
13964TIP3    H141849   1.141   0.469   4.245
13964TIP3    H241850   1.224   0.591   4.211
13965TIP3   OH241851   2.080   4.651   2.630
13965TIP3    H141852   2.160   4.645   2.683
13965TIP3    H241853   2.078   4.741   2.599
13966TIP3   OH241854   6.420   3.173   4.147
13966TIP3    H141855   6.454   3.263   4.139
13966TIP3    H241856   6.325   3.183   4.140
13967TIP3   OH241857   4.459   0.208   3.468
13967TIP3    H141858   4.480   0.180   3.379
13967TIP3    H241859   4.408   0.136   3.504
13968TIP3   OH241860   7.144   2.647   6.394
13968TIP3    H141861   7.218   2.643   6.333
13968TIP3    H241862   7.070   2.676   6.340
13969TIP3   OH241863   4.914   0.378   0.780
13969TIP3    H141864   4.854   0.318   0.824
13969TIP3    H241865   4.879   0.465   0.797
13970TIP3   OH241866   1.976   1.389   6.659
13970TIP3    H141867   2.052   1.369   6.603
13970TIP3    H241868   1.908   1.328   6.629
13971TIP3   OH241869   6.475   1.900   0.969
13971TIP3    H141870   6.520   1.970   0.922
13971TIP3    H241871   6.516   1.900   1.056
13972TIP3   OH241872   7.167   6.713   3.009
13972TIP3    H141873   7.143   6.688   2.920
13972TIP3    H241874   7.257   6.745   3.002
13973TIP3   OH241875   2.811   0.824   2.938
13973TIP3    H141876   2.763   0.747   2.968
13973TIP3    H241877   2.839   0.802   2.849
13974TIP3   OH241878   3.020   1.453   2.266
13974TIP3    H141879   2.998   1.369   2.307
13974TIP3    H241880   2.951   1.512   2.296
13975TIP3   OH241881   2.801   1.848   5.802
13975TIP3    H141882   2.772   1.837   5.893
13975TIP3    H241883   2.725   1.821   5.750
13976TIP3   OH241884   3.170   0.062   6.459
13976TIP3    H141885   3.207  -0.025   6.468
13976TIP3    H241886   3.212   0.114   6.528
13977TIP3   OH241887   3.760   5.908   3.417
13977TIP3    H141888   3.666   5.899   3.403
13977TIP3    H241889   3.784   5.832   3.470
13978TIP3   OH241890   7.179   4.772   6.687
13978TIP3    H141891   7.210   4.697   6.638
13978TIP3    H241892   7.124   4.735   6.756
13979TIP3   OH241893   4.842   2.968   1.723
13979TIP3    H141894   4.772   2.999   1.665
13979TIP3    H241895   4.827   2.873   1.729
13980TIP3   OH241896   0.132   5.365   1.831
13980TIP3    H141897   0.160   5.436   1.889
13980TIP3    H241898   0.186   5.290   1.855
13981TIP3   OH241899   3.815   3.567   1.550
13981TIP3    H141900   3.853   3.479   1.551
13981TIP3    H241901   3.842   3.606   1.634
13982TIP3   OH241902   6.503   1.524   6.077
13982TIP3    H141903   6.580   1.493   6.125
13982TIP3    H241904   6.509   1.480   5.991
13983TIP3   OH241905   2.993   6.128   4.961
13983TIP3    H141906   2.913   6.181   4.965
13983TIP3    H241907   2.978   6.057   5.023
13984TIP3   OH241908   7.859   4.967   1.792
13984TIP3    H141909   7.779   4.968   1.845
13984TIP3    H241910   7.887   5.059   1.790
13985TIP3   OH241911   3.407   3.272   4.140
13985TIP3    H141912   3.377   3.262   4.050
13985TIP3    H241913   3.353   3.342   4.176
13986TIP3   OH241914   8.202   3.586   3.268
13986TIP3    H141915   8.141   3.523   3.231
13986TIP3    H241916   8.182   3.668   3.223
13987TIP3   OH241917   5.974   0.041   5.809
13987TIP3    H141918   5.893   0.083   5.779
13987TIP3    H241919   6.005  -0.007   5.732
13988TIP3   OH241920   7.310   4.825   6.232
13988TIP3    H141921   7.375   4.823   6.302
13988TIP3    H241922   7.227   4.807   6.277
13989TIP3   OH241923   2.001   5.309   5.581
13989TIP3    H141924   1.911   5.343   5.573
13989TIP3    H241925   2.022   5.321   5.673
13990TIP3   OH241926   6.557   1.209   3.897
13990TIP3    H141927   6.572   1.267   3.823
13990TIP3    H241928   6.463   1.194   3.898
13991TIP3   OH241929   3.484   5.469   1.314
13991TIP3    H141930   3.422   5.404   1.281
13991TIP3    H241931   3.561   5.458   1.259
13992TIP3   OH241932   0.229   1.076   3.743
13992TIP3    H141933   0.268   1.036   3.821
13992TIP3    H241934   0.172   1.145   3.778
13993TIP3   OH241935   6.861   4.272   3.111
13993TIP3    H141936   6.924   4.299   3.044
13993TIP3    H241937   6.903   4.200   3.157
13994TIP3   OH241938   1.105   4.217   4.936
13994TIP3    H141939   1.107   4.138   4.883
13994TIP3    H241940   1.028   4.207   4.992
13995TIP3   OH241941   5.288   3.690   3.163
13995TIP3    H141942   5.269   3.708   3.255
13995TIP3    H241943   5.215   3.637   3.133
13996TIP3   OH241944   7.588   3.904   2.126
13996TIP3    H141945   7.661   3.963   2.108
13996TIP3    H241946   7.572   3.912   2.220
13997TIP3   OH241947   7.034   2.799   2.956
13997TIP3    H141948   6.962   2.784   3.017
13997TIP3    H241949   7.023   2.731   2.889
13998TIP3   OH241950   3.795   6.361   2.931
13998TIP3    H141951   3.759   6.422   2.995
13998TIP3    H241952   3.722   6.343   2.872
13999TIP3   OH241953   1.218   3.662   1.111
13999TIP3    H141954   1.285   3.618   1.163
13999TIP3    H241955   1.266   3.719   1.052
14000TIP3   OH241956   3.741   4.035   2.953
14000TIP3    H141957   3.652   4.012   2.927
14000TIP3    H241958   3.744   4.016   3.047
14001TIP3   OH241959   2.411   0.232   0.290
14001TIP3    H141960   2.441   0.232   0.199
14001TIP3    H241961   2.385   0.322   0.307
14002TIP3   OH241962   5.485   1.927   3.146
14002TIP3    H141963   5.461   1.940   3.054
14002TIP3    H241964   5.519   2.011   3.174
14003TIP3   OH241965   4.750   4.933   6.417
14003TIP3    H141966   4.823   4.980   6.378
14003TIP3    H241967   4.753   4.845   6.378
14004TIP3   OH241968   6.220   4.113   5.826
14004TIP3    H141969   6.314   4.107   5.807
14004TIP3    H241970   6.214   4.111   5.921
14005TIP3   OH241971   3.692   4.199   3.676
14005TIP3    H141972   3.598   4.214   3.680
14005TIP3    H241973   3.730   4.287   3.669
14006TIP3   OH241974   5.022   0.739   3.955
14006TIP3    H141975   5.040   0.768   4.045
14006TIP3    H241976   4.934   0.702   3.958
14007TIP3   OH241977   0.561   6.613   0.225
14007TIP3    H141978   0.612   6.557   0.284
14007TIP3    H241979   0.581   6.702   0.253
14008TIP3   OH241980   0.979   1.549   3.265
14008TIP3    H141981   0.924   1.621   3.297
14008TIP3    H241982   0.945   1.472   3.310
14009TIP3   OH241983   7.699   1.636   1.184
14009TIP3    H141984   7.736   1.716   1.147
14009TIP3    H241985   7.709   1.646   1.279
14010TIP3   OH241986   2.970   6.844   2.595
14010TIP3    H141987   2.900   6.890   2.550
14010TIP3    H241988   3.004   6.782   2.531
14011TIP3   OH241989   2.480   5.517   2.499
14011TIP3    H141990   2.535   5.443   2.527
14011TIP3    H241991   2.392   5.480   2.491
14012TIP3   OH241992   7.457   3.932   4.237
14012TIP3    H141993   7.531   3.883   4.201
14012TIP3    H241994   7.495   4.015   4.267
14013TIP3   OH241995   7.689   3.321   0.485
14013TIP3    H141996   7.696   3.227   0.502
14013TIP3    H241997   7.595   3.336   0.473
14014TIP3   OH241998   3.632   1.510   2.437
14014TIP3    H141999   3.708   1.567   2.451
14014TIP3    H242000   3.600   1.491   2.525
14015TIP3   OH242001   6.420   2.890   6.240
14015TIP3    H142002   6.413   2.970   6.293
14015TIP3    H242003   6.341   2.889   6.187
14016TIP3   OH242004   3.415   1.896   0.353
14016TIP3    H142005   3.423   1.977   0.302
14016TIP3    H242006   3.456   1.917   0.437
14017TIP3   OH242007   6.708   4.846   0.045
14017TIP3    H142008   6.619   4.813   0.033
14017TIP3    H242009   6.719   4.911  -0.025
14018TIP3   OH242010   6.084   1.081   5.482
14018TIP3    H142011   6.133   1.008   5.444
14018TIP3    H242012   6.000   1.078   5.437
14019TIP3   OH242013   3.108   2.770   0.821
14019TIP3    H142014   3.040   2.718   0.779
14019TIP3    H242015   3.077   2.861   0.813
14020TIP3   OH242016   2.722   7.316   6.156
14020TIP3    H142017   2.781   7.374   6.108
14020TIP3    H242018   2.723   7.350   6.246
14021TIP3   OH242019   4.881   2.439   3.928
14021TIP3    H142020   4.786   2.428   3.922
14021TIP3    H242021   4.893   2.494   4.005
14022TIP3   OH242022   0.516   0.359   2.661
14022TIP3    H142023   0.450   0.420   2.626
14022TIP3    H242024   0.600   0.397   2.634
14023TIP3   OH242025   6.428   1.180   5.952
14023TIP3    H142026   6.513   1.224   5.941
14023TIP3    H242027   6.426   1.116   5.880
14024TIP3   OH242028   0.841   0.760   6.605
14024TIP3    H142029   0.769   0.748   6.667
14024TIP3    H242030   0.817   0.838   6.555
14025TIP3   OH242031   0.625   1.152   6.572
14025TIP3    H142032   0.602   1.133   6.481
14025TIP3    H242033   0.543   1.182   6.612
14026TIP3   OH242034   6.285   3.490   1.272
14026TIP3    H142035   6.280   3.432   1.197
14026TIP3    H242036   6.368   3.469   1.313
14027TIP3   OH242037   6.927   5.038   6.000
14027TIP3    H142038   6.883   5.094   6.063
14027TIP3    H242039   6.873   4.958   5.996
14028TIP3   OH242040   1.284   1.195   4.264
14028TIP3    H142041   1.373   1.229   4.269
14028TIP3    H242042   1.283   1.120   4.322
14029TIP3   OH242043   4.191   4.687   2.883
14029TIP3    H142044   4.224   4.598   2.873
14029TIP3    H242045   4.163   4.712   2.794
14030TIP3   OH242046   4.239   2.299   0.157
14030TIP3    H142047   4.165   2.303   0.097
14030TIP3    H242048   4.201   2.317   0.243
14031TIP3   OH242049   4.446   4.329   1.019
14031TIP3    H142050   4.524   4.279   0.997
14031TIP3    H242051   4.447   4.404   0.959
14032TIP3   OH242052   6.438   5.187   2.171
14032TIP3    H142053   6.404   5.142   2.093
14032TIP3    H242054   6.398   5.141   2.245
14033TIP3   OH242055   5.184   2.535   6.267
14033TIP3    H142056   5.177   2.588   6.187
14033TIP3    H242057   5.114   2.471   6.259
14034TIP3   OH242058   1.166   7.199   6.140
14034TIP3    H142059   1.229   7.167   6.075
14034TIP3    H242060   1.087   7.217   6.090
14035TIP3   OH242061   3.689   0.126   3.636
14035TIP3    H142062   3.777   0.163   3.624
14035TIP3    H242063   3.633   0.177   3.578
14036TIP3   OH242064   3.063   1.571   2.018
14036TIP3    H142065   2.975   1.597   1.989
14036TIP3    H242066   3.048   1.522   2.099
14037TIP3   OH242067   1.746   0.010   1.320
14037TIP3    H142068   1.818   0.039   1.264
14037TIP3    H242069   1.763  -0.083   1.334
14038TIP3   OH242070   4.788   5.404   1.367
14038TIP3    H142071   4.738   5.460   1.427
14038TIP3    H242072   4.865   5.377   1.418
14039TIP3   OH242073   4.276   2.064   4.753
14039TIP3    H142074   4.287   2.019   4.836
14039TIP3    H242075   4.182   2.076   4.744
14040TIP3   OH242076   6.292   2.124   4.022
14040TIP3    H142077   6.306   2.137   3.929
14040TIP3    H242078   6.344   2.045   4.043
14041TIP3   OH242079   0.789   3.965   5.769
14041TIP3    H142080   0.777   3.878   5.733
14041TIP3    H242081   0.701   3.995   5.791
14042TIP3   OH242082   5.865   0.033   1.689
14042TIP3    H142083   5.887   0.119   1.725
14042TIP3    H242084   5.879  -0.027   1.762
14043TIP3   OH242085   2.320   1.556   2.646
14043TIP3    H142086   2.364   1.633   2.682
14043TIP3    H242087   2.248   1.539   2.707
14044TIP3   OH242088   6.231   0.150   6.376
14044TIP3    H142089   6.245   0.241   6.348
14044TIP3    H242090   6.276   0.097   6.310
14045TIP3   OH242091   3.650   2.477   4.539
14045TIP3    H142092   3.598   2.422   4.598
14045TIP3    H242093   3.624   2.567   4.561
14046TIP3   OH242094   5.179   4.504   6.427
14046TIP3    H142095   5.259   4.499   6.375
14046TIP3    H242096   5.111   4.466   6.371
14047TIP3   OH242097   0.737   1.737   4.153
14047TIP3    H142098   0.721   1.827   4.181
14047TIP3    H242099   0.832   1.726   4.161
14048TIP3   OH242100   4.627   5.562   3.737
14048TIP3    H142101   4.549   5.546   3.684
14048TIP3    H242102   4.612   5.648   3.775
14049TIP3   OH242103   6.483   1.669   2.028
14049TIP3    H142104   6.417   1.678   2.097
14049TIP3    H242105   6.553   1.729   2.053
14050TIP3   OH242106   0.039   5.232   4.347
14050TIP3    H142107   0.066   5.196   4.432
14050TIP3    H242108  -0.032   5.176   4.319
14051TIP3   OH242109   8.308   3.893   4.748
14051TIP3    H142110   8.373   3.955   4.716
14051TIP3    H242111   8.252   3.944   4.806
14052TIP3   OH242112   0.567   5.923   3.499
14052TIP3    H142113   0.550   6.017   3.502
14052TIP3    H242114   0.560   5.900   3.407
14053TIP3   OH242115   7.479   4.849   4.186
14053TIP3    H142116   7.384   4.854   4.187
14053TIP3    H242117   7.506   4.913   4.120
14054TIP3   OH242118   7.466   4.438   3.514
14054TIP3    H142119   7.428   4.526   3.506
14054TIP3    H242120   7.392   4.379   3.499
14055TIP3   OH242121   2.082   5.168   4.928
14055TIP3    H142122   2.105   5.247   4.976
14055TIP3    H242123   2.116   5.096   4.982
14056TIP3   OH242124   2.174   0.717   5.568
14056TIP3    H142125   2.153   0.726   5.475
14056TIP3    H242126   2.145   0.629   5.591
14057TIP3   OH242127   4.182   4.616   2.174
14057TIP3    H142128   4.117   4.547   2.183
14057TIP3    H242129   4.193   4.650   2.263
14058TIP3   OH242130   6.461   3.721   5.944
14058TIP3    H142131   6.509   3.645   5.976
14058TIP3    H242132   6.519   3.795   5.964
14059TIP3   OH242133   7.644   5.221   1.551
14059TIP3    H142134   7.736   5.194   1.543
14059TIP3    H242135   7.596   5.155   1.502
14060TIP3   OH242136   5.373   4.636   4.037
14060TIP3    H142137   5.457   4.619   3.994
14060TIP3    H242138   5.327   4.552   4.035
14061TIP3   OH242139   4.607   0.001   4.819
14061TIP3    H142140   4.639   0.060   4.751
14061TIP3    H242141   4.667   0.015   4.893
14062TIP3   OH242142   7.762   2.613   6.630
14062TIP3    H142143   7.824   2.582   6.696
14062TIP3    H242144   7.698   2.543   6.623
14063TIP3   OH242145   0.182   3.584   3.283
14063TIP3    H142146   0.211   3.624   3.202
14063TIP3    H242147   0.087   3.580   3.276
14064TIP3   OH242148   1.835   5.596   6.667
14064TIP3    H142149   1.853   5.609   6.760
14064TIP3    H242150   1.905   5.643   6.622
14065TIP3   OH242151   6.777  -0.003   4.914
14065TIP3    H142152   6.830   0.075   4.902
14065TIP3    H242153   6.706   0.024   4.972
14066TIP3   OH242154   3.194   2.664   1.574
14066TIP3    H142155   3.110   2.678   1.532
14066TIP3    H242156   3.247   2.619   1.508
14067TIP3   OH242157   2.165   1.106   0.303
14067TIP3    H142158   2.152   1.031   0.361
14067TIP3    H242159   2.151   1.183   0.359
14068TIP3   OH242160   6.495   0.197   6.140
14068TIP3    H142161   6.466   0.281   6.176
14068TIP3    H242162   6.459   0.196   6.051
14069TIP3   OH242163   4.781   6.047   0.779
14069TIP3    H142164   4.718   5.976   0.790
14069TIP3    H242165   4.769   6.102   0.856
14070TIP3   OH242166   6.750   6.691   2.494
14070TIP3    H142167   6.665   6.731   2.511
14070TIP3    H242168   6.732   6.622   2.430
14071TIP3   OH242169   3.066   1.792   4.860
14071TIP3    H142170   3.151   1.827   4.886
14071TIP3    H242171   3.002   1.845   4.908
14072TIP3   OH242172   7.964   7.823   1.871
14072TIP3    H142173   7.980   7.730   1.884
14072TIP3    H242174   7.890   7.843   1.930
14073TIP3   OH242175   2.457   0.497   4.103
14073TIP3    H142176   2.511   0.472   4.177
14073TIP3    H242177   2.498   0.576   4.068
14074TIP3   OH242178   5.758   3.484   5.078
14074TIP3    H142179   5.723   3.560   5.123
14074TIP3    H242180   5.709   3.481   4.995
14075TIP3   OH242181   6.240   6.456   6.720
14075TIP3    H142182   6.265   6.499   6.802
14075TIP3    H242183   6.323   6.443   6.674
14076TIP3   OH242184   1.238   5.581   4.179
14076TIP3    H142185   1.177   5.642   4.137
14076TIP3    H242186   1.316   5.634   4.195
14077TIP3   OH242187   1.707   5.162   6.238
14077TIP3    H142188   1.761   5.094   6.277
14077TIP3    H242189   1.765   5.238   6.228
14078TIP3   OH242190   1.325   7.680   5.229
14078TIP3    H142191   1.232   7.699   5.226
14078TIP3    H242192   1.349   7.661   5.138
14079TIP3   OH242193   2.785   3.755   1.235
14079TIP3    H142194   2.808   3.679   1.288
14079TIP3    H242195   2.694   3.738   1.208
14080TIP3   OH242196   1.248   2.747   0.697
14080TIP3    H142197   1.190   2.771   0.625
14080TIP3    H242198   1.329   2.720   0.654
14081TIP3   OH242199   3.304   5.284   3.708
14081TIP3    H142200   3.243   5.352   3.736
14081TIP3    H242201   3.294   5.280   3.613
14082TIP3   OH242202   0.351   7.598   4.521
14082TIP3    H142203   0.342   7.675   4.577
14082TIP3    H242204   0.261   7.568   4.505
14083TIP3   OH242205   8.257   6.593   1.259
14083TIP3    H142206   8.162   6.599   1.261
14083TIP3    H242207   8.284   6.609   1.349
14084TIP3   OH242208   6.013   1.584   4.302
14084TIP3    H142209   5.945   1.602   4.237
14084TIP3    H242210   5.993   1.496   4.334
14085TIP3   OH242211   3.694   1.419   3.351
14085TIP3    H142212   3.769   1.459   3.394
14085TIP3    H242213   3.732   1.357   3.288
14086TIP3   OH242214   1.902   6.378   1.737
14086TIP3    H142215   1.969   6.412   1.678
14086TIP3    H242216   1.949   6.315   1.792
14087TIP3   OH242217   1.858   0.424   4.993
14087TIP3    H142218   1.868   0.491   4.925
14087TIP3    H242219   1.935   0.369   4.985
14088TIP3   OH242220   1.788   2.456   6.717
14088TIP3    H142221   1.763   2.450   6.625
14088TIP3    H242222   1.749   2.379   6.759
14089TIP3   OH242223   7.643   7.369   5.798
14089TIP3    H142224   7.610   7.295   5.748
14089TIP3    H242225   7.643   7.442   5.735
14090TIP3   OH242226   8.186   5.192   0.772
14090TIP3    H142227   8.206   5.229   0.857
14090TIP3    H242228   8.096   5.160   0.780
14091TIP3   OH242229   6.739   5.779   1.220
14091TIP3    H142230   6.712   5.692   1.189
14091TIP3    H242231   6.834   5.773   1.227
14092TIP3   OH242232   1.344   4.419   5.289
14092TIP3    H142233   1.263   4.418   5.340
14092TIP3    H242234   1.342   4.503   5.244
14093TIP3   OH242235   7.697   0.730   2.271
14093TIP3    H142236   7.739   0.685   2.198
14093TIP3    H242237   7.729   0.820   2.265
14094TIP3   OH242238   0.534   6.430   6.211
14094TIP3    H142239   0.499   6.508   6.254
14094TIP3    H242240   0.457   6.377   6.193
14095TIP3   OH242241   2.831   2.084   0.125
14095TIP3    H142242   2.872   2.170   0.130
14095TIP3    H242243   2.810   2.072   0.033
14096TIP3   OH242244   8.059   3.340   3.382
14096TIP3    H142245   7.998   3.269   3.361
14096TIP3    H242246   8.008   3.420   3.371
14097TIP3   OH242247   7.083   4.395   3.681
14097TIP3    H142248   7.103   4.367   3.770
14097TIP3    H242249   6.992   4.369   3.668
14098TIP3   OH242250   4.644   2.053   0.955
14098TIP3    H142251   4.604   1.995   0.891
14098TIP3    H242252   4.725   2.009   0.980
14099TIP3   OH242253   4.085   7.624   0.101
14099TIP3    H142254   4.022   7.695   0.104
14099TIP3    H242255   4.047   7.560   0.041
14100TIP3   OH242256   6.904   1.549   4.086
14100TIP3    H142257   6.878   1.521   3.998
14100TIP3    H242258   6.860   1.487   4.144
14101TIP3   OH242259   7.955   4.986   3.906
14101TIP3    H142260   7.944   4.917   3.841
14101TIP3    H242261   8.043   5.019   3.891
14102TIP3   OH242262   8.210   4.881   4.507
14102TIP3    H142263   8.141   4.851   4.447
14102TIP3    H242264   8.181   4.968   4.534
14103TIP3   OH242265   5.884   7.324   5.906
14103TIP3    H142266   5.836   7.293   5.829
14103TIP3    H242267   5.975   7.330   5.877
14104TIP3   OH242268   3.967   6.046   5.942
14104TIP3    H142269   4.034   6.100   5.983
14104TIP3    H242270   3.913   6.108   5.894
14105TIP3   OH242271   0.096   1.089   6.551
14105TIP3    H142272   0.084   1.158   6.616
14105TIP3    H242273   0.167   1.035   6.587
14106TIP3   OH242274   5.952   2.327   2.857
14106TIP3    H142275   5.933   2.322   2.950
14106TIP3    H242276   5.970   2.420   2.841
14107TIP3   OH242277   7.351   1.970   0.690
14107TIP3    H142278   7.273   1.999   0.643
14107TIP3    H242279   7.400   1.919   0.626
14108TIP3   OH242280   4.128   1.753   3.066
14108TIP3    H142281   4.094   1.789   2.985
14108TIP3    H242282   4.220   1.734   3.047
14109TIP3   OH242283   0.835   7.475   4.614
14109TIP3    H142284   0.739   7.480   4.622
14109TIP3    H242285   0.854   7.503   4.525
14110TIP3   OH242286   6.186   7.221   0.293
14110TIP3    H142287   6.157   7.138   0.257
14110TIP3    H242288   6.113   7.251   0.347
14111TIP3   OH242289   7.776   1.362   4.057
14111TIP3    H142290   7.835   1.290   4.080
14111TIP3    H242291   7.759   1.407   4.140
14112TIP3   OH242292   2.940   7.136   3.280
14112TIP3    H142293   2.851   7.129   3.313
14112TIP3    H242294   2.948   7.065   3.216
14113TIP3   OH242295   6.282   0.144   0.932
14113TIP3    H142296   6.350   0.102   0.880
14113TIP3    H242297   6.314   0.136   1.022
14114TIP3   OH242298   3.317   5.661   2.500
14114TIP3    H142299   3.348   5.579   2.537
14114TIP3    H242300   3.372   5.677   2.424
14115TIP3   OH242301   7.313   7.615   5.911
14115TIP3    H142302   7.403   7.618   5.881
14115TIP3    H242303   7.305   7.532   5.958
14116TIP3   OH242304   8.184   0.885   2.161
14116TIP3    H142305   8.165   0.792   2.172
14116TIP3    H242306   8.262   0.900   2.215
14117TIP3   OH242307   0.781   2.755   2.962
14117TIP3    H142308   0.803   2.847   2.948
14117TIP3    H242309   0.791   2.743   3.057
14118TIP3   OH242310   1.124   7.459   3.673
14118TIP3    H142311   1.163   7.377   3.705
14118TIP3    H242312   1.138   7.522   3.744
14119TIP3   OH242313   2.080   1.253   1.849
14119TIP3    H142314   2.089   1.348   1.856
14119TIP3    H242315   2.041   1.240   1.762
14120TIP3   OH242316   6.853   3.170   3.046
14120TIP3    H142317   6.898   3.239   3.095
14120TIP3    H242318   6.923   3.112   3.016
14121TIP3   OH242319   4.638   0.738   6.248
14121TIP3    H142320   4.704   0.807   6.241
14121TIP3    H242321   4.656   0.680   6.175
14122TIP3   OH242322   5.219   7.010   2.755
14122TIP3    H142323   5.233   6.915   2.761
14122TIP3    H242324   5.298   7.048   2.793
14123TIP3   OH242325   6.842   7.477   4.985
14123TIP3    H142326   6.935   7.463   4.967
14123TIP3    H242327   6.798   7.454   4.903
14124TIP3   OH242328   3.583   5.718   0.877
14124TIP3    H142329   3.565   5.625   0.859
14124TIP3    H242330   3.499   5.752   0.908
14125TIP3   OH242331   4.978   0.145   3.128
14125TIP3    H142332   4.891   0.150   3.168
14125TIP3    H242333   4.985   0.055   3.097
14126TIP3   OH242334   3.120   4.308   0.565
14126TIP3    H142335   3.047   4.316   0.503
14126TIP3    H242336   3.079   4.277   0.645
14127TIP3   OH242337   5.832   0.339   3.308
14127TIP3    H142338   5.770   0.325   3.236
14127TIP3    H242339   5.918   0.328   3.267
14128TIP3   OH242340   2.902   2.581   6.626
14128TIP3    H142341   2.948   2.663   6.606
14128TIP3    H242342   2.813   2.596   6.596
14129TIP3   OH242343   4.601   6.058   6.507
14129TIP3    H142344   4.585   6.094   6.420
14129TIP3    H242345   4.653   5.979   6.491
14130TIP3   OH242346   0.139   5.277  -0.003
14130TIP3    H142347   0.058   5.252   0.042
14130TIP3    H242348   0.202   5.290   0.068
14131TIP3   OH242349   1.299   2.365   2.146
14131TIP3    H142350   1.336   2.427   2.208
14131TIP3    H242351   1.292   2.283   2.196
14132TIP3   OH242352   4.379   2.440   1.432
14132TIP3    H142353   4.303   2.498   1.433
14132TIP3    H242354   4.371   2.388   1.512
14133TIP3   OH242355   1.994   4.354   2.903
14133TIP3    H142356   1.924   4.380   2.843
14133TIP3    H242357   1.951   4.348   2.989
14134TIP3   OH242358   5.502   7.740   3.811
14134TIP3    H142359   5.438   7.783   3.754
14134TIP3    H242360   5.538   7.669   3.757
14135TIP3   OH242361   5.022   0.553   2.602
14135TIP3    H142362   5.026   0.616   2.531
14135TIP3    H242363   5.071   0.477   2.570
14136TIP3   OH242364   3.927   7.590   6.060
14136TIP3    H142365   3.891   7.671   6.026
14136TIP3    H242366   3.979   7.554   5.988
14137TIP3   OH242367   3.642   1.073   0.784
14137TIP3    H142368   3.667   1.010   0.852
14137TIP3    H242369   3.664   1.158   0.822
14138TIP3   OH242370   6.423   5.418   5.791
14138TIP3    H142371   6.392   5.476   5.860
14138TIP3    H242372   6.385   5.453   5.711
14139TIP3   OH242373   0.709   3.720   3.901
14139TIP3    H142374   0.680   3.629   3.908
14139TIP3    H242375   0.644   3.761   3.843
14140TIP3   OH242376   5.574   6.611   0.191
14140TIP3    H142377   5.527   6.632   0.111
14140TIP3    H242378   5.575   6.516   0.195
14141TIP3   OH242379   1.869   4.292   3.191
14141TIP3    H142380   1.798   4.260   3.136
14141TIP3    H242381   1.875   4.228   3.262
14142TIP3   OH242382   7.519   1.129   3.222
14142TIP3    H142383   7.449   1.071   3.194
14142TIP3    H242384   7.508   1.135   3.317
14143TIP3   OH242385   1.284   3.837   2.967
14143TIP3    H142386   1.237   3.816   3.048
14143TIP3    H242387   1.372   3.802   2.980
14144TIP3   OH242388   3.451   2.272   5.223
14144TIP3    H142389   3.526   2.224   5.259
14144TIP3    H242390   3.378   2.210   5.229
14145TIP3   OH242391   6.262   0.896   0.553
14145TIP3    H142392   6.208   0.945   0.491
14145TIP3    H242393   6.351   0.909   0.522
14146TIP3   OH242394   0.653   0.387   2.222
14146TIP3    H142395   0.746   0.408   2.227
14146TIP3    H242396   0.610   0.455   2.274
14147TIP3   OH242397   7.150   4.921   3.721
14147TIP3    H142398   7.223   4.908   3.661
14147TIP3    H242399   7.169   4.863   3.795
14148TIP3   OH242400   1.277   5.369   6.134
14148TIP3    H142401   1.296   5.452   6.177
14148TIP3    H242402   1.226   5.320   6.198
14149TIP3   OH242403   1.731   2.565   1.591
14149TIP3    H142404   1.707   2.578   1.500
14149TIP3    H242405   1.766   2.476   1.594
14150TIP3   OH242406   6.782   1.168   3.136
14150TIP3    H142407   6.699   1.121   3.129
14150TIP3    H242408   6.831   1.119   3.202
14151TIP3   OH242409   0.600   3.075   3.286
14151TIP3    H142410   0.534   3.050   3.350
14151TIP3    H242411   0.550   3.102   3.209
14152TIP3   OH242412   0.369   6.123   1.113
14152TIP3    H142413   0.441   6.114   1.051
14152TIP3    H242414   0.361   6.217   1.128
14153TIP3   OH242415   3.655   3.645   3.573
14153TIP3    H142416   3.647   3.571   3.633
14153TIP3    H242417   3.579   3.700   3.593
14154TIP3   OH242418   6.651   5.463   5.579
14154TIP3    H142419   6.692   5.377   5.591
14154TIP3    H242420   6.710   5.510   5.520
14155TIP3   OH242421   6.193   6.222   4.332
14155TIP3    H142422   6.188   6.138   4.377
14155TIP3    H242423   6.135   6.280   4.382
14156TIP3   OH242424   5.716   1.471   0.496
14156TIP3    H142425   5.778   1.496   0.564
14156TIP3    H242426   5.656   1.410   0.538
14157TIP3   OH242427   7.291   2.703   2.813
14157TIP3    H142428   7.329   2.624   2.774
14157TIP3    H242429   7.294   2.687   2.907
14158TIP3   OH242430   1.686   3.291   6.738
14158TIP3    H142431   1.742   3.215   6.753
14158TIP3    H242432   1.621   3.260   6.676
14159TIP3   OH242433   3.175   0.419   5.854
14159TIP3    H142434   3.178   0.328   5.884
14159TIP3    H242435   3.267   0.443   5.843
14160TIP3   OH242436   2.135   0.259   2.203
14160TIP3    H142437   2.074   0.233   2.133
14160TIP3    H242438   2.221   0.251   2.163
14161TIP3   OH242439   1.858   3.438   3.183
14161TIP3    H142440   1.770   3.473   3.190
14161TIP3    H242441   1.862   3.400   3.095
14162TIP3   OH242442   6.438   0.501   4.529
14162TIP3    H142443   6.502   0.524   4.596
14162TIP3    H242444   6.490   0.486   4.450
14163TIP3   OH242445   0.256   1.415   4.949
14163TIP3    H142446   0.255   1.365   4.867
14163TIP3    H242447   0.289   1.353   5.014
14164TIP3   OH242448   4.879   1.002   2.823
14164TIP3    H142449   4.911   0.940   2.889
14164TIP3    H242450   4.785   0.985   2.818
14165TIP3   OH242451   3.062   0.336   2.868
14165TIP3    H142452   3.069   0.246   2.900
14165TIP3    H242453   2.989   0.334   2.806
14166TIP3   OH242454   5.254   6.076   6.347
14166TIP3    H142455   5.188   6.019   6.388
14166TIP3    H242456   5.289   6.128   6.419
14167TIP3   OH242457   5.493   1.520   2.858
14167TIP3    H142458   5.568   1.564   2.897
14167TIP3    H242459   5.422   1.534   2.920
14168TIP3   OH242460   1.106   2.405   5.072
14168TIP3    H142461   1.100   2.381   4.979
14168TIP3    H242462   1.182   2.463   5.076
14169TIP3   OH242463   5.776   6.928   2.092
14169TIP3    H142464   5.720   7.006   2.090
14169TIP3    H242465   5.834   6.943   2.168
14170TIP3   OH242466   6.545   6.855   3.842
14170TIP3    H142467   6.488   6.813   3.777
14170TIP3    H242468   6.628   6.806   3.836
14171TIP3   OH242469   0.194   0.592   2.721
14171TIP3    H142470   0.132   0.523   2.745
14171TIP3    H242471   0.166   0.668   2.772
14172TIP3   OH242472   2.776   7.224   1.546
14172TIP3    H142473   2.867   7.243   1.524
14172TIP3    H242474   2.768   7.247   1.638
14173TIP3   OH242475   5.388   4.598   1.894
14173TIP3    H142476   5.426   4.515   1.924
14173TIP3    H242477   5.319   4.617   1.958
14174TIP3   OH242478   2.261   1.047   5.784
14174TIP3    H142479   2.281   1.104   5.710
14174TIP3    H242480   2.324   0.976   5.777
14175TIP3   OH242481   5.054   1.913   1.660
14175TIP3    H142482   5.125   1.915   1.596
14175TIP3    H242483   5.054   1.823   1.693
14176TIP3   OH242484   2.669   0.459   0.982
14176TIP3    H142485   2.635   0.548   0.989
14176TIP3    H242486   2.670   0.441   0.889
14177TIP3   OH242487   0.962   4.932   4.624
14177TIP3    H142488   1.034   4.941   4.688
14177TIP3    H242489   0.922   4.847   4.645
14178TIP3   OH242490   0.026   1.317   3.558
14178TIP3    H142491   0.079   1.330   3.637
14178TIP3    H242492  -0.056   1.281   3.589
14179TIP3   OH242493   4.887   3.013   5.731
14179TIP3    H142494   4.884   2.966   5.647
14179TIP3    H242495   4.832   3.089   5.718
14180TIP3   OH242496   1.646   2.602   2.405
14180TIP3    H142497   1.655   2.696   2.419
14180TIP3    H242498   1.583   2.594   2.334
14181TIP3   OH242499   1.303   4.717   0.584
14181TIP3    H142500   1.331   4.789   0.640
14181TIP3    H242501   1.215   4.742   0.556
14182TIP3   OH242502   4.178   5.986   0.043
14182TIP3    H142503   4.204   5.932  -0.031
14182TIP3    H242504   4.252   5.980   0.104
14183TIP3   OH242505   1.228   1.741   3.446
14183TIP3    H142506   1.194   1.720   3.358
14183TIP3    H242507   1.295   1.675   3.462
14184TIP3   OH242508   6.113   2.855   3.703
14184TIP3    H142509   6.047   2.785   3.705
14184TIP3    H242510   6.075   2.925   3.758
14185TIP3   OH242511   3.358   0.489   2.980
14185TIP3    H142512   3.298   0.530   2.918
14185TIP3    H242513   3.434   0.547   2.981
14186TIP3   OH242514   3.277   2.417   1.183
14186TIP3    H142515   3.367   2.392   1.204
14186TIP3    H242516   3.253   2.361   1.109
14187TIP3   OH242517   3.660   7.401   6.022
14187TIP3    H142518   3.700   7.322   6.059
14187TIP3    H242519   3.681   7.397   5.929
14188TIP3   OH242520   5.196   1.352   1.046
14188TIP3    H142521   5.240   1.373   0.964
14188TIP3    H242522   5.168   1.436   1.081
14189TIP3   OH242523   7.952   7.464   4.333
14189TIP3    H142524   7.997   7.387   4.299
14189TIP3    H242525   7.913   7.506   4.256
14190TIP3   OH242526   1.556   0.429   3.136
14190TIP3    H142527   1.624   0.376   3.095
14190TIP3    H242528   1.488   0.437   3.069
14191TIP3   OH242529   4.248   7.430   6.485
14191TIP3    H142530   4.224   7.346   6.448
14191TIP3    H242531   4.303   7.472   6.419
14192TIP3   OH242532   6.505   6.797   2.754
14192TIP3    H142533   6.418   6.771   2.724
14192TIP3    H242534   6.520   6.882   2.713
14193TIP3   OH242535   3.689   0.050   6.040
14193TIP3    H142536   3.741   0.084   6.113
14193TIP3    H242537   3.751   0.000   5.987
14194TIP3   OH242538   5.122   2.130   1.340
14194TIP3    H142539   5.159   2.089   1.417
14194TIP3    H242540   5.095   2.217   1.370
14195TIP3   OH242541   6.601   2.707   6.718
14195TIP3    H142542   6.680   2.745   6.756
14195TIP3    H242543   6.632   2.650   6.648
14196TIP3   OH242544   6.111   7.728   0.299
14196TIP3    H142545   6.144   7.642   0.272
14196TIP3    H242546   6.065   7.761   0.222
14197TIP3   OH242547   5.938   1.206   1.728
14197TIP3    H142548   5.848   1.187   1.703
14197TIP3    H242549   5.937   1.298   1.754
14198TIP3   OH242550   4.879   5.002   3.015
14198TIP3    H142551   4.877   5.098   3.008
14198TIP3    H242552   4.966   4.978   2.985
14199TIP3   OH242553   0.616   0.307   5.412
14199TIP3    H142554   0.579   0.390   5.382
14199TIP3    H242555   0.633   0.321   5.505
14200TIP3   OH242556   7.201   4.225   6.445
14200TIP3    H142557   7.215   4.192   6.356
14200TIP3    H242558   7.286   4.215   6.487
14201TIP3   OH242559   2.236   7.402   2.411
14201TIP3    H142560   2.252   7.427   2.320
14201TIP3    H242561   2.159   7.346   2.408
14202TIP3   OH242562   2.550   3.372   1.163
14202TIP3    H142563   2.470   3.405   1.204
14202TIP3    H242564   2.548   3.278   1.182
14203TIP3   OH242565   0.095   4.388   5.271
14203TIP3    H142566   0.033   4.317   5.289
14203TIP3    H242567   0.177   4.344   5.248
14204TIP3   OH242568   0.490   1.089   6.308
14204TIP3    H142569   0.458   1.066   6.220
14204TIP3    H242570   0.506   1.006   6.351
14205TIP3   OH242571   5.260   7.515   4.226
14205TIP3    H142572   5.331   7.518   4.161
14205TIP3    H242573   5.253   7.423   4.250
14206TIP3   OH242574   7.441   0.316   5.265
14206TIP3    H142575   7.425   0.371   5.341
14206TIP3    H242576   7.493   0.371   5.206
14207TIP3   OH242577   7.983   3.531   1.884
14207TIP3    H142578   8.029   3.457   1.846
14207TIP3    H242579   7.907   3.492   1.928
14208TIP3   OH242580   6.069   5.234   5.616
14208TIP3    H142581   6.077   5.149   5.572
14208TIP3    H242582   6.045   5.212   5.706
14209TIP3   OH242583   1.120   4.068   2.968
14209TIP3    H142584   1.183   4.000   2.945
14209TIP3    H242585   1.088   4.100   2.884
14210TIP3   OH242586   7.230   0.802   5.597
14210TIP3    H142587   7.275   0.741   5.655
14210TIP3    H242588   7.301   0.842   5.545
14211TIP3   OH242589   4.306   0.858   3.829
14211TIP3    H142590   4.399   0.837   3.832
14211TIP3    H242591   4.266   0.793   3.887
14212TIP3   OH242592   4.659   0.603   4.574
14212TIP3    H142593   4.709   0.608   4.656
14212TIP3    H242594   4.669   0.690   4.535
14213TIP3   OH242595   4.051   1.013   4.113
14213TIP3    H142596   4.045   0.918   4.103
14213TIP3    H242597   4.034   1.028   4.206
14214TIP3   OH242598   8.023   7.446   3.007
14214TIP3    H142599   8.022   7.397   3.089
14214TIP3    H242600   8.115   7.451   2.982
14215TIP3   OH242601   0.305   4.155   1.835
14215TIP3    H142602   0.247   4.225   1.806
14215TIP3    H242603   0.257   4.113   1.907
14216TIP3   OH242604   7.485   2.126   6.087
14216TIP3    H142605   7.448   2.149   6.002
14216TIP3    H242606   7.578   2.142   6.078
14217TIP3   OH242607   8.173   5.030   4.229
14217TIP3    H142608   8.158   5.069   4.142
14217TIP3    H242609   8.105   4.963   4.237
14218TIP3   OH242610   1.662   7.284   6.177
14218TIP3    H142611   1.601   7.244   6.114
14218TIP3    H242612   1.743   7.297   6.127
14219TIP3   OH242613   6.157   5.258   0.838
14219TIP3    H142614   6.224   5.297   0.784
14219TIP3    H242615   6.078   5.260   0.784
14220TIP3   OH242616   2.797   5.763   0.876
14220TIP3    H142617   2.776   5.850   0.844
14220TIP3    H242618   2.743   5.704   0.824
14221TIP3   OH242619   3.541   0.556   3.340
14221TIP3    H142620   3.576   0.588   3.423
14221TIP3    H242621   3.474   0.620   3.316
14222TIP3   OH242622   5.724   5.698   1.188
14222TIP3    H142623   5.696   5.715   1.098
14222TIP3    H242624   5.716   5.603   1.197
14223TIP3   OH242625   4.620   5.585   4.842
14223TIP3    H142626   4.650   5.579   4.933
14223TIP3    H242627   4.692   5.626   4.795
14224TIP3   OH242628   5.408   5.273   1.760
14224TIP3    H142629   5.354   5.218   1.704
14224TIP3    H242630   5.354   5.291   1.836
14225TIP3   OH242631   1.556   4.976   5.354
14225TIP3    H142632   1.484   4.920   5.381
14225TIP3    H242633   1.514   5.047   5.305
14226TIP3   OH242634   6.430   3.663   3.387
14226TIP3    H142635   6.336   3.663   3.401
14226TIP3    H242636   6.444   3.599   3.317
14227TIP3   OH242637   7.030   0.745   0.848
14227TIP3    H142638   7.026   0.650   0.838
14227TIP3    H242639   6.973   0.764   0.922
14228TIP3   OH242640   0.181   1.677   2.337
14228TIP3    H142641   0.196   1.696   2.245
14228TIP3    H242642   0.167   1.763   2.377
14229TIP3   OH242643   0.522   4.479   6.570
14229TIP3    H142644   0.579   4.440   6.635
14229TIP3    H242645   0.535   4.573   6.580
14230TIP3   OH242646   7.219   4.267   0.156
14230TIP3    H142647   7.179   4.304   0.235
14230TIP3    H242648   7.303   4.232   0.186
14231TIP3   OH242649   0.276   2.813   5.422
14231TIP3    H142650   0.312   2.859   5.497
14231TIP3    H242651   0.280   2.720   5.447
14232TIP3   OH242652   1.313   2.826   1.180
14232TIP3    H142653   1.325   2.732   1.168
14232TIP3    H242654   1.301   2.860   1.092
14233TIP3   OH242655   6.818   0.869   0.482
14233TIP3    H142656   6.827   0.778   0.511
14233TIP3    H242657   6.890   0.915   0.525
14234TIP3   OH242658   5.722   1.936   4.544
14234TIP3    H142659   5.682   1.849   4.541
14234TIP3    H242660   5.734   1.959   4.452
14235TIP3   OH242661   0.874   6.200   2.260
14235TIP3    H142662   0.846   6.109   2.247
14235TIP3    H242663   0.850   6.244   2.179
14236TIP3   OH242664   8.072   1.779   3.852
14236TIP3    H142665   8.035   1.862   3.821
14236TIP3    H242666   8.093   1.731   3.772
14237TIP3   OH242667   2.252   7.441   1.575
14237TIP3    H142668   2.308   7.519   1.578
14237TIP3    H242669   2.209   7.446   1.490
14238TIP3   OH242670   6.578   5.828   5.766
14238TIP3    H142671   6.617   5.761   5.823
14238TIP3    H242672   6.499   5.786   5.731
14239TIP3   OH242673   0.878   2.130   5.765
14239TIP3    H142674   0.850   2.040   5.750
14239TIP3    H242675   0.939   2.149   5.694
14240TIP3   OH242676   6.290   0.799   3.263
14240TIP3    H142677   6.356   0.729   3.264
14240TIP3    H242678   6.270   0.812   3.170
14241TIP3   OH242679   0.176   2.768   1.973
14241TIP3    H142680   0.238   2.794   1.905
14241TIP3    H242681   0.093   2.756   1.927
14242TIP3   OH242682   3.155   1.198   5.761
14242TIP3    H142683   3.209   1.127   5.797
14242TIP3    H242684   3.107   1.232   5.836
14243TIP3   OH242685   0.848   3.728   4.359
14243TIP3    H142686   0.874   3.785   4.287
14243TIP3    H242687   0.827   3.644   4.317
14244TIP3   OH242688   4.863   5.074   3.711
14244TIP3    H142689   4.885   5.096   3.802
14244TIP3    H242690   4.931   5.013   3.684
14245TIP3   OH242691   5.294   3.059   4.869
14245TIP3    H142692   5.233   3.016   4.810
14245TIP3    H242693   5.260   3.148   4.878
14246TIP3   OH242694   8.057   2.606   1.135
14246TIP3    H142695   7.982   2.651   1.094
14246TIP3    H242696   8.134   2.650   1.099
14247TIP3   OH242697   4.110   5.862   1.285
14247TIP3    H142698   4.130   5.795   1.220
14247TIP3    H242699   4.064   5.930   1.237
14248TIP3   OH242700   6.627   4.147   1.344
14248TIP3    H142701   6.628   4.220   1.405
14248TIP3    H242702   6.534   4.137   1.320
14249TIP3   OH242703   6.013   2.089   2.738
14249TIP3    H142704   6.009   2.175   2.779
14249TIP3    H242705   5.967   2.100   2.654
14250TIP3   OH242706   6.731   1.437   6.224
14250TIP3    H142707   6.764   1.405   6.308
14250TIP3    H242708   6.746   1.364   6.164
14251TIP3   OH242709   5.194   7.700   2.976
14251TIP3    H142710   5.228   7.661   3.057
14251TIP3    H242711   5.104   7.668   2.969
14252TIP3   OH242712   2.487   3.337   2.865
14252TIP3    H142713   2.544   3.405   2.830
14252TIP3    H242714   2.478   3.274   2.794
14253TIP3   OH242715   6.699   3.461   4.978
14253TIP3    H142716   6.619   3.453   5.031
14253TIP3    H242717   6.703   3.554   4.955
14254TIP3   OH242718   5.330   5.853   0.780
14254TIP3    H142719   5.358   5.854   0.872
14254TIP3    H242720   5.235   5.841   0.784
14255TIP3   OH242721   5.981   0.752   3.937
14255TIP3    H142722   5.943   0.700   4.007
14255TIP3    H242723   5.915   0.751   3.868
14256TIP3   OH242724   7.585   3.655   1.182
14256TIP3    H142725   7.503   3.698   1.161
14256TIP3    H242726   7.607   3.686   1.270
14257TIP3   OH242727   3.149   0.352   6.649
14257TIP3    H142728   3.108   0.305   6.722
14257TIP3    H242729   3.078   0.366   6.586
14258TIP3   OH242730   3.717   2.087   0.251
14258TIP3    H142731   3.716   2.181   0.232
14258TIP3    H242732   3.686   2.046   0.171
14259TIP3   OH242733   5.428   6.359   6.086
14259TIP3    H142734   5.415   6.350   5.991
14259TIP3    H242735   5.465   6.446   6.097
14260TIP3   OH242736   6.222   3.985   1.433
14260TIP3    H142737   6.291   4.030   1.385
14260TIP3    H242738   6.159   4.054   1.455
14261TIP3   OH242739   0.852   5.809   5.866
14261TIP3    H142740   0.925   5.844   5.916
14261TIP3    H242741   0.860   5.714   5.875
14262TIP3   OH242742   2.529   0.952   6.460
14262TIP3    H142743   2.462   0.915   6.402
14262TIP3    H242744   2.609   0.953   6.407
14263TIP3   OH242745   5.998   0.073   3.009
14263TIP3    H142746   5.932   0.005   3.027
14263TIP3    H242747   6.048   0.079   3.090
14264TIP3   OH242748   3.615   6.515   1.025
14264TIP3    H142749   3.674   6.571   0.976
14264TIP3    H242750   3.542   6.497   0.965
14265TIP3   OH242751   0.920   4.504   5.594
14265TIP3    H142752   0.909   4.488   5.687
14265TIP3    H242753   0.844   4.462   5.553
14266TIP3   OH242754   5.033   7.609   4.954
14266TIP3    H142755   5.036   7.540   4.888
14266TIP3    H242756   4.992   7.569   5.030
14267TIP3   OH242757   0.720   7.637   5.007
14267TIP3    H142758   0.781   7.630   4.933
14267TIP3    H242759   0.712   7.731   5.023
14268TIP3   OH242760   4.174   1.123   3.403
14268TIP3    H142761   4.199   1.051   3.460
14268TIP3    H242762   4.161   1.084   3.317
14269TIP3   OH242763   1.289   1.534   0.145
14269TIP3    H142764   1.298   1.441   0.124
14269TIP3    H242765   1.342   1.579   0.079
14270TIP3   OH242766   1.494   7.363   4.363
14270TIP3    H142767   1.491   7.455   4.392
14270TIP3    H242768   1.541   7.366   4.279
14271TIP3   OH242769   3.705   1.626   3.609
14271TIP3    H142770   3.798   1.644   3.619
14271TIP3    H242771   3.685   1.649   3.518
14272TIP3   OH242772   2.056   5.791   3.298
14272TIP3    H142773   2.135   5.740   3.319
14272TIP3    H242774   2.074   5.878   3.334
14273TIP3   OH242775   6.301   5.994   2.912
14273TIP3    H142776   6.348   5.977   2.830
14273TIP3    H242777   6.221   6.038   2.884
14274TIP3   OH242778   4.901   5.734   0.261
14274TIP3    H142779   4.858   5.811   0.226
14274TIP3    H242780   4.829   5.672   0.278
14275TIP3   OH242781   5.080   4.803   3.270
14275TIP3    H142782   5.153   4.744   3.290
14275TIP3    H242783   5.081   4.867   3.342
14276TIP3   OH242784   7.642   6.813   1.161
14276TIP3    H142785   7.689   6.849   1.236
14276TIP3    H242786   7.554   6.852   1.167
14277TIP3   OH242787   0.741   3.433   5.609
14277TIP3    H142788   0.754   3.444   5.515
14277TIP3    H242789   0.810   3.486   5.649
14278TIP3   OH242790   3.800   1.541   2.760
14278TIP3    H142791   3.885   1.497   2.769
14278TIP3    H242792   3.790   1.556   2.666
14279TIP3   OH242793   6.415   1.394   6.358
14279TIP3    H142794   6.357   1.424   6.287
14279TIP3    H242795   6.432   1.473   6.410
14280TIP3   OH242796   0.990   5.445   1.077
14280TIP3    H142797   1.037   5.486   1.004
14280TIP3    H242798   1.051   5.380   1.112
14281TIP3   OH242799   8.215   1.501   0.379
14281TIP3    H142800   8.138   1.518   0.326
14281TIP3    H242801   8.246   1.589   0.404
14282TIP3   OH242802   0.376   6.137   2.043
14282TIP3    H142803   0.390   6.110   2.134
14282TIP3    H242804   0.462   6.128   2.003
14283TIP3   OH242805   6.798   3.213   0.894
14283TIP3    H142806   6.807   3.195   0.800
14283TIP3    H242807   6.725   3.274   0.899
14284TIP3   OH242808   0.319   7.445   2.938
14284TIP3    H142809   0.304   7.463   3.031
14284TIP3    H242810   0.252   7.495   2.893
14285TIP3   OH242811   0.383   2.978   3.403
14285TIP3    H142812   0.320   3.014   3.465
14285TIP3    H242813   0.368   2.884   3.406
14286TIP3   OH242814   5.854   0.566   0.577
14286TIP3    H142815   5.802   0.643   0.599
14286TIP3    H242816   5.944   0.592   0.593
14287TIP3   OH242817   4.672   1.023   6.477
14287TIP3    H142818   4.625   1.001   6.557
14287TIP3    H242819   4.618   0.988   6.406
14288TIP3   OH242820   8.081   0.021   1.325
14288TIP3    H142821   8.077   0.110   1.291
14288TIP3    H242822   8.013   0.019   1.393
14289TIP3   OH242823   4.483   7.184   1.941
14289TIP3    H142824   4.517   7.166   1.854
14289TIP3    H242825   4.542   7.250   1.977
14290TIP3   OH242826   1.197   3.393   5.173
14290TIP3    H142827   1.204   3.454   5.099
14290TIP3    H242828   1.124   3.427   5.224
14291TIP3   OH242829   5.894   3.519   3.379
14291TIP3    H142830   5.906   3.614   3.371
14291TIP3    H242831   5.848   3.494   3.298
14292TIP3   OH242832   1.740   5.162   5.923
14292TIP3    H142833   1.691   5.098   5.975
14292TIP3    H242834   1.691   5.243   5.933
14293TIP3   OH242835   4.589   3.691   0.143
14293TIP3    H142836   4.547   3.717   0.062
14293TIP3    H242837   4.677   3.728   0.138
14294TIP3   OH242838   3.211   2.498   6.253
14294TIP3    H142839   3.288   2.490   6.196
14294TIP3    H242840   3.148   2.435   6.217
14295TIP3   OH242841   4.911   2.590   4.159
14295TIP3    H142842   4.974   2.543   4.213
14295TIP3    H242843   4.947   2.678   4.150
14296TIP3   OH242844   2.557   4.147   3.471
14296TIP3    H142845   2.574   4.240   3.455
14296TIP3    H242846   2.609   4.102   3.404
14297TIP3   OH242847   7.366   3.680   5.571
14297TIP3    H142848   7.368   3.639   5.658
14297TIP3    H242849   7.313   3.620   5.519
14298TIP3   OH242850   0.734   3.941   4.547
14298TIP3    H142851   0.760   3.861   4.501
14298TIP3    H242852   0.814   3.969   4.592
14299TIP3   OH242853   5.162   2.453   0.019
14299TIP3    H142854   5.189   2.527   0.074
14299TIP3    H242855   5.209   2.378   0.055
14300TIP3   OH242856   5.750   6.699   5.765
14300TIP3    H142857   5.757   6.732   5.675
14300TIP3    H242858   5.704   6.768   5.813
14301TIP3   OH242859   0.501   1.344   5.837
14301TIP3    H142860   0.455   1.350   5.753
14301TIP3    H242861   0.433   1.359   5.903
14302TIP3   OH242862   0.034   6.081   6.439
14302TIP3    H142863   0.080   6.010   6.483
14302TIP3    H242864  -0.055   6.048   6.427
14303TIP3   OH242865   3.520   5.270   6.619
14303TIP3    H142866   3.494   5.303   6.706
14303TIP3    H242867   3.520   5.175   6.628
14304TIP3   OH242868   1.837   2.493   3.988
14304TIP3    H142869   1.926   2.459   3.977
14304TIP3    H242870   1.840   2.541   4.071
14305TIP3   OH242871   0.137   4.159   5.559
14305TIP3    H142872   0.217   4.205   5.535
14305TIP3    H242873   0.084   4.159   5.479
14306TIP3   OH242874   4.797   0.577   6.037
14306TIP3    H142875   4.879   0.529   6.024
14306TIP3    H242876   4.825   0.667   6.053
14307TIP3   OH242877   0.849   1.736   3.642
14307TIP3    H142878   0.833   1.721   3.735
14307TIP3    H242879   0.915   1.804   3.639
14308TIP3   OH242880   6.724   1.707   0.949
14308TIP3    H142881   6.714   1.772   0.878
14308TIP3    H242882   6.752   1.627   0.904
14309TIP3   OH242883   8.032   2.555   6.429
14309TIP3    H142884   8.032   2.461   6.446
14309TIP3    H242885   7.941   2.576   6.410
14310TIP3   OH242886   1.830   7.055   4.252
14310TIP3    H142887   1.858   7.007   4.174
14310TIP3    H242888   1.902   7.046   4.314
14311TIP3   OH242889   0.335   7.768   3.345
14311TIP3    H142890   0.376   7.719   3.274
14311TIP3    H242891   0.394   7.756   3.420
14312TIP3   OH242892   7.862   1.269   5.387
14312TIP3    H142893   7.820   1.265   5.301
14312TIP3    H242894   7.956   1.279   5.367
14313TIP3   OH242895   1.546   7.729   0.904
14313TIP3    H142896   1.524   7.714   0.813
14313TIP3    H242897   1.533   7.645   0.947
14314TIP3   OH242898   5.960   7.073   1.304
14314TIP3    H142899   6.043   7.039   1.339
14314TIP3    H242900   5.981   7.163   1.277
14315TIP3   OH242901   4.859   5.157   5.835
14315TIP3    H142902   4.770   5.139   5.864
14315TIP3    H242903   4.852   5.234   5.779
14316TIP3   OH242904   7.385   6.527   4.923
14316TIP3    H142905   7.457   6.531   4.860
14316TIP3    H242906   7.377   6.434   4.944
14317TIP3   OH242907   7.380   0.503   6.013
14317TIP3    H142908   7.375   0.577   6.073
14317TIP3    H242909   7.290   0.489   5.984
14318TIP3   OH242910   3.887   1.209   3.470
14318TIP3    H142911   3.925   1.296   3.458
14318TIP3    H242912   3.925   1.157   3.400
14319TIP3   OH242913   2.149   6.360   3.736
14319TIP3    H142914   2.148   6.264   3.733
14319TIP3    H242915   2.135   6.381   3.829
14320TIP3   OH242916   6.128   5.692   6.266
14320TIP3    H142917   6.095   5.781   6.253
14320TIP3    H242918   6.058   5.635   6.234
14321TIP3   OH242919   4.907   5.655   5.769
14321TIP3    H142920   4.985   5.693   5.728
14321TIP3    H242921   4.913   5.681   5.861
14322TIP3   OH242922   6.668   3.370   2.321
14322TIP3    H142923   6.753   3.413   2.314
14322TIP3    H242924   6.631   3.405   2.402
14323TIP3   OH242925   4.853   4.189   4.505
14323TIP3    H142926   4.928   4.157   4.554
14323TIP3    H242927   4.802   4.240   4.568
14324TIP3   OH242928   1.481   4.084   1.835
14324TIP3    H142929   1.474   4.176   1.807
14324TIP3    H242930   1.549   4.085   1.903
14325TIP3   OH242931   0.735   0.973   2.620
14325TIP3    H142932   0.754   0.882   2.643
14325TIP3    H242933   0.643   0.984   2.643
14326TIP3   OH242934   3.360   2.446   2.394
14326TIP3    H142935   3.351   2.458   2.300
14326TIP3    H242936   3.322   2.360   2.411
14327TIP3   OH242937   1.337   7.308   2.632
14327TIP3    H142938   1.287   7.317   2.713
14327TIP3    H242939   1.294   7.237   2.584
14328TIP3   OH242940   5.119   3.418   3.311
14328TIP3    H142941   5.134   3.432   3.404
14328TIP3    H242942   5.053   3.483   3.287
14329TIP3   OH242943   1.194   4.980   6.182
14329TIP3    H142944   1.104   5.013   6.175
14329TIP3    H242945   1.219   4.999   6.272
14330TIP3   OH242946   3.503   7.103   2.320
14330TIP3    H142947   3.560   7.177   2.337
14330TIP3    H242948   3.558   7.026   2.334
14331TIP3   OH242949   4.260   4.418   2.900
14331TIP3    H142950   4.236   4.398   2.990
14331TIP3    H242951   4.237   4.340   2.851
14332TIP3   OH242952   3.645   4.730   6.735
14332TIP3    H142953   3.631   4.696   6.647
14332TIP3    H242954   3.709   4.670   6.774
14333TIP3   OH242955   3.181   7.414   1.535
14333TIP3    H142956   3.106   7.472   1.535
14333TIP3    H242957   3.257   7.471   1.548
14334TIP3   OH242958   5.058   2.908   3.082
14334TIP3    H142959   5.016   2.982   3.038
14334TIP3    H242960   4.995   2.836   3.075
14335TIP3   OH242961   6.490   4.094   5.835
14335TIP3    H142962   6.534   4.055   5.759
14335TIP3    H242963   6.474   4.020   5.894
14336TIP3   OH242964   3.707   7.081   1.595
14336TIP3    H142965   3.758   7.004   1.619
14336TIP3    H242966   3.769   7.154   1.601
14337TIP3   OH242967   2.245   1.187   3.169
14337TIP3    H142968   2.260   1.116   3.107
14337TIP3    H242969   2.162   1.165   3.211
14338TIP3   OH242970   8.185   0.569   6.144
14338TIP3    H142971   8.129   0.517   6.086
14338TIP3    H242972   8.127   0.597   6.214
14339TIP3   OH242973   1.812   0.881   1.781
14339TIP3    H142974   1.741   0.822   1.758
14339TIP3    H242975   1.854   0.840   1.857
14340TIP3   OH242976   4.296   5.809   3.870
14340TIP3    H142977   4.260   5.769   3.948
14340TIP3    H242978   4.292   5.741   3.803
14341TIP3   OH242979   7.583   5.062   3.041
14341TIP3    H142980   7.648   5.011   2.992
14341TIP3    H242981   7.634   5.106   3.109
14342TIP3   OH242982   4.600   5.414   2.525
14342TIP3    H142983   4.513   5.376   2.539
14342TIP3    H242984   4.636   5.426   2.613
14343TIP3   OH242985   0.082   3.500   2.844
14343TIP3    H142986  -0.001   3.546   2.833
14343TIP3    H242987   0.145   3.550   2.791
14344TIP3   OH242988   2.339   4.938   4.094
14344TIP3    H142989   2.253   4.895   4.099
14344TIP3    H242990   2.402   4.867   4.111
14345TIP3   OH242991   0.633   0.658   4.725
14345TIP3    H142992   0.689   0.614   4.788
14345TIP3    H242993   0.632   0.749   4.753
14346TIP3   OH242994   7.415   1.518   5.017
14346TIP3    H142995   7.444   1.472   4.938
14346TIP3    H242996   7.468   1.597   5.020
14347TIP3   OH242997   6.351   4.174   2.582
14347TIP3    H142998   6.429   4.218   2.615
14347TIP3    H242999   6.375   4.081   2.579
14348TIP3   OH243000   2.194   3.726   2.248
14348TIP3    H143001   2.280   3.729   2.289
14348TIP3    H243002   2.207   3.766   2.162
14349TIP3   OH243003   3.520   4.763   5.385
14349TIP3    H143004   3.474   4.709   5.450
14349TIP3    H243005   3.479   4.849   5.392
14350TIP3   OH243006   1.056   5.470   4.793
14350TIP3    H143007   0.962   5.483   4.793
14350TIP3    H243008   1.087   5.514   4.872
14351TIP3   OH243009   2.632   1.295   1.485
14351TIP3    H143010   2.629   1.209   1.526
14351TIP3    H243011   2.715   1.295   1.436
14352TIP3   OH243012   6.285   0.295   4.898
14352TIP3    H143013   6.279   0.304   4.803
14352TIP3    H243014   6.194   0.283   4.927
14353TIP3   OH243015   5.092   5.867   6.429
14353TIP3    H143016   5.007   5.905   6.447
14353TIP3    H243017   5.087   5.779   6.466
14354TIP3   OH243018   7.420   4.802   4.613
14354TIP3    H143019   7.368   4.741   4.665
14354TIP3    H243020   7.506   4.762   4.608
14355TIP3   OH243021   5.906   6.977   5.561
14355TIP3    H143022   5.842   7.040   5.528
14355TIP3    H243023   5.872   6.892   5.535
14356TIP3   OH243024   6.744   6.518   4.822
14356TIP3    H143025   6.677   6.587   4.828
14356TIP3    H243026   6.702   6.449   4.771
14357TIP3   OH243027   6.558   6.320   1.288
14357TIP3    H143028   6.566   6.322   1.384
14357TIP3    H243029   6.566   6.228   1.265
14358TIP3   OH243030   4.907   0.899   2.282
14358TIP3    H143031   4.817   0.882   2.307
14358TIP3    H243032   4.911   0.994   2.269
14359TIP3   OH243033   4.807   7.778   0.268
14359TIP3    H143034   4.812   7.693   0.312
14359TIP3    H243035   4.824   7.842   0.337
14360TIP3   OH243036   6.457   5.931   0.020
14360TIP3    H143037   6.499   5.986  -0.046
14360TIP3    H243038   6.439   5.990   0.093
14361TIP3   OH243039   2.135   2.922   5.343
14361TIP3    H143040   2.064   2.871   5.381
14361TIP3    H243041   2.103   2.949   5.257
14362TIP3   OH243042   7.996   1.908   0.363
14362TIP3    H143043   7.904   1.926   0.341
14362TIP3    H243044   8.028   1.856   0.289
14363TIP3   OH243045   0.062   0.860   5.513
14363TIP3    H143046   0.142   0.807   5.515
14363TIP3    H243047   0.093   0.950   5.500
14364TIP3   OH243048   0.481   2.865   5.229
14364TIP3    H143049   0.546   2.881   5.298
14364TIP3    H243050   0.399   2.852   5.276
14365TIP3   OH243051   2.992   4.191   5.027
14365TIP3    H143052   3.034   4.107   5.045
14365TIP3    H243053   2.922   4.170   4.965
14366TIP3   OH243054   0.539   3.173   3.770
14366TIP3    H143055   0.491   3.220   3.838
14366TIP3    H243056   0.488   3.188   3.691
14367TIP3   OH243057   3.527   3.210   4.451
14367TIP3    H143058   3.526   3.198   4.356
14367TIP3    H243059   3.607   3.164   4.480
14368TIP3   OH243060   2.854   2.320   5.915
14368TIP3    H143061   2.789   2.309   5.845
14368TIP3    H243062   2.898   2.235   5.919
14369TIP3   OH243063   5.559   5.261   2.826
14369TIP3    H143064   5.599   5.271   2.912
14369TIP3    H243065   5.611   5.316   2.768
14370TIP3   OH243066   2.018   3.406   2.854
14370TIP3    H143067   2.043   3.317   2.879
14370TIP3    H243068   1.928   3.398   2.822
14371TIP3   OH243069   1.073  -0.021   3.349
14371TIP3    H143070   1.051  -0.063   3.266
14371TIP3    H243071   1.066   0.073   3.330
14372TIP3   OH243072   6.429   6.801   4.073
14372TIP3    H143073   6.343   6.782   4.035
14372TIP3    H243074   6.479   6.838   4.000
14373TIP3   OH243075   4.625   4.262   4.993
14373TIP3    H143076   4.622   4.323   5.067
14373TIP3    H243077   4.715   4.228   4.994
14374TIP3   OH243078   6.246   0.187   2.132
14374TIP3    H143079   6.240   0.109   2.077
14374TIP3    H243080   6.237   0.153   2.222
14375TIP3   OH243081   6.461   3.869   2.357
14375TIP3    H143082   6.471   3.962   2.337
14375TIP3    H243083   6.470   3.825   2.273
14376TIP3   OH243084   6.198   1.848   0.373
14376TIP3    H143085   6.156   1.763   0.354
14376TIP3    H243086   6.289   1.835   0.349
14377TIP3   OH243087   1.898   7.880   5.228
14377TIP3    H143088   1.804   7.860   5.222
14377TIP3    H243089   1.922   7.855   5.317
14378TIP3   OH243090   4.036   2.646   3.617
14378TIP3    H143091   3.985   2.721   3.585
14378TIP3    H243092   4.127   2.669   3.598
14379TIP3   OH243093   6.146   2.771   1.230
14379TIP3    H143094   6.174   2.738   1.315
14379TIP3    H243095   6.221   2.822   1.199
14380TIP3   OH243096   3.866   2.583   0.146
14380TIP3    H143097   3.891   2.594   0.238
14380TIP3    H243098   3.804   2.653   0.129
14381TIP3   OH243099   0.397   3.655   2.439
14381TIP3    H143100   0.380   3.707   2.517
14381TIP3    H243101   0.454   3.710   2.385
14382TIP3   OH243102   3.367   5.785   3.170
14382TIP3    H143103   3.453   5.742   3.162
14382TIP3    H243104   3.305   5.714   3.182
14383TIP3   OH243105   8.042   6.582   3.677
14383TIP3    H143106   8.020   6.497   3.639
14383TIP3    H243107   8.133   6.573   3.705
14384TIP3   OH243108   2.366   0.037   2.761
14384TIP3    H143109   2.407   0.124   2.765
14384TIP3    H243110   2.287   0.050   2.709
14385TIP3   OH243111   3.263   3.898   4.132
14385TIP3    H143112   3.193   3.934   4.187
14385TIP3    H243113   3.220   3.878   4.049
14386TIP3   OH243114   6.354   6.087   3.941
14386TIP3    H143115   6.435   6.051   3.979
14386TIP3    H243116   6.327   6.022   3.876
14387TIP3   OH243117   1.484   3.991   5.286
14387TIP3    H143118   1.484   4.080   5.323
14387TIP3    H243119   1.575   3.961   5.296
14388TIP3   OH243120   1.153   6.793   1.493
14388TIP3    H143121   1.208   6.720   1.466
14388TIP3    H243122   1.173   6.806   1.585
14389TIP3   OH243123   6.073   4.692   2.523
14389TIP3    H143124   6.124   4.617   2.490
14389TIP3    H243125   6.138   4.747   2.566
14390TIP3   OH243126   3.109   1.381   5.065
14390TIP3    H143127   3.017   1.358   5.059
14390TIP3    H243128   3.153   1.298   5.084
14391TIP3   OH243129   5.636   4.720   1.855
14391TIP3    H143130   5.546   4.691   1.842
14391TIP3    H243131   5.647   4.792   1.792
14392TIP3   OH243132   5.760   6.440   0.825
14392TIP3    H143133   5.693   6.447   0.757
14392TIP3    H243134   5.826   6.504   0.801
14393TIP3   OH243135   5.983   0.759   4.869
14393TIP3    H143136   6.034   0.725   4.943
14393TIP3    H243137   5.978   0.853   4.886
14394TIP3   OH243138   2.435   4.511   3.495
14394TIP3    H143139   2.521   4.511   3.538
14394TIP3    H243140   2.453   4.477   3.408
14395TIP3   OH243141   4.937   2.823   5.544
14395TIP3    H143142   4.876   2.813   5.470
14395TIP3    H243143   5.015   2.862   5.504
14396TIP3   OH243144   0.296   2.784   4.240
14396TIP3    H143145   0.217   2.770   4.292
14396TIP3    H243146   0.351   2.840   4.295
14397TIP3   OH243147   4.032   6.719   1.984
14397TIP3    H143148   4.080   6.780   1.928
14397TIP3    H243149   4.004   6.649   1.925
14398TIP3   OH243150   0.711   4.296   1.899
14398TIP3    H143151   0.627   4.341   1.909
14398TIP3    H243152   0.777   4.364   1.914
14399TIP3   OH243153   7.770   6.100   3.071
14399TIP3    H143154   7.785   6.012   3.107
14399TIP3    H243155   7.822   6.102   2.991
14400TIP3   OH243156   1.553   2.437   4.192
14400TIP3    H143157   1.536   2.516   4.243
14400TIP3    H243158   1.519   2.456   4.105
14401TIP3   OH243159   5.666   6.248   6.591
14401TIP3    H143160   5.703   6.211   6.511
14401TIP3    H243161   5.606   6.316   6.561
14402TIP3   OH243162   4.786   6.576   2.222
14402TIP3    H143163   4.776   6.619   2.137
14402TIP3    H243164   4.719   6.508   2.223
14403TIP3   OH243165   4.022   1.126   5.903
14403TIP3    H143166   3.935   1.159   5.882
14403TIP3    H243167   4.007   1.051   5.961
14404TIP3   OH243168   4.440   5.879   5.633
14404TIP3    H143169   4.348   5.882   5.660
14404TIP3    H243170   4.437   5.880   5.537
14405TIP3   OH243171   6.194   7.744   3.435
14405TIP3    H143172   6.146   7.692   3.371
14405TIP3    H243173   6.277   7.766   3.392
14406TIP3   OH243174   6.731   7.034   4.194
14406TIP3    H143175   6.716   6.947   4.232
14406TIP3    H243176   6.679   7.035   4.114
14407TIP3   OH243177   1.720   6.736   0.249
14407TIP3    H143178   1.652   6.796   0.218
14407TIP3    H243179   1.734   6.761   0.340
14408TIP3   OH243180   4.711   6.732   0.118
14408TIP3    H143181   4.687   6.648   0.157
14408TIP3    H243182   4.772   6.772   0.180
14409TIP3   OH243183   4.114   6.137   6.566
14409TIP3    H143184   4.207   6.161   6.566
14409TIP3    H243185   4.114   6.041   6.571
14410TIP3   OH243186   4.867   6.018   3.916
14410TIP3    H143187   4.957   5.992   3.934
14410TIP3    H243188   4.813   5.949   3.957
14411TIP3   OH243189   6.434   2.940   0.832
14411TIP3    H143190   6.421   2.897   0.748
14411TIP3    H243191   6.525   2.923   0.856
14412TIP3   OH243192   5.412   4.900   1.792
14412TIP3    H143193   5.460   4.980   1.772
14412TIP3    H243194   5.403   4.901   1.887
14413TIP3   OH243195   7.543   7.128   3.364
14413TIP3    H143196   7.607   7.072   3.408
14413TIP3    H243197   7.460   7.083   3.376
14414TIP3   OH243198   7.994   3.011   3.512
14414TIP3    H143199   8.077   2.988   3.555
14414TIP3    H243200   7.943   2.930   3.514
14415TIP3   OH243201   6.790   6.974   3.034
14415TIP3    H143202   6.817   6.899   3.087
14415TIP3    H243203   6.724   7.019   3.088
14416TIP3   OH243204   1.027   4.232   1.793
14416TIP3    H143205   1.010   4.143   1.822
14416TIP3    H243206   1.023   4.284   1.873
14417TIP3   OH243207   8.192   6.234   3.438
14417TIP3    H143208   8.098   6.223   3.443
14417TIP3    H243209   8.206   6.295   3.365
14418TIP3   OH243210   2.524   0.376   3.516
14418TIP3    H143211   2.606   0.327   3.516
14418TIP3    H243212   2.487   0.359   3.603
14419TIP3   OH243213   6.849   4.583   2.023
14419TIP3    H143214   6.765   4.545   2.049
14419TIP3    H243215   6.841   4.676   2.046
14420TIP3   OH243216   3.408   5.313   1.630
14420TIP3    H143217   3.493   5.353   1.608
14420TIP3    H243218   3.429   5.223   1.654
14421TIP3   OH243219   7.372   4.545   5.749
14421TIP3    H143220   7.382   4.556   5.655
14421TIP3    H243221   7.331   4.627   5.778
14422TIP3   OH243222   4.949   7.409   5.433
14422TIP3    H143223   4.907   7.474   5.489
14422TIP3    H243224   4.906   7.327   5.455
14423TIP3   OH243225   7.417   3.137   2.438
14423TIP3    H143226   7.414   3.128   2.533
14423TIP3    H243227   7.383   3.054   2.405
14424TIP3   OH243228   4.988   2.360   1.792
14424TIP3    H143229   4.895   2.369   1.771
14424TIP3    H243230   4.995   2.391   1.883
14425TIP3   OH243231   7.353   3.470   1.763
14425TIP3    H143232   7.283   3.418   1.724
14425TIP3    H243233   7.308   3.539   1.812
14426TIP3   OH243234   0.750   4.181   0.892
14426TIP3    H143235   0.796   4.196   0.809
14426TIP3    H243236   0.666   4.225   0.881
14427TIP3   OH243237   2.385   1.267   1.347
14427TIP3    H143238   2.320   1.296   1.411
14427TIP3    H243239   2.469   1.279   1.391
14428TIP3   OH243240   0.266   0.539   0.841
14428TIP3    H143241   0.268   0.631   0.868
14428TIP3    H243242   0.204   0.537   0.768
14429TIP3   OH243243   7.972   6.785   3.884
14429TIP3    H143244   8.062   6.810   3.861
14429TIP3    H243245   7.982   6.709   3.941
14430TIP3   OH243246   2.142   1.748   3.199
14430TIP3    H143247   2.056   1.770   3.163
14430TIP3    H243248   2.201   1.813   3.160
14431TIP3   OH243249   4.547   0.544   1.651
14431TIP3    H143250   4.510   0.483   1.588
14431TIP3    H243251   4.552   0.494   1.733
14432TIP3   OH243252   4.806   2.503   6.389
14432TIP3    H143253   4.836   2.452   6.314
14432TIP3    H243254   4.795   2.439   6.459
14433TIP3   OH243255   4.588   3.035   0.890
14433TIP3    H143256   4.610   3.078   0.972
14433TIP3    H243257   4.612   2.943   0.903
14434TIP3   OH243258   8.062   7.587   3.895
14434TIP3    H143259   8.083   7.506   3.848
14434TIP3    H243260   8.135   7.599   3.956
14435TIP3   OH243261   4.576   2.784   5.998
14435TIP3    H143262   4.626   2.736   5.933
14435TIP3    H243263   4.592   2.737   6.080
14436TIP3   OH243264   3.473   6.552   1.358
14436TIP3    H143265   3.396   6.593   1.397
14436TIP3    H243266   3.528   6.528   1.432
14437TIP3   OH243267   1.120   0.381   4.966
14437TIP3    H143268   1.207   0.370   4.927
14437TIP3    H243269   1.106   0.475   4.966
14438TIP3   OH243270   5.615   0.741   5.847
14438TIP3    H143271   5.673   0.701   5.912
14438TIP3    H243272   5.575   0.666   5.802
14439TIP3   OH243273   5.672   7.423   2.577
14439TIP3    H143274   5.636   7.335   2.573
14439TIP3    H243275   5.601   7.479   2.545
14440TIP3   OH243276   3.151   0.727   5.711
14440TIP3    H143277   3.232   0.692   5.748
14440TIP3    H243278   3.180   0.781   5.638
14441TIP3   OH243279   7.554   5.910   4.530
14441TIP3    H143280   7.522   5.829   4.490
14441TIP3    H243281   7.645   5.890   4.555
14442TIP3   OH243282   4.732   6.622   6.480
14442TIP3    H143283   4.668   6.609   6.410
14442TIP3    H243284   4.783   6.541   6.481
14443TIP3   OH243285   6.526   7.671   6.105
14443TIP3    H143286   6.512   7.576   6.099
14443TIP3    H243287   6.466   7.699   6.174
14444TIP3   OH243288   2.234   0.173   0.961
14444TIP3    H143289   2.284   0.199   1.039
14444TIP3    H243290   2.290   0.109   0.917
14445TIP3   OH243291   2.642   1.821   3.414
14445TIP3    H143292   2.628   1.762   3.489
14445TIP3    H243293   2.654   1.907   3.454
14446TIP3   OH243294   2.314   3.582   5.569
14446TIP3    H143295   2.321   3.513   5.635
14446TIP3    H243296   2.404   3.614   5.558
14447TIP3   OH243297   2.127   6.854   5.157
14447TIP3    H143298   2.137   6.807   5.075
14447TIP3    H243299   2.167   6.798   5.223
14448TIP3   OH243300   6.689   0.827   4.237
14448TIP3    H143301   6.646   0.870   4.311
14448TIP3    H243302   6.658   0.875   4.160
14449TIP3   OH243303   1.114   2.440   5.467
14449TIP3    H143304   1.107   2.535   5.474
14449TIP3    H243305   1.202   2.424   5.433
14450TIP3   OH243306   6.035   3.407   0.393
14450TIP3    H143307   6.048   3.318   0.359
14450TIP3    H243308   5.952   3.402   0.440
14451TIP3   OH243309   3.291   1.293   4.524
14451TIP3    H143310   3.306   1.286   4.619
14451TIP3    H243311   3.343   1.368   4.497
14452TIP3   OH243312   1.875   4.999   6.399
14452TIP3    H143313   1.871   4.916   6.448
14452TIP3    H243314   1.847   5.065   6.463
14453TIP3   OH243315   4.075   4.407   4.089
14453TIP3    H143316   3.996   4.425   4.038
14453TIP3    H243317   4.115   4.332   4.047
14454TIP3   OH243318   0.003   3.472   0.517
14454TIP3    H143319  -0.030   3.506   0.434
14454TIP3    H243320   0.051   3.545   0.556
14455TIP3   OH243321   3.592   5.817   2.745
14455TIP3    H143322   3.591   5.879   2.818
14455TIP3    H243323   3.516   5.761   2.760
14456TIP3   OH243324   0.316   2.633   0.390
14456TIP3    H143325   0.355   2.554   0.351
14456TIP3    H243326   0.259   2.599   0.459
14457TIP3   OH243327   4.769   4.341   3.665
14457TIP3    H143328   4.739   4.395   3.592
14457TIP3    H243329   4.742   4.389   3.743
14458TIP3   OH243330   4.496   0.740   4.864
14458TIP3    H143331   4.428   0.682   4.899
14458TIP3    H243332   4.450   0.823   4.848
14459TIP3   OH243333   7.929   6.028   1.437
14459TIP3    H143334   7.955   5.995   1.522
14459TIP3    H243335   7.862   5.967   1.407
14460TIP3   OH243336   8.140   1.659   4.997
14460TIP3    H143337   8.222   1.704   5.017
14460TIP3    H243338   8.148   1.635   4.905
14461TIP3   OH243339   4.672   7.393   3.174
14461TIP3    H143340   4.755   7.439   3.186
14461TIP3    H243341   4.660   7.343   3.255
14462TIP3   OH243342   2.465   4.143   6.568
14462TIP3    H143343   2.379   4.106   6.552
14462TIP3    H243344   2.456   4.237   6.551
14463TIP3   OH243345   4.493   5.957   2.662
14463TIP3    H143346   4.401   5.929   2.651
14463TIP3    H243347   4.541   5.904   2.598
14464TIP3   OH243348   3.592   2.254   6.365
14464TIP3    H143349   3.668   2.297   6.403
14464TIP3    H243350   3.625   2.169   6.334
14465TIP3   OH243351   2.617   6.190   1.030
14465TIP3    H143352   2.564   6.177   1.109
14465TIP3    H243353   2.701   6.223   1.062
14466TIP3   OH243354   2.186   2.347   5.340
14466TIP3    H143355   2.199   2.438   5.316
14466TIP3    H243356   2.234   2.297   5.274
14467TIP3   OH243357   4.606   2.621   0.212
14467TIP3    H143358   4.643   2.702   0.177
14467TIP3    H243359   4.670   2.592   0.277
14468TIP3   OH243360   3.045   0.677   6.631
14468TIP3    H143361   3.083   0.688   6.544
14468TIP3    H243362   3.075   0.591   6.659
14469TIP3   OH243363   1.972   6.478   4.468
14469TIP3    H143364   1.975   6.543   4.398
14469TIP3    H243365   1.984   6.527   4.548
14470TIP3   OH243366   0.798   0.694   1.822
14470TIP3    H143367   0.828   0.783   1.840
14470TIP3    H243368   0.838   0.641   1.891
14471TIP3   OH243369   1.458   6.135   5.388
14471TIP3    H143370   1.386   6.188   5.354
14471TIP3    H243371   1.505   6.105   5.309
14472TIP3   OH243372   5.410   0.697   3.636
14472TIP3    H143373   5.431   0.766   3.573
14472TIP3    H243374   5.323   0.720   3.668
14473TIP3   OH243375   6.903   2.952   1.806
14473TIP3    H143376   6.875   3.040   1.832
14473TIP3    H243377   6.985   2.938   1.853
14474TIP3   OH243378   4.632   6.711   5.112
14474TIP3    H143379   4.555   6.673   5.068
14474TIP3    H243380   4.598   6.788   5.156
14475TIP3   OH243381   3.183   3.741   3.536
14475TIP3    H143382   3.095   3.713   3.563
14475TIP3    H243383   3.192   3.829   3.572
14476TIP3   OH243384   7.672   0.549   4.144
14476TIP3    H143385   7.736   0.524   4.076
14476TIP3    H243386   7.673   0.475   4.205
14477TIP3   OH243387   6.239   2.281   0.837
14477TIP3    H143388   6.213   2.342   0.906
14477TIP3    H243389   6.159   2.235   0.813
14478TIP3   OH243390   6.354   5.893   6.817
14478TIP3    H143391   6.271   5.919   6.779
14478TIP3    H243392   6.368   5.803   6.785
14479TIP3   OH243393   0.922   3.553   2.296
14479TIP3    H143394   0.905   3.524   2.385
14479TIP3    H243395   0.984   3.489   2.261
14480TIP3   OH243396   0.700   2.416   6.052
14480TIP3    H143397   0.708   2.489   5.990
14480TIP3    H243398   0.615   2.377   6.031
14481TIP3   OH243399   6.688   5.181   5.618
14481TIP3    H143400   6.597   5.157   5.636
14481TIP3    H243401   6.729   5.099   5.589
14482TIP3   OH243402   5.600   1.376   6.043
14482TIP3    H143403   5.508   1.376   6.017
14482TIP3    H243404   5.599   1.362   6.137
14483TIP3   OH243405   6.032   0.336   6.771
14483TIP3    H143406   6.112   0.334   6.719
14483TIP3    H243407   5.983   0.411   6.737
14484TIP3   OH243408   1.436   1.029   5.665
14484TIP3    H143409   1.360   1.085   5.652
14484TIP3    H243410   1.484   1.069   5.737
14485TIP3   OH243411   0.174   3.978   1.098
14485TIP3    H143412   0.143   4.068   1.089
14485TIP3    H243413   0.158   3.939   1.012
14486TIP3   OH243414   2.571   4.373   0.512
14486TIP3    H143415   2.649   4.358   0.565
14486TIP3    H243416   2.534   4.454   0.547
14487TIP3   OH243417   1.443   4.482   4.202
14487TIP3    H143418   1.474   4.404   4.156
14487TIP3    H243419   1.498   4.487   4.280
14488TIP3   OH243420   1.651   5.823   2.248
14488TIP3    H143421   1.660   5.744   2.300
14488TIP3    H243422   1.676   5.797   2.159
14489TIP3   OH243423   3.042   0.894   5.072
14489TIP3    H143424   3.093   0.813   5.071
14489TIP3    H243425   2.999   0.895   5.157
14490TIP3   OH243426   3.444   1.969   4.716
14490TIP3    H143427   3.477   2.056   4.737
14490TIP3    H243428   3.351   1.982   4.695
14491TIP3   OH243429   6.084   0.093   4.210
14491TIP3    H143430   6.059   0.063   4.122
14491TIP3    H243431   6.045   0.029   4.269
14492TIP3   OH243432   4.556   0.883   0.869
14492TIP3    H143433   4.564   0.973   0.837
14492TIP3    H243434   4.530   0.892   0.961
14493TIP3   OH243435   2.970   2.846   4.001
14493TIP3    H143436   2.948   2.923   4.053
14493TIP3    H243437   3.023   2.792   4.060
14494TIP3   OH243438   7.649   5.486   4.533
14494TIP3    H143439   7.655   5.563   4.590
14494TIP3    H243440   7.644   5.412   4.593
14495TIP3   OH243441   5.671   7.719   1.944
14495TIP3    H143442   5.751   7.762   1.975
14495TIP3    H243443   5.640   7.669   2.020
14496TIP3   OH243444   1.340   5.208   2.294
14496TIP3    H143445   1.293   5.214   2.377
14496TIP3    H243446   1.402   5.136   2.306
14497TIP3   OH243447   2.096   7.087   3.457
14497TIP3    H143448   2.041   7.030   3.404
14497TIP3    H243449   2.041   7.111   3.531
14498TIP3   OH243450   2.026   1.781   2.371
14498TIP3    H143451   2.106   1.730   2.361
14498TIP3    H243452   1.996   1.796   2.281
14499TIP3   OH243453   7.192   7.786   2.229
14499TIP3    H143454   7.195   7.828   2.143
14499TIP3    H243455   7.116   7.825   2.272
14500TIP3   OH243456   5.251   3.383   3.815
14500TIP3    H143457   5.201   3.317   3.767
14500TIP3    H243458   5.210   3.386   3.901
14501TIP3   OH243459   6.102   0.216   2.613
14501TIP3    H143460   6.099   0.120   2.614
14501TIP3    H243461   6.188   0.237   2.576
14502TIP3   OH243462   6.762   6.787   3.266
14502TIP3    H143463   6.817   6.737   3.206
14502TIP3    H243464   6.820   6.810   3.339
14503TIP3   OH243465   7.020   3.643   6.293
14503TIP3    H143466   6.984   3.618   6.207
14503TIP3    H243467   6.969   3.592   6.356
14504TIP3   OH243468   6.498   5.923   6.542
14504TIP3    H143469   6.418   5.873   6.528
14504TIP3    H243470   6.562   5.859   6.571
14505TIP3   OH243471   5.245   4.678   4.549
14505TIP3    H143472   5.321   4.726   4.580
14505TIP3    H243473   5.249   4.684   4.453
14506TIP3   OH243474   2.840   4.446   0.023
14506TIP3    H143475   2.800   4.379  -0.032
14506TIP3    H243476   2.805   4.430   0.110
14507TIP3   OH243477   1.442   4.466   6.119
14507TIP3    H143478   1.533   4.450   6.097
14507TIP3    H243479   1.399   4.482   6.035
14508TIP3   OH243480   2.608   0.967   3.973
14508TIP3    H143481   2.692   0.996   4.010
14508TIP3    H243482   2.632   0.923   3.892
14509TIP3   OH243483   1.735   1.043   0.460
14509TIP3    H143484   1.714   0.989   0.537
14509TIP3    H243485   1.820   1.081   0.480
14510TIP3   OH243486   5.098   1.361   1.869
14510TIP3    H143487   5.124   1.270   1.885
14510TIP3    H243488   5.173   1.412   1.898
14511TIP3   OH243489   0.880   3.278   4.797
14511TIP3    H143490   0.871   3.315   4.709
14511TIP3    H243491   0.829   3.197   4.794
14512TIP3   OH243492   8.206   4.145   6.070
14512TIP3    H143493   8.238   4.146   6.160
14512TIP3    H243494   8.111   4.149   6.077
14513TIP3   OH243495   3.854   6.366   5.915
14513TIP3    H143496   3.776   6.420   5.921
14513TIP3    H243497   3.841   6.313   5.836
14514TIP3   OH243498   8.273   0.170   0.446
14514TIP3    H143499   8.260   0.250   0.498
14514TIP3    H243500   8.242   0.099   0.502
14515TIP3   OH243501   4.588   4.817   4.165
14515TIP3    H143502   4.534   4.873   4.110
14515TIP3    H243503   4.531   4.744   4.189
14516TIP3   OH243504   8.151   4.017   4.929
14516TIP3    H143505   8.126   3.979   5.013
14516TIP3    H243506   8.133   4.111   4.940
14517TIP3   OH243507   1.918   5.943   4.475
14517TIP3    H143508   1.884   6.003   4.408
14517TIP3    H243509   2.007   5.923   4.446
14518TIP3   OH243510   0.186   0.439   1.149
14518TIP3    H143511   0.260   0.403   1.100
14518TIP3    H243512   0.216   0.439   1.240
14519TIP3   OH243513   3.323   5.365   1.966
14519TIP3    H143514   3.287   5.277   1.953
14519TIP3    H243515   3.255   5.412   2.014
14520TIP3   OH243516   2.118   7.225   2.819
14520TIP3    H143517   2.107   7.147   2.872
14520TIP3    H243518   2.153   7.291   2.879
14521TIP3   OH243519   7.278   3.419   4.409
14521TIP3    H143520   7.254   3.512   4.407
14521TIP3    H243521   7.205   3.377   4.455
14522TIP3   OH243522   3.213   4.314   5.557
14522TIP3    H143523   3.185   4.294   5.468
14522TIP3    H243524   3.145   4.275   5.612
14523TIP3   OH243525   7.249   7.555   4.671
14523TIP3    H143526   7.296   7.510   4.601
14523TIP3    H243527   7.291   7.641   4.677
14524TIP3   OH243528   5.409   1.768   0.328
14524TIP3    H143529   5.481   1.762   0.390
14524TIP3    H243530   5.361   1.686   0.340
14525TIP3   OH243531   0.760   0.202   1.040
14525TIP3    H143532   0.855   0.207   1.026
14525TIP3    H243533   0.724   0.194   0.952
14526TIP3   OH243534   3.483   4.311   3.850
14526TIP3    H143535   3.436   4.256   3.912
14526TIP3    H243536   3.428   4.389   3.842
14527TIP3   OH243537   3.824   6.229   1.848
14527TIP3    H143538   3.826   6.169   1.923
14527TIP3    H243539   3.827   6.171   1.772
14528TIP3   OH243540   3.298   2.287   6.428
14528TIP3    H143541   3.249   2.312   6.349
14528TIP3    H243542   3.390   2.293   6.402
14529TIP3   OH243543   4.245   6.736   5.381
14529TIP3    H143544   4.334   6.704   5.393
14529TIP3    H243545   4.201   6.716   5.464
14530TIP3   OH243546   6.029   0.494   2.559
14530TIP3    H143547   6.039   0.401   2.536
14530TIP3    H243548   6.020   0.495   2.654
14531TIP3   OH243549   2.298   4.525   0.071
14531TIP3    H143550   2.219   4.498   0.119
14531TIP3    H243551   2.296   4.473  -0.010
14532TIP3   OH243552   4.686   4.259   5.868
14532TIP3    H143553   4.628   4.214   5.806
14532TIP3    H243554   4.766   4.207   5.868
14533TIP3   OH243555   0.115   5.955   2.111
14533TIP3    H143556   0.131   6.034   2.163
14533TIP3    H243557   0.163   5.970   2.030
14534TIP3   OH243558   1.981   3.126   1.913
14534TIP3    H143559   1.945   3.050   1.868
14534TIP3    H243560   2.031   3.173   1.846
14535TIP3   OH243561   3.793   3.897   3.407
14535TIP3    H143562   3.826   3.987   3.404
14535TIP3    H243563   3.744   3.893   3.489
14536TIP3   OH243564   5.921   6.294   1.657
14536TIP3    H143565   5.859   6.254   1.596
14536TIP3    H243566   5.993   6.232   1.663
14537TIP3   OH243567   4.736   6.011   2.851
14537TIP3    H143568   4.807   5.965   2.806
14537TIP3    H243569   4.656   5.975   2.812
14538TIP3   OH243570   1.085   2.459   4.059
14538TIP3    H143571   1.065   2.449   4.152
14538TIP3    H243572   1.109   2.551   4.050
14539TIP3   OH243573   2.638   6.215   1.545
14539TIP3    H143574   2.572   6.242   1.609
14539TIP3    H243575   2.718   6.257   1.574
14540TIP3   OH243576   3.883   6.310   2.467
14540TIP3    H143577   3.809   6.313   2.406
14540TIP3    H243578   3.892   6.401   2.498
14541TIP3   OH243579   7.376   0.956   5.895
14541TIP3    H143580   7.437   0.928   5.827
14541TIP3    H243581   7.432   0.973   5.971
14542TIP3   OH243582   5.235   0.058   0.304
14542TIP3    H143583   5.308   0.063   0.243
14542TIP3    H243584   5.231  -0.034   0.331
14543TIP3   OH243585   4.591   2.879   5.064
14543TIP3    H143586   4.550   2.799   5.032
14543TIP3    H243587   4.522   2.945   5.060
14544TIP3   OH243588   4.259   3.397   1.852
14544TIP3    H143589   4.270   3.316   1.901
14544TIP3    H243590   4.262   3.371   1.760
14545TIP3   OH243591   0.806   4.868   0.351
14545TIP3    H143592   0.722   4.860   0.396
14545TIP3    H243593   0.793   4.941   0.290
14546TIP3   OH243594   3.384   5.628   3.501
14546TIP3    H143595   3.308   5.571   3.511
14546TIP3    H243596   3.437   5.585   3.433
14547TIP3   OH243597   4.171   4.782   6.565
14547TIP3    H143598   4.126   4.770   6.649
14547TIP3    H243599   4.263   4.793   6.588
14548TIP3   OH243600   3.365   1.570   5.549
14548TIP3    H143601   3.407   1.640   5.599
14548TIP3    H243602   3.406   1.490   5.582
14549TIP3   OH243603   1.441   4.807   3.625
14549TIP3    H143604   1.401   4.734   3.578
14549TIP3    H243605   1.422   4.884   3.570
14550TIP3   OH243606   6.980   1.687   1.449
14550TIP3    H143607   6.943   1.645   1.371
14550TIP3    H243608   6.969   1.780   1.432
14551TIP3   OH243609   1.152   3.807   3.612
14551TIP3    H143610   1.186   3.889   3.576
14551TIP3    H243611   1.059   3.824   3.625
14552TIP3   OH243612   4.409   7.168   5.724
14552TIP3    H143613   4.340   7.233   5.740
14552TIP3    H243614   4.362   7.089   5.700
14553TIP3   OH243615   5.159   0.180   4.557
14553TIP3    H143616   5.159   0.154   4.465
14553TIP3    H243617   5.091   0.126   4.597
14554TIP3   OH243618   2.299   2.494   6.397
14554TIP3    H143619   2.341   2.549   6.463
14554TIP3    H243620   2.303   2.405   6.432
14555TIP3   OH243621   7.021   1.529   5.497
14555TIP3    H143622   7.058   1.589   5.432
14555TIP3    H243623   7.029   1.442   5.456
14556TIP3   OH243624   8.028   0.603   0.436
14556TIP3    H143625   8.085   0.642   0.370
14556TIP3    H243626   8.088   0.561   0.498
14557TIP3   OH243627   1.954   7.250   6.074
14557TIP3    H143628   1.929   7.161   6.098
14557TIP3    H243629   2.022   7.239   6.007
14558TIP3   OH243630   6.768   5.919   6.102
14558TIP3    H143631   6.753   5.942   6.010
14558TIP3    H243632   6.845   5.862   6.100
14559TIP3   OH243633   2.179   4.463   0.617
14559TIP3    H143634   2.126   4.498   0.689
14559TIP3    H243635   2.115   4.438   0.550
14560TIP3   OH243636   2.664   4.373   6.762
14560TIP3    H143637   2.754   4.370   6.794
14560TIP3    H243638   2.669   4.341   6.672
14561TIP3   OH243639   3.944   7.212   2.296
14561TIP3    H143640   3.979   7.150   2.360
14561TIP3    H243641   4.017   7.270   2.275
14562TIP3   OH243642   5.755   4.817   0.134
14562TIP3    H143643   5.688   4.763   0.175
14562TIP3    H243644   5.707   4.889   0.093
14563TIP3   OH243645   8.159   3.439   6.621
14563TIP3    H143646   8.229   3.423   6.558
14563TIP3    H243647   8.196   3.414   6.706
14564TIP3   OH243648   4.425   4.972   3.312
14564TIP3    H143649   4.496   4.927   3.359
14564TIP3    H243650   4.420   4.929   3.227
14565TIP3   OH243651   5.979   2.300   3.121
14565TIP3    H143652   6.063   2.344   3.106
14565TIP3    H243653   6.001   2.207   3.123
14566TIP3   OH243654   4.292   1.501   2.815
14566TIP3    H143655   4.204   1.463   2.809
14566TIP3    H243656   4.309   1.535   2.727
14567TIP3   OH243657   5.941   5.245   5.874
14567TIP3    H143658   6.021   5.253   5.927
14567TIP3    H243659   5.871   5.276   5.931
14568TIP3   OH243660   1.599   3.915   3.140
14568TIP3    H143661   1.542   3.989   3.121
14568TIP3    H243662   1.673   3.924   3.080
14569TIP3   OH243663   0.171   5.445   6.147
14569TIP3    H143664   0.095   5.500   6.126
14569TIP3    H243665   0.234   5.462   6.077
14570TIP3   OH243666   2.730   0.152   6.046
14570TIP3    H143667   2.767   0.231   6.086
14570TIP3    H243668   2.727   0.089   6.117
14571TIP3   OH243669   0.669   5.036   6.026
14571TIP3    H143670   0.648   4.973   6.095
14571TIP3    H243671   0.585   5.061   5.989
14572TIP3   OH243672   7.146   3.265   1.687
14572TIP3    H143673   7.097   3.204   1.630
14572TIP3    H243674   7.078   3.316   1.730
14573TIP3   OH243675   7.841   7.667   1.095
14573TIP3    H143676   7.895   7.745   1.085
14573TIP3    H243677   7.895   7.595   1.061
14574TIP3   OH243678   6.438   3.693   2.583
14574TIP3    H143679   6.384   3.745   2.642
14574TIP3    H243680   6.434   3.739   2.499
14575TIP3   OH243681   8.212   3.952   2.101
14575TIP3    H143682   8.222   3.892   2.175
14575TIP3    H243683   8.171   4.030   2.139
14576TIP3   OH243684   2.839   4.485   6.070
14576TIP3    H143685   2.859   4.521   5.984
14576TIP3    H243686   2.793   4.404   6.052
14577TIP3   OH243687   1.282   5.977   2.494
14577TIP3    H143688   1.290   5.881   2.500
14577TIP3    H243689   1.308   6.008   2.581
14578TIP3   OH243690   4.389   0.032   3.217
14578TIP3    H143691   4.295   0.032   3.197
14578TIP3    H243692   4.431   0.058   3.135
14579TIP3   OH243693   0.079   6.673   5.412
14579TIP3    H143694   0.011   6.693   5.476
14579TIP3    H243695   0.123   6.757   5.397
14580TIP3   OH243696   4.105   5.570   0.348
14580TIP3    H143697   4.085   5.662   0.364
14580TIP3    H243698   4.092   5.558   0.254
14581TIP3   OH243699   5.331   7.406   5.034
14581TIP3    H143700   5.312   7.412   5.128
14581TIP3    H243701   5.427   7.403   5.029
14582TIP3   OH243702   8.151   4.505   5.943
14582TIP3    H143703   8.208   4.576   5.973
14582TIP3    H243704   8.185   4.482   5.856
14583TIP3   OH243705   5.907   3.979   4.115
14583TIP3    H143706   5.869   4.060   4.081
14583TIP3    H243707   6.000   3.987   4.097
14584TIP3   OH243708   3.907   3.443   2.625
14584TIP3    H143709   3.899   3.470   2.717
14584TIP3    H243710   3.964   3.509   2.586
14585TIP3   OH243711   1.765   2.471   6.412
14585TIP3    H143712   1.718   2.459   6.330
14585TIP3    H243713   1.851   2.504   6.386
14586TIP3   OH243714   5.578   5.892   3.009
14586TIP3    H143715   5.605   5.812   2.964
14586TIP3    H243716   5.520   5.936   2.947
14587TIP3   OH243717   3.148   2.054   6.478
14587TIP3    H143718   3.194   2.135   6.455
14587TIP3    H243719   3.129   2.063   6.572
14588TIP3   OH243720   2.576   3.196   5.537
14588TIP3    H143721   2.632   3.167   5.464
14588TIP3    H243722   2.488   3.176   5.507
14589TIP3   OH243723   0.893   2.745   6.619
14589TIP3    H143724   0.979   2.785   6.603
14589TIP3    H243725   0.910   2.651   6.622
14590TIP3   OH243726   6.390   3.139   2.644
14590TIP3    H143727   6.453   3.119   2.574
14590TIP3    H243728   6.343   3.056   2.658
14591TIP3   OH243729   0.173   4.088   0.203
14591TIP3    H143730   0.117   4.012   0.212
14591TIP3    H243731   0.163   4.136   0.285
14592TIP3   OH243732   5.014   1.762   0.217
14592TIP3    H143733   4.980   1.847   0.189
14592TIP3    H243734   5.070   1.734   0.145
14593TIP3   OH243735   2.826   1.404   0.839
14593TIP3    H143736   2.908   1.454   0.844
14593TIP3    H243737   2.765   1.462   0.793
14594TIP3   OH243738   1.274   4.397   0.004
14594TIP3    H143739   1.312   4.440   0.081
14594TIP3    H243740   1.343   4.400  -0.062
14595TIP3   OH243741   6.479   6.509   1.764
14595TIP3    H143742   6.465   6.447   1.836
14595TIP3    H243743   6.413   6.486   1.699
14596TIP3   OH243744   5.387   6.878   0.578
14596TIP3    H143745   5.303   6.912   0.609
14596TIP3    H243746   5.413   6.815   0.646
14597TIP3   OH243747   2.316   0.266   0.700
14597TIP3    H143748   2.265   0.238   0.777
14597TIP3    H243749   2.366   0.188   0.676
14598TIP3   OH243750   0.190   0.774   2.932
14598TIP3    H143751   0.273   0.821   2.923
14598TIP3    H243752   0.123   0.841   2.920
14599TIP3   OH243753   2.699   3.402   2.221
14599TIP3    H143754   2.729   3.492   2.238
14599TIP3    H243755   2.779   3.350   2.221
14600TIP3   OH243756   3.860   3.490   3.468
14600TIP3    H143757   3.799   3.559   3.494
14600TIP3    H243758   3.866   3.433   3.544
14601TIP3   OH243759   7.964   5.725   0.080
14601TIP3    H143760   7.935   5.816   0.071
14601TIP3    H243761   8.000   5.719   0.168
14602TIP3   OH243762   0.911   1.153   6.563
14602TIP3    H143763   0.951   1.090   6.623
14602TIP3    H243764   0.866   1.215   6.620
14603TIP3   OH243765   8.241   3.246   3.589
14603TIP3    H143766   8.187   3.215   3.662
14603TIP3    H243767   8.179   3.256   3.516
14604TIP3   OH243768   8.248   2.234   6.527
14604TIP3    H143769   8.153   2.233   6.517
14604TIP3    H243770   8.262   2.263   6.617
14605TIP3   OH243771   2.809   6.076   4.099
14605TIP3    H143772   2.892   6.053   4.056
14605TIP3    H243773   2.818   6.169   4.120
14606TIP3   OH243774   1.608   3.514   3.129
14606TIP3    H143775   1.573   3.515   3.218
14606TIP3    H243776   1.541   3.559   3.077
14607TIP3   OH243777   3.473   4.372   1.616
14607TIP3    H143778   3.555   4.342   1.575
14607TIP3    H243779   3.409   4.304   1.594
14608TIP3   OH243780   7.552   5.852   0.603
14608TIP3    H143781   7.482   5.903   0.644
14608TIP3    H243782   7.506   5.787   0.550
14609TIP3   OH243783   7.031   5.474   5.035
14609TIP3    H143784   7.017   5.566   5.059
14609TIP3    H243785   6.955   5.452   4.982
14610TIP3   OH243786   0.397   1.348   6.379
14610TIP3    H143787   0.440   1.265   6.356
14610TIP3    H243788   0.305   1.325   6.392
14611TIP3   OH243789   4.402   7.668   4.791
14611TIP3    H143790   4.469   7.600   4.783
14611TIP3    H243791   4.420   7.728   4.719
14612TIP3   OH243792   8.216   6.770   5.619
14612TIP3    H143793   8.160   6.846   5.634
14612TIP3    H243794   8.209   6.719   5.699
14613TIP3   OH243795   1.032   5.743   3.641
14613TIP3    H143796   0.954   5.791   3.613
14613TIP3    H243797   1.042   5.765   3.733
14614TIP3   OH243798   8.009   1.448   5.591
14614TIP3    H143799   8.024   1.369   5.643
14614TIP3    H243800   7.927   1.431   5.544
14615TIP3   OH243801   2.539   2.474   3.100
14615TIP3    H143802   2.608   2.475   3.033
14615TIP3    H243803   2.586   2.474   3.183
14616TIP3   OH243804   6.147   1.507   4.027
14616TIP3    H143805   6.227   1.468   3.992
14616TIP3    H243806   6.088   1.432   4.039
14617TIP3   OH243807   5.485   6.151   4.149
14617TIP3    H143808   5.401   6.195   4.138
14617TIP3    H243809   5.502   6.108   4.065
14618TIP3   OH243810   2.519   1.063  -0.033
14618TIP3    H143811   2.542   1.010   0.043
14618TIP3    H243812   2.448   1.120  -0.002
14619TIP3   OH243813   1.259   5.763   3.516
14619TIP3    H143814   1.260   5.696   3.448
14619TIP3    H243815   1.182   5.743   3.568
14620TIP3   OH243816   3.546   7.571   2.604
14620TIP3    H143817   3.595   7.541   2.681
14620TIP3    H243818   3.612   7.582   2.536
14621TIP3   OH243819   7.632   6.836   5.563
14621TIP3    H143820   7.541   6.851   5.536
14621TIP3    H243821   7.671   6.787   5.491
14622TIP3   OH243822   0.816   0.424   6.097
14622TIP3    H143823   0.843   0.466   6.015
14622TIP3    H243824   0.897   0.415   6.147
14623TIP3   OH243825   6.215   7.033   1.383
14623TIP3    H143826   6.212   7.108   1.443
14623TIP3    H243827   6.208   6.957   1.441
14624TIP3   OH243828   0.432   3.137   5.172
14624TIP3    H143829   0.426   3.041   5.179
14624TIP3    H243830   0.507   3.152   5.115
14625TIP3   OH243831   7.366   3.939   5.318
14625TIP3    H143832   7.354   4.025   5.359
14625TIP3    H243833   7.313   3.943   5.239
14626TIP3   OH243834   1.181   3.700   0.076
14626TIP3    H143835   1.176   3.612   0.112
14626TIP3    H243836   1.138   3.694  -0.009
14627TIP3   OH243837   7.625   1.577   1.616
14627TIP3    H143838   7.626   1.544   1.526
14627TIP3    H243839   7.689   1.648   1.616
14628TIP3   OH243840   5.870   4.021   4.660
14628TIP3    H143841   5.948   4.074   4.676
14628TIP3    H243842   5.902   3.931   4.657
14629TIP3   OH243843   7.825   6.644   0.020
14629TIP3    H143844   7.793   6.687  -0.059
14629TIP3    H243845   7.769   6.677   0.090
14630TIP3   OH243846   4.180   6.825   1.425
14630TIP3    H143847   4.099   6.865   1.394
14630TIP3    H243848   4.174   6.830   1.521
14631TIP3   OH243849   7.915   4.683   0.259
14631TIP3    H143850   8.009   4.685   0.241
14631TIP3    H243851   7.876   4.647   0.179
14632TIP3   OH243852   5.830   2.641   5.107
14632TIP3    H143853   5.842   2.705   5.036
14632TIP3    H243854   5.749   2.669   5.151
14633TIP3   OH243855   1.555   3.761   1.872
14633TIP3    H143856   1.503   3.766   1.792
14633TIP3    H243857   1.644   3.783   1.844
14634TIP3   OH243858   5.833   3.675   4.617
14634TIP3    H143859   5.920   3.678   4.579
14634TIP3    H243860   5.780   3.730   4.559
14635TIP3   OH243861   1.520   3.235   1.252
14635TIP3    H143862   1.479   3.234   1.339
14635TIP3    H243863   1.607   3.270   1.267
14636TIP3   OH243864   6.452   3.358   1.067
14636TIP3    H143865   6.413   3.437   1.031
14636TIP3    H243866   6.409   3.286   1.020
14637TIP3   OH243867   4.843   6.249   2.924
14637TIP3    H143868   4.808   6.162   2.905
14637TIP3    H243869   4.774   6.291   2.976
14638TIP3   OH243870   1.569   0.864   5.485
14638TIP3    H143871   1.529   0.935   5.536
14638TIP3    H243872   1.635   0.827   5.543
14639TIP3   OH243873   5.232   2.815   0.772
14639TIP3    H143874   5.316   2.853   0.748
14639TIP3    H243875   5.253   2.735   0.818
14640TIP3   OH243876   3.425   5.891   4.165
14640TIP3    H143877   3.475   5.840   4.100
14640TIP3    H243878   3.355   5.931   4.114
14641TIP3   OH243879   8.005   1.916   1.971
14641TIP3    H143880   7.971   1.828   1.957
14641TIP3    H243881   8.093   1.914   1.931
14642TIP3   OH243882   7.275   4.399   5.449
14642TIP3    H143883   7.346   4.458   5.473
14642TIP3    H243884   7.216   4.453   5.396
14643TIP3   OH243885   1.440   0.171   4.957
14643TIP3    H143886   1.514   0.132   4.910
14643TIP3    H243887   1.453   0.143   5.048
14644TIP3   OH243888   0.452   6.690   3.300
14644TIP3    H143889   0.396   6.621   3.336
14644TIP3    H243890   0.476   6.744   3.375
14645TIP3   OH243891   7.859   1.552   3.842
14645TIP3    H143892   7.828   1.501   3.917
14645TIP3    H243893   7.823   1.506   3.766
14646TIP3   OH243894   6.608   7.356   3.691
14646TIP3    H143895   6.652   7.274   3.711
14646TIP3    H243896   6.553   7.374   3.767
14647TIP3   OH243897   3.542   4.334   5.151
14647TIP3    H143898   3.541   4.316   5.057
14647TIP3    H243899   3.486   4.412   5.161
14648TIP3   OH243900   7.462   7.723   2.201
14648TIP3    H143901   7.482   7.767   2.119
14648TIP3    H243902   7.384   7.768   2.234
14649TIP3   OH243903   0.608   1.118   5.069
14649TIP3    H143904   0.696   1.116   5.033
14649TIP3    H243905   0.609   1.053   5.140
14650TIP3   OH243906   7.235   3.380   0.420
14650TIP3    H143907   7.293   3.446   0.382
14650TIP3    H243908   7.288   3.300   0.423
14651TIP3   OH243909   7.630   2.625   3.287
14651TIP3    H143910   7.630   2.615   3.192
14651TIP3    H243911   7.549   2.672   3.306
14652TIP3   OH243912   3.964   3.761   4.009
14652TIP3    H143913   4.021   3.701   3.960
14652TIP3    H243914   3.959   3.722   4.097
14653TIP3   OH243915   4.901   4.194   4.966
14653TIP3    H143916   4.975   4.250   4.991
14653TIP3    H243917   4.908   4.185   4.871
14654TIP3   OH243918   7.367   2.774   5.679
14654TIP3    H143919   7.402   2.816   5.757
14654TIP3    H243920   7.393   2.682   5.689
14655TIP3   OH243921   4.852   3.380   1.550
14655TIP3    H143922   4.782   3.401   1.489
14655TIP3    H243923   4.851   3.451   1.614
14656TIP3   OH243924   8.196   6.272   6.628
14656TIP3    H143925   8.145   6.210   6.681
14656TIP3    H243926   8.254   6.216   6.576
14657TIP3   OH243927   4.383   1.665   3.015
14657TIP3    H143928   4.366   1.609   2.940
14657TIP3    H243929   4.449   1.618   3.066
14658TIP3   OH243930   2.316   4.073   0.919
14658TIP3    H143931   2.227   4.088   0.950
14658TIP3    H243932   2.305   4.020   0.840
14659TIP3   OH243933   1.744   6.002   2.491
14659TIP3    H143934   1.717   5.940   2.424
14659TIP3    H243935   1.685   5.987   2.564
14660TIP3   OH243936   3.420   0.568   4.095
14660TIP3    H143937   3.354   0.628   4.130
14660TIP3    H243938   3.370   0.504   4.044
14661TIP3   OH243939   0.136   3.362   5.490
14661TIP3    H143940   0.197   3.361   5.416
14661TIP3    H243941   0.068   3.299   5.467
14662TIP3   OH243942   0.037   3.535   1.942
14662TIP3    H143943   0.033   3.580   2.026
14662TIP3    H243944  -0.005   3.594   1.880
14663TIP3   OH243945   2.581   7.736   2.898
14663TIP3    H143946   2.656   7.741   2.839
14663TIP3    H243947   2.526   7.666   2.861
14664TIP3   OH243948   2.145   3.114   3.646
14664TIP3    H143949   2.168   3.154   3.730
14664TIP3    H243950   2.058   3.078   3.660
14665TIP3   OH243951   4.886   2.195   4.082
14665TIP3    H143952   4.905   2.280   4.041
14665TIP3    H243953   4.837   2.218   4.161
14666TIP3   OH243954   6.066   2.735   4.892
14666TIP3    H143955   6.088   2.700   4.805
14666TIP3    H243956   6.101   2.671   4.954
14667TIP3   OH243957   6.800   2.634   3.993
14667TIP3    H143958   6.854   2.594   3.926
14667TIP3    H243959   6.725   2.575   4.003
14668TIP3   OH243960   4.947   2.802   0.356
14668TIP3    H143961   4.932   2.847   0.273
14668TIP3    H243962   5.043   2.798   0.364
14669TIP3   OH243963   5.741   0.827   6.428
14669TIP3    H143964   5.797   0.755   6.399
14669TIP3    H243965   5.694   0.791   6.503
14670TIP3   OH243966   7.966   0.508   3.411
14670TIP3    H143967   7.962   0.507   3.506
14670TIP3    H243968   7.926   0.592   3.387
14671TIP3   OH243969   1.924   0.577   4.533
14671TIP3    H143970   1.916   0.508   4.467
14671TIP3    H243971   1.975   0.645   4.490
14672TIP3   OH243972   8.135   3.566   2.687
14672TIP3    H143973   8.199   3.542   2.620
14672TIP3    H243974   8.062   3.604   2.637
14673TIP3   OH243975   2.269   3.664   5.102
14673TIP3    H143976   2.317   3.703   5.175
14673TIP3    H243977   2.177   3.683   5.121
14674TIP3   OH243978   0.984   4.531   3.867
14674TIP3    H143979   1.012   4.443   3.892
14674TIP3    H243980   0.892   4.520   3.841
14675TIP3   OH243981   2.492   6.018   2.214
14675TIP3    H143982   2.532   5.963   2.146
14675TIP3    H243983   2.545   6.001   2.292
14676TIP3   OH243984   4.101   5.633   2.197
14676TIP3    H143985   4.148   5.678   2.127
14676TIP3    H243986   4.009   5.656   2.183
14677TIP3   OH243987   8.220   5.124   2.969
14677TIP3    H143988   8.181   5.159   2.889
14677TIP3    H243989   8.170   5.045   2.987
14678TIP3   OH243990   5.226   2.215   4.932
14678TIP3    H143991   5.239   2.122   4.914
14678TIP3    H243992   5.164   2.217   5.004
14679TIP3   OH243993   6.072   1.102   0.050
14679TIP3    H143994   6.046   1.136   0.135
14679TIP3    H243995   5.998   1.121  -0.008
14680TIP3   OH243996   3.769   6.821   1.970
14680TIP3    H143997   3.853   6.780   1.987
14680TIP3    H243998   3.776   6.853   1.880
14681TIP3   OH243999   5.122   1.082   4.369
14681TIP3    H144000   5.058   1.039   4.311
14681TIP3    H244001   5.071   1.108   4.445
14682TIP3   OH244002   3.028   5.476   0.662
14682TIP3    H144003   3.033   5.500   0.755
14682TIP3    H244004   3.013   5.382   0.662
14683TIP3   OH244005   7.886   6.708   4.620
14683TIP3    H144006   7.971   6.740   4.590
14683TIP3    H244007   7.863   6.638   4.559
14684TIP3   OH244008   0.012   5.810   3.186
14684TIP3    H144009   0.065   5.882   3.221
14684TIP3    H244010   0.064   5.774   3.114
14685TIP3   OH244011   4.408   7.708   2.689
14685TIP3    H144012   4.378   7.751   2.609
14685TIP3    H244013   4.431   7.620   2.661
14686TIP3   OH244014   3.761   2.947   0.552
14686TIP3    H144015   3.712   3.029   0.558
14686TIP3    H244016   3.845   2.972   0.515
14687TIP3   OH244017   1.759   5.423   5.596
14687TIP3    H144018   1.680   5.451   5.643
14687TIP3    H244019   1.726   5.368   5.525
14688TIP3   OH244020   5.106   4.714   5.785
14688TIP3    H144021   5.142   4.625   5.791
14688TIP3    H244022   5.013   4.701   5.770
14689TIP3   OH244023   7.206   1.203   6.684
14689TIP3    H144024   7.138   1.175   6.622
14689TIP3    H244025   7.239   1.285   6.648
14690TIP3   OH244026   1.107   7.842   6.720
14690TIP3    H144027   1.040   7.804   6.662
14690TIP3    H244028   1.142   7.767   6.768
14691TIP3   OH244029   0.497   6.978   2.283
14691TIP3    H144030   0.440   6.962   2.208
14691TIP3    H244031   0.444   6.955   2.359
14692TIP3   OH244032   7.618   6.690   4.454
14692TIP3    H144033   7.532   6.675   4.415
14692TIP3    H244034   7.632   6.784   4.445
14693TIP3   OH244035   6.069  -0.050   3.817
14693TIP3    H144036   6.025  -0.065   3.901
14693TIP3    H244037   6.105   0.038   3.824
14694TIP3   OH244038   4.201   1.742   5.898
14694TIP3    H144039   4.166   1.654   5.907
14694TIP3    H244040   4.240   1.762   5.983
14695TIP3   OH244041   6.756   5.465   1.808
14695TIP3    H144042   6.710   5.404   1.866
14695TIP3    H244043   6.790   5.532   1.868
14696TIP3   OH244044   1.863   6.244   2.740
14696TIP3    H144045   1.886   6.174   2.801
14696TIP3    H244046   1.893   6.324   2.783
14697TIP3   OH244047   5.290   4.391   2.815
14697TIP3    H144048   5.385   4.382   2.818
14697TIP3    H244049   5.263   4.396   2.907
14698TIP3   OH244050   4.023   2.077   1.293
14698TIP3    H144051   4.106   2.124   1.287
14698TIP3    H244052   4.024   2.017   1.218
14699TIP3   OH244053   6.388   0.159   1.191
14699TIP3    H144054   6.458   0.219   1.215
14699TIP3    H244055   6.307   0.205   1.215
14700TIP3   OH244056   5.441   0.095   2.478
14700TIP3    H144057   5.407   0.130   2.561
14700TIP3    H244058   5.413   0.003   2.477
14701TIP3   OH244059   5.299   1.000   2.953
14701TIP3    H144060   5.336   0.936   2.892
14701TIP3    H244061   5.369   1.016   3.017
14702TIP3   OH244062   7.754   4.848   3.026
14702TIP3    H144063   7.827   4.795   3.060
14702TIP3    H244064   7.708   4.878   3.104
14703TIP3   OH244065   7.145   6.736   3.677
14703TIP3    H144066   7.211   6.758   3.743
14703TIP3    H244067   7.195   6.733   3.595
14704TIP3   OH244068   2.464   1.776   5.076
14704TIP3    H144069   2.394   1.753   5.137
14704TIP3    H244070   2.542   1.779   5.131
14705TIP3   OH244071   7.673   2.517   5.176
14705TIP3    H144072   7.713   2.540   5.092
14705TIP3    H244073   7.579   2.514   5.158
14706TIP3   OH244074   1.778   7.081   2.747
14706TIP3    H144075   1.826   7.026   2.809
14706TIP3    H244076   1.690   7.044   2.744
14707TIP3   OH244077   6.607   7.579   3.994
14707TIP3    H144078   6.614   7.485   4.014
14707TIP3    H244079   6.696   7.605   3.971
14708TIP3   OH244080   1.460   1.161   1.638
14708TIP3    H144081   1.490   1.169   1.547
14708TIP3    H244082   1.438   1.068   1.647
14709TIP3   OH244083   1.478   4.252   3.669
14709TIP3    H144084   1.549   4.255   3.604
14709TIP3    H244085   1.431   4.334   3.657
14710TIP3   OH244086   5.910   7.474   5.547
14710TIP3    H144087   5.969   7.476   5.472
14710TIP3    H244088   5.967   7.452   5.621
14711TIP3   OH244089   5.681   5.214   2.455
14711TIP3    H144090   5.727   5.245   2.377
14711TIP3    H244091   5.722   5.130   2.476
14712TIP3   OH244092   7.595   1.285   2.151
14712TIP3    H144093   7.600   1.189   2.156
14712TIP3    H244094   7.557   1.302   2.065
14713TIP3   OH244095   3.290   4.461   4.146
14713TIP3    H144096   3.281   4.399   4.073
14713TIP3    H244097   3.233   4.426   4.214
14714TIP3   OH244098   4.681   6.357   4.741
14714TIP3    H144099   4.604   6.406   4.712
14714TIP3    H244100   4.651   6.266   4.746
14715TIP3   OH244101   3.643   4.672   5.151
14715TIP3    H144102   3.604   4.695   5.236
14715TIP3    H244103   3.570   4.638   5.099
14716TIP3   OH244104   2.470   1.477   1.173
14716TIP3    H144105   2.433   1.412   1.233
14716TIP3    H244106   2.548   1.435   1.137
14717TIP3   OH244107   0.127   7.225   6.446
14717TIP3    H144108   0.181   7.275   6.508
14717TIP3    H244109   0.181   7.148   6.426
14718TIP3   OH244110   3.763   6.328   4.738
14718TIP3    H144111   3.671   6.351   4.726
14718TIP3    H244112   3.806   6.365   4.661
14719TIP3   OH244113   0.944   2.520   0.279
14719TIP3    H144114   1.002   2.562   0.215
14719TIP3    H244115   1.001   2.499   0.353
14720TIP3   OH244116   5.666   3.165   4.046
14720TIP3    H144117   5.643   3.106   3.974
14720TIP3    H244118   5.656   3.253   4.009
14721TIP3   OH244119   5.363   0.350   6.155
14721TIP3    H144120   5.292   0.290   6.179
14721TIP3    H244121   5.439   0.292   6.145
14722TIP3   OH244122   6.715   1.802   4.680
14722TIP3    H144123   6.696   1.764   4.594
14722TIP3    H244124   6.720   1.896   4.664
14723TIP3   OH244125   2.988   5.879   5.099
14723TIP3    H144126   2.937   5.809   5.060
14723TIP3    H244127   2.970   5.873   5.193
14724TIP3   OH244128   4.707   2.412   0.550
14724TIP3    H144129   4.785   2.433   0.498
14724TIP3    H244130   4.634   2.425   0.490
14725TIP3   OH244131   4.140   6.562   1.654
14725TIP3    H144132   4.152   6.649   1.693
14725TIP3    H244133   4.090   6.513   1.719
14726TIP3   OH244134   4.779   3.291   0.257
14726TIP3    H144135   4.712   3.357   0.240
14726TIP3    H244136   4.736   3.207   0.239
14727TIP3   OH244137   1.624   5.410   2.543
14727TIP3    H144138   1.694   5.346   2.533
14727TIP3    H244139   1.620   5.453   2.458
14728TIP3   OH244140   8.264   0.140   3.993
14728TIP3    H144141   8.277   0.179   4.079
14728TIP3    H244142   8.270   0.046   4.008
14729TIP3   OH244143   2.675   5.436   5.318
14729TIP3    H144144   2.765   5.446   5.287
14729TIP3    H244145   2.684   5.415   5.411
14730TIP3   OH244146   0.621   2.252   1.224
14730TIP3    H144147   0.527   2.244   1.210
14730TIP3    H244148   0.659   2.240   1.137
14731TIP3   OH244149   3.772   3.873   3.788
14731TIP3    H144150   3.843   3.936   3.795
14731TIP3    H244151   3.811   3.797   3.744
14732TIP3   OH244152   4.097   2.573   2.767
14732TIP3    H144153   4.055   2.621   2.696
14732TIP3    H244154   4.061   2.612   2.847
14733TIP3   OH244155   4.103   7.432   2.207
14733TIP3    H144156   4.197   7.415   2.216
14733TIP3    H244157   4.091   7.450   2.114
14734TIP3   OH244158   7.838   2.955   0.175
14734TIP3    H144159   7.931   2.979   0.173
14734TIP3    H244160   7.815   2.942   0.083
14735TIP3   OH244161   6.351   0.749   6.183
14735TIP3    H144162   6.361   0.843   6.197
14735TIP3    H244163   6.257   0.733   6.194
14736TIP3   OH244164   7.945   3.263   5.016
14736TIP3    H144165   7.922   3.173   4.997
14736TIP3    H244166   7.949   3.267   5.112
14737TIP3   OH244167   7.042   4.607   0.443
14737TIP3    H144168   7.120   4.551   0.441
14737TIP3    H244169   7.077   4.696   0.438
14738TIP3   OH244170   3.077   3.924   5.056
14738TIP3    H144171   3.134   3.899   5.129
14738TIP3    H244172   3.122   3.890   4.979
14739TIP3   OH244173   5.038   6.365   0.751
14739TIP3    H144174   4.947   6.351   0.775
14739TIP3    H244175   5.084   6.289   0.787
14740TIP3   OH244176   0.022   4.315   0.429
14740TIP3    H144177   0.047   4.402   0.396
14740TIP3    H244178   0.079   4.301   0.504
14741TIP3   OH244179   0.939   5.395   3.697
14741TIP3    H144180   0.948   5.490   3.701
14741TIP3    H244181   1.029   5.362   3.687
14742TIP3   OH244182   1.034   0.895   1.492
14742TIP3    H144183   1.048   0.975   1.543
14742TIP3    H244184   1.093   0.831   1.532
14743TIP3   OH244185   3.453   2.221   3.448
14743TIP3    H144186   3.423   2.180   3.529
14743TIP3    H244187   3.444   2.153   3.382
14744TIP3   OH244188   4.639   3.716   5.757
14744TIP3    H144189   4.727   3.747   5.737
14744TIP3    H244190   4.652   3.634   5.804
14745TIP3   OH244191   5.954   3.413   6.136
14745TIP3    H144192   6.003   3.365   6.202
14745TIP3    H244193   5.868   3.427   6.174
14746TIP3   OH244194   3.185   4.785   4.661
14746TIP3    H144195   3.226   4.812   4.743
14746TIP3    H244196   3.163   4.693   4.675
14747TIP3   OH244197   2.818   1.681   2.317
14747TIP3    H144198   2.882   1.746   2.347
14747TIP3    H244199   2.752   1.679   2.386
14748TIP3   OH244200   3.033   4.874   3.435
14748TIP3    H144201   2.992   4.946   3.483
14748TIP3    H244202   3.127   4.888   3.448
14749TIP3   OH244203   5.281   2.675   1.522
14749TIP3    H144204   5.376   2.681   1.527
14749TIP3    H244205   5.264   2.630   1.439
14750TIP3   OH244206   1.935   5.368   2.458
14750TIP3    H144207   1.954   5.280   2.428
14750TIP3    H244208   1.898   5.357   2.546
14751TIP3   OH244209   2.303   2.942   1.520
14751TIP3    H144210   2.276   2.992   1.597
14751TIP3    H244211   2.375   2.888   1.550
14752TIP3   OH244212   6.760   7.791   3.831
14752TIP3    H144213   6.855   7.779   3.830
14752TIP3    H244214   6.734   7.784   3.739
14753TIP3   OH244215   2.710   6.938   4.320
14753TIP3    H144216   2.674   6.939   4.231
14753TIP3    H244217   2.713   6.845   4.343
14754TIP3   OH244218   3.833   1.272   5.227
14754TIP3    H144219   3.740   1.265   5.206
14754TIP3    H244220   3.875   1.294   5.143
14755TIP3   OH244221   3.952   7.568   3.325
14755TIP3    H144222   3.899   7.642   3.297
14755TIP3    H244223   3.888   7.503   3.355
14756TIP3   OH244224   6.378   6.961   5.526
14756TIP3    H144225   6.395   6.867   5.521
14756TIP3    H244226   6.437   7.000   5.462
14757TIP3   OH244227   0.982   7.263   0.708
14757TIP3    H144228   1.033   7.342   0.729
14757TIP3    H244229   0.994   7.206   0.784
14758TIP3   OH244230   6.288   5.598   2.569
14758TIP3    H144231   6.251   5.659   2.632
14758TIP3    H244232   6.220   5.532   2.556
14759TIP3   OH244233   1.796   1.939   0.048
14759TIP3    H144234   1.875   1.885   0.050
14759TIP3    H244235   1.735   1.891  -0.009
14760TIP3   OH244236   7.893   0.774   3.326
14760TIP3    H144237   7.858   0.844   3.270
14760TIP3    H244238   7.815   0.730   3.361
14761TIP3   OH244239   3.037   4.787   2.475
14761TIP3    H144240   2.972   4.843   2.517
14761TIP3    H244241   3.121   4.829   2.495
14762TIP3   OH244242   8.152   4.376   1.558
14762TIP3    H144243   8.207   4.347   1.486
14762TIP3    H244244   8.116   4.295   1.595
14763TIP3   OH244245   0.922   4.432   3.218
14763TIP3    H144246   0.945   4.382   3.296
14763TIP3    H244247   0.836   4.397   3.193
14764TIP3   OH244248   2.677   2.340   2.410
14764TIP3    H144249   2.726   2.300   2.482
14764TIP3    H244250   2.604   2.385   2.452
14765TIP3   OH244251   4.200   7.530   2.896
14765TIP3    H144252   4.158   7.456   2.939
14765TIP3    H244253   4.254   7.490   2.827
14766TIP3   OH244254   2.641   7.461   4.279
14766TIP3    H144255   2.548   7.446   4.261
14766TIP3    H244256   2.670   7.382   4.324
14767TIP3   OH244257   3.153   4.631   2.942
14767TIP3    H144258   3.173   4.539   2.959
14767TIP3    H244259   3.113   4.662   3.024
14768TIP3   OH244260   4.034   6.465   5.584
14768TIP3    H144261   3.983   6.511   5.517
14768TIP3    H244262   3.974   6.400   5.620
14769TIP3   OH244263   5.043   3.227   3.708
14769TIP3    H144264   4.982   3.194   3.774
14769TIP3    H244265   5.009   3.194   3.625
14770TIP3   OH244266   3.558   5.370   3.696
14770TIP3    H144267   3.583   5.319   3.773
14770TIP3    H244268   3.468   5.343   3.678
14771TIP3   OH244269   3.688   1.801   2.174
14771TIP3    H144270   3.627   1.819   2.246
14771TIP3    H244271   3.639   1.824   2.095
14772TIP3   OH244272   6.857   2.099   0.445
14772TIP3    H144273   6.898   2.159   0.382
14772TIP3    H244274   6.899   2.120   0.528
14773TIP3   OH244275   8.106   6.243   1.731
14773TIP3    H144276   8.136   6.295   1.656
14773TIP3    H244277   8.177   6.250   1.795
14774TIP3   OH244278   6.674   4.973   6.579
14774TIP3    H144279   6.621   4.984   6.658
14774TIP3    H244280   6.614   4.936   6.515
14775TIP3   OH244281   7.652   4.731   0.815
14775TIP3    H144282   7.658   4.674   0.892
14775TIP3    H244283   7.743   4.755   0.795
14776TIP3   OH244284   6.628   7.100   3.939
14776TIP3    H144285   6.563   7.032   3.920
14776TIP3    H244286   6.676   7.110   3.856
14777TIP3   OH244287   0.096   7.748   4.757
14777TIP3    H144288   0.184   7.756   4.793
14777TIP3    H244289   0.039   7.740   4.833
14778TIP3   OH244290   4.807   6.303   3.929
14778TIP3    H144291   4.848   6.216   3.927
14778TIP3    H244292   4.716   6.287   3.902
14779TIP3   OH244293   7.750   3.897   1.178
14779TIP3    H144294   7.806   3.821   1.165
14779TIP3    H244295   7.668   3.874   1.134
14780TIP3   OH244296   3.961   6.668   5.400
14780TIP3    H144297   4.023   6.741   5.398
14780TIP3    H244298   3.876   6.709   5.390
14781TIP3   OH244299   0.367   0.295   1.027
14781TIP3    H144300   0.382   0.201   1.026
14781TIP3    H244301   0.447   0.331   1.066
14782TIP3   OH244302   5.080   0.437   0.246
14782TIP3    H144303   5.092   0.440   0.341
14782TIP3    H244304   5.111   0.522   0.215
14783TIP3   OH244305   2.705   0.669   6.481
14783TIP3    H144306   2.674   0.673   6.390
14783TIP3    H244307   2.737   0.758   6.499
14784TIP3   OH244308   5.806   5.775   6.336
14784TIP3    H144309   5.823   5.727   6.255
14784TIP3    H244310   5.779   5.708   6.398
14785TIP3   OH244311   2.969   7.480   2.618
14785TIP3    H144312   2.966   7.463   2.524
14785TIP3    H244313   3.059   7.506   2.635
14786TIP3   OH244314   1.839   1.373   2.057
14786TIP3    H144315   1.807   1.453   2.015
14786TIP3    H244316   1.875   1.403   2.140
14787TIP3   OH244317   3.108   3.663   2.737
14787TIP3    H144318   3.054   3.726   2.690
14787TIP3    H244319   3.055   3.636   2.812
14788TIP3   OH244320   6.084   4.891   1.830
14788TIP3    H144321   6.036   4.852   1.757
14788TIP3    H244322   6.129   4.966   1.792
14789TIP3   OH244323   0.729   1.414   1.157
14789TIP3    H144324   0.824   1.424   1.158
14789TIP3    H244325   0.714   1.320   1.158
14790TIP3   OH244326   3.189   4.371   4.900
14790TIP3    H144327   3.165   4.285   4.866
14790TIP3    H244328   3.177   4.364   4.995
14791TIP3   OH244329   1.736   1.694   6.682
14791TIP3    H144330   1.791   1.638   6.737
14791TIP3    H244331   1.707   1.637   6.611
14792TIP3   OH244332   1.729   7.050   5.463
14792TIP3    H144333   1.704   6.972   5.413
14792TIP3    H244334   1.682   7.042   5.546
14793TIP3   OH244335   6.717   2.937   1.227
14793TIP3    H144336   6.716   3.033   1.226
14793TIP3    H244337   6.717   2.912   1.135
14794TIP3   OH244338   5.231   6.539   1.539
14794TIP3    H144339   5.172   6.614   1.532
14794TIP3    H244340   5.318   6.579   1.550
14795TIP3   OH244341   1.382   2.320   4.970
14795TIP3    H144342   1.469   2.361   4.964
14795TIP3    H244343   1.331   2.360   4.900
14796TIP3   OH244344   8.091   0.653   2.277
14796TIP3    H144345   8.041   0.595   2.219
14796TIP3    H244346   8.049   0.642   2.362
14797TIP3   OH244347   3.203   3.015   4.131
14797TIP3    H144348   3.279   3.020   4.189
14797TIP3    H244349   3.241   3.006   4.043
14798TIP3   OH244350   2.781   0.460   6.141
14798TIP3    H144351   2.851   0.507   6.097
14798TIP3    H244352   2.715   0.446   6.072
14799TIP3   OH244353   5.507   3.718   3.471
14799TIP3    H144354   5.550   3.634   3.486
14799TIP3    H244355   5.422   3.695   3.433
14800TIP3   OH244356   2.596   5.062   4.076
14800TIP3    H144357   2.505   5.032   4.078
14800TIP3    H244358   2.636   5.023   4.154
14801TIP3   OH244359   5.749   7.309   6.171
14801TIP3    H144360   5.821   7.262   6.212
14801TIP3    H244361   5.776   7.317   6.079
14802TIP3   OH244362   6.953   0.085   0.433
14802TIP3    H144363   6.989   0.139   0.503
14802TIP3    H244364   6.963   0.138   0.354
14803TIP3   OH244365   6.790   2.828   0.676
14803TIP3    H144366   6.810   2.743   0.714
14803TIP3    H244367   6.868   2.850   0.625
14804TIP3   OH244368   7.828   2.373   2.429
14804TIP3    H144369   7.905   2.376   2.371
14804TIP3    H244370   7.763   2.428   2.385
14805TIP3   OH244371   0.459   5.260   0.861
14805TIP3    H144372   0.372   5.247   0.824
14805TIP3    H244373   0.494   5.172   0.872
14806TIP3   OH244374   0.388   7.612   5.472
14806TIP3    H144375   0.351   7.538   5.423
14806TIP3    H244376   0.399   7.681   5.406
14807TIP3   OH244377   0.364   7.681   6.635
14807TIP3    H144378   0.403   7.705   6.718
14807TIP3    H244379   0.272   7.666   6.655
14808TIP3   OH244380   0.087   3.249   0.689
14808TIP3    H144381   0.121   3.249   0.778
14808TIP3    H244382   0.045   3.335   0.679
14809TIP3   OH244383   6.080   1.489   5.605
14809TIP3    H144384   6.104   1.424   5.671
14809TIP3    H244385   5.991   1.464   5.579
14810TIP3   OH244386   5.923   0.850   2.071
14810TIP3    H144387   5.927   0.755   2.067
14810TIP3    H244388   5.927   0.871   2.164
14811TIP3   OH244389   0.515   5.844   3.802
14811TIP3    H144390   0.439   5.810   3.755
14811TIP3    H244391   0.587   5.842   3.739
14812TIP3   OH244392   6.109   2.828   3.059
14812TIP3    H144393   6.087   2.737   3.080
14812TIP3    H244394   6.025   2.874   3.062
14813TIP3   OH244395   2.994   4.504   6.558
14813TIP3    H144396   2.966   4.485   6.648
14813TIP3    H244397   3.087   4.526   6.567
14814TIP3   OH244398   2.066   3.735   1.789
14814TIP3    H144399   2.083   3.750   1.882
14814TIP3    H244400   2.076   3.640   1.778
14815TIP3   OH244401   3.233   1.284   4.811
14815TIP3    H144402   3.266   1.269   4.900
14815TIP3    H244403   3.163   1.348   4.822
14816TIP3   OH244404   7.336   4.889   5.432
14816TIP3    H144405   7.393   4.940   5.490
14816TIP3    H244406   7.352   4.925   5.345
14817TIP3   OH244407   7.491   6.224   2.663
14817TIP3    H144408   7.586   6.217   2.652
14817TIP3    H244409   7.475   6.198   2.753
14818TIP3   OH244410   3.089   6.497   5.926
14818TIP3    H144411   2.995   6.480   5.927
14818TIP3    H244412   3.119   6.469   6.012
14819TIP3   OH244413   5.077   2.091   6.206
14819TIP3    H144414   5.102   2.062   6.294
14819TIP3    H244415   5.159   2.093   6.157
14820TIP3   OH244416   7.737   2.736   4.183
14820TIP3    H144417   7.801   2.780   4.127
14820TIP3    H244418   7.739   2.645   4.154
14821TIP3   OH244419   6.110   5.053   4.242
14821TIP3    H144420   6.169   4.979   4.234
14821TIP3    H244421   6.022   5.014   4.243
14822TIP3   OH244422   6.905   0.127   2.825
14822TIP3    H144423   6.833   0.085   2.873
14822TIP3    H244424   6.905   0.086   2.739
14823TIP3   OH244425   5.139   1.349   6.401
14823TIP3    H144426   5.197   1.299   6.458
14823TIP3    H244427   5.052   1.337   6.439
14824TIP3   OH244428   7.666   2.126   3.356
14824TIP3    H144429   7.621   2.049   3.391
14824TIP3    H244430   7.672   2.110   3.262
14825TIP3   OH244431   6.558   2.155   0.881
14825TIP3    H144432   6.567   2.214   0.806
14825TIP3    H244433   6.518   2.210   0.949
14826TIP3   OH244434   6.374   0.802   5.076
14826TIP3    H144435   6.417   0.717   5.082
14826TIP3    H244436   6.341   0.805   4.986
14827TIP3   OH244437   6.923   3.609   0.378
14827TIP3    H144438   6.974   3.538   0.416
14827TIP3    H244439   6.863   3.566   0.317
14828TIP3   OH244440   0.295   2.543   4.470
14828TIP3    H144441   0.328   2.571   4.384
14828TIP3    H244442   0.360   2.576   4.532
14829TIP3   OH244443   0.098   3.226   5.089
14829TIP3    H144444   0.146   3.159   5.137
14829TIP3    H244445   0.055   3.179   5.018
14830TIP3   OH244446   5.093   7.494   0.573
14830TIP3    H144447   5.115   7.501   0.665
14830TIP3    H244448   5.013   7.547   0.564
14831TIP3   OH244449   3.637   0.455   5.608
14831TIP3    H144450   3.714   0.405   5.579
14831TIP3    H244451   3.673   0.537   5.641
14832TIP3   OH244452   3.548   5.983   6.501
14832TIP3    H144453   3.538   5.962   6.594
14832TIP3    H244454   3.613   5.922   6.469
14833TIP3   OH244455   2.210   5.104   2.111
14833TIP3    H144456   2.238   5.160   2.039
14833TIP3    H244457   2.290   5.083   2.158
14834TIP3   OH244458   2.502   4.195   3.765
14834TIP3    H144459   2.408   4.175   3.772
14834TIP3    H244460   2.526   4.166   3.677
14835TIP3   OH244461   4.226   5.141   1.562
14835TIP3    H144462   4.218   5.235   1.581
14835TIP3    H244463   4.197   5.132   1.471
14836TIP3   OH244464   7.989   2.804   5.061
14836TIP3    H144465   7.961   2.717   5.032
14836TIP3    H244466   7.938   2.820   5.141
14837TIP3   OH244467   5.714   7.189   1.361
14837TIP3    H144468   5.783   7.126   1.381
14837TIP3    H244469   5.647   7.138   1.316
   8.30612   7.83108   6.78192   0.00000   0.00000  -2.76870   0.00000  -2.76870  -3.91555
