Title
19942
    1ASP      N    1   3.760   2.622   4.548  0.3155  0.2191  0.3268
    1ASP    HT1    2   3.799   2.668   4.633  1.4847 -0.6248  0.2801
    1ASP    HT2    3   3.683   2.554   4.563  0.5378  0.1112  1.0095
    1ASP    HT3    4   3.713   2.689   4.484 -1.4115 -1.3153 -0.0731
    1ASP     CA    5   3.885   2.554   4.488  0.4254  0.3150 -0.0828
    1ASP     HA    6   3.967   2.623   4.501 -0.7266  1.9528 -1.0701
    1ASP     CB    7   3.930   2.420   4.554  0.4686  0.1372  0.3247
    1ASP    HB1    8   4.002   2.357   4.498 -2.0736 -2.8447  0.1246
    1ASP    HB2    9   3.842   2.355   4.576 -1.2353  2.1488 -0.2568
    1ASP     CG   10   3.988   2.449   4.690 -0.9869  0.4493 -1.1625
    1ASP    OD1   11   4.070   2.368   4.744  0.2100 -0.1191 -0.5197
    1ASP    OD2   12   3.964   2.561   4.742  0.3744 -0.4923 -0.9436
    1ASP      C   13   3.874   2.523   4.343 -0.3658 -0.0827 -0.2890
    1ASP      O   14   3.769   2.503   4.293 -0.0720  0.5889 -0.1993
    2ALA      N   15   3.984   2.538   4.268 -0.4017 -0.5305 -0.3628
    2ALA     HN   16   4.067   2.566   4.314 -1.4797 -0.2222  1.4955
    2ALA     CA   17   3.996   2.538   4.124 -0.2560  0.2784  0.4722
    2ALA     HA   18   3.932   2.617   4.089 -0.0245  0.0859 -0.4116
    2ALA     CB   19   4.142   2.567   4.082 -0.2661 -0.3634 -0.2801
    2ALA    HB1   20   4.177   2.668   4.114 -0.0928 -0.4660 -0.1413
    2ALA    HB2   21   4.153   2.567   3.971 -1.6027 -0.0541 -0.4269
    2ALA    HB3   22   4.206   2.491   4.132 -2.6845 -2.1842  0.2307
    2ALA      C   23   3.951   2.406   4.058  0.0230  0.3585  0.3676
    2ALA      O   24   3.975   2.293   4.106  0.1785  0.2340  0.1200
    3ASP      N   25   3.884   2.411   3.949 -0.3988  0.2693  0.3553
    3ASP     HN   26   3.851   2.495   3.905 -0.7091  0.4339  0.9023
    3ASP     CA   27   3.827   2.298   3.887  0.1975  0.9951 -0.4612
    3ASP     HA   28   3.785   2.231   3.960 -0.1417  0.0374 -1.5057
    3ASP     CB   29   3.724   2.328   3.781  0.1159  0.0250  0.4220
    3ASP    HB1   30   3.659   2.242   3.756 -0.6203  0.6925 -0.0095
    3ASP    HB2   31   3.772   2.376   3.692 -0.6534  2.6354  1.3305
    3ASP     CG   32   3.624   2.425   3.844  1.1616  0.4872 -0.4319
    3ASP    OD1   33   3.597   2.535   3.794  0.0983  0.3756 -0.1893
    3ASP    OD2   34   3.575   2.400   3.954  0.6214  0.3693  0.3691
    3ASP      C   35   3.940   2.212   3.833  0.1519  0.3380  0.5023
    3ASP      O   36   4.046   2.261   3.787  0.9101  0.1843 -0.2132
    4GLY      N   37   3.919   2.077   3.822 -0.0227 -0.5521 -0.9445
    4GLY     HN   38   3.830   2.043   3.850  0.5989  0.0432  2.1068
    4GLY     CA   39   4.005   1.980   3.746 -0.0299 -0.3940  0.4325
    4GLY    HA1   40   3.967   1.882   3.770 -0.7164 -0.0481  0.7751
    4GLY    HA2   41   4.101   2.013   3.783 -1.0484  3.5431  0.0225
    4GLY      C   42   4.014   2.003   3.602 -0.4537  0.7651 -0.0270
    4GLY      O   43   3.944   2.081   3.541 -0.1140  0.2255  0.2577
    5PRO      N   44   4.108   1.941   3.540  0.0016 -0.3794 -0.2120
    5PRO     CD   45   4.196   1.842   3.600 -0.5676  0.7572 -0.6745
    5PRO    HD1   46   4.135   1.768   3.655  0.4806  0.3724 -0.0052
    5PRO    HD2   47   4.265   1.890   3.672  1.0775  0.0661 -1.7246
    5PRO     CA   48   4.147   1.973   3.401  0.5311 -0.7304  0.0896
    5PRO     HA   49   4.141   2.080   3.385 -1.6141 -0.9028 -0.6116
    5PRO     CB   50   4.288   1.919   3.397 -0.2920 -0.3454 -0.3074
    5PRO    HB1   51   4.359   1.995   3.437 -1.3473  0.8602 -0.6768
    5PRO    HB2   52   4.332   1.901   3.297 -0.3243 -0.6377 -0.2687
    5PRO     CG   53   4.279   1.792   3.489  0.0728 -0.2370  0.0521
    5PRO    HG1   54   4.230   1.707   3.437 -0.1798  0.3095 -0.6194
    5PRO    HG2   55   4.381   1.753   3.507  0.5527  0.3407 -1.2651
    5PRO      C   56   4.045   1.906   3.303 -0.6972  0.7276  0.1164
    5PRO      O   57   4.027   1.954   3.191 -0.4424  0.1635  0.2143
    6GLY      N   58   3.982   1.793   3.349 -0.0888 -0.5447  0.2011
    6GLY     HN   59   4.015   1.756   3.436 -0.3257 -2.2319 -0.4030
    6GLY     CA   60   3.870   1.727   3.278 -0.6260 -0.3171  0.3652
    6GLY    HA1   61   3.845   1.629   3.318 -0.9368  0.1158  1.2656
    6GLY    HA2   62   3.906   1.712   3.178  1.5146 -0.5616  1.1256
    6GLY      C   63   3.743   1.800   3.271  0.5921 -0.4968  0.3024
    6GLY      O   64   3.741   1.918   3.299  0.0728 -0.2470  0.3349
    7ASP      N   65   3.633   1.739   3.212 -0.8344  0.6787  0.3560
    7ASP     HN   66   3.635   1.647   3.174 -0.2353  0.2135  1.4470
    7ASP     CA   67   3.499   1.801   3.221 -0.1819  0.1893  0.2969
    7ASP     HA   68   3.508   1.895   3.168  2.9480 -0.1226  0.0799
    7ASP     CB   69   3.393   1.713   3.138  0.1372 -1.0530 -0.4723
    7ASP    HB1   70   3.291   1.750   3.160  0.7574 -0.4993  1.7200
    7ASP    HB2   71   3.390   1.607   3.172  0.7620 -1.7691 -2.5079
    7ASP     CG   72   3.410   1.724   2.992 -0.4588  0.0871 -1.0513
    7ASP    OD1   73   3.493   1.802   2.941 -0.2100 -0.3414  0.3104
    7ASP    OD2   74   3.337   1.650   2.923  0.3304 -0.4464 -0.3021
    7ASP      C   75   3.442   1.844   3.360  0.4039 -0.3929  0.4237
    7ASP      O   76   3.474   1.768   3.452  0.1982  0.1969 -0.0442
    8PRO      N   77   3.355   1.950   3.384 -0.0303 -0.0980 -0.7283
    8PRO     CD   78   3.316   2.063   3.295  0.1787 -0.0633 -0.1713
    8PRO    HD1   79   3.265   2.019   3.207 -1.1792  0.6619  0.2273
    8PRO    HD2   80   3.410   2.116   3.268  0.5684 -1.9302 -2.8235
    8PRO     CA   81   3.294   1.960   3.521  0.3748  0.1990  0.2315
    8PRO     HA   82   3.365   1.931   3.597 -1.5677 -1.4651  1.5208
    8PRO     CB   83   3.249   2.103   3.529 -0.2915 -0.5521 -0.0822
    8PRO    HB1   84   3.331   2.174   3.556 -1.6379 -0.0631  3.1001
    8PRO    HB2   85   3.164   2.126   3.596  1.5339  0.8772  1.9037
    8PRO     CG   86   3.212   2.140   3.384  0.0130  0.0771  0.7335
    8PRO    HG1   87   3.110   2.098   3.376 -0.0729  0.3299  0.4941
    8PRO    HG2   88   3.210   2.250   3.374  1.4959  0.3391  2.6372
    8PRO      C   89   3.190   1.857   3.537 -0.3098 -0.6596  0.1271
    8PRO      O   90   3.171   1.810   3.648 -0.9683  0.0062 -0.3732
    9ASP      N   91   3.108   1.829   3.434 -0.1594  0.3332 -0.0133
    9ASP     HN   92   3.117   1.880   3.349 -2.3499  0.5233 -0.1908
    9ASP     CA   93   2.996   1.738   3.434 -1.1803 -0.2446  0.4424
    9ASP     HA   94   2.937   1.760   3.522  0.9728  1.0823  1.6222
    9ASP     CB   95   2.925   1.755   3.296 -0.1086 -0.3249 -0.3647
    9ASP    HB1   96   2.843   1.682   3.279  0.9559 -1.8023  0.6255
    9ASP    HB2   97   2.986   1.748   3.203  0.6084  3.4723 -0.3365
    9ASP     CG   98   2.852   1.890   3.306  0.5305 -0.6980 -0.5004
    9ASP    OD1   99   2.876   1.978   3.218 -0.0044 -0.0696 -0.3433
    9ASP    OD2  100   2.762   1.908   3.395 -0.1613 -0.2113 -0.4449
    9ASP      C  101   3.033   1.592   3.457  0.9065  0.0965  0.4769
    9ASP      O  102   3.135   1.540   3.409 -0.1641  0.0976  0.0521
   10ALA      N  103   2.947   1.520   3.536 -0.0977  0.2229 -0.4959
   10ALA     HN  104   2.864   1.569   3.558  2.4045  5.2730 -0.9191
   10ALA     CA  105   2.982   1.401   3.596  1.4714 -0.1189 -0.7251
   10ALA     HA  106   3.076   1.429   3.641 -0.4891  3.7106  1.5086
   10ALA     CB  107   2.878   1.382   3.708  0.2099  0.1809  0.0867
   10ALA    HB1  108   2.905   1.302   3.781  0.4842 -2.0857 -2.3593
   10ALA    HB2  109   2.784   1.343   3.662  0.9490  0.8439 -2.1087
   10ALA    HB3  110   2.846   1.475   3.761  1.3617  0.6544 -0.0187
   10ALA      C  111   3.003   1.278   3.507 -0.5325 -0.2570 -0.4246
   10ALA      O  112   2.980   1.276   3.390  0.4615  0.1094  0.1080
   11GLY      N  113   3.068   1.173   3.565 -0.1473 -0.1880 -0.5347
   11GLY     HN  114   3.088   1.188   3.661 -0.4699 -1.5871 -0.2179
   11GLY     CA  115   3.109   1.053   3.505 -0.3497  0.1063 -0.0418
   11GLY    HA1  116   3.176   1.075   3.423  1.3111 -1.0960  0.9066
   11GLY    HA2  117   3.022   1.003   3.465 -1.7579  0.7712  2.0501
   11GLY      C  118   3.184   0.951   3.593  0.2924  0.6409 -0.0291
   11GLY    OT1  119   3.128   0.909   3.697 -0.3635  0.3365 -0.2086
   11GLY    OT2  120   3.302   0.918   3.562  0.3369 -0.1315  0.2237
   12LIT    LIT  121   1.271   4.348   1.168  0.3983 -0.6218 -0.8847
   13LIT    LIT  122   5.356   2.234   4.164  0.8511  1.1266  0.2575
   14LIT    LIT  123   4.123   2.495   4.864  0.2217 -0.3397 -0.1610
   15LIT    LIT  124   5.389   4.752   3.876  0.5551  0.7567 -0.3455
   16LIT    LIT  125   0.785   5.469   1.363 -0.0942 -0.3740 -0.2363
   17LIT    LIT  126   1.861   3.012   5.093 -2.0299 -1.3388 -0.9956
   18LIT    LIT  127   0.239   1.952   1.084 -0.8290 -0.8158 -0.4720
   19LIT    LIT  128   3.448   1.788   2.751 -0.3272 -0.8696 -0.0155
   20LIT    LIT  129   1.025   0.548   5.003 -0.4673  0.1546 -0.6732
   21LIT    LIT  130   5.694   2.431   2.987  0.8058 -0.0781 -1.3171
   22LIT    LIT  131   3.996   4.674   3.702  0.4879  0.4803 -0.0973
   23LIT    LIT  132   4.074   4.738   1.543 -0.2723 -0.4143  0.2619
   24LIT    LIT  133   2.943   2.186   0.647 -0.6292  0.1769  0.6304
   25LIT    LIT  134   3.689   1.332   0.378  0.2606 -0.3250 -0.5812
   26LIT    LIT  135   5.923   0.218   1.055  0.0571 -0.6227  0.1544
   27LIT    LIT  136   2.226   0.050   3.167 -0.2083 -0.4938 -0.4515
   28LIT    LIT  137   0.643   1.517   3.392 -0.0476  0.0165  0.6771
   29LIT    LIT  138   4.541   3.565   3.422 -0.2754  0.2067  0.7352
   30LIT    LIT  139   5.822   3.405   2.082 -0.0038 -0.2812 -0.8806
   31LIT    LIT  140   2.749   2.117   3.212 -0.0257 -0.1962 -0.8556
   32LIT    LIT  141   3.484   2.578   3.951 -0.2907 -0.1861 -0.0180
   33LIT    LIT  142   0.023   2.600   3.198  0.0006 -0.6815 -0.4052
   34CLA    CLA  143   2.053   3.778   4.648  0.2665 -0.7433  0.2834
   35CLA    CLA  144   4.757   1.944   4.088 -0.0817  0.1221 -0.4222
   36CLA    CLA  145   6.279   1.842   2.339  0.2176  0.0126  0.3529
   37CLA    CLA  146   1.903   5.300   4.539 -0.5187 -0.5941 -0.1402
   38CLA    CLA  147   2.848   2.166   5.074 -0.4820 -0.0758  0.0641
   39CLA    CLA  148   3.845   0.378   3.080  0.0053  0.0519 -0.0061
   40CLA    CLA  149   0.571   2.835   0.974  0.0627 -0.1758  0.2952
   41CLA    CLA  150   3.905   3.174   0.502 -0.3197 -0.1887  0.4934
   42CLA    CLA  151   2.332   1.868   4.203 -0.1510 -0.2706  0.1411
   43CLA    CLA  152   3.866   3.313   1.853 -0.1742 -0.3203  0.5852
   44CLA    CLA  153   4.008   3.689   2.899 -0.0264  0.1391  0.1025
   45CLA    CLA  154   5.213   2.192   0.168  0.0633  0.2699 -0.0320
   46CLA    CLA  155   0.653   0.426   0.610 -0.1370 -0.1649  0.3132
   47CLA    CLA  156   1.635   3.989   1.639 -0.2057 -0.0915 -0.2328
   48CLA    CLA  157   4.984   1.562   1.320  0.6349 -0.0413 -0.2201
   49CLA    CLA  158   4.293   3.103   4.376  0.3767 -0.1349  0.1334
   50CLA    CLA  159   3.886   4.929   1.191  0.4547 -0.3352  0.1934
   51CLA    CLA  160   2.374   1.649   0.015  0.1405 -0.2018 -0.1553
   52TIP3   OH2  161   2.993   3.785   3.883  0.6929  0.2367  0.4347
   52TIP3    H1  162   2.995   3.793   3.787 -0.5852  0.2712  0.3917
   52TIP3    H2  163   2.960   3.870   3.913 -1.1263 -0.5246  0.7394
   53TIP3   OH2  164   1.565   2.440   3.082  0.2616  0.4304 -0.5849
   53TIP3    H1  165   1.497   2.447   3.148 -0.0565  1.2111 -0.9844
   53TIP3    H2  166   1.593   2.530   3.066  0.4102  0.2431 -1.4338
   54TIP3   OH2  167   1.294   0.229   4.898  0.4069 -0.5028 -0.6689
   54TIP3    H1  168   1.239   0.277   4.836  1.1222 -0.7041 -1.4681
   54TIP3    H2  169   1.341   0.298   4.946 -3.0297 -0.0523  2.5616
   55TIP3   OH2  170   3.661   4.655   2.130 -0.3831  0.2827 -0.7364
   55TIP3    H1  171   3.697   4.609   2.206  0.0272  1.0717 -0.4444
   55TIP3    H2  172   3.596   4.715   2.167 -0.7644  0.1047 -1.0984
   56TIP3   OH2  173   0.587   2.428   2.954 -0.2801  0.0109 -0.3615
   56TIP3    H1  174   0.548   2.474   2.880  1.0115  2.0057  0.1057
   56TIP3    H2  175   0.645   2.363   2.914 -0.5595  0.1873 -1.0727
   57TIP3   OH2  176   4.691   1.448   4.338  0.3151 -0.6729  0.0985
   57TIP3    H1  177   4.711   1.434   4.245  0.6422 -0.5587  0.1519
   57TIP3    H2  178   4.614   1.504   4.338 -0.2720 -1.4612 -0.1120
   58TIP3   OH2  179   2.084   0.649   1.769  0.1791 -0.1046  0.6808
   58TIP3    H1  180   2.027   0.713   1.726  1.3776  2.0127  2.0232
   58TIP3    H2  181   2.058   0.565   1.732 -1.2496  1.1703 -1.4712
   59TIP3   OH2  182   2.939   1.395   0.788  0.4288  0.4015  0.6824
   59TIP3    H1  183   2.903   1.342   0.859  0.8455  0.3799  0.8804
   59TIP3    H2  184   3.019   1.349   0.762  0.3997  0.5328  0.3555
   60TIP3   OH2  185   4.554   0.479   5.152 -0.4692 -0.1384  0.0278
   60TIP3    H1  186   4.480   0.423   5.129 -0.4186 -1.7014  3.1935
   60TIP3    H2  187   4.515   0.551   5.202 -0.0569  0.2119 -0.1458
   61TIP3   OH2  188   2.708   4.592   3.876 -0.6593  0.1223  0.0266
   61TIP3    H1  189   2.751   4.616   3.794 -1.1135 -0.6337 -0.4513
   61TIP3    H2  190   2.615   4.590   3.854 -0.6430 -2.4267 -0.1140
   62TIP3   OH2  191   2.608   3.962   4.816  0.2560  0.4520  0.7625
   62TIP3    H1  192   2.552   4.039   4.823  0.9844  1.2775 -1.6117
   62TIP3    H2  193   2.551   3.894   4.780  0.1249  0.4873  0.9011
   63TIP3   OH2  194   5.412   1.374   4.957 -0.2229 -0.2737  0.1580
   63TIP3    H1  195   5.451   1.461   4.971 -0.2281 -0.4164  1.1806
   63TIP3    H2  196   5.476   1.313   4.994 -1.2909 -0.5226  1.7040
   64TIP3   OH2  197   5.412   0.949   3.490  0.0374  0.1438  0.3307
   64TIP3    H1  198   5.365   0.948   3.406  1.0748 -0.2811 -0.2645
   64TIP3    H2  199   5.347   0.921   3.554 -0.9278  1.0245 -0.2442
   65TIP3   OH2  200   6.030   0.319   3.971  0.0345  0.4062 -0.4262
   65TIP3    H1  201   6.004   0.382   4.038 -1.6499 -0.8879  0.2110
   65TIP3    H2  202   5.985   0.348   3.892  1.4544  1.5172 -0.8916
   66TIP3   OH2  203   1.699   3.436   4.668  0.0079  0.1425 -0.2613
   66TIP3    H1  204   1.742   3.493   4.604 -0.6480  1.7613  0.6710
   66TIP3    H2  205   1.748   3.451   4.749 -0.9706  0.3880  0.3000
   67TIP3   OH2  206   0.149   1.445   2.474  0.2999  0.2346 -0.5842
   67TIP3    H1  207   0.056   1.468   2.475  0.6441  1.9031 -1.7420
   67TIP3    H2  208   0.159   1.390   2.397  0.6964  2.3238 -2.0896
   68TIP3   OH2  209   5.118   0.444   1.386  0.2746  0.2310 -0.3140
   68TIP3    H1  210   5.206   0.457   1.420  0.7556  0.9430 -1.7538
   68TIP3    H2  211   5.126   0.462   1.292 -1.0798 -1.1953 -0.7389
   69TIP3   OH2  212   2.379   5.030   4.244 -0.3888  0.4379 -0.4639
   69TIP3    H1  213   2.337   4.946   4.225  1.2869 -0.2336 -1.3982
   69TIP3    H2  214   2.352   5.051   4.334 -2.4305 -0.0782 -0.9087
   70TIP3   OH2  215   0.131   4.123   3.227 -0.0544  0.2659  0.3392
   70TIP3    H1  216   0.179   4.145   3.147  1.8584 -0.8093  1.1101
   70TIP3    H2  217   0.123   4.027   3.224 -1.9492  0.3819  0.4059
   71TIP3   OH2  218   4.458   5.998   4.979  0.0441 -0.5570 -0.3042
   71TIP3    H1  219   4.551   5.976   4.991  0.1957  1.5734  3.9465
   71TIP3    H2  220   4.418   5.915   4.953  2.7006 -2.2781  0.6362
   72TIP3   OH2  221   1.063   5.632   2.725  0.0382 -0.3000  0.3797
   72TIP3    H1  222   1.094   5.639   2.815  1.2965  0.7749 -0.0940
   72TIP3    H2  223   1.006   5.708   2.713 -1.9354 -1.6330  0.8898
   73TIP3   OH2  224   4.875   5.572   4.247  0.1289 -0.0146 -0.2608
   73TIP3    H1  225   4.952   5.606   4.202  0.4958 -3.2417 -2.4426
   73TIP3    H2  226   4.802   5.626   4.215  0.7667 -0.5615 -2.8609
   74TIP3   OH2  227   2.312   4.194   2.047  0.9214 -0.0887 -0.0422
   74TIP3    H1  228   2.359   4.127   2.096  1.4228  1.1898  1.3182
   74TIP3    H2  229   2.380   4.254   2.018  0.3009  1.0101  0.7085
   75TIP3   OH2  230   6.093   2.403   1.503  0.0420  0.0462 -0.3582
   75TIP3    H1  231   6.182   2.386   1.475  0.0832  0.5395 -0.5298
   75TIP3    H2  232   6.046   2.428   1.423  0.0789  1.1188 -0.0657
   76TIP3   OH2  233   5.163   3.292   4.774 -0.0395 -0.2126 -0.4310
   76TIP3    H1  234   5.133   3.223   4.715  2.3584 -1.1249 -0.6969
   76TIP3    H2  235   5.188   3.364   4.717 -0.4905  0.0527 -0.3001
   77TIP3   OH2  236   4.745   3.834   3.345 -0.1554  0.1887 -0.2241
   77TIP3    H1  237   4.757   3.924   3.316  1.4647  0.5363  1.3207
   77TIP3    H2  238   4.819   3.787   3.307 -0.2760 -0.2101  0.0314
   78TIP3   OH2  239   3.817   0.610   4.513 -0.0384 -0.4728  0.0199
   78TIP3    H1  240   3.829   0.515   4.506  1.4205 -0.3911  1.0801
   78TIP3    H2  241   3.812   0.628   4.607  2.4899  0.7754 -0.0164
   79TIP3   OH2  242   5.144   4.338   0.835  0.3095 -0.0157  0.4374
   79TIP3    H1  243   5.192   4.328   0.918  1.8671  1.6488 -0.1948
   79TIP3    H2  244   5.093   4.418   0.847  0.5090  0.2065 -0.1874
   80TIP3   OH2  245   5.444   0.651   1.949  1.0236 -0.1227  0.4349
   80TIP3    H1  246   5.501   0.592   1.998  0.2432 -0.0693  1.4299
   80TIP3    H2  247   5.449   0.734   1.996 -2.2198 -0.9102  2.4423
   81TIP3   OH2  248   3.097   2.966   1.348  0.3696 -0.6664  0.1251
   81TIP3    H1  249   3.105   3.021   1.270 -1.0096  0.0527  0.4636
   81TIP3    H2  250   3.018   2.915   1.333  0.4099 -0.9306  0.8152
   82TIP3   OH2  251   4.445   1.852   2.099 -0.4923  0.4177 -0.2790
   82TIP3    H1  252   4.493   1.890   2.172 -0.1984 -0.9983  0.2964
   82TIP3    H2  253   4.425   1.927   2.042 -0.4925  1.5119  1.0934
   83TIP3   OH2  254   1.161   5.959   3.632  0.1126 -0.4805  0.1003
   83TIP3    H1  255   1.112   5.954   3.550  0.4328  0.5101 -0.1712
   83TIP3    H2  256   1.237   6.013   3.611  0.6096 -0.8731  0.8579
   84TIP3   OH2  257   5.417   0.764   3.078 -0.4007 -0.3857  0.5804
   84TIP3    H1  258   5.497   0.757   3.025  0.7749 -1.3447  2.3693
   84TIP3    H2  259   5.363   0.691   3.048 -0.1003 -0.4376  0.1518
   85TIP3   OH2  260   2.142   1.584   3.885  0.1644  0.3184 -0.2234
   85TIP3    H1  261   2.096   1.668   3.890  1.3801  0.9537  1.0430
   85TIP3    H2  262   2.210   1.590   3.952  0.9132 -1.3035 -0.7842
   86TIP3   OH2  263   0.265   3.872   4.783 -0.6971 -0.1056 -0.5353
   86TIP3    H1  264   0.332   3.940   4.785 -0.1180 -0.6434 -1.0920
   86TIP3    H2  265   0.208   3.896   4.710 -1.3434  0.5645  0.1857
   87TIP3   OH2  266   4.635   4.367   0.518 -0.1732 -0.0168  0.2384
   87TIP3    H1  267   4.651   4.380   0.612  0.1290 -0.3072  0.2298
   87TIP3    H2  268   4.660   4.276   0.502  1.1796  0.4275 -0.3969
   88TIP3   OH2  269   5.087   4.976   3.498  0.0115  0.7727  0.1492
   88TIP3    H1  270   5.090   4.981   3.593  0.6813 -1.7727  0.3198
   88TIP3    H2  271   4.993   4.977   3.477 -0.2077 -0.3623  0.9894
   89TIP3   OH2  272   0.782   3.800   0.362 -0.3008 -0.1250 -0.7203
   89TIP3    H1  273   0.694   3.827   0.386 -0.4661 -0.0561 -1.3786
   89TIP3    H2  274   0.825   3.880   0.333  0.6642  0.2411  1.5231
   90TIP3   OH2  275   4.123   2.740   2.432 -0.1042  0.3215 -0.3176
   90TIP3    H1  276   4.110   2.650   2.462  0.4304  0.6255  0.9218
   90TIP3    H2  277   4.037   2.766   2.398 -0.3485 -0.5487 -0.3964
   91TIP3   OH2  278   4.075   3.285   3.159 -0.0086  0.0832 -0.0428
   91TIP3    H1  279   4.132   3.207   3.163  0.5495  0.5008  0.2624
   91TIP3    H2  280   4.038   3.282   3.071 -0.0242 -0.5517 -0.0249
   92TIP3   OH2  281   0.513   3.143   1.014  0.0474 -0.6060  0.0099
   92TIP3    H1  282   0.505   3.055   0.977 -2.1962 -0.4854  0.0713
   92TIP3    H2  283   0.607   3.160   1.014  0.3808 -1.6384 -3.2167
   93TIP3   OH2  284   3.382   0.760   2.978  0.2190 -0.3581  0.3118
   93TIP3    H1  285   3.474   0.782   2.988  0.1760  0.6417 -1.1361
   93TIP3    H2  286   3.373   0.733   2.886 -1.0952  0.5460  0.1366
   94TIP3   OH2  287   3.295   5.166   1.713  0.0591  0.0777 -0.0056
   94TIP3    H1  288   3.290   5.116   1.632  0.6799  1.2339 -0.7861
   94TIP3    H2  289   3.289   5.258   1.686 -0.7896  0.4674  1.3609
   95TIP3   OH2  290   4.362   1.825   4.617  0.1748 -0.0518  0.0426
   95TIP3    H1  291   4.345   1.881   4.693 -0.6474  0.2164 -0.3277
   95TIP3    H2  292   4.443   1.861   4.579  0.9522 -0.5747  1.1260
   96TIP3   OH2  293   2.423   1.431   1.377 -0.1304 -0.6602  0.2599
   96TIP3    H1  294   2.403   1.405   1.467 -0.9980  3.0025  1.3204
   96TIP3    H2  295   2.369   1.509   1.363  2.0281  0.4980 -2.4831
   97TIP3   OH2  296   4.452   0.643   1.275  0.0759 -0.4927 -0.3340
   97TIP3    H1  297   4.481   0.635   1.185  2.4846  0.7488  0.2687
   97TIP3    H2  298   4.511   0.586   1.324 -1.1640 -1.1088  0.5062
   98TIP3   OH2  299   1.835   5.185   1.638  0.5345  0.0024  0.3150
   98TIP3    H1  300   1.758   5.242   1.642  0.2509 -0.4146  0.8050
   98TIP3    H2  301   1.821   5.130   1.561  0.8819  0.6877 -0.2511
   99TIP3   OH2  302   2.461   3.430   2.087 -0.4967 -0.9920 -1.0264
   99TIP3    H1  303   2.416   3.514   2.093  1.4949  0.0666  0.6256
   99TIP3    H2  304   2.456   3.394   2.175  2.2159 -0.5400 -0.5913
  100TIP3   OH2  305   1.534   4.766   3.748  0.1768  0.0685 -0.6182
  100TIP3    H1  306   1.535   4.793   3.840 -0.6901  0.4128 -0.6979
  100TIP3    H2  307   1.549   4.847   3.699  0.2163 -0.0424 -0.7903
  101TIP3   OH2  308   0.886   1.109   3.624 -0.1589 -0.3421  0.9113
  101TIP3    H1  309   0.956   1.135   3.565  1.0770 -1.5100  1.8015
  101TIP3    H2  310   0.894   1.014   3.631 -0.2798 -0.2595  2.8983
  102TIP3   OH2  311   4.701   2.912   0.211  0.0951 -0.3401 -0.6677
  102TIP3    H1  312   4.687   2.866   0.294 -0.1783 -0.1496 -0.6074
  102TIP3    H2  313   4.641   2.869   0.150  1.0089 -1.1508 -1.0235
  103TIP3   OH2  314   2.469   2.485   4.788  0.6957  0.8910 -0.0220
  103TIP3    H1  315   2.461   2.499   4.882  0.3194 -0.4458  0.1569
  103TIP3    H2  316   2.551   2.438   4.777 -0.2177 -0.7437 -0.1362
  104TIP3   OH2  317   5.836   3.149   2.913 -0.5781 -0.3046  0.0600
  104TIP3    H1  318   5.828   3.054   2.927  2.1941 -0.6281 -0.0219
  104TIP3    H2  319   5.756   3.185   2.952 -1.5767 -2.6274  0.3660
  105TIP3   OH2  320   0.053   2.295   0.202  0.0797 -0.4382 -0.0549
  105TIP3    H1  321   0.015   2.289   0.115 -0.3561 -0.6126  0.1420
  105TIP3    H2  322   0.146   2.277   0.189 -0.1778 -1.6992 -0.3244
  106TIP3   OH2  323   4.548   2.826   2.761 -0.2684  0.2213 -0.2166
  106TIP3    H1  324   4.607   2.779   2.702 -0.0960  0.8924 -0.5825
  106TIP3    H2  325   4.605   2.881   2.815 -0.2888 -1.3880  1.5556
  107TIP3   OH2  326   3.353   2.290   0.175 -0.8293  0.5055  0.0097
  107TIP3    H1  327   3.439   2.331   0.171  0.3404 -1.7442  0.8336
  107TIP3    H2  328   3.318   2.314   0.261 -0.3090  0.0946  0.3394
  108TIP3   OH2  329   2.704   4.705   2.627 -0.2364 -0.0310 -0.4419
  108TIP3    H1  330   2.713   4.791   2.668 -0.4909 -0.8258  1.4161
  108TIP3    H2  331   2.610   4.688   2.628 -0.2127 -0.2070 -1.0731
  109TIP3   OH2  332   3.391   1.116   2.819  0.4274 -0.0032  0.2273
  109TIP3    H1  333   3.350   1.196   2.853  0.3831 -0.5837  1.5906
  109TIP3    H2  334   3.470   1.106   2.871  0.2201 -1.0802  0.3497
  110TIP3   OH2  335   1.328   1.273   1.440  0.3967 -0.6298 -0.6492
  110TIP3    H1  336   1.342   1.361   1.405 -1.1095 -0.7357 -1.5971
  110TIP3    H2  337   1.256   1.283   1.502  1.8350 -0.7886  1.1553
  111TIP3   OH2  338   1.064   3.197   0.225 -0.1794  0.0586 -0.6943
  111TIP3    H1  339   0.994   3.184   0.161 -0.8592 -0.7550  0.1876
  111TIP3    H2  340   1.141   3.157   0.185 -0.7312 -0.9403 -0.7868
  112TIP3   OH2  341   2.126   4.275   3.120 -0.7188 -0.2785  0.2857
  112TIP3    H1  342   2.105   4.302   3.210  2.7993  1.2640  0.8139
  112TIP3    H2  343   2.071   4.198   3.105 -2.6807  0.3913  3.0934
  113TIP3   OH2  344   1.928   3.180   1.577 -0.0905 -0.1277 -0.1504
  113TIP3    H1  345   1.867   3.144   1.513  0.9377  0.5288 -1.5602
  113TIP3    H2  346   1.953   3.104   1.630 -0.7058 -0.7682 -0.7444
  114TIP3   OH2  347   3.227   4.318   4.217  0.3281  0.0748 -0.4288
  114TIP3    H1  348   3.244   4.246   4.157 -0.1768 -0.4250  0.0198
  114TIP3    H2  349   3.155   4.367   4.176 -1.1924 -1.2434  0.5662
  115TIP3   OH2  350   3.930   1.349   1.211 -0.4303  0.5391  0.0067
  115TIP3    H1  351   3.977   1.288   1.269  1.6121  2.1856  0.2109
  115TIP3    H2  352   3.995   1.372   1.144 -2.2521 -0.1108 -2.0815
  116TIP3   OH2  353   3.109   5.842   4.776 -0.3361 -0.1557 -0.1503
  116TIP3    H1  354   3.026   5.818   4.819 -1.0302  2.3485  0.0742
  116TIP3    H2  355   3.091   5.927   4.736  2.1180  0.4454 -0.1178
  117TIP3   OH2  356   2.610   3.646   1.612  0.1437 -0.4587  0.1569
  117TIP3    H1  357   2.558   3.624   1.535 -2.2406  1.5690  1.0424
  117TIP3    H2  358   2.565   3.602   1.684 -2.2559  3.4009  1.3294
  118TIP3   OH2  359   3.775   3.952   0.347 -0.1090  0.6965 -0.1682
  118TIP3    H1  360   3.685   3.951   0.316  0.6995  0.1169 -2.7665
  118TIP3    H2  361   3.807   3.863   0.331  1.1850  1.1394 -0.1954
  119TIP3   OH2  362   5.106   2.249   2.751  0.2238 -0.8242 -0.2579
  119TIP3    H1  363   5.091   2.343   2.753 -0.6985 -0.9707  0.0672
  119TIP3    H2  364   5.036   2.215   2.694  0.8591 -1.2616 -0.7937
  120TIP3   OH2  365   3.104   5.871   1.826 -0.2858  0.1214  0.0995
  120TIP3    H1  366   3.078   5.893   1.736  0.0768  1.0835  0.2135
  120TIP3    H2  367   3.198   5.890   1.829 -0.5800  1.6044  1.0856
  121TIP3   OH2  368   1.469   3.751   1.713  0.3144  0.2343 -0.4483
  121TIP3    H1  369   1.504   3.694   1.645  3.6674  0.8045  0.6187
  121TIP3    H2  370   1.517   3.833   1.703 -0.3494  0.9304  1.5122
  122TIP3   OH2  371   4.764   5.227   4.800  0.4109  0.6509  0.3245
  122TIP3    H1  372   4.748   5.151   4.856 -0.2971  0.8806  0.4368
  122TIP3    H2  373   4.679   5.270   4.792  0.9220  1.8004  0.7811
  123TIP3   OH2  374   4.118   0.920   0.609  0.3626 -0.0076 -0.3434
  123TIP3    H1  375   4.119   0.958   0.697  0.9335 -0.5198 -0.1216
  123TIP3    H2  376   4.169   0.840   0.617 -0.2962 -0.4974 -0.9509
  124TIP3   OH2  377   5.943   3.430   1.512 -0.1393  0.4558 -0.2830
  124TIP3    H1  378   5.935   3.335   1.503 -2.1856  0.6956 -1.8671
  124TIP3    H2  379   5.997   3.442   1.590 -2.3085 -1.9958  1.8005
  125TIP3   OH2  380   4.686   5.614   5.133 -0.0442 -0.2200 -0.4491
  125TIP3    H1  381   4.594   5.593   5.152 -0.1273  0.6731  0.2321
  125TIP3    H2  382   4.726   5.624   5.220  1.0063 -1.8292 -0.7195
  126TIP3   OH2  383   5.835   1.280   1.555  0.5192 -0.2716  0.0374
  126TIP3    H1  384   5.839   1.228   1.475  1.4699 -0.6659  0.3242
  126TIP3    H2  385   5.916   1.259   1.601  0.7946  1.2470  0.3016
  127TIP3   OH2  386   3.917   5.085   2.621  0.2765 -0.2518  0.0313
  127TIP3    H1  387   3.891   5.003   2.664 -0.7086 -0.8985 -1.6850
  127TIP3    H2  388   3.895   5.072   2.529  1.6583  1.3374 -0.5803
  128TIP3   OH2  389   3.874   2.560   2.451 -0.0588 -0.4019  0.1332
  128TIP3    H1  390   3.809   2.605   2.397  0.9866  1.8196  0.6478
  128TIP3    H2  391   3.851   2.582   2.541 -0.7921 -2.7213  0.5795
  129TIP3   OH2  392   0.330   3.781   0.254  0.2755  0.6842 -0.1153
  129TIP3    H1  393   0.388   3.726   0.202 -1.3411 -0.4811 -0.7749
  129TIP3    H2  394   0.326   3.738   0.340 -0.9297 -0.2659 -0.6081
  130TIP3   OH2  395   4.165   0.182   2.646 -0.6546  0.7027  0.1201
  130TIP3    H1  396   4.105   0.115   2.678 -0.8229  1.1108  0.6691
  130TIP3    H2  397   4.222   0.135   2.585 -1.3530  0.2558 -0.2043
  131TIP3   OH2  398   2.048   3.663   2.102  1.0550 -0.1986 -0.0110
  131TIP3    H1  399   1.976   3.727   2.095  1.9295  0.8302  0.1103
  131TIP3    H2  400   2.056   3.627   2.014  1.1374  0.5402 -0.3178
  132TIP3   OH2  401   2.612   4.808   2.922 -0.5303 -0.1783 -0.1602
  132TIP3    H1  402   2.603   4.739   2.856 -3.3460  0.6602 -0.7926
  132TIP3    H2  403   2.534   4.862   2.910  1.0212  2.4923  1.0605
  133TIP3   OH2  404   6.234   3.859   3.390 -0.2793  0.1724  0.0684
  133TIP3    H1  405   6.294   3.876   3.317  1.9543 -3.1727  0.8989
  133TIP3    H2  406   6.181   3.784   3.360 -1.2244  0.4689  0.9332
  134TIP3   OH2  407   4.393   5.441   2.246  0.3480 -0.5928 -0.0984
  134TIP3    H1  408   4.340   5.480   2.176  1.8259  0.0192 -0.9197
  134TIP3    H2  409   4.481   5.477   2.233  1.2306 -2.3823  0.5843
  135TIP3   OH2  410   0.083   2.431   2.313 -0.3799  0.3507  0.2585
  135TIP3    H1  411   0.021   2.370   2.353 -0.2451 -1.0150 -1.4657
  135TIP3    H2  412   0.047   2.448   2.226  2.3684 -1.8498 -1.4951
  136TIP3   OH2  413   0.085   1.371   3.611 -0.2771 -0.8863 -0.0653
  136TIP3    H1  414   0.129   1.449   3.576  1.7803 -0.8631  2.2804
  136TIP3    H2  415   0.004   1.365   3.561 -0.2679  2.4500 -0.7329
  137TIP3   OH2  416   4.198   4.177   3.535 -0.2935 -0.1180  0.1367
  137TIP3    H1  417   4.219   4.222   3.617 -0.5350  1.4128 -0.5936
  137TIP3    H2  418   4.106   4.154   3.543 -0.9413  2.0188 -0.5340
  138TIP3   OH2  419   3.124   5.315   4.174  0.1941 -0.0761  0.0453
  138TIP3    H1  420   3.095   5.287   4.261  0.6873 -0.9178 -0.0516
  138TIP3    H2  421   3.071   5.265   4.113  1.4693 -1.2793 -0.1303
  139TIP3   OH2  422   0.731   4.270   2.583 -0.1584  0.7528  0.2911
  139TIP3    H1  423   0.774   4.220   2.653 -0.1095  1.0424  0.4709
  139TIP3    H2  424   0.780   4.248   2.504  0.8194  1.6701  0.6211
  140TIP3   OH2  425   6.322   3.997   5.063 -0.3090  0.1092  0.4179
  140TIP3    H1  426   6.335   3.928   5.128 -0.6263  0.0259  0.3974
  140TIP3    H2  427   6.340   3.955   4.979 -0.1333  0.1521  0.4350
  141TIP3   OH2  428   2.608   2.947   3.012 -0.5195 -0.7327 -0.2865
  141TIP3    H1  429   2.627   2.929   2.920 -1.5879  0.2674 -0.7310
  141TIP3    H2  430   2.532   2.893   3.032 -0.3230 -0.9077 -0.0003
  142TIP3   OH2  431   2.655   3.642   3.546 -0.0707  0.7136 -0.1439
  142TIP3    H1  432   2.671   3.645   3.640 -0.6528 -2.1340  0.1210
  142TIP3    H2  433   2.580   3.700   3.532 -0.6820  0.3054  1.3292
  143TIP3   OH2  434   0.105   3.013   0.695  0.3181 -0.2064  0.0303
  143TIP3    H1  435   0.158   3.057   0.628 -0.4921 -0.7349 -0.9759
  143TIP3    H2  436   0.066   2.938   0.650 -3.7431  1.7814 -0.2001
  144TIP3   OH2  437   3.788   1.831   1.593  0.2322 -0.2906  0.0847
  144TIP3    H1  438   3.831   1.871   1.517  0.9404 -0.9203  0.1453
  144TIP3    H2  439   3.722   1.773   1.556 -1.5937  1.7193 -0.0011
  145TIP3   OH2  440   3.808   4.460   2.718  0.1246  0.1977  0.1892
  145TIP3    H1  441   3.818   4.405   2.640 -1.8731  2.0861 -1.5173
  145TIP3    H2  442   3.881   4.522   2.713 -0.5241  0.9218 -0.7818
  146TIP3   OH2  443   4.417   5.004   3.930 -0.4405 -0.0705 -0.3781
  146TIP3    H1  444   4.369   4.957   3.998  0.0855 -0.8470 -0.5298
  146TIP3    H2  445   4.430   5.092   3.966  1.4942 -0.9909  1.3718
  147TIP3   OH2  446   5.426   5.562   4.180 -0.2741 -0.4227 -0.1164
  147TIP3    H1  447   5.399   5.654   4.178 -2.2605 -0.9743 -0.4461
  147TIP3    H2  448   5.498   5.560   4.243 -0.1231  1.3706 -0.1804
  148TIP3   OH2  449   2.242   4.182   1.581  0.5671  0.0044 -0.1109
  148TIP3    H1  450   2.233   4.090   1.606 -1.4404  0.1595 -0.0564
  148TIP3    H2  451   2.198   4.230   1.652  3.0857  1.1876  0.7761
  149TIP3   OH2  452   3.356   1.392   3.846  0.0774  0.0134 -0.5759
  149TIP3    H1  453   3.328   1.313   3.799  0.3124  0.2802 -1.1712
  149TIP3    H2  454   3.363   1.459   3.778  1.3021  0.1770 -0.3076
  150TIP3   OH2  455   5.764   3.211   1.085  0.4795 -0.3515 -0.1874
  150TIP3    H1  456   5.751   3.306   1.088 -1.0910 -0.5643  0.7038
  150TIP3    H2  457   5.813   3.196   1.004  0.0253  1.1335 -0.7640
  151TIP3   OH2  458   5.767   2.388   2.091 -0.1616  0.3556  0.5198
  151TIP3    H1  459   5.836   2.346   2.141 -0.9126 -0.5299  0.8380
  151TIP3    H2  460   5.788   2.481   2.094  0.5590  0.1755  1.3029
  152TIP3   OH2  461   0.881   3.673   1.170  0.7279  0.2091 -0.2197
  152TIP3    H1  462   0.927   3.610   1.115  0.2290 -0.8515  0.5538
  152TIP3    H2  463   0.840   3.620   1.238 -2.2313  1.0066 -1.2267
  153TIP3   OH2  464   1.315   2.820   3.258  0.1133  0.4820 -0.7710
  153TIP3    H1  465   1.237   2.769   3.278 -1.0376  1.6213 -2.1539
  153TIP3    H2  466   1.325   2.813   3.163  0.5600  1.9256 -0.8535
  154TIP3   OH2  467   3.928   0.799   4.999 -0.0417 -0.4192  0.2761
  154TIP3    H1  468   3.932   0.847   4.916  1.1296  0.8428  1.0193
  154TIP3    H2  469   4.019   0.772   5.014 -0.5848 -2.4000  0.1729
  155TIP3   OH2  470   2.595   1.806   1.898  0.0427  0.5905 -0.3812
  155TIP3    H1  471   2.618   1.892   1.932  0.3471  0.5464 -0.4767
  155TIP3    H2  472   2.512   1.820   1.851  0.2714  0.9029 -0.6940
  156TIP3   OH2  473   4.204   5.872   2.335 -0.2061 -0.1634 -0.5135
  156TIP3    H1  474   4.211   5.949   2.279 -0.9594  0.4437  0.1898
  156TIP3    H2  475   4.172   5.907   2.419 -0.0623 -1.1722 -0.0274
  157TIP3   OH2  476   4.622   1.706   0.064 -0.0356  0.4029  0.3162
  157TIP3    H1  477   4.665   1.763  -0.000  0.1936  1.3799  1.2961
  157TIP3    H2  478   4.694   1.667   0.114 -0.1804 -1.0141 -0.5334
  158TIP3   OH2  479   6.160   0.413   1.890  0.1885  0.6020 -0.3964
  158TIP3    H1  480   6.239   0.382   1.935  0.5833  1.0868 -0.7357
  158TIP3    H2  481   6.187   0.424   1.799 -0.8479 -1.2572 -0.9722
  159TIP3   OH2  482   1.350   3.443   2.435 -0.2319 -0.4150 -0.8700
  159TIP3    H1  483   1.402   3.412   2.508  1.3211  0.6981 -1.4487
  159TIP3    H2  484   1.375   3.387   2.361 -1.2239 -1.0400 -0.7496
  160TIP3   OH2  485   3.703   4.713   4.096 -0.5840 -0.0430  0.9170
  160TIP3    H1  486   3.704   4.644   4.029 -0.0504  1.6078 -0.8865
  160TIP3    H2  487   3.618   4.756   4.085  0.1316  1.2467  0.1333
  161TIP3   OH2  488   4.443   3.385   4.476  0.4383 -0.1609 -0.0666
  161TIP3    H1  489   4.368   3.429   4.516  0.7744 -0.8190  1.3612
  161TIP3    H2  490   4.406   3.308   4.434  0.2691 -0.3874  0.4803
  162TIP3   OH2  491   1.984   2.084   2.038  0.0028  0.3277  0.6322
  162TIP3    H1  492   1.891   2.070   2.018  0.0818  0.4582  0.1553
  162TIP3    H2  493   1.984   2.122   2.126 -0.4452  0.9607  0.3687
  163TIP3   OH2  494   5.433   4.493   1.403 -0.2757  0.3339  0.0284
  163TIP3    H1  495   5.518   4.511   1.363 -0.3142 -0.7758 -0.5700
  163TIP3    H2  496   5.433   4.546   1.483  0.6101  1.0281 -0.4154
  164TIP3   OH2  497   5.292   1.845   3.486  0.2188  0.4599  0.2680
  164TIP3    H1  498   5.201   1.845   3.514  0.7006  2.6213  2.2138
  164TIP3    H2  499   5.335   1.781   3.542  0.0368 -0.0485 -0.1667
  165TIP3   OH2  500   4.773   5.052   4.564 -0.0551  0.4992 -0.2296
  165TIP3    H1  501   4.680   5.051   4.583  0.0296 -0.0238  0.1950
  165TIP3    H2  502   4.810   4.984   4.621  0.1349 -1.5797 -2.6510
  166TIP3   OH2  503   1.824   0.298   4.794 -0.0392  0.5188 -0.3825
  166TIP3    H1  504   1.850   0.367   4.855  1.2262  0.3655 -0.7222
  166TIP3    H2  505   1.841   0.217   4.842 -2.6306  0.3679  0.4787
  167TIP3   OH2  506   1.918   1.076   2.447  0.0017 -0.6841  0.2107
  167TIP3    H1  507   1.925   1.081   2.543 -2.4779  1.5447  0.3762
  167TIP3    H2  508   1.874   0.993   2.431 -1.5683 -0.1086  1.2344
  168TIP3   OH2  509   6.332   4.520   5.186  0.6065  0.2464 -0.5247
  168TIP3    H1  510   6.269   4.578   5.144  1.5175  1.2394 -0.5610
  168TIP3    H2  511   6.411   4.527   5.132  0.3343 -2.1139 -1.3418
  169TIP3   OH2  512   4.310   5.109   0.075  0.0731 -0.1323 -0.0879
  169TIP3    H1  513   4.286   5.016   0.066 -0.4135 -0.1668  1.2416
  169TIP3    H2  514   4.308   5.124   0.170  1.2150  0.9692 -0.2274
  170TIP3   OH2  515   2.867   4.178   2.118  0.1450 -0.0681 -0.3666
  170TIP3    H1  516   2.796   4.184   2.054 -2.6974  0.4058  2.5947
  170TIP3    H2  517   2.861   4.258   2.169  1.0234 -1.2400  1.6991
  171TIP3   OH2  518   0.803   4.290   3.310  0.7456 -0.1714 -1.2314
  171TIP3    H1  519   0.757   4.213   3.344  0.0173  0.6516 -0.2946
  171TIP3    H2  520   0.891   4.283   3.347  0.5685 -0.3549 -0.8419
  172TIP3   OH2  521   3.716   1.080   4.996  0.2489  0.4082  0.2921
  172TIP3    H1  522   3.769   1.069   5.075 -0.3122  0.9320  0.7557
  172TIP3    H2  523   3.666   1.160   5.012 -0.2782  0.2204 -0.3670
  173TIP3   OH2  524   1.089   3.421   0.035  0.0999 -0.2585  0.3422
  173TIP3    H1  525   1.096   3.342   0.089 -0.3342 -0.3990  0.2002
  173TIP3    H2  526   1.104   3.389  -0.054  2.0037  0.1530  0.4584
  174TIP3   OH2  527   2.383   4.366   5.029  0.1427 -0.4819  0.3094
  174TIP3    H1  528   2.449   4.435   5.023  0.4146 -0.7021  0.7474
  174TIP3    H2  529   2.412   4.311   5.101 -1.6526  0.6451  2.0312
  175TIP3   OH2  530   4.639   4.225   2.011  0.2039 -0.2482  0.1228
  175TIP3    H1  531   4.692   4.176   1.948  1.4166  0.7778  0.3038
  175TIP3    H2  532   4.557   4.241   1.965  1.4500  1.4451 -1.6885
  176TIP3   OH2  533   5.750   5.617   3.546  0.4559  0.1361  0.0944
  176TIP3    H1  534   5.787   5.535   3.578 -0.6089 -0.3556  0.1198
  176TIP3    H2  535   5.721   5.663   3.625 -1.0773 -0.5396 -0.0310
  177TIP3   OH2  536   1.867   5.890   1.467 -0.3352 -0.0585  0.1407
  177TIP3    H1  537   1.868   5.975   1.509  0.0510  0.0944 -0.1726
  177TIP3    H2  538   1.956   5.878   1.433  0.0810 -1.2650  1.5170
  178TIP3   OH2  539   3.391   0.435   3.187 -0.5037 -0.0222 -0.3466
  178TIP3    H1  540   3.375   0.485   3.266 -0.3747 -0.2768 -0.1573
  178TIP3    H2  541   3.308   0.438   3.139 -0.8455 -0.5730  0.1973
  179TIP3   OH2  542   2.979   2.765   4.541 -0.2956  0.2114  0.1492
  179TIP3    H1  543   3.046   2.708   4.578  1.5579  1.5975 -0.8859
  179TIP3    H2  544   2.937   2.712   4.473  0.5262 -0.3414  0.0601
  180TIP3   OH2  545   6.180   0.113   2.804  0.1323 -0.0653  0.2356
  180TIP3    H1  546   6.144   0.026   2.822  2.2557 -0.8597  0.9528
  180TIP3    H2  547   6.254   0.096   2.745  0.7981  1.2162  0.6721
  181TIP3   OH2  548   3.630   1.331   0.195  0.0503  0.0357  0.0933
  181TIP3    H1  549   3.632   1.323   0.100  0.0206 -1.5588  0.1998
  181TIP3    H2  550   3.538   1.318   0.219  0.0573  0.4242  0.3515
  182TIP3   OH2  551   5.305   0.905   2.539 -0.0314 -0.2701 -0.2099
  182TIP3    H1  552   5.282   0.984   2.588 -0.6078  1.8453 -3.5613
  182TIP3    H2  553   5.232   0.845   2.556 -0.6106  0.6676  0.8376
  183TIP3   OH2  554   3.368   1.797   2.219 -0.2650  0.0213  0.3730
  183TIP3    H1  555   3.356   1.707   2.248 -0.2076  0.0468  0.4793
  183TIP3    H2  556   3.458   1.800   2.187 -0.2408  0.0595  0.4431
  184TIP3   OH2  557   0.068   4.099   0.631  0.4477 -0.0894  0.3872
  184TIP3    H1  558   0.022   4.037   0.688 -0.7235 -0.4349 -0.8624
  184TIP3    H2  559   0.012   4.177   0.630  2.3830  1.4826  2.7169
  185TIP3   OH2  560   0.803   4.105   2.782  0.4913  0.2733 -0.5081
  185TIP3    H1  561   0.811   4.168   2.854 -0.0338  0.8889 -0.9662
  185TIP3    H2  562   0.864   4.035   2.803 -0.3994 -0.0585  1.0532
  186TIP3   OH2  563   0.772   5.303   4.317  0.1491 -0.2521  0.0681
  186TIP3    H1  564   0.732   5.265   4.239  1.0958 -0.4756 -0.3112
  186TIP3    H2  565   0.812   5.384   4.287 -0.5799  0.3165  0.5844
  187TIP3   OH2  566   1.965   5.782   0.369 -0.1514 -0.4269 -0.2647
  187TIP3    H1  567   1.942   5.706   0.423  1.0365 -0.1106  0.7140
  187TIP3    H2  568   1.938   5.858   0.421 -0.1132 -0.1463 -0.6507
  188TIP3   OH2  569   1.431   4.620   0.191  0.0558  0.2247 -0.1687
  188TIP3    H1  570   1.413   4.657   0.104  0.5870 -0.1536 -0.4467
  188TIP3    H2  571   1.364   4.658   0.248 -0.9494 -0.3309 -0.9517
  189TIP3   OH2  572   5.779   3.534   0.097  0.1177 -0.1223  0.5608
  189TIP3    H1  573   5.759   3.544   0.190  1.7230  0.1243  0.9080
  189TIP3    H2  574   5.874   3.525   0.094  0.3757  2.2777 -1.2285
  190TIP3   OH2  575   2.726   5.191   1.206 -0.2513  0.6125  0.2865
  190TIP3    H1  576   2.784   5.121   1.177 -0.3689  0.2807  0.8357
  190TIP3    H2  577   2.774   5.272   1.188 -0.0508  0.3852 -0.2049
  191TIP3   OH2  578   4.417   1.046   4.198  0.6050 -0.3121 -0.2087
  191TIP3    H1  579   4.384   1.130   4.231  0.5304  0.0845 -1.2586
  191TIP3    H2  580   4.388   1.043   4.107  3.2758 -0.0258 -1.1613
  192TIP3   OH2  581   3.642   0.166   2.849 -0.5826  0.4033  0.4885
  192TIP3    H1  582   3.717   0.221   2.829  0.6040 -1.2129  0.2502
  192TIP3    H2  583   3.598   0.210   2.922  0.3706  1.5807  0.3688
  193TIP3   OH2  584   0.577   3.844   2.429  0.0029  0.2693 -0.1450
  193TIP3    H1  585   0.626   3.910   2.479  2.1565  0.0119 -1.7962
  193TIP3    H2  586   0.507   3.894   2.386  1.3761  1.4392 -1.0808
  194TIP3   OH2  587   5.600   0.782   1.107 -0.2387 -0.1947  0.1741
  194TIP3    H1  588   5.540   0.827   1.048 -1.2240 -1.4400  0.2003
  194TIP3    H2  589   5.687   0.800   1.071 -0.8479 -1.7503 -2.3069
  195TIP3   OH2  590   4.742   4.366   1.615 -0.1518  0.1761 -0.2218
  195TIP3    H1  591   4.675   4.414   1.663  0.1729  0.2782  0.1397
  195TIP3    H2  592   4.777   4.429   1.552 -0.7129 -0.0152 -0.7371
  196TIP3   OH2  593   3.289   3.263   4.931 -0.2416  0.4308  0.1474
  196TIP3    H1  594   3.325   3.258   5.020 -1.5400  0.8507  0.7139
  196TIP3    H2  595   3.308   3.177   4.893  0.0398  0.1265  0.9467
  197TIP3   OH2  596   6.090   0.374   0.336 -0.4575 -0.3020 -0.3870
  197TIP3    H1  597   6.020   0.436   0.313 -0.4706 -0.4074 -0.6411
  197TIP3    H2  598   6.146   0.371   0.258  1.0334  1.3930  0.5457
  198TIP3   OH2  599   5.728   1.536   4.108  0.4769 -0.2738 -0.4137
  198TIP3    H1  600   5.775   1.619   4.101 -1.1875  0.6170 -1.9624
  198TIP3    H2  601   5.746   1.505   4.197  0.6388  2.0544  0.4324
  199TIP3   OH2  602   6.102   3.342   1.168 -0.0061 -0.0602  0.2198
  199TIP3    H1  603   6.196   3.324   1.167 -0.0968 -0.5935 -1.0665
  199TIP3    H2  604   6.071   3.302   1.250  0.6424 -1.3153 -0.1224
  200TIP3   OH2  605   3.249   4.091   2.619 -0.1902  0.2322  0.2190
  200TIP3    H1  606   3.326   4.045   2.651 -0.5433 -0.1093  0.5924
  200TIP3    H2  607   3.283   4.158   2.560  0.4100  0.2806  0.6167
  201TIP3   OH2  608   0.951   2.036   2.363  0.2879  0.2214  0.0255
  201TIP3    H1  609   1.028   2.044   2.420 -1.1377  0.9625  1.9702
  201TIP3    H2  610   0.938   2.124   2.328  0.3949  0.0663 -0.4101
  202TIP3   OH2  611   1.287   3.804   1.305  1.0553 -0.3547 -0.2563
  202TIP3    H1  612   1.323   3.868   1.244 -1.1410  1.4721  0.2441
  202TIP3    H2  613   1.303   3.719   1.263  2.1609  0.6407 -1.9528
  203TIP3   OH2  614   2.825   4.204   1.690  0.6145  0.2463 -0.9466
  203TIP3    H1  615   2.753   4.142   1.704  1.1197 -0.3422 -0.8632
  203TIP3    H2  616   2.790   4.289   1.715 -0.4496  0.1786 -2.1227
  204TIP3   OH2  617   0.108   2.654   4.066  0.0768  1.3520 -0.2117
  204TIP3    H1  618   0.116   2.744   4.095 -1.7672  1.0738  1.3446
  204TIP3    H2  619   0.014   2.640   4.055  0.1235 -0.9152  1.4844
  205TIP3   OH2  620   6.016   1.894   0.317 -0.2433  0.6197  0.1942
  205TIP3    H1  621   5.921   1.897   0.330 -0.0647  0.0540  1.8048
  205TIP3    H2  622   6.050   1.969   0.367  0.2507  0.0657  0.7035
  206TIP3   OH2  623   4.864   1.182   1.038  0.2675  0.1029  0.3814
  206TIP3    H1  624   4.773   1.199   1.011  0.9394  0.8982 -1.5342
  206TIP3    H2  625   4.856   1.116   1.108 -1.7596 -0.0269  0.0955
  207TIP3   OH2  626   1.794   4.937   4.835 -0.0471 -0.3840  0.1570
  207TIP3    H1  627   1.877   4.894   4.813  1.1510  2.6371 -1.9473
  207TIP3    H2  628   1.818   5.004   4.898 -0.8506  0.5919 -0.5491
  208TIP3   OH2  629   1.595   0.123   3.525 -0.1246 -0.0992 -0.2364
  208TIP3    H1  630   1.652   0.047   3.539 -1.2499 -0.8860  0.2761
  208TIP3    H2  631   1.539   0.126   3.603 -1.5688 -0.0820 -1.2204
  209TIP3   OH2  632   4.663   3.604   1.425 -0.3952 -0.2163  0.3625
  209TIP3    H1  633   4.607   3.674   1.460 -1.2342 -0.3371 -0.6631
  209TIP3    H2  634   4.720   3.580   1.497  0.0815  1.6916  0.6966
  210TIP3   OH2  635   2.669   1.303   3.420 -0.1031  0.1632  0.1283
  210TIP3    H1  636   2.607   1.235   3.395  0.2676 -0.7090  1.4259
  210TIP3    H2  637   2.707   1.271   3.502  1.0490  1.3253  0.0818
  211TIP3   OH2  638   0.126   1.394   0.789  0.3118  0.5185  0.3673
  211TIP3    H1  639   0.095   1.395   0.699  0.5057 -0.5798  0.2753
  211TIP3    H2  640   0.215   1.360   0.783 -0.0727 -0.6782  1.0702
  212TIP3   OH2  641   0.227   1.556   2.035 -0.0553  0.0815 -0.4272
  212TIP3    H1  642   0.140   1.518   2.046 -0.1342  0.4344  0.2124
  212TIP3    H2  643   0.237   1.615   2.111 -0.3970  2.2132 -1.9313
  213TIP3   OH2  644   4.910   4.014   3.843 -0.5376  0.2422 -0.7368
  213TIP3    H1  645   4.965   4.075   3.893  0.9909 -1.1941 -0.5715
  213TIP3    H2  646   4.867   4.068   3.778 -1.6369  1.9978  1.3092
  214TIP3   OH2  647   3.566   4.440   4.504  0.3035 -0.2873  0.7356
  214TIP3    H1  648   3.599   4.493   4.576 -0.3992  1.5732 -0.2418
  214TIP3    H2  649   3.513   4.500   4.452  1.7432 -1.1904 -2.0100
  215TIP3   OH2  650   3.654   3.444   1.532 -0.0694 -0.2261 -0.0551
  215TIP3    H1  651   3.703   3.435   1.613 -0.2104 -0.0473  0.0489
  215TIP3    H2  652   3.566   3.469   1.559  0.4499  2.1441 -0.3669
  216TIP3   OH2  653   4.223   1.175   3.600 -0.1075 -0.6508 -0.0411
  216TIP3    H1  654   4.175   1.142   3.524  0.5917 -1.6191 -0.0859
  216TIP3    H2  655   4.270   1.098   3.634  2.4908  0.4774 -0.7972
  217TIP3   OH2  656   5.891   0.741   2.309  0.3052  0.6558  0.0166
  217TIP3    H1  657   5.834   0.815   2.333  0.1252 -0.0258  1.8460
  217TIP3    H2  658   5.836   0.664   2.321  0.8533  0.1366 -0.7426
  218TIP3   OH2  659   3.787   4.435   0.556 -0.2138 -0.1517  0.8929
  218TIP3    H1  660   3.839   4.390   0.489 -2.0831  0.9268 -1.4072
  218TIP3    H2  661   3.777   4.370   0.626  0.1670 -2.0436 -0.7259
  219TIP3   OH2  662   3.305   4.571   4.302 -0.3438  0.1586  0.0886
  219TIP3    H1  663   3.291   4.476   4.300  2.9436 -0.5377  2.0095
  219TIP3    H2  664   3.260   4.600   4.382 -0.3518 -0.0003  0.1424
  220TIP3   OH2  665   2.834   3.908   3.186 -0.3470 -0.3528  0.4549
  220TIP3    H1  666   2.785   3.829   3.209 -2.4335  0.6746 -0.1655
  220TIP3    H2  667   2.883   3.930   3.265 -0.2951 -1.8591  0.8627
  221TIP3   OH2  668   4.283   2.110   1.043 -0.7701 -0.0872  0.0209
  221TIP3    H1  669   4.205   2.166   1.043 -1.2299 -0.7168 -0.3162
  221TIP3    H2  670   4.309   2.106   0.951 -1.2908 -1.1747 -0.0886
  222TIP3   OH2  671   0.638   2.186   2.379  0.0957  0.1996 -0.0527
  222TIP3    H1  672   0.543   2.184   2.373  0.1728  0.0226 -1.4951
  222TIP3    H2  673   0.663   2.095   2.393  0.1228  0.0484 -1.0618
  223TIP3   OH2  674   1.671   3.206   0.668  0.1353 -0.1596  0.2575
  223TIP3    H1  675   1.691   3.269   0.738 -0.7352  1.1759 -0.6510
  223TIP3    H2  676   1.753   3.160   0.653  1.5075  2.4150 -0.6615
  224TIP3   OH2  677   4.815   1.199   2.181 -0.5758 -0.0312  0.0338
  224TIP3    H1  678   4.783   1.156   2.261 -0.0315 -0.3237  0.0964
  224TIP3    H2  679   4.762   1.279   2.175  1.2372  1.4913  2.2585
  225TIP3   OH2  680   1.229   0.950   2.797  0.3915 -0.1318 -0.4188
  225TIP3    H1  681   1.220   1.015   2.867 -1.1112  1.2197 -1.7692
  225TIP3    H2  682   1.306   0.979   2.748  1.5089 -1.1398  0.6678
  226TIP3   OH2  683   2.538   0.372   2.334  0.1544  0.1601 -0.3612
  226TIP3    H1  684   2.451   0.335   2.352 -0.8540  0.8296 -3.2500
  226TIP3    H2  685   2.599   0.316   2.382 -1.7737 -1.0565  0.7933
  227TIP3   OH2  686   2.731   0.261   3.691 -0.6061  0.4289  0.2384
  227TIP3    H1  687   2.647   0.298   3.719  0.5323  2.1098  1.6842
  227TIP3    H2  688   2.793   0.333   3.700  0.6531 -0.0452 -3.0475
  228TIP3   OH2  689   0.540   5.769   2.407 -0.0971  0.0245  0.1949
  228TIP3    H1  690   0.621   5.799   2.449 -1.1305  1.3100  1.3758
  228TIP3    H2  691   0.522   5.836   2.341 -1.7429  1.4598  1.9818
  229TIP3   OH2  692   0.755   1.657   4.553  0.2328 -0.5747 -0.4922
  229TIP3    H1  693   0.687   1.705   4.600  0.7566 -0.4838  0.1797
  229TIP3    H2  694   0.773   1.710   4.475  0.2156 -0.1149 -0.1805
  230TIP3   OH2  695   1.668   0.784   2.697 -0.3882  0.0260 -0.0113
  230TIP3    H1  696   1.647   0.851   2.763 -0.8508 -0.4441  0.3228
  230TIP3    H2  697   1.673   0.702   2.746  2.1920  0.0667 -0.0712
  231TIP3   OH2  698   2.459   0.881   4.947 -0.1661  0.0839  0.4179
  231TIP3    H1  699   2.530   0.892   4.884 -1.0512 -1.6552 -0.9655
  231TIP3    H2  700   2.500   0.897   5.032  1.3493  1.2815 -0.4704
  232TIP3   OH2  701   1.037   2.299   2.595  0.2448  0.0023 -0.4919
  232TIP3    H1  702   0.959   2.341   2.558 -0.1559 -0.3956 -0.1175
  232TIP3    H2  703   1.100   2.370   2.604  0.3547  0.1125 -1.9174
  233TIP3   OH2  704   3.071   1.235   2.717 -0.1153 -0.2842 -0.5546
  233TIP3    H1  705   3.106   1.207   2.802 -2.0225 -0.5741  0.1815
  233TIP3    H2  706   2.993   1.182   2.705 -1.7581  2.0800 -0.8925
  234TIP3   OH2  707   4.526   3.459   2.026 -0.3889 -0.2884 -0.3454
  234TIP3    H1  708   4.474   3.464   1.946 -1.8168 -0.7056  0.5090
  234TIP3    H2  709   4.615   3.439   1.996 -1.2460 -2.4188 -1.7702
  235TIP3   OH2  710   0.304   0.273   2.222 -0.4069 -0.7224  0.1513
  235TIP3    H1  711   0.397   0.270   2.200 -0.1655  1.7283  0.6136
  235TIP3    H2  712   0.299   0.235   2.309  0.1175 -1.0319  0.0523
  236TIP3   OH2  713   4.043   2.579   3.668 -0.0030  0.1436  0.1032
  236TIP3    H1  714   4.002   2.589   3.582 -0.7525  0.3196  0.4748
  236TIP3    H2  715   4.063   2.486   3.674  0.5334  0.2112 -0.4692
  237TIP3   OH2  716   5.173   3.787   2.673 -0.1884  0.0176  0.0882
  237TIP3    H1  717   5.153   3.786   2.579 -0.0762  0.0382  0.0636
  237TIP3    H2  718   5.265   3.761   2.677 -0.3976 -0.7253  0.2439
  238TIP3   OH2  719   1.323   2.729   3.959  0.1198 -0.0518 -0.2813
  238TIP3    H1  720   1.321   2.822   3.981 -1.0086  0.4289 -2.1538
  238TIP3    H2  721   1.412   2.713   3.930  0.0467  0.7394 -0.9887
  239TIP3   OH2  722   5.482   3.661   4.935  0.1844  0.3052  0.6573
  239TIP3    H1  723   5.484   3.651   5.030  1.1908  0.0430  0.6208
  239TIP3    H2  724   5.565   3.704   4.914 -0.8032  2.0113  0.0625
  240TIP3   OH2  725   2.320   0.498   3.022 -0.3737  0.6199 -0.4679
  240TIP3    H1  726   2.321   0.419   3.075 -0.2136  0.9056 -0.0352
  240TIP3    H2  727   2.405   0.498   2.977 -1.2397 -0.5842 -2.1984
  241TIP3   OH2  728   5.645   0.358   4.696 -0.3779 -0.4805 -0.5568
  241TIP3    H1  729   5.661   0.439   4.745  1.9275 -2.3026  2.0473
  241TIP3    H2  730   5.702   0.366   4.619 -1.2502  0.9021 -1.0995
  242TIP3   OH2  731   6.118   4.787   1.400  0.0956 -0.1693  0.1350
  242TIP3    H1  732   6.163   4.748   1.474  0.5623  1.7104  0.9152
  242TIP3    H2  733   6.136   4.729   1.326  1.3159 -1.0125  1.0678
  243TIP3   OH2  734   1.960   0.117   4.971 -0.6608  0.0136  0.2126
  243TIP3    H1  735   1.981   0.053   4.903  1.1825 -0.0997  0.8294
  243TIP3    H2  736   1.901   0.069   5.030  1.9587 -1.8316  1.5729
  244TIP3   OH2  737   4.424   5.590   3.178 -0.5639 -0.4655 -0.2046
  244TIP3    H1  738   4.470   5.673   3.193  1.9055 -1.6866 -0.4049
  244TIP3    H2  739   4.388   5.568   3.264 -0.6351  0.4672  0.0215
  245TIP3   OH2  740   0.215   4.555   3.793 -0.4356 -0.2429  0.0718
  245TIP3    H1  741   0.138   4.543   3.849 -0.3406 -0.5361  0.1457
  245TIP3    H2  742   0.191   4.514   3.710 -0.9757  1.1324 -0.4803
  246TIP3   OH2  743   3.770   0.123   1.332 -0.2658  0.0685 -0.2850
  246TIP3    H1  744   3.727   0.207   1.350 -0.4160 -0.2516  0.9149
  246TIP3    H2  745   3.710   0.057   1.366  0.2461 -0.4964 -0.4535
  247TIP3   OH2  746   6.060   5.683   0.613  0.1136 -0.5317  0.3171
  247TIP3    H1  747   6.139   5.737   0.617  0.6470 -1.3385  1.1314
  247TIP3    H2  748   6.009   5.720   0.542  1.2413 -0.0078 -0.2400
  248TIP3   OH2  749   1.012   1.395   3.305  0.1397  0.8468 -0.0435
  248TIP3    H1  750   1.052   1.313   3.276  0.8678  0.8616  0.8631
  248TIP3    H2  751   1.080   1.438   3.356 -0.5352  1.5980  0.2424
  249TIP3   OH2  752   2.969   0.162   2.762 -0.0770 -0.1571 -0.7126
  249TIP3    H1  753   2.961   0.226   2.833  2.9378  0.6260 -0.9530
  249TIP3    H2  754   2.941   0.210   2.684 -0.1646  0.0692 -0.5443
  250TIP3   OH2  755   0.610   2.412   3.215  0.1095  0.2527 -0.3742
  250TIP3    H1  756   0.619   2.316   3.211 -1.5149  0.0884 -0.6898
  250TIP3    H2  757   0.608   2.440   3.123  3.1054  0.9299 -0.3542
  251TIP3   OH2  758   1.183   5.686   4.416  0.2051 -0.3082  0.5489
  251TIP3    H1  759   1.094   5.706   4.387  0.4948 -0.0707 -0.1844
  251TIP3    H2  760   1.202   5.600   4.378  0.1465 -0.5380  1.0335
  252TIP3   OH2  761   3.967   2.679   2.010 -0.2752  0.4243  0.2119
  252TIP3    H1  762   4.006   2.659   1.925 -2.6905  0.9096 -1.1105
  252TIP3    H2  763   3.956   2.593   2.052  0.0206  0.0769 -0.4084
  253TIP3   OH2  764   5.655   4.428   2.397  0.0557  0.0346  0.1822
  253TIP3    H1  765   5.571   4.449   2.438 -0.0886  0.5846 -0.3748
  253TIP3    H2  766   5.676   4.506   2.345  0.4918 -0.4347 -0.3568
  254TIP3   OH2  767   4.238   3.505   3.712  0.4022 -0.5000 -0.8691
  254TIP3    H1  768   4.160   3.467   3.670  1.0607 -0.1067 -2.5078
  254TIP3    H2  769   4.311   3.470   3.661  1.2180  0.2000 -0.1852
  255TIP3   OH2  770   2.967   4.057   1.464  0.1528  0.0210  0.4187
  255TIP3    H1  771   2.929   4.133   1.508 -1.4124  0.0132 -0.8126
  255TIP3    H2  772   2.973   3.990   1.532 -1.3293  0.3029  0.8772
  256TIP3   OH2  773   4.887   3.506   0.097 -0.0124 -0.2480 -0.5332
  256TIP3    H1  774   4.924   3.418   0.105  1.1275  0.0497 -1.9693
  256TIP3    H2  775   4.859   3.529   0.185  3.2680 -0.5378  0.7241
  257TIP3   OH2  776   0.664   1.095   1.896 -0.5680 -0.5732 -0.5314
  257TIP3    H1  777   0.619   1.030   1.843 -2.3174  1.3338 -1.5383
  257TIP3    H2  778   0.598   1.124   1.960  0.2635  0.0067  0.0842
  258TIP3   OH2  779   1.731   4.760   3.456  0.1096 -0.0943 -0.2562
  258TIP3    H1  780   1.769   4.806   3.531 -0.7186 -1.4021  1.0179
  258TIP3    H2  781   1.722   4.828   3.389  2.3752  0.7793  0.2122
  259TIP3   OH2  782   5.575   4.747   2.144  0.0829  0.3596 -0.1666
  259TIP3    H1  783   5.489   4.705   2.140  0.6257 -0.7955 -0.2108
  259TIP3    H2  784   5.557   4.838   2.168 -1.0348 -0.3496  1.9216
  260TIP3   OH2  785   3.172   5.089   4.422  0.1101 -0.4825  0.3414
  260TIP3    H1  786   3.185   5.032   4.346  0.7705  0.5642 -0.3574
  260TIP3    H2  787   3.080   5.080   4.444  0.5506 -3.1893  1.3882
  261TIP3   OH2  788   2.380   0.656   4.810  0.2559 -0.1422 -0.2511
  261TIP3    H1  789   2.314   0.667   4.741 -0.4331 -0.3672  0.3570
  261TIP3    H2  790   2.396   0.745   4.841 -1.0611 -0.2296  0.7659
  262TIP3   OH2  791   4.139   3.048   4.092  0.0642  0.1025 -0.6877
  262TIP3    H1  792   4.197   3.077   4.162  1.4002  1.7238 -2.3756
  262TIP3    H2  793   4.070   3.115   4.088 -1.2493 -1.1107  0.4178
  263TIP3   OH2  794   4.650   3.100   1.718 -0.2513 -1.0222  0.2061
  263TIP3    H1  795   4.653   3.082   1.812 -1.5365  2.2100  0.9992
  263TIP3    H2  796   4.556   3.095   1.696 -0.0314 -1.0561 -0.7775
  264TIP3   OH2  797   4.807   5.648   0.510 -0.4181 -0.9190 -0.2835
  264TIP3    H1  798   4.746   5.717   0.482  1.2304  0.3335 -0.9317
  264TIP3    H2  799   4.882   5.658   0.452  1.9737 -0.0421  2.6863
  265TIP3   OH2  800   0.525   1.639   4.093  0.2948  0.2163 -0.0593
  265TIP3    H1  801   0.618   1.640   4.071  0.3778  0.5475  0.2853
  265TIP3    H2  802   0.489   1.566   4.044  0.4534  0.9631 -1.3428
  266TIP3   OH2  803   0.533   4.386   3.266 -0.0174  0.3570  0.7096
  266TIP3    H1  804   0.617   4.340   3.277 -0.3486 -0.5670 -0.4302
  266TIP3    H2  805   0.555   4.464   3.215  0.0788 -0.2083 -0.1399
  267TIP3   OH2  806   3.445   4.806   2.210  0.1766 -0.4141 -0.1125
  267TIP3    H1  807   3.400   4.877   2.255 -0.1950 -1.0426  0.5306
  267TIP3    H2  808   3.445   4.832   2.118  1.5151  1.2118  0.2951
  268TIP3   OH2  809   4.892   0.820   4.592  0.2011  0.1481 -0.3588
  268TIP3    H1  810   4.967   0.769   4.626 -0.8944 -0.4530  1.2880
  268TIP3    H2  811   4.905   0.908   4.628  0.8288  0.4358 -1.2415
  269TIP3   OH2  812   0.396   1.314   0.844 -0.3229  0.4274  0.4234
  269TIP3    H1  813   0.387   1.306   0.939  0.3089  3.5438  0.8546
  269TIP3    H2  814   0.485   1.346   0.830 -1.1812  2.4318 -0.9536
  270TIP3   OH2  815   0.628   5.439   3.771 -0.3769  0.1254  0.2806
  270TIP3    H1  816   0.601   5.522   3.809 -0.9695  0.2733 -0.4137
  270TIP3    H2  817   0.554   5.414   3.715 -0.6547 -1.3794  1.2568
  271TIP3   OH2  818   1.461   4.452   2.481  0.1343  0.2075 -0.5186
  271TIP3    H1  819   1.470   4.357   2.494  0.5457  0.0224 -1.9566
  271TIP3    H2  820   1.437   4.461   2.388 -0.5693  1.4862 -0.2349
  272TIP3   OH2  821   5.711   5.124   2.027  0.2438  0.2796  0.3969
  272TIP3    H1  822   5.690   5.160   1.940 -0.9420 -1.0185  0.1036
  272TIP3    H2  823   5.632   5.077   2.052  1.2878 -1.0480  1.3031
  273TIP3   OH2  824   2.004   4.011   3.214  0.2350 -0.2151 -0.4143
  273TIP3    H1  825   1.935   4.045   3.156  0.1017  0.8157  0.3317
  273TIP3    H2  826   2.005   3.917   3.196 -1.2355 -0.2222 -0.5916
  274TIP3   OH2  827   5.768   4.475   1.603  0.2138 -0.0467 -0.1601
  274TIP3    H1  828   5.795   4.434   1.686 -0.0583 -0.3671 -0.2276
  274TIP3    H2  829   5.819   4.555   1.599 -0.3012  0.3465  0.6868
  275TIP3   OH2  830   4.672   5.875   0.408 -0.0040 -0.6570 -0.0555
  275TIP3    H1  831   4.646   5.938   0.341  4.2414  0.9822 -0.4120
  275TIP3    H2  832   4.602   5.879   0.473 -2.2623  0.6883 -2.3937
  276TIP3   OH2  833   4.871   5.782   3.618 -1.0652 -0.1139  0.0496
  276TIP3    H1  834   4.780   5.809   3.630 -0.8593  0.3786  0.5432
  276TIP3    H2  835   4.920   5.833   3.683 -0.2767  0.5188 -1.0219
  277TIP3   OH2  836   0.761   1.235   4.613 -0.4329  0.2862  0.0124
  277TIP3    H1  837   0.671   1.264   4.602 -0.5785  0.2008  0.9144
  277TIP3    H2  838   0.803   1.254   4.528 -1.4509 -0.2967 -0.6412
  278TIP3   OH2  839   2.523   1.481   2.446  0.1914  0.0119  0.7053
  278TIP3    H1  840   2.473   1.399   2.458 -0.5495  0.2795 -0.4261
  278TIP3    H2  841   2.576   1.488   2.525  2.3802 -3.0106 -0.2931
  279TIP3   OH2  842   2.752   0.714   2.159 -0.3990  0.5392 -0.1519
  279TIP3    H1  843   2.798   0.765   2.093  0.6664  0.1149  0.2526
  279TIP3    H2  844   2.684   0.774   2.191 -0.5689  0.9372 -1.2209
  280TIP3   OH2  845   6.053   4.683   2.994 -0.2475 -0.3743 -0.7541
  280TIP3    H1  846   6.079   4.691   2.902  0.8378 -1.5491 -0.5756
  280TIP3    H2  847   6.113   4.618   3.031 -1.4176 -0.7978  0.5064
  281TIP3   OH2  848   1.267   2.175   3.731 -0.1377 -0.4938  0.0273
  281TIP3    H1  849   1.258   2.110   3.800 -0.5245 -0.0180  0.4325
  281TIP3    H2  850   1.189   2.165   3.678  0.2381 -0.9699 -0.4413
  282TIP3   OH2  851   3.466   4.202   3.166  0.2409 -0.1458  0.0631
  282TIP3    H1  852   3.428   4.115   3.181  0.2789  0.1041  1.7905
  282TIP3    H2  853   3.525   4.216   3.241  0.4624  1.2404 -0.3405
  283TIP3   OH2  854   5.187   0.932   4.849 -0.6108 -0.0482  0.3602
  283TIP3    H1  855   5.282   0.946   4.861 -0.1008  0.0447 -2.8547
  283TIP3    H2  856   5.152   1.021   4.836 -0.8746 -0.1849  0.1282
  284TIP3   OH2  857   0.781   4.587   1.030 -0.2227 -0.0138  0.1327
  284TIP3    H1  858   0.814   4.506   1.067 -1.4684  0.4335  2.4522
  284TIP3    H2  859   0.721   4.560   0.960  2.1750 -0.8991 -1.7000
  285TIP3   OH2  860   5.296   2.966   2.594 -0.1689  0.3994 -0.5470
  285TIP3    H1  861   5.245   3.026   2.648  0.5571  0.4770  0.0715
  285TIP3    H2  862   5.297   3.006   2.508 -2.6497 -0.4855 -1.0846
  286TIP3   OH2  863   4.029   5.093   5.096  0.7363 -0.1595 -0.0302
  286TIP3    H1  864   4.038   5.150   5.019 -1.2834  0.7322  0.3252
  286TIP3    H2  865   3.954   5.037   5.076  1.7122 -1.6528  0.3023
  287TIP3   OH2  866   4.679   5.703   1.670  0.1287 -0.4710  0.1095
  287TIP3    H1  867   4.653   5.684   1.579  1.2549 -1.8059  0.0314
  287TIP3    H2  868   4.774   5.714   1.666  0.4928 -2.6097  1.3976
  288TIP3   OH2  869   2.266   1.780   4.716 -0.3732  0.0547  0.0126
  288TIP3    H1  870   2.205   1.776   4.790 -0.5562 -0.1504 -0.1452
  288TIP3    H2  871   2.311   1.864   4.726  1.0029 -0.8079  1.4360
  289TIP3   OH2  872   2.892   4.195   0.346 -0.6553  0.2721  0.4774
  289TIP3    H1  873   2.801   4.201   0.316 -1.6284 -1.7362  2.6562
  289TIP3    H2  874   2.926   4.117   0.301 -0.4793  0.2253  0.6923
  290TIP3   OH2  875   2.426   1.131   1.736 -0.5219 -0.1470 -0.6142
  290TIP3    H1  876   2.387   1.182   1.665  1.3545  0.1918 -1.4482
  290TIP3    H2  877   2.443   1.196   1.805 -2.5393 -0.5089  0.3192
  291TIP3   OH2  878   1.130   2.431   3.350  0.2963  0.2282 -0.3674
  291TIP3    H1  879   1.174   2.352   3.318  0.7900  0.9430 -1.5142
  291TIP3    H2  880   1.201   2.494   3.364 -0.0105  0.2610  1.2522
  292TIP3   OH2  881   0.748   4.700   0.185 -0.0904 -0.2742 -0.0189
  292TIP3    H1  882   0.708   4.781   0.154 -0.9805 -0.7763 -0.2071
  292TIP3    H2  883   0.676   4.652   0.227  0.3580 -1.1063 -0.1886
  293TIP3   OH2  884   3.593   2.923   4.601 -0.0812 -0.4570 -0.0602
  293TIP3    H1  885   3.580   2.950   4.509 -3.0315 -0.5742  0.2130
  293TIP3    H2  886   3.560   2.997   4.652  0.0507 -1.0362  0.8791
  294TIP3   OH2  887   5.819   5.324   2.686 -0.1728 -0.0754 -0.6363
  294TIP3    H1  888   5.726   5.345   2.700 -0.3173 -1.0022 -0.1915
  294TIP3    H2  889   5.831   5.238   2.726  1.4003  0.9626  1.3033
  295TIP3   OH2  890   3.416   5.309   3.787  0.3238 -0.6060  0.0703
  295TIP3    H1  891   3.422   5.265   3.872  1.0789 -1.0575 -0.2099
  295TIP3    H2  892   3.330   5.351   3.788 -0.3594 -1.9559  0.4030
  296TIP3   OH2  893   0.813   0.051   3.577 -0.1143  0.0576  0.0116
  296TIP3    H1  894   0.726   0.047   3.538  0.2774 -0.2869 -0.8471
  296TIP3    H2  895   0.868   0.090   3.509  0.3612  0.4747  0.6236
  297TIP3   OH2  896   5.748   0.973   2.367 -0.0998  0.2782 -0.0514
  297TIP3    H1  897   5.779   1.054   2.406  0.2268 -0.0147  0.3020
  297TIP3    H2  898   5.669   0.998   2.319  0.6848  1.0286 -0.9897
  298TIP3   OH2  899   5.268   5.167   0.915 -0.0285 -0.4023 -0.0182
  298TIP3    H1  900   5.214   5.240   0.886 -0.7698 -1.3218 -1.0604
  298TIP3    H2  901   5.322   5.203   0.986 -1.8130  0.6038  0.8825
  299TIP3   OH2  902   5.243   0.567   2.959 -0.3440  0.3977  0.2682
  299TIP3    H1  903   5.154   0.555   2.926  0.3170  0.3973 -1.6439
  299TIP3    H2  904   5.273   0.479   2.983 -0.5222  0.2625 -0.0110
  300TIP3   OH2  905   1.496   1.737   4.052  0.1945 -0.1790  0.1040
  300TIP3    H1  906   1.520   1.829   4.045  0.9272 -0.2671  1.2245
  300TIP3    H2  907   1.571   1.690   4.016 -0.0716 -0.3517 -0.2322
  301TIP3   OH2  908   5.043   2.861   1.471  0.1562  0.3602 -0.3254
  301TIP3    H1  909   4.974   2.828   1.414 -1.4769  0.7907  1.3170
  301TIP3    H2  910   5.070   2.944   1.431 -0.1448  0.1107 -1.0617
  302TIP3   OH2  911   5.231   5.747   1.223  0.0262  0.7808  0.4827
  302TIP3    H1  912   5.240   5.837   1.255  1.3269  0.5894  0.7082
  302TIP3    H2  913   5.165   5.753   1.153 -0.3337  1.7933  0.8835
  303TIP3   OH2  914   0.558   2.665   1.750  0.0286  0.4752  0.0075
  303TIP3    H1  915   0.623   2.728   1.782  0.8348 -1.9476  3.8634
  303TIP3    H2  916   0.610   2.590   1.723 -1.0588  0.1011 -1.0951
  304TIP3   OH2  917   1.420   2.378   1.612  0.5734  0.1512  0.0362
  304TIP3    H1  918   1.446   2.440   1.543  3.4001 -0.5983  0.3273
  304TIP3    H2  919   1.494   2.376   1.672  0.0682 -2.5912  0.7079
  305TIP3   OH2  920   1.855   4.523   4.069  0.5364 -0.4411 -0.1349
  305TIP3    H1  921   1.801   4.572   4.007  0.0750 -1.1371 -0.2940
  305TIP3    H2  922   1.863   4.581   4.145 -2.8491 -1.3848  1.1062
  306TIP3   OH2  923   3.882   2.887   0.393 -0.1898  0.6718  0.2496
  306TIP3    H1  924   3.956   2.827   0.407  0.1735  0.7456 -1.2008
  306TIP3    H2  925   3.915   2.972   0.421 -0.2565  0.4367  1.0615
  307TIP3   OH2  926   2.076   3.948   4.894 -0.2748  0.4399  0.3331
  307TIP3    H1  927   2.110   4.031   4.860 -0.1897 -0.1751 -1.1097
  307TIP3    H2  928   2.074   3.890   4.819  0.8894 -1.2958  1.5815
  308TIP3   OH2  929   3.599   4.577   3.877  0.0776 -0.1867 -0.3794
  308TIP3    H1  930   3.539   4.506   3.856 -0.5796  0.2298  0.0295
  308TIP3    H2  931   3.553   4.657   3.850 -1.0003  0.4254  2.8077
  309TIP3   OH2  932   5.161   2.404   4.807  0.5855 -0.1834  0.0296
  309TIP3    H1  933   5.254   2.383   4.818  0.6798  0.7803  1.2455
  309TIP3    H2  934   5.145   2.478   4.866 -1.4911 -1.8368  1.7469
  310TIP3   OH2  935   0.473   2.371   3.499  0.1894  0.6439  0.2704
  310TIP3    H1  936   0.417   2.303   3.462  0.3450 -0.0056  1.2024
  310TIP3    H2  937   0.521   2.406   3.424 -1.1914  0.9803 -0.4899
  311TIP3   OH2  938   0.848   1.795   4.328  0.1230  0.1556  0.1691
  311TIP3    H1  939   0.922   1.804   4.267 -0.5797 -2.5364 -1.2727
  311TIP3    H2  940   0.805   1.880   4.328  2.2741  1.3111 -0.1928
  312TIP3   OH2  941   4.671   2.212   0.228  0.0747  0.8257 -0.6574
  312TIP3    H1  942   4.626   2.128   0.221  0.1369  0.7927 -0.6542
  312TIP3    H2  943   4.615   2.272   0.177  0.3642  0.6482 -1.1915
  313TIP3   OH2  944   5.379   1.093   0.199 -0.0855 -0.4068 -0.3024
  313TIP3    H1  945   5.443   1.055   0.259  0.9260 -0.2437 -1.2647
  313TIP3    H2  946   5.296   1.050   0.224  0.5478 -1.3075  0.3448
  314TIP3   OH2  947   5.813   3.217   0.103 -0.4582  0.2071  0.4630
  314TIP3    H1  948   5.829   3.259   0.019 -2.7166 -0.8201 -0.5944
  314TIP3    H2  949   5.817   3.288   0.167  1.4212  0.9939 -0.4624
  315TIP3   OH2  950   0.204   4.616   0.352 -0.0020 -0.6204 -0.0685
  315TIP3    H1  951   0.240   4.554   0.415 -1.1682  0.1479  1.4299
  315TIP3    H2  952   0.110   4.617   0.370 -0.0908  1.1714 -0.4027
  316TIP3   OH2  953   5.442   5.078   1.900 -0.3293  0.0527 -0.3197
  316TIP3    H1  954   5.380   5.099   1.971  0.2545 -0.1774  0.2720
  316TIP3    H2  955   5.433   5.150   1.838 -0.2672  0.6758  0.3823
  317TIP3   OH2  956   1.498   5.004   0.911  0.1911 -0.4717  0.1107
  317TIP3    H1  957   1.480   5.052   0.992  1.2617 -0.2644  0.2335
  317TIP3    H2  958   1.531   4.919   0.939 -1.1453 -1.0941 -0.1133
  318TIP3   OH2  959   2.638   2.504   1.065 -0.2523 -0.5253  0.3455
  318TIP3    H1  960   2.716   2.553   1.092  0.3343 -0.4103 -1.4178
  318TIP3    H2  961   2.650   2.417   1.102  2.2038 -1.4057 -2.1522
  319TIP3   OH2  962   2.861   3.263   3.267  0.6931 -0.0923  0.3075
  319TIP3    H1  963   2.850   3.295   3.357  0.3409 -1.9366  0.9479
  319TIP3    H2  964   2.811   3.182   3.264  1.3096 -0.4384 -1.3579
  320TIP3   OH2  965   2.569   4.869   1.659  0.7587 -0.0115 -0.1043
  320TIP3    H1  966   2.660   4.867   1.629  0.7644 -0.7556 -0.0608
  320TIP3    H2  967   2.558   4.956   1.697  1.3450  0.2156 -0.4414
  321TIP3   OH2  968   4.842   2.350   2.121 -0.6986 -0.5432 -0.2956
  321TIP3    H1  969   4.889   2.288   2.065 -0.1521 -0.8862  0.5273
  321TIP3    H2  970   4.906   2.419   2.139 -0.6377 -0.7837  0.4601
  322TIP3   OH2  971   4.366   0.948   4.660 -0.0279  0.4259 -0.3955
  322TIP3    H1  972   4.395   0.917   4.574 -0.0852  1.0500 -0.6480
  322TIP3    H2  973   4.277   0.914   4.669  1.0717 -2.4025  0.8396
  323TIP3   OH2  974   3.814   1.741   1.886 -0.2610 -0.4910  0.5582
  323TIP3    H1  975   3.864   1.773   1.962 -0.2433  0.9424 -0.0331
  323TIP3    H2  976   3.808   1.816   1.828 -0.7792 -1.4150 -0.6163
  324TIP3   OH2  977   3.733   0.379   1.135 -0.8582 -0.7496  0.6303
  324TIP3    H1  978   3.795   0.449   1.116  0.4841 -1.8681  0.7184
  324TIP3    H2  979   3.695   0.402   1.219  0.1409 -0.5060  1.0217
  325TIP3   OH2  980   0.705   3.781   2.948  0.0005 -0.2159 -0.2805
  325TIP3    H1  981   0.795   3.813   2.961 -0.1303 -0.1250  0.4399
  325TIP3    H2  982   0.716   3.694   2.910  0.4268 -0.8013  1.1526
  326TIP3   OH2  983   4.118   5.660   0.106  0.2871 -0.0199  0.9409
  326TIP3    H1  984   4.138   5.711   0.185 -2.7710  1.8176  0.6752
  326TIP3    H2  985   4.024   5.645   0.110  0.6480 -3.4873 -0.3837
  327TIP3   OH2  986   0.747   3.158   1.920  0.2526 -0.0146  0.3570
  327TIP3    H1  987   0.793   3.240   1.904  0.6016 -0.3801 -0.6161
  327TIP3    H2  988   0.776   3.131   2.008 -0.0121  0.9778  0.7629
  328TIP3   OH2  989   3.802   3.298   4.537 -0.5650  0.7983 -0.0623
  328TIP3    H1  990   3.868   3.253   4.484 -1.0142  0.8639 -0.6907
  328TIP3    H2  991   3.853   3.356   4.594 -0.0669  0.6727 -0.3684
  329TIP3   OH2  992   3.700   5.745   4.012 -0.4194  0.1335  0.2769
  329TIP3    H1  993   3.764   5.777   4.075 -0.9150 -0.7407  1.2430
  329TIP3    H2  994   3.619   5.736   4.062 -0.5132 -1.7814 -0.1611
  330TIP3   OH2  995   3.553   5.549   4.591 -0.0083  0.2012 -0.0132
  330TIP3    H1  996   3.487   5.512   4.532 -0.7528  2.2655 -0.5734
  330TIP3    H2  997   3.502   5.593   4.659  0.6862  2.4140 -0.8205
  331TIP3   OH2  998   5.249   4.405   3.946  0.2871  0.0136  0.5595
  331TIP3    H1  999   5.329   4.422   3.895 -1.4611  0.9102 -2.1330
  331TIP3    H2 1000   5.240   4.482   4.002  0.4494  0.7494 -0.3929
  332TIP3   OH2 1001   3.816   3.917   2.103 -0.1650 -0.0265 -0.4969
  332TIP3    H1 1002   3.725   3.947   2.095  0.2120  1.5064  0.4728
  332TIP3    H2 1003   3.826   3.894   2.195  0.9361  1.7291 -0.1260
  333TIP3   OH2 1004   5.170   1.720   2.008 -0.1793 -0.0888  0.6356
  333TIP3    H1 1005   5.166   1.682   1.920 -0.7809  1.7541 -0.1876
  333TIP3    H2 1006   5.117   1.662   2.062 -0.9320 -0.5090 -0.5176
  334TIP3   OH2 1007   5.449   4.418   0.159 -0.2169  0.3824 -0.1433
  334TIP3    H1 1008   5.536   4.448   0.133 -0.4486  0.1496 -1.2496
  334TIP3    H2 1009   5.440   4.332   0.118 -0.4023 -0.2637  1.1997
  335TIP3   OH2 1010   4.241   0.026   1.140  0.4220  0.9066 -0.1652
  335TIP3    H1 1011   4.152   0.059   1.131 -0.0315 -0.5210 -1.4531
  335TIP3    H2 1012   4.238  -0.032   1.216 -0.5404 -1.3353 -1.7975
  336TIP3   OH2 1013   6.224   3.783   0.866  0.4113  0.1891 -0.3456
  336TIP3    H1 1014   6.139   3.746   0.890  0.3598  0.2693 -0.4005
  336TIP3    H2 1015   6.263   3.810   0.949  1.0323 -1.2055 -0.1613
  337TIP3   OH2 1016   0.661   0.495   1.697 -0.3513 -0.0164 -0.1967
  337TIP3    H1 1017   0.580   0.453   1.724 -0.0860 -1.3633 -1.3471
  337TIP3    H2 1018   0.633   0.576   1.654 -1.0730 -0.3336 -0.3393
  338TIP3   OH2 1019   6.053   0.963   4.748  0.3444 -0.4352 -0.2544
  338TIP3    H1 1020   5.974   0.909   4.751  0.5706 -0.8122 -0.7433
  338TIP3    H2 1021   6.042   1.027   4.818  0.9390 -2.3342  1.6790
  339TIP3   OH2 1022   3.568   3.044   4.358 -0.5558 -0.1518  0.1270
  339TIP3    H1 1023   3.523   3.118   4.397 -1.0239  0.3404 -1.2917
  339TIP3    H2 1024   3.635   3.083   4.302 -0.7962 -0.7817 -0.6261
  340TIP3   OH2 1025   2.570   3.513   5.029 -0.0501  0.2455  0.0852
  340TIP3    H1 1026   2.507   3.556   5.087 -0.1147 -0.0762  0.2591
  340TIP3    H2 1027   2.655   3.526   5.072  0.5079  3.4326 -1.7061
  341TIP3   OH2 1028   5.712   0.369   1.637  0.1805 -0.1962  0.1745
  341TIP3    H1 1029   5.753   0.298   1.686  0.1298 -0.1518  0.2816
  341TIP3    H2 1030   5.685   0.432   1.704  0.3077 -0.0329  0.0742
  342TIP3   OH2 1031   2.279   3.346   0.598 -0.1918 -0.3345  0.3832
  342TIP3    H1 1032   2.250   3.261   0.628 -0.9413 -0.1735  0.1308
  342TIP3    H2 1033   2.332   3.381   0.670 -0.0797 -0.9055  0.5792
  343TIP3   OH2 1034   3.396   0.048   3.194 -0.2798 -0.3730  0.6611
  343TIP3    H1 1035   3.357   0.087   3.273  0.4607 -0.7988  1.2554
  343TIP3    H2 1036   3.471   0.104   3.174  0.3822 -1.0663  1.1163
  344TIP3   OH2 1037   0.160   0.464   0.053  0.4150  0.3912 -0.3282
  344TIP3    H1 1038   0.249   0.450   0.083 -0.2286 -1.2166  0.9709
  344TIP3    H2 1039   0.163   0.548   0.007  2.2326  1.2016  1.1353
  345TIP3   OH2 1040   2.967   5.445   0.224 -0.0274  0.1088 -0.4570
  345TIP3    H1 1041   2.896   5.505   0.248 -1.2507 -0.6379 -1.9927
  345TIP3    H2 1042   3.036   5.463   0.287 -1.4315  1.1461  0.8718
  346TIP3   OH2 1043   3.092   4.450   2.254 -0.7086 -0.2748 -0.1285
  346TIP3    H1 1044   3.160   4.513   2.277  0.5734 -1.4163 -0.6379
  346TIP3    H2 1045   3.080   4.398   2.333 -0.8188 -0.2278 -0.1144
  347TIP3   OH2 1046   3.228   3.772   0.411 -0.1326 -0.2329  0.7685
  347TIP3    H1 1047   3.256   3.841   0.471 -0.5856 -0.5202  1.3114
  347TIP3    H2 1048   3.309   3.744   0.367 -0.2206  2.2971 -1.2657
  348TIP3   OH2 1049   1.368   3.736   3.674  0.2646 -0.1154  0.5497
  348TIP3    H1 1050   1.298   3.681   3.708  0.3903 -0.3665  0.4090
  348TIP3    H2 1051   1.445   3.711   3.724 -0.0273  1.1488  1.6832
  349TIP3   OH2 1052   6.199   3.179   1.366 -0.0386  0.0673  0.3282
  349TIP3    H1 1053   6.153   3.174   1.450 -0.7422 -0.7784 -0.0845
  349TIP3    H2 1054   6.292   3.178   1.389 -0.1422  2.6629  1.2328
  350TIP3   OH2 1055   5.282   1.121   2.727 -0.4113  0.1841  0.2116
  350TIP3    H1 1056   5.206   1.177   2.712 -1.1558 -1.2842 -1.9645
  350TIP3    H2 1057   5.265   1.078   2.811 -0.9301  1.4498  0.7672
  351TIP3   OH2 1058   5.543   0.016   3.144  0.8058 -0.4520  0.0094
  351TIP3    H1 1059   5.455   0.048   3.164  0.6549 -1.5136  1.2130
  351TIP3    H2 1060   5.601   0.071   3.197  0.7590 -0.5108  0.1232
  352TIP3   OH2 1061   3.103   2.246   1.745 -0.2650  0.3654 -0.0922
  352TIP3    H1 1062   3.155   2.283   1.674 -0.2051  0.7374  0.1435
  352TIP3    H2 1063   3.147   2.163   1.766  0.0816  0.5520 -0.0716
  353TIP3   OH2 1064   2.759   0.927   0.739 -0.4846 -1.2125  0.3886
  353TIP3    H1 1065   2.707   0.889   0.810 -0.5455 -1.4307  0.2277
  353TIP3    H2 1066   2.819   0.988   0.783 -0.6012 -1.2602  0.6145
  354TIP3   OH2 1067   1.105   5.134   0.643 -0.6260 -0.5014  0.3240
  354TIP3    H1 1068   1.189   5.088   0.640 -0.4443 -0.2407  1.1515
  354TIP3    H2 1069   1.039   5.064   0.637 -0.3511 -0.8330  1.0566
  355TIP3   OH2 1070   5.815   4.167   2.609 -0.3914  0.2373 -0.5251
  355TIP3    H1 1071   5.878   4.153   2.538 -0.2528  3.7644 -1.2441
  355TIP3    H2 1072   5.844   4.246   2.654 -2.7419  0.4047  0.9128
  356TIP3   OH2 1073   4.851   4.126   0.579 -0.2158  0.0184  0.3457
  356TIP3    H1 1074   4.846   4.037   0.614  1.0281  0.3839  1.5440
  356TIP3    H2 1075   4.860   4.115   0.484  0.1689 -1.1476  0.5096
  357TIP3   OH2 1076   2.486   0.585   3.976 -0.5720 -0.3900 -0.0881
  357TIP3    H1 1077   2.563   0.632   4.010 -0.6660 -0.0163 -0.3795
  357TIP3    H2 1078   2.449   0.646   3.912 -0.9505 -0.6882 -0.1472
  358TIP3   OH2 1079   4.412   6.007   2.908  0.0286 -0.4694  0.2038
  358TIP3    H1 1080   4.378   5.921   2.882  0.4092 -0.7144  0.4910
  358TIP3    H2 1081   4.436   5.995   3.000  0.9033 -0.3141  0.0040
  359TIP3   OH2 1082   1.448   5.559   4.507 -0.8002  0.2084  0.2250
  359TIP3    H1 1083   1.393   5.536   4.433 -0.2587 -4.5776  0.9493
  359TIP3    H2 1084   1.525   5.602   4.468 -1.5870 -0.0114 -1.6640
  360TIP3   OH2 1085   3.759   2.103   2.724  0.2532  0.2451  0.3835
  360TIP3    H1 1086   3.753   2.181   2.779 -0.6468  0.6158 -0.2172
  360TIP3    H2 1087   3.762   2.137   2.634 -0.1179 -0.4136  0.1166
  361TIP3   OH2 1088   3.023   2.428   3.384 -0.1891 -0.0793  0.4597
  361TIP3    H1 1089   3.005   2.468   3.469 -1.9249 -0.9386  0.5411
  361TIP3    H2 1090   3.085   2.487   3.342  3.5860 -1.3381  3.6533
  362TIP3   OH2 1091   2.496   2.324   0.669 -0.5818  0.2879 -0.3310
  362TIP3    H1 1092   2.459   2.239   0.691  0.6092 -0.6545 -1.8097
  362TIP3    H2 1093   2.444   2.355   0.595  0.4488 -0.2568 -1.3085
  363TIP3   OH2 1094   3.391   1.644   2.629 -0.1265  0.4980  0.5010
  363TIP3    H1 1095   3.400   1.629   2.535  1.0717  1.8003  0.3726
  363TIP3    H2 1096   3.347   1.565   2.662 -1.4869  0.4699 -1.2798
  364TIP3   OH2 1097   1.169   5.296   1.323  0.1051 -0.1331 -0.0677
  364TIP3    H1 1098   1.164   5.334   1.411 -1.5735  1.1943 -0.6837
  364TIP3    H2 1099   1.198   5.368   1.267 -0.4655 -0.4892 -0.8435
  365TIP3   OH2 1100   3.376   4.486   2.281 -0.5809  0.3517 -0.0477
  365TIP3    H1 1101   3.390   4.575   2.247 -0.7609  0.4435  0.1174
  365TIP3    H2 1102   3.456   4.439   2.258 -1.3718 -0.0653 -2.1175
  366TIP3   OH2 1103   4.221   2.734   3.366 -0.2444 -0.6762  0.2379
  366TIP3    H1 1104   4.143   2.679   3.359 -0.1706 -0.5962 -1.9880
  366TIP3    H2 1105   4.238   2.763   3.276 -0.8090  3.6984  1.2715
  367TIP3   OH2 1106   2.492   4.916   0.086  0.1518 -0.8058  0.4116
  367TIP3    H1 1107   2.437   4.890   0.160 -1.3982 -2.5205 -1.2241
  367TIP3    H2 1108   2.573   4.949   0.126 -1.6641  0.9265  2.8907
  368TIP3   OH2 1109   1.806   3.427   3.289 -0.1297  0.3980 -0.1973
  368TIP3    H1 1110   1.764   3.508   3.318  0.1982 -0.7560  4.3504
  368TIP3    H2 1111   1.734   3.364   3.281 -0.0156  0.1315  0.6916
  369TIP3   OH2 1112   2.721   2.241   2.619  0.0717  0.4984 -0.2007
  369TIP3    H1 1113   2.659   2.240   2.545  0.8377  1.2292 -0.8687
  369TIP3    H2 1114   2.674   2.286   2.689 -0.7571 -0.4222 -0.1444
  370TIP3   OH2 1115   5.932   3.410   2.516 -0.3926  0.4390  0.2554
  370TIP3    H1 1116   6.026   3.397   2.502 -0.5400  0.3719 -0.7170
  370TIP3    H2 1117   5.917   3.379   2.606  0.2335 -1.0601 -0.1259
  371TIP3   OH2 1118   5.834   1.605   0.462  0.9483  0.0815 -0.0870
  371TIP3    H1 1119   5.880   1.653   0.531  0.2708  0.7154 -0.0589
  371TIP3    H2 1120   5.749   1.649   0.456 -0.0087 -1.6092  0.4946
  372TIP3   OH2 1121   6.190   1.054   2.242  0.5255 -1.0741  0.3052
  372TIP3    H1 1122   6.189   1.141   2.283  1.6406 -0.5901 -0.6125
  372TIP3    H2 1123   6.176   0.993   2.314 -1.0741 -0.1138  0.8673
  373TIP3   OH2 1124   0.467   1.167   1.262 -0.1256  0.1028  0.3866
  373TIP3    H1 1125   0.504   1.127   1.183 -0.0309 -0.0233  0.4945
  373TIP3    H2 1126   0.428   1.249   1.232 -1.0348 -0.4473  0.0192
  374TIP3   OH2 1127   5.951   2.712   2.790 -0.1180 -0.5076  0.0748
  374TIP3    H1 1128   6.039   2.746   2.772  0.1093  0.1973  2.2252
  374TIP3    H2 1129   5.898   2.743   2.717  1.5695 -1.7188 -1.7497
  375TIP3   OH2 1130   3.374   2.397   2.742  0.0050  0.1363 -0.1211
  375TIP3    H1 1131   3.391   2.314   2.785  0.2563  1.9745  3.7103
  375TIP3    H2 1132   3.279   2.406   2.743 -0.1370 -0.6990 -1.9786
  376TIP3   OH2 1133   2.284   2.107   2.649  0.8024  0.1044  0.6266
  376TIP3    H1 1134   2.302   2.018   2.680  1.5760  0.2913  0.7405
  376TIP3    H2 1135   2.229   2.145   2.717  0.3415 -0.3380  0.5044
  377TIP3   OH2 1136   3.209   2.595   3.310 -0.0288  0.2307 -0.5768
  377TIP3    H1 1137   3.257   2.539   3.250 -1.0408  0.2777 -1.4607
  377TIP3    H2 1138   3.194   2.676   3.261 -0.9303  0.2466 -0.2974
  378TIP3   OH2 1139   0.776   4.514   4.555  0.3069  0.4604 -0.2099
  378TIP3    H1 1140   0.701   4.544   4.504  1.0926 -0.7029 -2.1680
  378TIP3    H2 1141   0.738   4.476   4.634 -1.0666  1.1067 -0.5458
  379TIP3   OH2 1142   0.180   0.277   4.384 -0.0688 -0.0532  0.0427
  379TIP3    H1 1143   0.178   0.360   4.432 -0.1277  0.5130 -0.9060
  379TIP3    H2 1144   0.273   0.258   4.374 -0.0573 -0.3218  0.6146
  380TIP3   OH2 1145   2.677   3.140   4.465  0.4701  0.0599  0.3495
  380TIP3    H1 1146   2.637   3.071   4.412  1.4818  0.5927 -1.1713
  380TIP3    H2 1147   2.635   3.221   4.435  0.7210  0.3273  0.7060
  381TIP3   OH2 1148   5.962   5.550   2.804 -0.4309  0.0243 -0.3488
  381TIP3    H1 1149   5.908   5.478   2.772 -1.3010 -0.6096  2.2811
  381TIP3    H2 1150   6.040   5.507   2.839 -0.7760  0.3538  0.8759
  382TIP3   OH2 1151   3.702   3.091   3.480  0.0155 -0.5474  0.4728
  382TIP3    H1 1152   3.722   3.050   3.564 -0.6519 -0.8081  0.5118
  382TIP3    H2 1153   3.611   3.119   3.488  0.3880  0.7553  0.3659
  383TIP3   OH2 1154   3.097   0.542   4.527 -0.3204  0.4648  0.0424
  383TIP3    H1 1155   3.145   0.459   4.534 -1.1099  0.0389  0.4992
  383TIP3    H2 1156   3.157   0.600   4.480  0.8262  0.0848  0.9695
  384TIP3   OH2 1157   6.152   2.009   4.173  0.3385  0.1246 -1.0139
  384TIP3    H1 1158   6.197   1.937   4.129  0.4178  0.3453 -1.3022
  384TIP3    H2 1159   6.144   1.981   4.264 -1.5936 -1.2125 -1.5275
  385TIP3   OH2 1160   4.410   2.122   0.802 -0.1649  0.1714 -0.2342
  385TIP3    H1 1161   4.484   2.178   0.827 -1.2635  1.7550 -0.3952
  385TIP3    H2 1162   4.432   2.092   0.714  1.7980 -2.1096  0.9120
  386TIP3   OH2 1163   3.381   2.395   0.941 -0.1445  0.2153 -0.3934
  386TIP3    H1 1164   3.379   2.466   1.006 -2.8659  1.5875 -1.8142
  386TIP3    H2 1165   3.423   2.434   0.865 -1.4213  0.2832 -1.0964
  387TIP3   OH2 1166   2.835   5.641   1.433 -0.6104 -0.3236  0.2210
  387TIP3    H1 1167   2.779   5.694   1.376  1.2758  1.5469 -0.0371
  387TIP3    H2 1168   2.922   5.682   1.425  0.2704 -1.6126  2.4356
  388TIP3   OH2 1169   0.629   4.786   2.252 -0.5959 -0.3730 -0.4534
  388TIP3    H1 1170   0.717   4.819   2.229 -0.7650  0.6734  0.3264
  388TIP3    H2 1171   0.640   4.691   2.256  0.8594 -0.1976  0.9940
  389TIP3   OH2 1172   0.910   0.491   1.574 -0.9262  0.3136  0.1924
  389TIP3    H1 1173   0.941   0.581   1.576 -0.1274  0.0449  0.5442
  389TIP3    H2 1174   0.832   0.492   1.630 -1.5262  0.9851 -0.6360
  390TIP3   OH2 1175   3.139   3.244   2.458 -0.0845  0.6169 -0.0499
  390TIP3    H1 1176   3.190   3.253   2.377 -2.9005  1.8583 -1.8549
  390TIP3    H2 1177   3.066   3.186   2.434  0.5582 -1.4042  2.5150
  391TIP3   OH2 1178   6.326   4.578   4.267  0.0331 -0.2552 -0.6318
  391TIP3    H1 1179   6.264   4.650   4.253  0.1544 -0.2816 -1.3321
  391TIP3    H2 1180   6.271   4.500   4.273 -0.0301 -0.2334 -0.9037
  392TIP3   OH2 1181   1.115   3.766   1.640 -0.3415 -0.1213 -0.6714
  392TIP3    H1 1182   1.186   3.824   1.613  0.3186 -0.4043  0.3883
  392TIP3    H2 1183   1.042   3.825   1.658 -0.5141  0.1431 -2.1305
  393TIP3   OH2 1184   4.075   1.875   2.340  0.4412  0.5757 -0.1316
  393TIP3    H1 1185   4.115   1.804   2.390  0.2858 -0.3132 -1.2134
  393TIP3    H2 1186   4.121   1.954   2.368  0.9984 -0.0252  0.6972
  394TIP3   OH2 1187   6.111   3.731   0.420  0.6194  0.0420 -0.0348
  394TIP3    H1 1188   6.020   3.721   0.391  0.4425  1.3257  0.0165
  394TIP3    H2 1189   6.163   3.713   0.341  0.1860  2.2210 -0.8892
  395TIP3   OH2 1190   5.428   3.679   1.327 -0.0529  0.4110 -0.6854
  395TIP3    H1 1191   5.367   3.642   1.391 -0.1442  1.2002 -0.3141
  395TIP3    H2 1192   5.374   3.735   1.271  0.0654 -0.1015 -1.3251
  396TIP3   OH2 1193   5.220   5.358   4.531 -0.1771 -0.0995 -0.0628
  396TIP3    H1 1194   5.182   5.355   4.443 -1.6341  0.4574  0.5164
  396TIP3    H2 1195   5.172   5.292   4.580 -0.3615  0.5629  0.6751
  397TIP3   OH2 1196   0.862   1.499   4.286  0.1381 -0.5175  0.1040
  397TIP3    H1 1197   0.849   1.568   4.350  0.9303 -0.5393  0.2955
  397TIP3    H2 1198   0.957   1.485   4.284  0.1634 -0.3155 -1.2793
  398TIP3   OH2 1199   4.793   5.630   2.370 -0.0753 -0.1479  0.0076
  398TIP3    H1 1200   4.708   5.639   2.326 -0.6482  0.2066  1.1297
  398TIP3    H2 1201   4.795   5.702   2.433  1.3857  0.2684 -0.4953
  399TIP3   OH2 1202   4.118   4.290   5.045  0.0421  0.0505  0.4503
  399TIP3    H1 1203   4.086   4.201   5.055  0.2145 -0.4630 -2.5531
  399TIP3    H2 1204   4.203   4.290   5.090 -0.6388 -0.8028  1.8080
  400TIP3   OH2 1205   5.676   0.847   5.090  0.2623  0.1828 -0.1403
  400TIP3    H1 1206   5.616   0.774   5.073  0.7515 -0.3838  0.4990
  400TIP3    H2 1207   5.661   0.869   5.182 -0.3196  1.3078 -0.4873
  401TIP3   OH2 1208   5.083   1.290   2.103  1.0763  0.0751  0.1776
  401TIP3    H1 1209   5.063   1.352   2.034  0.0339 -1.9316 -1.4402
  401TIP3    H2 1210   5.007   1.231   2.105  1.7587 -0.8373  2.0002
  402TIP3   OH2 1211   4.453   1.583   4.396 -0.0514  0.1007 -0.2329
  402TIP3    H1 1212   4.393   1.649   4.360 -0.6379  0.1940  0.8743
  402TIP3    H2 1213   4.405   1.544   4.469  1.4566  0.5639  1.0461
  403TIP3   OH2 1214   3.130   5.496   3.047 -0.4183  0.0946  0.6068
  403TIP3    H1 1215   3.162   5.481   2.958  2.2716  1.3999  1.2456
  403TIP3    H2 1216   3.157   5.585   3.067 -2.1981  0.3293  2.2965
  404TIP3   OH2 1217   5.716   0.436   0.096  0.1807 -0.4883  0.1873
  404TIP3    H1 1218   5.695   0.368   0.032  3.2012  0.8202 -2.4044
  404TIP3    H2 1219   5.668   0.514   0.065 -1.2604 -0.7054  1.7163
  405TIP3   OH2 1220   1.656   5.770   5.172 -0.5699  0.1630  0.8418
  405TIP3    H1 1221   1.667   5.678   5.149 -0.0268  0.4444 -0.1117
  405TIP3    H2 1222   1.563   5.788   5.156 -0.5480 -0.0714  0.4376
  406TIP3   OH2 1223   5.709   3.583   1.340  0.3713  0.0249  0.3155
  406TIP3    H1 1224   5.614   3.589   1.352  0.1575 -0.5085 -0.9677
  406TIP3    H2 1225   5.740   3.542   1.420 -0.2625  1.6410  1.4503
  407TIP3   OH2 1226   5.906   4.372   4.661 -0.0831  0.3918  0.1126
  407TIP3    H1 1227   5.994   4.363   4.625 -0.0559  0.2098  0.2262
  407TIP3    H2 1228   5.849   4.344   4.589  0.0090 -1.0348  0.5464
  408TIP3   OH2 1229   4.732   5.439   0.303 -0.5411  0.0896 -0.2880
  408TIP3    H1 1230   4.652   5.491   0.299  0.6329  2.0524  0.3326
  408TIP3    H2 1231   4.786   5.472   0.232  0.6599  0.5189  0.7800
  409TIP3   OH2 1232   0.385   4.334   4.226  0.5871 -0.1612 -0.1269
  409TIP3    H1 1233   0.377   4.256   4.281 -0.7060  0.3368  0.4449
  409TIP3    H2 1234   0.446   4.309   4.157  0.6669 -1.4741  0.3913
  410TIP3   OH2 1235   5.227   0.789   0.089  0.4567 -0.2313  0.3715
  410TIP3    H1 1236   5.195   0.834   0.167  1.2726  0.9328  0.0665
  410TIP3    H2 1237   5.149   0.775   0.035 -0.1204 -1.1104  1.4004
  411TIP3   OH2 1238   4.332   1.190   3.288  1.0287 -0.3075  0.0765
  411TIP3    H1 1239   4.345   1.124   3.220  0.8596  0.3512 -0.5976
  411TIP3    H2 1240   4.243   1.175   3.320  1.2194 -0.8213  0.3895
  412TIP3   OH2 1241   3.915   0.153   4.862 -0.2544 -0.3420 -0.2565
  412TIP3    H1 1242   3.997   0.198   4.881 -1.0529  0.6856  0.9292
  412TIP3    H2 1243   3.941   0.064   4.838  1.3254  0.5577 -2.0920
  413TIP3   OH2 1244   5.474   3.026   4.479  0.0247 -0.4089 -0.2032
  413TIP3    H1 1245   5.491   3.112   4.442 -0.6511  0.2338  0.9170
  413TIP3    H2 1246   5.388   3.001   4.444  0.1088 -0.5254 -0.3304
  414TIP3   OH2 1247   1.673   0.882   4.201 -0.6200  0.7000 -0.2447
  414TIP3    H1 1248   1.579   0.878   4.215 -0.7567  2.3862 -0.5268
  414TIP3    H2 1249   1.700   0.965   4.240  0.6681  0.4760 -0.6162
  415TIP3   OH2 1250   2.719   1.229   1.503 -0.2404 -0.0851  0.1993
  415TIP3    H1 1251   2.794   1.172   1.484  1.4715  1.7735  1.0569
  415TIP3    H2 1252   2.643   1.179   1.472  1.3680 -1.8353 -1.1678
  416TIP3   OH2 1253   1.160   4.011   0.335 -0.7904  0.0222  0.2759
  416TIP3    H1 1254   1.127   4.097   0.311  1.4445  1.0831  0.7632
  416TIP3    H2 1255   1.094   3.976   0.395 -2.0690  1.0672 -0.4666
  417TIP3   OH2 1256   2.978   2.409   0.215 -0.3221  0.3475  0.4382
  417TIP3    H1 1257   2.887   2.401   0.186  0.1411  1.0052 -1.3361
  417TIP3    H2 1258   3.019   2.326   0.190 -0.2952  0.2864  0.6848
  418TIP3   OH2 1259   6.168   2.088   1.375  0.2872  0.0714  0.3023
  418TIP3    H1 1260   6.180   2.011   1.320  0.9608 -1.0337  1.9134
  418TIP3    H2 1261   6.171   2.054   1.465  1.3609  2.0615  1.0861
  419TIP3   OH2 1262   5.444   0.956   0.952 -0.1276  0.2005  0.2457
  419TIP3    H1 1263   5.399   1.031   0.990 -2.1877 -0.6360 -0.4476
  419TIP3    H2 1264   5.396   0.937   0.872  0.8094 -1.4286  0.0363
  420TIP3   OH2 1265   5.302   2.755   0.223 -0.0685 -0.3645  0.5398
  420TIP3    H1 1266   5.264   2.841   0.241  1.2511  0.5952 -1.0401
  420TIP3    H2 1267   5.384   2.753   0.272  0.9849  0.2025 -1.1188
  421TIP3   OH2 1268   5.727   3.984   0.859  0.0078  0.2002  0.1180
  421TIP3    H1 1269   5.794   3.992   0.927  0.7209  0.0413 -0.5491
  421TIP3    H2 1270   5.745   3.899   0.818 -0.5263  0.2142 -0.1486
  422TIP3   OH2 1271   1.390   0.574   3.477  0.5385 -0.0567  0.2072
  422TIP3    H1 1272   1.437   0.493   3.496  2.0340  0.8430  0.4566
  422TIP3    H2 1273   1.415   0.633   3.548  1.0324  1.2534 -1.0123
  423TIP3   OH2 1274   2.834   5.929   0.925  0.3650 -0.0656 -0.4425
  423TIP3    H1 1275   2.923   5.950   0.953  0.1055  1.3580 -0.6194
  423TIP3    H2 1276   2.846   5.863   0.856  1.2232 -0.5390  0.1456
  424TIP3   OH2 1277   4.303   2.541   2.626  0.4857  0.2104  0.0749
  424TIP3    H1 1278   4.373   2.552   2.561  1.9768 -2.4493  1.0814
  424TIP3    H2 1279   4.225   2.520   2.574  0.4771  2.7036 -1.0367
  425TIP3   OH2 1280   3.478   0.460   3.849 -0.2119  0.3070 -0.0213
  425TIP3    H1 1281   3.524   0.531   3.894 -1.7028  1.9068 -0.8924
  425TIP3    H2 1282   3.409   0.433   3.910  0.2536 -0.2884  0.2443
  426TIP3   OH2 1283   3.570   2.072   0.805 -0.4896  0.0083  0.6540
  426TIP3    H1 1284   3.556   2.045   0.896  0.4159 -1.5985  0.3377
  426TIP3    H2 1285   3.641   2.136   0.810 -0.3704 -0.1514  1.0664
  427TIP3   OH2 1286   3.777   2.836   4.810  0.1855 -0.4056  0.4421
  427TIP3    H1 1287   3.686   2.849   4.781  0.2277 -0.9167  0.0665
  427TIP3    H2 1288   3.830   2.863   4.734  0.3542  0.0050  0.7024
  428TIP3   OH2 1289   0.642   1.566   2.980 -0.4549  0.2186  0.2437
  428TIP3    H1 1290   0.610   1.559   2.890 -1.5754  0.9292  0.5723
  428TIP3    H2 1291   0.618   1.483   3.021 -1.1756  0.4243  0.2560
  429TIP3   OH2 1292   4.674   5.337   3.083 -0.3276 -0.1248 -0.3516
  429TIP3    H1 1293   4.631   5.252   3.084 -0.5153 -0.0257  0.3586
  429TIP3    H2 1294   4.647   5.379   3.165  0.0114  0.4920 -0.5471
  430TIP3   OH2 1295   4.214   4.476   0.550 -0.2088  0.7116 -0.6101
  430TIP3    H1 1296   4.177   4.564   0.547  1.0481  1.2300 -1.2248
  430TIP3    H2 1297   4.308   4.488   0.557 -0.0529 -0.5964 -0.0166
  431TIP3   OH2 1298   1.096   3.210   1.768  0.1663 -0.5364 -0.5470
  431TIP3    H1 1299   1.044   3.237   1.692  0.0907 -0.8935 -0.6266
  431TIP3    H2 1300   1.166   3.275   1.775 -1.3220  1.0082  0.6597
  432TIP3   OH2 1301   0.892   1.209   1.106  0.1001 -0.1743 -0.5407
  432TIP3    H1 1302   0.820   1.176   1.159  0.3357 -0.4365 -0.3871
  432TIP3    H2 1303   0.945   1.261   1.166 -0.1977  0.3842 -0.7510
  433TIP3   OH2 1304   0.979   3.971   3.790 -0.2830 -0.4610 -0.6238
  433TIP3    H1 1305   1.068   4.005   3.801 -0.3218 -0.2844 -0.8434
  433TIP3    H2 1306   0.991   3.886   3.748 -0.2213 -0.3988 -0.7328
  434TIP3   OH2 1307   5.125   4.858   5.008  0.3483 -0.2274 -0.0474
  434TIP3    H1 1308   5.196   4.814   4.961  1.1651  1.0965 -0.0968
  434TIP3    H2 1309   5.147   4.951   5.003 -0.9496  0.1409  0.6845
  435TIP3   OH2 1310   1.456   0.019   4.414 -0.1510 -0.2010 -0.4217
  435TIP3    H1 1311   1.539  -0.003   4.457 -0.0794 -1.1011 -0.9873
  435TIP3    H2 1312   1.389  -0.009   4.476 -0.0365 -0.8594 -0.5763
  436TIP3   OH2 1313   3.258   1.446   1.375  0.1687  0.3999 -0.3729
  436TIP3    H1 1314   3.207   1.442   1.294 -0.6998 -2.1354  0.2216
  436TIP3    H2 1315   3.334   1.390   1.357  0.0977  0.0240  0.4898
  437TIP3   OH2 1316   2.236   2.771   1.025  0.2461  0.2213 -0.2831
  437TIP3    H1 1317   2.258   2.826   1.100 -0.3928 -0.5872  0.5182
  437TIP3    H2 1318   2.259   2.682   1.053 -2.1567 -0.4158 -0.1084
  438TIP3   OH2 1319   0.464   1.453   3.874 -0.0718 -0.1556  0.0125
  438TIP3    H1 1320   0.380   1.408   3.868  0.2145 -0.4976 -2.5084
  438TIP3    H2 1321   0.520   1.407   3.812  1.6734  0.7412  0.8487
  439TIP3   OH2 1322   6.137   0.182   1.497 -0.1864 -0.1735 -0.5215
  439TIP3    H1 1323   6.212   0.144   1.544 -1.8939 -1.2548  1.4803
  439TIP3    H2 1324   6.138   0.274   1.522  0.0540 -0.3347  0.0926
  440TIP3   OH2 1325   1.320   2.207   1.947 -0.8548  0.2932 -0.0591
  440TIP3    H1 1326   1.295   2.163   2.028 -0.1879  0.7699  0.4079
  440TIP3    H2 1327   1.334   2.298   1.972  1.0040  0.1260 -0.3563
  441TIP3   OH2 1328   0.405   1.842   1.138 -0.0883 -0.1227 -0.2565
  441TIP3    H1 1329   0.495   1.858   1.166  0.3349 -2.0541 -0.3805
  441TIP3    H2 1330   0.410   1.765   1.081 -1.9115 -0.7483  0.3409
  442TIP3   OH2 1331   1.242   2.346   0.763 -0.1546  0.3420  0.1486
  442TIP3    H1 1332   1.333   2.341   0.792 -0.5806 -0.8137  1.4065
  442TIP3    H2 1333   1.248   2.362   0.669  1.3197  1.4566  0.3787
  443TIP3   OH2 1334   4.864   1.519   2.493 -0.0753 -0.4627  0.2296
  443TIP3    H1 1335   4.924   1.454   2.457 -0.1421 -0.1673 -0.4424
  443TIP3    H2 1336   4.791   1.520   2.431 -0.6205 -0.5871  0.8635
  444TIP3   OH2 1337   2.698   4.750   4.121 -0.2696 -0.1949  0.2811
  444TIP3    H1 1338   2.753   4.716   4.051 -0.8129 -0.8169  0.1504
  444TIP3    H2 1339   2.623   4.789   4.076 -1.0657 -1.3940  0.5372
  445TIP3   OH2 1340   3.742   5.336   1.631  0.0050 -0.5189  0.1337
  445TIP3    H1 1341   3.723   5.360   1.541 -0.3029 -0.2816  0.2581
  445TIP3    H2 1342   3.657   5.338   1.675  0.4476  2.0782  1.0747
  446TIP3   OH2 1343   1.951   2.427   3.852  0.0703 -0.0064  0.0993
  446TIP3    H1 1344   1.991   2.512   3.875  2.6713 -1.0342 -0.3209
  446TIP3    H2 1345   1.989   2.366   3.915 -1.0484 -1.0346 -0.2037
  447TIP3   OH2 1346   2.944   4.412   1.348  0.3495  0.1428  0.6590
  447TIP3    H1 1347   2.867   4.469   1.353  0.6235  0.5640  0.1963
  447TIP3    H2 1348   3.005   4.460   1.293  0.4176 -0.8065 -0.1233
  448TIP3   OH2 1349   4.395   3.818   0.221  0.5671 -0.1455 -0.0409
  448TIP3    H1 1350   4.315   3.870   0.208  0.5513 -0.3021 -0.6218
  448TIP3    H2 1351   4.392   3.752   0.151  0.6978 -0.7896  0.5525
  449TIP3   OH2 1352   5.361   1.374   3.950 -0.0612  0.3177  0.1224
  449TIP3    H1 1353   5.405   1.338   4.027 -1.5331 -0.1668  0.7596
  449TIP3    H2 1354   5.369   1.306   3.884 -0.6270 -0.1392  0.5193
  450TIP3   OH2 1355   3.746   2.689   1.601  0.6287  0.1077  0.1842
  450TIP3    H1 1356   3.787   2.603   1.610 -0.3335 -0.3177  0.6059
  450TIP3    H2 1357   3.776   2.721   1.515  1.9314 -0.1153  0.5257
  451TIP3   OH2 1358   4.371   2.303   1.380 -0.1179 -0.1055 -0.6308
  451TIP3    H1 1359   4.442   2.239   1.370 -1.0274 -1.5259  1.2870
  451TIP3    H2 1360   4.375   2.329   1.472 -0.4903  1.7819 -1.1123
  452TIP3   OH2 1361   1.062   4.515   3.616 -0.2537  0.4532  0.0595
  452TIP3    H1 1362   0.981   4.546   3.657  0.8831  3.0929  0.5314
  452TIP3    H2 1363   1.051   4.421   3.609 -3.5342  0.7325 -0.2684
  453TIP3   OH2 1364   4.890   0.289   3.613  0.0458  0.3833  0.1741
  453TIP3    H1 1365   4.971   0.266   3.568 -1.5237 -1.1938 -2.0333
  453TIP3    H2 1366   4.861   0.370   3.571 -0.3717  0.0187 -0.2544
  454TIP3   OH2 1367   2.205   0.366   3.406  0.1085  0.3041 -0.0359
  454TIP3    H1 1368   2.188   0.457   3.431  0.5683  0.2228  0.5918
  454TIP3    H2 1369   2.160   0.314   3.473 -0.5782  0.0580 -0.6772
  455TIP3   OH2 1370   4.583   4.088   2.258  0.5564  0.1980  0.1094
  455TIP3    H1 1371   4.601   4.017   2.196  0.5695  1.6212 -1.5842
  455TIP3    H2 1372   4.662   4.143   2.255  0.7225  0.0928  1.7163
  456TIP3   OH2 1373   1.028   5.842   0.367 -0.0333 -0.1927 -0.0226
  456TIP3    H1 1374   1.007   5.933   0.345  1.0711  0.5385  1.7324
  456TIP3    H2 1375   0.949   5.809   0.411 -1.1881 -0.7885 -2.3474
  457TIP3   OH2 1376   3.959   1.024   1.958  0.1576 -0.5783  0.1339
  457TIP3    H1 1377   3.948   1.014   2.052  1.0001 -0.2490  0.2734
  457TIP3    H2 1378   4.053   1.031   1.945  0.1322 -1.6564 -0.8364
  458TIP3   OH2 1379   2.046   5.143   0.537  0.1887 -0.5309 -0.2699
  458TIP3    H1 1380   2.081   5.143   0.626 -0.8834 -0.0708  0.1710
  458TIP3    H2 1381   2.121   5.163   0.481  0.2261  2.9236  0.8042
  459TIP3   OH2 1382   3.139   0.666   1.435  0.0882 -0.0944 -0.6064
  459TIP3    H1 1383   3.046   0.683   1.421 -0.0270 -0.5749 -0.4298
  459TIP3    H2 1384   3.146   0.649   1.529  0.1047 -1.5825 -0.8525
  460TIP3   OH2 1385   2.758   5.226   5.063 -0.5985  0.3779 -0.3550
  460TIP3    H1 1386   2.696   5.177   5.010  0.7793 -0.5418 -1.1765
  460TIP3    H2 1387   2.747   5.192   5.151 -1.3717  0.3593 -0.4518
  461TIP3   OH2 1388   1.249   2.153   3.368  0.2008 -0.7625  0.7548
  461TIP3    H1 1389   1.217   2.063   3.367  1.8244 -1.3945  1.3495
  461TIP3    H2 1390   1.316   2.154   3.436  1.5433  0.4070 -0.5028
  462TIP3   OH2 1391   4.190   3.260   0.527  0.4421 -0.2626 -0.0778
  462TIP3    H1 1392   4.206   3.229   0.616  0.9140 -0.4588 -0.2337
  462TIP3    H2 1393   4.108   3.218   0.501  1.2903 -1.7527 -0.4578
  463TIP3   OH2 1394   4.188   1.335   3.834 -0.1258 -0.6077  0.6434
  463TIP3    H1 1395   4.094   1.320   3.836 -0.3198  0.4337 -0.1108
  463TIP3    H2 1396   4.219   1.283   3.760  0.0103 -1.4431  1.2605
  464TIP3   OH2 1397   2.328   5.916   4.745 -0.3414  0.5318 -0.4672
  464TIP3    H1 1398   2.417   5.950   4.739  1.0987 -2.3177  1.9393
  464TIP3    H2 1399   2.314   5.871   4.662  1.0058 -0.0631 -0.3922
  465TIP3   OH2 1400   6.033   3.739   2.852  0.8503  0.2382 -0.0128
  465TIP3    H1 1401   5.952   3.760   2.805  1.0588  1.6259  0.2181
  465TIP3    H2 1402   6.003   3.701   2.934  0.4593 -0.4950 -0.4830
  466TIP3   OH2 1403   4.561   0.199   3.306  0.0808 -0.2542  0.2099
  466TIP3    H1 1404   4.489   0.136   3.308 -0.9534  0.8987  1.0872
  466TIP3    H2 1405   4.599   0.189   3.219 -0.3077 -1.7979  0.1913
  467TIP3   OH2 1406   1.449   5.749   0.523 -0.0515  0.3540  0.1861
  467TIP3    H1 1407   1.518   5.793   0.573  1.5497 -1.2582 -0.4984
  467TIP3    H2 1408   1.473   5.764   0.432  0.3790 -1.6501 -0.0609
  468TIP3   OH2 1409   1.845   5.861   4.836 -0.1459 -0.3911  0.4658
  468TIP3    H1 1410   1.926   5.842   4.883 -0.2365  1.4846  1.4523
  468TIP3    H2 1411   1.811   5.775   4.813  1.9347 -1.2432  0.3208
  469TIP3   OH2 1412   5.206   2.984   4.404 -0.5358 -0.0332 -0.0559
  469TIP3    H1 1413   5.148   3.059   4.411  1.6491  1.6706  1.5306
  469TIP3    H2 1414   5.200   2.941   4.489  2.7098  2.0895  1.4704
  470TIP3   OH2 1415   5.788   4.568   0.390 -0.1371 -0.0938  0.2421
  470TIP3    H1 1416   5.735   4.496   0.357 -0.9420  0.1948  0.8664
  470TIP3    H2 1417   5.726   4.640   0.401  0.7579  0.9161 -0.9849
  471TIP3   OH2 1418   6.170   4.579   1.211  0.5249 -0.3477  0.1228
  471TIP3    H1 1419   6.147   4.493   1.246 -1.9814  0.7677  1.4497
  471TIP3    H2 1420   6.091   4.609   1.167  1.3870  1.2644 -0.3890
  472TIP3   OH2 1421   4.007   3.291   3.994  0.3667  0.4668  0.4938
  472TIP3    H1 1422   3.964   3.377   3.990 -0.3475  0.1044  0.0371
  472TIP3    H2 1423   4.027   3.271   3.903 -1.3803 -0.7631  0.3242
  473TIP3   OH2 1424   0.172   0.986   4.655 -0.1812 -0.0098  0.0845
  473TIP3    H1 1425   0.210   0.969   4.742 -0.8912 -1.1374  0.1802
  473TIP3    H2 1426   0.222   1.061   4.623  0.9010 -0.3145  0.9706
  474TIP3   OH2 1427   5.112   5.686   4.129 -0.7722  0.7664 -0.5004
  474TIP3    H1 1428   5.056   5.699   4.053  0.0670  0.3588 -1.2104
  474TIP3    H2 1429   5.201   5.698   4.095 -0.3482 -0.1027  0.2574
  475TIP3   OH2 1430   5.685   3.180   2.469  0.3695  0.0826  0.2208
  475TIP3    H1 1431   5.772   3.176   2.509  1.0707  0.5696 -1.1896
  475TIP3    H2 1432   5.625   3.163   2.541  1.6770 -1.5803  0.9805
  476TIP3   OH2 1433   3.706   2.787   4.332  0.0803 -0.1613 -0.0267
  476TIP3    H1 1434   3.654   2.858   4.292 -2.6479 -2.3607 -0.7138
  476TIP3    H2 1435   3.797   2.815   4.321 -0.7884  4.0034  1.2908
  477TIP3   OH2 1436   0.410   5.378   3.624 -0.2751 -0.3551  0.9728
  477TIP3    H1 1437   0.446   5.456   3.580  0.4707 -0.8512  0.6831
  477TIP3    H2 1438   0.336   5.352   3.569  0.0451 -0.3920  0.5514
  478TIP3   OH2 1439   5.596   4.693   4.646 -0.7547  0.0657  0.6840
  478TIP3    H1 1440   5.618   4.711   4.737 -1.9218 -0.2004  1.0348
  478TIP3    H2 1441   5.606   4.778   4.602  1.2617 -0.1022  0.7200
  479TIP3   OH2 1442   4.446   2.071   0.486 -0.2592 -0.2257 -0.1553
  479TIP3    H1 1443   4.501   2.147   0.504 -0.5954 -0.3217  1.4304
  479TIP3    H2 1444   4.502   2.012   0.435  1.0459 -0.1930  1.1668
  480TIP3   OH2 1445   3.628   3.345   2.269 -0.5105 -0.1372 -1.0076
  480TIP3    H1 1446   3.686   3.291   2.323 -1.4929  0.2085  0.4525
  480TIP3    H2 1447   3.596   3.285   2.201 -0.8109 -1.1609 -0.0041
  481TIP3   OH2 1448   6.082   5.644   4.012 -0.3198  0.2669 -0.2447
  481TIP3    H1 1449   6.083   5.559   3.969 -0.9750  0.2487 -0.2371
  481TIP3    H2 1450   6.155   5.642   4.073 -0.3294 -0.2864 -0.2508
  482TIP3   OH2 1451   2.923   0.032   1.129  0.1430 -0.5379 -0.5643
  482TIP3    H1 1452   2.938   0.107   1.072  0.9165  0.3410  0.7450
  482TIP3    H2 1453   2.946  -0.044   1.074 -2.6981 -0.0665 -2.6196
  483TIP3   OH2 1454   3.570   1.935   1.764  0.2190  0.2052 -0.2395
  483TIP3    H1 1455   3.635   1.918   1.697  0.6376 -1.2914  0.5021
  483TIP3    H2 1456   3.619   1.972   1.837  0.4274 -1.6342  0.6124
  484TIP3   OH2 1457   0.759   4.591   1.501 -0.5912 -0.1028 -0.0587
  484TIP3    H1 1458   0.753   4.654   1.429 -0.6997  0.2132  0.2189
  484TIP3    H2 1459   0.669   4.563   1.516 -0.4677 -0.8074 -0.5936
  485TIP3   OH2 1460   3.982   3.477   3.599  0.2706 -0.4246  0.1023
  485TIP3    H1 1461   3.916   3.464   3.531 -2.7972  2.1639  2.2808
  485TIP3    H2 1462   3.974   3.400   3.656 -0.4503 -0.4430 -0.0158
  486TIP3   OH2 1463   3.180   0.978   0.617  0.2217 -0.5907  0.5285
  486TIP3    H1 1464   3.132   0.965   0.535 -0.0796 -1.4083  0.8268
  486TIP3    H2 1465   3.268   1.004   0.590  0.1631 -0.9890 -0.0597
  487TIP3   OH2 1466   5.748   2.519   4.500 -0.3298 -0.0903 -0.3948
  487TIP3    H1 1467   5.753   2.510   4.595  2.8485  0.5013 -0.3809
  487TIP3    H2 1468   5.705   2.604   4.486 -1.2034 -0.3741  0.4753
  488TIP3   OH2 1469   5.882   3.287   4.535  0.1790  0.1339 -0.0003
  488TIP3    H1 1470   5.809   3.272   4.594  0.5856  0.0050  0.4792
  488TIP3    H2 1471   5.945   3.336   4.588  2.1108 -3.0085  0.8967
  489TIP3   OH2 1472   5.417   4.776   0.620  0.3142  0.4174 -0.2946
  489TIP3    H1 1473   5.356   4.839   0.580  0.4360 -0.3321 -1.7323
  489TIP3    H2 1474   5.491   4.774   0.560  0.3085 -1.0825 -0.2713
  490TIP3   OH2 1475   6.155   3.688   2.568 -0.3249 -0.0668  0.0587
  490TIP3    H1 1476   6.140   3.719   2.479  0.2173 -0.8024 -0.2967
  490TIP3    H2 1477   6.098   3.743   2.622 -0.8661  0.1992 -0.7617
  491TIP3   OH2 1478   4.133   5.487   4.225  0.1421 -0.3239 -0.2932
  491TIP3    H1 1479   4.124   5.480   4.320  2.2769  0.2848 -0.0111
  491TIP3    H2 1480   4.179   5.407   4.199  0.5844  0.0546 -0.6716
  492TIP3   OH2 1481   1.463   0.955   5.096  0.0496  0.1813  0.4008
  492TIP3    H1 1482   1.440   1.010   5.021  1.1082  0.4762  0.2839
  492TIP3    H2 1483   1.544   0.910   5.070  0.9086  0.9303  1.6791
  493TIP3   OH2 1484   0.671   5.643   1.301 -0.4304 -0.1763 -0.0073
  493TIP3    H1 1485   0.692   5.731   1.271 -0.2790 -0.4734 -0.8049
  493TIP3    H2 1486   0.583   5.651   1.338  0.6102  0.8690  2.4694
  494TIP3   OH2 1487   0.076   0.532   1.812 -0.9333 -0.5947 -0.1879
  494TIP3    H1 1488   0.036   0.590   1.877 -3.4128 -1.1377 -1.0968
  494TIP3    H2 1489   0.142   0.586   1.769  0.9199 -0.2744  2.8019
  495TIP3   OH2 1490   5.757   3.155   1.711  0.6774 -0.1326 -0.2698
  495TIP3    H1 1491   5.770   3.240   1.668 -0.0575  1.5181  2.5461
  495TIP3    H2 1492   5.707   3.103   1.647 -0.9511  2.3944 -1.1863
  496TIP3   OH2 1493   6.086   3.150   1.625  0.3172  0.3922  0.4517
  496TIP3    H1 1494   6.144   3.187   1.691 -0.6747 -1.5991  2.5935
  496TIP3    H2 1495   6.107   3.057   1.622  0.0107  0.3179 -1.7801
  497TIP3   OH2 1496   4.618   5.909   2.205 -0.4077  0.6907 -0.2245
  497TIP3    H1 1497   4.690   5.928   2.145  0.2538  1.1451  0.6959
  497TIP3    H2 1498   4.619   5.980   2.268 -0.2507 -0.4409  1.1011
  498TIP3   OH2 1499   3.759   1.388   1.446 -0.3342  0.2727  0.1496
  498TIP3    H1 1500   3.838   1.365   1.398  0.4361  0.9701  1.0482
  498TIP3    H2 1501   3.710   1.306   1.453 -0.0154 -0.0275 -0.9786
  499TIP3   OH2 1502   3.015   4.032   1.912 -0.2898  0.7851 -0.2055
  499TIP3    H1 1503   2.952   4.063   1.976 -1.5927 -0.4177 -0.8696
  499TIP3    H2 1504   3.073   3.974   1.961  0.7088  2.3009  0.5201
  500TIP3   OH2 1505   0.109   1.098   1.954 -0.3022 -0.0556 -0.1821
  500TIP3    H1 1506   0.077   1.186   1.972 -3.8861 -0.8648 -1.7122
  500TIP3    H2 1507   0.033   1.041   1.970  1.2217 -2.6176 -1.3893
  501TIP3   OH2 1508   2.606   3.800   1.332 -0.8604  0.3842  0.0447
  501TIP3    H1 1509   2.574   3.890   1.320 -1.3223  0.1910 -0.2172
  501TIP3    H2 1510   2.701   3.807   1.321 -0.9749  0.7100 -0.8053
  502TIP3   OH2 1511   2.597   3.389   3.124 -0.1724  0.1531  0.0337
  502TIP3    H1 1512   2.517   3.436   3.147  0.9803  1.7230  0.9581
  502TIP3    H2 1513   2.566   3.311   3.077 -2.2518  0.4394  0.8490
  503TIP3   OH2 1514   4.048   3.434   0.160  1.0599  0.3011  0.1177
  503TIP3    H1 1515   4.078   3.514   0.116  3.2393  0.3023  1.4556
  503TIP3    H2 1516   4.089   3.363   0.110  2.0428  0.2244  0.9939
  504TIP3   OH2 1517   0.917   1.187   2.929 -0.0161  0.0115 -0.0345
  504TIP3    H1 1518   0.902   1.248   2.857 -0.2080 -1.5090 -1.3380
  504TIP3    H2 1519   0.885   1.103   2.896  0.6011 -0.8818  1.5511
  505TIP3   OH2 1520   5.483   2.005   3.392 -0.0424 -0.2119 -0.1203
  505TIP3    H1 1521   5.457   1.921   3.355 -0.0344 -0.0986 -0.3855
  505TIP3    H2 1522   5.436   2.010   3.475 -0.1015 -0.4438 -0.1385
  506TIP3   OH2 1523   1.756   0.376   1.233 -1.0897 -0.2184 -0.1384
  506TIP3    H1 1524   1.786   0.314   1.167  1.5509  0.4113  0.3817
  506TIP3    H2 1525   1.708   0.442   1.183  1.0393  0.3661 -1.5231
  507TIP3   OH2 1526   1.172   3.513   2.998 -0.8013 -0.3680 -0.1023
  507TIP3    H1 1527   1.249   3.568   3.014 -1.6636  0.6798  0.5866
  507TIP3    H2 1528   1.208   3.426   2.983  0.5677  0.2362 -0.5397
  508TIP3   OH2 1529   5.487   5.498   0.389 -0.2055  0.3040  0.5719
  508TIP3    H1 1530   5.462   5.536   0.473 -0.4875  1.6336 -0.0913
  508TIP3    H2 1531   5.413   5.441   0.365  0.1243 -0.5361  1.4653
  509TIP3   OH2 1532   4.915   2.839   4.814 -0.7916 -0.1613  0.1365
  509TIP3    H1 1533   4.987   2.786   4.848  0.1555  0.3535 -0.9957
  509TIP3    H2 1534   4.881   2.789   4.740  0.9779  1.3178 -1.7963
  510TIP3   OH2 1535   4.085   0.860   4.692 -0.2952  0.3130 -0.3076
  510TIP3    H1 1536   4.038   0.941   4.711  0.3107  0.5951  0.0075
  510TIP3    H2 1537   4.123   0.834   4.776 -0.2404 -0.1394 -0.4694
  511TIP3   OH2 1538   4.729   0.360   0.715  0.5190  0.3202 -0.4025
  511TIP3    H1 1539   4.803   0.319   0.759 -0.8261 -0.5278  1.2021
  511TIP3    H2 1540   4.719   0.445   0.758  1.0276  0.7758 -1.1658
  512TIP3   OH2 1541   1.165   3.629   0.202 -0.3937  0.1670  0.4485
  512TIP3    H1 1542   1.183   3.708   0.151 -0.5920  0.7394  1.2492
  512TIP3    H2 1543   1.144   3.562   0.137  1.7930  0.1984 -0.3827
  513TIP3   OH2 1544   3.663   0.039   2.604  0.3463 -0.0684  0.6712
  513TIP3    H1 1545   3.665   0.075   2.693 -2.4537  1.3181  0.2920
  513TIP3    H2 1546   3.571   0.014   2.591  0.9936 -1.6212 -1.3334
  514TIP3   OH2 1547   4.928   3.930   2.044 -0.1367  0.7556 -0.0743
  514TIP3    H1 1548   4.900   3.911   1.955 -1.2936  0.0191  0.4072
  514TIP3    H2 1549   5.023   3.929   2.041 -0.1362  2.1575 -1.5690
  515TIP3   OH2 1550   0.368   5.819   2.021 -0.3473  0.1216  0.5978
  515TIP3    H1 1551   0.364   5.763   2.098 -0.2228  0.2259  0.6815
  515TIP3    H2 1552   0.451   5.798   1.980 -0.7614 -0.4915  0.0606
  516TIP3   OH2 1553   0.355   2.819   0.410  0.0684 -0.5849 -0.4143
  516TIP3    H1 1554   0.381   2.790   0.497  0.4936  1.8852  0.3603
  516TIP3    H2 1555   0.361   2.915   0.414 -0.0931 -0.3991 -3.1108
  517TIP3   OH2 1556   2.440   1.346   1.935 -0.4557 -0.2398  0.1902
  517TIP3    H1 1557   2.356   1.390   1.953 -0.3981 -0.3993  0.8679
  517TIP3    H2 1558   2.487   1.407   1.879 -0.7921  0.1065  0.2791
  518TIP3   OH2 1559   3.511   5.512   2.917 -0.1447  0.2350  0.3619
  518TIP3    H1 1560   3.448   5.561   2.864  0.9891 -0.0944 -1.3425
  518TIP3    H2 1561   3.457   5.451   2.966 -1.1419 -0.7262 -1.7964
  519TIP3   OH2 1562   4.137   1.158   4.537  0.7952  0.3027 -0.3016
  519TIP3    H1 1563   4.190   1.087   4.501 -1.0037 -1.4481  0.2894
  519TIP3    H2 1564   4.068   1.172   4.473 -1.1564 -1.3203  1.3005
  520TIP3   OH2 1565   2.503   0.369   3.801 -0.3539  0.0038 -0.9568
  520TIP3    H1 1566   2.499   0.446   3.858 -3.5178 -1.5115  1.2123
  520TIP3    H2 1567   2.411   0.343   3.790  0.5757 -4.3467 -0.1498
  521TIP3   OH2 1568   5.682   4.655   1.917  0.1100 -0.3455  0.1153
  521TIP3    H1 1569   5.654   4.655   2.009 -0.5815 -0.3461 -0.0913
  521TIP3    H2 1570   5.617   4.709   1.872  0.9844  0.4424 -0.2208
  522TIP3   OH2 1571   3.923   2.518   1.302 -0.2326  0.0845  0.3491
  522TIP3    H1 1572   4.001   2.550   1.257 -1.0737  2.4993  0.4689
  522TIP3    H2 1573   3.851   2.535   1.242 -0.6502 -3.2645 -0.2969
  523TIP3   OH2 1574   2.415   0.036   3.124  0.5688  0.6870 -0.3693
  523TIP3    H1 1575   2.472   0.079   3.059  0.0329  0.6799 -0.8492
  523TIP3    H2 1576   2.458  -0.048   3.141  2.9414  2.2968  2.3667
  524TIP3   OH2 1577   1.655   3.406   0.476  0.5019  0.0666  0.3336
  524TIP3    H1 1578   1.698   3.331   0.518 -1.2586  0.2108  2.6246
  524TIP3    H2 1579   1.563   3.379   0.469 -0.4945  2.4230  2.5615
  525TIP3   OH2 1580   5.824   0.507   2.742 -0.4767 -0.3574 -0.6132
  525TIP3    H1 1581   5.767   0.463   2.805 -0.5675 -0.9285 -1.0819
  525TIP3    H2 1582   5.896   0.445   2.727  2.6243  1.9080  3.0878
  526TIP3   OH2 1583   5.097   2.371   1.277  0.2696 -0.3543  0.5806
  526TIP3    H1 1584   5.103   2.431   1.351  0.1325 -1.4618  1.5306
  526TIP3    H2 1585   5.084   2.285   1.317 -0.5343 -0.8919 -0.7631
  527TIP3   OH2 1586   0.064   0.225   4.900  0.3238 -0.2923  0.0850
  527TIP3    H1 1587   0.128   0.158   4.923  1.7189  1.4650  1.6792
  527TIP3    H2 1588   0.008   0.231   4.977 -0.8791 -0.7819 -0.7253
  528TIP3   OH2 1589   4.525   5.113   3.079  0.1236  0.5723  0.0385
  528TIP3    H1 1590   4.536   5.042   3.016  0.9310 -0.6108  1.4525
  528TIP3    H2 1591   4.437   5.147   3.061  0.3706  0.3780 -1.7901
  529TIP3   OH2 1592   0.713   0.620   4.338 -0.3266 -0.3885  0.0789
  529TIP3    H1 1593   0.684   0.665   4.259 -0.5553  0.4086  0.5965
  529TIP3    H2 1594   0.730   0.691   4.400  1.4960 -0.9009  0.2071
  530TIP3   OH2 1595   3.666  -0.015   2.038 -0.7320 -0.0081 -0.4951
  530TIP3    H1 1596   3.720   0.005   2.115  0.0808 -0.5510 -0.9038
  530TIP3    H2 1597   3.601   0.054   2.036 -0.1473  0.5838  0.1112
  531TIP3   OH2 1598   0.113   1.061   0.137 -0.9951  0.0887 -0.4947
  531TIP3    H1 1599   0.039   1.043   0.079  0.4585 -2.1914 -1.7980
  531TIP3    H2 1600   0.080   1.042   0.225 -1.6876 -2.0501 -1.1626
  532TIP3   OH2 1601   5.860   1.238   4.726  0.0681  0.4466  0.3720
  532TIP3    H1 1602   5.803   1.215   4.800  0.1157 -0.3235  0.1820
  532TIP3    H2 1603   5.806   1.223   4.649  0.3821  0.1597  0.2091
  533TIP3   OH2 1604   0.456   3.466   3.089 -0.2182 -0.4436  0.1650
  533TIP3    H1 1605   0.449   3.467   2.993 -0.5351 -1.2468  0.1684
  533TIP3    H2 1606   0.500   3.383   3.108  0.0040 -0.2009  0.7060
  534TIP3   OH2 1607   0.322   1.522   1.404 -0.2493 -0.0652  0.5048
  534TIP3    H1 1608   0.376   1.584   1.452 -1.1189  1.3890 -0.3183
  534TIP3    H2 1609   0.357   1.525   1.314 -1.0835  0.1829  0.1826
  535TIP3   OH2 1610   0.842   0.081   2.036  0.1095  0.2501  0.0201
  535TIP3    H1 1611   0.927   0.039   2.052 -0.7689 -1.8331 -0.3825
  535TIP3    H2 1612   0.862   0.158   1.983  1.6222 -1.1694 -1.5995
  536TIP3   OH2 1613   5.727   2.402   4.951  0.4278  0.0696 -0.2347
  536TIP3    H1 1614   5.778   2.339   4.901  0.1152 -0.8219  0.5333
  536TIP3    H2 1615   5.746   2.381   5.043  0.2192  1.0189  0.0430
  537TIP3   OH2 1616   0.458   3.383   3.692  0.2134 -0.8590  0.2515
  537TIP3    H1 1617   0.363   3.390   3.702  0.2810 -0.3796  0.5839
  537TIP3    H2 1618   0.482   3.305   3.742 -0.2470 -2.1381 -1.4606
  538TIP3   OH2 1619   1.456   2.541   1.379  0.4082  0.2325  0.0947
  538TIP3    H1 1620   1.495   2.491   1.307  0.2880 -0.3561  0.4305
  538TIP3    H2 1621   1.471   2.633   1.355  0.5325  0.0432 -0.5896
  539TIP3   OH2 1622   0.016   3.799   1.898 -0.0861 -0.1617 -0.0850
  539TIP3    H1 1623   0.037   3.798   1.805 -0.5400  0.1442 -0.1932
  539TIP3    H2 1624   0.082   3.742   1.938 -0.6550 -1.3365 -0.7535
  540TIP3   OH2 1625   0.252   2.287   3.331  0.1630 -0.3060 -0.1165
  540TIP3    H1 1626   0.170   2.237   3.334 -0.1516  0.2305  1.2536
  540TIP3    H2 1627   0.287   2.272   3.244  0.0007 -2.7672  0.1906
  541TIP3   OH2 1628   6.285   5.353   4.048  0.9152  0.5261 -0.0131
  541TIP3    H1 1629   6.328   5.299   3.982 -0.0989 -1.4217  0.8524
  541TIP3    H2 1630   6.344   5.348   4.124  0.4071 -0.0911  0.3480
  542TIP3   OH2 1631   4.664   3.174   1.995 -0.5386 -0.3674  0.1391
  542TIP3    H1 1632   4.572   3.145   2.001 -0.7609  0.2932 -0.0628
  542TIP3    H2 1633   4.703   3.143   2.077 -1.0484 -0.2824  0.4246
  543TIP3   OH2 1634   2.132   0.613   3.465  0.1840  0.0657 -0.1498
  543TIP3    H1 1635   2.128   0.619   3.560 -0.3196  2.4121 -0.2574
  543TIP3    H2 1636   2.052   0.657   3.435  0.7740  0.1478 -1.6871
  544TIP3   OH2 1637   4.400   1.870   1.027  0.4878 -0.1835  0.2085
  544TIP3    H1 1638   4.355   1.811   0.967  2.0891  0.3692 -1.6465
  544TIP3    H2 1639   4.336   1.937   1.049 -0.6076 -1.2745  0.4217
  545TIP3   OH2 1640   1.151   0.024   1.520  0.1793 -0.0253 -0.2147
  545TIP3    H1 1641   1.063   0.057   1.533 -1.1141 -2.3245 -2.2536
  545TIP3    H2 1642   1.171   0.042   1.428  1.1514 -0.9559 -0.2166
  546TIP3   OH2 1643   3.079   5.751   1.343 -0.7790  0.2080 -0.5656
  546TIP3    H1 1644   3.047   5.729   1.255  1.4158  0.4356 -1.4938
  546TIP3    H2 1645   3.150   5.689   1.358 -0.7623  0.5432  0.8360
  547TIP3   OH2 1646   5.440   0.297   2.540  0.1704 -0.5519  0.2054
  547TIP3    H1 1647   5.462   0.204   2.548 -0.0712 -0.5660  0.8036
  547TIP3    H2 1648   5.421   0.310   2.447  2.8121 -0.5065 -0.4113
  548TIP3   OH2 1649   1.194   5.982   0.702 -0.2234  0.0410  0.2267
  548TIP3    H1 1650   1.111   5.983   0.654 -0.0070 -1.0304 -0.2075
  548TIP3    H2 1651   1.200   5.893   0.737  0.7897  0.0660  0.1567
  549TIP3   OH2 1652   6.150   0.456   1.598  0.4615  0.2165  0.0214
  549TIP3    H1 1653   6.070   0.504   1.579  0.7675  0.9750  0.5846
  549TIP3    H2 1654   6.216   0.496   1.542  0.4947 -0.2457 -0.2678
  550TIP3   OH2 1655   5.477   5.343   3.690  0.2028 -0.0547 -0.2399
  550TIP3    H1 1656   5.392   5.366   3.652  0.0039  0.0179  0.2412
  550TIP3    H2 1657   5.487   5.402   3.765  0.0764 -0.9381  0.4935
  551TIP3   OH2 1658   5.290   3.147   0.431 -0.2026  0.0086  0.0292
  551TIP3    H1 1659   5.365   3.096   0.401 -0.3464 -1.0813  1.4366
  551TIP3    H2 1660   5.217   3.085   0.427 -0.6537  0.5067  0.4571
  552TIP3   OH2 1661   1.577   2.790   1.781 -0.5844 -0.3509  0.0722
  552TIP3    H1 1662   1.620   2.789   1.695  0.2737 -1.5777  0.4879
  552TIP3    H2 1663   1.603   2.874   1.819 -0.5715 -0.0115 -0.6690
  553TIP3   OH2 1664   6.241   5.206   2.100 -0.1346  0.4440 -0.1747
  553TIP3    H1 1665   6.162   5.251   2.132 -1.2672 -1.1767 -0.5427
  553TIP3    H2 1666   6.229   5.115   2.128  0.0572 -0.5265 -2.9470
  554TIP3   OH2 1667   1.837   1.132   1.873  0.2541  0.1603 -0.2846
  554TIP3    H1 1668   1.844   1.102   1.782 -0.1649  0.4096 -0.4021
  554TIP3    H2 1669   1.910   1.193   1.884  0.1621  0.3145 -0.5274
  555TIP3   OH2 1670   3.723   4.962   4.197 -0.2887  0.1077  0.0662
  555TIP3    H1 1671   3.805   5.004   4.170  0.6279 -0.2139  2.1818
  555TIP3    H2 1672   3.729   4.873   4.161 -0.7870  0.7226 -1.6828
  556TIP3   OH2 1673   0.546   3.340   3.425  0.3751  0.0779 -0.0255
  556TIP3    H1 1674   0.603   3.264   3.413  1.5282  0.9109  0.0376
  556TIP3    H2 1675   0.526   3.342   3.518 -1.0808 -1.1173 -0.2751
  557TIP3   OH2 1676   5.978   1.246   1.172 -0.6464  0.1732 -0.1382
  557TIP3    H1 1677   5.952   1.336   1.189  1.5177  0.5627  1.5059
  557TIP3    H2 1678   5.902   1.194   1.196 -1.6304  1.4957 -0.2965
  558TIP3   OH2 1679   4.034   5.650   4.959  0.3795 -0.4677 -0.4050
  558TIP3    H1 1680   4.012   5.744   4.954  1.0488 -0.3479 -1.2926
  558TIP3    H2 1681   3.950   5.607   4.974 -0.0602  0.2135 -0.8504
  559TIP3   OH2 1682   2.892   1.945   2.159 -0.0664 -0.1907  0.4881
  559TIP3    H1 1683   2.945   2.013   2.200 -0.0195 -0.4409  0.8461
  559TIP3    H2 1684   2.833   1.992   2.101  1.7489 -0.0058 -1.3171
  560TIP3   OH2 1685   0.236   0.764   2.529 -0.2168  0.0451 -0.0128
  560TIP3    H1 1686   0.321   0.803   2.508 -0.3795  0.3983 -0.0149
  560TIP3    H2 1687   0.185   0.836   2.566 -0.3678 -0.2694  0.3985
  561TIP3   OH2 1688   5.444   4.366   0.473  0.1554  0.0753  0.3799
  561TIP3    H1 1689   5.519   4.400   0.423  0.9863 -1.0070  0.8321
  561TIP3    H2 1690   5.452   4.271   0.465 -2.0533 -0.0811 -0.7975
  562TIP3   OH2 1691   5.212   3.606   4.267 -0.2287 -0.0507  0.4650
  562TIP3    H1 1692   5.179   3.539   4.207 -0.8144 -0.6541  1.4439
  562TIP3    H2 1693   5.263   3.557   4.332 -0.1160  0.5315  0.8241
  563TIP3   OH2 1694   3.761   2.569   4.909  0.1043  0.1707 -0.1854
  563TIP3    H1 1695   3.742   2.662   4.914  0.2255  0.1899 -0.0707
  563TIP3    H2 1696   3.834   2.563   4.847  0.1303  0.1585 -0.1544
  564TIP3   OH2 1697   4.924   0.056   3.012 -0.1640  0.7631  0.0739
  564TIP3    H1 1698   4.896  -0.035   3.024  2.0721  0.1734  1.5646
  564TIP3    H2 1699   4.907   0.075   2.920  2.2052 -2.3147 -1.1809
  565TIP3   OH2 1700   1.519   4.388   0.874 -0.2220 -0.4100  0.2285
  565TIP3    H1 1701   1.565   4.305   0.864  3.3473  1.4332 -0.1009
  565TIP3    H2 1702   1.537   4.415   0.963 -1.8136 -0.1706  0.5115
  566TIP3   OH2 1703   3.717   4.336   2.046 -0.2224 -0.6886 -0.2642
  566TIP3    H1 1704   3.809   4.312   2.052  0.1433 -0.1961 -2.9222
  566TIP3    H2 1705   3.705   4.402   2.115  1.1348 -1.4914  0.7806
  567TIP3   OH2 1706   0.524   3.257   1.320  0.3361  0.0510 -0.1257
  567TIP3    H1 1707   0.505   3.164   1.311  0.8922  0.0022 -0.8011
  567TIP3    H2 1708   0.619   3.263   1.322  0.3062  0.4561  1.6093
  568TIP3   OH2 1709   4.997   4.168   4.966  0.3923  0.2502 -0.2455
  568TIP3    H1 1710   4.938   4.116   4.912  0.4586 -0.4795  0.3816
  568TIP3    H2 1711   5.081   4.166   4.920  0.4607 -0.4110 -0.0987
  569TIP3   OH2 1712   1.631   2.397   4.735  0.2645 -0.1504  0.0739
  569TIP3    H1 1713   1.681   2.475   4.757  1.9707 -1.5017  1.2326
  569TIP3    H2 1714   1.604   2.360   4.819 -2.3306  0.2479 -0.4998
  570TIP3   OH2 1715   5.086   4.052   1.566  1.0075  0.0373 -0.0315
  570TIP3    H1 1716   5.123   3.969   1.595  2.4204  0.2156 -1.1855
  570TIP3    H2 1717   5.047   4.033   1.481  0.2560  0.2967  0.2509
  571TIP3   OH2 1718   0.372   4.014   4.295 -0.4227 -0.2213 -0.0421
  571TIP3    H1 1719   0.304   3.947   4.289 -0.6455  0.0864 -1.0346
  571TIP3    H2 1720   0.454   3.967   4.278 -0.6527 -0.1142 -1.5380
  572TIP3   OH2 1721   2.315   1.307   1.056 -0.0749 -0.4050  0.0555
  572TIP3    H1 1722   2.252   1.298   1.126  0.1768  0.1524  0.3671
  572TIP3    H2 1723   2.267   1.285   0.976 -0.1463 -1.8279  0.4763
  573TIP3   OH2 1724   6.166   3.981   2.784 -0.2906  0.7364  0.1468
  573TIP3    H1 1725   6.118   3.907   2.820 -1.8079  1.5934 -0.0420
  573TIP3    H2 1726   6.226   3.942   2.721  0.9760 -0.5871  2.0654
  574TIP3   OH2 1727   5.718   4.742   3.591  0.2295  0.4109 -0.7828
  574TIP3    H1 1728   5.794   4.755   3.534  1.7144  0.3842  1.1090
  574TIP3    H2 1729   5.753   4.705   3.672 -2.1158 -2.0270 -0.7085
  575TIP3   OH2 1730   1.088   3.701   0.460 -0.0278 -0.0564 -0.3260
  575TIP3    H1 1731   1.151   3.691   0.388  0.4110 -0.0460  0.0598
  575TIP3    H2 1732   1.042   3.617   0.463  0.1981 -0.1818 -0.3865
  576TIP3   OH2 1733   0.533   4.556   0.558  0.3870 -0.2616 -0.7775
  576TIP3    H1 1734   0.572   4.503   0.627  1.2969 -1.9557 -2.4757
  576TIP3    H2 1735   0.441   4.530   0.556  0.4133 -0.3905 -0.3660
  577TIP3   OH2 1736   0.687   1.825   1.218  0.4278 -0.4298 -0.1698
  577TIP3    H1 1737   0.726   1.812   1.132 -0.1378 -0.3019 -0.4470
  577TIP3    H2 1738   0.703   1.742   1.263  1.2893 -0.2743 -0.1627
  578TIP3   OH2 1739   1.107   4.822   4.138 -0.0793  0.1396  0.3424
  578TIP3    H1 1740   1.180   4.827   4.076 -1.2706  1.2401 -1.0690
  578TIP3    H2 1741   1.102   4.730   4.162  1.5922  0.0018  0.2822
  579TIP3   OH2 1742   0.479   3.711   0.634 -0.2908  0.8769  0.4672
  579TIP3    H1 1743   0.509   3.755   0.554 -0.3588  1.4560  0.7565
  579TIP3    H2 1744   0.414   3.648   0.603  2.0385 -1.3055 -0.3337
  580TIP3   OH2 1745   1.972   5.500   2.084 -0.0984 -0.0970 -0.4305
  580TIP3    H1 1746   1.929   5.580   2.055 -1.5529 -1.0038 -0.8762
  580TIP3    H2 1747   1.922   5.430   2.043  0.3954 -1.2759  0.9104
  581TIP3   OH2 1748   3.428   3.500   2.874 -0.6704  0.3345  0.1162
  581TIP3    H1 1749   3.514   3.540   2.881 -0.1504 -0.8625  0.9782
  581TIP3    H2 1750   3.370   3.556   2.926 -0.3200  0.8652 -0.0603
  582TIP3   OH2 1751   6.067   3.297   4.298 -0.0848  0.0532 -0.2371
  582TIP3    H1 1752   6.080   3.392   4.298  0.4854 -0.0094  0.5552
  582TIP3    H2 1753   5.976   3.285   4.323  0.1141  0.3796  0.6807
  583TIP3   OH2 1754   3.637   5.677   1.792  0.1903 -0.0846 -0.1370
  583TIP3    H1 1755   3.726   5.698   1.821  0.5808 -0.0664 -1.2891
  583TIP3    H2 1756   3.618   5.593   1.834  0.6285  0.0561  0.3617
  584TIP3   OH2 1757   3.744   5.537   2.731  0.2370 -0.1789  0.4293
  584TIP3    H1 1758   3.648   5.542   2.732  0.1300 -0.8126 -1.6459
  584TIP3    H2 1759   3.765   5.470   2.796 -0.9527 -1.8800 -0.8377
  585TIP3   OH2 1760   1.827   0.526   2.002 -0.4923  0.4388  0.1025
  585TIP3    H1 1761   1.735   0.548   1.986 -0.0508  1.2726 -1.4954
  585TIP3    H2 1762   1.831   0.431   1.993 -1.2206  0.3799  0.3446
  586TIP3   OH2 1763   1.024   3.070   4.890  0.1612  0.1345 -0.1575
  586TIP3    H1 1764   0.945   3.055   4.941 -0.2275  0.6113 -0.6125
  586TIP3    H2 1765   1.015   3.160   4.857  1.0497  0.3140  0.0671
  587TIP3   OH2 1766   0.562   0.188   3.521  0.2375 -0.0176 -0.4514
  587TIP3    H1 1767   0.507   0.159   3.449  1.2350 -1.0985 -0.8133
  587TIP3    H2 1768   0.566   0.283   3.511  1.7122 -0.2438 -2.8945
  588TIP3   OH2 1769   4.341   5.553   0.811 -0.1755 -0.4497  0.2300
  588TIP3    H1 1770   4.305   5.482   0.759  0.6950 -0.6480 -0.1219
  588TIP3    H2 1771   4.306   5.633   0.770  0.7541 -0.5866 -0.8983
  589TIP3   OH2 1772   0.544   1.742   1.947  0.3727  0.5505  0.2867
  589TIP3    H1 1773   0.536   1.671   2.011 -0.1961  2.7256  2.8025
  589TIP3    H2 1774   0.628   1.725   1.903 -0.1400 -2.0802  0.1667
  590TIP3   OH2 1775   2.192   3.413   2.450 -0.2291  0.4933 -0.0318
  590TIP3    H1 1776   2.203   3.505   2.427 -0.2802  0.0203 -2.0984
  590TIP3    H2 1777   2.278   3.373   2.435 -0.2819  0.1405  0.5671
  591TIP3   OH2 1778   4.568   0.260   3.577  0.9285 -0.2635  0.5624
  591TIP3    H1 1779   4.596   0.342   3.537  1.7043 -0.4191  0.7589
  591TIP3    H2 1780   4.561   0.199   3.504  0.8220 -0.1424  0.4716
  592TIP3   OH2 1781   1.649   5.455   0.967  0.1215  0.1760 -0.4523
  592TIP3    H1 1782   1.686   5.527   0.916 -0.3595  0.5822 -0.2323
  592TIP3    H2 1783   1.697   5.377   0.936  1.0335  0.6598 -0.2959
  593TIP3   OH2 1784   4.313   0.763   2.800  0.3313 -0.2753  0.3179
  593TIP3    H1 1785   4.275   0.703   2.865 -1.6164  1.3590  0.7983
  593TIP3    H2 1786   4.407   0.747   2.805  0.2860 -0.3110  3.5141
  594TIP3   OH2 1787   2.749   4.253   2.551 -0.2463  0.4823  0.5316
  594TIP3    H1 1788   2.736   4.158   2.560 -0.4778  0.3622 -0.9188
  594TIP3    H2 1789   2.829   4.271   2.600  0.7358 -0.7470 -0.5531
  595TIP3   OH2 1790   5.448   5.110   3.876 -0.3053  0.0750 -0.0526
  595TIP3    H1 1791   5.380   5.138   3.937 -1.1088 -1.2112 -0.3196
  595TIP3    H2 1792   5.524   5.163   3.899 -1.1051  0.8512  0.8994
  596TIP3   OH2 1793   6.179   2.949   3.985  0.1335 -0.1445  0.1372
  596TIP3    H1 1794   6.155   3.042   3.993 -2.0754 -0.3934 -2.1378
  596TIP3    H2 1795   6.239   2.946   3.910 -1.2798 -0.6778 -1.0289
  597TIP3   OH2 1796   1.935   2.902   3.122 -0.5168 -0.5769  0.6616
  597TIP3    H1 1797   1.909   2.908   3.214  2.5787  0.9556  1.5792
  597TIP3    H2 1798   1.924   2.992   3.089  1.4773 -0.3460  0.5354
  598TIP3   OH2 1799   3.309   4.138   2.016 -0.1941 -0.9317 -0.0692
  598TIP3    H1 1800   3.220   4.170   2.004  0.2070  0.5406  0.6193
  598TIP3    H2 1801   3.363   4.198   1.964  0.3172 -2.5554 -1.5065
  599TIP3   OH2 1802   3.428   3.276   2.044 -1.1321  0.3909  0.2970
  599TIP3    H1 1803   3.346   3.310   2.081 -1.8281 -2.5813  1.7868
  599TIP3    H2 1804   3.406   3.187   2.017  1.8253 -0.8792  1.6859
  600TIP3   OH2 1805   5.147   5.438   2.385 -0.2406  0.4340 -0.2643
  600TIP3    H1 1806   5.105   5.467   2.304  0.6848 -1.6802 -1.5910
  600TIP3    H2 1807   5.074   5.406   2.440 -0.7643  0.8245 -0.7238
  601TIP3   OH2 1808   2.663   1.378   1.146  0.4706 -0.3619 -0.0483
  601TIP3    H1 1809   2.576   1.375   1.185  0.0958  0.4802 -0.8001
  601TIP3    H2 1810   2.718   1.419   1.213  0.2733 -0.7721  0.3731
  602TIP3   OH2 1811   4.565   0.072   4.351 -0.1723  0.4558  0.4485
  602TIP3    H1 1812   4.558   0.089   4.444  0.2959 -0.7398  0.7294
  602TIP3    H2 1813   4.487   0.020   4.330  0.0986  0.0851  0.3430
  603TIP3   OH2 1814   0.140   2.677   2.468 -0.2438  0.2678 -0.0823
  603TIP3    H1 1815   0.110   2.596   2.426 -0.6112  0.3411  0.0338
  603TIP3    H2 1816   0.233   2.681   2.449  0.2575 -1.3134  1.7788
  604TIP3   OH2 1817   4.148   3.636   0.033 -0.7304 -0.0554  0.0124
  604TIP3    H1 1818   4.122   3.727   0.015  0.1137  0.3629  0.8428
  604TIP3    H2 1819   4.224   3.621  -0.022 -0.0988  0.1699  0.8062
  605TIP3   OH2 1820   4.034   5.093   4.464  0.1344  0.3530 -0.4185
  605TIP3    H1 1821   3.949   5.049   4.471  1.1838 -1.4535  2.9455
  605TIP3    H2 1822   4.024   5.172   4.516  0.2495  0.7103 -0.9272
  606TIP3   OH2 1823   1.607   1.300   2.918 -0.8010  0.2256  0.0309
  606TIP3    H1 1824   1.567   1.345   2.992  0.4350  1.7429 -0.1723
  606TIP3    H2 1825   1.664   1.234   2.958 -0.3592  0.8388  0.4163
  607TIP3   OH2 1826   4.425   2.356   2.956 -0.1579 -0.6613  0.6554
  607TIP3    H1 1827   4.351   2.297   2.969  0.1931 -1.5581 -1.0944
  607TIP3    H2 1828   4.448   2.345   2.864  2.8866 -1.3382  1.3751
  608TIP3   OH2 1829   0.256   0.515   2.582 -0.0309  0.4327  0.1874
  608TIP3    H1 1830   0.329   0.526   2.643 -0.2858  0.9628  0.4003
  608TIP3    H2 1831   0.231   0.605   2.558  0.1709  0.2395 -0.8205
  609TIP3   OH2 1832   0.917   0.259   1.846 -0.1050  0.1629  0.1134
  609TIP3    H1 1833   0.952   0.348   1.854 -0.2175  0.5589 -2.7846
  609TIP3    H2 1834   0.993   0.205   1.824 -0.5210  0.2085 -1.5772
  610TIP3   OH2 1835   1.155   3.740   3.842  0.0752 -0.2710 -0.1937
  610TIP3    H1 1836   1.141   3.685   3.918 -0.9537 -0.7381 -0.7037
  610TIP3    H2 1837   1.206   3.815   3.875  0.6598 -1.0364  0.6904
  611TIP3   OH2 1838   4.219   4.279   3.820  0.2985  0.2111 -0.3625
  611TIP3    H1 1839   4.220   4.371   3.794 -0.4789  0.5403  0.7220
  611TIP3    H2 1840   4.211   4.281   3.915  0.4626 -0.9810 -0.3115
  612TIP3   OH2 1841   3.110   4.199   3.179  0.0705  0.2230  0.3518
  612TIP3    H1 1842   3.143   4.165   3.095 -0.2560  4.7404 -1.9330
  612TIP3    H2 1843   3.015   4.194   3.171 -0.0443  2.5570 -0.6575
  613TIP3   OH2 1844   3.209   3.466   1.050  0.4463 -0.0634 -0.1164
  613TIP3    H1 1845   3.146   3.521   1.096  0.0932  0.0492 -0.7311
  613TIP3    H2 1846   3.263   3.429   1.120 -0.2288 -0.0813  0.4124
  614TIP3   OH2 1847   1.005   0.144   5.033  0.0453 -0.2710 -0.3714
  614TIP3    H1 1848   0.973   0.141   5.123  1.0379 -1.4791 -0.0254
  614TIP3    H2 1849   1.100   0.135   5.042  0.3471  1.4471 -1.4532
  615TIP3   OH2 1850   1.886   3.902   2.468 -0.8229  0.1327 -0.0911
  615TIP3    H1 1851   1.876   3.868   2.557 -2.2944 -4.1369 -1.6423
  615TIP3    H2 1852   1.941   3.980   2.478 -0.6941 -0.2925  4.4601
  616TIP3   OH2 1853   2.918   2.472   3.003 -0.2762  0.1314  0.5729
  616TIP3    H1 1854   2.943   2.479   2.911 -0.8809  1.6843  0.5020
  616TIP3    H2 1855   2.837   2.421   3.002  0.4569 -1.0541  0.3888
  617TIP3   OH2 1856   2.732   1.977   4.848  0.3393 -0.2401  0.0243
  617TIP3    H1 1857   2.755   2.037   4.919 -0.3009  1.6328 -1.2649
  617TIP3    H2 1858   2.804   1.914   4.845  1.5710  1.0762  0.7735
  618TIP3   OH2 1859   3.164   1.946   2.046 -0.1262  0.6122  0.3929
  618TIP3    H1 1860   3.071   1.945   2.069 -0.6918 -4.5287 -0.9545
  618TIP3    H2 1861   3.208   1.909   2.122  0.1695 -0.9536 -0.4970
  619TIP3   OH2 1862   2.375   5.424   0.322  0.0987 -0.3088 -0.2057
  619TIP3    H1 1863   2.372   5.503   0.375  1.2115 -1.3132  1.4694
  619TIP3    H2 1864   2.441   5.443   0.256  0.1532  0.2619  0.0036
  620TIP3   OH2 1865   2.469   1.637   1.123  0.2663 -0.3526  0.5959
  620TIP3    H1 1866   2.397   1.584   1.157 -0.5510 -0.8893 -1.7471
  620TIP3    H2 1867   2.427   1.703   1.068  1.5064 -0.1655 -0.1757
  621TIP3   OH2 1868   5.156   5.915   2.974  0.0959 -0.0380  0.1727
  621TIP3    H1 1869   5.206   5.917   3.056 -0.7549 -0.2389  0.7159
  621TIP3    H2 1870   5.103   5.836   2.981 -0.2207  0.1166 -0.4362
  622TIP3   OH2 1871   3.106   4.493   3.071 -0.4920 -0.6781  0.5049
  622TIP3    H1 1872   3.046   4.540   3.130 -0.9910 -0.2421 -0.3354
  622TIP3    H2 1873   3.120   4.408   3.114 -0.8605 -0.3787  1.2370
  623TIP3   OH2 1874   3.719   2.307   2.003 -0.1189  0.3497  0.4406
  623TIP3    H1 1875   3.725   2.213   1.990  0.4878  0.1515  2.0087
  623TIP3    H2 1876   3.807   2.333   2.031  0.3692  1.7673 -2.0951
  624TIP3   OH2 1877   4.027   1.234   1.442  0.1362  0.5460  0.0189
  624TIP3    H1 1878   4.058   1.154   1.398  0.0658  0.5553 -0.0493
  624TIP3    H2 1879   4.003   1.206   1.530  0.8270  0.6393  0.2384
  625TIP3   OH2 1880   3.990   0.984   4.042  0.1826 -0.5772 -0.0043
  625TIP3    H1 1881   4.008   0.974   4.135 -0.7763  0.1969  0.2884
  625TIP3    H2 1882   3.899   0.956   4.032 -0.5318  1.6215 -0.2371
  626TIP3   OH2 1883   2.812   4.868   4.748 -0.1141 -0.0039 -0.3156
  626TIP3    H1 1884   2.737   4.825   4.789  0.5209 -0.7537  0.0885
  626TIP3    H2 1885   2.775   4.919   4.677 -1.1867  0.8846  0.8288
  627TIP3   OH2 1886   4.583   4.365   3.454  0.1443 -0.1155  0.3275
  627TIP3    H1 1887   4.564   4.448   3.409  2.6720 -0.3039 -1.2855
  627TIP3    H2 1888   4.596   4.391   3.546 -1.2351  0.8854  0.2850
  628TIP3   OH2 1889   0.648   3.382   4.781 -0.3620  0.8584  0.1897
  628TIP3    H1 1890   0.586   3.455   4.782  1.3070  2.3555 -0.0830
  628TIP3    H2 1891   0.687   3.386   4.693  0.4717  0.2804  0.5230
  629TIP3   OH2 1892   3.561   3.746   0.460  0.1154 -0.3700 -0.1912
  629TIP3    H1 1893   3.539   3.713   0.373 -1.9707 -1.3246  0.6212
  629TIP3    H2 1894   3.612   3.676   0.500 -0.6294 -0.8052  0.0222
  630TIP3   OH2 1895   5.266   0.581   2.429  1.2622  0.3277 -0.1495
  630TIP3    H1 1896   5.262   0.488   2.407 -2.4275  0.0023  1.1234
  630TIP3    H2 1897   5.304   0.583   2.517 -0.1667 -0.2147  0.5090
  631TIP3   OH2 1898   0.326   2.279   3.071 -0.6172 -0.0737  0.5671
  631TIP3    H1 1899   0.277   2.264   2.990 -1.3026 -0.2123  0.9986
  631TIP3    H2 1900   0.406   2.324   3.043 -0.9449  0.0700 -0.1572
  632TIP3   OH2 1901   1.889   3.486   0.055  0.1719 -0.3068 -0.2717
  632TIP3    H1 1902   1.830   3.553   0.022  1.0450  1.0164  0.7659
  632TIP3    H2 1903   1.960   3.534   0.098  0.4745 -1.8935  1.1285
  633TIP3   OH2 1904   2.972   3.948   0.166 -0.5703  0.4009  0.0208
  633TIP3    H1 1905   2.959   3.860   0.199  2.5353 -0.8522 -1.6503
  633TIP3    H2 1906   2.920   3.953   0.086 -1.2012  0.3136  0.4224
  634TIP3   OH2 1907   2.004   2.761   4.423 -0.1529 -0.2460 -0.5114
  634TIP3    H1 1908   2.088   2.801   4.399 -0.2486 -0.0585 -0.5390
  634TIP3    H2 1909   1.953   2.761   4.342 -1.8427  3.7025  0.2827
  635TIP3   OH2 1910   5.736   5.911   0.522  0.4553  0.7880 -0.2855
  635TIP3    H1 1911   5.736   5.899   0.427  1.4990 -0.3432 -0.1671
  635TIP3    H2 1912   5.740   5.822   0.558  0.1907  1.1976  0.8218
  636TIP3   OH2 1913   2.814   3.563   4.469  0.1870 -0.1999  0.4755
  636TIP3    H1 1914   2.822   3.584   4.562 -0.6601 -1.7026  0.9237
  636TIP3    H2 1915   2.722   3.540   4.458  0.1455  0.5236 -0.8790
  637TIP3   OH2 1916   1.188   4.431   0.486 -0.2315 -0.1724 -0.1847
  637TIP3    H1 1917   1.276   4.445   0.520  0.8598  1.9683 -3.4344
  637TIP3    H2 1918   1.144   4.516   0.498 -1.9304 -1.2062  1.3837
  638TIP3   OH2 1919   0.502   3.511   1.478  0.1253  0.0433 -0.6050
  638TIP3    H1 1920   0.594   3.536   1.468 -0.0276  0.3179 -1.3746
  638TIP3    H2 1921   0.502   3.415   1.467  0.3271  0.0371 -0.5511
  639TIP3   OH2 1922   4.875   2.883   0.461  0.3919 -0.3710 -0.5932
  639TIP3    H1 1923   4.814   2.894   0.534  1.7474  1.0726  0.3859
  639TIP3    H2 1924   4.903   2.792   0.467  0.9506 -0.1178  1.1014
  640TIP3   OH2 1925   1.736   0.282   0.474  0.1666  0.4675  0.0116
  640TIP3    H1 1926   1.747   0.234   0.392 -3.2639 -2.2877  0.9313
  640TIP3    H2 1927   1.661   0.340   0.457  0.0480  0.5915  0.9295
  641TIP3   OH2 1928   1.381   0.543   0.171 -0.0709 -0.1043 -0.1731
  641TIP3    H1 1929   1.355   0.613   0.232 -1.0411 -1.3232  0.8614
  641TIP3    H2 1930   1.307   0.536   0.110 -0.2826 -0.6570  0.1368
  642TIP3   OH2 1931   1.634   2.962   3.180  0.3104  0.1544 -0.1495
  642TIP3    H1 1932   1.689   2.945   3.257 -0.1383  1.0780  0.3925
  642TIP3    H2 1933   1.622   3.057   3.180 -0.2679  0.0909 -0.9711
  643TIP3   OH2 1934   4.012   5.414   0.915 -0.0434 -0.0941  0.3369
  643TIP3    H1 1935   4.011   5.504   0.947  1.8823  0.7426 -1.6536
  643TIP3    H2 1936   4.005   5.360   0.994  1.2342  1.8132  1.8460
  644TIP3   OH2 1937   0.319   4.359   2.328 -0.0025  0.1080 -0.7698
  644TIP3    H1 1938   0.233   4.392   2.353  0.6292  2.0787 -1.0208
  644TIP3    H2 1939   0.349   4.309   2.403 -1.1496 -0.1578 -0.4790
  645TIP3   OH2 1940   2.225   5.807   1.891 -0.3934 -0.2996 -0.1161
  645TIP3    H1 1941   2.197   5.873   1.954 -0.7861 -0.1857 -0.4103
  645TIP3    H2 1942   2.151   5.797   1.832  0.4797  0.6261 -1.4270
  646TIP3   OH2 1943   1.808   5.725   2.013 -0.0922 -0.4560  0.4380
  646TIP3    H1 1944   1.796   5.738   1.919 -0.7806 -0.2412  0.5485
  646TIP3    H2 1945   1.719   5.726   2.049  0.1126 -1.2955  0.9972
  647TIP3   OH2 1946   6.036   2.768   3.442 -0.2947  0.0484 -0.5888
  647TIP3    H1 1947   6.108   2.715   3.475  0.9783  1.0833 -1.5493
  647TIP3    H2 1948   5.959   2.738   3.490  1.0476  0.0271  1.7016
  648TIP3   OH2 1949   5.880   5.210   3.836 -0.0201 -0.0256  0.5304
  648TIP3    H1 1950   5.810   5.208   3.901 -1.6270 -0.4143 -1.1156
  648TIP3    H2 1951   5.903   5.118   3.823 -0.7855 -0.0873 -0.5102
  649TIP3   OH2 1952   4.117   3.554   0.662 -0.3227  0.1666  0.4568
  649TIP3    H1 1953   4.066   3.510   0.594  0.2528 -0.1046  0.1922
  649TIP3    H2 1954   4.207   3.525   0.647 -0.2107 -0.0802  1.4686
  650TIP3   OH2 1955   6.073   4.048   3.250  0.2644  0.2119  0.3658
  650TIP3    H1 1956   6.106   4.002   3.326 -0.0531  1.0943  1.0591
  650TIP3    H2 1957   6.131   4.022   3.178  2.8940  2.1510  1.6350
  651TIP3   OH2 1958   3.125   5.145   2.304  0.2930 -0.3099 -0.4987
  651TIP3    H1 1959   3.048   5.138   2.360  1.3430 -0.9307  0.9337
  651TIP3    H2 1960   3.125   5.062   2.255  1.3665 -1.4762  1.3398
  652TIP3   OH2 1961   3.223   2.991   2.149 -0.5099 -0.0994  0.1320
  652TIP3    H1 1962   3.260   2.924   2.206 -0.3547 -0.7125 -0.6879
  652TIP3    H2 1963   3.284   2.998   2.076 -1.2926 -0.1239 -0.5368
  653TIP3   OH2 1964   6.323   4.173   1.820 -0.3903  0.6713 -0.1998
  653TIP3    H1 1965   6.267   4.137   1.752 -0.4459  0.9415 -0.2966
  653TIP3    H2 1966   6.264   4.187   1.894  0.0484 -1.6588  0.6814
  654TIP3   OH2 1967   2.105   3.075   2.402  0.1454  0.2085  0.3459
  654TIP3    H1 1968   2.156   2.995   2.392 -1.4463 -0.7909 -0.2233
  654TIP3    H2 1969   2.170   3.145   2.406  1.5193 -0.7712 -2.3761
  655TIP3   OH2 1970   6.326   0.994   0.355  0.0132 -0.1134 -0.3009
  655TIP3    H1 1971   6.305   0.930   0.423 -0.1435  1.3878  1.1271
  655TIP3    H2 1972   6.254   0.987   0.292 -0.9486 -0.1121  0.7731
  656TIP3   OH2 1973   0.537   5.425   4.349 -0.3623 -0.2082  0.2176
  656TIP3    H1 1974   0.505   5.456   4.434 -0.7701  2.2113 -0.7336
  656TIP3    H2 1975   0.612   5.369   4.371 -0.0859  0.8131  2.1504
  657TIP3   OH2 1976   0.931   1.865   1.743 -0.2950  0.0611  0.2686
  657TIP3    H1 1977   1.024   1.888   1.739  0.1506 -1.8043 -1.4074
  657TIP3    H2 1978   0.930   1.770   1.753 -2.0247 -0.0245 -0.4035
  658TIP3   OH2 1979   0.894   5.224   0.394  1.0348  0.0285 -0.2581
  658TIP3    H1 1980   0.983   5.241   0.365  1.6676 -1.5964  0.5893
  658TIP3    H2 1981   0.896   5.240   0.489 -0.0956  1.8224 -0.4814
  659TIP3   OH2 1982   1.449   5.287   5.012  0.3497 -0.1081  0.1467
  659TIP3    H1 1983   1.356   5.275   5.033  0.7943 -0.4502  2.0430
  659TIP3    H2 1984   1.449   5.358   4.948 -1.3441 -1.4411 -1.4787
  660TIP3   OH2 1985   2.296   3.487   2.977  0.1172 -0.0529  0.2255
  660TIP3    H1 1986   2.304   3.468   3.071 -0.6554 -0.8680  0.1457
  660TIP3    H2 1987   2.259   3.407   2.940  2.1807 -0.4688 -1.0984
  661TIP3   OH2 1988   5.177   5.723   2.023  0.0381  0.1223  0.1700
  661TIP3    H1 1989   5.094   5.761   2.052  0.9874  0.9706  1.8919
  661TIP3    H2 1990   5.237   5.738   2.095  1.4850 -1.2615 -0.6855
  662TIP3   OH2 1991   4.219   3.236   2.880 -0.2194  0.0021  0.3057
  662TIP3    H1 1992   4.132   3.265   2.851  0.0663 -0.1743 -0.7965
  662TIP3    H2 1993   4.206   3.147   2.912 -0.0097 -1.2566 -2.7170
  663TIP3   OH2 1994   1.119   0.274   3.935  0.2311  0.3398 -0.4925
  663TIP3    H1 1995   1.156   0.252   4.020 -1.9139 -0.3854  0.3107
  663TIP3    H2 1996   1.061   0.348   3.953 -0.5603 -0.0882 -1.2301
  664TIP3   OH2 1997   3.986   3.584   5.090  0.0493 -0.2113 -0.4065
  664TIP3    H1 1998   3.913   3.582   5.152 -1.5025 -0.3026 -2.1614
  664TIP3    H2 1999   3.988   3.496   5.053  0.9318 -0.1434 -0.5400
  665TIP3   OH2 2000   4.310   0.403   2.701  0.1050 -0.2945  0.1933
  665TIP3    H1 2001   4.389   0.369   2.660  0.7903  0.8306  0.5421
  665TIP3    H2 2002   4.244   0.334   2.686  1.2095 -1.3888  0.1729
  666TIP3   OH2 2003   5.428   1.753   4.860 -0.2001 -0.3613 -0.0456
  666TIP3    H1 2004   5.333   1.747   4.866 -0.0836 -1.0439  1.7029
  666TIP3    H2 2005   5.448   1.841   4.893 -0.0925 -1.1499  2.1070
  667TIP3   OH2 2006   2.436   1.613   0.731 -0.6493  0.5789 -0.2044
  667TIP3    H1 2007   2.474   1.579   0.651  0.8213  0.7339  0.4027
  667TIP3    H2 2008   2.501   1.595   0.799 -1.3028  1.5746  0.7308
  668TIP3   OH2 2009   2.258   5.621   1.440  0.1190  0.7522 -0.4077
  668TIP3    H1 2010   2.218   5.553   1.495  1.6038 -0.4991 -0.7956
  668TIP3    H2 2011   2.342   5.640   1.482 -0.2514  2.3647 -0.3316
  669TIP3   OH2 2012   3.800   2.864   3.285 -0.0497 -0.0302  0.1757
  669TIP3    H1 2013   3.780   2.942   3.337 -1.2067  0.4224 -0.8951
  669TIP3    H2 2014   3.836   2.899   3.203 -0.8932 -0.5854 -0.4444
  670TIP3   OH2 2015   5.352   4.605   0.946 -0.4173  0.8308  0.3679
  670TIP3    H1 2016   5.376   4.570   0.860  0.6001  0.2805  0.8615
  670TIP3    H2 2017   5.322   4.694   0.927  1.9487  1.5420 -0.3297
  671TIP3   OH2 2018   5.780   2.777   1.629 -0.3466  0.6071  0.3735
  671TIP3    H1 2019   5.806   2.762   1.720  1.4802  1.9214  0.1256
  671TIP3    H2 2020   5.752   2.691   1.597  1.4957 -0.4341  1.4211
  672TIP3   OH2 2021   4.158   1.212   1.111  0.1486 -0.0211 -0.0470
  672TIP3    H1 2022   4.179   1.147   1.178 -0.9201  1.7900  2.1786
  672TIP3    H2 2023   4.214   1.287   1.131 -1.9167  1.4819  0.4481
  673TIP3   OH2 2024   1.769   0.443   3.708 -0.8155  0.2586 -0.0749
  673TIP3    H1 2025   1.831   0.509   3.677  0.3587 -1.2435 -1.1002
  673TIP3    H2 2026   1.699   0.444   3.643 -1.1704  0.9643  0.3044
  674TIP3   OH2 2027   4.943   3.713   1.390  0.0575 -0.8724 -0.3742
  674TIP3    H1 2028   4.912   3.799   1.362 -1.4660 -2.0505 -2.7100
  674TIP3    H2 2029   4.863   3.661   1.400  0.9977 -2.4934 -0.9040
  675TIP3   OH2 2030   4.553   0.785   3.920  0.0394 -0.2619  0.1464
  675TIP3    H1 2031   4.635   0.775   3.872 -0.4339 -1.8744 -0.3730
  675TIP3    H2 2032   4.544   0.704   3.970  0.3037  1.1625  2.7221
  676TIP3   OH2 2033   5.259   3.580   2.295  0.4073 -0.1399  0.2027
  676TIP3    H1 2034   5.327   3.557   2.232 -0.2715  0.4542 -0.7758
  676TIP3    H2 2035   5.182   3.531   2.265  0.1778 -0.1492  0.8038
  677TIP3   OH2 2036   2.583   5.957   0.765 -0.2591 -0.3874 -0.4486
  677TIP3    H1 2037   2.655   5.920   0.815 -0.7167  0.4885  0.9291
  677TIP3    H2 2038   2.573   5.899   0.689  0.6514 -1.5881  0.3232
  678TIP3   OH2 2039   0.274   4.568   4.352 -0.0085 -0.3645  0.0150
  678TIP3    H1 2040   0.313   4.488   4.317  0.7390 -0.3560  0.7834
  678TIP3    H2 2041   0.204   4.590   4.290  1.5599 -0.0783 -1.7494
  679TIP3   OH2 2042   6.230   0.551   2.569 -0.0531  0.1804  0.1520
  679TIP3    H1 2043   6.207   0.630   2.619 -1.8094  0.4758 -1.0173
  679TIP3    H2 2044   6.186   0.480   2.617 -0.2452  0.2204  0.0387
  680TIP3   OH2 2045   0.245   2.606   3.588 -0.0419 -0.4317 -0.0311
  680TIP3    H1 2046   0.239   2.633   3.679  0.1760  0.7471 -0.3502
  680TIP3    H2 2047   0.260   2.687   3.540  0.2152 -1.0834 -1.0791
  681TIP3   OH2 2048   5.135   0.479   2.003  0.1978 -0.7378 -0.2963
  681TIP3    H1 2049   5.105   0.540   2.070 -1.4940 -0.1867 -1.4951
  681TIP3    H2 2050   5.213   0.521   1.966  0.3416 -0.3989  0.3739
  682TIP3   OH2 2051   4.188   0.660   1.751  0.3037 -0.0850  0.6840
  682TIP3    H1 2052   4.218   0.582   1.705  2.3855  0.8711  0.3150
  682TIP3    H2 2053   4.112   0.690   1.702  0.3447 -1.0789 -0.0015
  683TIP3   OH2 2054   3.056   1.439   1.188 -0.0586  0.4317  0.3932
  683TIP3    H1 2055   3.060   1.368   1.124 -0.5140  1.8058 -1.2432
  683TIP3    H2 2056   2.968   1.434   1.225 -0.3048  0.5206 -0.1792
  684TIP3   OH2 2057   4.558   0.642   2.395  0.2370  0.2234  1.1116
  684TIP3    H1 2058   4.567   0.709   2.462 -0.5636  0.6369  0.8158
  684TIP3    H2 2059   4.475   0.599   2.415 -0.1933  0.5977  0.1816
  685TIP3   OH2 2060   3.253   5.584   2.501  0.0763 -0.2788 -0.4145
  685TIP3    H1 2061   3.324   5.554   2.445 -0.4201 -0.2677 -1.0600
  685TIP3    H2 2062   3.297   5.621   2.578  0.7198 -1.5084 -0.1745
  686TIP3   OH2 2063   0.816   2.871   0.025  0.9352 -0.2818 -0.3441
  686TIP3    H1 2064   0.854   2.784   0.034  0.9897 -0.2164  0.0818
  686TIP3    H2 2065   0.730   2.864   0.067  0.9983 -0.0943 -0.1811
  687TIP3   OH2 2066   2.933   3.213   4.692  0.2054 -0.4404 -0.3164
  687TIP3    H1 2067   2.940   3.190   4.785 -0.5447 -2.1655 -0.6551
  687TIP3    H2 2068   2.990   3.150   4.648 -1.0861 -1.0195 -1.2000
  688TIP3   OH2 2069   5.056   5.604   2.761 -0.1759 -0.2900  0.5391
  688TIP3    H1 2070   5.100   5.679   2.720  2.7587 -2.3792 -0.4547
  688TIP3    H2 2071   4.986   5.581   2.701 -0.3956  0.9394  0.2959
  689TIP3   OH2 2072   3.299   5.051   0.842 -0.2395  0.3745 -0.2289
  689TIP3    H1 2073   3.246   5.016   0.771 -0.6120  1.0991 -0.3138
  689TIP3    H2 2074   3.236   5.078   0.909 -0.0807  2.1078 -0.7167
  690TIP3   OH2 2075   2.474   2.642   4.312 -0.4814 -0.3397 -0.0409
  690TIP3    H1 2076   2.459   2.632   4.406  0.6331  1.4820  0.3908
  690TIP3    H2 2077   2.408   2.706   4.284 -0.0474  0.0277 -0.2374
  691TIP3   OH2 2078   0.931   3.804   2.070  0.0416 -0.4297 -0.2647
  691TIP3    H1 2079   1.026   3.798   2.055  0.1191 -2.2538  0.6069
  691TIP3    H2 2080   0.899   3.714   2.056 -1.4705  0.0294  0.0615
  692TIP3   OH2 2081   2.508   0.017   2.268  0.3990  0.1204 -0.0017
  692TIP3    H1 2082   2.443  -0.050   2.288 -0.4040  0.9499  0.1950
  692TIP3    H2 2083   2.461   0.083   2.218  0.9482  1.0008  0.6062
  693TIP3   OH2 2084   1.585   1.029   0.374  0.1198  0.0717  0.0027
  693TIP3    H1 2085   1.668   0.996   0.409 -0.0055 -0.2817 -0.0307
  693TIP3    H2 2086   1.592   1.124   0.383  0.2787  0.0118  0.5727
  694TIP3   OH2 2087   5.228   2.539   1.869 -0.2025 -0.0862  0.1821
  694TIP3    H1 2088   5.274   2.594   1.806 -1.4586 -0.2781 -0.9529
  694TIP3    H2 2089   5.224   2.591   1.949 -1.1084  1.3888 -0.7755
  695TIP3   OH2 2090   6.002   4.980   3.123  1.0254  1.0792  0.2988
  695TIP3    H1 2091   6.024   4.890   3.100 -0.8521  0.0732  2.0874
  695TIP3    H2 2092   6.016   5.030   3.042  1.1566 -0.9893 -1.0165
  696TIP3   OH2 2093   0.379   3.786   2.152  0.0345 -0.0459  0.1041
  696TIP3    H1 2094   0.387   3.864   2.207 -2.8858  1.5433 -1.4374
  696TIP3    H2 2095   0.405   3.817   2.065 -1.9374 -0.5123 -0.6919
  697TIP3   OH2 2096   2.073   1.601   3.077 -0.3694 -0.1980  0.0475
  697TIP3    H1 2097   2.020   1.669   3.117  0.5004  0.8444 -0.5294
  697TIP3    H2 2098   2.164   1.629   3.091 -0.0107 -0.9178 -0.7330
  698TIP3   OH2 2099   6.210   0.949   1.981  0.0871 -0.9157 -0.2991
  698TIP3    H1 2100   6.184   0.990   2.064  0.5000 -0.3572 -0.4371
  698TIP3    H2 2101   6.136   0.894   1.957 -1.3840  1.3186 -1.1484
  699TIP3   OH2 2102   3.462   4.496   3.323  0.2137 -0.6009  0.9570
  699TIP3    H1 2103   3.509   4.491   3.406 -0.4985 -1.8837  1.3167
  699TIP3    H2 2104   3.410   4.416   3.321  1.1276 -1.2157 -1.2743
  700TIP3   OH2 2105   3.924   0.896   4.482  0.3536  0.5515 -0.3741
  700TIP3    H1 2106   3.991   0.907   4.551 -0.1160  0.8461  0.0420
  700TIP3    H2 2107   3.903   0.803   4.484  1.1238  0.3581 -0.8625
  701TIP3   OH2 2108   5.204   5.739   0.590  1.0116  0.0134  0.1622
  701TIP3    H1 2109   5.159   5.741   0.506 -2.1342 -0.4074  1.6763
  701TIP3    H2 2110   5.209   5.831   0.617  0.9542  0.0620  0.0072
  702TIP3   OH2 2111   0.347   4.859   1.899  0.1637 -0.4308  0.4840
  702TIP3    H1 2112   0.297   4.778   1.892 -1.0940  0.3434  0.0923
  702TIP3    H2 2113   0.438   4.831   1.904 -0.2805 -1.8806  0.9139
  703TIP3   OH2 2114   1.654   5.464   2.992 -0.5221  0.1062 -0.0153
  703TIP3    H1 2115   1.583   5.407   2.961 -0.2024 -0.7011  0.6861
  703TIP3    H2 2116   1.675   5.430   3.080  0.0027  1.0117  0.2225
  704TIP3   OH2 2117   0.084   1.624   3.849 -0.3182  0.1694  0.4349
  704TIP3    H1 2118   0.051   1.535   3.851 -2.5722  0.9483  2.8692
  704TIP3    H2 2119   0.031   1.668   3.782 -1.3318  0.3773  1.3520
  705TIP3   OH2 2120   5.660   4.973   3.177  0.2081  0.3046  0.4972
  705TIP3    H1 2121   5.611   4.940   3.102 -2.4101  0.8270  1.8411
  705TIP3    H2 2122   5.732   4.910   3.189 -1.1310 -1.5370 -0.5763
  706TIP3   OH2 2123   4.130   2.447   3.113 -0.2241  0.7943 -0.0530
  706TIP3    H1 2124   4.180   2.500   3.176 -0.4206  0.6705  0.2103
  706TIP3    H2 2125   4.151   2.356   3.137 -2.5960  0.6249  1.7983
  707TIP3   OH2 2126   1.858   3.594   1.445  0.0439  0.7271 -0.0574
  707TIP3    H1 2127   1.949   3.615   1.421 -0.2087  1.6663 -0.2568
  707TIP3    H2 2128   1.866   3.534   1.519  0.8319 -0.8755 -1.3706
  708TIP3   OH2 2129   0.147   1.705   2.992 -0.3040  0.2227  0.4627
  708TIP3    H1 2130   0.154   1.721   2.898  0.0309  0.5602  0.5413
  708TIP3    H2 2131   0.236   1.682   3.020 -0.7007 -1.4714  0.4269
  709TIP3   OH2 2132   4.175   0.553   5.105  0.1686 -0.0871 -0.2056
  709TIP3    H1 2133   4.250   0.495   5.118 -1.5216 -2.5566 -0.5473
  709TIP3    H2 2134   4.129   0.552   5.190 -0.5137 -0.2529 -0.5669
  710TIP3   OH2 2135   3.374   1.364   3.444 -0.1315  0.2700  0.4804
  710TIP3    H1 2136   3.303   1.411   3.401  0.1289  0.4620  0.2591
  710TIP3    H2 2137   3.443   1.360   3.379  0.8975  1.9844  1.3885
  711TIP3   OH2 2138   4.621   2.663   2.972 -0.2669 -0.4737  0.2166
  711TIP3    H1 2139   4.595   2.709   3.052  1.7932  0.6773  0.2921
  711TIP3    H2 2140   4.570   2.704   2.903  1.4862  2.0592  0.2812
  712TIP3   OH2 2141   4.319   1.509   1.530 -0.2519  0.2711 -0.3513
  712TIP3    H1 2142   4.388   1.495   1.465  1.0229 -2.8174  1.4302
  712TIP3    H2 2143   4.358   1.569   1.594  0.5183 -0.7997  0.2106
  713TIP3   OH2 2144   1.783   0.161   1.043  0.2759 -0.2838 -0.1297
  713TIP3    H1 2145   1.760   0.128   0.956  1.0408  1.7681 -1.1617
  713TIP3    H2 2146   1.850   0.100   1.075 -0.6859 -1.5940 -0.5441
  714TIP3   OH2 2147   5.768   2.720   5.033 -0.4120  0.0275 -0.2917
  714TIP3    H1 2148   5.753   2.653   4.967 -1.5320  0.4253 -0.4591
  714TIP3    H2 2149   5.825   2.784   4.991 -0.1969 -0.2903 -0.4826
  715TIP3   OH2 2150   2.861   0.221   3.087 -0.3061  0.2147 -0.0159
  715TIP3    H1 2151   2.844   0.310   3.056  0.3580  0.2364 -0.3459
  715TIP3    H2 2152   2.957   0.215   3.093 -0.2861 -0.8016 -0.9913
  716TIP3   OH2 2153   0.946   1.566   2.927  0.3476 -0.7577  0.0661
  716TIP3    H1 2154   0.854   1.585   2.946  0.6349  0.4113  0.3601
  716TIP3    H2 2155   0.943   1.512   2.848 -0.5439  0.5689 -0.8679
  717TIP3   OH2 2156   2.309   0.651   0.676 -0.7453 -0.1624  0.3989
  717TIP3    H1 2157   2.285   0.652   0.584  0.0535 -1.4370  0.1485
  717TIP3    H2 2158   2.404   0.638   0.676 -0.6913  0.1233  1.3973
  718TIP3   OH2 2159   5.153   5.060   1.933  0.2882  0.4598  0.3611
  718TIP3    H1 2160   5.177   5.149   1.905  1.2434 -0.7335 -3.0265
  718TIP3    H2 2161   5.083   5.034   1.873  0.1018 -1.1548  1.2317
  719TIP3   OH2 2162   3.303   0.787   5.147  0.4756 -0.6741  0.1481
  719TIP3    H1 2163   3.379   0.816   5.197  0.7140  0.9556 -1.0731
  719TIP3    H2 2164   3.337   0.718   5.090  0.8591 -0.4877  0.1511
  720TIP3   OH2 2165   0.160   2.563   3.322  0.0106  0.4508 -0.1879
  720TIP3    H1 2166   0.210   2.482   3.326 -0.6352 -0.0145 -1.2084
  720TIP3    H2 2167   0.152   2.591   3.413 -0.5429 -1.1268  0.2830
  721TIP3   OH2 2168   4.803   5.770   0.174 -0.1726  0.4955  0.6822
  721TIP3    H1 2169   4.761   5.809   0.251  1.1772 -0.7402  2.0987
  721TIP3    H2 2170   4.736   5.775   0.106 -1.5967  1.1661  2.0670
  722TIP3   OH2 2171   1.689   4.653   2.994 -0.3380 -0.4540  0.2179
  722TIP3    H1 2172   1.744   4.713   3.044  0.5851 -0.3221 -0.9105
  722TIP3    H2 2173   1.616   4.707   2.964 -0.4862 -0.3518  0.7523
  723TIP3   OH2 2174   3.307   2.369   0.440  0.0862 -0.4003  0.7603
  723TIP3    H1 2175   3.357   2.450   0.448 -1.2042  0.5180  0.0441
  723TIP3    H2 2176   3.372   2.301   0.422  1.1484  0.5683  0.8834
  724TIP3   OH2 2177   1.395   1.239   1.942  0.2960 -0.1251  0.0203
  724TIP3    H1 2178   1.483   1.255   1.977  0.6055 -1.3331 -0.1451
  724TIP3    H2 2179   1.408   1.173   1.873 -0.7229 -0.2332 -0.0907
  725TIP3   OH2 2180   3.270   4.661   1.382 -0.3622  0.2320 -0.3547
  725TIP3    H1 2181   3.360   4.690   1.369  0.0714 -0.8409  0.0822
  725TIP3    H2 2182   3.262   4.583   1.326  0.7553 -2.9637  3.4159
  726TIP3   OH2 2183   0.659   3.400   1.008  0.3413 -0.2180 -0.0424
  726TIP3    H1 2184   0.657   3.476   0.950  0.2004  0.4130  0.7815
  726TIP3    H2 2185   0.572   3.399   1.048  0.5420 -0.4681  0.3919
  727TIP3   OH2 2186   0.261   4.517   4.616  0.3054 -0.0698  0.2610
  727TIP3    H1 2187   0.265   4.550   4.527 -1.2472 -2.2612 -0.7118
  727TIP3    H2 2188   0.331   4.451   4.621  1.1645  0.8723  1.0776
  728TIP3   OH2 2189   0.195   5.654   4.892  0.2483 -0.0143  0.1370
  728TIP3    H1 2190   0.238   5.708   4.826 -0.5721 -0.2289 -0.5819
  728TIP3    H2 2191   0.261   5.589   4.916  0.3202 -0.3854 -1.0054
  729TIP3   OH2 2192   1.657   5.517   5.100  0.5455  0.3690  0.1831
  729TIP3    H1 2193   1.668   5.425   5.076  1.0334  0.1275  1.3169
  729TIP3    H2 2194   1.562   5.530   5.099  0.4604 -0.2220  0.3213
  730TIP3   OH2 2195   3.889   1.389   4.000  0.2506 -0.2149 -0.4240
  730TIP3    H1 2196   3.827   1.458   4.025  0.8333  0.4498 -0.7484
  730TIP3    H2 2197   3.954   1.389   4.071 -0.5788 -1.5356  0.3844
  731TIP3   OH2 2198   0.830   0.942   2.837  0.3459 -0.3188 -0.2777
  731TIP3    H1 2199   0.777   0.863   2.834 -1.0598  0.4015  2.2628
  731TIP3    H2 2200   0.813   0.986   2.754 -1.8526 -0.9080 -0.2082
  732TIP3   OH2 2201   4.877   1.516   1.612  0.0389  0.5520  0.2226
  732TIP3    H1 2202   4.898   1.502   1.520 -1.4413 -0.7127  0.0207
  732TIP3    H2 2203   4.792   1.560   1.610 -0.4174 -0.2668  0.9703
  733TIP3   OH2 2204   1.058   2.886   3.854  0.0900  0.5198 -0.1139
  733TIP3    H1 2205   0.978   2.923   3.892 -0.6271  0.0455 -1.0857
  733TIP3    H2 2206   1.129   2.939   3.890 -0.3252 -0.8877  3.1214
  734TIP3   OH2 2207   0.988   5.406   3.188  0.3228  0.0118  1.1814
  734TIP3    H1 2208   1.052   5.457   3.238 -1.8028  2.3788  1.7063
  734TIP3    H2 2209   0.992   5.443   3.100 -1.0213  0.9428  1.4851
  735TIP3   OH2 2210   6.106   1.669   0.964 -0.0955  0.1601  0.2588
  735TIP3    H1 2211   6.168   1.621   1.019  0.4620 -0.2300 -0.6845
  735TIP3    H2 2212   6.134   1.650   0.874 -1.8975 -0.4530 -0.2095
  736TIP3   OH2 2213   3.993   0.565   2.273 -0.6163  0.1533  0.5212
  736TIP3    H1 2214   3.952   0.482   2.249 -0.3846 -0.1860  1.2738
  736TIP3    H2 2215   4.065   0.576   2.211 -0.0503 -0.6909  1.0086
  737TIP3   OH2 2216   2.360   2.246   3.102 -0.0582  0.4665  0.4081
  737TIP3    H1 2217   2.368   2.309   3.031  1.3061 -0.8549 -0.6852
  737TIP3    H2 2218   2.448   2.212   3.114 -0.3976  0.1702  2.3058
  738TIP3   OH2 2219   3.377   3.953   0.553 -0.1238 -0.4460  0.7757
  738TIP3    H1 2220   3.414   4.028   0.507  0.5447  0.3457  2.5354
  738TIP3    H2 2221   3.448   3.889   0.556 -0.1453 -0.4704  0.7647
  739TIP3   OH2 2222   2.234   2.518   1.333  0.0744 -0.4206  0.1043
  739TIP3    H1 2223   2.280   2.435   1.339  1.3669  0.1445 -1.3536
  739TIP3    H2 2224   2.273   2.562   1.258 -1.8112  0.7626 -0.2596
  740TIP3   OH2 2225   4.446   1.355   2.333  0.2353 -0.1669 -0.0303
  740TIP3    H1 2226   4.478   1.385   2.418 -0.2432  2.8654 -0.8349
  740TIP3    H2 2227   4.438   1.260   2.343  1.8677 -0.1134  2.7163
  741TIP3   OH2 2228   0.867   1.504   0.593 -0.1140 -0.2055 -0.3011
  741TIP3    H1 2229   0.919   1.524   0.515 -1.0708  0.3150 -0.8190
  741TIP3    H2 2230   0.777   1.498   0.561 -0.4241 -0.7495  0.6397
  742TIP3   OH2 2231   2.546   1.097   1.043  0.5271  0.9374  0.7409
  742TIP3    H1 2232   2.515   1.188   1.049 -0.3916  0.6483  0.4810
  742TIP3    H2 2233   2.473   1.049   1.003  0.9244  0.0454  1.0624
  743TIP3   OH2 2234   5.934   0.327   3.507 -0.2941 -0.0952  0.1979
  743TIP3    H1 2235   6.003   0.307   3.444  0.0555  0.3061  0.4451
  743TIP3    H2 2236   5.908   0.242   3.542 -1.4079 -0.4684 -1.4151
  744TIP3   OH2 2237   6.343   2.750   4.744 -0.1244 -0.8142 -0.1766
  744TIP3    H1 2238   6.259   2.725   4.784  0.2276 -0.5500  0.7602
  744TIP3    H2 2239   6.332   2.731   4.651 -0.8989 -1.6468  0.0684
  745TIP3   OH2 2240   3.844   5.083   1.649 -0.3651 -0.1859 -0.3000
  745TIP3    H1 2241   3.828   5.177   1.637  0.2675  0.0106  0.3416
  745TIP3    H2 2242   3.757   5.043   1.641 -1.0450  0.7187  1.8531
  746TIP3   OH2 2243   0.783   3.716   5.124  1.0490 -0.2070  0.4763
  746TIP3    H1 2244   0.705   3.742   5.075  1.2788  1.5373  0.9641
  746TIP3    H2 2245   0.756   3.640   5.175  0.5645 -1.5492 -1.6563
  747TIP3   OH2 2246   1.730   3.342   3.576  0.0967 -0.0110 -0.4573
  747TIP3    H1 2247   1.719   3.307   3.487 -0.8932 -1.1666  0.0894
  747TIP3    H2 2248   1.641   3.345   3.612  0.4237  0.9504  0.3228
  748TIP3   OH2 2249   4.712   4.270   0.781 -0.5713 -0.4686  0.5822
  748TIP3    H1 2250   4.786   4.225   0.742 -0.2180  0.0357  0.6669
  748TIP3    H2 2251   4.722   4.255   0.875 -0.0769  0.3467  0.6652
  749TIP3   OH2 2252   4.761   5.851   3.024 -0.3852 -0.1716  0.0389
  749TIP3    H1 2253   4.687   5.875   3.080 -1.0610  0.0583 -0.9388
  749TIP3    H2 2254   4.810   5.932   3.014  0.7597 -0.5975  1.7478
  750TIP3   OH2 2255   5.039   5.328   4.217  0.1593 -0.4400  0.7786
  750TIP3    H1 2256   4.987   5.388   4.270  0.2547 -0.9471  1.4582
  750TIP3    H2 2257   4.997   5.243   4.228  0.1778 -0.5552  0.0275
  751TIP3   OH2 2258   4.313   4.178   0.860 -0.0553 -0.3755  0.8131
  751TIP3    H1 2259   4.270   4.206   0.779 -1.2797  0.6097  1.7447
  751TIP3    H2 2260   4.273   4.094   0.881 -0.3316 -0.2496  0.8001
  752TIP3   OH2 2261   3.545   4.657   0.722 -0.1513 -0.3265  0.1323
  752TIP3    H1 2262   3.606   4.723   0.757 -1.6152  0.0985  2.0745
  752TIP3    H2 2263   3.554   4.664   0.627  0.3063  2.1724  0.2911
  753TIP3   OH2 2264   0.591   4.978   3.247  0.3365  0.1583 -0.1089
  753TIP3    H1 2265   0.652   4.906   3.265 -0.5690 -0.5828  0.1326
  753TIP3    H2 2266   0.609   5.042   3.316 -0.6899 -1.0892  1.4122
  754TIP3   OH2 2267   1.234   4.150   4.424  0.0215 -0.2532 -0.0428
  754TIP3    H1 2268   1.223   4.206   4.501  0.2007  0.0349 -0.2204
  754TIP3    H2 2269   1.146   4.123   4.400 -0.0804  0.0789 -0.0438
  755TIP3   OH2 2270   2.373   5.039   4.923 -0.5534 -0.4491 -0.4245
  755TIP3    H1 2271   2.387   4.997   5.008 -0.5122  1.2920  0.4887
  755TIP3    H2 2272   2.344   4.969   4.866 -0.3462 -1.7251  0.9701
  756TIP3   OH2 2273   0.388   4.198   5.074  0.2366 -0.6429  0.1208
  756TIP3    H1 2274   0.292   4.200   5.080  0.2417  0.1096  0.0318
  756TIP3    H2 2275   0.415   4.148   5.150 -0.1552  0.5921  1.1075
  757TIP3   OH2 2276   4.134   1.221   0.433  0.2934  0.9172 -0.3240
  757TIP3    H1 2277   4.079   1.282   0.482  0.2287  0.4885  0.1516
  757TIP3    H2 2278   4.166   1.160   0.500  0.3457  0.4303 -0.7933
  758TIP3   OH2 2279   0.110   0.968   2.664  0.3217  0.3370 -0.6823
  758TIP3    H1 2280   0.026   0.949   2.707  1.0863  0.0322  0.7248
  758TIP3    H2 2281   0.130   1.057   2.690  1.9886 -0.6629  1.7238
  759TIP3   OH2 2282   1.661   1.260   0.958 -0.4446  0.1473  0.0629
  759TIP3    H1 2283   1.594   1.315   1.000 -1.1513 -0.5784 -0.0879
  759TIP3    H2 2284   1.743   1.307   0.972 -0.7617  0.2833  1.6551
  760TIP3   OH2 2285   5.652   0.495   2.059 -0.0369  0.2815 -0.2285
  760TIP3    H1 2286   5.593   0.435   2.013  0.9510 -0.3419 -0.6959
  760TIP3    H2 2287   5.733   0.493   2.009  0.7602  0.3005  1.0131
  761TIP3   OH2 2288   2.322   0.815   3.365 -0.7002  0.2001  0.0619
  761TIP3    H1 2289   2.259   0.742   3.372  0.7924 -1.1095  0.3808
  761TIP3    H2 2290   2.356   0.825   3.454 -0.8863  1.3279  0.0192
  762TIP3   OH2 2291   4.577   3.452   0.275 -0.3338 -0.1192 -0.1248
  762TIP3    H1 2292   4.490   3.415   0.291  0.0276 -0.7549  0.3816
  762TIP3    H2 2293   4.593   3.436   0.182 -0.2686 -1.0565  0.0428
  763TIP3   OH2 2294   0.878   4.979   2.381  0.5221 -0.1741 -0.6712
  763TIP3    H1 2295   0.912   4.923   2.451 -0.2815 -1.3852 -1.2301
  763TIP3    H2 2296   0.895   4.931   2.301 -0.7388  0.0687 -1.1147
  764TIP3   OH2 2297   0.636   5.202   5.155 -0.0740 -0.3530  0.2007
  764TIP3    H1 2298   0.554   5.152   5.154 -0.4252  0.1873  0.9044
  764TIP3    H2 2299   0.694   5.151   5.212  0.1007 -0.7615 -0.3359
  765TIP3   OH2 2300   0.899   3.233   4.178 -0.1295 -0.0829 -0.5028
  765TIP3    H1 2301   0.853   3.317   4.171 -0.4375 -0.2319 -0.2755
  765TIP3    H2 2302   0.989   3.253   4.150 -0.4894  0.0640 -1.5847
  766TIP3   OH2 2303   1.589   4.094   1.346 -0.0196  0.3958 -0.2854
  766TIP3    H1 2304   1.629   4.083   1.433 -0.2816 -0.0576 -0.2164
  766TIP3    H2 2305   1.579   4.004   1.313  0.3895  0.5790 -0.9300
  767TIP3   OH2 2306   5.498   3.540   3.043  0.2030  0.4370  0.0772
  767TIP3    H1 2307   5.522   3.598   3.116 -0.7083  0.7693  0.1197
  767TIP3    H2 2308   5.407   3.562   3.024 -0.5283 -1.7189  0.7988
  768TIP3   OH2 2309   4.240   2.433   1.869  0.4270 -0.2312 -0.1881
  768TIP3    H1 2310   4.239   2.526   1.846 -0.8971  0.1750  1.2798
  768TIP3    H2 2311   4.195   2.389   1.797 -0.0785  0.4364 -0.2813
  769TIP3   OH2 2312   3.086   5.028   0.661  0.6000  0.2422 -0.1094
  769TIP3    H1 2313   3.008   4.995   0.706 -0.3264  2.3991 -0.0047
  769TIP3    H2 2314   3.082   4.988   0.574 -0.2816 -0.1471  0.0941
  770TIP3   OH2 2315   3.357   2.766   2.934  0.1636 -0.1092 -0.0377
  770TIP3    H1 2316   3.318   2.693   2.982 -2.2108  0.4794 -0.9016
  770TIP3    H2 2317   3.292   2.787   2.866  1.5280  1.7271 -0.8641
  771TIP3   OH2 2318   0.733   4.986   0.506  0.0511  0.4667  0.1855
  771TIP3    H1 2319   0.659   4.933   0.475 -1.0364  1.0521  1.6244
  771TIP3    H2 2320   0.711   5.075   0.479  0.4965  0.5617  0.1426
  772TIP3   OH2 2321   1.001   3.469   1.377  0.2140 -0.2274 -0.7666
  772TIP3    H1 2322   1.070   3.461   1.443 -0.4579 -3.1721 -0.2521
  772TIP3    H2 2323   1.047   3.468   1.293  0.9690  1.9186 -0.4436
  773TIP3   OH2 2324   5.931   3.937   1.346  0.5749 -0.3422 -0.2504
  773TIP3    H1 2325   5.923   3.868   1.411  0.1514 -0.7368 -0.7192
  773TIP3    H2 2326   5.849   3.987   1.352  0.9156  0.1806  0.1511
  774TIP3   OH2 2327   1.643   1.499   1.480  0.8813  0.8320 -0.6749
  774TIP3    H1 2328   1.635   1.431   1.547 -0.1954  0.6705 -0.9574
  774TIP3    H2 2329   1.560   1.496   1.432  1.3518  1.4323 -1.5582
  775TIP3   OH2 2330   2.046   2.974   1.799  0.1576 -0.2763 -0.2040
  775TIP3    H1 2331   2.043   2.978   1.895 -2.0223 -1.6513 -0.1472
  775TIP3    H2 2332   2.134   3.004   1.777  0.3852  1.1088  2.1590
  776TIP3   OH2 2333   5.695   2.140   1.350 -0.5106  0.0871  0.5265
  776TIP3    H1 2334   5.725   2.102   1.432  2.4443  1.5079  0.2421
  776TIP3    H2 2335   5.768   2.129   1.289 -2.0332  0.4215 -1.4914
  777TIP3   OH2 2336   2.314   2.856   4.721 -0.1915  0.1749  0.0631
  777TIP3    H1 2337   2.402   2.865   4.759 -0.3413  0.4530  0.3447
  777TIP3    H2 2338   2.305   2.931   4.663 -1.4030  1.9205  2.3441
  778TIP3   OH2 2339   0.693   5.918   0.228 -0.2936  0.0492  0.0304
  778TIP3    H1 2340   0.721   5.877   0.310 -0.3002 -0.9799 -0.4551
  778TIP3    H2 2341   0.766   5.903   0.168 -0.1082  1.1756 -0.0399
  779TIP3   OH2 2342   4.178   5.591   2.410  0.1869  0.1706  0.1457
  779TIP3    H1 2343   4.185   5.686   2.419  0.6375  0.1433  0.1082
  779TIP3    H2 2344   4.201   5.574   2.319 -1.7159  0.1937 -0.3761
  780TIP3   OH2 2345   1.765   4.826   2.287  0.4865 -0.3422  0.3771
  780TIP3    H1 2346   1.785   4.838   2.194  1.0254 -1.5310  0.3288
  780TIP3    H2 2347   1.732   4.911   2.315  0.7001  0.1499 -0.8056
  781TIP3   OH2 2348   3.443   1.996   4.328  0.1657  0.4059 -0.2602
  781TIP3    H1 2349   3.504   2.065   4.356  0.7234 -0.3990  0.5729
  781TIP3    H2 2350   3.411   2.026   4.243  0.2349  1.7896  0.1642
  782TIP3   OH2 2351   3.799   2.680   1.105 -0.1461 -0.0444  0.1690
  782TIP3    H1 2352   3.863   2.749   1.124  0.7034 -0.6660 -0.3331
  782TIP3    H2 2353   3.716   2.726   1.093 -0.0918  0.6769  2.1142
  783TIP3   OH2 2354   0.137   1.107   0.791 -0.2410 -0.0987  0.4792
  783TIP3    H1 2355   0.054   1.098   0.745  1.0472  2.0472 -2.6270
  783TIP3    H2 2356   0.120   1.173   0.859 -0.9033  1.0535 -0.7659
  784TIP3   OH2 2357   4.373   2.220   1.662 -0.3774 -0.1118 -0.0115
  784TIP3    H1 2358   4.290   2.173   1.654 -0.0608 -0.5532 -0.7436
  784TIP3    H2 2359   4.439   2.151   1.670  0.1759  0.1519 -1.8621
  785TIP3   OH2 2360   5.687   2.909   0.561  0.5701  0.0478  0.3786
  785TIP3    H1 2361   5.684   2.877   0.651  0.5814 -1.5415 -0.1593
  785TIP3    H2 2362   5.762   2.968   0.559  0.4549  0.2579  1.4468
  786TIP3   OH2 2363   4.241   4.669   2.385  0.1545  0.2868  0.1717
  786TIP3    H1 2364   4.175   4.727   2.348  1.9536  2.5736  0.3077
  786TIP3    H2 2365   4.258   4.705   2.473  0.3698 -1.2888  0.8102
  787TIP3   OH2 2366   2.660   3.978   1.904  0.2745  0.1350  0.0807
  787TIP3    H1 2367   2.673   4.069   1.931 -0.5771  0.0984  0.6815
  787TIP3    H2 2368   2.581   3.951   1.951 -0.2430 -0.5023 -1.1219
  788TIP3   OH2 2369   0.722   4.323   4.279 -0.1629 -0.3799 -0.4733
  788TIP3    H1 2370   0.690   4.406   4.314 -1.2808 -1.0033  0.0505
  788TIP3    H2 2371   0.704   4.328   4.186 -0.4440 -0.1352 -0.4074
  789TIP3   OH2 2372   1.001   5.131   4.345 -0.0144  0.0279  0.8075
  789TIP3    H1 2373   0.911   5.163   4.349 -0.5501 -1.3481  0.2146
  789TIP3    H2 2374   1.007   5.084   4.263  1.0224 -0.5889  1.2161
  790TIP3   OH2 2375   6.192   3.394   2.379  0.2845  0.1062  0.9054
  790TIP3    H1 2376   6.212   3.454   2.307  1.0883 -0.6340  0.4971
  790TIP3    H2 2377   6.262   3.330   2.377 -0.5135 -0.8084  1.3882
  791TIP3   OH2 2378   3.070   3.866   1.692 -0.0912 -1.0756  0.6276
  791TIP3    H1 2379   2.987   3.819   1.690  0.5525 -2.3210  1.7159
  791TIP3    H2 2380   3.066   3.917   1.773  0.3363 -1.4215  0.8725
  792TIP3   OH2 2381   5.912   2.222   2.909  0.1643 -0.2629  0.3445
  792TIP3    H1 2382   5.912   2.297   2.849 -0.7400 -0.5926 -0.0837
  792TIP3    H2 2383   5.847   2.245   2.976  1.1059  0.0660  1.1690
  793TIP3   OH2 2384   6.229   3.589   2.187 -0.6458 -0.4095 -0.2456
  793TIP3    H1 2385   6.304   3.622   2.138  0.0469 -2.0868 -0.3858
  793TIP3    H2 2386   6.158   3.587   2.123 -1.5322  3.2575  0.3976
  794TIP3   OH2 2387   1.916   1.080   2.732  0.2570 -0.2667 -0.1814
  794TIP3    H1 2388   1.979   1.016   2.764 -0.9981 -1.5134 -0.1240
  794TIP3    H2 2389   1.832   1.054   2.771 -0.5915  0.4473 -1.4429
  795TIP3   OH2 2390   0.488   1.340   2.948 -0.2764  0.3097 -0.6460
  795TIP3    H1 2391   0.529   1.263   2.989 -0.2776  0.1964 -0.8577
  795TIP3    H2 2392   0.395   1.319   2.944 -0.0019 -0.7177 -2.9186
  796TIP3   OH2 2393   5.785   3.812   3.538  0.1679 -0.1802  0.3820
  796TIP3    H1 2394   5.760   3.904   3.538 -2.9838 -0.7924 -3.0371
  796TIP3    H2 2395   5.724   3.771   3.600  0.0134 -0.2406  0.1923
  797TIP3   OH2 2396   0.121   3.170   1.398 -0.0189 -0.7896  0.4686
  797TIP3    H1 2397   0.181   3.199   1.329  0.4539  0.1026  1.2428
  797TIP3    H2 2398   0.145   3.079   1.414 -1.3263 -1.6128 -1.7791
  798TIP3   OH2 2399   3.879   0.890   0.492  0.2623  0.4885  0.4097
  798TIP3    H1 2400   3.817   0.874   0.563 -0.3294  0.0806 -0.1955
  798TIP3    H2 2401   3.964   0.895   0.536 -0.1569  0.7678  1.2108
  799TIP3   OH2 2402   3.230   4.633   4.576 -0.3926 -0.5404 -0.3692
  799TIP3    H1 2403   3.139   4.659   4.593 -0.5563 -0.2756 -1.5049
  799TIP3    H2 2404   3.245   4.557   4.632 -1.8101 -1.5181 -1.2385
  800TIP3   OH2 2405   2.651   3.412   0.347  0.4681  0.4146 -0.1032
  800TIP3    H1 2406   2.663   3.456   0.431  1.0747 -1.3080  0.7625
  800TIP3    H2 2407   2.727   3.354   0.340  0.4293  0.5253 -1.8606
  801TIP3   OH2 2408   3.813   0.861   1.779 -0.0060 -0.8651  0.0002
  801TIP3    H1 2409   3.877   0.829   1.716 -0.4204  0.9046 -1.4030
  801TIP3    H2 2410   3.858   0.932   1.825 -0.3919 -0.7841  0.2595
  802TIP3   OH2 2411   0.933   3.447   3.107 -0.1162  0.0556  0.5438
  802TIP3    H1 2412   1.020   3.476   3.080  0.4681 -0.8286  1.4069
  802TIP3    H2 2413   0.878   3.459   3.029  0.9416 -0.0523 -0.2426
  803TIP3   OH2 2414   2.627   4.724   4.534  0.0519 -0.4240 -0.7495
  803TIP3    H1 2415   2.642   4.710   4.627  1.3025 -2.5928 -1.2195
  803TIP3    H2 2416   2.536   4.696   4.520 -0.0826 -0.2584 -0.2133
  804TIP3   OH2 2417   4.300   2.862   3.626  0.0086  0.1215 -0.0044
  804TIP3    H1 2418   4.237   2.852   3.698  0.1712  2.4406  0.5131
  804TIP3    H2 2419   4.264   2.806   3.556 -2.9145  1.6097  0.1273
  805TIP3   OH2 2420   0.972   4.909   0.664 -0.4481 -0.4054 -0.0561
  805TIP3    H1 2421   0.937   4.865   0.742 -0.4404  0.4430  0.4382
  805TIP3    H2 2422   0.895   4.939   0.616 -0.4531  1.5350  1.0739
  806TIP3   OH2 2423   2.008   1.907   3.689 -0.1092 -0.5877 -0.6157
  806TIP3    H1 2424   2.067   1.888   3.762 -0.3847 -2.0021 -0.7255
  806TIP3    H2 2425   2.060   1.889   3.611  0.3254  1.3434 -0.8115
  807TIP3   OH2 2426   4.864   5.992   5.134 -0.0421 -0.0593  0.1241
  807TIP3    H1 2427   4.793   5.961   5.078  1.4045 -1.4584 -1.0431
  807TIP3    H2 2428   4.868   5.928   5.205 -1.0525  1.0156  1.1998
  808TIP3   OH2 2429   4.945   3.395   1.314  0.0267  0.0739 -0.3530
  808TIP3    H1 2430   4.985   3.393   1.401  1.6991  1.6804 -1.0072
  808TIP3    H2 2431   5.011   3.436   1.258 -2.5107  3.0486 -1.5260
  809TIP3   OH2 2432   3.808   4.979   4.520  0.5820 -0.0986 -0.0164
  809TIP3    H1 2433   3.763   4.985   4.604 -1.3949 -0.5880 -0.9730
  809TIP3    H2 2434   3.759   4.912   4.472  2.1985 -0.4484 -1.2409
  810TIP3   OH2 2435   0.296   4.304   3.386  0.2793 -0.4348 -0.3075
  810TIP3    H1 2436   0.235   4.295   3.313 -0.1482 -1.1301  0.1240
  810TIP3    H2 2437   0.369   4.355   3.350 -0.6092  0.5453 -0.7885
  811TIP3   OH2 2438   5.112   2.053   1.205  0.5755  0.2759 -0.6335
  811TIP3    H1 2439   5.133   1.961   1.225  0.2022  0.2343 -0.4254
  811TIP3    H2 2440   5.080   2.089   1.288 -0.1215  0.3480 -0.9217
  812TIP3   OH2 2441   2.166   2.515   4.177 -0.5280 -0.0942  0.1047
  812TIP3    H1 2442   2.116   2.501   4.097 -1.4694 -0.0687  0.6725
  812TIP3    H2 2443   2.160   2.609   4.193 -0.3316 -0.0965  0.1929
  813TIP3   OH2 2444  -0.003   0.190   2.256  0.1375 -0.3843 -0.5361
  813TIP3    H1 2445   0.049   0.213   2.333  0.4638 -1.7042 -0.3319
  813TIP3    H2 2446   0.023   0.254   2.189  3.0002 -1.6881 -0.8375
  814TIP3   OH2 2447   5.532   1.357   0.250 -0.5171 -0.1776  0.4866
  814TIP3    H1 2448   5.481   1.313   0.182 -0.7986  1.1161 -0.1845
  814TIP3    H2 2449   5.526   1.450   0.227  0.6752  0.1490  1.4146
  815TIP3   OH2 2450   2.202   5.349   2.211  0.6161 -0.6444  0.8539
  815TIP3    H1 2451   2.292   5.334   2.182  0.8409  0.5817  0.8613
  815TIP3    H2 2452   2.151   5.354   2.130  0.9140  0.7347  0.7210
  816TIP3   OH2 2453   1.821   3.583   0.367  0.0007 -0.3281  0.4708
  816TIP3    H1 2454   1.762   3.645   0.324 -0.3909  1.8096  3.7814
  816TIP3    H2 2455   1.762   3.513   0.398 -0.6426  0.9082  2.2051
  817TIP3   OH2 2456   3.828   3.190   2.387 -0.6583 -0.4841  0.6812
  817TIP3    H1 2457   3.821   3.143   2.303 -1.9203  0.9648 -0.0877
  817TIP3    H2 2458   3.781   3.135   2.449 -1.5217 -0.5956 -0.0466
  818TIP3   OH2 2459   0.490   1.915   0.199  0.0339  0.1152  0.3924
  818TIP3    H1 2460   0.532   1.840   0.242 -1.2684 -0.9251 -0.0882
  818TIP3    H2 2461   0.556   1.984   0.204  0.4387 -0.3396  2.8604
  819TIP3   OH2 2462   5.215   3.519   3.010 -0.1408 -0.3336  0.1290
  819TIP3    H1 2463   5.156   3.594   3.018  0.4495  0.1294  0.1171
  819TIP3    H2 2464   5.203   3.471   3.092  1.4193  1.1762  1.2938
  820TIP3   OH2 2465   2.715   5.782   3.008 -0.8521  0.0771  0.0454
  820TIP3    H1 2466   2.638   5.736   2.974 -1.3929  0.2319  1.0021
  820TIP3    H2 2467   2.769   5.713   3.047  0.4175 -0.2933 -2.1696
  821TIP3   OH2 2468   2.213   0.635   1.456  0.5260  0.1972 -0.5841
  821TIP3    H1 2469   2.159   0.711   1.435  0.7818  0.3451 -0.7189
  821TIP3    H2 2470   2.152   0.562   1.459 -0.0315  0.6822  1.3811
  822TIP3   OH2 2471   0.568   0.144   0.522  0.5368  0.0546 -0.4441
  822TIP3    H1 2472   0.608   0.110   0.441  0.0449 -1.6861  0.0086
  822TIP3    H2 2473   0.614   0.226   0.538  1.5458 -0.2048 -1.8048
  823TIP3   OH2 2474   3.708   3.231   0.731  0.4156  0.3489  0.3003
  823TIP3    H1 2475   3.774   3.238   0.661 -0.8168 -0.8226 -1.0356
  823TIP3    H2 2476   3.746   3.170   0.793  0.2240 -1.1228 -0.9678
  824TIP3   OH2 2477   0.359   0.313   3.034  0.3674  0.0442  0.5092
  824TIP3    H1 2478   0.266   0.325   3.054 -0.2435  0.2871 -2.1509
  824TIP3    H2 2479   0.390   0.401   3.013  0.9100 -0.1853  0.3319
  825TIP3   OH2 2480   0.270   2.874   3.047  0.2859 -0.4386 -0.5163
  825TIP3    H1 2481   0.274   2.942   2.980 -1.2745 -0.4027 -0.5901
  825TIP3    H2 2482   0.353   2.884   3.095  1.4838 -0.5295 -2.4448
  826TIP3   OH2 2483   0.881   5.214   2.193  0.2170 -0.1470 -0.2612
  826TIP3    H1 2484   0.854   5.298   2.231  1.8644  0.0822  0.4934
  826TIP3    H2 2485   0.860   5.150   2.261  0.7348 -0.0868 -0.0429
  827TIP3   OH2 2486   2.677   2.360   0.167  0.9126  0.2294 -0.0490
  827TIP3    H1 2487   2.621   2.432   0.195  0.2822 -0.3674  0.2374
  827TIP3    H2 2488   2.700   2.381   0.076  0.8763  0.8726  0.0904
  828TIP3   OH2 2489   6.285   1.193   4.263 -0.0380  0.1890  0.1349
  828TIP3    H1 2490   6.223   1.263   4.241 -0.4846 -0.1293  0.3683
  828TIP3    H2 2491   6.336   1.229   4.336 -1.6962 -0.5086  1.7062
  829TIP3   OH2 2492   2.916   0.707   4.411 -0.2297 -0.7271 -0.7588
  829TIP3    H1 2493   2.826   0.696   4.440  0.2149 -1.0613  0.5639
  829TIP3    H2 2494   2.959   0.624   4.433  1.0189  0.3437  1.0406
  830TIP3   OH2 2495   2.035   5.632   2.872  0.0135  0.5921  0.1485
  830TIP3    H1 2496   1.993   5.604   2.791  0.6172  0.1560 -0.0280
  830TIP3    H2 2497   1.963   5.655   2.931 -0.5088 -0.9849  0.1690
  831TIP3   OH2 2498   1.797   5.660   2.391  0.0775 -0.3698  0.0958
  831TIP3    H1 2499   1.715   5.661   2.341  0.4117 -1.0311 -0.4975
  831TIP3    H2 2500   1.778   5.710   2.470 -1.4624 -2.0617  0.8693
  832TIP3   OH2 2501   5.573   2.462   0.387 -0.0254 -0.3074 -0.2790
  832TIP3    H1 2502   5.538   2.503   0.466  1.6131 -0.1106  0.3842
  832TIP3    H2 2503   5.668   2.460   0.401  0.2308 -1.0037 -1.8969
  833TIP3   OH2 2504   0.830   2.016   3.009  0.7127  0.0745  0.1871
  833TIP3    H1 2505   0.792   1.964   3.080  0.4165 -0.6334 -0.4864
  833TIP3    H2 2506   0.911   1.971   2.986  0.2305 -0.3514 -0.7024
  834TIP3   OH2 2507   1.840   3.835   2.035 -0.0765  0.8251 -0.5343
  834TIP3    H1 2508   1.801   3.784   1.964 -0.2836  1.2699 -0.7464
  834TIP3    H2 2509   1.786   3.914   2.040 -0.3087  0.6207  0.3873
  835TIP3   OH2 2510   2.284   2.766   3.728  0.0194  0.5320 -0.2165
  835TIP3    H1 2511   2.243   2.825   3.665 -2.0809 -1.1106 -0.5102
  835TIP3    H2 2512   2.374   2.799   3.737 -0.5478  2.6839 -1.6446
  836TIP3   OH2 2513   4.822   0.770   4.927 -0.1597  0.0212  0.0448
  836TIP3    H1 2514   4.763   0.704   4.963 -1.7736  1.3998  0.0580
  836TIP3    H2 2515   4.826   0.749   4.833 -0.6454 -0.1197  0.0500
  837TIP3   OH2 2516   5.614   0.589   1.752  0.0543  0.6724 -0.3578
  837TIP3    H1 2517   5.572   0.639   1.823 -1.2976  0.4242 -0.9412
  837TIP3    H2 2518   5.662   0.655   1.702 -0.2877  1.1098 -0.1171
  838TIP3   OH2 2519   3.380   5.206   4.042  0.3782  0.3739  0.0525
  838TIP3    H1 2520   3.288   5.184   4.031  0.6705 -1.3754  0.7108
  838TIP3    H2 2521   3.403   5.171   4.128  1.8037  0.2175 -0.3582
  839TIP3   OH2 2522   4.659   3.849   0.317  0.2026 -0.0513 -0.0049
  839TIP3    H1 2523   4.571   3.836   0.282 -0.9879  3.4003  1.3214
  839TIP3    H2 2524   4.683   3.764   0.354 -2.4047 -1.1842 -0.6962
  840TIP3   OH2 2525   2.887   2.816   1.347  0.2239  0.7393  0.2107
  840TIP3    H1 2526   2.878   2.777   1.260  2.4780  0.3674  0.0752
  840TIP3    H2 2527   2.814   2.781   1.398 -0.7311  0.4274 -1.3292
  841TIP3   OH2 2528   4.631   0.061   2.440 -0.2093 -0.0953 -0.1574
  841TIP3    H1 2529   4.716   0.079   2.481  0.6926 -0.4271 -1.8049
  841TIP3    H2 2530   4.637  -0.031   2.412  0.0834  0.6882 -2.9242
  842TIP3   OH2 2531   6.254   2.749   2.788 -0.4174  0.3461  0.2306
  842TIP3    H1 2532   6.248   2.683   2.719  1.1930  1.0171 -0.6028
  842TIP3    H2 2533   6.332   2.800   2.766  0.8882 -0.1530  3.1720
  843TIP3   OH2 2534   5.096   3.879   4.337  0.1489 -0.4498  0.8855
  843TIP3    H1 2535   5.165   3.847   4.394 -0.6119 -0.9900  1.5323
  843TIP3    H2 2536   5.085   3.809   4.272  1.9908  0.7659 -0.8603
  844TIP3   OH2 2537   2.268   2.933   1.278  0.2314  0.8358  0.3260
  844TIP3    H1 2538   2.270   2.957   1.371 -2.4963 -0.4275  0.8139
  844TIP3    H2 2539   2.262   3.017   1.232  1.7720  1.4868  1.2409
  845TIP3   OH2 2540   6.224   2.211   2.382 -0.3463 -0.1406  0.7319
  845TIP3    H1 2541   6.174   2.157   2.443 -0.5458 -0.7622  0.0377
  845TIP3    H2 2542   6.171   2.212   2.302  0.8150 -0.9337 -0.0711
  846TIP3   OH2 2543   5.994   5.026   2.463  0.3407 -0.6678 -0.1449
  846TIP3    H1 2544   5.977   4.986   2.548  2.0508 -0.2061  0.4635
  846TIP3    H2 2545   5.910   5.063   2.436 -0.5087 -1.8393  0.7689
  847TIP3   OH2 2546   5.821   4.718   1.491  0.1405 -0.0973  0.0414
  847TIP3    H1 2547   5.840   4.678   1.406 -0.8337 -2.3019  0.7860
  847TIP3    H2 2548   5.727   4.739   1.487  0.1529  0.0454  0.4556
  848TIP3   OH2 2549   4.971   1.058   4.682 -0.2179 -0.0665  0.1870
  848TIP3    H1 2550   4.960   1.151   4.698  0.0565 -0.4213  3.1011
  848TIP3    H2 2551   5.062   1.049   4.654  0.0314  0.4698  0.8031
  849TIP3   OH2 2552   1.999   2.670   3.000 -0.3924  0.4169 -0.0836
  849TIP3    H1 2553   2.078   2.671   3.054  0.1346 -0.7782 -0.8010
  849TIP3    H2 2554   1.962   2.758   3.012  1.0222  1.0035  0.2934
  850TIP3   OH2 2555   1.983   2.405   0.890  0.6118 -0.1964 -0.3062
  850TIP3    H1 2556   1.931   2.433   0.965  1.4057 -0.0558  0.2061
  850TIP3    H2 2557   1.953   2.316   0.873  0.6474 -0.3564  0.3981
  851TIP3   OH2 2558   4.300   4.426   0.950  0.6007  0.2780  0.1499
  851TIP3    H1 2559   4.310   4.332   0.935  0.8608 -0.0558  2.2007
  851TIP3    H2 2560   4.208   4.436   0.972  0.3898  0.6546 -0.8365
  852TIP3   OH2 2561   4.010   1.630   0.869 -0.3873  0.4684  0.3533
  852TIP3    H1 2562   4.020   1.679   0.950 -1.7286  0.3756  0.5930
  852TIP3    H2 2563   4.003   1.538   0.896  1.1126  0.2188 -0.0249
  853TIP3   OH2 2564   4.936   2.376   3.564  0.2070  0.1747 -0.0527
  853TIP3    H1 2565   4.885   2.386   3.483 -2.6513  1.1195  1.7115
  853TIP3    H2 2566   4.894   2.303   3.610  1.5566 -0.1284  0.7698
  854TIP3   OH2 2567   4.479   3.484   3.214 -0.0134  0.1791 -0.0197
  854TIP3    H1 2568   4.387   3.497   3.192  0.5500 -0.6148 -3.4783
  854TIP3    H2 2569   4.512   3.424   3.147  2.5159 -1.4906  2.4729
  855TIP3   OH2 2570   2.388   2.078   5.014 -0.2637  0.5075 -0.6035
  855TIP3    H1 2571   2.320   2.113   4.956 -1.2370 -0.4645 -0.0757
  855TIP3    H2 2572   2.346   2.073   5.100  1.1491  1.8986  0.2314
  856TIP3   OH2 2573   1.760   1.876   2.413  0.2122  0.7701 -0.0187
  856TIP3    H1 2574   1.679   1.920   2.441 -0.4885  0.3823 -1.3457
  856TIP3    H2 2575   1.731   1.790   2.383  1.1631  0.5288 -0.2715
  857TIP3   OH2 2576   2.889   5.327   2.060  0.6824 -0.1033 -0.5344
  857TIP3    H1 2577   2.934   5.411   2.067 -0.2224  0.3126  0.7012
  857TIP3    H2 2578   2.866   5.320   1.967 -0.7086  1.8296 -0.3877
  858TIP3   OH2 2579   5.712   4.538   4.460  0.4316  0.4795  0.1636
  858TIP3    H1 2580   5.668   4.589   4.528  0.3639 -0.6298  0.9790
  858TIP3    H2 2581   5.739   4.603   4.395 -2.5440  1.2310 -0.4929
  859TIP3   OH2 2582   1.854   5.381   4.841  0.6328  0.1265 -0.2293
  859TIP3    H1 2583   1.853   5.352   4.750 -1.4293  1.7220 -0.7892
  859TIP3    H2 2584   1.945   5.406   4.857  1.0363 -0.2122 -1.8482
  860TIP3   OH2 2585   3.878   5.189   3.426 -0.0584  0.7544 -0.2987
  860TIP3    H1 2586   3.822   5.119   3.460 -0.4927  0.6537 -1.1781
  860TIP3    H2 2587   3.966   5.165   3.454 -0.2154 -0.0983 -0.5032
  861TIP3   OH2 2588   0.292   0.238   0.561 -0.6726 -0.4905  0.2151
  861TIP3    H1 2589   0.304   0.267   0.652  1.3137  0.6562 -0.3520
  861TIP3    H2 2590   0.381   0.217   0.531 -1.1728  0.0472 -1.7574
  862TIP3   OH2 2591   0.972   4.258   3.960 -0.3000 -0.0059 -0.1297
  862TIP3    H1 2592   1.057   4.257   4.003 -0.4391  0.2645  0.1525
  862TIP3    H2 2593   0.912   4.221   4.025 -0.7692  1.7030  0.4549
  863TIP3   OH2 2594   2.132   4.194   4.796 -0.1613 -0.0656  0.0916
  863TIP3    H1 2595   2.120   4.283   4.830  1.0251  0.8146 -1.6305
  863TIP3    H2 2596   2.072   4.190   4.721  1.6128  0.2571 -1.4181
  864TIP3   OH2 2597   1.343   4.267   4.973  0.2937  0.5728  0.4279
  864TIP3    H1 2598   1.433   4.268   5.004  0.2790 -0.6467  0.5590
  864TIP3    H2 2599   1.291   4.240   5.049  0.0476 -0.5938 -0.1321
  865TIP3   OH2 2600   6.260   1.957   2.042 -0.0659  0.3035 -0.2330
  865TIP3    H1 2601   6.284   1.931   2.131 -1.6016  1.5719  0.6019
  865TIP3    H2 2602   6.194   1.893   2.016  0.4924 -0.1580 -0.5425
  866TIP3   OH2 2603   2.081   3.645   1.229  0.3306 -0.1593 -0.0528
  866TIP3    H1 2604   2.151   3.580   1.240  0.9251  0.4437 -0.2651
  866TIP3    H2 2605   2.127   3.728   1.217 -0.4247  0.2222 -0.3176
  867TIP3   OH2 2606   3.926   3.840   3.162 -0.1361 -0.0132 -0.2370
  867TIP3    H1 2607   3.951   3.796   3.081 -0.6716  0.1455 -0.4915
  867TIP3    H2 2608   4.006   3.884   3.190  0.1376 -0.3281 -0.5092
  868TIP3   OH2 2609   2.416   4.657   2.709 -0.1557 -0.3358 -0.3931
  868TIP3    H1 2610   2.396   4.570   2.675  0.8230 -0.9157  0.4344
  868TIP3    H2 2611   2.332   4.692   2.738 -0.3300 -1.8020  1.0336
  869TIP3   OH2 2612   2.134   0.208   3.208  0.0218 -0.1053 -0.1379
  869TIP3    H1 2613   2.090   0.246   3.132  1.7031 -0.4410 -1.3421
  869TIP3    H2 2614   2.152   0.283   3.264  0.0360  0.3625 -0.7509
  870TIP3   OH2 2615   2.733   4.751   0.971 -0.0797 -0.0857 -0.0665
  870TIP3    H1 2616   2.644   4.786   0.966  0.2546  0.6475 -1.8597
  870TIP3    H2 2617   2.742   4.720   1.061 -1.5824  1.3213  0.6179
  871TIP3   OH2 2618   2.864   0.561   3.997 -0.0970  0.0093 -0.0984
  871TIP3    H1 2619   2.804   0.600   4.061  1.3924  0.9230  0.7969
  871TIP3    H2 2620   2.938   0.530   4.049  1.1132  0.6992 -1.3433
  872TIP3   OH2 2621   4.210   0.246   4.635 -0.1443  0.4892  0.2738
  872TIP3    H1 2622   4.167   0.226   4.552 -1.6818  0.6130  1.0243
  872TIP3    H2 2623   4.181   0.335   4.656  0.9552  0.8115  0.5308
  873TIP3   OH2 2624   0.676   5.518   2.650 -0.1853 -0.4614 -0.0996
  873TIP3    H1 2625   0.647   5.578   2.718 -0.8600 -1.2831  0.3679
  873TIP3    H2 2626   0.680   5.433   2.694 -0.6400 -1.0089 -1.0888
  874TIP3   OH2 2627   4.899   2.137   2.619  0.2938  0.4103 -0.5778
  874TIP3    H1 2628   4.808   2.158   2.642  0.9305  2.5617  0.1423
  874TIP3    H2 2629   4.914   2.052   2.661 -1.9123 -0.9332 -2.2682
  875TIP3   OH2 2630   1.853   1.991   1.057 -0.2333  0.1709  0.5680
  875TIP3    H1 2631   1.864   1.902   1.022 -0.4924  0.7388 -1.0664
  875TIP3    H2 2632   1.866   2.048   0.981  0.1815  1.5550  1.6380
  876TIP3   OH2 2633   1.598   2.168   4.576 -0.3536  0.7082 -0.2082
  876TIP3    H1 2634   1.647   2.191   4.496 -2.9155  1.8517 -1.5695
  876TIP3    H2 2635   1.612   2.243   4.634 -0.8883  1.3027 -0.8197
  877TIP3   OH2 2636   5.138   5.392   1.265  0.1161 -0.2099  0.2858
  877TIP3    H1 2637   5.214   5.430   1.222  0.0371 -0.4176 -0.0375
  877TIP3    H2 2638   5.128   5.305   1.226 -1.5285  0.5887 -1.1816
  878TIP3   OH2 2639   4.888   5.301   3.976 -0.4289 -0.0403 -0.0234
  878TIP3    H1 2640   4.880   5.219   3.926 -0.0808 -0.1874  0.1628
  878TIP3    H2 2641   4.940   5.278   4.053  0.3444  0.5283 -0.3597
  879TIP3   OH2 2642   2.126   0.043   4.155  0.3471  0.4404  0.4876
  879TIP3    H1 2643   2.052   0.001   4.110  0.5768  0.6689 -0.1159
  879TIP3    H2 2644   2.123   0.008   4.244  1.1843 -1.7328 -0.2637
  880TIP3   OH2 2645   5.796   3.679   1.708 -0.3460  0.3642  0.1612
  880TIP3    H1 2646   5.879   3.704   1.666  0.2739 -0.2445  1.0072
  880TIP3    H2 2647   5.762   3.761   1.744 -0.2054  0.6449 -0.3310
  881TIP3   OH2 2648   5.727   4.311   1.298 -0.2027 -0.0604  0.1895
  881TIP3    H1 2649   5.656   4.348   1.245  0.4003  1.8385  0.6149
  881TIP3    H2 2650   5.692   4.229   1.330 -1.7745  0.2632 -0.5686
  882TIP3   OH2 2651   0.740   2.609   3.836 -0.1271 -0.3217  0.3377
  882TIP3    H1 2652   0.721   2.656   3.917  1.6519  0.5319  0.3026
  882TIP3    H2 2653   0.666   2.549   3.826 -1.3257  0.8524  1.5928
  883TIP3   OH2 2654   4.105   4.323   1.240 -0.5443 -0.4532  0.0725
  883TIP3    H1 2655   4.054   4.314   1.320  0.7135  4.4245  1.7864
  883TIP3    H2 2656   4.180   4.264   1.251  0.2687  0.9925  3.2548
  884TIP3   OH2 2657   2.754   3.809   4.975 -0.0412  0.3542 -0.0556
  884TIP3    H1 2658   2.702   3.858   4.911  0.9645  0.1523 -1.0522
  884TIP3    H2 2659   2.822   3.871   5.003 -1.7575  1.2249  2.5636
  885TIP3   OH2 2660   5.501   4.105   0.715 -0.7030  0.0907  0.3828
  885TIP3    H1 2661   5.568   4.038   0.701 -0.3034  0.6619 -0.5198
  885TIP3    H2 2662   5.418   4.059   0.700 -0.5529 -0.6686  1.6893
  886TIP3   OH2 2663   2.074   4.525   1.279 -0.6477  0.1347 -0.2942
  886TIP3    H1 2664   2.169   4.520   1.269 -0.6927 -0.3618 -0.5126
  886TIP3    H2 2665   2.056   4.474   1.358 -0.6929  0.6111  0.0090
  887TIP3   OH2 2666   3.484   0.131   4.578  0.5384 -0.2272  0.3031
  887TIP3    H1 2667   3.570   0.121   4.538 -0.6942 -1.0737 -2.4630
  887TIP3    H2 2668   3.429   0.066   4.534 -2.3033  2.5313 -0.7028
  888TIP3   OH2 2669   2.287   2.306   4.350  0.6089 -0.2368  0.6660
  888TIP3    H1 2670   2.262   2.389   4.310  0.0453  1.4278  4.1337
  888TIP3    H2 2671   2.212   2.281   4.404  1.0581 -2.6564  0.2778
  889TIP3   OH2 2672   5.115   0.124   1.298  0.5191  0.0948 -0.6174
  889TIP3    H1 2673   5.098   0.218   1.290 -1.5666  0.0306  1.6077
  889TIP3    H2 2674   5.195   0.118   1.350  1.0925  0.5918 -1.4151
  890TIP3   OH2 2675   3.646   3.992   4.704  0.6779 -0.1210 -0.2458
  890TIP3    H1 2676   3.723   4.041   4.732  1.1027 -0.8521 -0.0962
  890TIP3    H2 2677   3.639   4.010   4.610  0.6596  0.4441 -0.1407
  891TIP3   OH2 2678   3.784   5.878   1.594  0.2125  0.2339 -0.1636
  891TIP3    H1 2679   3.768   5.954   1.538 -0.9671 -0.9648 -1.5415
  891TIP3    H2 2680   3.879   5.864   1.589  0.0449 -0.5893 -2.9834
  892TIP3   OH2 2681   5.377   0.915   3.944  0.1364 -0.5255  0.3458
  892TIP3    H1 2682   5.389   0.927   4.038 -0.5895 -1.3430  0.5545
  892TIP3    H2 2683   5.282   0.922   3.931  0.3401  0.9990 -0.5435
  893TIP3   OH2 2684   1.943   4.419   4.467 -0.1475  0.2863  0.6373
  893TIP3    H1 2685   1.997   4.367   4.407 -0.1569 -0.5468  1.3280
  893TIP3    H2 2686   2.002   4.486   4.501 -0.2307  0.9884 -0.5535
  894TIP3   OH2 2687   0.013   3.906   2.578  0.0376 -0.4151  0.3809
  894TIP3    H1 2688   0.107   3.895   2.561  0.1265  0.0968  0.5162
  894TIP3    H2 2689  -0.021   3.817   2.581  0.7507 -0.6803  1.5864
  895TIP3   OH2 2690   0.755   3.050   5.059  0.8503 -0.3476  0.0646
  895TIP3    H1 2691   0.760   3.142   5.085 -0.2012 -0.2290 -0.0957
  895TIP3    H2 2692   0.678   3.046   5.002  2.2139 -0.8943 -1.8223
  896TIP3   OH2 2693   3.246   2.771   1.701 -0.3850 -0.3692 -0.5035
  896TIP3    H1 2694   3.245   2.865   1.682 -0.0978 -0.9800 -4.0896
  896TIP3    H2 2695   3.155   2.744   1.696 -0.4993 -0.3118  0.7823
  897TIP3   OH2 2696   5.473   1.536   2.774  0.3795 -0.0146  0.6588
  897TIP3    H1 2697   5.400   1.481   2.802 -1.3529  0.7190 -2.0527
  897TIP3    H2 2698   5.473   1.609   2.837  0.1141 -1.0387  1.8852
  898TIP3   OH2 2699   1.082   5.504   4.679  0.4168  0.3232  0.4371
  898TIP3    H1 2700   1.091   5.487   4.586 -0.9794  1.4714  0.0611
  898TIP3    H2 2701   1.019   5.576   4.685 -1.7834 -1.5954  2.3863
  899TIP3   OH2 2702   3.027   1.060   0.867 -0.2187  0.5196  0.4991
  899TIP3    H1 2703   3.071   1.059   0.782  1.9619 -1.3159  1.5015
  899TIP3    H2 2704   3.085   1.111   0.923 -0.6908  0.2087  1.2860
  900TIP3   OH2 2705   1.642   5.156   2.714  0.4764 -0.0245 -0.1809
  900TIP3    H1 2706   1.722   5.152   2.767 -0.5260  0.1555  1.4071
  900TIP3    H2 2707   1.571   5.159   2.778 -0.9309 -1.9997 -1.5357
  901TIP3   OH2 2708   0.853   5.479   4.119 -0.4782 -0.1552  0.3788
  901TIP3    H1 2709   0.937   5.493   4.075 -1.1467  0.6325 -0.7259
  901TIP3    H2 2710   0.810   5.564   4.114 -1.2320 -0.4828  1.1637
  902TIP3   OH2 2711   5.130   3.172   2.476  0.2551 -0.0503  0.3366
  902TIP3    H1 2712   5.113   3.140   2.564 -0.4543  1.4103  0.7678
  902TIP3    H2 2713   5.082   3.255   2.471  0.7765  0.1962 -1.2159
  903TIP3   OH2 2714   4.285   1.712   0.794  0.4949  0.1973  0.1754
  903TIP3    H1 2715   4.191   1.726   0.783  0.3523  0.9223  2.0143
  903TIP3    H2 2716   4.316   1.690   0.706 -1.4916 -0.7259 -0.3515
  904TIP3   OH2 2717   2.011   5.365   3.903  0.5584  0.1902 -0.4079
  904TIP3    H1 2718   1.930   5.318   3.883 -0.0285  1.1643 -0.3596
  904TIP3    H2 2719   2.044   5.323   3.982 -0.3114  0.2789  0.0126
  905TIP3   OH2 2720   1.024   3.885   1.264  0.1504  0.4761 -0.4732
  905TIP3    H1 2721   0.959   3.823   1.232  0.0951 -0.6233  1.6306
  905TIP3    H2 2722   1.105   3.834   1.269  1.6928  2.1357 -4.3442
  906TIP3   OH2 2723   5.386   4.577   3.045 -0.6989 -0.0885 -0.5104
  906TIP3    H1 2724   5.319   4.606   3.106 -0.9287  1.3956 -1.4168
  906TIP3    H2 2725   5.467   4.618   3.076 -0.0878 -2.0703  0.7272
  907TIP3   OH2 2726   0.529   2.230   5.165  0.2106  0.1045 -0.2029
  907TIP3    H1 2727   0.435   2.247   5.166  0.3378  0.8903 -0.9167
  907TIP3    H2 2728   0.569   2.316   5.170  0.8774 -0.0931 -1.6194
  908TIP3   OH2 2729   0.206   2.267   2.849  0.0861 -0.4085  0.3942
  908TIP3    H1 2730   0.212   2.232   2.760  0.7047  1.2494 -0.2422
  908TIP3    H2 2731   0.121   2.311   2.852  0.2042 -0.1868  0.5212
  909TIP3   OH2 2732   2.169   2.001   1.341 -0.3703  0.2662  0.1742
  909TIP3    H1 2733   2.148   2.032   1.429 -0.3702 -0.7365  0.5434
  909TIP3    H2 2734   2.147   2.074   1.284  2.0192  1.9508  1.2119
  910TIP3   OH2 2735   0.050   5.540   4.395  0.1833 -0.4417 -0.2433
  910TIP3    H1 2736   0.033   5.486   4.473  1.1991  0.1826  0.4364
  910TIP3    H2 2737   0.118   5.493   4.348  0.2872 -0.3080 -0.2268
  911TIP3   OH2 2738   2.196   3.084   0.652 -0.0636  0.1784 -0.1803
  911TIP3    H1 2739   2.105   3.054   0.657 -0.2317  0.7777  0.4808
  911TIP3    H2 2740   2.240   3.016   0.602 -0.3584 -1.3936  1.5762
  912TIP3   OH2 2741   0.626   5.842   0.689  0.8628 -0.2138 -0.1139
  912TIP3    H1 2742   0.632   5.774   0.756  1.3475  0.2279  0.2987
  912TIP3    H2 2743   0.581   5.915   0.732 -1.3593 -0.9317 -1.1050
  913TIP3   OH2 2744   4.380   0.591   4.124  0.9696  0.0092 -0.1785
  913TIP3    H1 2745   4.326   0.515   4.147  2.8244 -1.4415 -0.2641
  913TIP3    H2 2746   4.393   0.637   4.207 -1.0664  0.9324 -0.3075
  914TIP3   OH2 2747   1.955   3.859   0.566  0.3631  0.5095  0.3429
  914TIP3    H1 2748   1.983   3.842   0.476  1.8577  0.1206  0.8605
  914TIP3    H2 2749   1.933   3.772   0.600  1.6510  0.4042  0.9374
  915TIP3   OH2 2750   5.164   1.062   1.109 -0.0340  0.2678  0.0078
  915TIP3    H1 2751   5.091   1.087   1.166  0.4256 -0.3565  0.9069
  915TIP3    H2 2752   5.190   0.975   1.141  0.7278  0.2331 -0.6749
  916TIP3   OH2 2753   4.610   1.489   0.282  0.0435 -0.6612  0.1268
  916TIP3    H1 2754   4.520   1.521   0.277  0.4702  0.4166 -1.7566
  916TIP3    H2 2755   4.606   1.412   0.339 -1.9737 -0.3631  0.4358
  917TIP3   OH2 2756   0.584   0.209   4.834 -0.3585 -0.3333 -0.0189
  917TIP3    H1 2757   0.542   0.194   4.749 -0.8637  0.3684  0.1018
  917TIP3    H2 2758   0.627   0.126   4.854 -2.5644 -1.4608  0.3628
  918TIP3   OH2 2759   5.824   0.460   4.525 -0.1444 -0.5157  0.0530
  918TIP3    H1 2760   5.897   0.494   4.578 -0.2916 -1.0311  0.5987
  918TIP3    H2 2761   5.779   0.539   4.494 -0.4150 -0.1864  1.2135
  919TIP3   OH2 2762   0.922   4.468   1.956 -0.2366  0.0515 -0.1478
  919TIP3    H1 2763   0.989   4.534   1.973 -0.5246  0.3717 -0.2256
  919TIP3    H2 2764   0.854   4.485   2.021 -0.2036 -0.3300 -0.0100
  920TIP3   OH2 2765   4.260   2.230   4.195 -0.2054 -0.1091  0.0482
  920TIP3    H1 2766   4.261   2.204   4.287  0.3803 -0.9815 -0.1877
  920TIP3    H2 2767   4.175   2.271   4.182  0.2305  1.2969  1.3172
  921TIP3   OH2 2768   1.799   4.252   4.075  0.4114  0.2490 -0.0831
  921TIP3    H1 2769   1.724   4.232   4.019  0.7707 -0.7698 -0.2221
  921TIP3    H2 2770   1.807   4.347   4.072  1.2497  0.1867 -2.8975
  922TIP3   OH2 2771   2.751   3.017   3.741 -0.0871  0.1358  0.3246
  922TIP3    H1 2772   2.818   2.979   3.684  0.1595  0.3693  0.4573
  922TIP3    H2 2773   2.791   3.017   3.828 -0.3918 -0.0466  0.4668
  923TIP3   OH2 2774   4.265   3.733   4.895  0.4358 -0.5858 -0.5202
  923TIP3    H1 2775   4.280   3.690   4.811 -1.2039  0.1706 -1.2337
  923TIP3    H2 2776   4.235   3.821   4.872 -2.1577 -1.0502  0.7917
  924TIP3   OH2 2777   0.527   5.108   3.501  0.0911 -0.1812 -0.5288
  924TIP3    H1 2778   0.579   5.173   3.549  1.0551 -0.9755 -0.4758
  924TIP3    H2 2779   0.444   5.153   3.484 -1.2035 -0.4776  3.7001
  925TIP3   OH2 2780   5.043   3.215   4.321 -0.0411 -0.2870 -0.2219
  925TIP3    H1 2781   5.059   3.167   4.241 -0.6867 -1.0132  0.0721
  925TIP3    H2 2782   4.956   3.253   4.309 -0.1243 -0.3664  0.1159
  926TIP3   OH2 2783   1.479   5.241   2.955  0.0974  0.0927 -0.2416
  926TIP3    H1 2784   1.543   5.183   2.995  0.4022  1.1939  0.9296
  926TIP3    H2 2785   1.405   5.241   3.016  0.8440  2.3185  0.7685
  927TIP3   OH2 2786   1.894   5.645   0.146 -0.2427 -0.0513  0.2046
  927TIP3    H1 2787   1.866   5.707   0.079  2.4828 -0.3545 -1.3357
  927TIP3    H2 2788   1.940   5.700   0.211 -0.5358 -0.0986  0.4557
  928TIP3   OH2 2789   5.458   5.805   4.316  0.1762  0.2082 -0.0566
  928TIP3    H1 2790   5.422   5.846   4.395 -1.6616 -0.5233 -0.4602
  928TIP3    H2 2791   5.445   5.871   4.248  1.7586  0.8371  0.2004
  929TIP3   OH2 2792   5.241   1.499   1.865 -0.1623  0.2710  0.3418
  929TIP3    H1 2793   5.268   1.409   1.881 -2.2757 -0.4603  0.0880
  929TIP3    H2 2794   5.298   1.530   1.795 -0.1738 -1.2616 -0.3718
  930TIP3   OH2 2795   0.601   2.704   3.042  0.6207  0.9790 -0.1266
  930TIP3    H1 2796   0.685   2.718   2.997 -1.3093  3.4054 -3.4540
  930TIP3    H2 2797   0.579   2.613   3.022  1.7796  0.7376 -0.4247
  931TIP3   OH2 2798   0.145   4.346   4.081 -0.0488  0.2028 -0.1773
  931TIP3    H1 2799   0.219   4.347   4.141  0.4786 -0.0228 -0.8140
  931TIP3    H2 2800   0.158   4.267   4.029 -2.1916 -1.3749  1.4938
  932TIP3   OH2 2801   6.180   4.926   4.335 -0.2250 -0.6289  0.3412
  932TIP3    H1 2802   6.091   4.937   4.302 -0.4076 -0.7054  0.7987
  932TIP3    H2 2803   6.171   4.932   4.430  0.2829 -0.4716  0.3817
  933TIP3   OH2 2804   3.337   1.542   0.167  0.5154 -0.6942 -0.0426
  933TIP3    H1 2805   3.335   1.449   0.188  2.3340 -0.8570 -0.4203
  933TIP3    H2 2806   3.249   1.561   0.136  0.2266 -2.4100 -0.4058
  934TIP3   OH2 2807   1.674   0.629   4.652  0.1094  0.5234 -0.5080
  934TIP3    H1 2808   1.735   0.697   4.680  0.3277  0.2105 -0.2215
  934TIP3    H2 2809   1.603   0.632   4.716  0.0070  0.6333 -0.6258
  935TIP3   OH2 2810   0.617   1.479   0.777 -0.0572 -0.4452  0.0031
  935TIP3    H1 2811   0.621   1.565   0.734 -2.7116  0.0901  0.5973
  935TIP3    H2 2812   0.698   1.472   0.826  0.4065  1.5639 -0.3947
  936TIP3   OH2 2813   2.400   1.626   0.351 -0.0153  0.1093  0.1862
  936TIP3    H1 2814   2.361   1.631   0.264  0.0139  1.2849  0.2349
  936TIP3    H2 2815   2.473   1.687   0.349 -0.2781  0.4816  1.1757
  937TIP3   OH2 2816   5.635   5.735   0.944 -0.5993 -0.1521 -0.3137
  937TIP3    H1 2817   5.544   5.744   0.918 -0.8090 -0.6644  0.2291
  937TIP3    H2 2818   5.657   5.644   0.926 -1.3276 -1.0892  2.9899
  938TIP3   OH2 2819   3.202   2.949   4.824 -0.1070  0.1364  0.0935
  938TIP3    H1 2820   3.174   2.864   4.856 -0.1201 -0.1597 -0.6645
  938TIP3    H2 2821   3.174   2.950   4.732  0.5131  0.6659 -0.1018
  939TIP3   OH2 2822   4.368   3.029   1.754 -0.3737  0.6238  0.0641
  939TIP3    H1 2823   4.310   3.104   1.749 -0.8474  0.2238 -0.9384
  939TIP3    H2 2824   4.364   3.000   1.845  0.0658  1.9792  0.5392
  940TIP3   OH2 2825   3.389   2.516   3.089  0.4739 -0.4176 -0.0112
  940TIP3    H1 2826   3.465   2.458   3.089 -0.5298 -2.0260 -3.8775
  940TIP3    H2 2827   3.314   2.458   3.077 -1.0913  1.3712  0.5884
  941TIP3   OH2 2828   4.512   5.075   4.643 -0.2943  0.3989 -0.1414
  941TIP3    H1 2829   4.505   5.115   4.730  0.7595  1.5758 -0.5693
  941TIP3    H2 2830   4.478   4.986   4.655 -0.7523  0.7394  1.3222
  942TIP3   OH2 2831   2.419   2.761   2.980 -0.4941 -0.5072  0.2237
  942TIP3    H1 2832   2.346   2.722   3.028 -0.9620 -1.0122 -0.8653
  942TIP3    H2 2833   2.415   2.721   2.894  0.3007  0.4151 -0.2605
  943TIP3   OH2 2834   2.389   4.083   4.576 -0.1894 -0.2599 -0.3820
  943TIP3    H1 2835   2.415   4.122   4.660  1.2683  1.6430 -1.6238
  943TIP3    H2 2836   2.400   3.989   4.590  0.4344  0.0310  1.4264
  944TIP3   OH2 2837   5.596   0.235   1.255 -0.2166  0.0365 -0.0610
  944TIP3    H1 2838   5.678   0.284   1.250  1.0292 -1.8644  0.6698
  944TIP3    H2 2839   5.575   0.215   1.164  0.7497 -0.4013 -0.2048
  945TIP3   OH2 2840   0.201   4.721   4.802  0.6873  0.3958  0.0270
  945TIP3    H1 2841   0.209   4.672   4.884  0.5276 -0.3617 -0.3999
  945TIP3    H2 2842   0.247   4.668   4.738 -0.4613  0.2173 -0.6836
  946TIP3   OH2 2843   5.144   5.131   2.537  0.4659  0.3753  0.6495
  946TIP3    H1 2844   5.088   5.055   2.522 -0.3492  1.4239 -2.3370
  946TIP3    H2 2845   5.177   5.119   2.626 -1.3840 -2.2937  1.1055
  947TIP3   OH2 2846   5.311   3.032   1.716  0.3782 -0.6458  0.5414
  947TIP3    H1 2847   5.359   3.108   1.683  1.3808 -1.1246  0.8675
  947TIP3    H2 2848   5.296   2.977   1.639  2.1907 -1.4760  0.7349
  948TIP3   OH2 2849   4.757   2.267   3.765 -0.0591 -0.1799 -0.0531
  948TIP3    H1 2850   4.706   2.248   3.844  0.2640 -1.6364 -0.1628
  948TIP3    H2 2851   4.694   2.260   3.694 -0.0512 -0.3597 -0.0441
  949TIP3   OH2 2852   0.590   0.456   4.526 -0.2490  0.1448 -0.1070
  949TIP3    H1 2853   0.605   0.537   4.478 -1.1025  0.0039 -0.6237
  949TIP3    H2 2854   0.672   0.407   4.517  0.3535  1.0118  0.3754
  950TIP3   OH2 2855   3.727   5.858   3.109 -0.4110  0.2831  1.0299
  950TIP3    H1 2856   3.770   5.773   3.116 -0.4516  0.3699  2.9107
  950TIP3    H2 2857   3.654   5.853   3.171 -0.0684  1.8607  1.6009
  951TIP3   OH2 2858   0.657   0.034   3.251  0.0032  0.5916 -0.3137
  951TIP3    H1 2859   0.629  -0.057   3.259 -0.3790  0.5921 -1.5024
  951TIP3    H2 2860   0.578   0.085   3.268  0.3751  0.7444  1.0836
  952TIP3   OH2 2861   3.019   2.449   3.802 -0.5379 -0.8314 -0.1838
  952TIP3    H1 2862   2.955   2.377   3.801 -2.6819  0.8680  1.5135
  952TIP3    H2 2863   2.982   2.514   3.743  0.1062 -0.1561  0.1470
  953TIP3   OH2 2864   1.588   4.919   1.857 -0.3774 -0.6135  0.4073
  953TIP3    H1 2865   1.533   4.957   1.925  0.5460 -0.1533  0.9242
  953TIP3    H2 2866   1.528   4.871   1.801 -1.5485  1.3722 -0.0980
  954TIP3   OH2 2867   5.217   1.191   4.739  0.4543  0.1227  0.3780
  954TIP3    H1 2868   5.283   1.237   4.687  1.0130 -0.1619  0.8216
  954TIP3    H2 2869   5.185   1.257   4.801 -0.6839  0.6490 -0.7195
  955TIP3   OH2 2870   4.592   2.513   4.682  0.2237  0.0763 -0.1366
  955TIP3    H1 2871   4.574   2.521   4.775 -0.4383 -1.1068 -0.1406
  955TIP3    H2 2872   4.594   2.419   4.666 -0.1293  0.2615 -1.3978
  956TIP3   OH2 2873   2.077   3.956   1.953  0.6969 -0.1976  0.0154
  956TIP3    H1 2874   1.995   3.931   1.994  1.2902  0.2733  1.5703
  956TIP3    H2 2875   2.111   4.027   2.008  2.7089 -1.1747  0.1312
  957TIP3   OH2 2876   3.578   1.086   3.338 -0.3833 -0.3817  0.5709
  957TIP3    H1 2877   3.620   1.095   3.423 -1.2855 -1.5527  1.1670
  957TIP3    H2 2878   3.594   1.169   3.294  1.5911 -0.3824  1.1959
  958TIP3   OH2 2879   5.335   2.336   1.481 -0.0566  0.2184  0.0211
  958TIP3    H1 2880   5.339   2.241   1.469 -1.7898  0.3117 -1.8467
  958TIP3    H2 2881   5.412   2.370   1.433  1.1600 -0.2443  1.5651
  959TIP3   OH2 2882   0.009   5.745   4.688  0.2669 -0.1189  0.1439
  959TIP3    H1 2883   0.056   5.679   4.740 -1.6646 -2.7889 -1.2407
  959TIP3    H2 2884   0.057   5.748   4.605  0.0988 -0.0901  0.0485
  960TIP3   OH2 2885   5.548   1.764   3.185 -0.5103 -0.6371  0.6842
  960TIP3    H1 2886   5.597   1.725   3.257  0.7537  0.8040  0.6409
  960TIP3    H2 2887   5.598   1.841   3.160 -2.4806  0.5541  0.2036
  961TIP3   OH2 2888   0.443   0.577   4.935  0.4242  0.6251 -0.4790
  961TIP3    H1 2889   0.424   0.580   4.842 -1.1693  3.3968 -0.2011
  961TIP3    H2 2890   0.363   0.541   4.975  0.7310  0.3248 -0.1302
  962TIP3   OH2 2891   5.206   0.092   5.170 -0.5997  0.1490 -0.1555
  962TIP3    H1 2892   5.149   0.015   5.171  0.7055 -0.9473  2.9034
  962TIP3    H2 2893   5.282   0.064   5.119 -0.7634 -0.0550 -0.2929
  963TIP3   OH2 2894   3.413   5.116   4.553 -0.2937  0.5943 -0.1784
  963TIP3    H1 2895   3.463   5.114   4.471  1.2489 -1.4706  0.7234
  963TIP3    H2 2896   3.322   5.117   4.525  0.1801  1.9634 -1.8842
  964TIP3   OH2 2897   2.129   4.065   0.530  0.6033 -0.0175  0.5563
  964TIP3    H1 2898   2.087   4.149   0.511  0.3875 -0.4250 -0.8836
  964TIP3    H2 2899   2.057   4.005   0.549  0.8304  0.5057  3.4711
  965TIP3   OH2 2900   0.522   0.542   2.624 -0.3341  0.7978  0.1233
  965TIP3    H1 2901   0.542   0.633   2.649 -0.9461  0.6867  1.0771
  965TIP3    H2 2902   0.589   0.490   2.667  0.6843  0.8549 -1.3161
  966TIP3   OH2 2903   4.758   4.858   2.580  0.1076 -0.3372  0.4818
  966TIP3    H1 2904   4.697   4.796   2.541  0.2136 -2.1314  2.9228
  966TIP3    H2 2905   4.756   4.934   2.521 -0.8387 -2.1841 -2.0625
  967TIP3   OH2 2906   5.171   0.290   3.518 -0.1970 -0.3074 -0.9411
  967TIP3    H1 2907   5.223   0.232   3.573 -0.0540  0.6413 -0.0558
  967TIP3    H2 2908   5.202   0.273   3.429 -0.9662 -2.4105 -0.8549
  968TIP3   OH2 2909   0.196   3.589   3.120 -0.2932  0.5522  0.1084
  968TIP3    H1 2910   0.108   3.562   3.144 -0.9581  3.2278  1.0287
  968TIP3    H2 2911   0.253   3.521   3.156 -1.9223 -1.0242 -0.1621
  969TIP3   OH2 2912   1.427   2.503   2.857  0.3772  0.2369  0.5703
  969TIP3    H1 2913   1.482   2.469   2.928  1.6747  0.6095 -0.2089
  969TIP3    H2 2914   1.338   2.495   2.889  0.9449  0.6851  2.3633
  970TIP3   OH2 2915   1.654   2.000   4.066 -0.2310  0.0551  0.2586
  970TIP3    H1 2916   1.617   2.083   4.097  0.8547  1.3135 -1.6213
  970TIP3    H2 2917   1.709   1.969   4.139 -1.4595  0.4041  1.3787
  971TIP3   OH2 2918   6.296   4.337   4.902  0.3570  0.6451 -0.2095
  971TIP3    H1 2919   6.332   4.287   4.829  0.8014  2.3912 -1.2143
  971TIP3    H2 2920   6.286   4.426   4.869 -2.0344  0.9109  0.9826
  972TIP3   OH2 2921   0.833   1.494   0.946 -0.2248 -0.7179  0.3279
  972TIP3    H1 2922   0.909   1.436   0.937  1.2163  0.8594  1.7275
  972TIP3    H2 2923   0.812   1.491   1.039 -0.1078  0.9954  0.4286
  973TIP3   OH2 2924   4.679   1.194   2.457 -0.0151  0.2736 -0.6960
  973TIP3    H1 2925   4.677   1.276   2.507  1.1395  0.0606 -0.2647
  973TIP3    H2 2926   4.594   1.154   2.474  1.3066 -1.2655  3.6877
  974TIP3   OH2 2927   3.578   2.944   2.890 -0.3361  0.5919 -0.0363
  974TIP3    H1 2928   3.527   2.979   2.817  0.8549  0.2256 -1.0968
  974TIP3    H2 2929   3.524   2.873   2.926  0.3278 -1.4164 -2.6642
  975TIP3   OH2 2930   1.053   3.624   2.419 -0.0528 -0.1097  1.2214
  975TIP3    H1 2931   1.057   3.537   2.378 -0.1024 -0.6463  2.3246
  975TIP3    H2 2932   0.962   3.632   2.447 -0.3888  0.8814 -0.0707
  976TIP3   OH2 2933   1.929   1.947   4.759 -0.1005 -0.1535 -0.0247
  976TIP3    H1 2934   1.931   2.038   4.731  1.6218 -0.3011 -0.5169
  976TIP3    H2 2935   1.974   1.947   4.844  1.1514 -0.6983 -0.6558
  977TIP3   OH2 2936   5.997   2.720   3.178 -0.3773 -0.1864  0.2745
  977TIP3    H1 2937   6.012   2.763   3.262 -0.1841  0.2014  0.0478
  977TIP3    H2 2938   6.049   2.640   3.181  0.0933  0.1158  0.3015
  978TIP3   OH2 2939   5.155   2.580   3.270  0.5007  0.4608 -0.2519
  978TIP3    H1 2940   5.183   2.490   3.253  3.0254  0.8292  1.4086
  978TIP3    H2 2941   5.156   2.622   3.184  0.2185 -0.8419 -0.9162
  979TIP3   OH2 2942   0.972   5.862   2.269 -0.0016 -0.1745 -0.5488
  979TIP3    H1 2943   1.006   5.817   2.346  0.9590  1.3851 -0.0218
  979TIP3    H2 2944   1.045   5.915   2.237 -0.6265 -0.1429 -2.0552
  980TIP3   OH2 2945   3.174   4.268   1.576  0.5058 -0.2826 -0.2237
  980TIP3    H1 2946   3.086   4.302   1.591  0.1709 -1.7617  1.5331
  980TIP3    H2 2947   3.161   4.191   1.521  0.6337 -0.7513  0.3896
  981TIP3   OH2 2948   2.650   4.288   1.930  0.9558  1.0635  0.1452
  981TIP3    H1 2949   2.601   4.344   1.990  0.5920  1.0398 -0.1235
  981TIP3    H2 2950   2.596   4.286   1.851 -0.4046 -1.8192  1.0395
  982TIP3   OH2 2951   5.168   3.467   2.553  0.0202 -0.4547  0.0944
  982TIP3    H1 2952   5.174   3.433   2.463  0.0981 -1.5872  0.5158
  982TIP3    H2 2953   5.080   3.505   2.558  0.0858 -0.2119 -0.5182
  983TIP3   OH2 2954   5.326   3.350   3.457  0.3257 -0.1781 -0.4143
  983TIP3    H1 2955   5.351   3.353   3.549  0.5036 -1.9952 -0.3694
  983TIP3    H2 2956   5.408   3.365   3.409  0.0670  1.7750 -0.3197
  984TIP3   OH2 2957   6.094   2.482   4.240 -0.0469 -0.4995  0.9021
  984TIP3    H1 2958   6.031   2.549   4.269 -0.8629 -1.0307  0.3877
  984TIP3    H2 2959   6.142   2.523   4.168 -0.4608 -0.4184  0.6694
  985TIP3   OH2 2960   5.436   3.861   3.071 -0.3138  0.3609  0.5810
  985TIP3    H1 2961   5.455   3.955   3.067 -1.7391  0.6943  1.0306
  985TIP3    H2 2962   5.345   3.856   3.101 -0.5394 -1.1474 -0.2565
  986TIP3   OH2 2963   3.139   4.304   5.087 -0.1724  0.4040 -0.3333
  986TIP3    H1 2964   3.139   4.261   5.002  0.0790  0.4806 -0.3729
  986TIP3    H2 2965   3.199   4.378   5.076 -0.6585  0.8104 -0.2924
  987TIP3   OH2 2966   3.881   4.599   3.063 -0.4439 -0.0832 -0.2289
  987TIP3    H1 2967   3.926   4.514   3.063  1.2180  0.7594  0.3513
  987TIP3    H2 2968   3.808   4.587   3.003 -0.4748 -2.0390  0.1200
  988TIP3   OH2 2969   0.514   4.500   1.476 -0.9787 -0.1476  0.2658
  988TIP3    H1 2970   0.447   4.468   1.537 -1.7949 -0.9897 -0.9993
  988TIP3    H2 2971   0.502   4.445   1.398 -0.8717  1.7443 -1.1523
  989TIP3   OH2 2972   4.865   0.612   2.604  0.2111  0.5969  0.1752
  989TIP3    H1 2973   4.814   0.553   2.661  1.2247  0.3571  0.8573
  989TIP3    H2 2974   4.841   0.700   2.632 -0.0421  0.4893  0.2973
  990TIP3   OH2 2975   2.578   5.274   2.538  0.0088 -0.0033 -0.4482
  990TIP3    H1 2976   2.634   5.285   2.461  0.7543 -1.6920 -0.1777
  990TIP3    H2 2977   2.499   5.324   2.517  0.1859 -0.4487 -2.3084
  991TIP3   OH2 2978   0.514   5.221   0.496  0.2924 -0.0208  0.1936
  991TIP3    H1 2979   0.421   5.222   0.472  0.4321  0.7245 -0.3563
  991TIP3    H2 2980   0.524   5.293   0.558  0.7952  0.9316 -0.9578
  992TIP3   OH2 2981   5.837   5.229   0.707 -0.3709  0.0845  0.0968
  992TIP3    H1 2982   5.778   5.179   0.650  0.1590  0.5470 -0.8868
  992TIP3    H2 2983   5.861   5.167   0.776 -1.1605 -0.4404 -0.0817
  993TIP3   OH2 2984   1.770   4.285   1.080 -0.4378  0.0821 -0.2408
  993TIP3    H1 2985   1.751   4.259   0.989 -1.2551 -0.4967  0.0850
  993TIP3    H2 2986   1.801   4.204   1.121 -0.7343  0.1795  0.1755
  994TIP3   OH2 2987   1.751   2.002   3.633 -0.3159 -0.2676  0.1978
  994TIP3    H1 2988   1.736   1.948   3.556 -2.9674 -1.7938  1.6493
  994TIP3    H2 2989   1.829   1.965   3.674 -0.2121 -0.8744 -0.5281
  995TIP3   OH2 2990   1.020   4.334   4.549 -0.3761 -0.2414  0.4616
  995TIP3    H1 2991   1.039   4.313   4.458 -0.1372 -4.0982  1.2366
  995TIP3    H2 2992   0.934   4.376   4.547 -1.0187 -1.5562 -1.4385
  996TIP3   OH2 2993   5.913   1.141   2.719  0.0617 -0.5368  0.1957
  996TIP3    H1 2994   5.974   1.213   2.738 -0.7764  0.4135 -0.6177
  996TIP3    H2 2995   5.889   1.153   2.627 -0.4319 -1.6136  0.1643
  997TIP3   OH2 2996   3.585   5.009   1.560  0.0758  0.6252  0.1221
  997TIP3    H1 2997   3.609   5.009   1.467  1.0710 -0.2154  0.3553
  997TIP3    H2 2998   3.491   4.992   1.560 -0.2520  2.2333 -0.7717
  998TIP3   OH2 2999   1.126   0.608   3.433  0.2791 -0.6686 -0.1099
  998TIP3    H1 3000   1.221   0.605   3.440  0.4922  1.5561 -1.2656
  998TIP3    H2 3001   1.108   0.611   3.339 -0.8745 -0.1257  0.1028
  999TIP3   OH2 3002   4.677   4.151   2.756 -0.0223 -1.4130  0.1176
  999TIP3    H1 3003   4.613   4.148   2.827  1.6174 -3.0795  1.6207
  999TIP3    H2 3004   4.636   4.102   2.685 -1.6630  0.2401 -0.1720
 1000TIP3   OH2 3005   4.251   0.880   2.563  0.8091 -0.3473 -0.1030
 1000TIP3    H1 3006   4.253   0.819   2.636  1.7336  0.1416  0.2890
 1000TIP3    H2 3007   4.202   0.834   2.495 -0.8538 -0.4589  1.1181
 1001TIP3   OH2 3008   5.623   4.248   1.604  0.9756  0.8409 -0.0983
 1001TIP3    H1 3009   5.666   4.323   1.563  1.3294  1.5101  1.3936
 1001TIP3    H2 3010   5.607   4.277   1.694 -0.9599 -0.0628 -0.1061
 1002TIP3   OH2 3011   1.461   4.377   4.279 -0.1705  0.0860 -0.8345
 1002TIP3    H1 3012   1.502   4.460   4.304 -0.5418  0.1070 -0.2542
 1002TIP3    H2 3013   1.529   4.311   4.292 -0.5883 -0.0319  1.1808
 1003TIP3   OH2 3014   3.931   1.175   3.820 -0.7184 -0.4337  0.3903
 1003TIP3    H1 3015   3.877   1.251   3.844  0.3594  0.4372  0.1175
 1003TIP3    H2 3016   3.952   1.133   3.904 -3.3940 -1.9590  0.4173
 1004TIP3   OH2 3017   1.789   4.740   0.115  0.0164 -0.8141  0.1727
 1004TIP3    H1 3018   1.714   4.799   0.127 -0.3930 -1.7044  2.6210
 1004TIP3    H2 3019   1.859   4.798   0.085 -1.0876  0.4272 -0.1311
 1005TIP3   OH2 3020   3.524   4.001   2.099 -0.0914  0.5451  0.4128
 1005TIP3    H1 3021   3.504   3.926   2.154 -2.3142 -2.3927 -3.8838
 1005TIP3    H2 3022   3.442   4.050   2.094  0.0288  0.6782 -0.3940
 1006TIP3   OH2 3023   2.582   1.224   3.042  0.0171 -0.3645 -0.2927
 1006TIP3    H1 3024   2.491   1.217   3.071  0.4046 -0.8166  0.8678
 1006TIP3    H2 3025   2.583   1.184   2.955 -0.9304 -0.1535 -0.4102
 1007TIP3   OH2 3026   0.539   2.588   1.174  0.2802 -0.7231  0.4635
 1007TIP3    H1 3027   0.503   2.660   1.225  1.3760 -0.8595  1.4914
 1007TIP3    H2 3028   0.600   2.630   1.113 -1.6785 -0.4685 -1.4356
 1008TIP3   OH2 3029   5.548   1.485   2.122 -0.0041 -0.3653  0.3689
 1008TIP3    H1 3030   5.557   1.545   2.048 -0.7410 -1.2378 -0.4546
 1008TIP3    H2 3031   5.476   1.427   2.097  1.2292 -2.1503  0.7452
 1009TIP3   OH2 3032   4.740   5.141   1.152 -0.2137 -0.4905  0.0456
 1009TIP3    H1 3033   4.692   5.061   1.172 -2.5520  1.0325  1.0205
 1009TIP3    H2 3034   4.692   5.181   1.080 -0.7443  1.2877  1.3140
 1010TIP3   OH2 3035   0.797   0.404   0.888 -0.0690 -0.0405 -0.6358
 1010TIP3    H1 3036   0.764   0.403   0.798 -0.4360  1.1151 -0.5221
 1010TIP3    H2 3037   0.891   0.391   0.879  0.1153  1.5308 -1.3036
 1011TIP3   OH2 3038   0.845   1.191   3.871 -0.2108  0.0428 -0.1343
 1011TIP3    H1 3039   0.852   1.116   3.812 -0.7201  0.3060 -0.5411
 1011TIP3    H2 3040   0.841   1.267   3.812 -3.4092  0.1488  0.0556
 1012TIP3   OH2 3041   0.801   1.087   1.351  0.0872  0.1052 -0.0096
 1012TIP3    H1 3042   0.874   1.065   1.410  1.2567  0.4065 -1.2966
 1012TIP3    H2 3043   0.749   1.007   1.348  1.3183 -0.7150 -0.3998
 1013TIP3   OH2 3044   3.307   2.577   3.855  0.0846  0.6789 -0.0002
 1013TIP3    H1 3045   3.221   2.538   3.870  1.3313 -1.5507  1.9969
 1013TIP3    H2 3046   3.319   2.573   3.760 -1.4536 -0.2310 -0.1818
 1014TIP3   OH2 3047   5.005   1.294   4.360 -0.0449 -0.0379 -0.0567
 1014TIP3    H1 3048   5.045   1.355   4.297  1.2334 -0.5853  0.1931
 1014TIP3    H2 3049   5.002   1.344   4.442 -0.4545  0.2151 -0.2224
 1015TIP3   OH2 3050   4.272   3.000   0.648  0.1780  0.2752  0.3421
 1015TIP3    H1 3051   4.336   3.061   0.683 -0.0799  1.0771 -0.5599
 1015TIP3    H2 3052   4.320   2.918   0.637  0.4489  0.2079  1.8476
 1016TIP3   OH2 3053   4.023   4.432   1.007 -0.2009  0.1298  0.1334
 1016TIP3    H1 3054   4.029   4.527   1.022 -0.8427  0.5423 -1.8223
 1016TIP3    H2 3055   4.036   4.393   1.093 -2.1120  2.0787  1.4111
 1017TIP3   OH2 3056   2.401   3.808   4.688  0.3498  0.1025 -0.1278
 1017TIP3    H1 3057   2.435   3.718   4.695  0.6207  0.2277  0.2015
 1017TIP3    H2 3058   2.306   3.798   4.693  0.4176 -0.0619  1.3128
 1018TIP3   OH2 3059   2.776   5.612   3.736  0.0101 -0.3609  0.2369
 1018TIP3    H1 3060   2.699   5.585   3.786 -1.9428  1.3016 -1.6404
 1018TIP3    H2 3061   2.752   5.596   3.645  1.4336  1.2714 -0.4894
 1019TIP3   OH2 3062   3.633   5.058   0.207 -0.1067 -0.0244 -0.5508
 1019TIP3    H1 3063   3.608   4.992   0.143 -2.5740  0.4988 -0.2343
 1019TIP3    H2 3064   3.634   5.011   0.291 -0.2862 -0.0002 -0.5345
 1020TIP3   OH2 3065   3.233   0.619   0.536 -0.4658  0.1568 -0.5388
 1020TIP3    H1 3066   3.230   0.544   0.595  2.2436 -0.1790 -0.7009
 1020TIP3    H2 3067   3.141   0.641   0.521 -1.3236 -0.3239  2.9990
 1021TIP3   OH2 3068   1.851   2.099   1.314  0.4169  0.1484  0.1357
 1021TIP3    H1 3069   1.764   2.135   1.326 -0.5629 -2.3704  1.1164
 1021TIP3    H2 3070   1.851   2.066   1.224 -0.7263 -2.3041  0.9319
 1022TIP3   OH2 3071   3.065   5.024   1.355  0.0934 -0.6082  0.7475
 1022TIP3    H1 3072   3.045   4.932   1.344 -1.3706 -0.1641 -0.7216
 1022TIP3    H2 3073   3.013   5.051   1.430 -0.5963 -0.6912  0.3127
 1023TIP3   OH2 3074   4.150   1.724   1.103  0.1146  0.5046  0.1586
 1023TIP3    H1 3075   4.107   1.809   1.094  0.6105  0.9049  1.3617
 1023TIP3    H2 3076   4.091   1.673   1.159 -0.5899 -0.2605 -1.2271
 1024TIP3   OH2 3077   1.586   4.131   0.112 -0.0143 -0.1027 -0.0002
 1024TIP3    H1 3078   1.531   4.209   0.113  0.1644  0.1226 -2.3587
 1024TIP3    H2 3079   1.534   4.065   0.157 -1.2080  0.7172 -0.1233
 1025TIP3   OH2 3080   2.223   4.316   3.796  0.0301 -0.1492  0.4622
 1025TIP3    H1 3081   2.313   4.341   3.774  0.1795 -0.6448  0.5005
 1025TIP3    H2 3082   2.182   4.296   3.712 -0.2509  0.7235  0.3770
 1026TIP3   OH2 3083   2.776   1.787   1.697 -0.5367 -0.4575  0.1809
 1026TIP3    H1 3084   2.700   1.793   1.756 -0.6252  0.5766 -0.0135
 1026TIP3    H2 3085   2.838   1.852   1.732 -0.5371  0.0691 -0.7782
 1027TIP3   OH2 3086   3.511   2.694   2.094 -0.2385 -0.1510 -0.1503
 1027TIP3    H1 3087   3.508   2.786   2.122 -1.3407 -0.1013 -0.3512
 1027TIP3    H2 3088   3.528   2.699   2.000  0.6406 -0.2015 -0.0019
 1028TIP3   OH2 3089   4.919   5.442   0.090  0.6431 -0.4328 -0.1472
 1028TIP3    H1 3090   4.929   5.493   0.010  0.4150  1.0993  0.7622
 1028TIP3    H2 3091   4.915   5.351   0.061  0.7167  0.0871 -1.8478
 1029TIP3   OH2 3092   5.704   1.933   0.819  0.1754 -0.5776 -0.2830
 1029TIP3    H1 3093   5.694   1.975   0.904  3.5281 -2.5638  1.3095
 1029TIP3    H2 3094   5.618   1.896   0.800 -1.1413  1.4332  1.3072
 1030TIP3   OH2 3095   2.438   4.352   1.452  0.1002 -0.2279 -0.4043
 1030TIP3    H1 3096   2.515   4.296   1.443  2.4620  1.4837  4.9953
 1030TIP3    H2 3097   2.385   4.309   1.519 -0.0438  1.9089  0.9424
 1031TIP3   OH2 3098   2.307   2.845   0.533  0.4681  0.2787 -0.4764
 1031TIP3    H1 3099   2.249   2.830   0.459  0.0929  0.3433 -0.1967
 1031TIP3    H2 3100   2.384   2.791   0.515  0.1996 -0.0284 -0.7072
 1032TIP3   OH2 3101   5.673   3.715   4.635  0.3615 -0.2256  0.5768
 1032TIP3    H1 3102   5.689   3.689   4.726 -0.2280 -1.3283  0.3838
 1032TIP3    H2 3103   5.622   3.796   4.643  1.8356  0.6833  1.1981
 1033TIP3   OH2 3104   5.688   5.716   4.640  0.0006  0.3648  0.3071
 1033TIP3    H1 3105   5.600   5.694   4.608 -0.4172  0.8110  1.1075
 1033TIP3    H2 3106   5.747   5.664   4.586 -0.7972 -0.4784  0.2185
 1034TIP3   OH2 3107   4.651   3.600   4.586  0.1640 -0.7093 -0.2540
 1034TIP3    H1 3108   4.663   3.558   4.501 -0.5098 -1.0719 -0.1742
 1034TIP3    H2 3109   4.585   3.547   4.630 -0.8645  0.5538 -0.2334
 1035TIP3   OH2 3110   2.093   5.500   4.798 -0.3051  0.1863  0.2822
 1035TIP3    H1 3111   2.155   5.467   4.733 -0.0370 -0.6234  0.9427
 1035TIP3    H2 3112   2.108   5.595   4.800  0.1432  0.1328 -0.3496
 1036TIP3   OH2 3113   2.287   0.990   1.237 -0.6238  0.1160 -0.1141
 1036TIP3    H1 3114   2.333   0.941   1.168 -0.6600 -3.1855  1.9790
 1036TIP3    H2 3115   2.202   1.010   1.198 -0.5604 -1.4562 -1.1713
 1037TIP3   OH2 3116   1.010   5.601   3.694 -0.0977 -0.0899  0.1024
 1037TIP3    H1 3117   1.031   5.537   3.762  0.0300  1.7218  1.8407
 1037TIP3    H2 3118   0.915   5.613   3.701  0.1472  1.4002  1.2105
 1038TIP3   OH2 3119   2.174   2.839   4.247 -0.2924 -0.3222  0.5206
 1038TIP3    H1 3120   2.255   2.835   4.196 -0.3441 -0.8047  0.4739
 1038TIP3    H2 3121   2.145   2.930   4.238 -0.6094 -0.5296 -0.7996
 1039TIP3   OH2 3122   5.029   2.028   0.943 -0.1601  0.0064  0.3480
 1039TIP3    H1 3123   5.097   2.018   1.010  0.9166 -2.0708 -0.9656
 1039TIP3    H2 3124   5.063   2.096   0.885 -1.4757  2.4388  2.2151
 1040TIP3   OH2 3125   4.873   1.673   4.492  0.0060 -1.0301  0.0734
 1040TIP3    H1 3126   4.833   1.593   4.458 -0.0151 -1.0481  0.1412
 1040TIP3    H2 3127   4.911   1.715   4.415  0.1966 -1.2079  0.0691
 1041TIP3   OH2 3128   1.206   5.300   5.145 -0.1991 -0.1924  0.5632
 1041TIP3    H1 3129   1.150   5.369   5.110  0.2611  0.1483  0.4838
 1041TIP3    H2 3130   1.148   5.246   5.199 -0.9451 -0.7445 -0.7300
 1042TIP3   OH2 3131   3.677   3.185   2.968 -0.4986  0.0022  0.1383
 1042TIP3    H1 3132   3.719   3.179   3.054 -1.6584  1.3520  0.8386
 1042TIP3    H2 3133   3.647   3.096   2.950 -0.4300 -0.2601  1.2414
 1043TIP3   OH2 3134   5.915   1.044   0.758 -0.2431 -0.2339 -0.1941
 1043TIP3    H1 3135   5.959   1.128   0.744 -0.0435  0.2846  2.8139
 1043TIP3    H2 3136   5.837   1.066   0.808 -1.0342 -1.7303 -0.7145
 1044TIP3   OH2 3137   2.525   5.659   1.555 -0.1245  0.0831 -0.1951
 1044TIP3    H1 3138   2.588   5.646   1.484 -1.1376  3.7255 -1.9829
 1044TIP3    H2 3139   2.576   5.695   1.626  0.4165 -0.8123 -0.1107
 1045TIP3   OH2 3140   4.748   3.264   2.968  0.4547  0.3743  0.3424
 1045TIP3    H1 3141   4.789   3.325   3.029  0.1081 -0.4890  1.4976
 1045TIP3    H2 3142   4.656   3.263   2.994  0.7994 -2.2500  1.9050
 1046TIP3   OH2 3143   6.261   0.585   4.908 -0.9042  0.1471 -0.0024
 1046TIP3    H1 3144   6.241   0.631   4.989  0.4517  2.1627 -0.7520
 1046TIP3    H2 3145   6.279   0.654   4.844  0.2314 -1.3943 -1.4502
 1047TIP3   OH2 3146   2.453   1.471   3.531  0.5530 -0.3409 -0.1127
 1047TIP3    H1 3147   2.535   1.474   3.482  1.3747  1.9406  1.2369
 1047TIP3    H2 3148   2.461   1.393   3.586  1.5174 -0.5318 -0.5053
 1048TIP3   OH2 3149   1.213   3.239   3.485  0.4257 -0.2441 -0.1107
 1048TIP3    H1 3150   1.257   3.155   3.489  0.3067 -0.3047 -0.0737
 1048TIP3    H2 3151   1.153   3.231   3.411 -0.3095 -0.5420  0.5074
 1049TIP3   OH2 3152   2.873   1.848   2.934  0.2663  0.0469  0.2784
 1049TIP3    H1 3153   2.953   1.798   2.920  0.6955  0.8924 -0.3932
 1049TIP3    H2 3154   2.872   1.868   3.027  1.2613  0.7240  0.1542
 1050TIP3   OH2 3155   1.670   0.480   1.675 -0.5303  0.3084 -0.3787
 1050TIP3    H1 3156   1.677   0.411   1.609 -2.5759 -1.3625  1.0427
 1050TIP3    H2 3157   1.714   0.443   1.752 -0.8007  0.9964  0.1106
 1051TIP3   OH2 3158   5.082   4.603   3.554 -0.1046  0.2756 -0.2281
 1051TIP3    H1 3159   4.987   4.606   3.546 -0.3162  1.8675  1.9512
 1051TIP3    H2 3160   5.114   4.603   3.463 -2.1362 -0.7769 -1.0150
 1052TIP3   OH2 3161   4.803   3.846   1.773 -0.2325  0.2907  0.1931
 1052TIP3    H1 3162   4.781   3.939   1.765 -1.3905  0.1065  1.0753
 1052TIP3    H2 3163   4.721   3.803   1.795  0.1902 -1.0273 -0.6457
 1053TIP3   OH2 3164   4.962   5.450   2.186 -0.0208 -0.2374 -0.2054
 1053TIP3    H1 3165   4.898   5.392   2.147 -0.6244  1.4751 -1.9184
 1053TIP3    H2 3166   4.918   5.535   2.191  1.6465  0.6735 -0.1462
 1054TIP3   OH2 3167   1.560   3.831   3.477  0.0181  0.3370 -0.0180
 1054TIP3    H1 3168   1.488   3.842   3.540  0.4295 -1.3660  0.7940
 1054TIP3    H2 3169   1.638   3.856   3.526  0.2419 -0.0963 -0.1582
 1055TIP3   OH2 3170   5.463   2.388   4.143  0.4307 -0.2231 -0.4699
 1055TIP3    H1 3171   5.537   2.416   4.197 -0.3574 -0.3955  0.7487
 1055TIP3    H2 3172   5.409   2.467   4.134 -0.6632 -0.7323  1.0897
 1056TIP3   OH2 3173   3.666   3.577   4.620 -0.1083  0.0978 -0.4264
 1056TIP3    H1 3174   3.603   3.558   4.551 -0.2524  1.3303 -0.6647
 1056TIP3    H2 3175   3.614   3.579   4.701 -0.0923 -0.4674 -0.4011
 1057TIP3   OH2 3176   4.849   4.749   4.669 -0.1494 -0.5822  0.1211
 1057TIP3    H1 3177   4.823   4.752   4.761  0.8369 -2.6053  0.5189
 1057TIP3    H2 3178   4.808   4.670   4.634  2.3726 -1.9094 -0.1360
 1058TIP3   OH2 3179   5.168   1.103   3.759  0.1624  0.0975 -0.0782
 1058TIP3    H1 3180   5.155   1.074   3.849 -1.6842 -0.3907 -0.4385
 1058TIP3    H2 3181   5.085   1.143   3.735  0.0071 -1.2365 -2.0488
 1059TIP3   OH2 3182   2.597   1.477   3.879  0.4298  0.3417 -0.2024
 1059TIP3    H1 3183   2.660   1.549   3.880  0.4924  0.2842  0.6563
 1059TIP3    H2 3184   2.512   1.520   3.876  0.4866  0.4171 -2.2202
 1060TIP3   OH2 3185   4.252   4.805   1.578  0.0403  0.0186 -0.1603
 1060TIP3    H1 3186   4.261   4.899   1.598 -1.0512  0.3250 -1.0267
 1060TIP3    H2 3187   4.337   4.768   1.602  0.9531  1.4586 -1.0250
 1061TIP3   OH2 3188   2.729   2.557   2.652  0.3597  0.1602  0.4120
 1061TIP3    H1 3189   2.645   2.574   2.607  0.8193  0.1559 -0.4721
 1061TIP3    H2 3190   2.778   2.503   2.590  0.5465 -0.8794  1.4459
 1062TIP3   OH2 3191   5.394   5.573   0.932 -0.1065 -0.4977  0.2007
 1062TIP3    H1 3192   5.346   5.650   0.901 -0.2121 -1.4876 -2.3591
 1062TIP3    H2 3193   5.327   5.518   0.972 -0.4560 -0.2798 -0.0734
 1063TIP3   OH2 3194   3.635   3.156  -0.010  0.3726 -0.1415  0.3027
 1063TIP3    H1 3195   3.631   3.184   0.081 -0.9257  1.6132 -0.2462
 1063TIP3    H2 3196   3.675   3.230  -0.056  0.0988 -0.6098 -0.7091
 1064TIP3   OH2 3197   5.433   3.016   2.845  0.0276 -0.0217  0.2243
 1064TIP3    H1 3198   5.470   3.001   2.758  0.8786 -1.1165  0.7444
 1064TIP3    H2 3199   5.339   3.026   2.830  0.4451  2.6669 -1.1212
 1065TIP3   OH2 3200   6.055   5.359   3.492  0.1408 -0.1322  0.2529
 1065TIP3    H1 3201   5.960   5.364   3.499 -0.1003  0.5547 -2.4264
 1065TIP3    H2 3202   6.087   5.420   3.559 -1.2209 -1.1570  1.9049
 1066TIP3   OH2 3203   1.962   1.333   3.901  0.1624  0.1209 -0.1567
 1066TIP3    H1 3204   1.878   1.351   3.943 -0.3485 -0.7314 -0.7845
 1066TIP3    H2 3205   1.940   1.316   3.810  0.9993 -0.2667 -0.2929
 1067TIP3   OH2 3206   1.823   5.448   4.290 -0.8011  0.5254  0.0188
 1067TIP3    H1 3207   1.824   5.390   4.366 -1.5527 -0.0280 -0.3754
 1067TIP3    H2 3208   1.914   5.476   4.279 -0.1259 -1.7534 -0.6615
 1068TIP3   OH2 3209   4.957   4.541   0.808  0.0013 -0.1534  0.2445
 1068TIP3    H1 3210   4.912   4.558   0.725  1.8020 -0.4635 -0.8432
 1068TIP3    H2 3211   4.998   4.625   0.830  1.3451 -0.6385 -0.3529
 1069TIP3   OH2 3212   2.872   2.801   5.152  0.1908  0.4357  0.1942
 1069TIP3    H1 3213   2.848   2.893   5.161 -1.2613  0.2117 -0.8430
 1069TIP3    H2 3214   2.795   2.753   5.183  0.1971 -0.3781 -0.9537
 1070TIP3   OH2 3215   0.329   3.891   3.879 -0.4791  0.1063 -0.3363
 1070TIP3    H1 3216   0.279   3.826   3.829 -0.2011 -0.1106 -0.3362
 1070TIP3    H2 3217   0.368   3.841   3.951 -0.2117  0.2597 -0.3729
 1071TIP3   OH2 3218   5.491   3.672   3.288 -0.0888 -0.7218  0.1809
 1071TIP3    H1 3219   5.504   3.765   3.270 -1.9847 -0.4562 -0.0422
 1071TIP3    H2 3220   5.552   3.652   3.360 -0.4881  0.9847  1.0408
 1072TIP3   OH2 3221   4.591   3.686   3.063  0.8252 -0.2878  0.6110
 1072TIP3    H1 3222   4.606   3.636   2.982  0.6462  0.0639  0.3613
 1072TIP3    H2 3223   4.550   3.622   3.122 -0.4332 -0.1617 -0.0791
 1073TIP3   OH2 3224   1.159   1.722   2.663  0.4608  0.4643 -0.2702
 1073TIP3    H1 3225   1.067   1.750   2.659  0.1418 -0.6413 -1.0889
 1073TIP3    H2 3226   1.156   1.628   2.646  1.4877 -0.1413  2.3681
 1074TIP3   OH2 3227   1.989   4.308   0.476 -0.5955  0.3729  0.2309
 1074TIP3    H1 3228   1.953   4.387   0.437  0.1107  0.8313  0.4838
 1074TIP3    H2 3229   1.965   4.314   0.569 -0.4273  0.3652  0.2766
 1075TIP3   OH2 3230   4.000   5.669   3.370  0.0774 -0.3479 -0.0427
 1075TIP3    H1 3231   3.907   5.650   3.356 -0.1207 -0.5740  1.4213
 1075TIP3    H2 3232   4.041   5.584   3.384 -0.3608 -0.1336  3.9095
 1076TIP3   OH2 3233   2.262   1.024   3.196  0.0205  0.0396 -0.0246
 1076TIP3    H1 3234   2.280   0.952   3.136 -0.0288  1.0467 -1.2858
 1076TIP3    H2 3235   2.283   0.989   3.283  0.3277 -1.3676 -0.6455
 1077TIP3   OH2 3236   4.904   4.158   2.220  0.0568  0.2302  0.6890
 1077TIP3    H1 3237   4.898   4.067   2.189 -0.5518  0.0056  1.4366
 1077TIP3    H2 3238   4.954   4.203   2.152 -0.6934 -0.3891 -0.3054
 1078TIP3   OH2 3239   5.320   2.287   0.444 -0.3622 -0.0548  0.0937
 1078TIP3    H1 3240   5.301   2.257   0.355  0.0260  2.3660 -0.8716
 1078TIP3    H2 3241   5.410   2.258   0.461 -0.1082  0.2957 -0.6630
 1079TIP3   OH2 3242   2.822   2.794   0.123  0.5834 -0.4821 -0.0814
 1079TIP3    H1 3243   2.885   2.732   0.087  2.6157 -0.0730  2.4984
 1079TIP3    H2 3244   2.865   2.831   0.199 -1.5679  2.2534 -0.0327
 1080TIP3   OH2 3245   2.848   4.574   2.897 -0.4175  0.1754  0.3232
 1080TIP3    H1 3246   2.810   4.610   2.816 -1.3479  0.8430  1.0334
 1080TIP3    H2 3247   2.907   4.504   2.867 -2.9842 -1.6561 -0.8222
 1081TIP3   OH2 3248   1.626   5.826   0.732  0.8172  0.7587 -0.1435
 1081TIP3    H1 3249   1.619   5.755   0.795  0.4452 -0.4167 -1.4555
 1081TIP3    H2 3250   1.674   5.895   0.778 -1.2557  0.8234  2.1477
 1082TIP3   OH2 3251   3.845   5.954   3.879 -0.2067  0.0697 -0.1250
 1082TIP3    H1 3252   3.874   5.941   3.789 -0.8255  1.1249 -0.5009
 1082TIP3    H2 3253   3.787   5.880   3.897  0.7876 -0.7488 -0.1913
 1083TIP3   OH2 3254   6.159   0.712   2.281  0.2330  0.0827 -0.2368
 1083TIP3    H1 3255   6.068   0.716   2.310 -0.2071 -1.8294 -1.2396
 1083TIP3    H2 3256   6.210   0.710   2.362 -0.7588 -1.1695  0.3783
 1084TIP3   OH2 3257   2.364   2.082   0.923 -0.4757 -0.2710 -0.0017
 1084TIP3    H1 3258   2.315   2.007   0.958 -1.4410  0.9706  1.4379
 1084TIP3    H2 3259   2.313   2.158   0.950  1.8120  1.0691  0.8579
 1085TIP3   OH2 3260   5.445   3.936   2.629 -0.0804  0.1098 -0.5787
 1085TIP3    H1 3261   5.369   3.966   2.679 -1.3420  0.9795 -2.8658
 1085TIP3    H2 3262   5.488   4.016   2.601 -0.7494 -0.2250 -2.7488
 1086TIP3   OH2 3263   0.205   1.775   4.853  0.2719  0.1185  0.2156
 1086TIP3    H1 3264   0.161   1.731   4.926 -0.9977  0.3348 -0.4036
 1086TIP3    H2 3265   0.271   1.831   4.895  1.7310 -2.0692  1.0588
 1087TIP3   OH2 3266   6.008   2.268   1.715  0.0574  0.0353 -0.0024
 1087TIP3    H1 3267   6.063   2.192   1.701 -0.5847 -0.3389 -0.5552
 1087TIP3    H2 3268   6.016   2.319   1.634 -0.7575 -0.2596 -0.2841
 1088TIP3   OH2 3269   3.696   5.914   2.302  0.2355 -0.3889  0.4043
 1088TIP3    H1 3270   3.638   5.842   2.277 -1.4900  0.4057  1.8386
 1088TIP3    H2 3271   3.783   5.875   2.306 -0.4832 -2.1159  0.0451
 1089TIP3   OH2 3272   5.381   1.574   1.639 -0.1148 -0.5317  0.2928
 1089TIP3    H1 3273   5.375   1.488   1.597  0.4505 -0.8177  0.7840
 1089TIP3    H2 3274   5.432   1.627   1.578 -0.6434 -0.4753 -0.1094
 1090TIP3   OH2 3275   1.443   2.174   2.566 -0.1866 -0.1219 -0.4338
 1090TIP3    H1 3276   1.536   2.179   2.586 -0.1017 -0.0512 -0.8298
 1090TIP3    H2 3277   1.411   2.097   2.614 -0.1078  0.3641  0.4005
 1091TIP3   OH2 3278   1.281   2.262   4.861 -0.1308  0.0805  0.3210
 1091TIP3    H1 3279   1.277   2.344   4.813  0.0180  0.3247  0.7244
 1091TIP3    H2 3280   1.373   2.250   4.883  0.0083 -0.7095 -0.6113
 1092TIP3   OH2 3281   2.231   4.703   0.014 -0.0919  0.1713  0.3578
 1092TIP3    H1 3282   2.279   4.621   0.011 -2.2139 -1.2319  1.4719
 1092TIP3    H2 3283   2.175   4.694   0.092 -0.6494  2.5354  0.2998
 1093TIP3   OH2 3284   4.442   1.494   3.009 -0.1794 -0.1477 -0.4333
 1093TIP3    H1 3285   4.475   1.575   3.048 -2.4216  0.4362  0.3940
 1093TIP3    H2 3286   4.435   1.514   2.915 -4.5968  2.2710  0.1358
 1094TIP3   OH2 3287   3.621   1.359   3.280  0.2624  0.6248 -0.3751
 1094TIP3    H1 3288   3.667   1.387   3.201 -0.2239  0.5772 -0.6811
 1094TIP3    H2 3289   3.690   1.330   3.339  0.6269  0.5795 -0.8176
 1095TIP3   OH2 3290   1.062   1.701   1.194 -0.6024 -0.1548 -0.4238
 1095TIP3    H1 3291   1.027   1.790   1.189 -1.0657 -0.2306  1.0049
 1095TIP3    H2 3292   1.043   1.673   1.283  3.1388 -0.2269  0.5117
 1096TIP3   OH2 3293   1.745   1.698   4.917  0.0356  0.0797  0.1687
 1096TIP3    H1 3294   1.800   1.635   4.871  0.7404  2.0903 -1.8949
 1096TIP3    H2 3295   1.805   1.768   4.943 -0.8266  0.2434  1.8686
 1097TIP3   OH2 3296   0.740   2.430   4.358  0.0728  0.2850  0.8923
 1097TIP3    H1 3297   0.739   2.355   4.417  1.2213  0.1707  0.7819
 1097TIP3    H2 3298   0.670   2.412   4.295  0.2908 -0.6614  0.9087
 1098TIP3   OH2 3299   1.727   1.454   0.735 -0.1411 -0.3879 -0.2733
 1098TIP3    H1 3300   1.783   1.451   0.813  0.3505 -0.9361 -0.6367
 1098TIP3    H2 3301   1.644   1.489   0.766  0.4214  0.4948  0.2749
 1099TIP3   OH2 3302   4.531   1.892   5.114 -0.4771  0.0837 -0.4901
 1099TIP3    H1 3303   4.499   1.897   5.204 -0.5656  0.1771 -0.5270
 1099TIP3    H2 3304   4.514   1.801   5.088  0.1932 -0.1407 -0.1746
 1100TIP3   OH2 3305   3.100   3.782   0.712 -0.3592 -0.0720  0.1552
 1100TIP3    H1 3306   3.149   3.842   0.768 -1.6038  1.5697 -0.4247
 1100TIP3    H2 3307   3.165   3.721   0.678  0.8955  0.7408  1.0494
 1101TIP3   OH2 3308   4.337   0.897   1.356  0.2288  0.7031 -0.2065
 1101TIP3    H1 3309   4.389   0.818   1.342 -0.6029  0.1264 -0.0981
 1101TIP3    H2 3310   4.401   0.964   1.381  1.1471  0.5133 -1.9611
 1102TIP3   OH2 3311   0.826   5.778   2.050 -0.0727 -0.0115  0.5656
 1102TIP3    H1 3312   0.852   5.801   2.139  0.2438 -1.8015  0.9605
 1102TIP3    H2 3313   0.899   5.809   1.996  1.2207 -1.6885  1.2785
 1103TIP3   OH2 3314   3.131   3.992   4.270 -0.0306 -0.0436 -0.4289
 1103TIP3    H1 3315   3.168   3.906   4.249 -1.5773 -1.0268  0.6420
 1103TIP3    H2 3316   3.118   4.034   4.185 -2.3223 -2.2321 -1.2632
 1104TIP3   OH2 3317   2.189   5.912   0.153 -0.1325  0.4353 -0.3729
 1104TIP3    H1 3318   2.121   5.978   0.136  1.0951  1.5993 -0.9284
 1104TIP3    H2 3319   2.190   5.903   0.248 -1.8259 -0.4648 -0.3922
 1105TIP3   OH2 3320   1.101   4.067   4.940 -0.2395 -0.0762  0.1286
 1105TIP3    H1 3321   1.175   4.024   4.983 -1.0507 -0.8545  0.7804
 1105TIP3    H2 3322   1.071   4.132   5.004 -0.3058  0.0313 -0.0127
 1106TIP3   OH2 3323   0.770   1.742   0.247  0.2638 -0.5164  0.0756
 1106TIP3    H1 3324   0.758   1.710   0.157 -1.9174  2.1666 -0.7477
 1106TIP3    H2 3325   0.699   1.702   0.296 -0.6273  0.5741 -0.2626
 1107TIP3   OH2 3326   4.308   1.588   3.851  0.0160 -0.1859  0.2095
 1107TIP3    H1 3327   4.256   1.654   3.807  1.0373  0.3236 -0.2773
 1107TIP3    H2 3328   4.248   1.515   3.866 -1.4344  1.2279  1.7483
 1108TIP3   OH2 3329   4.179   3.983   3.185  0.4272  0.3122 -0.6258
 1108TIP3    H1 3330   4.213   4.068   3.156 -1.0421  0.8928 -0.7238
 1108TIP3    H2 3331   4.242   3.953   3.249  0.2179  2.2103  0.5450
 1109TIP3   OH2 3332   3.625   2.325   0.163  0.1508  0.3163  0.2264
 1109TIP3    H1 3333   3.646   2.233   0.176 -0.4403 -0.5751 -3.6686
 1109TIP3    H2 3334   3.656   2.344   0.074 -2.2235  3.0880 -0.1744
 1110TIP3   OH2 3335   0.477   0.500   2.079 -0.1558 -0.3211  0.4482
 1110TIP3    H1 3336   0.532   0.424   2.098 -1.0353 -1.2856 -0.7106
 1110TIP3    H2 3337   0.414   0.469   2.014 -2.0289  0.7508  1.6484
 1111TIP3   OH2 3338   0.610   3.649   0.883  0.0770 -0.3846  0.0447
 1111TIP3    H1 3339   0.654   3.728   0.852  1.5027 -0.9922  0.4389
 1111TIP3    H2 3340   0.560   3.618   0.808 -0.2960  0.7442 -0.1901
 1112TIP3   OH2 3341   1.564   0.999   3.477  0.0131 -0.0028 -0.0810
 1112TIP3    H1 3342   1.481   0.954   3.464  0.8162 -1.2968 -0.8259
 1112TIP3    H2 3343   1.562   1.072   3.415  0.2922 -1.2569 -1.6243
 1113TIP3   OH2 3344   4.422   2.023   3.029  0.1599 -0.2851  0.4914
 1113TIP3    H1 3345   4.472   1.961   3.082  1.0765 -0.5494 -0.6456
 1113TIP3    H2 3346   4.473   2.032   2.948 -0.1691  1.6189  0.4441
 1114TIP3   OH2 3347   3.625   3.815   5.188  0.0074  0.2204  0.0501
 1114TIP3    H1 3348   3.707   3.847   5.226 -0.4013 -0.8216  1.9217
 1114TIP3    H2 3349   3.618   3.862   5.105  0.5133  3.3709  1.6331
 1115TIP3   OH2 3350   4.380   0.959   3.742  0.5361  0.2438  0.4617
 1115TIP3    H1 3351   4.355   1.013   3.817  1.4605 -0.3693  1.2379
 1115TIP3    H2 3352   4.432   0.888   3.780  0.4533 -0.4568 -0.6891
 1116TIP3   OH2 3353   3.954   4.506  -0.024 -0.5695  0.2928 -0.0454
 1116TIP3    H1 3354   3.861   4.519  -0.040 -0.9134  0.5595  1.9060
 1116TIP3    H2 3355   3.959   4.474   0.066  1.2100  0.0392 -0.1900
 1117TIP3   OH2 3356   1.051   4.652   1.295 -0.0638 -0.0967 -0.1831
 1117TIP3    H1 3357   0.970   4.657   1.345 -0.0333 -0.9051 -0.0322
 1117TIP3    H2 3358   1.105   4.723   1.330 -0.6875  0.4249 -0.2678
 1118TIP3   OH2 3359   2.574   4.392   0.864  0.2967 -0.8127 -0.0402
 1118TIP3    H1 3360   2.602   4.477   0.831 -1.6252 -0.3880 -0.7357
 1118TIP3    H2 3361   2.616   4.329   0.807  0.3211 -0.2353 -0.6780
 1119TIP3   OH2 3362   2.878   4.859   3.058 -0.2322 -0.4376 -0.0406
 1119TIP3    H1 3363   2.823   4.831   2.985 -0.2531  1.7119 -0.9136
 1119TIP3    H2 3364   2.967   4.859   3.022 -0.0828 -0.6114  0.3288
 1120TIP3   OH2 3365   1.904   2.161   2.347  0.2304 -0.2882  0.3190
 1120TIP3    H1 3366   1.918   2.120   2.432  0.2197 -0.1952  0.3667
 1120TIP3    H2 3367   1.812   2.147   2.328 -0.0671  0.7637  0.9027
 1121TIP3   OH2 3368   0.094   1.795   4.397  0.0856 -0.2358  0.1500
 1121TIP3    H1 3369   0.069   1.882   4.365  0.5038  0.0515  0.5880
 1121TIP3    H2 3370   0.177   1.776   4.354 -1.3178 -1.6588 -2.1481
 1122TIP3   OH2 3371   6.288   2.373   1.073 -0.4199  0.1023  0.3176
 1122TIP3    H1 3372   6.320   2.371   1.163 -1.3512  1.0342  0.6935
 1122TIP3    H2 3373   6.261   2.464   1.059 -1.5759 -0.3274 -0.4303
 1123TIP3   OH2 3374   0.148   1.978   1.260 -0.1070  0.0774  0.2793
 1123TIP3    H1 3375   0.070   1.925   1.275 -0.3817 -0.0880 -1.5857
 1123TIP3    H2 3376   0.163   2.021   1.345 -2.0547 -0.0751  0.7624
 1124TIP3   OH2 3377   5.301   2.704   2.125  0.2017 -0.6036  0.2080
 1124TIP3    H1 3378   5.240   2.709   2.199 -1.5125  0.1263 -1.1696
 1124TIP3    H2 3379   5.290   2.788   2.080 -0.5144 -1.8451 -2.1038
 1125TIP3   OH2 3380   0.937   5.491   1.269 -0.3554 -0.0144  0.4030
 1125TIP3    H1 3381   0.999   5.429   1.231  0.0694 -0.2025  1.3636
 1125TIP3    H2 3382   0.993   5.557   1.311 -0.8096  0.3660  0.4166
 1126TIP3   OH2 3383   4.591   1.793   3.089  0.0117 -0.3034 -0.3350
 1126TIP3    H1 3384   4.686   1.809   3.096  0.1970 -1.7507  1.4546
 1126TIP3    H2 3385   4.570   1.745   3.170 -2.7426  2.1482  0.5621
 1127TIP3   OH2 3386   2.023   5.163   3.324  0.3170  0.4810 -0.4233
 1127TIP3    H1 3387   1.991   5.244   3.363 -0.8355  0.0366 -0.3962
 1127TIP3    H2 3388   2.060   5.114   3.397 -0.1835  0.4268 -0.2037
 1128TIP3   OH2 3389   0.686   2.143   3.279  0.3749  0.0543  0.0414
 1128TIP3    H1 3390   0.656   2.056   3.253  1.0298 -0.3005  0.4556
 1128TIP3    H2 3391   0.775   2.130   3.312 -0.3545  0.4743  2.3884
 1129TIP3   OH2 3392   5.576   4.453   1.104 -0.2894  0.4764 -0.3240
 1129TIP3    H1 3393   5.532   4.533   1.074  0.8725  0.6581 -1.6889
 1129TIP3    H2 3394   5.532   4.382   1.057  0.4515  0.6078 -1.2629
 1130TIP3   OH2 3395   3.503   2.278   5.132 -0.2046  0.0171  0.2802
 1130TIP3    H1 3396   3.474   2.368   5.143  0.4101  0.5715 -2.0945
 1130TIP3    H2 3397   3.559   2.280   5.055  0.5229 -2.2609  0.6699
 1131TIP3   OH2 3398   0.194   5.800   4.449 -0.1988  0.1868 -0.8359
 1131TIP3    H1 3399   0.268   5.811   4.391  0.6069 -0.0833  0.1107
 1131TIP3    H2 3400   0.153   5.718   4.420  1.5801 -1.2180  0.3964
 1132TIP3   OH2 3401   5.414   2.377   3.355  0.0704 -0.3167  0.5794
 1132TIP3    H1 3402   5.365   2.378   3.437  0.5703 -1.5593  0.9165
 1132TIP3    H2 3403   5.475   2.451   3.363  0.8863 -1.0829  1.8430
 1133TIP3   OH2 3404   0.878   2.116   4.864 -0.0481  0.3893  0.2470
 1133TIP3    H1 3405   0.965   2.076   4.855  0.3543  0.3880  2.9976
 1133TIP3    H2 3406   0.896   2.210   4.873 -0.7598  0.9897 -3.3341
 1134TIP3   OH2 3407   3.528   4.181   3.444 -0.7249  0.2229 -0.2015
 1134TIP3    H1 3408   3.454   4.239   3.429 -1.3953  0.1320  2.2641
 1134TIP3    H2 3409   3.491   4.093   3.438 -0.9542  0.1808  1.3547
 1135TIP3   OH2 3410   1.858   4.678   0.511  0.5176 -0.7446  0.1042
 1135TIP3    H1 3411   1.839   4.616   0.581 -0.6763 -2.5088 -1.6591
 1135TIP3    H2 3412   1.880   4.622   0.435  3.1463  1.0789 -0.6146
 1136TIP3   OH2 3413   2.950   3.275   2.665  0.7087 -0.3788  0.3782
 1136TIP3    H1 3414   3.031   3.298   2.710  0.8871  1.5061 -0.7570
 1136TIP3    H2 3415   2.963   3.309   2.576 -0.0928 -2.8737 -0.7672
 1137TIP3   OH2 3416   1.184   5.922   4.512 -0.3314 -0.2257 -1.2208
 1137TIP3    H1 3417   1.197   5.828   4.496  1.6414 -0.3085  0.4261
 1137TIP3    H2 3418   1.092   5.930   4.535 -0.4673 -1.8032 -1.1017
 1138TIP3   OH2 3419   3.892   5.248   3.144 -0.0906 -0.0522  0.1364
 1138TIP3    H1 3420   3.827   5.267   3.211  0.5428 -1.9668  1.3838
 1138TIP3    H2 3421   3.886   5.153   3.131  1.1415  0.0063 -1.0923
 1139TIP3   OH2 3422   4.632   2.797   4.258 -0.7890  0.1924 -0.3265
 1139TIP3    H1 3423   4.632   2.715   4.307 -0.4318  0.8399  0.7861
 1139TIP3    H2 3424   4.560   2.848   4.296 -0.4148  0.7635 -0.3722
 1140TIP3   OH2 3425   4.445   2.594   1.201  0.4267 -0.0576  0.0913
 1140TIP3    H1 3426   4.482   2.509   1.178  1.2878  0.5212 -0.6977
 1140TIP3    H2 3427   4.470   2.606   1.293 -1.5912 -1.6177  0.9310
 1141TIP3   OH2 3428   2.881   0.282   4.304 -0.7517 -0.1944 -0.4846
 1141TIP3    H1 3429   2.865   0.302   4.212  0.8979 -2.6102 -1.3897
 1141TIP3    H2 3430   2.974   0.260   4.308 -0.6057  0.5946  1.9321
 1142TIP3   OH2 3431   5.439   2.278   5.101 -0.4813  0.7866  0.1459
 1142TIP3    H1 3432   5.439   2.371   5.122  0.4500  0.8822 -0.2674
 1142TIP3    H2 3433   5.433   2.274   5.006 -0.3918  0.4260  0.1519
 1143TIP3   OH2 3434   4.159   5.609   4.741  0.5975 -0.2835 -0.1844
 1143TIP3    H1 3435   4.217   5.544   4.781  0.8526  0.4884  0.7475
 1143TIP3    H2 3436   4.092   5.626   4.808  0.3423  0.1627 -0.5448
 1144TIP3   OH2 3437   3.721   4.596   0.205 -0.2220 -0.1410  0.1993
 1144TIP3    H1 3438   3.736   4.689   0.185  0.0759 -0.3002 -0.3473
 1144TIP3    H2 3439   3.671   4.564   0.130 -0.6959 -0.3228  0.5928
 1145TIP3   OH2 3440   1.577   1.205   3.680 -0.0273  0.2144 -0.5333
 1145TIP3    H1 3441   1.665   1.243   3.688 -1.0797  2.6215  0.6819
 1145TIP3    H2 3442   1.591   1.122   3.634  3.1306 -0.5252  1.4281
 1146TIP3   OH2 3443   1.682   1.035   2.857  0.0947  0.4312 -0.2444
 1146TIP3    H1 3444   1.641   1.119   2.836  0.3508  0.3632 -1.0716
 1146TIP3    H2 3445   1.620   0.992   2.916 -1.5367 -0.0776 -2.2061
 1147TIP3   OH2 3446   0.842   0.890   3.316 -0.4321  0.5238 -0.1635
 1147TIP3    H1 3447   0.887   0.832   3.255 -1.5466  0.3158 -0.8185
 1147TIP3    H2 3448   0.749   0.872   3.302 -0.8693  2.8837 -0.8385
 1148TIP3   OH2 3449   0.883   4.267   2.331  0.0277  0.2906 -0.0311
 1148TIP3    H1 3450   0.973   4.293   2.309 -0.3782  1.0857 -0.8333
 1148TIP3    H2 3451   0.859   4.206   2.261  0.0118 -0.0910  0.3044
 1149TIP3   OH2 3452   3.977   4.832   3.600  0.1105 -0.4717 -0.0120
 1149TIP3    H1 3453   4.036   4.817   3.527  0.5616 -0.1832  0.2895
 1149TIP3    H2 3454   3.918   4.901   3.570 -0.1375 -0.8188 -0.3430
 1150TIP3   OH2 3455   0.038   5.898   3.281  0.5278  0.0680  0.0948
 1150TIP3    H1 3456  -0.049   5.868   3.305  0.8556 -0.1401  1.0897
 1150TIP3    H2 3457   0.096   5.825   3.304  1.1258  0.7707  0.9001
 1151TIP3   OH2 3458   1.839   1.981   0.408  0.2168 -0.2492  0.3086
 1151TIP3    H1 3459   1.786   1.963   0.486  0.5417  0.0115  0.5937
 1151TIP3    H2 3460   1.845   1.897   0.363 -2.1655  0.1134 -0.8207
 1152TIP3   OH2 3461   2.432   4.088   1.013 -0.2585  0.2053  0.0834
 1152TIP3    H1 3462   2.386   4.067   0.932 -3.2259 -0.0119  1.6993
 1152TIP3    H2 3463   2.382   4.159   1.052  1.5316  0.8190  1.4107
 1153TIP3   OH2 3464   0.523   2.505   3.730 -0.0565  0.5710  0.5473
 1153TIP3    H1 3465   0.437   2.516   3.771 -0.1383  0.1261  0.5004
 1153TIP3    H2 3466   0.510   2.438   3.663  0.3714  0.3407  0.6843
 1154TIP3   OH2 3467   1.081   0.399   0.318 -0.0941  0.2629 -0.1294
 1154TIP3    H1 3468   1.064   0.466   0.385  1.4827  1.8206 -1.1959
 1154TIP3    H2 3469   1.084   0.448   0.236 -0.3607 -1.3704 -1.1454
 1155TIP3   OH2 3470   3.209   4.918   3.827  0.1650 -0.3249  0.1870
 1155TIP3    H1 3471   3.234   4.953   3.741  2.4888 -1.0250  0.5175
 1155TIP3    H2 3472   3.113   4.917   3.826  0.1086 -1.8004 -3.0002
 1156TIP3   OH2 3473   3.523   2.533   3.449  0.5766  1.1909 -0.3093
 1156TIP3    H1 3474   3.533   2.550   3.356  1.3138 -1.1661 -0.7404
 1156TIP3    H2 3475   3.611   2.511   3.479 -0.0834 -0.9548  0.2322
 1157TIP3   OH2 3476   4.486   3.860   3.710  0.3901 -0.4120  0.3755
 1157TIP3    H1 3477   4.468   3.949   3.681  0.4672 -0.7108 -0.6189
 1157TIP3    H2 3478   4.426   3.846   3.783  0.4113  0.4666  0.5784
 1158TIP3   OH2 3479   5.627   3.935   3.897  0.4739 -0.2309  0.3807
 1158TIP3    H1 3480   5.613   4.002   3.830  0.4467 -0.4733  0.1423
 1158TIP3    H2 3481   5.717   3.949   3.926 -0.0737  1.0268  1.5774
 1159TIP3   OH2 3482   1.125   3.182   3.808 -0.5988  0.1785 -0.2407
 1159TIP3    H1 3483   1.058   3.249   3.823 -0.3105  0.4478 -0.1468
 1159TIP3    H2 3484   1.099   3.140   3.726 -2.5203 -1.7157  1.2228
 1160TIP3   OH2 3485   5.704   0.911   4.051 -0.3817  0.4616 -0.0402
 1160TIP3    H1 3486   5.761   0.937   3.979 -0.6541 -2.5456 -1.5140
 1160TIP3    H2 3487   5.626   0.875   4.008 -1.5398  0.5899  1.8309
 1161TIP3   OH2 3488   4.318   5.224   1.005 -0.8721  0.5780 -0.2922
 1161TIP3    H1 3489   4.296   5.295   1.065 -1.4856  1.1748 -1.2035
 1161TIP3    H2 3490   4.233   5.197   0.968 -0.4974  0.2949 -0.9643
 1162TIP3   OH2 3491   5.663   3.183   4.673  0.4047  0.4941  0.9372
 1162TIP3    H1 3492   5.590   3.137   4.632 -0.1367  2.2393 -0.1646
 1162TIP3    H2 3493   5.622   3.249   4.729  1.0497  2.2953 -0.5993
 1163TIP3   OH2 3494   4.426   2.485   3.284  0.2952  0.1825 -0.1147
 1163TIP3    H1 3495   4.450   2.523   3.368  0.9245 -1.2312  0.3737
 1163TIP3    H2 3496   4.422   2.559   3.224 -0.0521  1.1909  1.1337
 1164TIP3   OH2 3497   1.025   1.513   4.906 -0.4023 -0.0756  0.2232
 1164TIP3    H1 3498   0.988   1.471   4.829 -1.7431  0.6664  0.4330
 1164TIP3    H2 3499   0.950   1.551   4.952  0.3036 -0.8370  2.1176
 1165TIP3   OH2 3500   3.058   4.743   1.564 -0.5291 -0.3733  0.1099
 1165TIP3    H1 3501   3.136   4.716   1.514 -1.1122  0.1586 -1.1438
 1165TIP3    H2 3502   3.032   4.664   1.612  0.6234 -0.6319  0.3529
 1166TIP3   OH2 3503   4.569   5.555   2.563  0.7717  0.0823 -0.3404
 1166TIP3    H1 3504   4.539   5.601   2.485 -0.7603 -0.6943 -0.2546
 1166TIP3    H2 3505   4.564   5.620   2.633  0.8281  0.4110 -0.6409
 1167TIP3   OH2 3506   2.756  -0.017   3.988 -0.5090  0.6561  0.1456
 1167TIP3    H1 3507   2.763  -0.002   4.083  1.6426  2.0143 -0.1525
 1167TIP3    H2 3508   2.761   0.071   3.950 -0.7395  0.0749 -1.2551
 1168TIP3   OH2 3509   3.780   4.190   4.169  0.5651 -0.2713 -0.1761
 1168TIP3    H1 3510   3.781   4.116   4.107  1.7607 -1.9362  1.6954
 1168TIP3    H2 3511   3.695   4.231   4.156  0.2616 -1.3642 -2.0064
 1169TIP3   OH2 3512   0.438   5.423   1.872 -0.2107 -1.0095  0.5600
 1169TIP3    H1 3513   0.528   5.429   1.903 -0.1330  0.3422  0.1459
 1169TIP3    H2 3514   0.445   5.377   1.788 -0.0915 -2.1567  1.1824
 1170TIP3   OH2 3515   4.123   5.367   3.213  0.1323  0.5504  0.1267
 1170TIP3    H1 3516   4.116   5.336   3.304 -1.4881  0.6648  0.0533
 1170TIP3    H2 3517   4.038   5.348   3.174  1.1348 -0.4752 -1.7069
 1171TIP3   OH2 3518   2.939   3.788   2.388 -0.3257 -0.3124 -0.2055
 1171TIP3    H1 3519   2.991   3.848   2.334 -0.9164 -0.0417 -0.4815
 1171TIP3    H2 3520   3.004   3.736   2.435  0.2367  1.4187  1.0425
 1172TIP3   OH2 3521   4.102   1.251   5.073  0.1525  0.2089 -0.2291
 1172TIP3    H1 3522   4.061   1.251   4.987 -1.0105  0.9632  0.3099
 1172TIP3    H2 3523   4.172   1.185   5.066 -2.0545 -2.2501 -0.7457
 1173TIP3   OH2 3524   2.862   4.173   4.167 -0.2449 -0.4113 -0.3266
 1173TIP3    H1 3525   2.854   4.172   4.262  0.7513  0.5720 -0.2239
 1173TIP3    H2 3526   2.851   4.264   4.142  1.7561 -0.2862 -0.9252
 1174TIP3   OH2 3527   0.373   1.622   2.605 -0.0218 -0.3239 -0.0303
 1174TIP3    H1 3528   0.389   1.528   2.616 -0.3022 -0.2826  0.8697
 1174TIP3    H2 3529   0.278   1.631   2.615 -0.2458 -0.1546 -1.9503
 1175TIP3   OH2 3530   0.285   0.816   1.559 -0.1219 -0.7117  0.1933
 1175TIP3    H1 3531   0.239   0.736   1.534 -0.3420  0.0447 -2.0413
 1175TIP3    H2 3532   0.376   0.788   1.570  0.3144 -0.9725 -2.9888
 1176TIP3   OH2 3533   1.323   4.624   4.552 -0.5145 -0.4339  0.3504
 1176TIP3    H1 3534   1.262   4.680   4.505  2.3317  0.9594 -2.0618
 1176TIP3    H2 3535   1.377   4.684   4.604  0.1106 -1.3564  0.8087
 1177TIP3   OH2 3536   0.440   2.529   0.415 -0.4561  0.7450  0.4789
 1177TIP3    H1 3537   0.356   2.489   0.395  0.6370 -2.0016  0.8655
 1177TIP3    H2 3538   0.429   2.564   0.504 -0.9887 -0.3276  0.8588
 1178TIP3   OH2 3539   5.185   2.216   0.830  0.0805  0.6150 -0.0156
 1178TIP3    H1 3540   5.171   2.293   0.774  2.0493 -0.8413 -2.7270
 1178TIP3    H2 3541   5.278   2.199   0.825  0.2872 -0.0145  3.3782
 1179TIP3   OH2 3542   4.392   3.317   1.276  0.5410 -0.2637 -0.3511
 1179TIP3    H1 3543   4.423   3.297   1.364  1.3384 -1.2924 -0.8385
 1179TIP3    H2 3544   4.437   3.398   1.252  1.5985 -0.8425 -0.4046
 1180TIP3   OH2 3545   3.739   4.790   0.879  0.3831 -0.1723  0.1204
 1180TIP3    H1 3546   3.796   4.777   0.804  0.3603 -0.2148  0.1107
 1180TIP3    H2 3547   3.798   4.816   0.950  0.2041  2.0751 -0.4606
 1181TIP3   OH2 3548   4.174   0.311   3.219 -0.2857  0.3769 -0.6476
 1181TIP3    H1 3549   4.178   0.233   3.165  2.0800 -0.9562  1.2262
 1181TIP3    H2 3550   4.082   0.337   3.218 -0.6450 -0.6623 -3.6498
 1182TIP3   OH2 3551   5.379   3.233   1.934 -0.4573  0.2680  0.2182
 1182TIP3    H1 3552   5.449   3.171   1.912  0.5803  1.7813 -0.9703
 1182TIP3    H2 3553   5.349   3.205   2.020 -1.0400 -2.7387 -0.8283
 1183TIP3   OH2 3554   1.399   0.714   4.826 -0.5302  0.2900  0.1652
 1183TIP3    H1 3555   1.413   0.766   4.747  0.2903  0.8873  0.6813
 1183TIP3    H2 3556   1.335   0.763   4.877  0.0273  0.6620  0.5203
 1184TIP3   OH2 3557   2.453   1.892   0.190  0.3741 -0.1102 -0.4433
 1184TIP3    H1 3558   2.424   1.814   0.142 -0.3505  0.3860 -0.8552
 1184TIP3    H2 3559   2.537   1.915   0.151  0.7222 -0.8473 -0.1236
 1185TIP3   OH2 3560   4.992   2.263   3.009 -0.0875  0.0806  0.7111
 1185TIP3    H1 3561   4.903   2.233   2.990 -0.0770 -0.0274  0.8300
 1185TIP3    H2 3562   5.045   2.227   2.938 -0.2744  0.8766  0.1503
 1186TIP3   OH2 3563   6.166   4.231   1.111  0.1784 -0.8943 -0.2044
 1186TIP3    H1 3564   6.164   4.265   1.022 -0.5730 -0.3722 -0.0030
 1186TIP3    H2 3565   6.086   4.265   1.151  1.6040  0.8553  1.3668
 1187TIP3   OH2 3566   1.846   3.059   0.035  0.0855  0.3929  0.0613
 1187TIP3    H1 3567   1.800   3.121   0.092 -2.1006 -0.3073 -0.8432
 1187TIP3    H2 3568   1.816   2.973   0.064  0.4092 -0.0608 -0.9220
 1188TIP3   OH2 3569   3.398   1.033   0.419 -0.3261 -0.2171 -0.5864
 1188TIP3    H1 3570   3.469   1.058   0.478  0.3273  1.6581 -2.0473
 1188TIP3    H2 3571   3.407   0.939   0.409  0.6038 -0.3252  0.9376
 1189TIP3   OH2 3572   5.431   1.776   0.737 -0.4951  0.1569  0.2625
 1189TIP3    H1 3573   5.383   1.847   0.695 -0.2534 -0.7711 -1.6786
 1189TIP3    H2 3574   5.370   1.702   0.738  0.1084 -0.3665 -0.1623
 1190TIP3   OH2 3575   0.239   1.148   3.075 -0.3108 -0.3750 -0.2409
 1190TIP3    H1 3576   0.172   1.101   3.125 -0.1019 -1.6825 -1.1374
 1190TIP3    H2 3577   0.307   1.167   3.140 -0.8883 -0.3194  0.3684
 1191TIP3   OH2 3578   1.168   1.320   4.587 -0.0133 -0.5726 -0.5574
 1191TIP3    H1 3579   1.075   1.317   4.563  0.4976  0.0343 -2.9136
 1191TIP3    H2 3580   1.200   1.401   4.548  0.8796  0.9591  2.9826
 1192TIP3   OH2 3581   1.169   1.626   0.936 -0.6834  0.1500 -0.2492
 1192TIP3    H1 3582   1.244   1.685   0.941  1.1583 -2.1496  2.0835
 1192TIP3    H2 3583   1.120   1.644   1.016 -2.0533  0.8148 -1.1928
 1193TIP3   OH2 3584   3.604   0.864   3.116  0.0385 -0.0193  0.0964
 1193TIP3    H1 3585   3.530   0.829   3.166 -0.3710  1.1251  0.3090
 1193TIP3    H2 3586   3.627   0.945   3.161  1.8581 -0.6805  0.4244
 1194TIP3   OH2 3587   1.135   3.355   2.637 -0.1536 -0.3037  0.1858
 1194TIP3    H1 3588   1.125   3.448   2.621 -1.5327 -0.7603 -2.0830
 1194TIP3    H2 3589   1.199   3.326   2.572 -0.7937 -1.1371 -0.1057
 1195TIP3   OH2 3590   5.218   2.354   3.128  0.2977 -0.5160  0.0514
 1195TIP3    H1 3591   5.238   2.316   3.213  0.7493  0.4692  0.3899
 1195TIP3    H2 3592   5.128   2.326   3.110 -0.1724  0.1154  1.3158
 1196TIP3   OH2 3593   1.920   4.332   4.993  0.2243 -0.0373  0.3542
 1196TIP3    H1 3594   1.871   4.261   5.034 -0.6155  0.6083  0.4768
 1196TIP3    H2 3595   1.854   4.394   4.964  0.7810 -0.3523 -1.8065
 1197TIP3   OH2 3596   3.074   0.473   3.178 -0.5603 -0.1857 -0.6219
 1197TIP3    H1 3597   3.021   0.490   3.256  1.1468  0.3095  0.4829
 1197TIP3    H2 3598   3.049   0.385   3.151 -0.0862 -1.0168  1.4597
 1198TIP3   OH2 3599   5.322   2.920   3.088 -0.0667 -0.1100  0.3259
 1198TIP3    H1 3600   5.293   2.951   3.174  0.5852 -0.2883  0.6085
 1198TIP3    H2 3601   5.350   2.999   3.043  0.2296 -0.1043  0.5210
 1199TIP3   OH2 3602   4.617   2.840   2.219  0.6024  0.0451  0.1187
 1199TIP3    H1 3603   4.576   2.836   2.132 -0.7096  0.3852  0.7028
 1199TIP3    H2 3604   4.551   2.806   2.279  1.3186  0.2582  1.0525
 1200TIP3   OH2 3605   0.449   2.975   0.144  0.5273  0.6494 -0.0901
 1200TIP3    H1 3606   0.531   3.023   0.154  1.3387 -0.3003 -1.7258
 1200TIP3    H2 3607   0.400   3.024   0.078  0.4144  0.4278 -0.1732
 1201TIP3   OH2 3608   4.053   0.151   0.022 -0.4072  0.0931 -0.6924
 1201TIP3    H1 3609   3.981   0.177   0.079  0.4816  1.3841 -0.1217
 1201TIP3    H2 3610   4.070   0.228  -0.033  0.3499 -0.2845 -1.0102
 1202TIP3   OH2 3611   0.292   4.208   2.095 -0.1609 -0.1711  0.0998
 1202TIP3    H1 3612   0.307   4.253   2.178 -0.7983 -2.3265  1.4871
 1202TIP3    H2 3613   0.208   4.164   2.106 -0.2949 -0.4734 -1.7227
 1203TIP3   OH2 3614   3.034   5.905   1.566 -0.6366 -0.0184  0.2418
 1203TIP3    H1 3615   3.029   5.838   1.498  1.4575 -0.2559  0.2563
 1203TIP3    H2 3616   3.073   5.981   1.522 -2.1485  0.9220  0.4459
 1204TIP3   OH2 3617   4.382   3.788   4.533  0.1271 -0.5454 -0.1533
 1204TIP3    H1 3618   4.464   3.749   4.563 -0.3852  0.0502  2.2011
 1204TIP3    H2 3619   4.325   3.713   4.517  0.0972 -0.8853  1.4216
 1205TIP3   OH2 3620   3.633   2.639   1.839 -0.3151  0.1676  0.1387
 1205TIP3    H1 3621   3.636   2.695   1.761  0.0139 -0.9221 -0.6545
 1205TIP3    H2 3622   3.703   2.575   1.825 -1.9720 -1.7281  0.0118
 1206TIP3   OH2 3623   6.063   1.641   4.176  0.1732  0.3584 -0.0770
 1206TIP3    H1 3624   6.155   1.617   4.191  0.0771  0.1124  0.1334
 1206TIP3    H2 3625   6.039   1.692   4.253 -0.4003 -1.1289  0.7808
 1207TIP3   OH2 3626   1.574   2.557   2.125 -0.5392  0.4679  0.4754
 1207TIP3    H1 3627   1.506   2.520   2.183 -0.0750 -0.7714  0.2646
 1207TIP3    H2 3628   1.648   2.498   2.136 -0.1707  0.6735 -0.7953
 1208TIP3   OH2 3629   3.342   4.436   2.721 -0.3235  0.6478 -0.1028
 1208TIP3    H1 3630   3.399   4.384   2.778 -0.4645  2.2398  1.5645
 1208TIP3    H2 3631   3.387   4.520   2.711 -0.7106  0.7061 -1.7007
 1209TIP3   OH2 3632   2.575   3.823   4.308  0.0474 -0.0768  0.1942
 1209TIP3    H1 3633   2.612   3.736   4.295 -0.2878 -0.3818  1.1245
 1209TIP3    H2 3634   2.598   3.846   4.398  1.2421  1.3667 -0.4320
 1210TIP3   OH2 3635   4.968   3.477   3.500 -0.0513  0.2711 -0.3669
 1210TIP3    H1 3636   4.927   3.452   3.582  0.6963  1.2494  0.3284
 1210TIP3    H2 3637   5.023   3.402   3.477  0.6062  0.4254  0.6296
 1211TIP3   OH2 3638   4.555   5.543   4.715  0.2304 -0.0099  0.2437
 1211TIP3    H1 3639   4.618   5.508   4.652 -0.1660 -1.1313  0.4564
 1211TIP3    H2 3640   4.545   5.635   4.690  3.0044  0.6250  1.0530
 1212TIP3   OH2 3641   3.018   1.523   4.840  0.6975 -0.0753 -0.0522
 1212TIP3    H1 3642   2.986   1.613   4.841 -0.1437 -0.2752 -2.2978
 1212TIP3    H2 3643   2.988   1.485   4.923 -0.0057  1.3592  0.3726
 1213TIP3   OH2 3644   3.711   2.989   2.550  0.2615 -0.2471 -0.6304
 1213TIP3    H1 3645   3.758   2.920   2.597  0.2347 -2.2075 -3.2864
 1213TIP3    H2 3646   3.620   2.961   2.549 -0.3641  1.5112  0.9837
 1214TIP3   OH2 3647   2.004   0.245   3.559  0.0560  0.7924 -0.2565
 1214TIP3    H1 3648   1.944   0.284   3.495 -1.5391 -0.2725  0.5021
 1214TIP3    H2 3649   1.966   0.268   3.643 -0.3711 -1.4681  0.2203
 1215TIP3   OH2 3650   3.244   4.145   3.988  0.0993 -0.1561  0.2808
 1215TIP3    H1 3651   3.181   4.179   3.925  0.6163  0.4769  0.0993
 1215TIP3    H2 3652   3.313   4.105   3.935  0.4283  0.1875  0.4481
 1216TIP3   OH2 3653   5.235   4.003   3.228 -0.0389  0.1248  0.7559
 1216TIP3    H1 3654   5.169   4.069   3.208  1.0002  1.5254  1.7375
 1216TIP3    H2 3655   5.309   4.053   3.263  2.3344 -1.1138 -2.0337
 1217TIP3   OH2 3656   5.412   1.919   1.908 -0.0697  0.4650  0.2037
 1217TIP3    H1 3657   5.364   1.848   1.949 -3.2425  2.3882  0.1755
 1217TIP3    H2 3658   5.440   1.884   1.823 -2.3808 -0.5265 -0.2139
 1218TIP3   OH2 3659   1.313   3.295   1.359 -0.4462  0.1857  0.1962
 1218TIP3    H1 3660   1.238   3.242   1.333  0.0758  0.5774 -2.4563
 1218TIP3    H2 3661   1.369   3.235   1.408 -1.0521 -1.0130 -0.5212
 1219TIP3   OH2 3662   0.620   1.703   0.642  0.2403  0.2135 -0.1909
 1219TIP3    H1 3663   0.690   1.768   0.635 -0.8370  1.5777  0.9973
 1219TIP3    H2 3664   0.578   1.704   0.556  0.8551  0.3495 -0.4957
 1220TIP3   OH2 3665   1.920   5.176   2.356 -0.0964  0.5796 -0.2143
 1220TIP3    H1 3666   1.979   5.151   2.285  1.6622 -0.2091  1.4206
 1220TIP3    H2 3667   1.918   5.271   2.354  0.4069  0.5794 -0.9646
 1221TIP3   OH2 3668   4.111   5.568   3.048  0.5182  0.3502  0.0804
 1221TIP3    H1 3669   4.119   5.520   2.966  0.8481  2.0015 -0.8998
 1221TIP3    H2 3670   4.142   5.507   3.115 -1.6545 -1.7657 -0.7125
 1222TIP3   OH2 3671   3.350   1.334   4.930 -0.4862 -0.1212  0.2613
 1222TIP3    H1 3672   3.273   1.309   4.980 -0.9855 -0.2416 -0.5595
 1222TIP3    H2 3673   3.338   1.293   4.844  0.0073  0.6737 -0.2008
 1223TIP3   OH2 3674   4.136   5.134   3.556 -0.3154  0.2270  0.2395
 1223TIP3    H1 3675   4.221   5.173   3.535 -0.5591  0.9507  0.5644
 1223TIP3    H2 3676   4.140   5.046   3.518  0.7841  0.0463  0.7472
 1224TIP3   OH2 3677   2.217   3.238   5.008 -0.5699  0.1495 -0.1307
 1224TIP3    H1 3678   2.256   3.151   5.007 -1.3808 -0.4048  3.3129
 1224TIP3    H2 3679   2.277   3.291   5.060 -1.4652  0.8688  0.2051
 1225TIP3   OH2 3680   2.207   0.083   1.448  0.2407  0.2942  0.2211
 1225TIP3    H1 3681   2.181   0.054   1.535  2.6840 -0.3898  0.7864
 1225TIP3    H2 3682   2.181   0.012   1.390 -1.4232  0.7671  0.3201
 1226TIP3   OH2 3683   1.392   5.493   3.202  0.1031  0.1818  0.0946
 1226TIP3    H1 3684   1.379   5.553   3.275 -1.1838  0.2503 -0.1672
 1226TIP3    H2 3685   1.372   5.545   3.124  0.5964 -0.1317 -0.2442
 1227TIP3   OH2 3686   4.047   0.346   1.888 -0.4219  0.8894  0.0389
 1227TIP3    H1 3687   3.997   0.296   1.823 -0.4097  0.8118  0.0897
 1227TIP3    H2 3688   4.003   0.431   1.892 -0.0836  1.0961 -0.4903
 1228TIP3   OH2 3689   4.968   1.263   3.041  0.2207 -0.3048  0.1980
 1228TIP3    H1 3690   4.990   1.330   3.106 -0.2400  1.2026 -1.1216
 1228TIP3    H2 3691   4.926   1.312   2.970 -0.3272 -2.0447 -0.7316
 1229TIP3   OH2 3692   3.833   4.583   4.369  0.0676 -0.3614 -0.1927
 1229TIP3    H1 3693   3.810   4.541   4.286  1.4216  1.5953 -1.6698
 1229TIP3    H2 3694   3.756   4.635   4.392  0.3790  0.6702 -1.3590
 1230TIP3   OH2 3695   2.647   4.495   4.246 -0.2659 -0.0100 -0.0296
 1230TIP3    H1 3696   2.726   4.445   4.268 -0.4008  0.5114  1.8454
 1230TIP3    H2 3697   2.679   4.583   4.225 -0.2995  0.1095  0.3982
 1231TIP3   OH2 3698   2.469   4.745   1.389 -0.1849 -0.1882  0.5115
 1231TIP3    H1 3699   2.522   4.817   1.356  1.0925 -1.7984 -1.1704
 1231TIP3    H2 3700   2.467   4.759   1.484  1.4169  1.1407  0.4004
 1232TIP3   OH2 3701   0.363   2.402   1.899 -0.8382  0.4179  0.5281
 1232TIP3    H1 3702   0.447   2.427   1.862 -1.5510  2.3567  0.1180
 1232TIP3    H2 3703   0.384   2.372   1.988  0.3104  0.5539  0.3176
 1233TIP3   OH2 3704   0.861   2.879   1.530  0.1058 -0.5456 -0.0120
 1233TIP3    H1 3705   0.843   2.902   1.621 -0.6864 -0.2425 -0.2336
 1233TIP3    H2 3706   0.900   2.792   1.534 -0.7617 -0.9237  0.5576
 1234TIP3   OH2 3707   5.637   5.272   3.974 -0.3481 -0.2189 -0.2090
 1234TIP3    H1 3708   5.585   5.342   3.935  0.2952  0.4113  0.0271
 1234TIP3    H2 3709   5.658   5.305   4.062 -3.4017 -2.3864  1.5270
 1235TIP3   OH2 3710   1.674   3.906   0.897  0.1070 -0.2029  0.1745
 1235TIP3    H1 3711   1.588   3.896   0.936 -0.0854  0.2599 -0.1180
 1235TIP3    H2 3712   1.677   3.840   0.827 -0.6429  0.8366 -0.8777
 1236TIP3   OH2 3713   5.343   0.416   1.181 -0.5615  0.2982  0.5327
 1236TIP3    H1 3714   5.426   0.401   1.135 -0.3142  0.7914  0.8168
 1236TIP3    H2 3715   5.276   0.398   1.115 -0.2277  0.1105  0.2400
 1237TIP3   OH2 3716   4.353   5.010   0.504 -0.0565 -0.1235 -0.1646
 1237TIP3    H1 3717   4.354   5.026   0.598 -1.7804 -0.5209 -0.0338
 1237TIP3    H2 3718   4.444   4.991   0.481  0.4144  0.1439  1.3867
 1238TIP3   OH2 3719   1.831   5.670   3.263  0.2333 -0.2399  0.5273
 1238TIP3    H1 3720   1.796   5.684   3.175  1.0764 -2.9557 -0.3145
 1238TIP3    H2 3721   1.896   5.740   3.274 -1.7568  1.7698  0.1349
 1239TIP3   OH2 3722   4.605   4.600   1.978  0.5884 -0.2405 -0.4215
 1239TIP3    H1 3723   4.684   4.650   1.958  0.6643 -0.5930 -1.0314
 1239TIP3    H2 3724   4.612   4.579   2.071  0.8713  0.3212 -0.3111
 1240TIP3   OH2 3725   5.229   5.883   3.278  0.4049 -0.7557  0.1040
 1240TIP3    H1 3726   5.183   5.803   3.305  0.2283 -0.9109 -0.6280
 1240TIP3    H2 3727   5.296   5.896   3.345 -0.0469 -1.0985  0.6357
 1241TIP3   OH2 3728   3.617   0.922   1.009 -0.2774  0.3680 -0.6606
 1241TIP3    H1 3729   3.530   0.914   0.969 -0.7715 -0.4608  0.5454
 1241TIP3    H2 3730   3.671   0.859   0.962 -1.5882 -2.8787  1.8381
 1242TIP3   OH2 3731   3.697   2.051   0.091 -0.5638  0.2665  0.8871
 1242TIP3    H1 3732   3.698   1.962   0.125 -1.6890 -1.2283 -2.5543
 1242TIP3    H2 3733   3.788   2.069   0.067 -0.5457 -0.5683  0.2883
 1243TIP3   OH2 3734   1.678   3.514   2.404  0.3826  0.5623  0.5018
 1243TIP3    H1 3735   1.650   3.562   2.481 -1.4710  0.8245 -0.2758
 1243TIP3    H2 3736   1.648   3.424   2.420  0.7906  0.4235  0.4802
 1244TIP3   OH2 3737   0.196   0.259   2.484  0.0496 -0.4265 -0.7315
 1244TIP3    H1 3738   0.216   0.347   2.516  0.3911 -0.6779 -0.2391
 1244TIP3    H2 3739   0.214   0.202   2.558  0.5997 -0.9944 -1.2914
 1245TIP3   OH2 3740   6.260   5.700   2.710 -0.2863 -0.3148 -0.3016
 1245TIP3    H1 3741   6.345   5.671   2.744  0.6960  0.3749 -2.0330
 1245TIP3    H2 3742   6.230   5.628   2.655  1.7870  1.3575 -3.9762
 1246TIP3   OH2 3743   3.428   2.816   3.662 -0.0088  0.2720 -0.0572
 1246TIP3    H1 3744   3.403   2.905   3.638 -0.0218  0.1529 -0.4926
 1246TIP3    H2 3745   3.356   2.761   3.631  0.8086 -0.0847 -1.3961
 1247TIP3   OH2 3746   2.974   1.525   1.551 -0.3138  0.5283 -0.1259
 1247TIP3    H1 3747   3.064   1.554   1.539 -0.9084  1.6303 -2.4127
 1247TIP3    H2 3748   2.931   1.597   1.598 -0.7684  1.6512 -2.1141
 1248TIP3   OH2 3749   2.846   0.944   5.183 -0.0468 -0.4033  0.6717
 1248TIP3    H1 3750   2.930   0.955   5.139  0.2117 -0.3231  1.1675
 1248TIP3    H2 3751   2.803   0.873   5.137  0.3463 -0.5275  0.4927
 1249TIP3   OH2 3752   1.766   5.223   3.877  0.0692  0.2079  0.0512
 1249TIP3    H1 3753   1.714   5.300   3.853  0.1180  0.1693 -0.1732
 1249TIP3    H2 3754   1.702   5.163   3.917  0.1073  0.5394  0.6247
 1250TIP3   OH2 3755   5.409   3.569   0.161  0.0648 -0.1855 -0.2953
 1250TIP3    H1 3756   5.339   3.575   0.226  2.1995  0.2352  2.1110
 1250TIP3    H2 3757   5.385   3.633   0.093 -2.3181 -0.7659 -0.0621
 1251TIP3   OH2 3758   2.424   2.949   4.169  0.2793 -0.1005 -0.1431
 1251TIP3    H1 3759   2.417   3.044   4.179 -0.8390  0.1768 -2.6769
 1251TIP3    H2 3760   2.508   2.926   4.209  1.5920  2.2756 -1.3561
 1252TIP3   OH2 3761   1.087   0.624   2.000  0.1701  0.4866 -0.2481
 1252TIP3    H1 3762   1.063   0.714   1.979  0.2416  0.2584 -1.4038
 1252TIP3    H2 3763   1.013   0.571   1.970  0.3267  0.1276 -0.0159
 1253TIP3   OH2 3764   2.308   4.362   0.800  0.6139 -1.2077 -0.4704
 1253TIP3    H1 3765   2.337   4.415   0.726  0.6279  1.3547  1.2335
 1253TIP3    H2 3766   2.382   4.363   0.861 -1.0253  1.1599  1.7253
 1254TIP3   OH2 3767   1.605   4.763   4.928  0.7864  0.0979  0.8290
 1254TIP3    H1 3768   1.683   4.804   4.890  0.1311  0.1767 -0.4878
 1254TIP3    H2 3769   1.618   4.770   5.023  2.3790  0.0971  0.6337
 1255TIP3   OH2 3770   4.829   2.461   0.780 -0.0589  0.2707 -0.3163
 1255TIP3    H1 3771   4.856   2.373   0.808 -0.3749 -0.0163 -0.8974
 1255TIP3    H2 3772   4.881   2.520   0.835  2.0091 -0.2606 -1.6083
 1256TIP3   OH2 3773   2.570   2.063   3.283  0.4118 -0.1035  0.2261
 1256TIP3    H1 3774   2.603   1.985   3.326  1.0655 -0.2389 -0.4929
 1256TIP3    H2 3775   2.503   2.097   3.342 -0.2875 -1.5116  0.2846
 1257TIP3   OH2 3776   2.643   4.195   0.688  0.2677 -0.0704  0.2030
 1257TIP3    H1 3777   2.716   4.245   0.651  1.1617  0.5440  2.6010
 1257TIP3    H2 3778   2.584   4.181   0.614  1.7389  1.3615 -1.3413
 1258TIP3   OH2 3779   5.247   3.373   4.470 -0.3524 -0.1215  0.2986
 1258TIP3    H1 3780   5.327   3.323   4.451 -0.7686 -1.3776  1.6290
 1258TIP3    H2 3781   5.177   3.310   4.458 -0.9760  0.4004  1.1194
 1259TIP3   OH2 3782   0.718   0.051   4.334 -0.2052 -0.0417 -0.0740
 1259TIP3    H1 3783   0.774   0.129   4.334  2.4425 -1.7751 -2.2166
 1259TIP3    H2 3784   0.773  -0.019   4.369 -2.3707 -1.1366  1.3784
 1260TIP3   OH2 3785   6.257   5.000   4.829 -0.6972 -0.5164  0.0504
 1260TIP3    H1 3786   6.293   4.941   4.895  1.1104  0.0077 -0.4183
 1260TIP3    H2 3787   6.333   5.040   4.787 -1.7920 -0.1786 -1.7700
 1261TIP3   OH2 3788   3.518   2.298   4.371  0.6743 -0.9718 -0.0022
 1261TIP3    H1 3789   3.431   2.310   4.333  1.0989  1.7349 -0.3553
 1261TIP3    H2 3790   3.578   2.303   4.296  1.3288  1.5660  0.5812
 1262TIP3   OH2 3791   1.279   2.312   0.100  0.0216 -0.1332  0.1666
 1262TIP3    H1 3792   1.256   2.404   0.088  1.4119  0.2571  0.2526
 1262TIP3    H2 3793   1.239   2.287   0.183  1.7892  1.2025  1.5082
 1263TIP3   OH2 3794   0.289   0.666   3.185  0.5989  0.1759  0.7205
 1263TIP3    H1 3795   0.228   0.640   3.116 -1.4679 -0.1782  2.5513
 1263TIP3    H2 3796   0.358   0.600   3.182 -1.3142 -2.0122  1.2133
 1264TIP3   OH2 3797   3.338   3.389   3.555  0.0163  0.0793 -0.1418
 1264TIP3    H1 3798   3.297   3.376   3.640 -0.4694  1.2343 -0.1745
 1264TIP3    H2 3799   3.429   3.363   3.568 -0.3409 -0.9757  0.3681
 1265TIP3   OH2 3800   0.587   2.642   3.409  0.1860  0.1658  0.3789
 1265TIP3    H1 3801   0.509   2.614   3.458  0.8352 -0.2579  1.2079
 1265TIP3    H2 3802   0.582   2.594   3.327 -0.0947 -0.3736  0.7019
 1266TIP3   OH2 3803   5.651   2.383   0.125  0.1435  0.1815  0.0850
 1266TIP3    H1 3804   5.586   2.345   0.066  0.1387 -2.2584  1.5371
 1266TIP3    H2 3805   5.602   2.408   0.203  0.7781 -1.1208  0.9517
 1267TIP3   OH2 3806   2.335   1.539   5.059  0.2141 -0.0934 -0.2935
 1267TIP3    H1 3807   2.255   1.497   5.030 -0.2121 -0.1895  0.9812
 1267TIP3    H2 3808   2.395   1.531   4.985 -0.8715 -0.2114 -1.1761
 1268TIP3   OH2 3809   4.511   4.194   4.712  0.2680  0.3378  0.1758
 1268TIP3    H1 3810   4.465   4.265   4.757 -0.2587 -0.4171  0.8620
 1268TIP3    H2 3811   4.573   4.238   4.654  1.5132  1.3434  2.1778
 1269TIP3   OH2 3812   4.852   1.914   0.362 -0.0551  0.1662  0.3288
 1269TIP3    H1 3813   4.895   1.908   0.446 -0.5436  0.4611  0.6081
 1269TIP3    H2 3814   4.769   1.867   0.374  0.8425 -1.7656 -0.6550
 1270TIP3   OH2 3815   2.524   2.163   2.838 -0.1688 -0.4622 -0.1125
 1270TIP3    H1 3816   2.495   2.072   2.825 -0.5162 -0.4509  0.5657
 1270TIP3    H2 3817   2.444   2.215   2.830 -0.2807 -0.3847  1.2720
 1271TIP3   OH2 3818   4.736   3.346   0.778 -0.2779  0.1436  0.2640
 1271TIP3    H1 3819   4.701   3.322   0.863  0.4172 -0.4267  0.4028
 1271TIP3    H2 3820   4.732   3.266   0.726  0.8818  0.0349  0.3148
 1272TIP3   OH2 3821   0.337   2.519   2.173  0.0341  0.2096  0.3064
 1272TIP3    H1 3822   0.309   2.434   2.139  1.3407 -0.2574  0.3399
 1272TIP3    H2 3823   0.365   2.501   2.262  2.8603  0.0620 -0.4972
 1273TIP3   OH2 3824   4.013   3.258   4.351  0.1840 -0.2422  0.2083
 1273TIP3    H1 3825   4.008   3.342   4.306 -1.0947 -1.1705 -1.4948
 1273TIP3    H2 3826   4.104   3.231   4.342  0.1988  0.1304 -0.8179
 1274TIP3   OH2 3827   0.635   3.463   0.260 -0.0711  0.3891 -0.4398
 1274TIP3    H1 3828   0.624   3.536   0.200  0.6554  0.7852 -0.0964
 1274TIP3    H2 3829   0.714   3.483   0.310  1.1261 -1.4238 -1.4904
 1275TIP3   OH2 3830   5.966   0.125   0.389  0.7084 -0.7032  0.4453
 1275TIP3    H1 3831   5.924   0.210   0.402  0.8852 -0.8066  1.8817
 1275TIP3    H2 3832   5.896   0.069   0.357 -0.2862 -0.8264  2.6575
 1276TIP3   OH2 3833   5.991   3.819   5.192 -0.0747  0.0179 -0.1914
 1276TIP3    H1 3834   5.919   3.756   5.189 -0.9591  1.0318 -1.6129
 1276TIP3    H2 3835   6.063   3.774   5.146 -0.5023 -0.1987 -0.6675
 1277TIP3   OH2 3836   0.533   4.417   1.216 -0.4765 -0.3065 -0.3331
 1277TIP3    H1 3837   0.618   4.375   1.228 -1.4097 -1.9354  1.0462
 1277TIP3    H2 3838   0.505   4.390   1.128  0.5784  0.5848 -0.9636
 1278TIP3   OH2 3839   4.100   2.462   1.513  0.8564  0.8342  0.0565
 1278TIP3    H1 3840   4.181   2.512   1.502  0.1751  1.7763 -0.8881
 1278TIP3    H2 3841   4.047   2.486   1.437  1.0981 -2.5432 -1.3796
 1279TIP3   OH2 3842   2.020   1.307   2.801  0.1600  0.2437 -0.4594
 1279TIP3    H1 3843   2.113   1.293   2.818 -0.2584 -0.8427  1.1724
 1279TIP3    H2 3844   1.987   1.221   2.774 -0.3923  0.5888 -0.8981
 1280TIP3   OH2 3845   1.528   2.115   1.312 -0.6275  0.1843  0.3516
 1280TIP3    H1 3846   1.453   2.067   1.346 -0.9289 -0.7699 -1.5143
 1280TIP3    H2 3847   1.490   2.183   1.256 -0.1184  0.2795  0.1071
 1281TIP3   OH2 3848   0.461   1.218   4.794  0.1646  0.0409  0.1478
 1281TIP3    H1 3849   0.501   1.131   4.791 -3.0702 -1.6151  0.4772
 1281TIP3    H2 3850   0.513   1.270   4.732  1.8973 -2.2235 -0.4708
 1282TIP3   OH2 3851   2.380   3.665   1.332 -0.3467 -1.2558 -0.5331
 1282TIP3    H1 3852   2.466   3.709   1.327 -1.3818  0.9041 -0.6464
 1282TIP3    H2 3853   2.324   3.717   1.274 -1.9441 -2.0857  0.2199
 1283TIP3   OH2 3854   1.028   2.672   4.558  0.1905 -0.3493 -0.2892
 1283TIP3    H1 3855   1.087   2.602   4.588 -0.1397 -0.3867  0.2768
 1283TIP3    H2 3856   1.032   2.667   4.463 -0.9866 -2.1361 -0.2934
 1284TIP3   OH2 3857   4.472   3.183   0.698 -0.5623  0.3035  0.2398
 1284TIP3    H1 3858   4.397   3.220   0.744 -2.0096 -0.9867 -0.9612
 1284TIP3    H2 3859   4.499   3.252   0.637 -1.1646  0.5770  0.2733
 1285TIP3   OH2 3860   6.193   5.694   3.067 -0.1632 -0.3826  0.0495
 1285TIP3    H1 3861   6.112   5.644   3.078  0.7500 -1.4840  2.6287
 1285TIP3    H2 3862   6.169   5.784   3.091 -0.6625 -0.6968  0.7758
 1286TIP3   OH2 3863   5.983   5.585   4.854  0.1532  0.0022 -0.0302
 1286TIP3    H1 3864   5.899   5.629   4.858 -1.1665 -2.4380  2.1022
 1286TIP3    H2 3865   6.039   5.634   4.915 -0.1308  0.8714 -0.4652
 1287TIP3   OH2 3866   0.465   2.894   2.708  0.1273  0.1217 -0.1751
 1287TIP3    H1 3867   0.440   2.978   2.669 -1.8307  0.3849  1.5101
 1287TIP3    H2 3868   0.510   2.918   2.789  1.5443 -0.4702 -0.7468
 1288TIP3   OH2 3869   5.077   3.112   1.314 -0.3193  0.7067 -0.2637
 1288TIP3    H1 3870   5.025   3.182   1.275 -0.6315  0.8970  0.4818
 1288TIP3    H2 3871   5.159   3.155   1.339 -0.7462  0.9763  0.7617
 1289TIP3   OH2 3872   1.094   0.544   4.521  0.1788 -0.5090 -0.2571
 1289TIP3    H1 3873   1.126   0.632   4.541 -0.3468 -0.3458 -0.0941
 1289TIP3    H2 3874   0.999   0.551   4.532  0.1746 -1.2202  0.2219
 1290TIP3   OH2 3875   5.087   1.040   4.016  0.0786 -0.7852  0.1164
 1290TIP3    H1 3876   5.091   1.009   4.106 -0.6813 -1.8425 -0.1829
 1290TIP3    H2 3877   5.066   1.133   4.023  0.9797 -0.6345  1.0331
 1291TIP3   OH2 3878   2.174   3.371   1.538  0.3093  0.4186 -0.5741
 1291TIP3    H1 3879   2.100   3.325   1.576 -0.9941  1.5251 -1.6523
 1291TIP3    H2 3880   2.181   3.453   1.588 -0.5016  1.2212 -1.7177
 1292TIP3   OH2 3881   2.587   3.427   4.411  0.4662  0.6445  0.1532
 1292TIP3    H1 3882   2.510   3.389   4.453  0.4548  0.8053  0.2761
 1292TIP3    H2 3883   2.558   3.449   4.323 -0.1511  2.3812  0.7447
 1293TIP3   OH2 3884   1.899   2.462   0.632 -0.7151  0.4943 -0.1385
 1293TIP3    H1 3885   1.949   2.449   0.712 -1.7998 -0.3311  0.4306
 1293TIP3    H2 3886   1.929   2.394   0.573 -1.4868 -0.3010  0.3714
 1294TIP3   OH2 3887   1.086   4.129   0.031  0.3806 -0.0506  0.3100
 1294TIP3    H1 3888   1.041   4.177  -0.039  0.8667  1.5798  1.0521
 1294TIP3    H2 3889   1.099   4.195   0.100  0.7104 -1.3866  1.5664
 1295TIP3   OH2 3890   5.359   1.329   2.411  0.3801 -0.2939  0.5940
 1295TIP3    H1 3891   5.401   1.260   2.463  0.0270 -0.5538  0.5449
 1295TIP3    H2 3892   5.421   1.401   2.412  0.2461 -0.1722  1.6531
 1296TIP3   OH2 3893   4.482   3.141   2.345 -0.5325 -0.1320 -0.1643
 1296TIP3    H1 3894   4.521   3.060   2.311 -0.2117  0.2341 -0.6823
 1296TIP3    H2 3895   4.414   3.111   2.405  1.8531 -0.8577  2.4179
 1297TIP3   OH2 3896   2.400   5.948   1.086  0.7342 -0.4869 -0.1786
 1297TIP3    H1 3897   2.306   5.964   1.083  0.7718  0.1361  1.1418
 1297TIP3    H2 3898   2.408   5.858   1.117  0.5598  0.0094  1.3845
 1298TIP3   OH2 3899   5.428   5.772   1.686 -0.2160 -0.8022  0.0692
 1298TIP3    H1 3900   5.426   5.862   1.654 -1.0170 -0.1828  1.7302
 1298TIP3    H2 3901   5.346   5.734   1.653  0.1792 -0.9758 -0.7330
 1299TIP3   OH2 3902   1.350   4.772   4.013 -0.0893 -0.0575 -0.2712
 1299TIP3    H1 3903   1.310   4.742   3.931  0.1974 -0.4442 -0.2734
 1299TIP3    H2 3904   1.414   4.704   4.035  0.5494  0.5385 -0.2510
 1300TIP3   OH2 3905   2.567   1.653   2.232  0.6315 -0.3533  0.1353
 1300TIP3    H1 3906   2.592   1.581   2.290  1.2896  0.2435  0.6132
 1300TIP3    H2 3907   2.608   1.731   2.271  2.1405 -0.0951 -1.7782
 1301TIP3   OH2 3908   1.805   0.583   3.972 -0.0508 -0.2530 -0.2046
 1301TIP3    H1 3909   1.804   0.533   3.890  0.7703  0.7426 -0.8349
 1301TIP3    H2 3910   1.768   0.668   3.949 -0.1767 -0.0925  0.5541
 1302TIP3   OH2 3911   5.093   1.750   3.316 -0.5228  0.7805 -0.5141
 1302TIP3    H1 3912   5.170   1.697   3.293 -0.9992 -0.7281  1.1258
 1302TIP3    H2 3913   5.118   1.839   3.292  1.3821  0.2098 -0.8774
 1303TIP3   OH2 3914   4.101   5.247   2.203  0.5403  0.1732  0.0336
 1303TIP3    H1 3915   4.075   5.173   2.257 -0.2907  0.1719 -0.3622
 1303TIP3    H2 3916   4.036   5.315   2.221  1.8260  1.1662  1.1158
 1304TIP3   OH2 3917   5.560   0.211   4.468  0.4288 -0.3040  0.3291
 1304TIP3    H1 3918   5.568   0.116   4.471  1.4354 -0.2069  1.8450
 1304TIP3    H2 3919   5.532   0.235   4.557  3.0051  0.9991  0.8701
 1305TIP3   OH2 3920   2.286   5.066   0.248 -0.6968  0.3049  0.0358
 1305TIP3    H1 3921   2.196   5.073   0.216 -0.9952 -0.3414  0.7029
 1305TIP3    H2 3922   2.334   5.132   0.198 -1.9647  2.1751  1.1134
 1306TIP3   OH2 3923   4.258   0.918   4.418  0.0530 -0.1322 -0.1468
 1306TIP3    H1 3924   4.208   0.840   4.394 -0.5929  0.8884 -2.3173
 1306TIP3    H2 3925   4.311   0.938   4.341  1.9912  0.2571  1.2148
 1307TIP3   OH2 3926   1.139   3.535   3.466 -0.1359  0.1235  0.0672
 1307TIP3    H1 3927   1.176   3.447   3.462  0.8071  0.5362 -1.8287
 1307TIP3    H2 3928   1.050   3.526   3.431 -0.0147 -0.0612 -0.1926
 1308TIP3   OH2 3929   3.893   5.150   4.115 -0.4106  0.4889 -0.1469
 1308TIP3    H1 3930   3.984   5.175   4.100 -0.7364  1.3587 -0.7283
 1308TIP3    H2 3931   3.843   5.200   4.050 -1.3101  0.0686  0.2041
 1309TIP3   OH2 3932   4.622   3.521   4.325 -0.4933 -0.0687  0.3708
 1309TIP3    H1 3933   4.603   3.575   4.249 -1.3828 -0.6578  0.1599
 1309TIP3    H2 3934   4.540   3.475   4.344 -0.1361 -0.3460  1.3524
 1310TIP3   OH2 3935   0.398   3.630   3.542 -0.4148  0.0543 -0.0203
 1310TIP3    H1 3936   0.444   3.556   3.583 -0.0574 -0.2145 -0.8985
 1310TIP3    H2 3937   0.333   3.656   3.608  1.0570  0.5275  1.2870
 1311TIP3   OH2 3938   0.748   2.226   1.277 -0.2248 -0.0503  0.5066
 1311TIP3    H1 3939   0.734   2.135   1.305 -0.9974 -0.3658 -0.8161
 1311TIP3    H2 3940   0.728   2.225   1.183  0.3336  1.3728  0.3561
 1312TIP3   OH2 3941   0.150   5.597   0.718  0.0977 -0.3842  0.2549
 1312TIP3    H1 3942   0.215   5.607   0.649 -1.5339 -0.0278 -1.3191
 1312TIP3    H2 3943   0.124   5.504   0.713 -0.8021 -0.1166 -0.4019
 1313TIP3   OH2 3944   1.489   2.795   1.248 -0.5367 -0.3389 -0.2157
 1313TIP3    H1 3945   1.419   2.859   1.233  1.3962  1.8370 -0.4998
 1313TIP3    H2 3946   1.552   2.811   1.178  1.2512 -0.7306  1.2084
 1314TIP3   OH2 3947   5.846   0.455   3.809 -0.1102 -0.3829  0.5824
 1314TIP3    H1 3948   5.821   0.386   3.747 -0.8651 -0.0692  0.5361
 1314TIP3    H2 3949   5.764   0.487   3.844  0.1695  1.1149 -0.0494
 1315TIP3   OH2 3950   1.409   0.821   4.556 -0.1128 -0.3944 -0.2642
 1315TIP3    H1 3951   1.438   0.740   4.514 -0.8033 -0.5492 -0.4409
 1315TIP3    H2 3952   1.490   0.870   4.570  0.3891 -1.3852  0.4332
 1316TIP3   OH2 3953   5.338   0.424   4.651 -0.3572 -0.0908 -0.3326
 1316TIP3    H1 3954   5.403   0.397   4.716 -0.4314 -1.1773 -0.6911
 1316TIP3    H2 3955   5.263   0.454   4.703  1.1127  3.2601  0.1654
 1317TIP3   OH2 3956   6.154   2.664   4.047  0.1481 -0.4038  0.0288
 1317TIP3    H1 3957   6.089   2.646   3.978 -0.5856 -0.6426  0.7643
 1317TIP3    H2 3958   6.152   2.759   4.057  1.0678 -0.2551 -1.0399
 1318TIP3   OH2 3959   2.304   1.280   3.091 -0.3983  0.4545  0.4032
 1318TIP3    H1 3960   2.289   1.335   3.167  0.9563  1.2596  0.1280
 1318TIP3    H2 3961   2.284   1.191   3.121  0.6401  0.6816  1.8785
 1319TIP3   OH2 3962   4.990   2.412   4.614  0.3531  0.1751 -0.0994
 1319TIP3    H1 3963   5.049   2.397   4.688  0.1301  2.0494  0.5048
 1319TIP3    H2 3964   5.047   2.409   4.537  0.9639  0.3022  0.3352
 1320TIP3   OH2 3965   1.403   5.312   0.525 -0.4855 -0.4110 -0.7685
 1320TIP3    H1 3966   1.401   5.326   0.619 -0.3167 -0.6555 -0.7270
 1320TIP3    H2 3967   1.458   5.382   0.491 -0.4298 -0.4062 -0.6685
 1321TIP3   OH2 3968   1.782   4.438   2.827  0.2563 -0.4055 -0.1788
 1321TIP3    H1 3969   1.765   4.524   2.865  1.0566 -0.9719  1.5723
 1321TIP3    H2 3970   1.705   4.386   2.848  0.3104 -0.4666 -0.1309
 1322TIP3   OH2 3971   5.319   2.609   4.083 -0.0822 -0.1005  0.6407
 1322TIP3    H1 3972   5.296   2.698   4.111  1.5568  0.3972  0.4908
 1322TIP3    H2 3973   5.248   2.584   4.023 -0.5025  1.1549  0.5796
 1323TIP3   OH2 3974   3.421   5.343   1.039 -0.3933 -0.4214  0.2811
 1323TIP3    H1 3975   3.422   5.354   1.134 -0.9527 -0.5079  0.2991
 1323TIP3    H2 3976   3.339   5.382   1.010  0.3631  0.7836 -0.3220
 1324TIP3   OH2 3977   0.204   1.599   3.554  0.1900 -0.0831  0.0304
 1324TIP3    H1 3978   0.250   1.635   3.478  0.4970  0.9656  0.6942
 1324TIP3    H2 3979   0.264   1.613   3.627 -1.5961  2.4690  1.1546
 1325TIP3   OH2 3980   5.963   2.196   4.221 -0.0463 -0.0070 -1.0715
 1325TIP3    H1 3981   6.017   2.256   4.273 -0.5534 -0.3580 -0.1057
 1325TIP3    H2 3982   6.024   2.130   4.188  0.5041  0.9670 -2.0734
 1326TIP3   OH2 3983   5.743   1.248   3.933 -0.0394  0.2825 -0.1292
 1326TIP3    H1 3984   5.740   1.226   4.026  0.6028  0.1635 -0.1262
 1326TIP3    H2 3985   5.656   1.228   3.900  0.2300 -1.3974  0.0777
 1327TIP3   OH2 3986   4.425   4.800   1.810 -0.2696 -0.4739 -0.0318
 1327TIP3    H1 3987   4.359   4.775   1.876 -0.4012  0.3008  0.1317
 1327TIP3    H2 3988   4.492   4.732   1.818 -1.4891 -1.8378 -0.8657
 1328TIP3   OH2 3989   5.156   5.804   4.373  0.8149  0.0065  0.1433
 1328TIP3    H1 3990   5.155   5.748   4.295 -2.0105  0.9119 -0.5772
 1328TIP3    H2 3991   5.110   5.753   4.440 -1.7860  1.3409 -0.5212
 1329TIP3   OH2 3992   0.074   1.649   1.303  0.2146 -0.0156 -1.1564
 1329TIP3    H1 3993   0.070   1.706   1.380  2.9130  0.7990 -1.5130
 1329TIP3    H2 3994   0.154   1.598   1.315  0.1843 -0.5518 -2.9443
 1330TIP3   OH2 3995   0.510   3.277   4.260 -0.4949  0.0083 -0.6099
 1330TIP3    H1 3996   0.460   3.291   4.340  1.5190  0.9262  0.5520
 1330TIP3    H2 3997   0.600   3.265   4.289  0.3157  0.4106 -2.7516
 1331TIP3   OH2 3998   5.426   2.729   2.681  0.6307  0.4087  0.1015
 1331TIP3    H1 3999   5.395   2.804   2.631  2.1788  0.3758 -0.9885
 1331TIP3    H2 4000   5.471   2.675   2.617  1.4803 -0.3435  1.2887
 1332TIP3   OH2 4001   2.088   0.979   0.029 -0.0665  0.5139  0.4092
 1332TIP3    H1 4002   2.152   0.968  -0.042 -1.9971 -2.1421 -1.1055
 1332TIP3    H2 4003   2.103   0.904   0.087 -1.1032  0.4493  0.6095
 1333TIP3   OH2 4004   1.014   3.399   2.272 -0.0348  0.0471 -0.2393
 1333TIP3    H1 4005   1.050   3.311   2.284  0.6969  0.4921  1.1420
 1333TIP3    H2 4006   0.920   3.386   2.266 -0.0182 -0.7884  0.8887
 1334TIP3   OH2 4007   0.893   5.712   4.661 -0.3671 -0.0778  0.2559
 1334TIP3    H1 4008   0.810   5.666   4.662 -1.0817  1.1739  1.6110
 1334TIP3    H2 4009   0.871   5.802   4.635  0.5399  0.3003  0.7336
 1335TIP3   OH2 4010   5.695   1.141   0.918  0.4670 -0.0970 -0.3409
 1335TIP3    H1 4011   5.684   1.224   0.965  1.8786  1.1560 -2.0433
 1335TIP3    H2 4012   5.606   1.110   0.902 -0.1446  1.6220 -0.5139
 1336TIP3   OH2 4013   4.037   2.823   1.221  0.6471 -0.0253 -0.1652
 1336TIP3    H1 4014   4.129   2.805   1.241  0.6093 -0.0418 -0.0064
 1336TIP3    H2 4015   4.041   2.886   1.149  0.7907  0.7760  0.5371
 1337TIP3   OH2 4016   2.141   5.174   5.005 -0.4732 -0.0463  0.2341
 1337TIP3    H1 4017   2.197   5.097   5.011 -1.5422 -1.0600 -1.7357
 1337TIP3    H2 4018   2.199   5.244   4.977 -0.0311 -0.9437 -1.2143
 1338TIP3   OH2 4019   0.085   1.963   3.618  0.4130  0.1407 -0.3812
 1338TIP3    H1 4020   0.177   1.967   3.643 -0.4277 -0.2069  3.4175
 1338TIP3    H2 4021   0.055   1.877   3.646 -1.9873  1.8022  2.9495
 1339TIP3   OH2 4022   3.782   0.356   4.478 -0.0329 -0.3644  0.0259
 1339TIP3    H1 4023   3.754   0.362   4.570  0.2992  1.5420  0.0435
 1339TIP3    H2 4024   3.792   0.262   4.463  0.7053 -0.6986  2.1870
 1340TIP3   OH2 4025   3.720   1.410   3.742 -0.7492  0.5590 -0.3314
 1340TIP3    H1 4026   3.787   1.476   3.759 -0.8249  0.3386  0.9146
 1340TIP3    H2 4027   3.645   1.459   3.710 -0.3886  0.9304 -0.6219
 1341TIP3   OH2 4028   6.157   1.327   2.371 -0.1241  0.1488  0.2119
 1341TIP3    H1 4029   6.191   1.367   2.450  0.8154 -0.4218  0.1215
 1341TIP3    H2 4030   6.144   1.400   2.310  0.2625  0.4690  0.5079
 1342TIP3   OH2 4031   4.049   2.199   1.456  0.4118 -0.6137 -0.0656
 1342TIP3    H1 4032   3.956   2.212   1.436  0.6463  0.2618 -0.6507
 1342TIP3    H2 4033   4.083   2.288   1.467  1.3342 -0.8981 -0.6015
 1343TIP3   OH2 4034   0.185   1.446   4.122  0.0651  0.3877  0.3815
 1343TIP3    H1 4035   0.193   1.451   4.027 -0.8209 -1.0404  0.2064
 1343TIP3    H2 4036   0.109   1.500   4.143  0.8101  1.4534  0.3953
 1344TIP3   OH2 4037   2.176   5.981   2.113  0.4489 -0.5082  0.0246
 1344TIP3    H1 4038   2.244   6.030   2.160 -0.5117  0.4096  0.4835
 1344TIP3    H2 4039   2.165   5.900   2.163  1.5101 -0.8787 -0.3104
 1345TIP3   OH2 4040   1.624   1.016   2.253 -0.1847 -0.1825 -0.1859
 1345TIP3    H1 4041   1.657   0.942   2.304 -1.5532 -1.6430 -1.2727
 1345TIP3    H2 4042   1.660   1.002   2.165  0.9293  1.4471 -0.0221
 1346TIP3   OH2 4043   4.135   5.460   0.476 -0.3603  0.5261 -0.0984
 1346TIP3    H1 4044   4.223   5.435   0.447 -0.4149  0.6592 -0.3825
 1346TIP3    H2 4045   4.136   5.446   0.571 -0.6222 -1.3240 -0.3149
 1347TIP3   OH2 4046   4.694   5.857   4.979 -0.2278 -0.0030  0.3589
 1347TIP3    H1 4047   4.670   5.774   5.020 -0.0797 -0.1293  0.1881
 1347TIP3    H2 4048   4.729   5.833   4.893 -3.7486  0.4575 -1.3573
 1348TIP3   OH2 4049   4.472   0.259   4.556 -0.0981  0.5421  0.0594
 1348TIP3    H1 4050   4.378   0.248   4.571  0.0219 -1.2630 -0.2969
 1348TIP3    H2 4051   4.484   0.354   4.549 -1.8695  0.8170  0.1953
 1349TIP3   OH2 4052   0.191   2.332   3.634  0.2340 -0.2249 -0.0394
 1349TIP3    H1 4053   0.261   2.292   3.582  0.9977  0.7963  0.1687
 1349TIP3    H2 4054   0.208   2.426   3.629  0.9619 -0.1091  2.9096
 1350TIP3   OH2 4055   2.745   5.581   1.815 -0.2911 -0.0636 -0.6537
 1350TIP3    H1 4056   2.770   5.586   1.908  0.5049  0.4127 -0.8852
 1350TIP3    H2 4057   2.650   5.577   1.817 -0.3016  0.2139  0.1840
 1351TIP3   OH2 4058   3.447   3.885   3.252 -0.6007  0.2722 -0.2697
 1351TIP3    H1 4059   3.381   3.837   3.201 -2.3874  1.8467  0.4697
 1351TIP3    H2 4060   3.399   3.921   3.326  1.1220  1.4170  0.3530
 1352TIP3   OH2 4061   3.451   5.675   0.368 -0.2804  0.0607  0.2069
 1352TIP3    H1 4062   3.471   5.691   0.276  0.5129 -0.4143  0.2919
 1352TIP3    H2 4063   3.413   5.757   0.399  0.0871  0.4509 -0.3662
 1353TIP3   OH2 4064   2.874   0.484   1.195  0.3238 -0.6042  0.3244
 1353TIP3    H1 4065   2.805   0.538   1.156 -0.4048 -1.9966 -0.3854
 1353TIP3    H2 4066   2.890   0.524   1.280 -0.4561  0.5076 -0.0266
 1354TIP3   OH2 4067   0.057   3.371   5.107 -0.1304 -0.0245 -0.2240
 1354TIP3    H1 4068   0.084   3.448   5.158 -0.6706 -0.5776  0.9309
 1354TIP3    H2 4069   0.138   3.320   5.096  0.1735  0.5585 -0.7490
 1355TIP3   OH2 4070   0.967   2.239   3.120 -0.1263 -0.4032 -0.0689
 1355TIP3    H1 4071   1.040   2.227   3.059 -0.0030 -0.8800  0.1684
 1355TIP3    H2 4072   0.899   2.180   3.087  0.0903 -0.9770  0.4867
 1356TIP3   OH2 4073   3.627   1.333   2.059 -0.0781  0.7135 -0.4969
 1356TIP3    H1 4074   3.543   1.372   2.086  0.3646  2.1140 -1.0195
 1356TIP3    H2 4075   3.661   1.395   1.995  0.0380 -1.2751 -2.4663
 1357TIP3   OH2 4076   2.598   5.019   0.415  0.1123 -0.3113  0.3986
 1357TIP3    H1 4077   2.626   5.108   0.438 -0.9703  0.2233 -0.2801
 1357TIP3    H2 4078   2.620   5.009   0.323 -1.2294 -0.1288  0.0320
 1358TIP3   OH2 4079   0.556   4.165   1.415 -0.0455  0.1948 -0.1276
 1358TIP3    H1 4080   0.618   4.235   1.392 -0.7022  0.8290  0.0076
 1358TIP3    H2 4081   0.480   4.183   1.360 -1.6301  1.6895  2.3783
 1359TIP3   OH2 4082   1.723   4.521   5.161 -0.3956 -0.0551 -0.1343
 1359TIP3    H1 4083   1.768   4.447   5.201 -0.6617 -0.5466 -0.7317
 1359TIP3    H2 4084   1.702   4.492   5.073 -2.3465 -0.0389  0.2858
 1360TIP3   OH2 4085   2.144   3.317   4.764 -1.2923 -0.4480  0.3653
 1360TIP3    H1 4086   2.150   3.413   4.772  0.4367 -0.4650 -0.2068
 1360TIP3    H2 4087   2.169   3.284   4.850 -0.7181 -0.3863  0.2276
 1361TIP3   OH2 4088   3.410   3.657   1.249  0.0720  0.2018  0.4109
 1361TIP3    H1 4089   3.344   3.591   1.227  0.1947 -0.1043  0.9412
 1361TIP3    H2 4090   3.479   3.645   1.185  0.1738 -0.3050  0.6101
 1362TIP3   OH2 4091   0.954   2.104   3.347  0.4096 -0.3816 -0.0190
 1362TIP3    H1 4092   0.953   2.177   3.286  1.0795 -0.1084  0.2862
 1362TIP3    H2 4093   0.990   2.031   3.296  1.5999  0.0139  0.2087
 1363TIP3   OH2 4094   1.833   0.517   2.547  0.6321 -0.4770 -0.8057
 1363TIP3    H1 4095   1.759   0.531   2.488  0.3200 -0.7474 -0.4804
 1363TIP3    H2 4096   1.886   0.450   2.503 -0.4584 -1.9086 -0.0120
 1364TIP3   OH2 4097   4.885   0.404   2.424 -0.4912 -0.1835 -0.0908
 1364TIP3    H1 4098   4.824   0.432   2.356 -0.1377  0.5233 -0.1256
 1364TIP3    H2 4099   4.884   0.474   2.489  0.5163  0.0035 -0.2520
 1365TIP3   OH2 4100   5.857   0.984   0.445 -0.3566 -0.1194 -0.0803
 1365TIP3    H1 4101   5.901   1.062   0.413  0.3500 -0.4135  0.1590
 1365TIP3    H2 4102   5.912   0.953   0.517 -0.3246 -1.1478 -0.5291
 1366TIP3   OH2 4103   3.049   0.780   3.297 -0.0519  0.5700  0.1663
 1366TIP3    H1 4104   3.029   0.846   3.363  2.3855  1.4017  0.1586
 1366TIP3    H2 4105   3.076   0.830   3.220  1.9094 -0.3626  0.1838
 1367TIP3   OH2 4106   2.928   2.216   2.818  0.2731 -0.2378 -0.6381
 1367TIP3    H1 4107   2.990   2.258   2.759 -1.1214  1.0170 -1.2958
 1367TIP3    H2 4108   2.851   2.198   2.763 -0.6441 -0.0460  0.5390
 1368TIP3   OH2 4109   1.137   4.672   3.833 -0.0996 -0.0224 -0.3812
 1368TIP3    H1 4110   1.051   4.656   3.871 -0.3716 -1.3024 -1.4877
 1368TIP3    H2 4111   1.151   4.599   3.772  0.8763  1.2437 -1.7510
 1369TIP3   OH2 4112   1.811   2.069   2.900  0.1143 -0.6356 -0.6772
 1369TIP3    H1 4113   1.775   2.079   2.811  0.0304 -1.8152 -0.8020
 1369TIP3    H2 4114   1.755   2.123   2.955 -0.1659 -0.3086 -1.2683
 1370TIP3   OH2 4115   5.531   4.841   1.770 -0.0498 -0.1665  0.1871
 1370TIP3    H1 4116   5.481   4.915   1.805 -0.0318 -0.0393 -0.0567
 1370TIP3    H2 4117   5.465   4.784   1.730 -0.0505 -0.2203  0.2656
 1371TIP3   OH2 4118   4.744   4.701   3.771  0.2514  0.3280 -0.1041
 1371TIP3    H1 4119   4.800   4.630   3.801  1.1166 -0.0137 -2.3006
 1371TIP3    H2 4120   4.769   4.776   3.826  2.2745 -0.0489 -0.4213
 1372TIP3   OH2 4121   5.859   3.600   3.013 -0.0539 -0.2914 -0.0668
 1372TIP3    H1 4122   5.824   3.564   2.932 -3.3182 -0.9548  1.4661
 1372TIP3    H2 4123   5.792   3.661   3.043  1.7675  1.1044  1.4086
 1373TIP3   OH2 4124   2.198   1.936   0.323 -0.0621  0.3843 -0.1334
 1373TIP3    H1 4125   2.283   1.957   0.285 -0.4202  0.4260 -0.9353
 1373TIP3    H2 4126   2.195   1.984   0.405 -0.2932  2.3793 -1.2474
 1374TIP3   OH2 4127   4.169   3.184   1.893  0.6735 -0.2240  0.3142
 1374TIP3    H1 4128   4.196   3.209   1.981 -0.7232  0.1576  0.6604
 1374TIP3    H2 4129   4.099   3.246   1.871  1.1926 -0.1203 -1.1929
 1375TIP3   OH2 4130   5.934   1.186   2.442 -0.1569 -0.0048  0.3111
 1375TIP3    H1 4131   5.874   1.247   2.399  0.0520 -0.0456 -0.0410
 1375TIP3    H2 4132   6.022   1.219   2.420 -0.0349 -0.8924 -0.5477
 1376TIP3   OH2 4133   4.172   5.053   1.653  1.1933  0.3650 -0.0608
 1376TIP3    H1 4134   4.173   5.064   1.748  0.2703 -0.4892  0.0627
 1376TIP3    H2 4135   4.088   5.011   1.634  2.1897 -1.2993 -1.0400
 1377TIP3   OH2 4136   3.736   4.444   2.303  0.6325  0.4619 -0.3574
 1377TIP3    H1 4137   3.817   4.449   2.354  0.2353  0.0218  0.3276
 1377TIP3    H2 4138   3.680   4.385   2.353 -0.2514  1.0549 -0.6436
 1378TIP3   OH2 4139   0.130   2.896   1.522 -0.5610 -0.2841 -0.1855
 1378TIP3    H1 4140   0.209   2.855   1.555  1.3636  2.7359 -0.6111
 1378TIP3    H2 4141   0.105   2.958   1.591 -1.7237 -0.1712 -0.6861
 1379TIP3   OH2 4142   3.827   1.441   4.763  0.3269  0.1162  0.2651
 1379TIP3    H1 4143   3.829   1.533   4.736 -0.6217  0.2486  0.6207
 1379TIP3    H2 4144   3.919   1.419   4.779  0.5857  0.9347 -0.0339
 1380TIP3   OH2 4145   5.672   3.894   2.394  0.1089  0.7163 -0.2869
 1380TIP3    H1 4146   5.696   3.919   2.484  0.2482  3.0239 -0.8822
 1380TIP3    H2 4147   5.607   3.825   2.404  0.1676  0.8888  1.5905
 1381TIP3   OH2 4148   4.530   1.382   2.622 -0.3112  0.1315 -0.1155
 1381TIP3    H1 4149   4.559   1.335   2.700  0.7681 -1.2734 -1.3050
 1381TIP3    H2 4150   4.585   1.461   2.620 -1.0651  0.7107  1.0709
 1382TIP3   OH2 4151   1.155   1.926   3.479 -0.3721 -0.2941 -0.0504
 1382TIP3    H1 4152   1.097   1.991   3.518  0.9892  0.7016  0.3893
 1382TIP3    H2 4153   1.173   1.864   3.551 -0.2120 -0.1175  0.0632
 1383TIP3   OH2 4154   1.450   1.689   2.786 -0.6590  0.0220 -0.0459
 1383TIP3    H1 4155   1.368   1.694   2.737 -2.3981  1.0127  2.7522
 1383TIP3    H2 4156   1.433   1.738   2.867  2.3197 -0.7514  1.1854
 1384TIP3   OH2 4157   6.255   3.030   3.273 -0.2102 -0.4631  0.1935
 1384TIP3    H1 4158   6.184   3.040   3.336  0.3034 -1.4067  0.9422
 1384TIP3    H2 4159   6.211   3.021   3.188 -0.9817 -1.0716  0.6489
 1385TIP3   OH2 4160   5.352   1.342   3.633  0.0134  0.1827 -0.2449
 1385TIP3    H1 4161   5.296   1.269   3.659 -1.0503 -0.0958 -2.9821
 1385TIP3    H2 4162   5.441   1.311   3.651 -0.4757 -1.3552 -0.3033
 1386TIP3   OH2 4163   5.912   0.685   2.948  0.1096 -0.2296 -0.0246
 1386TIP3    H1 4164   5.907   0.771   2.906 -0.5801  0.0074  0.5289
 1386TIP3    H2 4165   5.858   0.628   2.893  2.7150 -1.0057 -1.9656
 1387TIP3   OH2 4166   3.187   2.885   3.913  0.2983  0.1379  0.1258
 1387TIP3    H1 4167   3.282   2.898   3.923  0.2034  0.7813  0.1961
 1387TIP3    H2 4168   3.170   2.801   3.957  0.6625  0.5604  1.0937
 1388TIP3   OH2 4169   5.795   1.362   0.357  0.1316  0.3565 -0.3563
 1388TIP3    H1 4170   5.792   1.437   0.416  0.8795 -0.5837  0.9264
 1388TIP3    H2 4171   5.704   1.348   0.332 -0.0334  1.5974 -0.5187
 1389TIP3   OH2 4172   4.801   0.973   3.556  0.3648 -0.2639  0.8273
 1389TIP3    H1 4173   4.824   0.897   3.609  1.7333 -0.1305  0.4568
 1389TIP3    H2 4174   4.755   0.936   3.480  1.1906 -0.7490  0.5550
 1390TIP3   OH2 4175   1.652   1.343   4.046 -0.0532 -0.0703  0.0958
 1390TIP3    H1 4176   1.585   1.289   4.004 -1.9867  0.8147  1.8652
 1390TIP3    H2 4177   1.662   1.418   3.987 -0.1585 -0.5058 -0.4889
 1391TIP3   OH2 4178   0.949   5.806   3.183 -0.3682  0.1340 -0.0919
 1391TIP3    H1 4179   0.937   5.711   3.191 -0.1122  0.1373  0.3953
 1391TIP3    H2 4180   0.860   5.841   3.174 -0.4459 -0.1760 -0.5242
 1392TIP3   OH2 4181   0.563   5.141   4.163  0.4917  0.5330 -0.3428
 1392TIP3    H1 4182   0.469   5.156   4.161  0.4252  0.0742 -0.8577
 1392TIP3    H2 4183   0.597   5.192   4.090  0.8220  1.8279  0.6883
 1393TIP3   OH2 4184   4.042   1.013   0.223 -0.5569 -0.0463  0.1527
 1393TIP3    H1 4185   3.989   1.085   0.190  0.6198  0.9437  0.3126
 1393TIP3    H2 4186   4.063   1.038   0.313 -1.1147 -1.1765  0.6122
 1394TIP3   OH2 4187   3.686   0.892   1.421  0.2066 -0.1168  0.3194
 1394TIP3    H1 4188   3.670   0.840   1.342  1.7490 -0.1257 -0.0220
 1394TIP3    H2 4189   3.705   0.827   1.489  4.0712 -0.1083 -0.5437
 1395TIP3   OH2 4190   3.464   0.066   4.273 -0.1232 -0.1319 -0.1918
 1395TIP3    H1 4191   3.493   0.155   4.292 -2.1419  0.1359  2.2116
 1395TIP3    H2 4192   3.394   0.077   4.210 -0.4178  0.0178  0.1553
 1396TIP3   OH2 4193   0.150   0.793   4.910 -0.2067 -0.0802 -0.1902
 1396TIP3    H1 4194   0.165   0.733   4.984 -0.5196  1.0394  0.8044
 1396TIP3    H2 4195   0.220   0.771   4.847  0.2577 -0.8437  0.5667
 1397TIP3   OH2 4196   6.150   0.088   1.876  0.7893 -0.4941 -0.9073
 1397TIP3    H1 4197   6.113   0.172   1.904 -0.0711 -1.4552  1.0424
 1397TIP3    H2 4198   6.199   0.109   1.796  0.1317  1.7385 -0.8038
 1398TIP3   OH2 4199   3.725   0.207   0.820  0.0535  0.5987  0.4710
 1398TIP3    H1 4200   3.737   0.162   0.904 -0.2923 -0.3099  0.0439
 1398TIP3    H2 4201   3.806   0.191   0.772  1.2083  3.0120  1.4499
 1399TIP3   OH2 4202   4.951   4.775   0.302  0.3520 -0.0581 -0.1427
 1399TIP3    H1 4203   4.999   4.847   0.261  0.8162 -0.1134  0.2809
 1399TIP3    H2 4204   4.996   4.696   0.270 -0.5665 -0.2016 -1.1242
 1400TIP3   OH2 4205   3.774   2.099   0.443 -0.2042 -0.5766  0.0586
 1400TIP3    H1 4206   3.785   2.084   0.537  0.2234  1.1557  0.3320
 1400TIP3    H2 4207   3.737   2.018   0.409 -0.2704 -1.2689  1.7062
 1401TIP3   OH2 4208   4.464   4.840   4.746  0.0599  0.0963 -0.1412
 1401TIP3    H1 4209   4.478   4.868   4.836 -2.1955 -0.9725  0.6106
 1401TIP3    H2 4210   4.412   4.760   4.754  1.4589 -1.1462 -2.3487
 1402TIP3   OH2 4211   0.280   0.742   2.832  0.0483 -0.6507  0.7330
 1402TIP3    H1 4212   0.304   0.832   2.850  0.3658 -0.4574 -0.5558
 1402TIP3    H2 4213   0.242   0.744   2.744  3.3039 -2.2493 -0.8827
 1403TIP3   OH2 4214   5.921   3.991   2.272  0.1410  0.3995  0.6520
 1403TIP3    H1 4215   5.968   4.058   2.321 -0.3111  1.2208 -0.0152
 1403TIP3    H2 4216   5.844   3.971   2.326 -0.3009  1.2246  0.3544
 1404TIP3   OH2 4217   4.901   1.690   0.098  0.0559 -0.0087  0.1637
 1404TIP3    H1 4218   4.900   1.781   0.129 -2.9014 -0.0161  0.3588
 1404TIP3    H2 4219   4.993   1.664   0.102  1.0673  3.0888 -0.2602
 1405TIP3   OH2 4220   4.160   1.978   0.441 -0.7769  0.2683 -0.6227
 1405TIP3    H1 4221   4.246   2.019   0.450  0.0340 -0.5080 -3.7677
 1405TIP3    H2 4222   4.101   2.050   0.419  0.1093  0.2795 -3.3466
 1406TIP3   OH2 4223   4.610   4.348   0.172 -0.4910  0.2630  0.3917
 1406TIP3    H1 4224   4.544   4.361   0.103 -1.9450  1.3620  1.9030
 1406TIP3    H2 4225   4.581   4.269   0.218  0.6418 -0.6393 -0.3976
 1407TIP3   OH2 4226   3.976   0.146   1.132 -0.2620 -0.2392 -0.3643
 1407TIP3    H1 4227   3.900   0.126   1.187 -0.1011  1.4825  0.5665
 1407TIP3    H2 4228   3.959   0.235   1.100  0.9071 -0.2044 -0.9357
 1408TIP3   OH2 4229   1.566   5.538   1.975  0.8341  0.2191  0.0458
 1408TIP3    H1 4230   1.533   5.456   1.938  1.5381  0.6113 -1.5211
 1408TIP3    H2 4231   1.602   5.513   2.060 -0.1431 -0.8558  0.1670
 1409TIP3   OH2 4232   5.357   1.220   1.811 -0.2765  0.3699 -0.6478
 1409TIP3    H1 4233   5.427   1.268   1.856 -2.1819  2.8713 -0.0957
 1409TIP3    H2 4234   5.400   1.142   1.775  2.4951  1.1589  0.6746
 1410TIP3   OH2 4235   3.432   3.342   2.658  0.5334 -0.4086  0.3381
 1410TIP3    H1 4236   3.526   3.321   2.652  0.7854  0.9068 -1.4095
 1410TIP3    H2 4237   3.423   3.390   2.740  1.6581  0.5017 -0.0386
 1411TIP3   OH2 4238   6.135   5.741   5.012  0.7550  0.2848 -0.3752
 1411TIP3    H1 4239   6.083   5.820   5.026  1.1724  1.2328 -3.4837
 1411TIP3    H2 4240   6.224   5.768   5.034  0.5583 -0.1812  1.1334
 1412TIP3   OH2 4241   2.109   2.695   0.081  0.0246 -0.2701 -0.2460
 1412TIP3    H1 4242   2.032   2.638   0.092  1.0026 -1.8253 -1.0758
 1412TIP3    H2 4243   2.083   2.755   0.011 -0.6755 -0.3166 -0.0423
 1413TIP3   OH2 4244   4.324   3.090   4.819  0.2104  0.1750 -0.3481
 1413TIP3    H1 4245   4.260   3.020   4.833  0.1746 -0.0474 -1.4639
 1413TIP3    H2 4246   4.397   3.047   4.773  1.3346  0.3554  1.2139
 1414TIP3   OH2 4247   4.867   5.295   3.606 -0.0882 -0.4330  0.0794
 1414TIP3    H1 4248   4.956   5.300   3.572 -0.2393 -0.2536 -0.3043
 1414TIP3    H2 4249   4.854   5.203   3.629  1.0803 -0.0502  2.6118
 1415TIP3   OH2 4250   4.592   3.577   2.802 -0.6670 -0.3250  0.0684
 1415TIP3    H1 4251   4.598   3.548   2.710  2.1140 -1.6768  0.5494
 1415TIP3    H2 4252   4.524   3.522   2.840 -1.3107 -0.2982 -1.0045
 1416TIP3   OH2 4253   2.743   0.664   4.810  0.0301  0.8075  0.1193
 1416TIP3    H1 4254   2.749   0.759   4.806  0.6394  0.9280  2.6642
 1416TIP3    H2 4255   2.796   0.634   4.735  2.4838  2.4609  1.0739
 1417TIP3   OH2 4256   2.563   0.197   2.948  0.2685  0.4764 -0.0407
 1417TIP3    H1 4257   2.653   0.221   2.923 -0.0356  0.6037 -1.0435
 1417TIP3    H2 4258   2.508   0.262   2.904 -0.3625 -0.0513 -0.0382
 1418TIP3   OH2 4259   2.490   3.010   2.316 -0.1081 -0.2310  0.4577
 1418TIP3    H1 4260   2.440   2.951   2.373 -2.3699  0.6293 -0.5636
 1418TIP3    H2 4261   2.573   3.022   2.363 -1.9869  0.8530  3.9075
 1419TIP3   OH2 4262   0.372   1.288   4.258  0.0660 -0.2871 -0.2093
 1419TIP3    H1 4263   0.457   1.327   4.276 -0.3522 -0.1305  1.6326
 1419TIP3    H2 4264   0.323   1.356   4.212  0.2993  0.3572  0.4737
 1420TIP3   OH2 4265   1.061   1.115   3.271 -0.8152  0.4961 -0.0416
 1420TIP3    H1 4266   0.977   1.079   3.243  0.7117 -1.5912 -2.3389
 1420TIP3    H2 4267   1.091   1.055   3.339 -1.3163  1.4912  1.0940
 1421TIP3   OH2 4268   0.821   5.159   4.728  0.2448  0.4833  0.2482
 1421TIP3    H1 4269   0.846   5.236   4.676  1.6796 -0.9018 -1.2229
 1421TIP3    H2 4270   0.844   5.182   4.818  1.0598  1.6359 -0.2276
 1422TIP3   OH2 4271   4.338   0.018   3.343  0.0993 -0.1160  0.3219
 1422TIP3    H1 4272   4.297   0.064   3.416 -0.6800  0.4759 -0.4706
 1422TIP3    H2 4273   4.266  -0.000   3.283  0.9058  0.4111 -0.8316
 1423TIP3   OH2 4274   4.998   5.697   3.035 -0.3185 -0.0843  0.5874
 1423TIP3    H1 4275   4.981   5.647   2.955 -1.8447  1.7352 -0.3030
 1423TIP3    H2 4276   4.911   5.710   3.074  0.4521 -1.6774  3.0873
 1424TIP3   OH2 4277   4.815   4.892   4.279  0.1278  0.1247  0.0358
 1424TIP3    H1 4278   4.766   4.877   4.198  0.9499  0.1579 -0.4788
 1424TIP3    H2 4279   4.748   4.898   4.347 -0.4924 -2.0385 -0.3118
 1425TIP3   OH2 4280   3.462   4.704   0.170 -0.0594 -0.2214 -0.2554
 1425TIP3    H1 4281   3.483   4.675   0.259  0.6250 -0.6834 -0.5679
 1425TIP3    H2 4282   3.382   4.656   0.148 -0.6055  0.3904  0.3545
 1426TIP3   OH2 4283   1.170   5.422   1.557 -0.2536  0.1603  0.3032
 1426TIP3    H1 4284   1.208   5.412   1.645  1.2729  1.9135 -0.0986
 1426TIP3    H2 4285   1.076   5.433   1.573  0.1198  1.6081  1.8601
 1427TIP3   OH2 4286   0.877   1.377   2.706 -0.0557 -0.1017  0.6789
 1427TIP3    H1 4287   0.946   1.334   2.656  0.2024  0.6626  0.3592
 1427TIP3    H2 4288   0.824   1.423   2.641 -0.4205 -0.0683  0.9927
 1428TIP3   OH2 4289   2.378   0.150   4.636 -0.3793  0.3043  0.3767
 1428TIP3    H1 4290   2.285   0.155   4.615 -0.2103  0.2860 -0.3777
 1428TIP3    H2 4291   2.392   0.222   4.698 -1.5928 -1.6914  3.2289
 1429TIP3   OH2 4292   5.149   1.281   0.373 -0.0839  0.1005  0.1172
 1429TIP3    H1 4293   5.062   1.285   0.413  0.0592  1.8820  0.3399
 1429TIP3    H2 4294   5.133   1.258   0.281 -0.6488 -0.9872  0.4708
 1430TIP3   OH2 4295   0.616   5.170   3.006 -0.3741  0.0017  0.1652
 1430TIP3    H1 4296   0.634   5.100   2.943 -0.5549 -0.3759  0.5310
 1430TIP3    H2 4297   0.582   5.125   3.083  0.8567  0.3469  0.9428
 1431TIP3   OH2 4298   4.179   0.641   2.075 -0.3131  0.0586 -0.1430
 1431TIP3    H1 4299   4.251   0.584   2.048  0.6104  0.6317  1.0409
 1431TIP3    H2 4300   4.143   0.674   1.992  0.2053 -0.9208 -0.7855
 1432TIP3   OH2 4301   5.897   5.504   1.847  0.0928 -0.4982 -0.0627
 1432TIP3    H1 4302   5.894   5.432   1.784  0.3194  0.2495 -0.9425
 1432TIP3    H2 4303   5.858   5.578   1.800  0.4211  0.1134  0.6168
 1433TIP3   OH2 4304   0.778   2.730   2.807 -0.0597 -0.2350  0.3143
 1433TIP3    H1 4305   0.785   2.825   2.817  0.2539 -0.0991 -0.9798
 1433TIP3    H2 4306   0.789   2.715   2.713  0.1719 -1.5817  0.5333
 1434TIP3   OH2 4307   4.806   0.968   1.280  0.1335  0.4885 -0.0011
 1434TIP3    H1 4308   4.714   0.974   1.253  0.8090 -0.2213 -2.7541
 1434TIP3    H2 4309   4.812   0.886   1.329 -0.3650 -0.5216 -1.5607
 1435TIP3   OH2 4310   5.060   4.583   4.811 -0.2470  0.3804  0.0906
 1435TIP3    H1 4311   5.134   4.620   4.860 -0.8339  1.0908  0.4479
 1435TIP3    H2 4312   5.012   4.531   4.876  1.9939 -3.3394 -0.9078
 1436TIP3   OH2 4313   0.520   0.858   2.635 -0.3094 -0.1827 -0.3800
 1436TIP3    H1 4314   0.456   0.916   2.594 -1.4434 -0.4678  0.9032
 1436TIP3    H2 4315   0.507   0.871   2.729 -0.1917 -2.0698 -0.0657
 1437TIP3   OH2 4316   0.925   4.799   2.578  0.9919  1.0740 -0.3761
 1437TIP3    H1 4317   0.950   4.709   2.558  1.9534  1.3280 -0.3459
 1437TIP3    H2 4318   0.981   4.825   2.651  0.4555  1.5760 -0.1260
 1438TIP3   OH2 4319   4.327   1.731   1.719  0.0753  0.5568  0.2603
 1438TIP3    H1 4320   4.350   1.711   1.810 -1.1754 -1.0120  0.2871
 1438TIP3    H2 4321   4.231   1.727   1.717 -0.0018  2.2131 -0.7964
 1439TIP3   OH2 4322   3.502   5.809   3.378  0.1957  0.4549  0.0246
 1439TIP3    H1 4323   3.472   5.734   3.430  0.7558 -0.2036 -0.5770
 1439TIP3    H2 4324   3.422   5.860   3.362  0.0816  0.9759  1.9581
 1440TIP3   OH2 4325   5.010   4.910   1.398  0.2131  0.2820 -0.3920
 1440TIP3    H1 4326   4.919   4.934   1.415  0.7365  0.9920  1.6870
 1440TIP3    H2 4327   5.059   4.949   1.469  2.0242 -1.0722 -0.8159
 1441TIP3   OH2 4328   0.936   4.692   4.942  0.3806  0.1521  0.4892
 1441TIP3    H1 4329   0.921   4.598   4.931  1.2889  0.1771 -1.3594
 1441TIP3    H2 4330   1.020   4.698   4.988  0.2331  0.0576  0.7709
 1442TIP3   OH2 4331   4.325   1.466   0.914  0.2361  0.5594 -0.4459
 1442TIP3    H1 4332   4.256   1.531   0.898 -0.5892 -0.1457  0.1673
 1442TIP3    H2 4333   4.367   1.496   0.994  0.1656  0.5872 -0.4190
 1443TIP3   OH2 4334   5.331   5.835   0.866  0.2284 -0.3478 -0.0284
 1443TIP3    H1 4335   5.257   5.856   0.923  0.4565 -1.2083  0.6041
 1443TIP3    H2 4336   5.321   5.895   0.792 -0.8761 -0.1746  0.2315
 1444TIP3   OH2 4337   4.740   4.900   3.390 -0.1057 -0.9514  0.1347
 1444TIP3    H1 4338   4.661   4.948   3.365  0.1768  0.3928  1.6481
 1444TIP3    H2 4339   4.792   4.897   3.310 -0.6522  0.2641 -0.2991
 1445TIP3   OH2 4340   2.327   4.002   0.271 -0.5564 -0.0516 -0.2727
 1445TIP3    H1 4341   2.237   4.027   0.292 -0.8774 -0.6621 -0.8653
 1445TIP3    H2 4342   2.318   3.942   0.197  0.4155  0.7526 -1.0665
 1446TIP3   OH2 4343   1.086   0.460   3.169  0.1780  0.3467 -0.3325
 1446TIP3    H1 4344   1.105   0.460   3.075  0.8652 -0.3997 -0.2105
 1446TIP3    H2 4345   1.116   0.374   3.199 -0.0545  0.5697  0.5681
 1447TIP3   OH2 4346   4.166   3.966   4.318  0.1792  0.8184  0.3727
 1447TIP3    H1 4347   4.101   4.023   4.358 -0.7122 -0.2248  0.4530
 1447TIP3    H2 4348   4.236   3.959   4.383 -0.4867  0.4690  1.0533
 1448TIP3   OH2 4349   5.374   2.756   3.628  0.1119  0.2974 -0.0475
 1448TIP3    H1 4350   5.440   2.688   3.616  1.0479  0.7995  1.7909
 1448TIP3    H2 4351   5.291   2.714   3.606  0.8724 -0.8375 -0.8305
 1449TIP3   OH2 4352   0.160   3.297   1.641  0.0693 -0.5855 -0.0951
 1449TIP3    H1 4353   0.145   3.283   1.547 -2.7516 -2.7184  0.5244
 1449TIP3    H2 4354   0.115   3.224   1.683 -0.4932  1.3688  3.0173
 1450TIP3   OH2 4355   3.622   5.073   3.807 -0.5147 -0.3734  0.0428
 1450TIP3    H1 4356   3.629   5.167   3.827 -0.7069 -0.0175 -1.4529
 1450TIP3    H2 4357   3.645   5.030   3.889  3.8388  0.8829 -0.2882
 1451TIP3   OH2 4358   4.359   3.979   3.453 -0.2872  0.0547 -0.4796
 1451TIP3    H1 4359   4.430   4.023   3.500 -1.0654 -0.2311  1.0294
 1451TIP3    H2 4360   4.281   4.031   3.474 -1.1580 -1.7350  1.0232
 1452TIP3   OH2 4361   4.307   0.388   1.093  0.4504 -0.1848 -0.1401
 1452TIP3    H1 4362   4.279   0.337   1.169 -0.0398  0.3678  0.0567
 1452TIP3    H2 4363   4.403   0.387   1.098  0.4263  0.9568  1.2535
 1453TIP3   OH2 4364   0.941   1.297   2.024 -0.3268  0.0163 -0.2636
 1453TIP3    H1 4365   0.990   1.280   2.105 -1.0956 -1.2624 -0.0431
 1453TIP3    H2 4366   1.009   1.307   1.957  0.2780 -0.8371  0.1955
 1454TIP3   OH2 4367   4.713   0.916   2.529  0.2847 -0.2665  0.0100
 1454TIP3    H1 4368   4.770   0.879   2.461 -1.4422 -0.8747 -1.1971
 1454TIP3    H2 4369   4.718   1.011   2.515 -0.6599 -0.4021 -1.5798
 1455TIP3   OH2 4370   4.820   3.968   1.322 -0.2881  0.7485  0.5003
 1455TIP3    H1 4371   4.852   4.033   1.259  2.1561 -0.2406  0.5980
 1455TIP3    H2 4372   4.726   3.965   1.307 -0.2067  2.7996 -0.9303
 1456TIP3   OH2 4373   5.135   4.620   1.954 -0.4851 -0.0297 -0.1865
 1456TIP3    H1 4374   5.150   4.534   1.915  1.5651  0.6231 -0.9515
 1456TIP3    H2 4375   5.104   4.674   1.881 -1.1711  0.0662  0.1606
 1457TIP3   OH2 4376   2.404   4.934   2.446  0.1518  0.3353 -0.0366
 1457TIP3    H1 4377   2.473   4.923   2.512 -0.7682 -1.2721  0.7130
 1457TIP3    H2 4378   2.327   4.961   2.496 -0.0691  1.0308 -0.7275
 1458TIP3   OH2 4379   5.490   1.311   4.189 -0.0430  0.0744  0.0792
 1458TIP3    H1 4380   5.574   1.265   4.190  0.0437  0.2136  1.2690
 1458TIP3    H2 4381   5.499   1.378   4.258 -2.0166 -1.6217  2.1359
 1459TIP3   OH2 4382   0.996   0.360   3.517  0.2182 -0.3615 -0.3178
 1459TIP3    H1 4383   1.037   0.439   3.482  0.7343 -0.4316  0.1164
 1459TIP3    H2 4384   0.979   0.305   3.440  1.4717 -0.5783 -0.4510
 1460TIP3   OH2 4385   2.873   5.432   1.201  0.4615  0.1426 -0.2412
 1460TIP3    H1 4386   2.910   5.489   1.134 -0.9866  0.1980 -1.0421
 1460TIP3    H2 4387   2.836   5.492   1.266 -1.2659  0.1995 -1.1973
 1461TIP3   OH2 4388   0.228   3.076   4.399  0.0154  0.4856 -0.5053
 1461TIP3    H1 4389   0.287   3.080   4.475  0.4576  0.1167 -0.8208
 1461TIP3    H2 4390   0.211   3.167   4.376 -0.6275  0.6063  0.4215
 1462TIP3   OH2 4391   5.263   0.297   3.239 -0.1052 -0.0085  0.1715
 1462TIP3    H1 4392   5.201   0.370   3.239  0.7264  0.7548 -1.6675
 1462TIP3    H2 4393   5.289   0.288   3.148  1.2192 -1.4313  0.6517
 1463TIP3   OH2 4394   1.122   0.093   1.790  0.0291  0.1970 -0.2972
 1463TIP3    H1 4395   1.145   0.012   1.835  0.4862  0.3125 -0.3206
 1463TIP3    H2 4396   1.202   0.120   1.745 -0.6661 -0.3975 -1.9461
 1464TIP3   OH2 4397   3.154   3.888   4.747 -0.3390  0.2285  0.3080
 1464TIP3    H1 4398   3.242   3.919   4.722 -1.1067  1.7312 -0.6696
 1464TIP3    H2 4399   3.125   3.837   4.671 -0.7284  0.6531  0.1662
 1465TIP3   OH2 4400   0.037   3.411   4.102 -0.2177  0.3563  0.0223
 1465TIP3    H1 4401   0.122   3.411   4.057 -1.0969 -0.8246 -1.7193
 1465TIP3    H2 4402  -0.028   3.406   4.032 -1.8645  2.8073  1.2076
 1466TIP3   OH2 4403   4.881   4.774   1.950 -0.0209 -0.3316  0.2076
 1466TIP3    H1 4404   4.883   4.853   2.004 -1.4905 -1.1240  1.4999
 1466TIP3    H2 4405   4.915   4.802   1.865 -1.0327  1.8463  0.4543
 1467TIP3   OH2 4406   5.894   0.617   1.614  0.0162 -0.2052  0.0427
 1467TIP3    H1 4407   5.836   0.691   1.596 -1.1167 -1.1177 -0.1762
 1467TIP3    H2 4408   5.849   0.542   1.575 -0.0079 -1.4115  2.2167
 1468TIP3   OH2 4409   4.649   4.319   2.519  0.2053 -0.1335 -0.1698
 1468TIP3    H1 4410   4.619   4.232   2.546  0.1613 -0.7971 -2.1622
 1468TIP3    H2 4411   4.593   4.342   2.445 -1.7442  2.9230  2.0204
 1469TIP3   OH2 4412   0.716   4.948   4.606  0.3903  0.5717  0.0131
 1469TIP3    H1 4413   0.746   5.014   4.668  3.8691  0.0271 -0.8738
 1469TIP3    H2 4414   0.793   4.894   4.589 -1.5399 -1.9169 -1.5541
 1470TIP3   OH2 4415   5.459   3.919   1.743  0.1719 -0.0409  0.0850
 1470TIP3    H1 4416   5.439   3.914   1.650 -2.6607 -0.1519  0.5933
 1470TIP3    H2 4417   5.422   4.002   1.772  0.2121 -0.4033  1.2579
 1471TIP3   OH2 4418   4.508   0.705   4.960 -0.1497  0.0000  0.3792
 1471TIP3    H1 4419   4.492   0.611   4.951  1.2192 -0.3808  1.6082
 1471TIP3    H2 4420   4.563   0.727   4.884 -0.1248 -0.2765  0.3162
 1472TIP3   OH2 4421   0.275   2.878   1.088  0.1372  0.7061 -0.2271
 1472TIP3    H1 4422   0.289   2.855   1.179 -0.4089  0.1144 -0.2823
 1472TIP3    H2 4423   0.357   2.858   1.044  0.1857  0.3639  0.0183
 1473TIP3   OH2 4424   6.177   2.238   4.415  0.0044 -0.1932  0.4731
 1473TIP3    H1 4425   6.239   2.250   4.344  2.0936  1.4819  2.4184
 1473TIP3    H2 4426   6.162   2.327   4.449 -0.2940 -0.9779  2.5660
 1474TIP3   OH2 4427   2.156   1.494   3.642  0.4292 -0.1423  0.0690
 1474TIP3    H1 4428   2.244   1.459   3.630 -0.0300 -1.1703 -0.4718
 1474TIP3    H2 4429   2.153   1.520   3.734  0.6413 -2.0775  0.6736
 1475TIP3   OH2 4430   0.135   4.750   3.440 -0.1114 -0.5711  0.0375
 1475TIP3    H1 4431   0.078   4.690   3.488  0.1199 -1.0770 -0.3015
 1475TIP3    H2 4432   0.223   4.722   3.462  0.0231  0.4016  0.7974
 1476TIP3   OH2 4433   1.087   2.917   3.010  0.1152 -0.0559 -0.0842
 1476TIP3    H1 4434   1.002   2.908   3.054  0.8535  2.2126  2.0674
 1476TIP3    H2 4435   1.092   3.011   2.990  1.7348 -0.3188 -0.9768
 1477TIP3   OH2 4436   0.596   2.509   5.183  0.0200 -0.2916  0.1514
 1477TIP3    H1 4437   0.549   2.574   5.234 -0.6922  0.1794 -1.0647
 1477TIP3    H2 4438   0.552   2.507   5.098  0.4385 -1.8874 -0.0780
 1478TIP3   OH2 4439   4.235   1.037   1.889 -0.5968  0.0090  0.1733
 1478TIP3    H1 4440   4.263   1.107   1.830 -0.1420  0.5972  1.0804
 1478TIP3    H2 4441   4.317   1.002   1.924 -0.8818 -0.1347  0.6968
 1479TIP3   OH2 4442   5.965   2.694   4.352 -0.0533  0.2505 -0.7265
 1479TIP3    H1 4443   5.893   2.689   4.290 -0.1857  2.6937 -0.8773
 1479TIP3    H2 4444   5.952   2.778   4.397  0.5359 -0.9919  1.9929
 1480TIP3   OH2 4445   4.620   2.382   3.502 -0.0953  0.5022 -0.1185
 1480TIP3    H1 4446   4.535   2.367   3.462  0.9042 -0.9419 -1.8651
 1480TIP3    H2 4447   4.682   2.375   3.429  1.5495  1.1273  1.1594
 1481TIP3   OH2 4448   4.588   2.065   3.530 -0.2955  0.1410  0.7865
 1481TIP3    H1 4449   4.552   2.115   3.457 -1.4939 -1.1090  0.4635
 1481TIP3    H2 4450   4.515   2.058   3.591 -0.0676 -0.9389  0.9518
 1482TIP3   OH2 4451   1.265   5.084   1.718  0.2108 -0.5592  0.6677
 1482TIP3    H1 4452   1.241   5.172   1.747  1.1397 -0.4499  1.1282
 1482TIP3    H2 4453   1.219   5.026   1.778 -1.9199 -0.4716 -0.7687
 1483TIP3   OH2 4454   5.408   4.517   0.686  0.1230  0.2346  0.1935
 1483TIP3    H1 4455   5.455   4.469   0.618 -3.2938  0.3938 -2.5555
 1483TIP3    H2 4456   5.409   4.608   0.657 -1.3266  0.3270  0.3836
 1484TIP3   OH2 4457   0.542   1.780   2.380  0.5947  0.4476  0.1238
 1484TIP3    H1 4458   0.596   1.814   2.309  0.5840  0.2793  0.0336
 1484TIP3    H2 4459   0.515   1.693   2.350  0.4755  0.4321  0.2735
 1485TIP3   OH2 4460   6.019   1.503   3.370  0.3383  0.2321  0.2535
 1485TIP3    H1 4461   6.056   1.437   3.429  2.4399  1.1075 -0.0121
 1485TIP3    H2 4462   5.943   1.460   3.331  0.3159 -1.2214  1.7665
 1486TIP3   OH2 4463   0.515   2.816   5.115  0.4396  0.2341  0.5276
 1486TIP3    H1 4464   0.605   2.784   5.124  1.5714  3.2855  1.1883
 1486TIP3    H2 4465   0.507   2.884   5.181 -2.1961  0.4631  0.0730
 1487TIP3   OH2 4466   5.127   5.628   3.267  0.3968  0.2538 -0.6241
 1487TIP3    H1 4467   5.085   5.542   3.259  0.6684  0.2183 -1.8078
 1487TIP3    H2 4468   5.073   5.686   3.213  0.4448  0.7457 -0.1476
 1488TIP3   OH2 4469   1.158   0.450   1.790  0.1070 -0.2843  0.7256
 1488TIP3    H1 4470   1.188   0.377   1.736  1.2923  1.6522 -1.4212
 1488TIP3    H2 4471   1.228   0.463   1.854 -0.1749 -1.0840  1.2040
 1489TIP3   OH2 4472   3.547   5.606   0.624 -0.0250 -0.1440 -0.4122
 1489TIP3    H1 4473   3.493   5.528   0.634 -0.0827 -0.1575 -0.8193
 1489TIP3    H2 4474   3.519   5.645   0.541 -0.2071  0.4784 -0.0650
 1490TIP3   OH2 4475   3.201   0.361   0.694  0.0861 -0.1378 -0.2714
 1490TIP3    H1 4476   3.112   0.336   0.668  0.9361 -0.7401 -3.0273
 1490TIP3    H2 4477   3.248   0.278   0.700  0.6931  0.2331  0.1980
 1491TIP3   OH2 4478   2.242   1.353   0.021  0.1006  0.0082  0.4335
 1491TIP3    H1 4479   2.325   1.308   0.000  0.0595 -0.5364  1.4094
 1491TIP3    H2 4480   2.252   1.440  -0.018  1.5030  0.2605  1.3079
 1492TIP3   OH2 4481   3.787   2.887   1.921 -0.1828  0.0881 -0.0051
 1492TIP3    H1 4482   3.854   2.860   1.858  1.3344  1.2759  1.0138
 1492TIP3    H2 4483   3.782   2.814   1.984 -0.3004 -0.2626 -0.4166
 1493TIP3   OH2 4484   5.459   3.622   4.060  0.1883  0.3600 -0.0952
 1493TIP3    H1 4485   5.406   3.579   3.993 -1.0818  2.6222 -0.6308
 1493TIP3    H2 4486   5.413   3.704   4.079  1.7739  0.8882  1.8435
 1494TIP3   OH2 4487   3.054   2.755   0.876  0.0016  0.2995 -0.2190
 1494TIP3    H1 4488   3.150   2.751   0.874 -0.0129 -0.1874 -1.9289
 1494TIP3    H2 4489   3.029   2.755   0.783 -1.6620  0.0322  0.2080
 1495TIP3   OH2 4490   2.592   2.956   2.066  0.1932 -0.1095 -0.3854
 1495TIP3    H1 4491   2.646   3.033   2.045 -2.1823  1.2889 -1.7876
 1495TIP3    H2 4492   2.550   2.978   2.149  1.7199 -1.2441  0.7580
 1496TIP3   OH2 4493   1.239   3.442   0.907 -0.2328 -0.6154  0.0146
 1496TIP3    H1 4494   1.175   3.378   0.877  0.5778 -1.1959 -0.5268
 1496TIP3    H2 4495   1.321   3.416   0.865 -0.1521  1.6096 -1.3957
 1497TIP3   OH2 4496   6.081   5.932   0.874 -0.8023 -0.9272  0.6625
 1497TIP3    H1 4497   6.167   5.934   0.831 -0.6309 -2.2791  0.8909
 1497TIP3    H2 4498   6.026   5.989   0.820 -0.0023 -0.7900 -0.0362
 1498TIP3   OH2 4499   2.678   5.427   4.419  0.2884 -0.8647  0.1704
 1498TIP3    H1 4500   2.589   5.441   4.387  0.0350  2.8586  2.0875
 1498TIP3    H2 4501   2.733   5.438   4.341 -0.7474  0.3416 -0.4271
 1499TIP3   OH2 4502   0.281   3.312   0.862 -0.5452  0.0030 -0.2449
 1499TIP3    H1 4503   0.188   3.300   0.845 -1.2023  4.0801 -0.5493
 1499TIP3    H2 4504   0.292   3.292   0.955 -1.9364  0.3386  0.0128
 1500TIP3   OH2 4505   2.094   5.159   1.505 -0.1582 -0.3103  0.4464
 1500TIP3    H1 4506   2.095   5.222   1.577 -2.1547  1.4298 -0.9174
 1500TIP3    H2 4507   2.007   5.119   1.510 -0.5731  0.2856 -1.3003
 1501TIP3   OH2 4508   6.023   5.618   0.179  0.3248  0.0467  0.5511
 1501TIP3    H1 4509   5.957   5.571   0.231  0.0451  0.1672  0.3080
 1501TIP3    H2 4510   6.067   5.675   0.242  1.0356 -0.9212  0.9643
 1502TIP3   OH2 4511   4.904   5.531   1.220  0.0713  0.1982 -0.0257
 1502TIP3    H1 4512   4.976   5.477   1.188  0.1464  0.2482  0.0578
 1502TIP3    H2 4513   4.859   5.476   1.285  1.2231  0.8639  1.4036
 1503TIP3   OH2 4514   2.896   1.922   4.541 -0.1092 -0.4005 -0.3288
 1503TIP3    H1 4515   2.954   1.882   4.476 -0.7401 -0.4063 -0.9071
 1503TIP3    H2 4516   2.809   1.921   4.499 -0.8221 -1.7192  1.0685
 1504TIP3   OH2 4517   1.126   2.073   4.753 -0.7979 -0.3211 -0.0769
 1504TIP3    H1 4518   1.183   2.135   4.797 -1.4756 -0.5379  1.1292
 1504TIP3    H2 4519   1.141   2.089   4.659  1.0348 -0.2070  0.2071
 1505TIP3   OH2 4520   2.873   1.038   3.262  0.2024  0.4490  0.6350
 1505TIP3    H1 4521   2.779   1.047   3.279 -0.1022  0.8373 -1.0209
 1505TIP3    H2 4522   2.912   1.118   3.297 -0.1379  0.4765  0.9610
 1506TIP3   OH2 4523   3.394   1.636   0.943  0.0922  0.2950 -0.1029
 1506TIP3    H1 4524   3.377   1.718   0.990 -0.1442 -0.1669  0.6321
 1506TIP3    H2 4525   3.417   1.664   0.854  1.1135  1.2245  0.4215
 1507TIP3   OH2 4526   1.177   0.152   0.355  0.7957  0.3742  0.0450
 1507TIP3    H1 4527   1.112   0.095   0.396 -0.2485 -0.4415 -2.5816
 1507TIP3    H2 4528   1.134   0.237   0.348 -0.1299 -0.1901 -1.7874
 1508TIP3   OH2 4529   3.970   2.242   0.311  0.2044 -0.1193  0.2584
 1508TIP3    H1 4530   3.893   2.191   0.336 -0.5744  0.3120 -1.1660
 1508TIP3    H2 4531   3.960   2.325   0.356  0.3123 -0.3992  0.8011
 1509TIP3   OH2 4532   4.243   2.557   4.394 -0.2521 -0.4395 -0.3636
 1509TIP3    H1 4533   4.286   2.643   4.398 -0.7702 -0.1654 -0.5943
 1509TIP3    H2 4534   4.299   2.500   4.448 -0.4434  0.2751  0.6269
 1510TIP3   OH2 4535   4.680   4.901   2.165 -0.4403  0.4706 -0.2021
 1510TIP3    H1 4536   4.624   4.879   2.239 -0.0332  1.6260  0.4660
 1510TIP3    H2 4537   4.763   4.927   2.204  0.5800 -1.1530 -1.1775
 1511TIP3   OH2 4538   5.268   1.882   2.801  0.5246 -0.4416  0.0318
 1511TIP3    H1 4539   5.334   1.834   2.851  1.3771  0.7986  0.1370
 1511TIP3    H2 4540   5.300   1.881   2.711  2.1086  2.3127  0.4429
 1512TIP3   OH2 4541   1.906   4.784   3.086 -0.2729 -0.3427  0.1952
 1512TIP3    H1 4542   1.972   4.715   3.078  0.2405  0.3025 -1.3996
 1512TIP3    H2 4543   1.946   4.862   3.047 -0.8462  0.8935  1.9143
 1513TIP3   OH2 4544   0.384   5.006   0.785  0.1124  0.3815  0.3384
 1513TIP3    H1 4545   0.448   4.936   0.770 -0.5591 -0.2579  0.4261
 1513TIP3    H2 4546   0.415   5.051   0.863  0.6349  0.2828  0.1894
 1514TIP3   OH2 4547   2.865   5.845   3.530  0.3564 -0.0284  0.0216
 1514TIP3    H1 4548   2.775   5.842   3.496  1.0057  1.4988 -2.0595
 1514TIP3    H2 4549   2.858   5.893   3.613 -0.5359  2.0825 -1.1945
 1515TIP3   OH2 4550   6.337   0.670   3.869  0.0007 -0.4039  0.1132
 1515TIP3    H1 4551   6.248   0.695   3.894  0.4574  1.1553  0.2834
 1515TIP3    H2 4552   6.341   0.576   3.884 -1.0579 -0.2093  1.8510
 1516TIP3   OH2 4553   1.525   1.902   2.200 -0.4005  0.1561 -0.5525
 1516TIP3    H1 4554   1.550   1.862   2.283 -0.0298  1.4338 -0.0262
 1516TIP3    H2 4555   1.561   1.844   2.133 -2.4316 -2.0169  0.0980
 1517TIP3   OH2 4556   3.431   2.245   1.525  0.4883 -0.0722 -0.1228
 1517TIP3    H1 4557   3.370   2.317   1.536 -0.9505 -1.2167 -0.2667
 1517TIP3    H2 4558   3.480   2.243   1.607  1.9807  2.2715 -0.8660
 1518TIP3   OH2 4559   4.242   3.162   1.103  0.5426 -0.2901 -0.2339
 1518TIP3    H1 4560   4.292   3.229   1.149  0.4818  0.3959 -1.1148
 1518TIP3    H2 4561   4.287   3.080   1.122  1.8313  0.2680 -0.7593
 1519TIP3   OH2 4562   4.926   3.879   0.300 -0.2997 -0.0042  0.0896
 1519TIP3    H1 4563   4.839   3.843   0.287 -0.3807  0.5612 -1.0301
 1519TIP3    H2 4564   4.965   3.882   0.213  0.4585  0.7066  0.4333
 1520TIP3   OH2 4565   0.269   3.170   3.489 -0.1898 -0.5573 -0.4858
 1520TIP3    H1 4566   0.263   3.265   3.475 -3.4488 -0.7357 -1.1724
 1520TIP3    H2 4567   0.194   3.150   3.546 -1.0438 -2.9887 -2.3085
 1521TIP3   OH2 4568   3.131   0.178   3.077 -0.2679  0.3052  0.0217
 1521TIP3    H1 4569   3.158   0.222   2.996 -1.1156  2.1068  0.6607
 1521TIP3    H2 4570   3.211   0.140   3.112  0.5023  1.3043 -0.6055
 1522TIP3   OH2 4571   3.869   0.318   2.799 -0.0023  0.3789 -0.1547
 1522TIP3    H1 4572   3.874   0.337   2.892  1.5603 -1.7397  0.2627
 1522TIP3    H2 4573   3.908   0.395   2.757  0.8643  0.6165  1.0333
 1523TIP3   OH2 4574   1.042   4.864   1.802  0.3814  0.4828  1.0121
 1523TIP3    H1 4575   0.957   4.827   1.778  0.9562  0.4102 -1.1379
 1523TIP3    H2 4576   1.067   4.819   1.882 -1.2627 -0.0181  1.2722
 1524TIP3   OH2 4577   2.916   1.585   2.537 -0.5981 -0.0430 -0.6797
 1524TIP3    H1 4578   2.991   1.531   2.563 -0.8957 -0.7021 -1.1598
 1524TIP3    H2 4579   2.933   1.609   2.446 -1.3608 -0.9036 -1.0661
 1525TIP3   OH2 4580   0.538   0.340   1.423 -0.5936 -0.0854  0.6545
 1525TIP3    H1 4581   0.539   0.404   1.352  1.3428 -0.3412  0.3940
 1525TIP3    H2 4582   0.542   0.255   1.379 -1.3842 -0.3455  1.0493
 1526TIP3   OH2 4583   3.935   5.216   1.896  0.1208  0.1899 -0.1179
 1526TIP3    H1 4584   3.872   5.184   1.832 -0.8514  0.6513  0.5960
 1526TIP3    H2 4585   3.975   5.137   1.933  0.2693 -0.0913 -0.8664
 1527TIP3   OH2 4586   3.872   3.796   0.116  0.7982  0.6455  0.2912
 1527TIP3    H1 4587   3.902   3.793   0.206  0.9367 -0.6649  0.2235
 1527TIP3    H2 4588   3.935   3.852   0.071  1.5764  0.1279  0.7155
 1528TIP3   OH2 4589   1.432   0.489   1.488  0.2641 -0.2888 -0.0263
 1528TIP3    H1 4590   1.405   0.441   1.566 -1.4748 -0.3603 -0.6452
 1528TIP3    H2 4591   1.450   0.422   1.422 -0.7207 -0.1651 -0.4373
 1529TIP3   OH2 4592   4.395   4.688   1.263  0.1783 -0.2244 -0.2672
 1529TIP3    H1 4593   4.335   4.762   1.273 -0.2621 -0.7319  1.1708
 1529TIP3    H2 4594   4.366   4.625   1.329  3.1133  0.0727  1.4828
 1530TIP3   OH2 4595   1.757   0.814   2.433  0.3494  0.3852  0.3570
 1530TIP3    H1 4596   1.768   0.726   2.397  0.8975 -0.0038  1.4565
 1530TIP3    H2 4597   1.703   0.801   2.511 -0.2418  1.1347  0.0850
 1531TIP3   OH2 4598   5.188   4.069   4.569 -0.1500 -0.4403  0.9071
 1531TIP3    H1 4599   5.144   4.153   4.579  0.2383 -0.1247  0.0782
 1531TIP3    H2 4600   5.129   4.019   4.511  0.3027 -0.2143  0.2400
 1532TIP3   OH2 4601   0.059   4.643   1.829 -0.2258  0.1902 -0.3284
 1532TIP3    H1 4602  -0.027   4.603   1.838 -0.3289  0.4118 -0.3101
 1532TIP3    H2 4603   0.116   4.593   1.887  0.0837 -1.1692 -1.7189
 1533TIP3   OH2 4604   1.181   2.910   1.166 -0.6630  0.1740  0.1526
 1533TIP3    H1 4605   1.112   2.879   1.224 -0.8535 -0.4893 -0.4080
 1533TIP3    H2 4606   1.145   2.988   1.124 -0.6341  0.4839  0.7002
 1534TIP3   OH2 4607   3.321   1.879   1.078 -0.2788 -0.2654 -0.6306
 1534TIP3    H1 4608   3.270   1.905   1.155 -1.0732 -1.2095 -0.8050
 1534TIP3    H2 4609   3.407   1.917   1.091 -0.2622 -0.8028  0.9626
 1535TIP3   OH2 4610   5.085   0.779   3.985 -0.7985 -0.4815  0.2792
 1535TIP3    H1 4611   5.047   0.864   3.965 -1.0402 -0.8062 -0.6753
 1535TIP3    H2 4612   5.011   0.718   3.981 -0.7259 -0.6727  1.4685
 1536TIP3   OH2 4613   4.360   1.675   0.516 -0.5990  0.7619 -0.3847
 1536TIP3    H1 4614   4.278   1.725   0.519 -0.9394  0.1591  0.5687
 1536TIP3    H2 4615   4.359   1.633   0.430 -0.7976  1.5652 -0.7853
 1537TIP3   OH2 4616   1.324   0.943   2.442  0.3381 -0.6327  0.4888
 1537TIP3    H1 4617   1.326   0.945   2.346 -0.7254 -0.3444  0.4600
 1537TIP3    H2 4618   1.340   0.851   2.464  2.8544 -0.3490  0.1387
 1538TIP3   OH2 4619   0.607   1.084   0.351  0.0821 -0.7163  0.2789
 1538TIP3    H1 4620   0.544   1.130   0.407  0.9255 -0.1701  0.7960
 1538TIP3    H2 4621   0.688   1.135   0.358  0.8126 -1.8313  0.2427
 1539TIP3   OH2 4622   1.324   1.849   1.802  0.3378 -0.5019  0.1856
 1539TIP3    H1 4623   1.361   1.908   1.736 -0.3762 -1.2594 -0.9200
 1539TIP3    H2 4624   1.401   1.815   1.849  0.8385  0.2132 -0.0847
 1540TIP3   OH2 4625   2.054   4.831   4.855 -0.0161  0.4365 -0.4736
 1540TIP3    H1 4626   2.142   4.869   4.858 -0.2452  0.9686 -0.4557
 1540TIP3    H2 4627   2.052   4.769   4.928  0.9757 -0.9720 -1.5744
 1541TIP3   OH2 4628   3.948   3.181   1.221 -0.5584  0.0762 -0.0514
 1541TIP3    H1 4629   4.012   3.230   1.169 -1.3277 -0.3963 -1.5164
 1541TIP3    H2 4630   3.918   3.111   1.162 -0.8780 -0.9926  1.3320
 1542TIP3   OH2 4631   5.804   5.297   2.406 -0.5837 -0.2447  0.1917
 1542TIP3    H1 4632   5.743   5.358   2.364  0.6795  1.3540  0.5717
 1542TIP3    H2 4633   5.831   5.341   2.486 -0.1513 -1.6388  0.8530
 1543TIP3   OH2 4634   2.848   0.474   4.605 -0.4403 -0.7486  0.1059
 1543TIP3    H1 4635   2.834   0.384   4.632  0.0576 -0.4635  1.3889
 1543TIP3    H2 4636   2.943   0.485   4.609 -0.5995  0.4823  2.3098
 1544TIP3   OH2 4637   4.444   3.972   5.071  0.0996  0.5426 -0.4257
 1544TIP3    H1 4638   4.513   4.038   5.077 -0.6860  1.4029 -0.6658
 1544TIP3    H2 4639   4.423   3.968   4.978  0.5285 -0.4594 -0.4847
 1545TIP3   OH2 4640   1.674   2.521   5.102 -0.5600  0.4743  0.3467
 1545TIP3    H1 4641   1.657   2.439   5.149  1.2150 -0.6269 -0.7967
 1545TIP3    H2 4642   1.741   2.564   5.155 -1.5562  1.2681  0.9936
 1546TIP3   OH2 4643   6.202   3.242   0.233 -0.1269  0.3748  0.1174
 1546TIP3    H1 4644   6.276   3.204   0.186 -0.6243  0.9791 -1.1927
 1546TIP3    H2 4645   6.229   3.239   0.325  1.8176  1.2212 -0.3733
 1547TIP3   OH2 4646   0.919   2.486   2.878 -0.4377 -0.2095 -0.5102
 1547TIP3    H1 4647   0.875   2.412   2.838 -0.5864 -0.0325 -0.6737
 1547TIP3    H2 4648   0.849   2.548   2.899 -0.8215 -1.6021  2.9418
 1548TIP3   OH2 4649   3.088   2.819   3.105 -0.7224 -0.7084  0.1151
 1548TIP3    H1 4650   3.115   2.911   3.100  0.2026 -0.9086  1.1547
 1548TIP3    H2 4651   3.076   2.793   3.014 -2.4079  0.8318 -0.1567
 1549TIP3   OH2 4652   5.320   1.621   3.620 -0.1585  0.3907 -0.7471
 1549TIP3    H1 4653   5.311   1.528   3.601 -0.7238  0.6359 -1.7284
 1549TIP3    H2 4654   5.247   1.641   3.679 -0.2140  0.2845 -0.7811
 1550TIP3   OH2 4655   2.828   0.866   3.573 -0.3467 -0.2961 -0.6331
 1550TIP3    H1 4656   2.762   0.798   3.563 -0.4463 -0.1569 -0.9406
 1550TIP3    H2 4657   2.909   0.819   3.590 -0.4527 -0.4851 -0.6483
 1551TIP3   OH2 4658   3.941   4.383   4.521  0.2804  0.1533 -0.1128
 1551TIP3    H1 4659   3.900   4.455   4.473  0.6718  0.5793  0.1811
 1551TIP3    H2 4660   3.989   4.426   4.591  0.7972 -0.3744 -0.1380
 1552TIP3   OH2 4661   3.632   0.692   1.226 -0.3864  0.5231 -0.0175
 1552TIP3    H1 4662   3.586   0.728   1.150 -1.1183  2.5211  1.3006
 1552TIP3    H2 4663   3.565   0.686   1.294  0.3269 -0.9466  0.6059
 1553TIP3   OH2 4664   0.620   5.950   3.652  0.1230  0.0036 -0.1003
 1553TIP3    H1 4665   0.708   5.914   3.647  0.2909  0.5455 -2.1807
 1553TIP3    H2 4666   0.633   6.044   3.667  0.0175  0.3440 -1.8803
 1554TIP3   OH2 4667   1.336   4.361   3.767  0.1197 -0.0353  0.3205
 1554TIP3    H1 4668   1.258   4.314   3.736 -0.2389 -0.1667  1.3736
 1554TIP3    H2 4669   1.306   4.407   3.845  1.1395 -0.1937  0.8157
 1555TIP3   OH2 4670   3.451   4.686   0.975 -0.1208  0.4314  0.0603
 1555TIP3    H1 4671   3.521   4.682   0.910 -0.0462  0.2181  0.1518
 1555TIP3    H2 4672   3.392   4.615   0.951  1.1310 -1.2407  1.6125
 1556TIP3   OH2 4673   5.986   4.791   1.684  0.3829 -0.0299 -0.3518
 1556TIP3    H1 4674   5.938   4.759   1.608 -1.3659 -1.0420  1.1236
 1556TIP3    H2 4675   6.028   4.872   1.653 -1.3399  0.2921 -2.0153
 1557TIP3   OH2 4676   1.689   2.951   1.119  0.4726  0.0134 -0.6393
 1557TIP3    H1 4677   1.727   2.865   1.139 -0.7600 -0.5664 -0.7391
 1557TIP3    H2 4678   1.745   3.013   1.167  2.3138 -0.6834 -1.7843
 1558TIP3   OH2 4679   5.771   1.746   2.128 -0.0844  0.0733  0.2782
 1558TIP3    H1 4680   5.748   1.706   2.044  1.5010  0.6115 -0.4544
 1558TIP3    H2 4681   5.737   1.835   2.124 -0.7549 -0.1686  0.5624
 1559TIP3   OH2 4682   0.418   1.134   0.593 -0.0693  0.3709 -0.2481
 1559TIP3    H1 4683   0.369   1.149   0.674  0.7303 -1.0714  0.5583
 1559TIP3    H2 4684   0.362   1.168   0.524 -1.8179 -0.4436  0.7127
 1560TIP3   OH2 4685   2.827   2.992   1.809  0.2232  0.0459  0.3547
 1560TIP3    H1 4686   2.794   3.047   1.880 -0.0355 -0.3534  0.5515
 1560TIP3    H2 4687   2.841   3.052   1.736 -1.6204  0.1437  0.0290
 1561TIP3   OH2 4688   6.184   4.105   1.592  0.7274 -0.1655 -0.2235
 1561TIP3    H1 4689   6.211   4.034   1.533 -0.3520  0.8359 -1.9928
 1561TIP3    H2 4690   6.126   4.160   1.539  1.5379  2.0754  1.0743
 1562TIP3   OH2 4691   6.298   3.513   3.277 -0.0069  0.1551 -0.4137
 1562TIP3    H1 4692   6.276   3.424   3.251  0.8200  0.0985 -0.9398
 1562TIP3    H2 4693   6.238   3.568   3.226  0.4434 -0.0400 -1.1695
 1563TIP3   OH2 4694   4.070   1.789   0.592  0.4270 -0.9081  0.0489
 1563TIP3    H1 4695   4.123   1.856   0.549 -1.8341  0.5513 -0.7038
 1563TIP3    H2 4696   4.046   1.827   0.676  0.7519 -1.6398  0.4792
 1564TIP3   OH2 4697   0.465   2.585   2.762 -0.2436  0.0496 -0.2940
 1564TIP3    H1 4698   0.496   2.673   2.739 -0.9573  0.5514  0.5860
 1564TIP3    H2 4699   0.375   2.598   2.790 -0.6493 -1.1049 -0.9732
 1565TIP3   OH2 4700   5.367   1.874   1.093 -0.8011 -0.0799  0.0631
 1565TIP3    H1 4701   5.289   1.819   1.092 -0.2582 -0.9083  1.5143
 1565TIP3    H2 4702   5.440   1.813   1.105 -0.0443  0.8063  0.0676
 1566TIP3   OH2 4703   1.132   1.196   0.940  0.4319 -0.3267  0.0009
 1566TIP3    H1 4704   1.104   1.263   0.878  0.0306 -0.3129  0.1877
 1566TIP3    H2 4705   1.073   1.207   1.015  0.9484 -0.3003  0.4098
 1567TIP3   OH2 4706   5.676   0.510   4.949 -0.1126 -0.2114  0.4011
 1567TIP3    H1 4707   5.628   0.427   4.942 -0.6546  0.0877  0.4949
 1567TIP3    H2 4708   5.632   0.558   5.019  0.6888 -0.1594  0.8822
 1568TIP3   OH2 4709   0.159   0.529   4.499 -0.7197 -0.2380 -0.1019
 1568TIP3    H1 4710   0.161   0.618   4.463 -0.7794 -0.9136 -1.9143
 1568TIP3    H2 4711   0.077   0.524   4.547 -0.8034  0.6374 -0.1398
 1569TIP3   OH2 4712   3.960   4.001   5.037  0.2610 -0.3139  0.5382
 1569TIP3    H1 4713   3.977   3.920   4.989 -0.9953 -0.1652 -0.1869
 1569TIP3    H2 4714   3.957   3.974   5.129  1.4814 -0.7989  0.4526
 1570TIP3   OH2 4715   4.642   2.458   2.735  0.3942 -0.0438  0.6525
 1570TIP3    H1 4716   4.709   2.526   2.726  0.7461 -0.2821  1.4166
 1570TIP3    H2 4717   4.565   2.495   2.692  1.6788 -0.7521 -2.5491
 1571TIP3   OH2 4718   4.659   3.088   2.542  0.0568  0.0785  0.5000
 1571TIP3    H1 4719   4.607   3.120   2.616 -1.2129 -1.3183  0.2625
 1571TIP3    H2 4720   4.615   3.121   2.464  0.3053 -0.0037  0.3200
 1572TIP3   OH2 4721   0.654   0.823   0.461  0.0154  0.8811  0.0270
 1572TIP3    H1 4722   0.644   0.883   0.387  3.1455  0.3277 -0.9953
 1572TIP3    H2 4723   0.675   0.739   0.422 -0.7429 -0.0529  1.5284
 1573TIP3   OH2 4724   5.979   0.959   2.904  0.4281  0.4752 -0.0926
 1573TIP3    H1 4725   5.928   0.969   2.824 -2.1282 -1.6285  1.1477
 1573TIP3    H2 4726   5.977   1.045   2.945 -1.5996  0.6356 -0.4396
 1574TIP3   OH2 4727   3.091   2.444   4.072 -0.0060  0.6265 -0.0844
 1574TIP3    H1 4728   3.063   2.415   3.985  0.6195  1.4711 -0.5870
 1574TIP3    H2 4729   3.016   2.429   4.128 -0.1467 -0.7216 -0.5871
 1575TIP3   OH2 4730   4.429   3.928   1.904 -0.4860  0.1001 -0.1372
 1575TIP3    H1 4731   4.466   3.874   1.974 -1.3184  0.6274  0.7339
 1575TIP3    H2 4732   4.362   3.872   1.864 -1.2719  0.4212  0.6924
 1576TIP3   OH2 4733   4.694   4.227   4.065  0.7794 -0.3315 -0.8430
 1576TIP3    H1 4734   4.780   4.212   4.106  0.6223  1.0407  0.0502
 1576TIP3    H2 4735   4.673   4.317   4.087 -0.7152 -0.5200 -1.4166
 1577TIP3   OH2 4736   3.053   5.608   1.748  0.1711  0.3522 -0.0420
 1577TIP3    H1 4737   3.083   5.690   1.785 -0.7830  0.4124  0.6223
 1577TIP3    H2 4738   2.959   5.619   1.737 -0.0692 -0.8675  0.6322
 1578TIP3   OH2 4739   4.559   1.098   3.550  0.0873 -0.0327  0.2380
 1578TIP3    H1 4740   4.520   1.042   3.483  0.6988 -2.1062  1.5134
 1578TIP3    H2 4741   4.647   1.063   3.563  1.0387  2.1597  0.1034
 1579TIP3   OH2 4742   1.202   5.064   3.597 -0.2168 -0.0338  0.8404
 1579TIP3    H1 4743   1.108   5.085   3.602 -0.2892 -0.5768  2.9163
 1579TIP3    H2 4744   1.213   5.020   3.514 -1.4826  1.4908 -0.2012
 1580TIP3   OH2 4745   6.086   0.656   3.167  0.0991  0.6427 -0.0996
 1580TIP3    H1 4746   6.038   0.623   3.091 -1.9101 -4.0859  2.7828
 1580TIP3    H2 4747   6.033   0.729   3.199 -2.4689 -1.1478  0.0346
 1581TIP3   OH2 4748   6.240   0.271   5.099 -0.2433  0.4386  0.5673
 1581TIP3    H1 4749   6.186   0.200   5.135  0.5246  0.2500  1.3604
 1581TIP3    H2 4750   6.214   0.348   5.149  0.5380  0.2568  1.2619
 1582TIP3   OH2 4751   3.931   5.166   3.779 -0.3283 -0.1375 -0.1418
 1582TIP3    H1 4752   3.974   5.195   3.698  1.2800 -2.5414 -0.2545
 1582TIP3    H2 4753   3.838   5.168   3.759 -0.1594  2.3012 -0.9566
 1583TIP3   OH2 4754   0.604   1.990   3.791 -0.1036  0.0699  0.6704
 1583TIP3    H1 4755   0.537   1.947   3.737  1.0421  0.2108 -0.9331
 1583TIP3    H2 4756   0.554   2.033   3.861 -1.7882  0.7531 -0.8474
 1584TIP3   OH2 4757   4.971   3.798   5.077  0.0865  0.4426 -0.6642
 1584TIP3    H1 4758   4.966   3.893   5.066  1.4895  0.3149 -2.9655
 1584TIP3    H2 4759   4.903   3.764   5.019  0.2216  0.0014 -0.5651
 1585TIP3   OH2 4760   5.474   3.953   1.023  0.0125 -0.0824  0.8434
 1585TIP3    H1 4761   5.555   3.941   1.073  0.4014  0.4934  0.3480
 1585TIP3    H2 4762   5.502   3.989   0.939 -0.8128  0.7870  0.9242
 1586TIP3   OH2 4763   3.361   0.775   0.331 -0.4120 -0.7236  0.4445
 1586TIP3    H1 4764   3.302   0.730   0.390 -0.3564  0.2034  1.2422
 1586TIP3    H2 4765   3.305   0.813   0.263 -0.6485 -0.5433  0.7397
 1587TIP3   OH2 4766   3.943   0.544   2.661  0.4253  0.7632  0.1801
 1587TIP3    H1 4767   4.008   0.580   2.601 -0.8116 -0.1677 -1.8265
 1587TIP3    H2 4768   3.911   0.619   2.711  1.1158  1.6632 -0.6997
 1588TIP3   OH2 4769   1.470   1.109   3.127  0.6308 -0.0886 -0.1193
 1588TIP3    H1 4770   1.503   1.188   3.171 -0.1174  0.0848  0.1491
 1588TIP3    H2 4771   1.375   1.122   3.123  0.7377  0.4433 -2.8658
 1589TIP3   OH2 4772   3.740   1.828   0.772 -0.5788 -0.1879  0.3518
 1589TIP3    H1 4773   3.817   1.882   0.791  0.4654 -1.4711 -0.0384
 1589TIP3    H2 4774   3.678   1.887   0.730 -0.7788  1.4450  2.7677
 1590TIP3   OH2 4775   1.016   5.461   4.968 -0.0166 -0.1466  0.3078
 1590TIP3    H1 4776   0.968   5.543   4.974 -0.5645 -0.4985  0.8018
 1590TIP3    H2 4777   1.050   5.460   4.879 -1.9860 -0.4815 -0.4879
 1591TIP3   OH2 4778   1.195   2.173   0.323 -0.1062 -0.0176 -0.1628
 1591TIP3    H1 4779   1.200   2.078   0.311 -0.1985 -0.0295 -0.1124
 1591TIP3    H2 4780   1.107   2.188   0.358 -0.8282  0.2881 -2.0109
 1592TIP3   OH2 4781   2.831   4.957   0.794 -0.3286  0.0838 -0.4048
 1592TIP3    H1 4782   2.790   4.931   0.712 -1.1065  0.1906 -0.0621
 1592TIP3    H2 4783   2.807   4.888   0.856  0.6612 -0.2528 -0.3717
 1593TIP3   OH2 4784   6.245   1.585   2.505 -0.2378  0.5202 -0.6536
 1593TIP3    H1 4785   6.219   1.612   2.593  1.4054  0.2225 -0.0563
 1593TIP3    H2 4786   6.235   1.664   2.452 -2.3160  0.4340 -0.4977
 1594TIP3   OH2 4787   6.327   5.319   1.092 -0.0129 -0.0410  0.3117
 1594TIP3    H1 4788   6.349   5.227   1.073  1.1628  0.1356  0.7642
 1594TIP3    H2 4789   6.305   5.319   1.185  0.6307  0.2481  0.4668
 1595TIP3   OH2 4790   0.248   4.094   0.119  0.6777  0.1295 -0.1729
 1595TIP3    H1 4791   0.337   4.090   0.152  0.8092  0.9654 -0.4189
 1595TIP3    H2 4792   0.256   4.077   0.025  0.4721 -0.6829 -0.0553
 1596TIP3   OH2 4793   4.827   5.846   2.562  0.0316 -0.2368  0.3878
 1596TIP3    H1 4794   4.802   5.814   2.649 -0.6472 -0.0182  0.2790
 1596TIP3    H2 4795   4.780   5.929   2.553  0.9877  0.3047  0.2657
 1597TIP3   OH2 4796   5.821   1.386   3.704  0.5743  0.5402 -0.3964
 1597TIP3    H1 4797   5.812   1.334   3.783  0.6380  0.5318 -0.3949
 1597TIP3    H2 4798   5.742   1.440   3.701 -0.3267 -0.7567 -1.2709
 1598TIP3   OH2 4799   2.269   4.315   1.117 -0.2311 -0.1243  0.3604
 1598TIP3    H1 4800   2.282   4.402   1.156  1.1762 -0.3722  0.4784
 1598TIP3    H2 4801   2.180   4.291   1.142 -0.5310  1.1549  0.5816
 1599TIP3   OH2 4802   2.685   4.460   3.557  0.3710  0.3149  0.2849
 1599TIP3    H1 4803   2.667   4.402   3.483 -0.0472 -0.0457  0.6687
 1599TIP3    H2 4804   2.703   4.545   3.517 -1.1180  0.4410 -0.1724
 1600TIP3   OH2 4805   2.627   1.454   0.025  0.3813 -0.3917  0.0537
 1600TIP3    H1 4806   2.576   1.534   0.034  1.5013  0.1695  2.0346
 1600TIP3    H2 4807   2.670   1.443   0.110  2.1410 -1.7901 -0.9350
 1601TIP3   OH2 4808   2.172   1.058   2.024  0.0399 -0.0445  0.2848
 1601TIP3    H1 4809   2.148   1.105   2.104  3.2847 -0.2552  1.5325
 1601TIP3    H2 4810   2.160   1.122   1.954  0.3655  1.2789  1.4020
 1602TIP3   OH2 4811   6.172   5.532   1.979 -0.3623  0.2074 -0.1354
 1602TIP3    H1 4812   6.077   5.537   1.977 -0.4875 -1.5943  0.0539
 1602TIP3    H2 4813   6.192   5.475   2.053  0.8542  0.2848 -0.3810
 1603TIP3   OH2 4814   4.497   2.597   4.959 -0.2090 -0.1490  0.2815
 1603TIP3    H1 4815   4.570   2.559   5.009 -0.0240 -0.6168 -0.3198
 1603TIP3    H2 4816   4.512   2.691   4.963  0.5293 -0.2427  0.0481
 1604TIP3   OH2 4817   0.835   2.170   4.013  0.2419  0.2013 -0.6937
 1604TIP3    H1 4818   0.852   2.263   3.998  0.0245  0.2404 -0.7043
 1604TIP3    H2 4819   0.884   2.125   3.944 -0.2721  0.3467 -1.1637
 1605TIP3   OH2 4820   0.707   4.060   3.107 -0.1928  0.2334  0.3276
 1605TIP3    H1 4821   0.708   4.023   3.019 -0.1906  1.0566 -0.0257
 1605TIP3    H2 4822   0.721   3.984   3.165 -0.5192 -0.3605 -0.3533
 1606TIP3   OH2 4823   1.643   5.706   4.363 -0.5872 -0.4477  0.3299
 1606TIP3    H1 4824   1.694   5.773   4.318 -0.6603  0.1622  1.1507
 1606TIP3    H2 4825   1.707   5.656   4.414 -0.4313 -1.4533 -0.7887
 1607TIP3   OH2 4826   0.423   4.730   3.864  0.0486  0.3334 -0.0873
 1607TIP3    H1 4827   0.345   4.675   3.854 -1.3836  2.2713 -0.1868
 1607TIP3    H2 4828   0.423   4.786   3.787  1.5358  0.4156 -0.0577
 1608TIP3   OH2 4829   3.606   1.168   3.877  0.1858 -0.3300  0.0155
 1608TIP3    H1 4830   3.643   1.256   3.868  2.9522 -1.5322 -2.1576
 1608TIP3    H2 4831   3.556   1.155   3.796 -0.4873 -0.6326  0.4769
 1609TIP3   OH2 4832   2.069   5.585   4.129  0.5036  0.5357 -0.5834
 1609TIP3    H1 4833   2.114   5.585   4.044  0.8967  0.3094 -0.3782
 1609TIP3    H2 4834   1.986   5.631   4.113 -0.1058 -0.8030 -1.4549
 1610TIP3   OH2 4835   4.359   3.415   1.793  0.2957 -0.1309 -0.1365
 1610TIP3    H1 4836   4.304   3.449   1.722 -0.1556  2.4455  1.3075
 1610TIP3    H2 4837   4.298   3.369   1.850  0.6134 -1.9570 -1.1896
 1611TIP3   OH2 4838   4.951   2.673   0.919  0.1263  0.0942 -0.3159
 1611TIP3    H1 4839   4.994   2.598   0.961  0.0378  0.8202  1.1134
 1611TIP3    H2 4840   5.024   2.730   0.894  0.1151  0.4124  0.3444
 1612TIP3   OH2 4841   0.594   0.283   5.095 -0.1126  0.0324  0.1298
 1612TIP3    H1 4842   0.597   0.271   5.000 -0.1760  0.7249  0.0351
 1612TIP3    H2 4843   0.605   0.195   5.131 -0.7396 -0.3231 -0.5260
 1613TIP3   OH2 4844   0.440   4.010   1.952  0.1143 -0.3344 -0.2513
 1613TIP3    H1 4845   0.398   4.091   1.978 -0.3733 -1.0020  1.1208
 1613TIP3    H2 4846   0.412   3.996   1.861  1.9849  2.1166 -1.3248
 1614TIP3   OH2 4847   5.358   2.939   1.973 -0.3073  0.1882 -0.2739
 1614TIP3    H1 4848   5.338   2.940   1.880  0.3176  1.1486 -0.4121
 1614TIP3    H2 4849   5.277   2.968   2.016 -0.4079  0.3085 -0.5478
 1615TIP3   OH2 4850   0.413   0.261   0.798 -0.2322 -0.0769  0.0972
 1615TIP3    H1 4851   0.476   0.251   0.869 -0.3236 -0.4879  0.1178
 1615TIP3    H2 4852   0.464   0.298   0.726 -0.0574 -0.0276  0.2458
 1616TIP3   OH2 4853   0.229   3.634   0.474 -0.2015 -0.5370  0.0450
 1616TIP3    H1 4854   0.162   3.651   0.541 -0.1651 -0.9453  0.1890
 1616TIP3    H2 4855   0.269   3.551   0.501 -1.6626 -1.8756 -1.6547
 1617TIP3   OH2 4856   3.740   0.628   2.368  0.0246 -0.1035 -0.6227
 1617TIP3    H1 4857   3.705   0.700   2.316 -2.5300  0.3707  1.5493
 1617TIP3    H2 4858   3.829   0.615   2.334 -0.3908  2.1908 -2.9226
 1618TIP3   OH2 4859   4.691   5.296   1.637 -0.6166 -0.3579  0.3440
 1618TIP3    H1 4860   4.711   5.314   1.545 -1.4137  1.2492  0.4525
 1618TIP3    H2 4861   4.597   5.283   1.639 -0.4437 -1.5923  0.7669
 1619TIP3   OH2 4862   6.038   4.715   0.366 -0.3781  0.2167  0.3082
 1619TIP3    H1 4863   6.066   4.703   0.275  0.1796 -0.8800  0.6008
 1619TIP3    H2 4864   5.957   4.666   0.373 -0.4979  0.4222  0.3706
 1620TIP3   OH2 4865   4.921   4.579   2.132 -0.1199  0.4964 -0.4978
 1620TIP3    H1 4866   4.953   4.615   2.215  1.4385 -0.7555 -0.5123
 1620TIP3    H2 4867   4.942   4.646   2.067  0.0717  0.8229 -0.1011
 1621TIP3   OH2 4868   2.626   0.367   4.421 -0.3756  0.3066 -0.6029
 1621TIP3    H1 4869   2.705   0.386   4.372 -0.2964  1.1233 -0.1630
 1621TIP3    H2 4870   2.656   0.352   4.510 -0.7929  1.3745 -0.2758
 1622TIP3   OH2 4871   2.414   0.716   2.195 -0.3168 -0.3578  0.5026
 1622TIP3    H1 4872   2.410   0.779   2.124  2.7067  0.1254  0.6263
 1622TIP3    H2 4873   2.381   0.635   2.158  0.5678  0.0546 -1.2757
 1623TIP3   OH2 4874   3.915   1.164   4.374  0.1661  0.3320  0.1421
 1623TIP3    H1 4875   3.880   1.079   4.399  1.7777  0.1740  2.1623
 1623TIP3    H2 4876   3.847   1.227   4.400 -0.0041 -0.1714  0.9387
 1624TIP3   OH2 4877   0.443   4.231   0.664 -0.4996  0.1703 -0.6729
 1624TIP3    H1 4878   0.539   4.228   0.663 -0.5229 -1.1672 -0.5535
 1624TIP3    H2 4879   0.416   4.140   0.652 -1.7349  0.0362  2.2712
 1625TIP3   OH2 4880   3.759   4.846   2.754 -0.0175 -0.1890  0.1892
 1625TIP3    H1 4881   3.677   4.833   2.707 -0.6749  1.0765  0.9352
 1625TIP3    H2 4882   3.826   4.810   2.695 -1.1042 -1.4220 -0.3369
 1626TIP3   OH2 4883   2.787   3.045   4.012 -0.1658 -0.1619 -0.1606
 1626TIP3    H1 4884   2.712   3.049   4.071  0.6502  0.8759  0.8621
 1626TIP3    H2 4885   2.863   3.043   4.070  0.6007 -2.2050 -1.1620
 1627TIP3   OH2 4886   3.506   5.731   2.233  0.0587 -0.2130 -0.4675
 1627TIP3    H1 4887   3.417   5.765   2.228  0.4729  1.1957  0.8189
 1627TIP3    H2 4888   3.500   5.654   2.289 -0.2223  0.4189  0.3821
 1628TIP3   OH2 4889   5.571   4.752   0.392  0.7978 -0.3041 -0.3070
 1628TIP3    H1 4890   5.514   4.716   0.324  0.3244  0.5170 -0.3649
 1628TIP3    H2 4891   5.619   4.823   0.348  0.1434  0.5516  0.3101
 1629TIP3   OH2 4892   5.994   1.734   3.545  0.0933  0.2536 -0.3874
 1629TIP3    H1 4893   5.949   1.678   3.482 -1.8925  1.2863  0.0247
 1629TIP3    H2 4894   6.042   1.797   3.491 -0.6222  0.3880 -0.8830
 1630TIP3   OH2 4895   2.092   2.258   1.256 -0.1775 -0.4211 -0.3016
 1630TIP3    H1 4896   2.134   2.261   1.342  0.5548  0.3109 -0.6776
 1630TIP3    H2 4897   2.004   2.225   1.274 -0.5645  1.1845  0.9281
 1631TIP3   OH2 4898   0.644   1.343   4.300 -0.0273 -0.8165 -0.6763
 1631TIP3    H1 4899   0.731   1.383   4.299  0.1552 -1.0838  1.2321
 1631TIP3    H2 4900   0.660   1.249   4.288 -0.0698 -0.8536 -0.4367
 1632TIP3   OH2 4901   2.045   2.711   2.465 -0.3822  0.6502 -0.1167
 1632TIP3    H1 4902   2.018   2.753   2.383 -0.9349  0.1343 -0.2059
 1632TIP3    H2 4903   1.981   2.742   2.529  0.2939  1.3862  0.2253
 1633TIP3   OH2 4904   1.126   1.336   1.650  0.4587  0.6188 -0.0614
 1633TIP3    H1 4905   1.128   1.411   1.710  0.3306  1.0337 -0.5649
 1633TIP3    H2 4906   1.049   1.286   1.677 -0.6262  1.7366 -0.9664
 1634TIP3   OH2 4907   5.594   1.346   1.859  0.0938  0.5930 -0.0518
 1634TIP3    H1 4908   5.625   1.395   1.783  0.6427 -1.4720 -1.2309
 1634TIP3    H2 4909   5.674   1.313   1.900 -0.2417  1.0922  1.0300
 1635TIP3   OH2 4910   5.966   1.782   3.974  0.2413 -0.7139  0.7748
 1635TIP3    H1 4911   6.023   1.743   4.041 -1.4105 -2.3022  1.3263
 1635TIP3    H2 4912   5.944   1.709   3.916 -0.8967 -0.0442  0.3392
 1636TIP3   OH2 4913   4.236   4.575   3.151  0.1063  0.3869  0.1542
 1636TIP3    H1 4914   4.274   4.530   3.076  1.0178  1.2058  0.1046
 1636TIP3    H2 4915   4.250   4.515   3.225 -0.3003 -0.1796 -0.2199
 1637TIP3   OH2 4916   5.301   5.427   2.609 -0.0698  0.1211 -0.2391
 1637TIP3    H1 4917   5.226   5.430   2.669 -0.7230  0.4905 -1.0373
 1637TIP3    H2 4918   5.261   5.410   2.523  0.3693  3.5751 -1.2683
 1638TIP3   OH2 4919   0.327   3.994   0.603 -0.4200  0.0585 -0.0060
 1638TIP3    H1 4920   0.244   4.040   0.613 -0.0235  0.6439  0.6586
 1638TIP3    H2 4921   0.335   3.942   0.683  0.7880  1.5388  0.8760
 1639TIP3   OH2 4922   2.078   5.376   0.278  0.2461  0.0591  0.3827
 1639TIP3    H1 4923   2.053   5.438   0.209 -0.8563  0.0107  0.7088
 1639TIP3    H2 4924   2.173   5.378   0.279  0.3828 -0.9801 -2.0934
 1640TIP3   OH2 4925   3.106   2.836   2.825 -0.5842  0.0623 -0.0151
 1640TIP3    H1 4926   3.013   2.860   2.825 -1.0677 -1.6894 -0.0180
 1640TIP3    H2 4927   3.137   2.862   2.738 -1.3207 -0.2040 -0.3697
 1641TIP3   OH2 4928   3.948   1.881   2.092  0.1898 -0.6884 -0.0668
 1641TIP3    H1 4929   3.975   1.892   2.183  0.3379 -2.2781  0.1238
 1641TIP3    H2 4930   4.018   1.922   2.041 -0.3517  1.0309  0.5298
 1642TIP3   OH2 4931   5.672   5.190   4.680  0.4233 -0.1852  0.0261
 1642TIP3    H1 4932   5.733   5.243   4.730  0.2625 -0.3291  0.3811
 1642TIP3    H2 4933   5.593   5.244   4.673 -0.0709 -0.7072  1.1710
 1643TIP3   OH2 4934   4.652   3.009   4.695 -1.0731  0.2924  0.3567
 1643TIP3    H1 4935   4.723   2.983   4.636 -0.6668 -2.2814  1.8070
 1643TIP3    H2 4936   4.629   3.098   4.668  1.5933  0.6088 -1.2207
 1644TIP3   OH2 4937   1.488   0.483   2.605 -0.1283  0.1882  0.0371
 1644TIP3    H1 4938   1.546   0.451   2.674 -0.7110  1.8252  1.3488
 1644TIP3    H2 4939   1.431   0.408   2.586 -0.2470 -0.1862  1.6740
 1645TIP3   OH2 4940   0.987   1.632   3.627 -0.2179 -0.0660  0.8976
 1645TIP3    H1 4941   1.030   1.691   3.689  1.1716  1.3449 -1.2836
 1645TIP3    H2 4942   1.059   1.586   3.584 -0.8147  1.7460 -2.2908
 1646TIP3   OH2 4943   2.746   3.473   1.987  0.0125 -0.3211  0.9657
 1646TIP3    H1 4944   2.673   3.454   2.046 -1.0298  0.1368 -0.1410
 1646TIP3    H2 4945   2.760   3.567   1.997  1.5399 -0.6281  2.3381
 1647TIP3   OH2 4946   0.458   2.764   2.458 -0.3730  0.2454 -0.0106
 1647TIP3    H1 4947   0.459   2.783   2.552 -2.0239  2.5764 -0.3655
 1647TIP3    H2 4948   0.496   2.841   2.417  3.3101 -1.9866 -1.2530
 1648TIP3   OH2 4949   0.489   0.208   3.773  0.2639 -0.1985  0.3860
 1648TIP3    H1 4950   0.468   0.122   3.809 -0.1094 -0.4488 -0.4148
 1648TIP3    H2 4951   0.513   0.192   3.682 -1.4328  0.7059 -0.2752
 1649TIP3   OH2 4952   0.475   0.781   3.803 -0.2576  0.2603 -0.0989
 1649TIP3    H1 4953   0.424   0.705   3.829 -0.0252  0.5679  1.3265
 1649TIP3    H2 4954   0.415   0.855   3.813 -0.2941  0.3483 -0.8836
 1650TIP3   OH2 4955   5.939   3.683   2.271 -0.4636  0.0886 -0.5899
 1650TIP3    H1 4956   5.862   3.737   2.286 -0.9025 -1.1286  2.4157
 1650TIP3    H2 4957   6.013   3.739   2.297 -0.5400  0.5036 -1.2569
 1651TIP3   OH2 4958   4.496   5.777   4.547 -0.0381 -0.3740  0.1128
 1651TIP3    H1 4959   4.461   5.863   4.524  0.7338  0.4365  1.8243
 1651TIP3    H2 4960   4.477   5.723   4.471  2.4351  2.0919 -2.4775
 1652TIP3   OH2 4961   6.105   4.405   1.553 -0.0736  0.2742  0.1147
 1652TIP3    H1 4962   6.181   4.461   1.569 -0.6695  0.5446  2.2338
 1652TIP3    H2 4963   6.113   4.335   1.618  0.2368 -1.7756 -1.9480
 1653TIP3   OH2 4964   3.552   2.285   1.772 -0.1578  0.1964  0.0316
 1653TIP3    H1 4965   3.613   2.308   1.842  0.9367  0.3922 -0.9556
 1653TIP3    H2 4966   3.472   2.260   1.818  1.1952 -1.8512  1.4951
 1654TIP3   OH2 4967   0.871   4.000   0.210  0.4981 -0.2627  0.5397
 1654TIP3    H1 4968   0.955   4.003   0.164  0.1410 -1.4967 -0.2296
 1654TIP3    H2 4969   0.841   4.091   0.211  0.5853 -0.1662 -1.5820
 1655TIP3   OH2 4970   2.766   0.714   5.091  0.5458 -0.0763 -0.0896
 1655TIP3    H1 4971   2.762   0.662   5.011 -1.0660 -1.7269  0.9792
 1655TIP3    H2 4972   2.780   0.650   5.161  2.3485  1.3576  0.9632
 1656TIP3   OH2 4973   5.378   1.887   2.524  0.0959  0.5523  0.1472
 1656TIP3    H1 4974   5.374   1.818   2.458  1.0664 -0.0963  0.7350
 1656TIP3    H2 4975   5.360   1.968   2.476  1.5224  0.1896 -1.0678
 1657TIP3   OH2 4976   2.175   5.737   2.416  0.5604  0.0990 -0.3375
 1657TIP3    H1 4977   2.171   5.832   2.430 -0.9842  0.0805 -0.5147
 1657TIP3    H2 4978   2.113   5.720   2.345 -0.6152 -1.2651  0.9483
 1658TIP3   OH2 4979   5.041   2.283   1.662  0.0520 -0.0346  0.0015
 1658TIP3    H1 4980   5.133   2.310   1.667  0.1171 -0.4040  1.0557
 1658TIP3    H2 4981   5.024   2.275   1.568  1.1872 -0.2482 -0.2100
 1659TIP3   OH2 4982   4.966   0.716   0.676  0.2002 -0.2793  0.4631
 1659TIP3    H1 4983   4.929   0.744   0.592  1.1116 -1.6359 -0.4383
 1659TIP3    H2 4984   4.975   0.797   0.726  1.2851  0.8602 -1.4320
 1660TIP3   OH2 4985   6.028   2.464   4.992 -1.0784 -0.1566  0.3082
 1660TIP3    H1 4986   6.124   2.471   4.993 -1.0368 -0.7057  0.8033
 1660TIP3    H2 4987   5.999   2.525   5.059 -1.0234 -0.6086  0.7497
 1661TIP3   OH2 4988   2.317   2.304   0.466  0.0521  0.0924 -0.1613
 1661TIP3    H1 4989   2.383   2.300   0.396  0.0927  0.8701 -0.1728
 1661TIP3    H2 4990   2.251   2.365   0.434 -1.0228 -1.1406 -0.4216
 1662TIP3   OH2 4991   6.118   0.528   3.655  0.1367 -0.4349 -0.3119
 1662TIP3    H1 4992   6.040   0.475   3.674  0.3310 -0.1457  1.5101
 1662TIP3    H2 4993   6.192   0.470   3.676  0.3742 -0.0615 -0.0985
 1663TIP3   OH2 4994   0.818   1.247   0.440 -0.1590 -0.0236 -0.3796
 1663TIP3    H1 4995   0.906   1.211   0.434  0.1403  0.9021 -1.9220
 1663TIP3    H2 4996   0.796   1.242   0.534  1.7227  0.2505  0.1025
 1664TIP3   OH2 4997   1.809   3.204   3.906  0.0224  0.0837 -0.2827
 1664TIP3    H1 4998   1.865   3.271   3.942 -1.9167  2.2692 -1.0866
 1664TIP3    H2 4999   1.720   3.237   3.918 -0.9124 -0.9756 -3.2283
 1665TIP3   OH2 5000   4.062   3.120   4.635  0.1180  0.4022 -0.0106
 1665TIP3    H1 5001   4.060   3.215   4.646 -0.7299  0.1962  1.9214
 1665TIP3    H2 5002   4.142   3.104   4.586  2.6864  1.7957  3.3432
 1666TIP3   OH2 5003   0.585   4.189   2.164  0.3064  0.0513 -0.7045
 1666TIP3    H1 5004   0.512   4.129   2.147  0.7169 -0.6568 -0.0038
 1666TIP3    H2 5005   0.544   4.275   2.166 -0.8035 -0.4579  1.2858
 1667TIP3   OH2 5006   0.962   5.888   2.626  0.4191 -0.0519  0.5142
 1667TIP3    H1 5007   0.924   5.935   2.700 -0.3582  1.5689 -0.8479
 1667TIP3    H2 5008   1.047   5.930   2.612  0.4878 -0.2383  0.3638
 1668TIP3   OH2 5009   2.159   3.741   2.889 -0.5785 -0.3886  0.7321
 1668TIP3    H1 5010   2.115   3.704   2.813 -0.6902  0.1720  0.5207
 1668TIP3    H2 5011   2.210   3.668   2.925  1.0947 -0.1906 -1.0520
 1669TIP3   OH2 5012   2.296   1.319   2.827 -0.4835  0.0953  0.2100
 1669TIP3    H1 5013   2.296   1.286   2.916 -0.8392  0.7376  0.4567
 1669TIP3    H2 5014   2.300   1.414   2.836  1.6850  0.1184 -0.5019
 1670TIP3   OH2 5015   6.090   2.531   4.540  0.5526  0.1987 -0.0024
 1670TIP3    H1 5016   6.156   2.573   4.484  1.2580  1.4528  1.6738
 1670TIP3    H2 5017   6.007   2.572   4.514  0.1068 -2.3512 -3.0595
 1671TIP3   OH2 5018   0.914   2.199   1.587 -0.4005 -0.1132  0.2180
 1671TIP3    H1 5019   0.880   2.145   1.515 -0.5130  0.5790 -0.2664
 1671TIP3    H2 5020   0.981   2.253   1.546 -0.1505 -0.0281  0.7378
 1672TIP3   OH2 5021   2.238   2.652   3.149 -0.5040  0.2038  0.4823
 1672TIP3    H1 5022   2.231   2.563   3.185  3.6978 -0.1805  0.8964
 1672TIP3    H2 5023   2.259   2.707   3.225 -1.0149  1.1916 -0.0742
 1673TIP3   OH2 5024   2.403   0.119   2.013 -0.1901 -0.4586 -0.0235
 1673TIP3    H1 5025   2.428   0.029   2.033 -0.9252 -0.5224  0.6679
 1673TIP3    H2 5026   2.317   0.129   2.054 -0.2305  0.4760 -0.3223
 1674TIP3   OH2 5027   3.845   4.878   5.080 -0.2339  0.6418 -0.4103
 1674TIP3    H1 5028   3.768   4.934   5.070 -1.7259 -1.0297  0.9834
 1674TIP3    H2 5029   3.809   4.792   5.102  2.0354 -0.3643 -0.3410
 1675TIP3   OH2 5030   5.975   0.611   4.688 -0.2640 -0.0778 -0.0241
 1675TIP3    H1 5031   5.991   0.530   4.736 -0.1608 -0.1711 -0.2155
 1675TIP3    H2 5032   5.983   0.680   4.755 -0.7931 -0.2551  0.2266
 1676TIP3   OH2 5033   4.094   4.734   4.068 -0.4046 -0.1559 -0.8599
 1676TIP3    H1 5034   4.114   4.756   4.159 -0.0032 -0.5731 -0.8397
 1676TIP3    H2 5035   4.107   4.815   4.020 -1.0363  0.1765 -0.4869
 1677TIP3   OH2 5036   1.312   3.680   2.574 -0.5037  0.5043 -0.2396
 1677TIP3    H1 5037   1.323   3.602   2.519  3.1135  0.7068 -0.0469
 1677TIP3    H2 5038   1.296   3.751   2.512 -0.4488  0.1159 -0.7035
 1678TIP3   OH2 5039   4.030   3.411   1.009  0.2593  0.5273  0.3269
 1678TIP3    H1 5040   4.046   3.474   1.079 -1.9637  0.5825  0.8619
 1678TIP3    H2 5041   3.966   3.454   0.952  0.9860 -0.0695 -0.9982
 1679TIP3   OH2 5042   3.309   5.753   4.627 -0.1680 -0.5118  0.3603
 1679TIP3    H1 5043   3.237   5.795   4.674  0.6004  0.6552  0.5368
 1679TIP3    H2 5044   3.353   5.701   4.694 -2.0123 -2.9538 -0.1604
 1680TIP3   OH2 5045   1.866   1.122   3.438 -0.4428 -0.0994 -0.0024
 1680TIP3    H1 5046   1.945   1.143   3.489  0.9075 -1.4279 -1.4410
 1680TIP3    H2 5047   1.899   1.086   3.356 -2.5592  0.7496 -1.3114
 1681TIP3   OH2 5048   4.578   0.984   1.134 -0.5351 -0.5487 -0.2266
 1681TIP3    H1 5049   4.486   0.957   1.128 -1.2500  1.5759  0.5060
 1681TIP3    H2 5050   4.584   1.064   1.083  0.3032  0.7349  1.7736
 1682TIP3   OH2 5051   0.714   4.190   0.793 -0.2834  0.6691 -0.3645
 1682TIP3    H1 5052   0.688   4.100   0.812  2.7547 -0.3210 -0.2953
 1682TIP3    H2 5053   0.725   4.192   0.698 -0.5630  1.0608 -0.3913
 1683TIP3   OH2 5054   4.310   4.460   2.659 -0.3167 -0.4307 -0.4013
 1683TIP3    H1 5055   4.248   4.387   2.661 -0.9198  0.0813  0.1438
 1683TIP3    H2 5056   4.396   4.419   2.669 -0.3594 -1.3355 -2.9186
 1684TIP3   OH2 5057   2.001   1.791   2.647  0.0727  0.2967 -0.1535
 1684TIP3    H1 5058   1.924   1.797   2.703  0.2804  0.2824  0.1358
 1684TIP3    H2 5059   2.075   1.810   2.705  0.3442 -0.3612 -0.2737
 1685TIP3   OH2 5060   3.885   5.472   1.967  0.0296 -0.6338 -0.0191
 1685TIP3    H1 5061   3.928   5.527   1.902 -0.2941 -0.6865 -0.2795
 1685TIP3    H2 5062   3.902   5.382   1.939 -2.1997 -0.6862 -1.4669
 1686TIP3   OH2 5063   1.784   1.211   1.612  0.0351 -0.1739 -0.2652
 1686TIP3    H1 5064   1.713   1.179   1.556 -0.6193 -0.7535  0.8623
 1686TIP3    H2 5065   1.747   1.288   1.655 -0.2776 -1.0101  1.0273
 1687TIP3   OH2 5066   1.776   3.148   4.949 -0.8092 -0.2591 -0.0171
 1687TIP3    H1 5067   1.752   3.119   4.861  0.5548 -1.5039 -0.0138
 1687TIP3    H2 5068   1.794   3.242   4.939  0.0855 -0.5449 -1.2472
 1688TIP3   OH2 5069   6.095   0.352   0.601 -0.3938 -0.3727 -0.0863
 1688TIP3    H1 5070   6.098   0.367   0.506 -0.1791 -1.2643 -0.2304
 1688TIP3    H2 5071   6.157   0.280   0.616 -0.7533 -0.5365  0.6695
 1689TIP3   OH2 5072   0.931   1.097   4.130 -0.8119  0.2894 -0.0181
 1689TIP3    H1 5073   1.023   1.123   4.135 -0.6777 -0.1279 -0.2322
 1689TIP3    H2 5074   0.904   1.124   4.042 -0.9685  0.6456  0.1386
 1690TIP3   OH2 5075   2.019   1.615   4.196 -1.1551  0.5432 -0.2680
 1690TIP3    H1 5076   2.070   1.647   4.271  0.1258 -0.6408 -0.5866
 1690TIP3    H2 5077   1.947   1.566   4.236  0.4543 -1.5290  0.2817
 1691TIP3   OH2 5078   1.361   1.075   1.737 -0.4922  0.2734  0.1206
 1691TIP3    H1 5079   1.317   1.106   1.657  0.6504  1.0863 -0.2171
 1691TIP3    H2 5080   1.427   1.013   1.705  0.6063  1.3080  0.3244
 1692TIP3   OH2 5081   2.381   0.966   0.304 -0.2439  0.8218 -0.0523
 1692TIP3    H1 5082   2.457   0.986   0.250 -0.0947 -0.0520 -0.1718
 1692TIP3    H2 5083   2.334   1.049   0.310  0.6276  1.3330 -0.1114
 1693TIP3   OH2 5084   2.806  -0.015   1.361 -0.4508  0.6913  0.0528
 1693TIP3    H1 5085   2.843   0.014   1.277 -0.7861 -1.3199 -0.8708
 1693TIP3    H2 5086   2.721   0.028   1.367 -0.1022  1.4339 -0.2755
 1694TIP3   OH2 5087   2.482   4.903   3.216 -0.0451  0.3754  0.2454
 1694TIP3    H1 5088   2.445   4.904   3.128 -0.5919  1.3091  0.4666
 1694TIP3    H2 5089   2.571   4.938   3.206 -0.1499  0.5946  0.0795
 1695TIP3   OH2 5090   1.945   4.920   4.576  0.3014  0.4037 -0.4128
 1695TIP3    H1 5091   2.032   4.941   4.610  0.2309  0.4667 -0.2701
 1695TIP3    H2 5092   1.902   5.005   4.567 -0.0390  0.3204  0.3101
 1696TIP3   OH2 5093   2.385   5.660   1.206  0.1627  0.0684 -0.0687
 1696TIP3    H1 5094   2.339   5.605   1.143  0.0365  0.7158 -0.5605
 1696TIP3    H2 5095   2.347   5.637   1.290  0.9589 -1.4487 -0.0977
 1697TIP3   OH2 5096   5.722   5.386   4.190 -0.4636 -0.1118  0.1813
 1697TIP3    H1 5097   5.737   5.480   4.177  0.1247 -0.3252 -0.7400
 1697TIP3    H2 5098   5.727   5.374   4.285  0.4500  0.6351  0.2455
 1698TIP3   OH2 5099   1.063   3.089   1.373  0.2501 -0.3428  0.0922
 1698TIP3    H1 5100   0.999   3.094   1.444  0.4681  0.9006  0.2281
 1698TIP3    H2 5101   1.012   3.067   1.296 -0.3270  0.4230  0.2403
 1699TIP3   OH2 5102   0.348   2.759   1.327  0.7235 -0.0874 -0.2860
 1699TIP3    H1 5103   0.363   2.811   1.406 -0.9722  2.6927 -1.6427
 1699TIP3    H2 5104   0.288   2.689   1.355 -0.5833  1.3854  0.7439
 1700TIP3   OH2 5105   4.485   5.756   1.851  0.0595  0.5231 -0.0498
 1700TIP3    H1 5106   4.413   5.706   1.814 -0.5595  0.6219  0.9941
 1700TIP3    H2 5107   4.554   5.751   1.785 -0.6709 -0.1035 -0.7820
 1701TIP3   OH2 5108   0.139   3.637   2.080 -0.6856 -0.0326  0.7158
 1701TIP3    H1 5109   0.214   3.688   2.113 -0.0230 -0.8418  0.4933
 1701TIP3    H2 5110   0.178   3.556   2.049 -1.6456 -0.3740  0.3924
 1702TIP3   OH2 5111   1.139   2.137   4.466 -0.3078 -0.0734  0.5505
 1702TIP3    H1 5112   1.067   2.077   4.488 -0.1210 -0.0769  1.1607
 1702TIP3    H2 5113   1.125   2.158   4.374 -0.8519 -0.4071  0.5532
 1703TIP3   OH2 5114   4.670   4.628   4.930 -0.1570  0.3194 -0.1685
 1703TIP3    H1 5115   4.732   4.666   4.992 -0.1140  0.2991 -0.1989
 1703TIP3    H2 5116   4.584   4.651   4.964 -0.1348  0.2107 -0.0407
 1704TIP3   OH2 5117   5.571   2.222   2.184  0.1018 -0.0180  0.3960
 1704TIP3    H1 5118   5.638   2.277   2.143  0.1861 -1.6107 -1.7804
 1704TIP3    H2 5119   5.507   2.283   2.219  3.0057  1.6453  3.4080
 1705TIP3   OH2 5120   2.698   4.539   1.347 -0.1561  0.8172  0.3292
 1705TIP3    H1 5121   2.663   4.509   1.263 -1.1737 -1.0066  1.3297
 1705TIP3    H2 5122   2.639   4.608   1.375 -0.1659  1.0134 -0.1672
 1706TIP3   OH2 5123   5.700   3.916   1.900  0.0094  0.1766  0.0766
 1706TIP3    H1 5124   5.698   3.966   1.982  1.8709  0.8816 -0.2604
 1706TIP3    H2 5125   5.610   3.919   1.868 -0.5132  0.8759  1.5053
 1707TIP3   OH2 5126   6.062   2.182   3.787  0.5947  0.4927  0.3846
 1707TIP3    H1 5127   6.100   2.096   3.803 -0.0059  0.6435  3.0617
 1707TIP3    H2 5128   6.081   2.200   3.695  1.8991 -1.8990  0.1134
 1708TIP3   OH2 5129   1.053   1.351   1.260 -0.2949  0.0818  0.3651
 1708TIP3    H1 5130   1.088   1.279   1.312 -0.7598 -0.7738 -0.4896
 1708TIP3    H2 5131   1.040   1.422   1.324  0.3518 -0.5114  1.1780
 1709TIP3   OH2 5132   1.854   2.989   2.463  0.9489  0.2802  0.2824
 1709TIP3    H1 5133   1.934   3.035   2.437  0.6320  0.1486 -0.9984
 1709TIP3    H2 5134   1.818   2.956   2.380  0.2023 -0.6913  0.9745
 1710TIP3   OH2 5135   6.128   1.190   3.276 -0.2490 -0.1947 -0.4095
 1710TIP3    H1 5136   6.061   1.201   3.209 -0.0819 -1.3071 -0.7804
 1710TIP3    H2 5137   6.083   1.211   3.358 -1.6646 -2.7677 -0.4101
 1711TIP3   OH2 5138   3.079   1.909   1.277 -0.5047  0.0557  0.2149
 1711TIP3    H1 5139   3.067   1.999   1.246 -0.7477  0.0853  0.3900
 1711TIP3    H2 5140   3.055   1.912   1.369 -1.1634 -0.3239  0.0655
 1712TIP3   OH2 5141   5.799   2.000   3.887 -0.0100  0.1413 -0.3262
 1712TIP3    H1 5142   5.821   2.090   3.910 -1.6442  1.0150 -1.9089
 1712TIP3    H2 5143   5.876   1.950   3.912  0.6476  1.8329  1.3106
 1713TIP3   OH2 5144   3.795   5.644   4.687  0.4234 -0.5958 -0.1494
 1713TIP3    H1 5145   3.707   5.643   4.650  0.4863  2.6835 -0.6693
 1713TIP3    H2 5146   3.852   5.617   4.614  0.0683  0.4276 -0.8365
 1714TIP3   OH2 5147   6.213   0.369   4.352  0.1168  0.3538 -0.2007
 1714TIP3    H1 5148   6.130   0.322   4.361  0.8781 -1.0035  0.0228
 1714TIP3    H2 5149   6.247   0.374   4.442 -0.1929  1.8331 -0.1417
 1715TIP3   OH2 5150   2.000   1.765   1.784 -0.1794  0.2647 -0.1716
 1715TIP3    H1 5151   1.942   1.689   1.792  0.8294 -0.5322 -0.2343
 1715TIP3    H2 5152   1.954   1.824   1.724 -1.3301  0.0534  0.4643
 1716TIP3   OH2 5153   5.037   4.169   3.121  0.1353 -0.0924 -0.4109
 1716TIP3    H1 5154   4.996   4.181   3.035  1.7216 -0.1032 -1.1946
 1716TIP3    H2 5155   5.081   4.251   3.139  0.3845 -0.3313  0.0856
 1717TIP3   OH2 5156   3.012   1.918   3.820 -0.2057 -0.2765  0.8907
 1717TIP3    H1 5157   3.074   1.870   3.766  2.3056  0.3567  3.0342
 1717TIP3    H2 5158   2.954   1.961   3.757  1.5121 -0.8832 -1.2122
 1718TIP3   OH2 5159   3.329   2.948   4.181 -0.2579 -0.3059  0.3005
 1718TIP3    H1 5160   3.302   2.857   4.175 -1.7019  0.1182 -0.2060
 1718TIP3    H2 5161   3.409   2.947   4.234  0.8054 -2.0523 -1.2227
 1719TIP3   OH2 5162   1.278   0.567   2.214  0.0893 -0.6927 -0.2914
 1719TIP3    H1 5163   1.284   0.477   2.185 -0.2319 -0.2192 -1.9068
 1719TIP3    H2 5164   1.219   0.609   2.152  0.1081  0.5947  0.5208
 1720TIP3   OH2 5165   4.668   5.745   2.786 -0.4890 -0.1277 -0.0684
 1720TIP3    H1 5166   4.614   5.675   2.823 -1.6412  1.4226  1.2902
 1720TIP3    H2 5167   4.724   5.773   2.859  1.3138 -0.8263 -1.1018
 1721TIP3   OH2 5168   2.982   3.615   3.381 -0.1569 -0.2348  0.4369
 1721TIP3    H1 5169   2.894   3.623   3.345 -0.0706  2.6364  0.6446
 1721TIP3    H2 5170   3.034   3.578   3.310 -0.9828  0.7694 -0.7418
 1722TIP3   OH2 5171   0.092   5.151   4.269 -0.1593 -0.4614 -0.2519
 1722TIP3    H1 5172   0.129   5.191   4.348  0.0478 -2.5284  0.7444
 1722TIP3    H2 5173   0.022   5.094   4.301 -1.3303  0.0725 -1.7477
 1723TIP3   OH2 5174   4.812   2.391   3.310 -0.3623 -0.2025 -0.0703
 1723TIP3    H1 5175   4.858   2.472   3.289  1.6686 -1.1666  0.2934
 1723TIP3    H2 5176   4.772   2.363   3.228  0.3808  0.3151 -0.6206
 1724TIP3   OH2 5177   6.202   3.242   1.885  0.0609 -0.1823 -0.1137
 1724TIP3    H1 5178   6.126   3.220   1.939  0.1822 -1.2633 -0.3583
 1724TIP3    H2 5179   6.276   3.239   1.945  0.0906 -0.5649 -0.1675
 1725TIP3   OH2 5180   2.726   0.882   1.023  0.2378 -0.4213  0.4589
 1725TIP3    H1 5181   2.673   0.950   1.065 -1.2131 -1.5125  0.4833
 1725TIP3    H2 5182   2.714   0.804   1.078 -1.4922 -1.8277 -1.7048
 1726TIP3   OH2 5183   0.609   0.578   0.991 -0.3129 -0.2213  0.0945
 1726TIP3    H1 5184   0.636   0.670   0.990 -1.7356  0.2211 -1.3938
 1726TIP3    H2 5185   0.684   0.531   0.954 -0.2087  0.5559 -0.7127
 1727TIP3   OH2 5186   0.505   3.119   3.791 -0.6967 -0.4202 -0.7299
 1727TIP3    H1 5187   0.547   3.063   3.856  0.2463  0.7624 -0.2663
 1727TIP3    H2 5188   0.506   3.068   3.710 -0.1600 -1.1854 -0.2454
 1728TIP3   OH2 5189   3.849   3.273   3.705 -0.2379 -0.2431 -0.4510
 1728TIP3    H1 5190   3.833   3.185   3.739  0.3444 -0.2304 -0.1332
 1728TIP3    H2 5191   3.765   3.300   3.667 -1.0007 -0.1339  1.2531
 1729TIP3   OH2 5192   3.379  -0.025   0.974 -0.4119  0.2793 -0.5250
 1729TIP3    H1 5193   3.357   0.001   0.885  0.5231  2.4471 -0.1748
 1729TIP3    H2 5194   3.348   0.046   1.029  2.0101  0.6223  0.5259
 1730TIP3   OH2 5195   6.298   2.317   2.947  0.1661  0.4791  0.2238
 1730TIP3    H1 5196   6.360   2.244   2.955  0.4049  0.8182  2.0195
 1730TIP3    H2 5197   6.223   2.289   2.999 -0.6842  0.6133 -0.8934
 1731TIP3   OH2 5198   5.587   1.814   1.671  0.6606 -0.5108 -0.2728
 1731TIP3    H1 5199   5.563   1.780   1.585 -1.1889 -1.3108  0.5186
 1731TIP3    H2 5200   5.590   1.909   1.660  1.8041 -0.6707 -1.5238
 1732TIP3   OH2 5201   1.269   5.810   1.644 -0.0832 -0.5463  0.0282
 1732TIP3    H1 5202   1.297   5.757   1.719 -0.0333 -0.6061 -0.0328
 1732TIP3    H2 5203   1.175   5.822   1.657 -0.8351 -3.5198 -1.7219
 1733TIP3   OH2 5204   1.913   3.887   3.922 -0.3943 -0.1922  0.2409
 1733TIP3    H1 5205   1.835   3.925   3.961  0.9496  1.3952  1.5784
 1733TIP3    H2 5206   1.978   3.887   3.993  0.9695 -0.9795 -0.9361
 1734TIP3   OH2 5207   3.218   4.552   0.246  0.3980 -0.3636 -0.4963
 1734TIP3    H1 5208   3.157   4.478   0.238  1.9068 -1.9145  1.2530
 1734TIP3    H2 5209   3.244   4.552   0.338  1.7641  1.2810 -0.8307
 1735TIP3   OH2 5210   5.360   0.993   3.208 -0.2999  0.3091  0.1192
 1735TIP3    H1 5211   5.393   0.908   3.178 -0.8850 -0.5294  1.7442
 1735TIP3    H2 5212   5.437   1.051   3.204  0.4909 -0.6919  0.4301
 1736TIP3   OH2 5213   0.402   4.640   3.477 -0.4324  0.0216 -0.0828
 1736TIP3    H1 5214   0.452   4.569   3.519 -0.8466  0.2464  0.8160
 1736TIP3    H2 5215   0.432   4.719   3.522 -1.3780  0.1911  0.2622
 1737TIP3   OH2 5216   5.178   2.709   2.392 -0.2415  0.4570 -0.5150
 1737TIP3    H1 5217   5.148   2.687   2.481 -0.1934  0.2950 -0.5387
 1737TIP3    H2 5218   5.244   2.777   2.405 -0.4306  0.6289 -0.4440
 1738TIP3   OH2 5219   2.071   3.648   0.239  0.4855  0.2254  0.1479
 1738TIP3    H1 5220   1.994   3.631   0.294  1.9813  0.0064  2.3221
 1738TIP3    H2 5221   2.141   3.598   0.281  1.4144 -1.4032 -3.0425
 1739TIP3   OH2 5222   2.690   0.270   4.673  0.0392 -0.6015 -0.3011
 1739TIP3    H1 5223   2.694   0.175   4.682  1.4597 -0.5941 -0.5615
 1739TIP3    H2 5224   2.662   0.301   4.759 -2.1703 -1.3191 -0.7104
 1740TIP3   OH2 5225   4.111   1.011   1.290 -0.0126 -0.0294 -0.6250
 1740TIP3    H1 5226   4.177   0.947   1.318 -1.0624 -1.4255 -1.1928
 1740TIP3    H2 5227   4.075   0.974   1.209 -1.4785  0.6731 -0.3323
 1741TIP3   OH2 5228   2.148   3.664   0.783 -0.1727  0.2358  0.4325
 1741TIP3    H1 5229   2.090   3.657   0.858  0.8678 -0.0300  1.2290
 1741TIP3    H2 5230   2.206   3.738   0.803  1.4488 -1.0975  0.8623
 1742TIP3   OH2 5231   4.114   0.502   4.649  1.2672 -0.3687 -0.0116
 1742TIP3    H1 5232   4.051   0.565   4.683  0.8692 -1.6178  1.7024
 1742TIP3    H2 5233   4.140   0.537   4.564 -0.5017  1.0000 -0.0371
 1743TIP3   OH2 5234   2.312   1.077   5.163  0.3634 -0.1506  0.1398
 1743TIP3    H1 5235   2.407   1.086   5.166  0.1675  2.0550  1.6488
 1743TIP3    H2 5236   2.289   1.098   5.072  1.2054  1.0951  0.1892
 1744TIP3   OH2 5237   0.536   1.110   3.110  0.0240 -0.4721 -0.2057
 1744TIP3    H1 5238   0.618   1.128   3.156  0.3291 -0.4280 -0.7616
 1744TIP3    H2 5239   0.527   1.014   3.115 -1.1832 -0.2988  2.0349
 1745TIP3   OH2 5240   4.598   4.658   2.457 -0.1736  0.0493  0.4946
 1745TIP3    H1 5241   4.611   4.586   2.396 -0.5119  1.6888 -1.6782
 1745TIP3    H2 5242   4.503   4.667   2.464 -0.1347  0.1521  0.8958
 1746TIP3   OH2 5243   1.688   1.895   1.756  0.3694  0.6362 -0.2291
 1746TIP3    H1 5244   1.739   1.918   1.679 -0.2236 -0.0949 -0.8525
 1746TIP3    H2 5245   1.609   1.949   1.749  0.7729  1.3379  0.4292
 1747TIP3   OH2 5246   1.690   4.987   0.153 -0.5032 -0.8104  0.6944
 1747TIP3    H1 5247   1.712   5.060   0.096 -3.1738  0.0271  0.5730
 1747TIP3    H2 5248   1.744   5.000   0.231 -0.2700  0.7887  0.3025
 1748TIP3   OH2 5249   5.776   5.450   2.105  0.0292 -0.2408  0.6306
 1748TIP3    H1 5250   5.778   5.488   2.017 -0.5671  1.7108  1.4098
 1748TIP3    H2 5251   5.756   5.357   2.090  0.0379  0.0175 -1.2841
 1749TIP3   OH2 5252   2.344   5.252   0.028  0.0152  0.7206 -0.1163
 1749TIP3    H1 5253   2.297   5.332   0.048  0.2843  1.5734 -2.5043
 1749TIP3    H2 5254   2.299   5.216  -0.048  1.9478  0.5157 -1.2473
 1750TIP3   OH2 5255   4.669   5.931   3.864 -0.4129 -0.5549  0.1784
 1750TIP3    H1 5256   4.574   5.935   3.875 -0.1874  0.9583  2.0561
 1750TIP3    H2 5257   4.704   5.966   3.945  1.8071 -2.1006 -0.0465
 1751TIP3   OH2 5258   3.157   2.639   0.133 -0.0328  0.0235  0.3831
 1751TIP3    H1 5259   3.140   2.548   0.158 -1.4233  0.5431  1.4697
 1751TIP3    H2 5260   3.120   2.648   0.045 -0.6518 -0.2497  0.6128
 1752TIP3   OH2 5261   0.999   2.909   4.428 -0.7896 -0.1407 -0.6217
 1752TIP3    H1 5262   1.044   2.973   4.484  0.8458  0.1293 -2.1218
 1752TIP3    H2 5263   0.973   2.839   4.487 -0.7018  0.9132  0.7311
 1753TIP3   OH2 5264   4.377   1.111   0.884  0.0657  0.1053  0.4079
 1753TIP3    H1 5265   4.399   1.052   0.812 -0.5594  1.6281 -1.0901
 1753TIP3    H2 5266   4.336   1.054   0.950  0.6181 -1.3219 -0.4395
 1754TIP3   OH2 5267   1.748   2.792   2.073 -0.0270  0.2918  0.3224
 1754TIP3    H1 5268   1.741   2.851   1.998  2.8164 -0.1361 -0.4257
 1754TIP3    H2 5269   1.694   2.716   2.049 -0.1119  0.6789 -0.7600
 1755TIP3   OH2 5270   2.153   3.567   4.873 -0.4659  0.7750 -0.0457
 1755TIP3    H1 5271   2.189   3.611   4.950 -1.2000 -0.0940  0.8115
 1755TIP3    H2 5272   2.116   3.638   4.820  0.5835  1.4453  0.0945
 1756TIP3   OH2 5273   4.484   5.745   2.373 -0.0342 -0.1290  0.0537
 1756TIP3    H1 5274   4.396   5.777   2.352 -0.4621 -0.5756  1.1052
 1756TIP3    H2 5275   4.540   5.785   2.307 -0.8675  1.0020  0.0047
 1757TIP3   OH2 5276   6.121   2.923   0.066  0.5870 -0.2574  0.2830
 1757TIP3    H1 5277   6.076   3.007   0.074 -1.3721 -1.2912  1.1569
 1757TIP3    H2 5278   6.056   2.866   0.024  1.5746 -1.5087  0.4033
 1758TIP3   OH2 5279   1.782   3.301   1.167 -0.2665  0.5111  0.3772
 1758TIP3    H1 5280   1.807   3.245   1.240 -0.1118 -0.5902 -0.5022
 1758TIP3    H2 5281   1.739   3.376   1.208  1.3528  0.7689  1.6932
 1759TIP3   OH2 5282   5.905   4.046   3.888 -0.7621  0.0136 -0.1158
 1759TIP3    H1 5283   5.990   4.008   3.911 -1.6087 -2.3450 -0.6315
 1759TIP3    H2 5284   5.904   4.131   3.932  1.5394 -0.2267  0.5278
 1760TIP3   OH2 5285   4.459   3.129   0.362  0.0766 -0.1133 -0.1135
 1760TIP3    H1 5286   4.424   3.199   0.417  0.5653  0.0178  0.0323
 1760TIP3    H2 5287   4.406   3.132   0.283 -0.2149  0.1098  0.0886
 1761TIP3   OH2 5288   4.629   0.183   2.003 -0.0571 -0.5069 -0.2909
 1761TIP3    H1 5289   4.719   0.203   1.980  1.1078 -2.9974  1.5092
 1761TIP3    H2 5290   4.591   0.146   1.923  1.5035 -2.0962 -0.3780
 1762TIP3   OH2 5291   5.311   0.303   2.985 -0.3042 -0.0133 -0.0722
 1762TIP3    H1 5292   5.392   0.304   2.934 -0.6981 -1.3413 -0.7972
 1762TIP3    H2 5293   5.284   0.211   2.984 -1.2896  0.2430  1.0145
 1763TIP3   OH2 5294   1.875   4.969   0.410  0.4499  0.4834  0.1265
 1763TIP3    H1 5295   1.846   4.884   0.444  0.3619 -0.1366 -1.4035
 1763TIP3    H2 5296   1.924   5.008   0.482  0.8732 -1.0632  0.7198
 1764TIP3   OH2 5297   2.189   0.576   3.745 -0.4925 -0.6260  0.4426
 1764TIP3    H1 5298   2.170   0.495   3.793  0.0817  0.3460  2.4406
 1764TIP3    H2 5299   2.154   0.646   3.801  1.4179  0.6547  0.1405
 1765TIP3   OH2 5300   1.836   1.750   3.975 -0.3984  0.0938 -0.2793
 1765TIP3    H1 5301   1.914   1.719   4.022  0.9417  2.5693 -0.6740
 1765TIP3    H2 5302   1.822   1.839   4.008 -1.3543  0.7334 -2.2427
 1766TIP3   OH2 5303   2.751   4.842   0.552  0.1111  0.2146  0.5548
 1766TIP3    H1 5304   2.683   4.895   0.510  0.8998  0.0001 -1.0932
 1766TIP3    H2 5305   2.803   4.808   0.479  1.0874 -0.8457  1.6992
 1767TIP3   OH2 5306   5.037   3.838   4.659 -0.5494  0.3717  0.0029
 1767TIP3    H1 5307   5.110   3.851   4.720 -0.6901  1.8147 -0.1191
 1767TIP3    H2 5308   5.067   3.768   4.600  0.9271  1.2725 -0.3517
 1768TIP3   OH2 5309   0.246   5.405   4.002 -0.4136  0.0647 -0.2254
 1768TIP3    H1 5310   0.316   5.462   4.035  0.4533 -0.5402 -0.9463
 1768TIP3    H2 5311   0.207   5.455   3.930  0.1533 -0.1051 -0.6662
 1769TIP3   OH2 5312   0.178   5.605   3.759  0.0175 -0.0243  0.8936
 1769TIP3    H1 5313   0.243   5.660   3.715  0.5001 -0.0576  1.5500
 1769TIP3    H2 5314   0.130   5.562   3.688  0.2872  0.4909  0.3939
 1770TIP3   OH2 5315   4.699   5.781   0.859 -0.1144  0.0239 -0.0206
 1770TIP3    H1 5316   4.615   5.775   0.906 -0.0314  1.4241  0.3362
 1770TIP3    H2 5317   4.716   5.691   0.830 -1.9063 -0.2276 -0.4086
 1771TIP3   OH2 5318   3.555   2.561   5.103  0.2399  0.1135  0.2919
 1771TIP3    H1 5319   3.619   2.535   5.036 -0.7689  0.5455 -0.8860
 1771TIP3    H2 5320   3.577   2.652   5.123  0.6999 -0.0936  0.7504
 1772TIP3   OH2 5321   0.825   2.911   1.264  0.6337  0.6394  0.0660
 1772TIP3    H1 5322   0.830   2.823   1.226 -1.5911  0.0700  0.9033
 1772TIP3    H2 5323   0.851   2.899   1.356  0.0572  0.7633  0.2549
 1773TIP3   OH2 5324   4.273   4.009   2.184  0.0111 -0.3527 -0.4795
 1773TIP3    H1 5325   4.244   3.923   2.215  0.9575 -1.4005 -2.3449
 1773TIP3    H2 5326   4.250   4.010   2.091  0.7946  1.0852 -0.6832
 1774TIP3   OH2 5327   6.219   3.934   0.140 -0.2569  0.3477  0.1580
 1774TIP3    H1 5328   6.277   3.927   0.215 -1.8721  1.1391  1.5446
 1774TIP3    H2 5329   6.274   3.972   0.071  0.9219  0.9107  1.3556
 1775TIP3   OH2 5330   0.522   2.887   4.358 -0.1803 -0.2432  0.1056
 1775TIP3    H1 5331   0.519   2.792   4.348 -0.1585 -0.2987  0.6282
 1775TIP3    H2 5332   0.468   2.920   4.286  0.2885 -0.6245 -0.4326
 1776TIP3   OH2 5333   6.302   0.368   3.784  0.1391  0.0278  0.5551
 1776TIP3    H1 5334   6.270   0.291   3.831 -0.3252 -0.3028 -0.2758
 1776TIP3    H2 5335   6.378   0.336   3.735 -1.6422 -0.6493 -1.9619
 1777TIP3   OH2 5336   5.945   2.198   5.135  0.3300 -1.1160 -0.5277
 1777TIP3    H1 5337   5.980   2.250   5.207 -1.3422 -2.1721  1.1478
 1777TIP3    H2 5338   6.019   2.147   5.103  0.7793 -1.9964  1.7217
 1778TIP3   OH2 5339   5.807   0.253   0.633 -0.1786  0.9039  0.4933
 1778TIP3    H1 5340   5.753   0.300   0.569  0.0142 -1.3625 -1.4589
 1778TIP3    H2 5341   5.894   0.291   0.624 -0.8281  2.9135  1.9312
 1779TIP3   OH2 5342   1.124   4.774   4.438  0.0782  0.0422 -0.0961
 1779TIP3    H1 5343   1.080   4.821   4.368 -0.7398  0.6924  0.8394
 1779TIP3    H2 5344   1.062   4.773   4.511  0.5966 -1.3108  0.3673
 1780TIP3   OH2 5345   4.669   5.826   1.184  0.4914 -0.2173 -0.0311
 1780TIP3    H1 5346   4.628   5.818   1.098 -2.0339  0.8352  0.9645
 1780TIP3    H2 5347   4.681   5.920   1.196 -0.4154 -0.2315  1.2371
 1781TIP3   OH2 5348   4.163   4.847   5.045 -0.5099 -0.1282  0.2757
 1781TIP3    H1 5349   4.141   4.795   5.122  0.5099  1.3319  1.6313
 1781TIP3    H2 5350   4.122   4.932   5.061 -0.1284  0.2558 -0.6999
 1782TIP3   OH2 5351   1.974   3.389   4.035 -0.4295 -0.5414 -1.0083
 1782TIP3    H1 5352   2.050   3.386   3.976 -0.4570  0.3483 -1.1034
 1782TIP3    H2 5353   1.909   3.441   3.988  0.1490  1.6321  0.4604
 1783TIP3   OH2 5354   2.538   2.846   3.685 -0.4857  0.2511  0.3654
 1783TIP3    H1 5355   2.622   2.877   3.718 -0.1514  0.0065 -0.2378
 1783TIP3    H2 5356   2.560   2.794   3.608 -1.2000  0.2930  0.1210
 1784TIP3   OH2 5357   2.336   5.789   5.133  0.4933  0.2726 -0.6125
 1784TIP3    H1 5358   2.329   5.695   5.119 -0.2547  0.1115  0.6115
 1784TIP3    H2 5359   2.320   5.800   5.227  1.8240  1.5091 -0.4950
 1785TIP3   OH2 5360   5.167   3.908   1.928 -0.4974 -0.0712 -0.6422
 1785TIP3    H1 5361   5.246   3.919   1.981 -0.5737 -1.4704 -0.1862
 1785TIP3    H2 5362   5.198   3.883   1.841 -0.3811  1.9088 -1.1957
 1786TIP3   OH2 5363   4.371   2.837   2.378 -0.5647 -0.5794 -0.5707
 1786TIP3    H1 5364   4.281   2.805   2.365 -1.2833  0.9493  0.3083
 1786TIP3    H2 5365   4.363   2.901   2.449  1.5998 -2.0223  1.0980
 1787TIP3   OH2 5366   0.259   0.193   1.385 -0.0468 -0.1475 -0.2554
 1787TIP3    H1 5367   0.223   0.261   1.442  0.6814  0.9418 -1.0548
 1787TIP3    H2 5368   0.336   0.161   1.431  0.7995  1.0466 -0.7936
 1788TIP3   OH2 5369   3.882   1.393   0.391  0.1104 -0.7595 -0.2281
 1788TIP3    H1 5370   3.939   1.345   0.330  1.5351 -2.3573  2.2102
 1788TIP3    H2 5371   3.936   1.467   0.420 -0.6061  0.0598 -0.9123
 1789TIP3   OH2 5372   5.421   2.404   1.113 -0.5250  0.3045  0.4892
 1789TIP3    H1 5373   5.434   2.481   1.058  0.7045  2.0358  3.0176
 1789TIP3    H2 5374   5.327   2.404   1.132 -0.6561  0.7378 -0.1225
 1790TIP3   OH2 5375   4.952   0.674   1.123  0.3780  0.3841  0.7747
 1790TIP3    H1 5376   4.870   0.721   1.106  0.8306  0.7708 -0.4492
 1790TIP3    H2 5377   4.995   0.724   1.191 -0.7506 -0.2734  2.0246
 1791TIP3   OH2 5378   1.481   4.411   4.582  0.0236  0.2288 -0.1527
 1791TIP3    H1 5379   1.456   4.337   4.638 -0.0493  0.7884  0.5620
 1791TIP3    H2 5380   1.402   4.466   4.579  0.4185  0.8287  0.2196
 1792TIP3   OH2 5381   3.194   2.955   2.562  0.5827  0.1844  0.2491
 1792TIP3    H1 5382   3.266   2.957   2.498 -0.5406 -1.6459 -1.1630
 1792TIP3    H2 5383   3.157   3.043   2.559 -0.4465 -0.2333 -2.9096
 1793TIP3   OH2 5384   5.775   0.152   3.665 -0.0368 -0.9275 -0.0382
 1793TIP3    H1 5385   5.691   0.158   3.621  0.2272  0.3650 -0.3946
 1793TIP3    H2 5386   5.756   0.173   3.757 -0.0863 -0.5008 -0.1450
 1794TIP3   OH2 5387   0.372   2.668   0.643  0.0527 -0.7611  0.0673
 1794TIP3    H1 5388   0.322   2.651   0.723 -0.5910 -3.9601 -0.8986
 1794TIP3    H2 5389   0.463   2.661   0.670 -0.1136 -0.3985  0.7610
 1795TIP3   OH2 5390   5.069   5.958   4.881 -0.1745  0.1296  0.3089
 1795TIP3    H1 5391   5.138   6.009   4.923 -1.8717  1.6642  1.3779
 1795TIP3    H2 5392   4.996   5.960   4.943 -2.3496  1.3842 -2.1169
 1796TIP3   OH2 5393   0.351   5.721   5.183  0.4279 -0.0633 -0.3307
 1796TIP3    H1 5394   0.258   5.713   5.206  0.5253  1.1246  0.5444
 1796TIP3    H2 5395   0.371   5.639   5.138 -0.8485 -0.6737  0.1504
 1797TIP3   OH2 5396   5.460   3.129   3.246 -0.3816  0.2014  0.0499
 1797TIP3    H1 5397   5.505   3.211   3.265 -0.8692  0.3344  0.6377
 1797TIP3    H2 5398   5.372   3.155   3.220 -1.5251 -0.2228  3.0973
 1798TIP3   OH2 5399   2.784   2.296   0.686 -0.2456  0.3551 -0.1420
 1798TIP3    H1 5400   2.796   2.377   0.735  0.3668  0.4323 -0.4147
 1798TIP3    H2 5401   2.690   2.293   0.667 -0.4672  0.4129  0.8646
 1799TIP3   OH2 5402   4.961   5.343   0.467  0.3166 -0.6247  0.2665
 1799TIP3    H1 5403   5.018   5.297   0.406  1.2369  0.5281  0.2138
 1799TIP3    H2 5404   4.889   5.374   0.413  1.2406  0.5885 -0.3231
 1800TIP3   OH2 5405   4.381   5.819   3.368 -0.3647 -0.4801  0.0546
 1800TIP3    H1 5406   4.296   5.801   3.329 -0.2719 -1.0921  0.1210
 1800TIP3    H2 5407   4.368   5.801   3.461 -0.6533  1.2002  0.3708
 1801TIP3   OH2 5408   0.188   0.433   4.034 -0.4293  1.0989 -0.0245
 1801TIP3    H1 5409   0.199   0.505   4.096 -0.6576  1.5573 -0.5085
 1801TIP3    H2 5410   0.106   0.391   4.059  0.4360  0.0673  1.1888
 1802TIP3   OH2 5411   3.508   5.970   4.822 -0.0034 -0.1370  0.2887
 1802TIP3    H1 5412   3.497   5.920   4.741  0.1468 -1.9289  1.3036
 1802TIP3    H2 5413   3.595   5.944   4.854 -0.7984 -0.9209  1.9345
 1803TIP3   OH2 5414   3.608   1.324   4.984 -0.4445 -0.4814 -0.2929
 1803TIP3    H1 5415   3.657   1.381   4.925  1.0242 -0.3235  1.0039
 1803TIP3    H2 5416   3.517   1.333   4.956 -0.1051  1.5471 -0.8949
 1804TIP3   OH2 5417   1.879   5.050   1.883 -0.2208 -0.3249  0.7378
 1804TIP3    H1 5418   1.876   5.063   1.788 -0.4126 -0.0712  0.7758
 1804TIP3    H2 5419   1.816   4.979   1.899  0.9010 -1.3982  0.5171
 1805TIP3   OH2 5420   3.410   2.683   1.108 -0.0398  0.2417 -0.6537
 1805TIP3    H1 5421   3.360   2.726   1.039 -0.9437  1.9652  0.9777
 1805TIP3    H2 5422   3.344   2.658   1.174  0.8460 -0.8179 -0.1300
 1806TIP3   OH2 5423   2.051   2.545   4.583 -0.4219  0.4670  0.1517
 1806TIP3    H1 5424   2.137   2.525   4.545  0.1367  0.1251  1.5460
 1806TIP3    H2 5425   2.013   2.608   4.523  0.3923 -0.1131 -1.0180
 1807TIP3   OH2 5426   1.405  -0.023   4.976  0.1732 -0.4465 -0.2996
 1807TIP3    H1 5427   1.351   0.024   4.912 -1.6178 -1.1575  0.6175
 1807TIP3    H2 5428   1.444   0.046   5.030 -0.9696  0.0806 -0.1112
 1808TIP3   OH2 5429   5.757   5.243   4.422  0.5889 -0.1290 -0.1465
 1808TIP3    H1 5430   5.743   5.232   4.516  1.1117  0.0947 -0.0385
 1808TIP3    H2 5431   5.843   5.204   4.406  0.2999 -0.5895 -0.6190
 1809TIP3   OH2 5432   6.186   4.497   1.973  0.5911 -0.4328  0.4857
 1809TIP3    H1 5433   6.130   4.569   1.943  0.3494 -1.0754 -0.6789
 1809TIP3    H2 5434   6.128   4.445   2.029  0.5679 -0.1110  0.7710
 1810TIP3   OH2 5435   3.818   5.540   3.591  0.4464 -0.0266 -0.3157
 1810TIP3    H1 5436   3.768   5.459   3.586 -1.7579  1.1039  1.5616
 1810TIP3    H2 5437   3.769   5.602   3.536  0.3815  0.8061  0.6476
 1811TIP3   OH2 5438   0.155   4.366   1.910 -0.2564  0.1222  0.1342
 1811TIP3    H1 5439   0.092   4.309   1.865 -0.3081 -0.9892  1.5376
 1811TIP3    H2 5440   0.202   4.307   1.969  2.2067  0.8877 -0.9397
 1812TIP3   OH2 5441   1.911   1.437   0.967 -0.7142  0.3045  0.0606
 1812TIP3    H1 5442   1.961   1.486   0.901 -0.1528  0.1784  0.3844
 1812TIP3    H2 5443   1.978   1.393   1.020 -1.2305 -2.1967 -1.2437
 1813TIP3   OH2 5444   0.950   2.496   0.900 -0.7555  0.4515  0.5878
 1813TIP3    H1 5445   1.010   2.538   0.962 -0.7296 -2.7040  2.9092
 1813TIP3    H2 5446   0.997   2.498   0.817  0.9428  1.3511  1.5142
 1814TIP3   OH2 5447   3.854   1.437   1.892 -0.2165  0.1544  0.4913
 1814TIP3    H1 5448   3.947   1.425   1.914 -0.2604  1.1188  1.2801
 1814TIP3    H2 5449   3.846   1.531   1.874 -0.8836 -0.0578 -0.3884
 1815TIP3   OH2 5450   5.996   0.767   3.539 -0.1092 -0.0530  0.4179
 1815TIP3    H1 5451   6.089   0.779   3.523 -0.1390 -0.8768 -0.4512
 1815TIP3    H2 5452   5.979   0.675   3.521 -0.9515 -0.0974  1.3318
 1816TIP3   OH2 5453   4.118   2.463   2.456  0.3515 -0.1216 -0.1470
 1816TIP3    H1 5454   4.025   2.468   2.474  0.2734  0.7654 -0.7719
 1816TIP3    H2 5455   4.127   2.391   2.394  0.1366 -0.4567  0.2053
 1817TIP3   OH2 5456   4.496   1.167   4.711 -0.5392  0.0033  0.2568
 1817TIP3    H1 5457   4.432   1.099   4.690 -2.1232  1.1713  1.0781
 1817TIP3    H2 5458   4.536   1.189   4.627  0.6038 -2.4480  0.0762
 1818TIP3   OH2 5459   5.261   1.860   4.054  0.4508 -0.2543 -0.0199
 1818TIP3    H1 5460   5.347   1.894   4.026  0.7453  0.0785  1.1917
 1818TIP3    H2 5461   5.272   1.765   4.055  0.2762 -0.3063 -1.4457
 1819TIP3   OH2 5462   4.491   2.431   2.411  0.2141  0.0540 -0.1885
 1819TIP3    H1 5463   4.414   2.376   2.396  0.6904 -0.8413  0.6062
 1819TIP3    H2 5464   4.565   2.376   2.387  0.7445  0.0512  1.3759
 1820TIP3   OH2 5465   0.928   3.544   0.318  0.1420 -0.3523 -0.2989
 1820TIP3    H1 5466   0.988   3.538   0.244  0.7287  0.5234  0.0702
 1820TIP3    H2 5467   0.882   3.627   0.305 -0.6238 -0.7704 -0.3057
 1821TIP3   OH2 5468   4.159   2.007   1.930  0.0415 -0.7059  0.0148
 1821TIP3    H1 5469   4.192   2.080   1.982 -0.1211  0.4361 -1.3998
 1821TIP3    H2 5470   4.191   2.026   1.841 -0.4747 -2.0643 -0.4793
 1822TIP3   OH2 5471   0.189   2.201   1.487  0.3219  0.0161 -0.3551
 1822TIP3    H1 5472   0.224   2.288   1.508  1.7851 -0.2212 -1.6100
 1822TIP3    H2 5473   0.180   2.158   1.572  0.5482  1.0354  0.2059
 1823TIP3   OH2 5474   4.797   2.275   4.493 -0.2319  0.0168  0.1765
 1823TIP3    H1 5475   4.858   2.336   4.535 -0.6258  1.2284 -0.9094
 1823TIP3    H2 5476   4.830   2.188   4.514  0.4352  0.6029  1.6726
 1824TIP3   OH2 5477   2.813   5.841   2.340 -0.1990  0.0474  0.0917
 1824TIP3    H1 5478   2.718   5.848   2.332 -0.3366 -1.3102  0.3792
 1824TIP3    H2 5479   2.846   5.924   2.305 -1.4241 -0.0415 -1.3629
 1825TIP3   OH2 5480   2.902   3.013   2.771  0.3216 -0.0852  0.0695
 1825TIP3    H1 5481   2.885   3.093   2.721 -0.7119 -0.4506 -0.1875
 1825TIP3    H2 5482   2.828   2.956   2.750  1.6482 -1.5965 -0.7208
 1826TIP3   OH2 5483   1.203   2.596   1.074  0.7556  0.3660  0.0756
 1826TIP3    H1 5484   1.280   2.555   1.114 -0.2967 -1.5637  0.2411
 1826TIP3    H2 5485   1.211   2.689   1.097  2.7182  0.1222  0.5663
 1827TIP3   OH2 5486   4.791   3.316   4.283 -0.8607 -1.0026  0.3205
 1827TIP3    H1 5487   4.730   3.388   4.302 -0.8762 -0.8842 -0.1610
 1827TIP3    H2 5488   4.738   3.252   4.235 -0.3440 -0.4029 -1.0839
 1828TIP3   OH2 5489   2.318   3.682   3.707 -0.3761 -0.3362  0.0974
 1828TIP3    H1 5490   2.226   3.704   3.726 -0.1141 -0.7126  2.0465
 1828TIP3    H2 5491   2.350   3.757   3.656 -0.5819  2.1026  3.2141
 1829TIP3   OH2 5492   3.487   3.020   0.292  0.2502 -0.0290  0.4445
 1829TIP3    H1 5493   3.567   2.987   0.251 -0.0284 -0.9979  0.6496
 1829TIP3    H2 5494   3.518   3.066   0.370  0.6306 -0.1950  0.3937
 1830TIP3   OH2 5495   3.507   0.106   4.899  0.1079  0.2077 -0.0208
 1830TIP3    H1 5496   3.520   0.052   4.822 -1.9666  0.0557 -0.3190
 1830TIP3    H2 5497   3.591   0.105   4.944  1.2518 -0.0204 -2.0557
 1831TIP3   OH2 5498   5.026   5.707   0.356  0.3953  0.5583  0.0249
 1831TIP3    H1 5499   4.971   5.727   0.280  1.5411 -0.2512 -1.0507
 1831TIP3    H2 5500   5.082   5.635   0.328  0.1978 -0.4411  1.9732
 1832TIP3   OH2 5501   5.167   0.318   0.081 -0.7701  0.2222  0.3542
 1832TIP3    H1 5502   5.221   0.394   0.102 -0.5121  0.4147 -0.9528
 1832TIP3    H2 5503   5.137   0.334  -0.008 -0.8559 -1.1192  0.1277
 1833TIP3   OH2 5504   4.031   2.709   0.734  0.3262 -0.4850  0.8120
 1833TIP3    H1 5505   4.100   2.701   0.801  1.2087  0.9814  0.1088
 1833TIP3    H2 5506   3.989   2.623   0.734  1.8822 -1.2968  1.5573
 1834TIP3   OH2 5507   3.428   4.735   4.120 -0.0290  0.1383 -0.0405
 1834TIP3    H1 5508   3.401   4.673   4.187  0.2098 -1.6000 -1.4635
 1834TIP3    H2 5509   3.392   4.698   4.038  1.0799  1.2810 -1.0817
 1835TIP3   OH2 5510   1.853   2.695   4.188 -0.2628  0.5356  0.1962
 1835TIP3    H1 5511   1.819   2.772   4.142  0.9854  1.2114  0.3479
 1835TIP3    H2 5512   1.776   2.648   4.217 -1.0647  1.1473 -0.8707
 1836TIP3   OH2 5513   5.061   2.260   1.959  0.2660  0.1241 -0.3110
 1836TIP3    H1 5514   5.004   2.249   1.883  0.9972  0.4067 -0.9180
 1836TIP3    H2 5515   5.139   2.303   1.924 -0.1979  2.1369  0.9320
 1837TIP3   OH2 5516   1.380   1.574   0.722  0.5060  0.2920  0.5238
 1837TIP3    H1 5517   1.387   1.479   0.714  0.8771  0.3978 -0.5313
 1837TIP3    H2 5518   1.298   1.588   0.769  0.1942 -0.5365  0.2454
 1838TIP3   OH2 5519   2.194   4.800   2.802 -0.5679 -0.0575 -0.2637
 1838TIP3    H1 5520   2.172   4.893   2.788  0.4615  0.1015 -0.8977
 1838TIP3    H2 5521   2.109   4.756   2.804 -1.1670  1.0711  1.4968
 1839TIP3   OH2 5522   5.632   2.762   4.390 -0.0459  0.2889  0.0204
 1839TIP3    H1 5523   5.587   2.837   4.429  1.6811  1.0993  0.5576
 1839TIP3    H2 5524   5.653   2.791   4.301  2.0355  1.1408  0.7230
 1840TIP3   OH2 5525   4.752   0.402   2.746  0.3094 -0.2218  0.9324
 1840TIP3    H1 5526   4.796   0.318   2.755  3.6995  1.4647  1.7471
 1840TIP3    H2 5527   4.710   0.416   2.831 -1.2282 -1.4718  0.4323
 1841TIP3   OH2 5528   5.764   1.941   0.501 -0.2479  0.1138 -0.0480
 1841TIP3    H1 5529   5.712   1.865   0.477 -1.2477  0.4394  1.0070
 1841TIP3    H2 5530   5.774   1.934   0.596  1.0704  0.4275 -0.1426
 1842TIP3   OH2 5531   6.237   5.644   3.427 -0.2063 -0.0224 -0.4449
 1842TIP3    H1 5532   6.194   5.680   3.505  0.1920  0.2340 -0.3367
 1842TIP3    H2 5533   6.167   5.603   3.377 -0.5744  0.4024 -0.2814
 1843TIP3   OH2 5534   0.987   2.358   4.813 -0.1431 -0.3831 -0.2269
 1843TIP3    H1 5535   1.000   2.445   4.852 -0.1467 -0.1402 -0.7587
 1843TIP3    H2 5536   1.011   2.369   4.721 -0.9011 -0.7501 -0.4768
 1844TIP3   OH2 5537   2.098   4.995   3.035  0.3886 -0.0028  0.0052
 1844TIP3    H1 5538   2.093   4.996   2.939 -1.7391  0.1416  0.0669
 1844TIP3    H2 5539   2.059   5.079   3.061 -1.4996 -1.1200  1.0066
 1845TIP3   OH2 5540   1.598   4.512   3.790 -0.3460  0.5788  0.3365
 1845TIP3    H1 5541   1.607   4.607   3.788 -0.7420  0.6123 -0.6876
 1845TIP3    H2 5542   1.514   4.495   3.748  0.0216 -0.2487 -0.0911
 1846TIP3   OH2 5543   5.406   1.337   3.274 -0.5136 -0.6147  0.1765
 1846TIP3    H1 5544   5.381   1.312   3.363 -1.4166  0.5853  0.2755
 1846TIP3    H2 5545   5.435   1.428   3.282 -0.9610 -0.3743 -0.8077
 1847TIP3   OH2 5546   2.910   4.072   1.128  0.0827 -0.4204  0.8004
 1847TIP3    H1 5547   2.852   4.072   1.052  0.3356  0.3777  0.5872
 1847TIP3    H2 5548   2.858   4.111   1.198  0.3254  0.2618  0.6187
 1848TIP3   OH2 5549   2.035   3.357   0.815 -0.1499 -0.1545  0.5743
 1848TIP3    H1 5550   2.101   3.376   0.881  0.3944 -1.3761  0.4205
 1848TIP3    H2 5551   2.058   3.412   0.740 -0.3356  0.6904  1.1371
 1849TIP3   OH2 5552   3.430   1.375   0.963  0.2616  0.1775 -0.4019
 1849TIP3    H1 5553   3.520   1.378   0.997  0.7141  1.7516 -1.6038
 1849TIP3    H2 5554   3.397   1.463   0.977 -0.7610 -0.1278 -0.8654
 1850TIP3   OH2 5555   3.277   4.666   3.900  0.2269  0.4077 -0.6490
 1850TIP3    H1 5556   3.250   4.752   3.868  0.7287  0.3548 -1.2541
 1850TIP3    H2 5557   3.293   4.615   3.820  0.4125 -0.0938 -0.3012
 1851TIP3   OH2 5558   1.831   3.228   1.971  0.0368  0.2371 -0.6371
 1851TIP3    H1 5559   1.845   3.266   2.058  0.1146  0.6466 -0.8299
 1851TIP3    H2 5560   1.875   3.288   1.911  0.5264 -0.3712 -0.9041
 1852TIP3   OH2 5561   2.905   2.233   4.590 -0.3826 -0.0017  0.0172
 1852TIP3    H1 5562   2.913   2.140   4.614 -1.5867 -0.2320 -0.4165
 1852TIP3    H2 5563   2.883   2.277   4.672 -0.3809 -0.1796  0.1143
 1853TIP3   OH2 5564   5.212   2.866   4.170  0.1128  0.4148 -0.3491
 1853TIP3    H1 5565   5.162   2.929   4.118  0.2732  0.0582 -0.9430
 1853TIP3    H2 5566   5.207   2.899   4.260 -1.7887  0.0180 -0.2740
 1854TIP3   OH2 5567   0.429   3.889   3.357 -0.0132 -0.0863 -0.4128
 1854TIP3    H1 5568   0.461   3.799   3.356 -1.1036 -0.5148 -2.5562
 1854TIP3    H2 5569   0.416   3.909   3.450  0.0867 -2.1916  0.1065
 1855TIP3   OH2 5570   0.727   4.189   0.515 -0.1401 -0.1812  0.1478
 1855TIP3    H1 5571   0.735   4.111   0.460  0.6614 -0.4954  0.6962
 1855TIP3    H2 5572   0.759   4.260   0.460 -0.4393 -0.3037 -0.1919
 1856TIP3   OH2 5573   5.570   5.689   0.175  0.4159  0.2191 -0.4182
 1856TIP3    H1 5574   5.561   5.642   0.092 -1.0515 -0.9032  0.3228
 1856TIP3    H2 5575   5.530   5.631   0.240  1.2441  1.2046  1.0337
 1857TIP3   OH2 5576   1.202   5.045   4.981  0.2012 -0.2536 -0.3011
 1857TIP3    H1 5577   1.251   5.007   5.054 -1.5426 -1.7743  0.1472
 1857TIP3    H2 5578   1.147   5.113   5.020 -0.1207 -0.4916 -0.3392
 1858TIP3   OH2 5579   4.457   0.065   1.460 -0.0493 -0.3925 -0.1762
 1858TIP3    H1 5580   4.486   0.078   1.550  0.6363 -0.3652 -0.3976
 1858TIP3    H2 5581   4.538   0.059   1.409 -0.4361  0.0149 -0.8510
 1859TIP3   OH2 5582   2.242   2.381   3.317  0.1546  0.7877  0.2911
 1859TIP3    H1 5583   2.232   2.326   3.395  0.9528 -1.4548 -1.0671
 1859TIP3    H2 5584   2.255   2.318   3.246  0.4657  2.7749 -1.5006
 1860TIP3   OH2 5585   4.498   4.269   1.361  0.0096 -0.4195 -0.4820
 1860TIP3    H1 5586   4.519   4.294   1.271  1.3349 -0.0452 -0.0924
 1860TIP3    H2 5587   4.454   4.345   1.397 -2.6855 -1.3940 -1.4608
 1861TIP3   OH2 5588   3.748   2.289   2.477 -0.1915 -0.5489  0.3347
 1861TIP3    H1 5589   3.689   2.326   2.412  1.1299  0.6778 -0.2221
 1861TIP3    H2 5590   3.784   2.365   2.523  0.2725 -1.3068  1.2748
 1862TIP3   OH2 5591   3.529   2.608   4.134 -0.2211 -0.1947 -0.1334
 1862TIP3    H1 5592   3.463   2.603   4.203 -0.8704  0.3340 -0.7023
 1862TIP3    H2 5593   3.612   2.598   4.180 -0.7060 -1.1172  0.5628
 1863TIP3   OH2 5594   4.415   5.225   4.113 -0.2126  0.4480 -0.2480
 1863TIP3    H1 5595   4.496   5.274   4.121  0.0809 -0.1981  1.0622
 1863TIP3    H2 5596   4.424   5.153   4.176 -1.3138 -0.3083 -0.9119
 1864TIP3   OH2 5597   1.920   5.338   3.524 -0.3277 -0.0554  0.2629
 1864TIP3    H1 5598   1.988   5.377   3.580  0.2868 -1.3504  0.4439
 1864TIP3    H2 5599   1.850   5.315   3.586  0.0822 -0.8919  0.4379
 1865TIP3   OH2 5600   2.138   0.408   1.031 -0.2202  0.3080 -0.1414
 1865TIP3    H1 5601   2.113   0.405   1.123 -0.3994  0.4245 -0.1864
 1865TIP3    H2 5602   2.084   0.341   0.989 -0.2949  0.4041 -0.1994
 1866TIP3   OH2 5603   4.663   2.800   0.651 -0.2614  0.0182  0.1338
 1866TIP3    H1 5604   4.644   2.710   0.625  1.8230 -0.2476 -0.6794
 1866TIP3    H2 5605   4.675   2.796   0.746  2.0755 -1.0681 -0.1535
 1867TIP3   OH2 5606   3.556   3.783   0.763 -0.1173  0.0941 -0.4824
 1867TIP3    H1 5607   3.599   3.845   0.704  1.8512 -1.8570 -1.2548
 1867TIP3    H2 5608   3.612   3.781   0.841  0.9870 -1.9853 -1.2295
 1868TIP3   OH2 5609   4.506   2.225   4.694 -0.1146  0.1990  0.0953
 1868TIP3    H1 5610   4.424   2.176   4.689  0.7010 -1.2024  0.0041
 1868TIP3    H2 5611   4.529   2.224   4.787  1.4063 -2.2671 -0.2052
 1869TIP3   OH2 5612   0.691   3.197   2.477 -0.0565  0.1021 -0.0095
 1869TIP3    H1 5613   0.772   3.147   2.493 -0.2082 -0.2385 -0.2791
 1869TIP3    H2 5614   0.717   3.288   2.486  0.0048 -0.0364  1.5305
 1870TIP3   OH2 5615   1.228   4.723   3.544 -0.0090 -0.2984 -0.0361
 1870TIP3    H1 5616   1.174   4.652   3.579  0.7695 -0.6346  0.5150
 1870TIP3    H2 5617   1.292   4.740   3.613  0.7056 -0.0388 -0.7547
 1871TIP3   OH2 5618   1.095   0.601   2.734  0.6436 -0.2253 -0.2464
 1871TIP3    H1 5619   1.010   0.645   2.736  1.4422  1.4343 -0.7635
 1871TIP3    H2 5620   1.101   0.564   2.646  1.6224  2.2170 -1.2903
 1872TIP3   OH2 5621   3.808   2.109   4.266 -1.2227  0.7013  0.2737
 1872TIP3    H1 5622   3.741   2.119   4.199 -0.2692  2.2881 -0.5096
 1872TIP3    H2 5623   3.881   2.163   4.235 -0.4483  0.8346  2.2028
 1873TIP3   OH2 5624   5.659   1.994   2.075  0.1727  0.7262  0.6702
 1873TIP3    H1 5625   5.577   1.963   2.036 -0.7725  2.5755  1.1160
 1873TIP3    H2 5626   5.633   2.067   2.131  2.0509  0.8731  1.4084
 1874TIP3   OH2 5627   6.362   3.527   3.537 -0.4983  0.1113 -0.2565
 1874TIP3    H1 5628   6.273   3.546   3.566 -0.4696  2.0531 -1.2797
 1874TIP3    H2 5629   6.360   3.539   3.442  0.9540  0.6636 -0.2489
 1875TIP3   OH2 5630   2.395   5.703   0.103 -0.2870 -0.8758  0.0590
 1875TIP3    H1 5631   2.317   5.758   0.107  0.5438  0.4156 -0.7250
 1875TIP3    H2 5632   2.453   5.739   0.169  1.4876  1.2519 -2.4736
 1876TIP3   OH2 5633   3.712   4.716   1.855  0.1340 -0.6553 -0.1495
 1876TIP3    H1 5634   3.728   4.664   1.934  1.4464  0.0742  0.0951
 1876TIP3    H2 5635   3.627   4.685   1.823 -0.8303 -0.4192  1.9790
 1877TIP3   OH2 5636   2.945   1.607   4.328  0.6615  0.4867 -0.5455
 1877TIP3    H1 5637   2.986   1.694   4.325 -0.1628  0.8929 -0.5498
 1877TIP3    H2 5638   2.867   1.616   4.274  0.8325 -0.4121 -0.9524
 1878TIP3   OH2 5639   2.281   2.427   2.231  0.3222  0.0081  0.0717
 1878TIP3    H1 5640   2.251   2.444   2.142 -1.3947 -1.1701  0.3848
 1878TIP3    H2 5641   2.277   2.332   2.241  0.9367  0.0851  1.2549
 1879TIP3   OH2 5642   0.692   1.083   4.281 -0.2900 -0.6374 -0.1617
 1879TIP3    H1 5643   0.776   1.071   4.237 -0.2473  0.2836 -0.3417
 1879TIP3    H2 5644   0.628   1.044   4.221  0.1055 -2.3902  0.4974
 1880TIP3   OH2 5645   4.812   1.600   0.518 -0.2819 -0.7793 -0.1497
 1880TIP3    H1 5646   4.738   1.656   0.541 -1.1347 -1.6506 -0.6716
 1880TIP3    H2 5647   4.777   1.541   0.451  1.0458 -0.8563 -0.8094
 1881TIP3   OH2 5648   3.817   3.134   4.949  0.4588  0.1601  0.1254
 1881TIP3    H1 5649   3.799   3.098   5.036 -0.5641  0.7568  0.1679
 1881TIP3    H2 5650   3.826   3.056   4.893 -1.1184 -0.2093  0.3339
 1882TIP3   OH2 5651   3.324   2.270   1.271  0.1243 -0.5238  0.3944
 1882TIP3    H1 5652   3.352   2.228   1.353  0.1593 -0.2263  0.5386
 1882TIP3    H2 5653   3.360   2.359   1.277  1.1751 -0.8751 -0.5018
 1883TIP3   OH2 5654   2.412   0.178   2.606 -0.0573 -0.0027 -0.0030
 1883TIP3    H1 5655   2.401   0.091   2.643  0.2018 -0.1319 -0.2339
 1883TIP3    H2 5656   2.492   0.173   2.554 -0.1831  0.2983 -0.2310
 1884TIP3   OH2 5657   3.340   5.497   4.035  0.2919 -0.5952  0.3470
 1884TIP3    H1 5658   3.345   5.477   3.941 -0.4649 -0.3133  0.2392
 1884TIP3    H2 5659   3.266   5.447   4.067 -0.0741  0.0802  0.5825
 1885TIP3   OH2 5660   3.056   3.541   4.319 -0.2128  0.3745 -0.2826
 1885TIP3    H1 5661   3.024   3.510   4.234  1.5143 -0.5755 -0.6267
 1885TIP3    H2 5662   2.984   3.523   4.380 -0.3924 -1.6509 -1.0186
 1886TIP3   OH2 5663   4.671   0.321   4.778  0.2971  0.8296 -0.2075
 1886TIP3    H1 5664   4.612   0.318   4.703  0.0239  0.3441  0.0270
 1886TIP3    H2 5665   4.696   0.230   4.793  2.1495  1.1372 -1.1144
 1887TIP3   OH2 5666   4.551   1.260   4.480 -0.2016 -0.6899  0.0943
 1887TIP3    H1 5667   4.492   1.332   4.502 -0.3180 -0.6153 -0.4462
 1887TIP3    H2 5668   4.617   1.300   4.423 -0.6583 -1.1449 -0.7778
 1888TIP3   OH2 5669   4.466   5.056   1.346  0.3332  0.4530 -0.0598
 1888TIP3    H1 5670   4.387   5.109   1.350 -0.4025 -0.5950 -0.1577
 1888TIP3    H2 5671   4.470   5.026   1.255 -0.4581 -1.3552  0.4503
 1889TIP3   OH2 5672   1.004   4.094   1.110 -0.1633  0.7022  0.0398
 1889TIP3    H1 5673   1.048   4.068   1.029 -1.3874 -0.3872 -0.3011
 1889TIP3    H2 5674   1.014   4.018   1.168 -2.8014 -0.2211 -0.5657
 1890TIP3   OH2 5675   0.850   3.115   1.086  0.8905  0.1001  0.1421
 1890TIP3    H1 5676   0.828   3.026   1.112  1.6517  0.1456  0.9830
 1890TIP3    H2 5677   0.917   3.104   1.018  0.5170  0.0274 -0.2197
 1891TIP3   OH2 5678   1.197   3.950   1.930 -0.1308 -0.1518  0.3896
 1891TIP3    H1 5679   1.239   3.963   2.015  0.1112 -1.4623  0.4814
 1891TIP3    H2 5680   1.122   4.010   1.932 -0.0533 -0.0708  1.4743
 1892TIP3   OH2 5681   2.988   2.897   3.644  0.2532  0.0951  0.1930
 1892TIP3    H1 5682   3.018   2.958   3.576 -0.3851 -0.5026 -0.6562
 1892TIP3    H2 5683   3.061   2.892   3.706  0.9601  0.4732 -0.5822
 1893TIP3   OH2 5684   2.266   5.631   3.028  0.1353  0.3427 -0.3915
 1893TIP3    H1 5685   2.263   5.564   3.097  0.8765 -0.0664 -0.7465
 1893TIP3    H2 5686   2.182   5.622   2.983  0.2709 -0.4319 -0.5043
 1894TIP3   OH2 5687   2.133   2.671   3.954  0.0656  0.2196  0.2222
 1894TIP3    H1 5688   2.220   2.707   3.936  0.4984  0.0815  1.8574
 1894TIP3    H2 5689   2.072   2.737   3.922  0.8354  1.7726  1.7812
 1895TIP3   OH2 5690   1.366   0.752   3.706  0.3387  0.0617  0.5699
 1895TIP3    H1 5691   1.400   0.679   3.758 -0.0335  1.5676  3.1074
 1895TIP3    H2 5692   1.314   0.803   3.768 -0.0011  2.1187 -1.2857
 1896TIP3   OH2 5693   6.133   3.990   0.730  0.0051 -0.1392 -0.0989
 1896TIP3    H1 5694   6.073   4.015   0.800  0.5351 -0.8922  0.6530
 1896TIP3    H2 5695   6.180   3.914   0.765  2.0085  0.9243 -0.3093
 1897TIP3   OH2 5696   0.899   1.593   3.999 -0.0256 -0.2348 -0.2690
 1897TIP3    H1 5697   0.850   1.561   4.075 -3.5183  0.9560 -1.8136
 1897TIP3    H2 5698   0.926   1.681   4.024 -0.3514 -0.1823 -0.0941
 1898TIP3   OH2 5699   2.348   1.584   2.916 -0.0345 -0.3418 -0.9257
 1898TIP3    H1 5700   2.293   1.631   2.853 -2.1603 -0.9012  0.4038
 1898TIP3    H2 5701   2.358   1.646   2.989  1.6224 -0.0437 -1.3735
 1899TIP3   OH2 5702   3.637   1.884   0.333  0.2826 -0.7477 -0.1031
 1899TIP3    H1 5703   3.629   1.792   0.306 -0.0451 -0.2689 -1.7348
 1899TIP3    H2 5704   3.547   1.917   0.331  0.3721 -0.4317  0.6834
 1900TIP3   OH2 5705   4.886   5.416   5.107  0.1317 -0.4182  0.2821
 1900TIP3    H1 5706   4.817   5.477   5.081 -0.4649 -0.3964  1.8116
 1900TIP3    H2 5707   4.967   5.465   5.093 -0.1792 -0.1988 -0.8808
 1901TIP3   OH2 5708   2.161   5.474   3.255  0.1351 -0.2359  0.3958
 1901TIP3    H1 5709   2.078   5.427   3.241 -0.0608 -0.4659  2.1844
 1901TIP3    H2 5710   2.139   5.544   3.316  0.9465  0.7018 -0.3641
 1902TIP3   OH2 5711   3.038   3.146   4.961  0.1179  0.0159 -0.0048
 1902TIP3    H1 5712   3.099   3.219   4.974 -0.6516  0.8416 -0.8490
 1902TIP3    H2 5713   3.086   3.083   4.907  0.3161  0.5589 -0.4739
 1903TIP3   OH2 5714   4.544   2.425   0.088  0.5872  0.1450  0.3668
 1903TIP3    H1 5715   4.475   2.481   0.052  1.2175 -0.2207 -1.5198
 1903TIP3    H2 5716   4.603   2.485   0.133  1.3818  1.0765 -1.8340
 1904TIP3   OH2 5717   3.810   5.538   3.873  0.0097 -0.2131  0.0414
 1904TIP3    H1 5718   3.773   5.614   3.918 -1.9400 -0.0647 -1.6551
 1904TIP3    H2 5719   3.831   5.570   3.786  0.8542 -1.2229 -0.1460
 1905TIP3   OH2 5720   1.553   1.411   4.329 -0.1109 -1.2171  0.6641
 1905TIP3    H1 5721   1.464   1.428   4.298  0.0291 -0.0059  0.8583
 1905TIP3    H2 5722   1.595   1.365   4.256 -1.0779 -2.4527  0.8450
 1906TIP3   OH2 5723   4.170   5.890   2.036 -0.5848 -0.0711  0.5741
 1906TIP3    H1 5724   4.108   5.959   2.012 -0.4886  0.4387  1.7420
 1906TIP3    H2 5725   4.254   5.921   2.002 -0.8050 -0.3648 -0.2682
 1907TIP3   OH2 5726   4.465   2.709   2.029 -0.1830  0.7522 -0.1347
 1907TIP3    H1 5727   4.482   2.626   2.074 -0.6519  0.5848 -0.2660
 1907TIP3    H2 5728   4.503   2.698   1.942 -1.9369 -0.0602 -0.8468
 1908TIP3   OH2 5729   6.044   3.561   0.640 -0.1120  0.5812  0.3584
 1908TIP3    H1 5730   5.956   3.526   0.626 -0.0315  0.1273  0.9905
 1908TIP3    H2 5731   6.053   3.630   0.573 -0.1605 -0.7806 -1.1260
 1909TIP3   OH2 5732   0.368   0.566   0.677  0.2619 -0.3552  0.7558
 1909TIP3    H1 5733   0.359   0.662   0.677 -1.4116 -0.4605 -0.9183
 1909TIP3    H2 5734   0.457   0.551   0.645 -0.0569  0.6707 -0.7556
 1910TIP3   OH2 5735   1.798   3.063   1.357 -0.2541  0.6357  0.2070
 1910TIP3    H1 5736   1.840   2.990   1.311 -0.6233 -0.6250  1.7829
 1910TIP3    H2 5737   1.719   3.024   1.396 -1.1801  2.2092 -0.0278
 1911TIP3   OH2 5738   5.244   0.305   4.950  0.1654 -0.3123  1.1079
 1911TIP3    H1 5739   5.198   0.242   5.005 -0.4854 -1.2904 -0.4772
 1911TIP3    H2 5740   5.183   0.322   4.877  0.0327  2.6499  1.7582
 1912TIP3   OH2 5741   3.377   3.448   1.662  0.2186 -0.3969 -0.1432
 1912TIP3    H1 5742   3.366   3.537   1.695 -1.3936 -0.9404  0.8552
 1912TIP3    H2 5743   3.436   3.406   1.725  0.3721 -0.2637 -0.1971
 1913TIP3   OH2 5744   3.314   5.940   2.891  0.1555 -0.1066  0.1516
 1913TIP3    H1 5745   3.227   5.968   2.919 -0.6022 -0.5405 -1.6629
 1913TIP3    H2 5746   3.368   5.950   2.970 -1.8156 -1.1667  1.7453
 1914TIP3   OH2 5747   3.201   1.925   0.730  0.4180  0.1677 -0.5081
 1914TIP3    H1 5748   3.146   1.995   0.767  2.1266  0.4710  1.7186
 1914TIP3    H2 5749   3.157   1.844   0.756 -0.3040  0.4003 -0.9816
 1915TIP3   OH2 5750   4.332   0.455   2.342 -0.3440 -0.4474 -0.1799
 1915TIP3    H1 5751   4.362   0.495   2.260  0.8752 -0.3535  0.2961
 1915TIP3    H2 5752   4.344   0.361   2.330 -0.0162 -0.4214 -0.0441
 1916TIP3   OH2 5753   5.248   0.733   0.447  0.2096 -0.6564  0.2210
 1916TIP3    H1 5754   5.240   0.761   0.538  1.1622  0.7916 -0.0968
 1916TIP3    H2 5755   5.174   0.675   0.432 -0.1634 -0.6182  1.8133
 1917TIP3   OH2 5756   5.442   5.636   2.492  0.0955  0.5434 -0.7641
 1917TIP3    H1 5757   5.386   5.564   2.520 -1.1449  0.9497 -2.0236
 1917TIP3    H2 5758   5.465   5.682   2.572 -2.4104  1.0435 -0.2315
 1918TIP3   OH2 5759   6.183   1.420   3.907  0.1364  0.3442  0.1973
 1918TIP3    H1 5760   6.135   1.486   3.857  1.5252  1.0442 -0.2608
 1918TIP3    H2 5761   6.126   1.343   3.907 -1.3682  1.4123  0.4493
 1919TIP3   OH2 5762   1.218   2.521   1.722 -0.6123  0.0675 -0.4154
 1919TIP3    H1 5763   1.280   2.466   1.675  0.6167 -0.2678  1.4652
 1919TIP3    H2 5764   1.268   2.598   1.747 -1.0785  0.0571  0.6368
 1920TIP3   OH2 5765   5.429   3.250   2.566  0.0247  0.3633  0.1175
 1920TIP3    H1 5766   5.408   3.279   2.655  1.5002 -0.4960  0.7831
 1920TIP3    H2 5767   5.430   3.331   2.514  2.7935  1.4687  1.6672
 1921TIP3   OH2 5768   0.489   0.387   2.418  0.0377 -0.2281 -0.2049
 1921TIP3    H1 5769   0.509   0.466   2.469 -0.9431  0.8114 -1.3654
 1921TIP3    H2 5770   0.395   0.394   2.400 -0.0792 -1.7178 -0.2641
 1922TIP3   OH2 5771   2.404   1.227   3.661 -0.2141 -0.3495  0.6681
 1922TIP3    H1 5772   2.365   1.252   3.745 -0.3066  0.5696  0.3641
 1922TIP3    H2 5773   2.487   1.185   3.685  0.2978  0.9149  1.1917
 1923TIP3   OH2 5774   1.103   2.078   4.154 -0.1214 -0.0599 -0.3775
 1923TIP3    H1 5775   1.197   2.072   4.171  0.4281  1.2756 -2.4478
 1923TIP3    H2 5776   1.088   2.171   4.138 -1.9432 -0.1632  0.4963
 1924TIP3   OH2 5777   6.156   3.768   3.787  0.5898 -0.3328 -0.2049
 1924TIP3    H1 5778   6.150   3.839   3.852 -0.3325 -1.9179  1.5262
 1924TIP3    H2 5779   6.227   3.795   3.729 -0.5516  2.6358 -0.4258
 1925TIP3   OH2 5780   4.341   5.505   3.425  0.2039 -0.1619 -0.0438
 1925TIP3    H1 5781   4.255   5.527   3.462 -0.3041 -0.0746 -1.2317
 1925TIP3    H2 5782   4.357   5.415   3.454 -0.8078 -0.5733 -0.7020
 1926TIP3   OH2 5783   1.605   0.405   3.508  0.9519  0.0019  0.5275
 1926TIP3    H1 5784   1.617   0.312   3.527  1.8417  0.2781  1.3935
 1926TIP3    H2 5785   1.616   0.412   3.414  0.6471 -0.7987  0.4247
 1927TIP3   OH2 5786   3.612   5.251   2.394  0.0050  0.2255 -0.4630
 1927TIP3    H1 5787   3.653   5.202   2.466 -0.4399 -0.4752 -0.6713
 1927TIP3    H2 5788   3.686   5.294   2.350  0.2558  0.8468  0.5365
 1928TIP3   OH2 5789   0.244   1.713   0.746 -0.8431 -0.2119 -0.1409
 1928TIP3    H1 5790   0.165   1.767   0.752 -0.8797 -0.3546  0.8588
 1928TIP3    H2 5791   0.216   1.636   0.696 -2.2055 -1.6888  2.6546
 1929TIP3   OH2 5792   4.758   0.124   2.773  0.1769 -0.2496  0.9903
 1929TIP3    H1 5793   4.755   0.030   2.754  0.6739 -0.0744 -0.0329
 1929TIP3    H2 5794   4.726   0.165   2.693  1.7571  0.5108  0.7042
 1930TIP3   OH2 5795   6.315   0.401   4.715  0.1662 -0.2490 -0.5819
 1930TIP3    H1 5796   6.333   0.331   4.778 -3.0366 -1.3803 -0.7714
 1930TIP3    H2 5797   6.299   0.478   4.770 -1.0870 -0.8618 -0.0517
 1931TIP3   OH2 5798   2.452   2.068   1.219 -0.1408  0.3182 -0.0686
 1931TIP3    H1 5799   2.427   2.051   1.129  2.6461 -2.2815 -0.5311
 1931TIP3    H2 5800   2.461   1.981   1.259  0.6731  1.3015  2.1001
 1932TIP3   OH2 5801   1.168   3.652   1.890 -0.0652  0.0993  0.2421
 1932TIP3    H1 5802   1.263   3.644   1.897 -0.1322 -0.8786  0.2317
 1932TIP3    H2 5803   1.154   3.721   1.825  0.6248  0.7165  0.7275
 1933TIP3   OH2 5804   3.768   4.385   4.756 -0.0363 -0.1761 -0.4083
 1933TIP3    H1 5805   3.802   4.296   4.751  0.1570 -0.2216  1.2512
 1933TIP3    H2 5806   3.770   4.416   4.665  2.9726 -0.7368 -0.6569
 1934TIP3   OH2 5807   3.485   5.243   0.436  0.1256  0.2493 -0.0333
 1934TIP3    H1 5808   3.460   5.273   0.349  0.3346  0.0927 -0.1473
 1934TIP3    H2 5809   3.525   5.157   0.422 -1.5068 -0.6370  0.4006
 1935TIP3   OH2 5810   2.022   0.199   0.866 -0.1622 -0.3748  0.1911
 1935TIP3    H1 5811   2.049   0.224   0.778  1.2579  1.0521  0.9779
 1935TIP3    H2 5812   1.927   0.208   0.866 -0.4261 -2.3669 -1.7408
 1936TIP3   OH2 5813   5.721   0.138   2.506  0.2167  0.0554  0.1627
 1936TIP3    H1 5814   5.808   0.148   2.545  0.4914 -3.1289  0.6222
 1936TIP3    H2 5815   5.738   0.106   2.417 -0.5010  0.3600 -0.0941
 1937TIP3   OH2 5816   5.105   2.984   0.311 -0.6395  0.2226  0.2475
 1937TIP3    H1 5817   5.078   2.948   0.227 -1.6511  1.1593  0.1399
 1937TIP3    H2 5818   5.025   2.983   0.364 -1.3185  4.0131 -0.4025
 1938TIP3   OH2 5819   5.751   2.574   2.539  0.0648  0.1570 -0.1548
 1938TIP3    H1 5820   5.775   2.666   2.553 -0.3425  0.0319  1.5783
 1938TIP3    H2 5821   5.708   2.574   2.454  1.7728  1.2200 -1.0931
 1939TIP3   OH2 5822   1.172   5.335   3.845  0.1073  0.0547 -0.0250
 1939TIP3    H1 5823   1.216   5.318   3.928 -1.6947  2.1740  1.4941
 1939TIP3    H2 5824   1.241   5.364   3.786  1.2417 -0.0809  1.1837
 1940TIP3   OH2 5825   3.469   3.050   3.226  0.1967  0.0595  0.1051
 1940TIP3    H1 5826   3.404   2.987   3.195 -2.3354  1.4538  2.1508
 1940TIP3    H2 5827   3.453   3.128   3.173  0.4150  0.3018  0.3904
 1941TIP3   OH2 5828   3.821   5.050   2.360 -0.1000 -0.1589 -0.0646
 1941TIP3    H1 5829   3.746   5.014   2.408 -0.8585  0.6320 -0.6277
 1941TIP3    H2 5830   3.784   5.081   2.277  0.5328  1.7060  0.2878
 1942TIP3   OH2 5831   3.456   4.359   3.832 -0.6085  0.5461 -0.3816
 1942TIP3    H1 5832   3.454   4.266   3.809  2.3356  0.5863 -1.2979
 1942TIP3    H2 5833   3.393   4.400   3.772 -0.6795 -0.6494 -1.1534
 1943TIP3   OH2 5834   1.818   5.599   0.821 -0.3387  0.4695 -0.0250
 1943TIP3    H1 5835   1.806   5.644   0.738  1.1949  0.1005 -0.4873
 1943TIP3    H2 5836   1.871   5.522   0.799 -2.3393 -1.2425  0.8329
 1944TIP3   OH2 5837   1.860   0.064   1.650 -0.4956  0.1100 -0.0830
 1944TIP3    H1 5838   1.952   0.044   1.660 -0.6212 -0.0250  0.8729
 1944TIP3    H2 5839   1.834   0.020   1.569  0.1369 -0.3520 -0.0378
 1945TIP3   OH2 5840   4.605   5.069   1.951 -0.1398  0.6146 -0.4281
 1945TIP3    H1 5841   4.601   4.995   2.012 -0.6562 -0.8685 -2.1786
 1945TIP3    H2 5842   4.563   5.140   1.998 -0.3888 -0.4358  1.0159
 1946TIP3   OH2 5843   6.237   4.297   3.173 -0.0010 -0.5864  0.0941
 1946TIP3    H1 5844   6.169   4.231   3.161 -0.5097 -0.3965  1.7530
 1946TIP3    H2 5845   6.318   4.246   3.180 -0.5836 -1.3091  3.3008
 1947TIP3   OH2 5846   1.122   0.173   3.680  0.5445 -0.2922  0.0008
 1947TIP3    H1 5847   1.129   0.200   3.772 -0.9901  0.9083 -0.1982
 1947TIP3    H2 5848   1.075   0.245   3.637  0.8794 -1.0095 -1.6578
 1948TIP3   OH2 5849   0.715   3.445   3.794  0.5527  1.0978 -0.3305
 1948TIP3    H1 5850   0.637   3.397   3.768  1.4740 -0.9815  0.5141
 1948TIP3    H2 5851   0.681   3.517   3.848 -0.8287  0.9287 -0.9237
 1949TIP3   OH2 5852   4.304   1.365   4.559  0.1558  0.3489 -0.8309
 1949TIP3    H1 5853   4.245   1.440   4.561 -0.6557 -0.2761  0.7094
 1949TIP3    H2 5854   4.248   1.291   4.534  0.5009 -0.0850 -0.3402
 1950TIP3   OH2 5855   1.071   0.332   0.934  0.4668 -0.1789  0.0754
 1950TIP3    H1 5856   1.140   0.306   0.874 -0.3106 -2.7202  0.1750
 1950TIP3    H2 5857   1.115   0.383   1.002  2.2842 -1.7977  0.1908
 1951TIP3   OH2 5858   3.269   0.560   0.862 -0.0892  0.0119 -0.8306
 1951TIP3    H1 5859   3.239   0.490   0.805 -0.6004  0.3639 -1.0031
 1951TIP3    H2 5860   3.205   0.563   0.934  0.8292 -0.7707  0.0551
 1952TIP3   OH2 5861   5.629   0.673   4.501 -0.2287  0.2946 -0.0100
 1952TIP3    H1 5862   5.639   0.742   4.566  0.5849 -0.6072  0.8560
 1952TIP3    H2 5863   5.536   0.675   4.478 -0.6666  0.2422  1.6286
 1953TIP3   OH2 5864   2.342   2.810   3.372  0.4733  0.0508 -0.3800
 1953TIP3    H1 5865   2.408   2.852   3.316 -0.2487 -0.9560 -2.0795
 1953TIP3    H2 5866   2.340   2.864   3.451  1.9447  1.2207 -1.0810
 1954TIP3   OH2 5867   1.987   1.735   1.051 -0.2262  0.3715  0.1711
 1954TIP3    H1 5868   2.017   1.665   0.993 -2.4710  1.2890 -2.2891
 1954TIP3    H2 5869   1.894   1.718   1.065  0.0009  0.7638  2.8115
 1955TIP3   OH2 5870   3.328   3.704   1.768  0.5834 -0.2546 -0.5664
 1955TIP3    H1 5871   3.347   3.765   1.697  1.7896 -0.4714 -0.4441
 1955TIP3    H2 5872   3.380   3.735   1.842  3.3678 -2.8598 -1.2364
 1956TIP3   OH2 5873   3.938   1.436   3.406  0.0597 -0.4640 -0.1204
 1956TIP3    H1 5874   3.961   1.404   3.319  0.0147 -1.0672  0.0817
 1956TIP3    H2 5875   4.022   1.446   3.451  0.0125 -1.7311  0.2968
 1957TIP3   OH2 5876   2.928   3.097   4.381 -0.0708  0.3385  0.0576
 1957TIP3    H1 5877   2.842   3.122   4.416  0.2941 -0.3101  1.5037
 1957TIP3    H2 5878   2.919   3.109   4.286 -1.9436 -0.2507  0.1044
 1958TIP3   OH2 5879   4.755   5.523   4.499  0.3135  0.2813 -0.3515
 1958TIP3    H1 5880   4.789   5.560   4.418  0.8294 -0.9483 -0.7197
 1958TIP3    H2 5881   4.803   5.569   4.568 -0.7770  1.9848 -0.6697
 1959TIP3   OH2 5882   6.064   0.939   3.938 -0.3748  0.3259 -0.7977
 1959TIP3    H1 5883   6.056   0.927   4.033  1.9686  0.3602 -0.5301
 1959TIP3    H2 5884   6.024   0.860   3.901  0.1074 -0.4805  0.3194
 1960TIP3   OH2 5885   4.704   0.506   1.962 -0.2086  0.4227  0.3840
 1960TIP3    H1 5886   4.717   0.599   1.944 -1.6092  0.4607 -0.5866
 1960TIP3    H2 5887   4.686   0.467   1.876 -0.8866 -0.5137  0.9297
 1961TIP3   OH2 5888   5.581   1.702   4.483  0.2226  0.0012  0.2448
 1961TIP3    H1 5889   5.548   1.747   4.405 -0.0890 -0.2705  0.2139
 1961TIP3    H2 5890   5.640   1.764   4.524  0.7119 -0.0022 -0.4314
 1962TIP3   OH2 5891   6.067   1.362   2.801  0.1585 -0.2708 -0.2328
 1962TIP3    H1 5892   6.115   1.429   2.753 -0.6746  0.6861  0.2273
 1962TIP3    H2 5893   6.045   1.404   2.884  1.7661 -1.9555  1.1237
 1963TIP3   OH2 5894   3.261   2.574   1.304 -0.2512 -0.1029 -0.6576
 1963TIP3    H1 5895   3.187   2.529   1.263 -1.5419  1.8413 -0.5801
 1963TIP3    H2 5896   3.223   2.618   1.381  1.0174  0.8016 -0.5089
 1964TIP3   OH2 5897   1.791   1.366   0.034  0.0084 -0.2014  0.0859
 1964TIP3    H1 5898   1.859   1.378  -0.034  0.8641  0.0797  0.9656
 1964TIP3    H2 5899   1.836   1.320   0.104 -0.9700 -0.7926  0.3304
 1965TIP3   OH2 5900   2.784   0.042   4.250  0.1218  0.3247 -0.0935
 1965TIP3    H1 5901   2.765  -0.001   4.333 -2.3544  0.8160 -0.3494
 1965TIP3    H2 5902   2.809   0.131   4.274  1.2467 -0.0486  0.1916
 1966TIP3   OH2 5903   4.049   5.355   1.186 -0.6184  0.3271  0.4945
 1966TIP3    H1 5904   4.051   5.451   1.196  2.0824  0.2647  1.4365
 1966TIP3    H2 5905   3.956   5.332   1.194 -1.3007  2.8080  0.6873
 1967TIP3   OH2 5906   0.953   0.380   2.170  0.7950 -0.0905  0.3939
 1967TIP3    H1 5907   0.911   0.403   2.087  1.5951 -1.8098 -0.5449
 1967TIP3    H2 5908   0.965   0.464   2.215  0.1495  0.8621 -1.1289
 1968TIP3   OH2 5909   6.104   2.364   0.767  0.2181 -0.0699 -0.4799
 1968TIP3    H1 5910   6.055   2.445   0.779  0.9685  0.1526  1.5116
 1968TIP3    H2 5911   6.037   2.298   0.748 -0.5092  0.8173 -1.0205
 1969TIP3   OH2 5912   3.905   0.623   0.357 -0.0207  0.4698 -0.0797
 1969TIP3    H1 5913   3.883   0.716   0.367  0.6677  0.7060 -0.6966
 1969TIP3    H2 5914   3.894   0.586   0.445 -2.0719  0.7358 -0.1593
 1970TIP3   OH2 5915   2.645   5.375   3.208 -0.5052  0.1446  0.5492
 1970TIP3    H1 5916   2.573   5.327   3.247 -0.6275 -0.2667 -0.1568
 1970TIP3    H2 5917   2.665   5.327   3.128 -1.8110  2.2513 -1.1455
 1971TIP3   OH2 5918   2.236   1.910   1.080  0.1794  0.3621  0.1469
 1971TIP3    H1 5919   2.224   1.945   1.168 -0.2378  0.6124 -0.0072
 1971TIP3    H2 5920   2.173   1.838   1.074 -0.6851  1.1277 -0.3628
 1972TIP3   OH2 5921   2.223   3.164   1.149 -0.1424  0.1106  0.2993
 1972TIP3    H1 5922   2.277   3.115   1.086  2.2571  2.7666  0.0482
 1972TIP3    H2 5923   2.176   3.228   1.095 -0.3445  0.5059  0.9330
 1973TIP3   OH2 5924   1.100   3.853   0.014 -0.0004  0.5718 -0.6451
 1973TIP3    H1 5925   1.093   3.948   0.024 -0.9556  0.3379  1.3517
 1973TIP3    H2 5926   1.010   3.821   0.020  0.4255 -0.5562  0.0919
 1974TIP3   OH2 5927   0.765   0.837   3.917 -0.0437  0.0208  0.4036
 1974TIP3    H1 5928   0.704   0.904   3.949 -0.5583 -1.2058  2.1205
 1974TIP3    H2 5929   0.716   0.755   3.923  0.8146 -0.6404 -0.9934
 1975TIP3   OH2 5930   4.197   2.447   1.202  0.4395  0.2608  0.0733
 1975TIP3    H1 5931   4.265   2.514   1.209  0.8117 -0.1371  0.2853
 1975TIP3    H2 5932   4.229   2.375   1.256  0.7369 -0.6716 -1.3271
 1976TIP3   OH2 5933   1.005   1.558   1.428  0.0025  0.1541  0.8173
 1976TIP3    H1 5934   1.048   1.561   1.513  0.2875  1.4547  0.6435
 1976TIP3    H2 5935   0.912   1.554   1.449  0.1180 -1.2921  1.1808
 1977TIP3   OH2 5936   4.827   0.951   0.200  0.2218  0.1083  0.2242
 1977TIP3    H1 5937   4.828   0.929   0.107  0.5630 -2.9808  0.8595
 1977TIP3    H2 5938   4.739   0.987   0.215  0.3895  1.2835 -1.3622
 1978TIP3   OH2 5939   2.606   0.633   2.467 -0.0336 -0.9885  0.5647
 1978TIP3    H1 5940   2.577   0.569   2.403 -0.1123 -1.6603  1.2631
 1978TIP3    H2 5941   2.542   0.704   2.462 -0.0222 -1.0204 -0.1098
 1979TIP3   OH2 5942   4.450   4.677   0.976  0.6308 -0.6263  0.0505
 1979TIP3    H1 5943   4.445   4.703   1.068 -0.0576  1.1845 -0.4509
 1979TIP3    H2 5944   4.389   4.604   0.968 -1.2070  0.7837  0.5508
 1980TIP3   OH2 5945   0.340   5.435   4.998  0.2126 -0.5046  0.1011
 1980TIP3    H1 5946   0.318   5.389   5.079  0.6251 -1.1008 -0.1190
 1980TIP3    H2 5947   0.435   5.438   4.996  0.1979  0.2914  0.0615
 1981TIP3   OH2 5948   5.026   2.836   3.826 -0.3326  0.5367 -0.3401
 1981TIP3    H1 5949   5.055   2.770   3.889  0.2328  2.2875  1.3415
 1981TIP3    H2 5950   4.946   2.872   3.865 -1.2486  0.1293 -1.7776
 1982TIP3   OH2 5951   5.914   1.223   3.109 -0.5985  0.0436 -0.4805
 1982TIP3    H1 5952   5.875   1.304   3.077 -1.5884 -0.1463  0.1991
 1982TIP3    H2 5953   5.845   1.157   3.100 -0.8470 -0.0819  1.7023
 1983TIP3   OH2 5954   3.252   4.950   4.102  0.1862 -0.3064  0.0400
 1983TIP3    H1 5955   3.337   4.908   4.114  0.1343 -0.3078  0.4057
 1983TIP3    H2 5956   3.231   4.934   4.010  1.0116  0.5077 -0.3054
 1984TIP3   OH2 5957   3.366   2.041   4.021 -0.1563 -0.3977  0.1072
 1984TIP3    H1 5958   3.282   1.995   4.020 -0.5557  0.3018  0.7154
 1984TIP3    H2 5959   3.343   2.134   4.016  0.5877 -0.2054  0.1208
 1985TIP3   OH2 5960   6.287   3.100   2.780  0.4074 -0.2469  0.0899
 1985TIP3    H1 5961   6.252   3.060   2.700 -1.9827  1.1029  0.3627
 1985TIP3    H2 5962   6.285   3.194   2.763  0.3199  0.0354  1.5426
 1986TIP3   OH2 5963   2.409   5.444   4.255  0.7636 -0.2991 -0.3879
 1986TIP3    H1 5964   2.416   5.375   4.188  0.9672 -0.8657  0.2073
 1986TIP3    H2 5965   2.462   5.516   4.221  1.1725 -0.7211 -0.6640
 1987TIP3   OH2 5966   3.719   3.833   1.495  0.2562  0.5321 -0.2528
 1987TIP3    H1 5967   3.631   3.796   1.509 -0.0273  0.5414 -1.8636
 1987TIP3    H2 5968   3.705   3.904   1.433  1.2985  1.1183  0.1588
 1988TIP3   OH2 5969   5.960   3.978   1.008 -0.5362 -0.0470  0.4557
 1988TIP3    H1 5970   5.952   3.984   1.103  0.9837  1.2448  0.5435
 1988TIP3    H2 5971   5.967   4.069   0.979  0.2813 -0.4672 -0.7453
 1989TIP3   OH2 5972   2.411   2.791   0.792 -0.0676 -0.3088 -0.3038
 1989TIP3    H1 5973   2.337   2.793   0.852 -0.3422 -1.0897 -0.6027
 1989TIP3    H2 5974   2.375   2.823   0.709  0.1486  0.1422 -0.2257
 1990TIP3   OH2 5975   4.834   3.893   2.750  0.2973  0.3992  0.2791
 1990TIP3    H1 5976   4.804   3.803   2.732  0.4470 -0.1377  2.4440
 1990TIP3    H2 5977   4.853   3.929   2.664  1.0537 -1.9394 -0.6203
 1991TIP3   OH2 5978   1.068   0.291   4.709 -0.1970  0.1263  0.1834
 1991TIP3    H1 5979   1.022   0.217   4.669  0.0362 -0.1486  0.4196
 1991TIP3    H2 5980   1.013   0.367   4.689 -1.6141 -0.4156  1.8060
 1992TIP3   OH2 5981   1.563   3.890   2.322 -0.2575  0.7196 -0.0948
 1992TIP3    H1 5982   1.540   3.803   2.288  1.2148  0.4913 -0.5431
 1992TIP3    H2 5983   1.611   3.873   2.403  1.6072  1.0008 -1.0861
 1993TIP3   OH2 5984   4.749   5.033   0.521 -0.0737  0.2919 -0.4067
 1993TIP3    H1 5985   4.666   4.986   0.525  0.7086 -1.0850  2.0021
 1993TIP3    H2 5986   4.776   5.027   0.430 -1.9297 -0.4809 -0.9461
 1994TIP3   OH2 5987   4.250   1.852   2.799 -0.1669 -0.1485 -0.2635
 1994TIP3    H1 5988   4.162   1.855   2.836  0.3542 -0.1825  1.0401
 1994TIP3    H2 5989   4.298   1.921   2.845  0.4706 -0.0942 -0.9924
 1995TIP3   OH2 5990   0.079   2.811   0.523 -0.1500  0.8768 -0.0153
 1995TIP3    H1 5991   0.167   2.799   0.487  0.3334  0.9083  1.1134
 1995TIP3    H2 5992   0.056   2.725   0.559 -1.3394  0.3608 -1.8519
 1996TIP3   OH2 5993   3.682   1.060   1.976 -0.0249 -0.5116 -0.2759
 1996TIP3    H1 5994   3.776   1.058   1.960 -0.0665 -0.4506 -0.5399
 1996TIP3    H2 5995   3.670   1.134   2.036  0.2052 -1.1332  0.5445
 1997TIP3   OH2 5996   5.059   3.337   3.185  0.4743  0.1631  0.3141
 1997TIP3    H1 5997   5.000   3.401   3.225 -0.0439  0.1400 -0.4009
 1997TIP3    H2 5998   5.023   3.252   3.210  0.5111  0.1478  0.3158
 1998TIP3   OH2 5999   6.129   2.516   2.690  0.2943 -0.2438  0.0235
 1998TIP3    H1 6000   6.183   2.441   2.715 -0.5159 -0.9989 -0.4201
 1998TIP3    H2 6001   6.096   2.494   2.603  0.5549  0.9272 -0.3858
 1999TIP3   OH2 6002   2.916   5.004   1.075  0.3533  0.5167 -0.1640
 1999TIP3    H1 6003   2.892   4.927   1.126 -1.3613  1.5385  0.6588
 1999TIP3    H2 6004   2.904   4.978   0.984  0.8278 -0.4925  0.0498
 2000TIP3   OH2 6005   3.877   3.074   1.661  0.4196 -0.2590 -0.3925
 2000TIP3    H1 6006   3.792   3.065   1.618  1.2685 -0.9229 -2.0157
 2000TIP3    H2 6007   3.869   3.154   1.713 -1.2356 -0.3875 -0.4006
 2001TIP3   OH2 6008   3.898   0.626   1.208 -0.5641 -0.1868  0.0481
 2001TIP3    H1 6009   3.914   0.577   1.289 -0.4580 -1.4550 -0.7202
 2001TIP3    H2 6010   3.808   0.657   1.216  0.3821  2.4360  2.0265
 2002TIP3   OH2 6011   4.648   4.501   2.751 -0.3274  0.0953  0.2379
 2002TIP3    H1 6012   4.741   4.508   2.772 -0.2440 -0.2187 -0.0396
 2002TIP3    H2 6013   4.645   4.482   2.658 -0.6638 -0.1842  0.3044
 2003TIP3   OH2 6014   2.431   5.235   3.293 -0.4654  0.6138 -0.2886
 2003TIP3    H1 6015   2.374   5.223   3.369 -0.9934  0.4664 -0.6958
 2003TIP3    H2 6016   2.377   5.206   3.219  0.7508 -1.2410 -0.5099
 2004TIP3   OH2 6017   2.518   0.312   1.069  0.2456  0.6689 -0.0087
 2004TIP3    H1 6018   2.452   0.308   1.138  0.5619  0.2206  0.2695
 2004TIP3    H2 6019   2.517   0.224   1.030  1.2447  0.4071  0.5328
 2005TIP3   OH2 6020   0.757   0.012   1.697  0.4257 -0.2216  0.0376
 2005TIP3    H1 6021   0.784   0.097   1.731 -0.3958  0.2782 -0.5360
 2005TIP3    H2 6022   0.837  -0.041   1.699  0.3525 -0.4022  3.1665
 2006TIP3   OH2 6023   2.106   5.055   2.175  0.1482 -0.2895  0.0941
 2006TIP3    H1 6024   2.126   5.022   2.088 -1.4220  0.4285 -0.5801
 2006TIP3    H2 6025   2.185   5.100   2.203 -0.0506  1.4782 -1.9549
 2007TIP3   OH2 6026   5.159   3.033   3.679  0.1040 -0.0149  0.2323
 2007TIP3    H1 6027   5.101   2.964   3.710  0.4759 -0.2905  0.3191
 2007TIP3    H2 6028   5.233   3.032   3.739 -0.1972  0.9055  0.6374
 2008TIP3   OH2 6029   3.084   4.544   4.100  0.0289 -0.4368  0.3686
 2008TIP3    H1 6030   3.136   4.583   4.029 -0.9137 -1.5716 -0.9963
 2008TIP3    H2 6031   3.097   4.604   4.174  1.3531  0.5840 -0.6232
 2009TIP3   OH2 6032   2.380   5.199   1.150 -0.4517 -0.3411  0.1834
 2009TIP3    H1 6033   2.307   5.139   1.159 -0.3519 -0.5555 -0.3627
 2009TIP3    H2 6034   2.343   5.278   1.110 -0.3853 -0.4560 -0.1091
 2010TIP3   OH2 6035   3.219   3.431   3.838  0.3190 -0.0001  0.0337
 2010TIP3    H1 6036   3.209   3.517   3.877  1.4023 -0.5104  1.5211
 2010TIP3    H2 6037   3.164   3.373   3.891 -1.0988 -0.1224 -1.4838
 2011TIP3   OH2 6038   1.978   0.371   0.275  0.9723  0.1216 -0.5621
 2011TIP3    H1 6039   1.981   0.421   0.357 -0.7999  1.0963 -1.0288
 2011TIP3    H2 6040   2.048   0.307   0.283  1.2456  0.6060  1.4484
 2012TIP3   OH2 6041   1.908   0.538   0.520 -0.4160 -0.2924  0.7243
 2012TIP3    H1 6042   1.934   0.591   0.595 -1.6220  1.1954  0.1542
 2012TIP3    H2 6043   1.814   0.554   0.511 -0.2508 -0.1647 -1.2840
 2013TIP3   OH2 6044   2.937   0.833   2.374 -0.2357 -0.3840  0.1362
 2013TIP3    H1 6045   2.911   0.782   2.451 -0.6519 -0.3211  0.0377
 2013TIP3    H2 6046   2.900   0.785   2.300  1.8302 -1.5754 -0.2183
 2014TIP3   OH2 6047   4.325   5.409   3.938  0.2595  0.2443 -0.2222
 2014TIP3    H1 6048   4.353   5.383   4.025 -0.0679  2.1410  0.5059
 2014TIP3    H2 6049   4.236   5.375   3.930  0.4281 -0.2589  0.0183
 2015TIP3   OH2 6050   6.201   3.420   3.851 -0.0761 -0.4063 -0.6203
 2015TIP3    H1 6051   6.225   3.484   3.784  0.2400 -0.9200 -1.0020
 2015TIP3    H2 6052   6.117   3.385   3.821 -1.2986  1.3181  0.6623
 2016TIP3   OH2 6053   0.264   3.096   2.883  0.8044  0.1206  0.6020
 2016TIP3    H1 6054   0.226   3.088   2.795  1.1974 -0.5387  0.4888
 2016TIP3    H2 6055   0.194   3.137   2.935  1.0995  1.9643 -0.3664
 2017TIP3   OH2 6056   3.592   5.423   4.144 -0.2134 -0.2706  0.5815
 2017TIP3    H1 6057   3.510   5.426   4.095 -0.8455  0.4390  1.6262
 2017TIP3    H2 6058   3.565   5.403   4.234  1.0593 -3.4634  0.3573
 2018TIP3   OH2 6059   5.703   0.510   3.464 -0.4009 -0.0362  0.0786
 2018TIP3    H1 6060   5.634   0.468   3.516 -0.6298 -1.9309 -1.6269
 2018TIP3    H2 6061   5.775   0.446   3.463  0.8557  1.3176  0.6508
 2019TIP3   OH2 6062   0.726   2.037   4.247  0.0975 -0.5603  0.0191
 2019TIP3    H1 6063   0.730   2.095   4.323  0.2412 -2.2038  1.3231
 2019TIP3    H2 6064   0.756   2.090   4.174 -1.1152  1.4055  0.8799
 2020TIP3   OH2 6065   2.702   2.319   1.918  0.0653  0.3095 -0.0383
 2020TIP3    H1 6066   2.646   2.389   1.953  0.4470  0.5788  0.0400
 2020TIP3    H2 6067   2.787   2.360   1.906 -0.1029  0.2810 -1.4965
 2021TIP3   OH2 6068   1.584   4.945   1.499  0.2088 -0.1489  0.0226
 2021TIP3    H1 6069   1.525   5.020   1.489 -2.1445 -1.9252 -0.4727
 2021TIP3    H2 6070   1.552   4.901   1.578 -0.0687 -1.8974 -1.0073
 2022TIP3   OH2 6071   3.249   1.747   3.909  0.0356  0.1083 -0.6767
 2022TIP3    H1 6072   3.210   1.740   3.822 -1.2040 -1.3235 -0.0499
 2022TIP3    H2 6073   3.183   1.711   3.968  0.9553  0.8063  0.8437
 2023TIP3   OH2 6074   2.430   2.245   2.464 -0.1529 -0.3664 -0.6393
 2023TIP3    H1 6075   2.380   2.187   2.522  0.4486 -1.2001 -0.9293
 2023TIP3    H2 6076   2.477   2.185   2.406  1.6570  0.3638  0.0145
 2024TIP3   OH2 6077   2.067   5.623   1.009 -0.0657  0.1935 -0.2161
 2024TIP3    H1 6078   2.078   5.673   1.090  1.2088  2.7851 -1.8274
 2024TIP3    H2 6079   1.973   5.622   0.994 -0.1514  2.7229 -0.3519
 2025TIP3   OH2 6080   1.997   2.244   0.521  0.1013 -0.5755  0.0411
 2025TIP3    H1 6081   1.944   2.191   0.461  0.7116 -0.2397 -0.8066
 2025TIP3    H2 6082   2.048   2.180   0.570  2.1035 -0.7843 -2.1511
 2026TIP3   OH2 6083   1.432   2.619   4.988 -0.0569  0.3193  0.5972
 2026TIP3    H1 6084   1.513   2.577   5.017  0.5036  0.6612 -0.4271
 2026TIP3    H2 6085   1.461   2.701   4.948 -0.8338  0.0438 -0.5469
 2027TIP3   OH2 6086   5.847   1.952   2.785 -0.0188 -0.2147  0.0680
 2027TIP3    H1 6087   5.902   2.022   2.821 -1.1155  0.8795 -0.3146
 2027TIP3    H2 6088   5.773   1.947   2.845 -0.8492  0.2242 -0.9042
 2028TIP3   OH2 6089   2.294   0.701   5.124  0.1906  0.1145  0.4069
 2028TIP3    H1 6090   2.357   0.632   5.144  0.9223  0.8717  0.7690
 2028TIP3    H2 6091   2.343   0.766   5.073 -1.0854 -0.7235 -2.0377
 2029TIP3   OH2 6092   5.591   3.313   2.950 -0.1594  0.3994  0.0008
 2029TIP3    H1 6093   5.524   3.246   2.963  0.9034 -0.3859  1.7680
 2029TIP3    H2 6094   5.554   3.393   2.988 -0.5013  0.2271  0.0256
 2030TIP3   OH2 6095   0.622   5.458   5.057  0.2125 -0.8071 -0.3676
 2030TIP3    H1 6096   0.649   5.516   5.129 -0.4887 -0.0115 -0.7364
 2030TIP3    H2 6097   0.665   5.375   5.077  0.4536 -0.4480  0.6954
 2031TIP3   OH2 6098   5.409   4.203   1.179 -0.3300 -0.0456 -0.3764
 2031TIP3    H1 6099   5.346   4.269   1.151 -1.0984 -0.6101 -0.0042
 2031TIP3    H2 6100   5.435   4.159   1.098 -2.6591 -1.7744 -0.2777
 2032TIP3   OH2 6101   4.262   4.218   3.043  0.7055 -0.0775 -0.1765
 2032TIP3    H1 6102   4.312   4.196   2.965  1.3998  1.4336 -0.1970
 2032TIP3    H2 6103   4.327   4.221   3.113  0.0665 -1.5574  0.5189
 2033TIP3   OH2 6104   5.777   1.966   3.266  0.2807  0.2296  0.1256
 2033TIP3    H1 6105   5.757   2.014   3.347  0.1120  0.0807  0.1723
 2033TIP3    H2 6106   5.765   1.874   3.289  1.7455  0.0796  0.3571
 2034TIP3   OH2 6107   4.514   5.352   3.736 -0.3867 -0.1916 -0.2262
 2034TIP3    H1 6108   4.443   5.361   3.800 -0.3700  1.2898 -0.3631
 2034TIP3    H2 6109   4.572   5.426   3.755  1.2514 -1.4870  0.0085
 2035TIP3   OH2 6110   6.245   0.501   3.353 -0.3151  0.3638 -0.2425
 2035TIP3    H1 6111   6.199   0.535   3.276  0.5767 -0.3299 -1.1222
 2035TIP3    H2 6112   6.190   0.429   3.383 -0.8844  0.9090  0.0381
 2036TIP3   OH2 6113   0.265   4.514   2.992  0.3066  0.1728 -0.6165
 2036TIP3    H1 6114   0.255   4.421   3.012 -0.8440  0.1219 -1.3468
 2036TIP3    H2 6115   0.247   4.559   3.074  1.4953 -0.2511 -0.0972
 2037TIP3   OH2 6116   5.825   3.394   3.212  0.1061 -0.2416  0.1202
 2037TIP3    H1 6117   5.830   3.445   3.132  1.2106 -0.0563  0.2908
 2037TIP3    H2 6118   5.860   3.308   3.188 -0.6021 -0.5399  0.1345
 2038TIP3   OH2 6119   3.309   4.311   0.601  0.3216  0.1131  0.7448
 2038TIP3    H1 6120   3.381   4.281   0.546 -0.0535 -0.4044  0.5335
 2038TIP3    H2 6121   3.241   4.245   0.591 -0.1646  0.5627  0.9887
 2039TIP3   OH2 6122   2.151   0.515   4.924 -0.0295  0.0229 -0.7300
 2039TIP3    H1 6123   2.111   0.552   4.845 -2.5735  0.3643  0.6046
 2039TIP3    H2 6124   2.224   0.573   4.944 -1.8376  2.4456 -0.6151
 2040TIP3   OH2 6125  -0.014   4.533   4.706  0.4166 -0.2169 -0.7031
 2040TIP3    H1 6126   0.076   4.513   4.681  0.3980  0.9624 -1.7960
 2040TIP3    H2 6127  -0.014   4.627   4.725  0.1995 -0.7821  2.9284
 2041TIP3   OH2 6128   3.324   2.741   0.842  0.1420  0.1412  0.0470
 2041TIP3    H1 6129   3.396   2.677   0.845 -1.2825 -1.5241  0.1897
 2041TIP3    H2 6130   3.359   2.813   0.790  2.1153 -0.3514  0.5876
 2042TIP3   OH2 6131   2.225   0.230   2.810 -0.0290 -0.5232 -0.2095
 2042TIP3    H1 6132   2.168   0.306   2.796 -0.5120 -0.6692  0.8125
 2042TIP3    H2 6133   2.273   0.220   2.728  0.1700  0.9864 -0.3091
 2043TIP3   OH2 6134   3.425   0.387   2.761  0.3905  0.3300  0.0662
 2043TIP3    H1 6135   3.499   0.372   2.702 -0.3727  1.5473 -1.2823
 2043TIP3    H2 6136   3.410   0.482   2.756 -0.8693  0.1913  0.7924
 2044TIP3   OH2 6137   3.937   0.619   3.551 -0.6620  0.4343 -0.5267
 2044TIP3    H1 6138   3.985   0.668   3.618  0.1306 -1.4748  0.4112
 2044TIP3    H2 6139   3.988   0.632   3.471  1.8760 -1.8600  0.5209
 2045TIP3   OH2 6140   1.931   5.886   3.488  0.8119 -0.0529  0.3591
 2045TIP3    H1 6141   1.939   5.954   3.421 -2.3565 -1.1670 -1.3880
 2045TIP3    H2 6142   1.889   5.931   3.562  1.9261  0.5958  0.6233
 2046TIP3   OH2 6143   4.319   0.311   5.129  0.1603  0.2514  0.3756
 2046TIP3    H1 6144   4.297   0.238   5.187  0.0738  0.4232  0.5571
 2046TIP3    H2 6145   4.293   0.281   5.042  1.7184 -0.6394  0.1673
 2047TIP3   OH2 6146   4.042   1.139   2.486  0.1158  0.8925  0.3469
 2047TIP3    H1 6147   4.081   1.189   2.558  0.2591  1.9180 -0.4230
 2047TIP3    H2 6148   4.102   1.064   2.474  0.1973  0.8215  1.1485
 2048TIP3   OH2 6149   3.710   2.896   0.189  0.0066  0.3584 -0.0056
 2048TIP3    H1 6150   3.751   2.964   0.136 -0.2161  1.5159  1.2467
 2048TIP3    H2 6151   3.777   2.870   0.252 -0.0905 -0.1815 -0.1235
 2049TIP3   OH2 6152   0.509   1.714   1.528  0.1563 -0.0660  0.1714
 2049TIP3    H1 6153   0.476   1.713   1.618  0.6056 -0.2214  0.3381
 2049TIP3    H2 6154   0.580   1.778   1.530 -0.6416  0.8642 -0.3737
 2050TIP3   OH2 6155   5.718   0.069   1.427 -0.3311  0.0235  0.1302
 2050TIP3    H1 6156   5.670   0.045   1.506  1.2733  0.2094  1.2009
 2050TIP3    H2 6157   5.655   0.120   1.375 -2.2001 -2.1613  0.0921
 2051TIP3   OH2 6158   5.622   1.749   1.181 -0.1584 -0.1196  0.4063
 2051TIP3    H1 6159   5.640   1.839   1.154  0.7152 -0.6584 -0.8985
 2051TIP3    H2 6160   5.691   1.697   1.140 -0.7943 -1.4220  0.9235
 2052TIP3   OH2 6161   1.571   1.745   4.449 -0.3430 -1.0464 -0.1198
 2052TIP3    H1 6162   1.528   1.829   4.464 -0.2531 -1.0723  0.2819
 2052TIP3    H2 6163   1.664   1.767   4.439 -0.1343 -1.2261  1.2621
 2053TIP3   OH2 6164   6.117   5.369   2.980  0.1452  0.3455  0.3168
 2053TIP3    H1 6165   6.104   5.342   3.071 -0.3295  0.1563  0.1922
 2053TIP3    H2 6166   6.212   5.372   2.970  0.2043 -0.1017  0.6842
 2054TIP3   OH2 6167   4.423   0.326   0.385  0.0577 -0.2058 -0.1467
 2054TIP3    H1 6168   4.476   0.339   0.307  0.2346 -0.1650 -0.0198
 2054TIP3    H2 6169   4.480   0.277   0.445  1.3176  2.9113  1.4288
 2055TIP3   OH2 6170   4.444   3.135   5.085  0.4048  0.1528 -0.1699
 2055TIP3    H1 6171   4.374   3.200   5.092 -0.3569 -0.5834 -0.7168
 2055TIP3    H2 6172   4.414   3.061   5.139  0.9662 -0.0020 -0.0601
 2056TIP3   OH2 6173   5.711   3.846   3.055  0.2063  0.0091  0.2665
 2056TIP3    H1 6174   5.616   3.846   3.040 -0.0013  0.7699  1.4873
 2056TIP3    H2 6175   5.741   3.928   3.015 -0.1622  1.3978  2.6533
 2057TIP3   OH2 6176   0.086   0.329   2.961 -0.0300  0.0378  0.2188
 2057TIP3    H1 6177   0.126   0.249   2.926  0.3283  0.9788 -1.5891
 2057TIP3    H2 6178  -0.005   0.304   2.978  0.1262 -0.8100 -0.1197
 2058TIP3   OH2 6179   1.307   1.548   1.297 -0.5181  0.1255  0.6362
 2058TIP3    H1 6180   1.347   1.629   1.329  1.0393  0.1576 -1.2008
 2058TIP3    H2 6181   1.213   1.565   1.303 -0.2898  0.9179  2.9816
 2059TIP3   OH2 6182   6.280   5.732   4.192  0.2718 -0.3335 -0.0603
 2059TIP3    H1 6183   6.357   5.721   4.136 -1.0528 -3.8671 -1.4803
 2059TIP3    H2 6184   6.294   5.671   4.264 -0.5046  0.1203  0.4850
 2060TIP3   OH2 6185   6.224   4.627   0.114  0.6065 -0.3932  0.3744
 2060TIP3    H1 6186   6.182   4.594   0.035 -0.3515 -0.9693  1.0960
 2060TIP3    H2 6187   6.269   4.551   0.151  0.5884 -0.2635  0.6663
 2061TIP3   OH2 6188   4.396   0.470   4.857  0.4775 -0.0110 -0.8040
 2061TIP3    H1 6189   4.372   0.378   4.866  0.4241  0.1647  1.3468
 2061TIP3    H2 6190   4.434   0.477   4.769  2.5339 -2.5560 -0.2145
 2062TIP3   OH2 6191   4.564   2.474   2.115 -0.1118  0.1286 -0.2673
 2062TIP3    H1 6192   4.544   2.393   2.162 -1.0218  0.3996 -0.1647
 2062TIP3    H2 6193   4.657   2.469   2.096 -0.3182 -1.3417 -1.0043
 2063TIP3   OH2 6194   2.818   2.630   0.576  0.0719 -0.0098  0.0002
 2063TIP3    H1 6195   2.881   2.562   0.554  2.1875  1.7197  0.4579
 2063TIP3    H2 6196   2.790   2.609   0.665  1.3491  0.1599  0.4554
 2064TIP3   OH2 6197   1.735   2.359   1.399 -0.0648 -0.2259  0.0346
 2064TIP3    H1 6198   1.656   2.331   1.445 -1.2072  0.2877 -1.5205
 2064TIP3    H2 6199   1.802   2.364   1.467 -1.2518 -1.0970  1.3251
 2065TIP3   OH2 6200   3.370   5.684   1.483 -0.5577 -0.2311  0.0487
 2065TIP3    H1 6201   3.453   5.655   1.444 -0.8947 -3.1853  1.2860
 2065TIP3    H2 6202   3.397   5.743   1.554  0.2940  0.9937 -1.2386
 2066TIP3   OH2 6203   5.783   4.708   2.963 -0.0914 -0.0594  0.2364
 2066TIP3    H1 6204   5.761   4.710   2.870 -0.7875  0.7087  0.4080
 2066TIP3    H2 6205   5.879   4.711   2.964 -0.0659  2.9047 -0.4523
 2067TIP3   OH2 6206   0.054   1.331   3.294 -0.1127  0.0969 -0.1163
 2067TIP3    H1 6207  -0.024   1.278   3.305 -2.1272  3.0990  1.7345
 2067TIP3    H2 6208   0.033   1.391   3.223  0.6028  0.7699  0.2174
 2068TIP3   OH2 6209   1.801   3.678   0.749 -0.2739 -0.1686 -0.6792
 2068TIP3    H1 6210   1.860   3.720   0.812  1.1390 -1.2851 -1.2046
 2068TIP3    H2 6211   1.811   3.584   0.764 -0.7549 -0.4246 -1.8252
 2069TIP3   OH2 6212   5.787   1.654   2.825 -0.1813  0.0615  0.3023
 2069TIP3    H1 6213   5.712   1.616   2.781 -0.1221 -0.1550  0.3879
 2069TIP3    H2 6214   5.842   1.689   2.755  1.5864 -3.2129 -0.1220
 2070TIP3   OH2 6215   5.132   2.293   2.281 -0.5045  0.2827 -0.2577
 2070TIP3    H1 6216   5.154   2.290   2.188 -2.1902 -2.0236 -0.6712
 2070TIP3    H2 6217   5.074   2.218   2.294  0.0134  0.2841  2.7563
 2071TIP3   OH2 6218   5.475   0.205   1.659  0.2685  0.2627  0.1348
 2071TIP3    H1 6219   5.523   0.286   1.639  0.8400 -0.4207 -1.4883
 2071TIP3    H2 6220   5.542   0.144   1.688  0.2480 -0.3412 -1.0117
 2072TIP3   OH2 6221   3.855   4.736   0.621 -0.7638  0.4140 -0.1155
 2072TIP3    H1 6222   3.930   4.739   0.561 -1.1950  1.3095 -0.6359
 2072TIP3    H2 6223   3.819   4.648   0.611  1.6432 -0.9313  1.9607
 2073TIP3   OH2 6224   2.101   0.762   0.179  0.0061 -0.2242  0.0787
 2073TIP3    H1 6225   2.125   0.695   0.115 -0.1131  0.2313 -0.4546
 2073TIP3    H2 6226   2.012   0.738   0.206  0.4251 -0.9686  0.8101
 2074TIP3   OH2 6227   3.798   2.501   2.980  0.0648 -0.0751  0.4626
 2074TIP3    H1 6228   3.768   2.585   3.013 -1.3143 -0.9820  1.6374
 2074TIP3    H2 6229   3.875   2.480   3.033  1.1907  0.9830 -0.6847
 2075TIP3   OH2 6230   3.695   1.948   2.431  1.0304  0.2588  0.2142
 2075TIP3    H1 6231   3.742   1.871   2.462  1.7252  1.1288  1.3753
 2075TIP3    H2 6232   3.640   1.974   2.505 -0.2712  0.0756 -0.6502
 2076TIP3   OH2 6233   1.785   5.515   1.252 -0.5234 -0.3103  0.1451
 2076TIP3    H1 6234   1.863   5.466   1.279 -0.2180  0.4869  0.7229
 2076TIP3    H2 6235   1.774   5.493   1.159  0.0407 -0.8891  0.2114
 2077TIP3   OH2 6236   4.740   5.503   3.772  0.1615 -0.1068 -0.2679
 2077TIP3    H1 6237   4.766   5.442   3.703 -0.3096  0.0631 -0.6003
 2077TIP3    H2 6238   4.780   5.467   3.852 -0.6877 -1.2386 -0.3311
 2078TIP3   OH2 6239   5.630   0.155   5.148  0.6637  0.3719  0.1005
 2078TIP3    H1 6240   5.620   0.190   5.059 -0.0301 -0.2059 -0.0565
 2078TIP3    H2 6241   5.676   0.073   5.136 -2.1481 -1.3204 -0.1214
 2079TIP3   OH2 6242   3.923   0.990   2.243 -0.2520 -0.4074  0.0783
 2079TIP3    H1 6243   3.935   0.927   2.315  0.4681 -0.6448 -0.2462
 2079TIP3    H2 6244   3.934   1.076   2.284  0.4588 -0.5521  0.2001
 2080TIP3   OH2 6245   4.193   0.594   2.557 -0.2665  0.4119  0.1295
 2080TIP3    H1 6246   4.229   0.558   2.476 -1.6654  0.8190 -0.7009
 2080TIP3    H2 6247   4.244   0.552   2.627  2.6426  1.8476 -0.9578
 2081TIP3   OH2 6248   4.953   0.567   1.774 -0.1705  0.4282 -0.0456
 2081TIP3    H1 6249   4.965   0.486   1.724 -0.9645 -0.2990  0.9035
 2081TIP3    H2 6250   4.986   0.547   1.861 -0.0281  1.2511  0.1026
 2082TIP3   OH2 6251   5.999   3.798   4.882  0.3257  0.1207  0.1109
 2082TIP3    H1 6252   6.074   3.779   4.938  0.3093  0.9875  0.4412
 2082TIP3    H2 6253   5.981   3.891   4.896 -0.7327 -0.0446 -0.0490
 2083TIP3   OH2 6254   0.076   4.771   4.507 -0.5845 -0.5350 -0.1755
 2083TIP3    H1 6255   0.089   4.685   4.466  0.7782 -0.3912 -0.0741
 2083TIP3    H2 6256   0.143   4.827   4.468  0.0996 -0.1390  1.4922
 2084TIP3   OH2 6257   3.561   2.986   0.827 -0.5101 -0.2314 -0.4949
 2084TIP3    H1 6258   3.574   3.075   0.859 -0.8337 -0.2053 -0.4342
 2084TIP3    H2 6259   3.649   2.948   0.827 -0.4416 -0.0809 -0.0202
 2085TIP3   OH2 6260   4.148   1.470   2.890  0.4711  0.1830 -0.2419
 2085TIP3    H1 6261   4.224   1.437   2.841 -0.5076  0.0873 -1.7596
 2085TIP3    H2 6262   4.108   1.534   2.831 -1.6654 -1.0928 -0.2517
 2086TIP3   OH2 6263   4.129   1.426   1.920  0.3940 -0.3528  0.1596
 2086TIP3    H1 6264   4.147   1.377   2.000 -2.4048  0.5959  1.4954
 2086TIP3    H2 6265   4.191   1.500   1.922 -0.8963  0.7796  2.5894
 2087TIP3   OH2 6266   2.212   3.588   4.031 -0.4626  0.4240 -0.1354
 2087TIP3    H1 6267   2.140   3.627   4.080  1.1778  1.7509  1.3261
 2087TIP3    H2 6268   2.278   3.657   4.026  0.0114 -0.0941 -3.1019
 2088TIP3   OH2 6269   5.656   1.997   3.008 -0.0612 -0.2524 -0.0751
 2088TIP3    H1 6270   5.586   2.049   2.967 -0.9937 -0.2847  1.4133
 2088TIP3    H2 6271   5.678   2.045   3.088  1.4545 -0.3902 -0.3692
 2089TIP3   OH2 6272   1.018   2.520   0.367 -0.4373 -0.9775 -0.6235
 2089TIP3    H1 6273   1.023   2.532   0.272  0.1385 -1.1994 -0.6300
 2089TIP3    H2 6274   1.033   2.426   0.379 -0.8627 -1.0080 -0.3369
 2090TIP3   OH2 6275   0.542   0.688   4.067 -0.0632 -0.1480 -0.1864
 2090TIP3    H1 6276   0.482   0.747   4.112  0.1559  0.1801 -0.3190
 2090TIP3    H2 6277   0.493   0.656   3.991 -0.6248 -1.1256  0.5690
 2091TIP3   OH2 6278   3.916   2.631   3.389 -0.2752  0.1500 -0.1659
 2091TIP3    H1 6279   3.872   2.546   3.384 -0.6353  0.0820  2.6202
 2091TIP3    H2 6280   3.861   2.689   3.337 -1.7491 -0.7093  0.3443
 2092TIP3   OH2 6281   3.533   5.285   4.751  0.1282 -0.1248  0.2456
 2092TIP3    H1 6282   3.522   5.241   4.667 -4.0099 -0.1127  0.5775
 2092TIP3    H2 6283   3.535   5.378   4.730  1.4222 -0.1798  0.0558
 2093TIP3   OH2 6284   3.642   4.793   4.385 -0.5728  0.5020 -0.0381
 2093TIP3    H1 6285   3.661   4.824   4.297 -1.5434  1.9343  0.2283
 2093TIP3    H2 6286   3.546   4.786   4.388 -0.5237 -0.0186  0.7430
 2094TIP3   OH2 6287   0.459   4.532   2.108 -0.2332 -0.5719  0.2891
 2094TIP3    H1 6288   0.402   4.472   2.156  1.1657 -2.7316 -0.6022
 2094TIP3    H2 6289   0.430   4.525   2.017  1.7698 -2.2146 -0.2890
 2095TIP3   OH2 6290   3.301   3.438   3.236 -0.1706 -0.6894 -0.4539
 2095TIP3    H1 6291   3.303   3.429   3.331 -0.8096  0.2092 -0.3414
 2095TIP3    H2 6292   3.269   3.353   3.205 -2.8224 -0.0984  0.3405
 2096TIP3   OH2 6293   1.500   2.615   3.518  0.6449  0.0571 -0.0498
 2096TIP3    H1 6294   1.517   2.576   3.603  2.1421 -1.4132 -0.9753
 2096TIP3    H2 6295   1.485   2.708   3.537 -0.6718 -0.5028  1.9471
 2097TIP3   OH2 6296   4.441   1.091   2.567  0.0056  0.2529 -0.2307
 2097TIP3    H1 6297   4.356   1.127   2.592  0.0119 -0.0307  0.2071
 2097TIP3    H2 6298   4.427   0.996   2.565  0.5833  0.1255  0.9201
 2098TIP3   OH2 6299   0.237   2.987   1.981  0.1673 -0.2149 -0.9288
 2098TIP3    H1 6300   0.330   2.995   1.960  0.2935  1.5549  0.1315
 2098TIP3    H2 6301   0.220   2.893   1.978  1.2915 -0.4374 -3.9518
 2099TIP3   OH2 6302   0.529   3.890   0.417  0.0272 -0.1312  0.2502
 2099TIP3    H1 6303   0.455   3.938   0.455  0.3379 -0.0166  0.7116
 2099TIP3    H2 6304   0.511   3.890   0.323 -0.2540  0.4194  0.2981
 2100TIP3   OH2 6305   4.394   2.972   1.241 -0.4674  0.0775 -0.5086
 2100TIP3    H1 6306   4.401   3.067   1.247 -2.1425  0.2123 -0.3853
 2100TIP3    H2 6307   4.367   2.944   1.328  2.0456 -0.7724  0.0893
 2101TIP3   OH2 6308   4.117   0.640   0.204  0.0123  0.0731 -0.2059
 2101TIP3    H1 6309   4.102   0.568   0.143  1.7896  0.4851 -1.1850
 2101TIP3    H2 6310   4.042   0.637   0.264 -0.7129 -1.6269 -1.1466
 2102TIP3   OH2 6311   0.744   4.054   3.896  0.1287 -0.4007 -0.0021
 2102TIP3    H1 6312   0.829   4.031   3.858  0.8806 -0.5970  1.7489
 2102TIP3    H2 6313   0.690   3.976   3.884  0.4248 -0.5458 -0.4236
 2103TIP3   OH2 6314   5.277   5.755   3.925  0.1139 -0.2428 -0.1248
 2103TIP3    H1 6315   5.249   5.798   3.844  0.3335  0.1858  0.0283
 2103TIP3    H2 6316   5.331   5.681   3.895  2.7028  1.6097 -0.3544
 2104TIP3   OH2 6317   1.764   0.846   0.457  0.6944  0.4874 -0.1506
 2104TIP3    H1 6318   1.859   0.848   0.469  0.6535  2.8217  0.4383
 2104TIP3    H2 6319   1.733   0.780   0.519  1.9648 -0.7916 -0.8344
 2105TIP3   OH2 6320   2.508   4.395   2.140  0.2255  0.1505  0.3801
 2105TIP3    H1 6321   2.530   4.327   2.205  1.6990 -0.1937 -0.4229
 2105TIP3    H2 6322   2.534   4.477   2.183  0.0198  0.0467  0.7081
 2106TIP3   OH2 6323   1.656   1.246   2.040  0.5474  0.1994 -0.1783
 2106TIP3    H1 6324   1.705   1.186   1.983  1.2791  0.4197  0.2067
 2106TIP3    H2 6325   1.714   1.260   2.115 -0.5225 -0.3267  0.7767
 2107TIP3   OH2 6326   4.695   2.573   0.239 -0.2177 -0.2045  0.2194
 2107TIP3    H1 6327   4.727   2.531   0.319 -2.1216 -0.6127  0.8414
 2107TIP3    H2 6328   4.772   2.611   0.198  0.7336  0.5680  2.5868
 2108TIP3   OH2 6329   4.445   1.636   2.363  0.2704  0.1520  0.1577
 2108TIP3    H1 6330   4.383   1.699   2.399  0.4133  0.1844  0.3497
 2108TIP3    H2 6331   4.392   1.560   2.341 -0.0095  0.5757 -0.6789
 2109TIP3   OH2 6332   5.311   4.701   4.838  0.3037 -0.6499 -0.9990
 2109TIP3    H1 6333   5.330   4.645   4.763  1.8959 -0.8373 -0.4933
 2109TIP3    H2 6334   5.392   4.747   4.855 -0.1675 -0.2486  0.3123
 2110TIP3   OH2 6335   2.036   4.800   3.315  0.7721  0.5001  0.3673
 2110TIP3    H1 6336   1.957   4.828   3.269  1.2499 -0.0095 -0.8106
 2110TIP3    H2 6337   2.010   4.720   3.360  0.3471  0.8987  0.8440
 2111TIP3   OH2 6338   1.423   4.788   1.696 -0.5919  0.0015  0.2021
 2111TIP3    H1 6339   1.330   4.769   1.701 -0.5563  0.0207  4.4160
 2111TIP3    H2 6340   1.464   4.704   1.675 -1.4410 -0.4868  0.4787
 2112TIP3   OH2 6341   1.222   0.757   0.900 -0.6379  0.1870  0.1274
 2112TIP3    H1 6342   1.140   0.737   0.856 -0.8127  2.0740 -0.4711
 2112TIP3    H2 6343   1.288   0.753   0.830 -0.0670 -1.8722  0.7003
 2113TIP3   OH2 6344   2.922   1.076   4.866 -0.0755 -0.9044 -0.3319
 2113TIP3    H1 6345   2.878   1.111   4.944  2.1207  0.3019  0.4634
 2113TIP3    H2 6346   2.975   1.003   4.900  2.3355  0.7644 -0.2118
 2114TIP3   OH2 6347   2.771   1.384   3.159 -0.0386  0.3553 -0.2139
 2114TIP3    H1 6348   2.711   1.313   3.135  0.7998 -0.1831 -0.7305
 2114TIP3    H2 6349   2.781   1.375   3.254 -1.0327  0.6645 -0.0619
 2115TIP3   OH2 6350   3.714   0.090   0.414  0.1755  0.6043  0.4229
 2115TIP3    H1 6351   3.710   0.165   0.355 -1.3367  0.2325  0.0231
 2115TIP3    H2 6352   3.637   0.098   0.470  1.6293  1.0302  2.5042
 2116TIP3   OH2 6353   4.043   1.723   1.676 -0.1453  0.5282  0.0326
 2116TIP3    H1 6354   4.015   1.631   1.669 -1.2125  0.1384  5.2577
 2116TIP3    H2 6355   3.967   1.772   1.646 -0.9953 -0.3947  0.5877
 2117TIP3   OH2 6356   4.080   5.592   4.473  0.6301  0.1107 -0.8545
 2117TIP3    H1 6357   4.109   5.636   4.553  1.2378 -1.8367  0.0522
 2117TIP3    H2 6358   4.013   5.650   4.437 -0.9594  0.2700  2.0183
 2118TIP3   OH2 6359   6.207   2.488   3.248  0.3395  0.0638 -0.1248
 2118TIP3    H1 6360   6.184   2.496   3.340 -0.1251  2.9954 -0.3854
 2118TIP3    H2 6361   6.177   2.401   3.222  0.9115 -1.0175  2.5556
 2119TIP3   OH2 6362   1.858   0.516   4.959  0.0543  0.3361  0.6612
 2119TIP3    H1 6363   1.831   0.608   4.968  0.0398  0.4662 -0.5547
 2119TIP3    H2 6364   1.952   0.520   4.941 -0.0364  0.1452  0.1256
 2120TIP3   OH2 6365   2.258   3.151   1.983 -0.6355 -0.3451 -0.4320
 2120TIP3    H1 6366   2.314   3.189   1.915 -0.2436  0.0798  0.1130
 2120TIP3    H2 6367   2.302   3.174   2.065 -2.7329  1.9801  0.1804
 2121TIP3   OH2 6368   1.265   4.197   2.296 -0.1054  0.0823  0.9884
 2121TIP3    H1 6369   1.264   4.120   2.239  0.7545 -0.9699  2.3410
 2121TIP3    H2 6370   1.315   4.263   2.247 -0.6790 -0.2463 -0.0915
 2122TIP3   OH2 6371   1.359   0.021   0.168  0.3278 -0.8034  0.0337
 2122TIP3    H1 6372   1.285  -0.036   0.149 -0.5068 -0.4112  1.8466
 2122TIP3    H2 6373   1.326   0.083   0.234  2.1957 -0.4963  0.7727
 2123TIP3   OH2 6374   2.737   5.022   3.220  0.0206 -0.0283  0.0923
 2123TIP3    H1 6375   2.704   5.084   3.155  0.8026  0.2284 -0.0614
 2123TIP3    H2 6376   2.798   4.967   3.172 -1.2435 -1.4481  0.0364
 2124TIP3   OH2 6377   4.584   0.150   3.017 -0.1117  0.1124 -0.8256
 2124TIP3    H1 6378   4.517   0.082   3.015  1.0272 -1.0413 -0.7858
 2124TIP3    H2 6379   4.657   0.114   2.967  0.9867  0.7818  0.2242
 2125TIP3   OH2 6380   3.777   0.687   2.993  0.3992  0.0288 -0.1062
 2125TIP3    H1 6381   3.788   0.592   2.999 -1.1938 -0.2814 -1.3786
 2125TIP3    H2 6382   3.721   0.710   3.067  1.8989  0.2222  1.0100
 2126TIP3   OH2 6383   2.978   0.646   0.440  0.0152  0.0609 -0.2337
 2126TIP3    H1 6384   2.895   0.617   0.479  0.0193  0.9774  0.4751
 2126TIP3    H2 6385   2.958   0.654   0.346 -0.3408 -0.9400 -0.2569
 2127TIP3   OH2 6386   1.568   1.322   4.720  0.4492 -0.4259 -0.1369
 2127TIP3    H1 6387   1.598   1.410   4.696 -0.6335  0.1401  0.4883
 2127TIP3    H2 6388   1.473   1.329   4.721  0.3508 -1.6464 -0.1874
 2128TIP3   OH2 6389   4.552   1.456   1.119  0.0467  0.2346 -0.1010
 2128TIP3    H1 6390   4.630   1.508   1.139  0.5646 -0.7297  0.4394
 2128TIP3    H2 6391   4.490   1.480   1.188  0.2898  0.1243  0.1583
 2129TIP3   OH2 6392   0.972   1.225   4.393  0.0501  0.5133  0.1832
 2129TIP3    H1 6393   1.048   1.264   4.349  2.5836 -1.5457  2.3406
 2129TIP3    H2 6394   0.916   1.194   4.322  0.9754  2.4985 -1.5132
 2130TIP3   OH2 6395   4.557   0.601   0.744 -0.2101  0.2999  0.2636
 2130TIP3    H1 6396   4.615   0.591   0.819  1.4720  0.2410 -0.9790
 2130TIP3    H2 6397   4.516   0.686   0.756 -0.9371 -0.2552  1.8683
 2131TIP3   OH2 6398   1.558   2.271   4.088  0.1098  0.3593 -0.2780
 2131TIP3    H1 6399   1.582   2.295   3.999 -0.0794  0.3456 -0.3328
 2131TIP3    H2 6400   1.505   2.344   4.120  0.7964  0.7168  0.0910
 2132TIP3   OH2 6401   1.644   5.143   4.418 -0.0915 -0.4193 -0.2197
 2132TIP3    H1 6402   1.717   5.195   4.450  1.0845 -0.9847 -1.8560
 2132TIP3    H2 6403   1.620   5.086   4.491  0.7963  0.0889  0.4842
 2133TIP3   OH2 6404   0.605   4.916   0.125 -0.0717 -0.6628  0.3265
 2133TIP3    H1 6405   0.662   4.981   0.168  0.0159 -2.6672  3.5799
 2133TIP3    H2 6406   0.520   4.928   0.166 -0.4182 -1.6829 -0.0691
 2134TIP3   OH2 6407   3.398   4.906   0.428  0.0713 -0.1465 -0.4443
 2134TIP3    H1 6408   3.367   4.886   0.516 -0.2249  2.6777  0.2004
 2134TIP3    H2 6409   3.491   4.927   0.439  0.3887 -1.1084 -1.0864
 2135TIP3   OH2 6410   5.730   0.062   4.203  0.3588  0.2584 -0.7319
 2135TIP3    H1 6411   5.718   0.117   4.280  1.2396  0.4270 -0.7011
 2135TIP3    H2 6412   5.815   0.020   4.216 -0.8589 -2.1798 -0.1168
 2136TIP3   OH2 6413   0.724   4.474   2.143 -0.1029  0.3423  0.1195
 2136TIP3    H1 6414   0.730   4.410   2.214 -0.7553  0.6482  0.4646
 2136TIP3    H2 6415   0.630   4.493   2.136  0.1832  2.4092  1.0811
 2137TIP3   OH2 6416   3.765   5.830   1.307 -0.1528  0.4632 -0.2494
 2137TIP3    H1 6417   3.726   5.765   1.247  1.3700 -0.9157  0.1850
 2137TIP3    H2 6418   3.692   5.887   1.330 -1.8350 -1.6640  0.0954
 2138TIP3   OH2 6419   5.459   5.733   2.776  0.2966  0.1032 -0.1239
 2138TIP3    H1 6420   5.487   5.800   2.838 -0.8976 -1.6198  2.5125
 2138TIP3    H2 6421   5.393   5.683   2.825  1.3715 -3.1901 -1.7609
 2139TIP3   OH2 6422   4.975   1.621   2.175 -0.4487 -0.1306 -0.6607
 2139TIP3    H1 6423   4.949   1.530   2.165 -0.6961 -0.0399 -0.8432
 2139TIP3    H2 6424   4.893   1.670   2.170 -0.5260 -0.0068  1.0011
 2140TIP3   OH2 6425   6.310   3.747   0.611  0.3695  0.1093 -0.2577
 2140TIP3    H1 6426   6.280   3.707   0.693  0.1909  0.5533 -0.1064
 2140TIP3    H2 6427   6.231   3.755   0.558  0.3940  0.3261 -0.2610
 2141TIP3   OH2 6428   1.075   3.795   3.436 -0.4894  0.1771 -0.4317
 2141TIP3    H1 6429   1.083   3.700   3.450 -0.0442  0.2785  0.0137
 2141TIP3    H2 6430   1.157   3.831   3.470 -0.7188  0.7373 -0.4699
 2142TIP3   OH2 6431   0.879   3.532   3.360 -0.0842  0.0822 -0.1977
 2142TIP3    H1 6432   0.864   3.442   3.386 -1.4007  0.5816  0.8667
 2142TIP3    H2 6433   0.897   3.527   3.266  1.5026 -1.4144  0.1300
 2143TIP3   OH2 6434   1.421   5.723   5.038  0.1589  0.1051  0.5239
 2143TIP3    H1 6435   1.403   5.681   4.954  0.8929  0.8021  0.0032
 2143TIP3    H2 6436   1.337   5.723   5.084 -0.3618  0.1576 -0.4102
 2144TIP3   OH2 6437   2.638   5.848   1.711  0.0973  0.3637  0.1422
 2144TIP3    H1 6438   2.645   5.892   1.627  0.3006 -0.3797 -0.2378
 2144TIP3    H2 6439   2.722   5.865   1.754  0.8235 -1.0100 -0.6851
 2145TIP3   OH2 6440   4.585   4.727   2.910 -0.0385  0.4338  0.3118
 2145TIP3    H1 6441   4.650   4.728   2.980  0.1251  1.2857  0.1590
 2145TIP3    H2 6442   4.616   4.661   2.849 -0.9733 -1.4481  1.7647
 2146TIP3   OH2 6443   4.474   3.233   3.022 -0.3635  0.0191  0.3162
 2146TIP3    H1 6444   4.483   3.144   3.056 -0.3703  0.5277  1.7106
 2146TIP3    H2 6445   4.380   3.250   3.025 -0.2095  0.6878  1.7246
 2147TIP3   OH2 6446   3.715   3.846   0.971  0.0335 -0.1407 -0.4479
 2147TIP3    H1 6447   3.804   3.882   0.965  0.7354 -1.0909  2.5885
 2147TIP3    H2 6448   3.668   3.908   1.027 -0.8729 -0.3047 -1.0126
 2148TIP3   OH2 6449   6.205   4.257   2.762 -0.1464  0.3639  0.0644
 2148TIP3    H1 6450   6.203   4.161   2.756  0.5646  0.3126  0.5993
 2148TIP3    H2 6451   6.117   4.280   2.793 -1.0897  0.0640 -2.1716
 2149TIP3   OH2 6452   5.338   5.585   1.405 -0.0125  0.0890 -0.6814
 2149TIP3    H1 6453   5.328   5.494   1.378 -1.2562  0.3395 -1.1416
 2149TIP3    H2 6454   5.285   5.635   1.343  0.8447  1.1588 -0.5844
 2150TIP3   OH2 6455   4.611   1.816   0.532  0.4044 -0.4890  0.8449
 2150TIP3    H1 6456   4.519   1.801   0.512 -0.1471  0.9858  2.0980
 2150TIP3    H2 6457   4.612   1.843   0.623  1.5583  3.2968 -0.0938
 2151TIP3   OH2 6458   1.391   0.200   0.507 -0.2938  0.2900 -0.3767
 2151TIP3    H1 6459   1.319   0.189   0.445 -1.0340 -1.7784  0.7660
 2151TIP3    H2 6460   1.414   0.111   0.534 -1.7220  1.0752  4.2350
 2152TIP3   OH2 6461   1.145   2.839   1.726 -0.1400  0.6308 -0.3279
 2152TIP3    H1 6462   1.118   2.860   1.637 -1.0150 -0.3186 -0.3183
 2152TIP3    H2 6463   1.064   2.808   1.768  1.0064 -2.9568 -0.4637
 2153TIP3   OH2 6464   1.676   5.275   2.222  0.4380 -0.2206  0.7264
 2153TIP3    H1 6465   1.745   5.214   2.247  2.1616  2.2486  2.5028
 2153TIP3    H2 6466   1.632   5.296   2.305 -1.2133 -0.2345 -0.0956
 2154TIP3   OH2 6467   4.410   1.261   0.244 -0.2960 -0.0606 -0.1936
 2154TIP3    H1 6468   4.333   1.273   0.299 -0.3280  1.8486 -0.5524
 2154TIP3    H2 6469   4.378   1.279   0.155 -0.0655 -2.2399 -0.7661
 2155TIP3   OH2 6470   1.760   0.015   5.125 -0.1961  0.7760  0.3928
 2155TIP3    H1 6471   1.668   0.030   5.104 -0.4080  0.0245  0.7430
 2155TIP3    H2 6472   1.770   0.046   5.215 -0.9278 -2.0959  1.5645
 2156TIP3   OH2 6473   1.975   5.792   2.225  0.0136 -0.6076  0.6293
 2156TIP3    H1 6474   1.947   5.821   2.138  0.0804 -0.7546  0.5587
 2156TIP3    H2 6475   1.900   5.744   2.260 -0.0956 -0.3536  0.7448
 2157TIP3   OH2 6476   0.603   3.878   4.254 -0.1333  0.0260  0.3011
 2157TIP3    H1 6477   0.627   3.785   4.253 -0.7219 -0.1265 -0.2026
 2157TIP3    H2 6478   0.665   3.919   4.194 -1.0591 -0.3580 -0.9558
 2158TIP3   OH2 6479   3.299   3.690   2.162  0.1097 -0.3908 -0.0645
 2158TIP3    H1 6480   3.364   3.721   2.224  0.9044  0.5276 -1.3024
 2158TIP3    H2 6481   3.349   3.642   2.096 -0.3077  0.9367 -1.4227
 2159TIP3   OH2 6482   0.574   0.754   1.608 -0.7053  0.1021  0.8586
 2159TIP3    H1 6483   0.629   0.788   1.679 -0.0376 -0.9150  0.8441
 2159TIP3    H2 6484   0.579   0.822   1.541 -1.4080  1.1159  1.7982
 2160TIP3   OH2 6485   4.240   2.654   4.802  0.5150 -1.0561 -0.0869
 2160TIP3    H1 6486   4.239   2.743   4.839  1.5548 -1.8173  1.9382
 2160TIP3    H2 6487   4.327   2.646   4.763 -0.1010 -0.7318 -1.6202
 2161TIP3   OH2 6488   1.011   1.660   0.388  0.0188 -0.6908  0.6643
 2161TIP3    H1 6489   0.953   1.734   0.374  0.0065 -0.6644  0.8513
 2161TIP3    H2 6490   1.057   1.649   0.305  1.0875  0.4453  1.0769
 2162TIP3   OH2 6491   1.359   4.188   1.198 -1.2440  0.0962  0.7112
 2162TIP3    H1 6492   1.425   4.140   1.248 -2.0520 -1.0362  0.7355
 2162TIP3    H2 6493   1.314   4.121   1.146  0.6060  1.3941 -2.8627
 2163TIP3   OH2 6494   0.607   2.409   1.448  0.0439  0.1746  0.0609
 2163TIP3    H1 6495   0.650   2.334   1.406  2.1370  0.1838  1.9682
 2163TIP3    H2 6496   0.593   2.471   1.377  0.6709 -0.9893 -1.1281
 2164TIP3   OH2 6497   3.055   2.597   1.528 -0.2599  0.1951 -0.3450
 2164TIP3    H1 6498   3.014   2.678   1.557 -0.1263 -0.2669  1.1842
 2164TIP3    H2 6499   2.987   2.531   1.536 -0.7170  0.2961 -2.6499
 2165TIP3   OH2 6500   3.602   4.982   1.286  0.3321 -0.4472  0.1426
 2165TIP3    H1 6501   3.552   4.975   1.205  0.5427 -1.9528  0.1112
 2165TIP3    H2 6502   3.693   4.985   1.259  0.3360  2.2305  0.2044
 2166TIP3   OH2 6503   4.621   4.861   1.171  0.1716 -0.3684 -0.4303
 2166TIP3    H1 6504   4.612   4.796   1.241 -2.3148  0.1650 -0.1642
 2166TIP3    H2 6505   4.711   4.850   1.139  0.5029 -2.4430  1.0384
 2167TIP3   OH2 6506   2.553   5.360   1.352  0.1166  0.5541 -0.1036
 2167TIP3    H1 6507   2.596   5.289   1.304  1.6082 -1.2050  3.5206
 2167TIP3    H2 6508   2.463   5.360   1.318  0.2229 -2.6644 -0.6930
 2168TIP3   OH2 6509   1.584   4.245   3.464 -0.0419  0.2986  0.0387
 2168TIP3    H1 6510   1.561   4.338   3.454  0.6324  0.2976 -1.9865
 2168TIP3    H2 6511   1.677   4.241   3.441 -0.0819 -0.8922  0.0431
 2169TIP3   OH2 6512   5.878   5.335   4.825 -0.2809 -0.3962 -0.4432
 2169TIP3    H1 6513   5.902   5.416   4.871 -0.3833 -0.1003 -0.9002
 2169TIP3    H2 6514   5.923   5.266   4.874  0.0174 -0.0382 -0.1985
 2170TIP3   OH2 6515   3.412   3.348   1.216 -1.0199  0.0411 -0.4276
 2170TIP3    H1 6516   3.468   3.399   1.157 -0.3405 -0.1619  0.0350
 2170TIP3    H2 6517   3.394   3.267   1.169 -0.1414 -0.2958 -0.1990
 2171TIP3   OH2 6518   1.947   0.915   4.506 -0.2739 -0.1469 -0.5906
 2171TIP3    H1 6519   1.987   1.002   4.514 -0.3570 -0.1871  0.4221
 2171TIP3    H2 6520   1.853   0.931   4.515 -0.1908 -0.5066  1.5156
 2172TIP3   OH2 6521   0.476   5.662   1.668 -0.2221  0.0497  0.2562
 2172TIP3    H1 6522   0.409   5.730   1.662 -1.1215 -0.8214  0.1957
 2172TIP3    H2 6523   0.522   5.681   1.750 -0.8504  0.3855  0.5376
 2173TIP3   OH2 6524   4.894   5.418   2.521 -0.2678  0.4156  0.2710
 2173TIP3    H1 6525   4.839   5.413   2.599  0.7523  3.2898  1.2988
 2173TIP3    H2 6526   4.859   5.492   2.471  0.5807  0.1337 -0.7834
 2174TIP3   OH2 6527   5.957   0.561   0.188 -0.3985 -1.0024  0.2137
 2174TIP3    H1 6528   5.975   0.553   0.095 -1.5593 -1.1110 -0.0156
 2174TIP3    H2 6529   5.869   0.526   0.199 -0.8002  0.1943  1.1297
 2175TIP3   OH2 6530   5.898   2.252   3.403 -0.0574 -0.3962  0.2784
 2175TIP3    H1 6531   5.967   2.193   3.372 -0.2978 -0.4243 -0.2027
 2175TIP3    H2 6532   5.867   2.212   3.484 -0.9374 -1.5084 -0.5680
 2176TIP3   OH2 6533   4.421   2.938   0.890  0.0181 -0.0650  0.1233
 2176TIP3    H1 6534   4.372   2.855   0.893  0.7267 -0.5126 -0.2245
 2176TIP3    H2 6535   4.480   2.934   0.965 -0.0526  0.1976  0.1940
 2177TIP3   OH2 6536   3.525   4.231   2.905 -0.0860  0.2523  0.2764
 2177TIP3    H1 6537   3.496   4.233   2.996  1.3424 -1.5227  0.8360
 2177TIP3    H2 6538   3.619   4.249   2.909  0.3566 -1.6119 -0.5978
 2178TIP3   OH2 6539   1.990   5.135   4.271 -0.3440 -0.1095  0.4708
 2178TIP3    H1 6540   1.994   5.183   4.354 -1.8137  0.9986 -0.0558
 2178TIP3    H2 6541   2.045   5.185   4.211 -1.9163  1.0118 -0.0920
 2179TIP3   OH2 6542   6.142   2.071   4.724 -0.0848 -0.2079  0.5324
 2179TIP3    H1 6543   6.235   2.056   4.738 -0.1386 -0.2335  0.8795
 2179TIP3    H2 6544   6.132   2.166   4.725 -0.0987 -0.2107  0.7540
 2180TIP3   OH2 6545   4.125   1.909   0.164 -0.3658 -0.2625  0.4115
 2180TIP3    H1 6546   4.158   1.937   0.249 -2.7316  3.3792  0.3519
 2180TIP3    H2 6547   4.052   1.851   0.185 -1.1119  0.8336  0.9599
 2181TIP3   OH2 6548   0.861   5.560   3.435 -0.5171 -0.6789 -0.1837
 2181TIP3    H1 6549   0.830   5.475   3.467  1.8465 -1.3173  0.5808
 2181TIP3    H2 6550   0.953   5.546   3.416 -0.2820  1.5248 -0.8809
 2182TIP3   OH2 6551   0.103   3.168   3.103 -0.6959 -0.1311 -0.0466
 2182TIP3    H1 6552   0.064   3.125   3.180 -0.5128  0.7427  0.5580
 2182TIP3    H2 6553   0.197   3.171   3.122 -0.6905  0.4018 -0.1368
 2183TIP3   OH2 6554   5.266   1.855   0.087 -0.8174  0.1105  0.1170
 2183TIP3    H1 6555   5.267   1.948   0.067 -0.6653 -0.2054 -1.4517
 2183TIP3    H2 6556   5.336   1.818   0.033  0.9249 -0.5847  2.6300
 2184TIP3   OH2 6557   5.633   2.914   2.037 -1.0004 -0.5043 -0.2336
 2184TIP3    H1 6558   5.642   2.917   2.132 -0.0945  1.3846 -0.3310
 2184TIP3    H2 6559   5.540   2.898   2.022 -1.1002 -1.1574  0.9569
 2185TIP3   OH2 6560   1.173   2.840   0.076  0.4869 -0.4731  0.2312
 2185TIP3    H1 6561   1.204   2.897   0.146  0.7628 -0.7628  0.3423
 2185TIP3    H2 6562   1.184   2.893  -0.003  1.4123 -0.6268  0.2462
 2186TIP3   OH2 6563   0.875   1.969   3.837 -0.1891 -0.8789 -0.2425
 2186TIP3    H1 6564   0.899   1.998   3.749  0.1259 -0.9025 -0.1631
 2186TIP3    H2 6565   0.780   1.983   3.842 -0.0301  0.2096 -0.1728
 2187TIP3   OH2 6566   2.804   0.740   3.126  0.1340 -0.2061  0.3239
 2187TIP3    H1 6567   2.786   0.828   3.094 -0.3342  0.2398  1.7499
 2187TIP3    H2 6568   2.835   0.753   3.215 -0.5126 -1.5285  0.7634
 2188TIP3   OH2 6569   5.712   5.667   0.630  0.2720  0.0538  0.1054
 2188TIP3    H1 6570   5.621   5.655   0.603  1.4844 -1.9451 -4.1036
 2188TIP3    H2 6571   5.735   5.586   0.676  0.0876  0.3067  0.6455
 2189TIP3   OH2 6572   6.056   1.446   4.696  0.3839 -0.0781 -0.1264
 2189TIP3    H1 6573   6.126   1.394   4.655 -1.0938 -1.1008 -1.4913
 2189TIP3    H2 6574   5.986   1.383   4.710 -0.9307  1.2680 -0.4762
 2190TIP3   OH2 6575   5.026   1.788   2.417 -0.5075 -0.2675  0.3025
 2190TIP3    H1 6576   4.997   1.770   2.506 -0.6532  1.3650  0.6228
 2190TIP3    H2 6577   4.995   1.713   2.366  0.8534 -1.9893  1.8400
 2191TIP3   OH2 6578   6.189   0.768   1.383  0.3577  0.3135  0.5611
 2191TIP3    H1 6579   6.232   0.686   1.406  0.7992  0.5567  0.6006
 2191TIP3    H2 6580   6.102   0.741   1.352  0.7476 -0.2244 -0.0827
 2192TIP3   OH2 6581   5.720   1.470   3.050  0.3260  0.2009 -0.3050
 2192TIP3    H1 6582   5.695   1.395   2.995  0.3872  0.6704 -0.9789
 2192TIP3    H2 6583   5.760   1.532   2.990  1.8630  0.0696  0.5123
 2193TIP3   OH2 6584   2.070   0.393   3.938 -0.1435  0.1298 -0.1584
 2193TIP3    H1 6585   2.110   0.372   4.022  0.0039  0.6745 -0.0944
 2193TIP3    H2 6586   1.986   0.433   3.961 -0.6590 -0.8473 -0.2889
 2194TIP3   OH2 6587   4.501   3.393   0.540 -0.0798 -0.4848 -0.2107
 2194TIP3    H1 6588   4.444   3.442   0.600  1.7199 -0.3045  1.4372
 2194TIP3    H2 6589   4.530   3.458   0.476  2.5466  0.8901  2.1414
 2195TIP3   OH2 6590   0.244   5.068   1.739 -0.8183 -0.1219 -0.0338
 2195TIP3    H1 6591   0.240   5.011   1.816  0.2929 -1.2778 -0.7826
 2195TIP3    H2 6592   0.198   5.020   1.670  0.1668 -0.1762 -0.6877
 2196TIP3   OH2 6593   3.771   1.742   2.942 -0.1696  0.2349  0.2465
 2196TIP3    H1 6594   3.749   1.655   2.906  0.8990  0.1685 -0.2952
 2196TIP3    H2 6595   3.687   1.781   2.964 -0.7077 -0.6793 -0.1421
 2197TIP3   OH2 6596   4.611   1.916   4.492  0.2715  0.3959  0.4114
 2197TIP3    H1 6597   4.627   1.985   4.556  0.1922  0.3397  0.4931
 2197TIP3    H2 6598   4.696   1.873   4.481  0.6166  1.2914 -0.5714
 2198TIP3   OH2 6599   2.903   4.801   0.342 -0.4066 -0.2449  0.2072
 2198TIP3    H1 6600   2.962   4.871   0.372 -1.3048 -0.1344  1.8165
 2198TIP3    H2 6601   2.896   4.816   0.248  1.4265  0.2684  0.1016
 2199TIP3   OH2 6602   2.607   3.420   3.422 -0.9357 -0.2709 -0.1253
 2199TIP3    H1 6603   2.632   3.416   3.330 -0.5686 -0.3690 -0.0276
 2199TIP3    H2 6604   2.644   3.503   3.453  3.3106 -2.3021  1.1081
 2200TIP3   OH2 6605   3.299   0.689   4.405  0.2724  0.4636 -0.2260
 2200TIP3    H1 6606   3.373   0.716   4.459  0.3650  0.0396 -0.1345
 2200TIP3    H2 6607   3.339   0.642   4.332  0.2193  1.9010 -1.2198
 2201TIP3   OH2 6608   2.037   1.358   0.463 -0.6505  0.2378 -0.0574
 2201TIP3    H1 6609   2.109   1.320   0.411 -0.8661 -0.2739  0.0101
 2201TIP3    H2 6610   2.026   1.446   0.428  0.9968  0.8662  0.9083
 2202TIP3   OH2 6611   6.214   4.102   3.879  0.4362 -0.5491  0.0930
 2202TIP3    H1 6612   6.307   4.108   3.901  0.3163 -0.2489  0.5294
 2202TIP3    H2 6613   6.210   4.125   3.786  1.0460 -2.6465 -0.5165
 2203TIP3   OH2 6614   2.661   0.650   4.513  0.4796  0.3018  0.0450
 2203TIP3    H1 6615   2.595   0.604   4.462 -0.0237  1.4968 -0.4182
 2203TIP3    H2 6616   2.706   0.581   4.562 -0.4244 -0.6367 -0.4104
 2204TIP3   OH2 6617   0.629   3.670   3.963  0.2300 -0.6183  0.0174
 2204TIP3    H1 6618   0.548   3.699   4.004 -1.7637 -3.1088 -1.8736
 2204TIP3    H2 6619   0.637   3.724   3.885  1.3228  0.6688  0.9572
 2205TIP3   OH2 6620   1.549   1.963   3.808 -0.4382 -0.2618 -0.5647
 2205TIP3    H1 6621   1.591   1.976   3.894 -2.0437  0.8074  0.1108
 2205TIP3    H2 6622   1.622   1.958   3.746  0.8173 -2.1054  0.9436
 2206TIP3   OH2 6623   0.648   2.415   2.620 -0.3576 -0.1437  0.0343
 2206TIP3    H1 6624   0.608   2.329   2.627  0.9815 -0.6560  1.9327
 2206TIP3    H2 6625   0.604   2.467   2.688  0.8848 -0.2154  0.9273
 2207TIP3   OH2 6626   4.621   0.020   0.129  0.4797  0.6002 -0.1091
 2207TIP3    H1 6627   4.567  -0.012   0.202  1.9851  2.7379  2.1229
 2207TIP3    H2 6628   4.565   0.084   0.084 -0.1982 -0.1533 -0.3564
 2208TIP3   OH2 6629   2.169   2.463   2.535 -0.3970  0.1508 -0.0232
 2208TIP3    H1 6630   2.223   2.448   2.458 -0.3148 -0.7891  0.2045
 2208TIP3    H2 6631   2.143   2.555   2.528  1.4373  0.7126  0.0160
 2209TIP3   OH2 6632   4.230   3.262   3.440 -0.2677 -0.3062 -0.9196
 2209TIP3    H1 6633   4.231   3.167   3.427  0.7431 -0.6248  1.0256
 2209TIP3    H2 6634   4.141   3.289   3.416 -0.0203 -1.4260 -3.2777
 2210TIP3   OH2 6635   4.191   3.523   4.213 -0.1067  0.0183 -0.5763
 2210TIP3    H1 6636   4.113   3.571   4.241  0.2358  1.6198 -2.1967
 2210TIP3    H2 6637   4.211   3.558   4.126  1.5812 -1.3931 -0.8058
 2211TIP3   OH2 6638   6.154   3.001   3.020 -0.0910  0.3376 -0.0900
 2211TIP3    H1 6639   6.206   3.039   2.949 -1.1109 -0.0586 -1.0736
 2211TIP3    H2 6640   6.083   2.955   2.976 -0.4761 -0.3291  1.1823
 2212TIP3   OH2 6641   6.033   1.843   1.947  0.0188  0.0055  0.2023
 2212TIP3    H1 6642   5.990   1.835   1.861 -2.4170  2.0783  1.1087
 2212TIP3    H2 6643   5.993   1.775   2.000 -0.5067  0.4889  0.4314
 2213TIP3   OH2 6644   6.030   1.347   2.001  0.0286  0.0026 -0.0683
 2213TIP3    H1 6645   6.042   1.352   1.906 -0.1347  0.5836 -0.0597
 2213TIP3    H2 6646   5.938   1.321   2.012  0.2559 -0.8298 -0.0769
 2214TIP3   OH2 6647   1.383   2.722   2.444 -0.2299 -0.0989 -0.2700
 2214TIP3    H1 6648   1.386   2.744   2.351  0.5882  1.6024  0.1266
 2214TIP3    H2 6649   1.433   2.791   2.487 -1.1646 -0.4767  1.5205
 2215TIP3   OH2 6650   0.297   1.004   3.824  0.5215 -0.1073 -0.2795
 2215TIP3    H1 6651   0.269   1.081   3.873  0.7313 -1.1495  1.5394
 2215TIP3    H2 6652   0.218   0.951   3.815  0.7697 -0.5608  0.1627
 2216TIP3   OH2 6653   1.450   0.307   4.451 -0.2081  0.0745  0.2255
 2216TIP3    H1 6654   1.443   0.212   4.445 -0.5024  0.1401 -0.5172
 2216TIP3    H2 6655   1.474   0.336   4.363 -2.6263  0.8865 -0.2556
 2217TIP3   OH2 6656   0.356   5.783   3.633 -0.2623  0.4589 -0.2648
 2217TIP3    H1 6657   0.316   5.869   3.644 -0.0398  0.3545  1.8810
 2217TIP3    H2 6658   0.448   5.801   3.615  0.4762  0.7973  3.1418
 2218TIP3   OH2 6659   6.016   0.379   1.106  0.0444  0.1255  0.0070
 2218TIP3    H1 6660   6.045   0.449   1.048 -1.7762 -0.0040 -1.1673
 2218TIP3    H2 6661   6.072   0.385   1.183  2.3495  0.5393 -1.6008
 2219TIP3   OH2 6662   5.708   5.121   2.835  0.0795 -0.2847 -0.0423
 2219TIP3    H1 6663   5.687   5.054   2.770 -0.3806 -0.1863  0.0034
 2219TIP3    H2 6664   5.635   5.119   2.897 -1.0448  1.6891 -1.1958
 2220TIP3   OH2 6665   0.639   3.156   3.212  0.3942  0.0042 -0.1864
 2220TIP3    H1 6666   0.546   3.142   3.228  0.5645 -0.7734  0.2237
 2220TIP3    H2 6667   0.643   3.204   3.130 -0.3116 -1.7153 -1.2729
 2221TIP3   OH2 6668   5.296   1.241  -0.012  0.6728 -0.3717 -0.1840
 2221TIP3    H1 6669   5.213   1.269   0.027  1.2046  3.1046 -1.2015
 2221TIP3    H2 6670   5.327   1.172   0.047 -1.7270 -0.0656  1.6330
 2222TIP3   OH2 6671   1.241   3.004   5.053  0.1856 -0.3064  0.2196
 2222TIP3    H1 6672   1.170   3.033   4.996  1.0662 -0.1826 -0.8441
 2222TIP3    H2 6673   1.198   2.981   5.136 -1.2697 -1.4808 -0.8076
 2223TIP3   OH2 6674   0.036   4.718   2.136 -0.1367 -0.0241 -0.1381
 2223TIP3    H1 6675   0.100   4.727   2.206 -0.3559 -2.6679  0.5131
 2223TIP3    H2 6676  -0.026   4.789   2.151  1.6261  1.5258  0.2567
 2224TIP3   OH2 6677   2.499   3.422   1.444 -0.0647 -0.1929 -0.4112
 2224TIP3    H1 6678   2.500   3.356   1.374  1.2445  0.1751 -0.7704
 2224TIP3    H2 6679   2.422   3.476   1.424  0.1764 -0.2102 -1.4795
 2225TIP3   OH2 6680   2.759   3.472   0.103 -0.0419  0.3754  0.7316
 2225TIP3    H1 6681   2.697   3.470   0.176 -2.0140  0.5116 -0.8483
 2225TIP3    H2 6682   2.737   3.395   0.051  0.2654  1.1062 -0.5195
 2226TIP3   OH2 6683   2.256   3.688   3.359  0.1856  0.0128  0.2463
 2226TIP3    H1 6684   2.190   3.722   3.299 -0.4080 -2.1243 -0.4191
 2226TIP3    H2 6685   2.213   3.686   3.445 -0.2676 -0.3954  0.0120
 2227TIP3   OH2 6686   0.265   1.311   2.682  0.5364 -0.4816  0.3012
 2227TIP3    H1 6687   0.289   1.383   2.741  0.5901  0.6952 -1.1006
 2227TIP3    H2 6688   0.210   1.352   2.615  0.5195 -1.7614 -0.5046
 2228TIP3   OH2 6689   4.186   5.455   2.816 -0.3541 -0.2006  0.6962
 2228TIP3    H1 6690   4.266   5.415   2.781 -1.3381 -1.6499 -0.0051
 2228TIP3    H2 6691   4.129   5.465   2.739 -1.3740 -0.5009  1.3875
 2229TIP3   OH2 6692   0.659   5.426   2.033  0.0921  0.3748 -0.3172
 2229TIP3    H1 6693   0.650   5.346   2.084  0.2219 -0.5734 -1.7336
 2229TIP3    H2 6694   0.647   5.496   2.097  0.4505 -0.7534  1.0436
 2230TIP3   OH2 6695   1.773   0.273   1.845 -0.7500  0.3598  0.6750
 2230TIP3    H1 6696   1.784   0.201   1.782  1.2236  1.4866 -0.3661
 2230TIP3    H2 6697   1.693   0.250   1.893 -0.7302 -2.0216 -0.2561
 2231TIP3   OH2 6698   6.041   1.519   3.050 -0.2842  0.2585  0.1641
 2231TIP3    H1 6699   5.989   1.597   3.030 -0.6034 -0.2339 -1.0038
 2231TIP3    H2 6700   6.036   1.511   3.146  0.7398  2.3154  0.4436
 2232TIP3   OH2 6701   1.475   4.044   4.307  0.4651  0.5026 -0.6184
 2232TIP3    H1 6702   1.395   4.066   4.355 -0.5607  1.9417 -2.8284
 2232TIP3    H2 6703   1.538   4.111   4.333  0.8811 -0.4402  0.8800
 2233TIP3   OH2 6704   5.196   5.468   2.025  0.1172 -0.0814  0.3217
 2233TIP3    H1 6705   5.181   5.558   1.996  0.4697  0.4845  1.7929
 2233TIP3    H2 6706   5.129   5.453   2.092 -0.5297 -1.2512 -0.5605
 2234TIP3   OH2 6707   6.054   2.089   2.582  0.2990 -0.3267  0.0039
 2234TIP3    H1 6708   6.022   2.028   2.514 -2.9343 -0.1243  1.1502
 2234TIP3    H2 6709   6.018   2.054   2.663  0.8833  1.5115  1.0915
 2235TIP3   OH2 6710   0.743   2.483   1.661 -0.1516  0.4346 -0.1736
 2235TIP3    H1 6711   0.790   2.400   1.666 -0.5120  0.1911 -0.7119
 2235TIP3    H2 6712   0.687   2.474   1.583  0.8918  1.7461 -1.1264
 2236TIP3   OH2 6713   3.498   4.839   3.763 -0.0489 -0.1026  0.1334
 2236TIP3    H1 6714   3.557   4.914   3.765 -0.1918  0.0494 -0.8152
 2236TIP3    H2 6715   3.412   4.876   3.748  0.0792 -0.5136 -1.9795
 2237TIP3   OH2 6716   5.216   0.155   0.825  1.0710  0.0111 -0.1936
 2237TIP3    H1 6717   5.291   0.213   0.816  0.3398  1.1100  0.6302
 2237TIP3    H2 6718   5.237   0.100   0.900  0.7816  0.7537  0.4384
 2238TIP3   OH2 6719   0.058   3.023   1.751  0.0744  0.1438  0.7154
 2238TIP3    H1 6720   0.116   2.988   1.819  1.0318  0.0604 -0.1302
 2238TIP3    H2 6721  -0.030   2.995   1.778  0.6095 -1.2568  1.0730
 2239TIP3   OH2 6722   5.111   0.509   3.276 -0.2220 -0.4294  0.1614
 2239TIP3    H1 6723   5.146   0.507   3.365  0.7123  0.0257 -0.1758
 2239TIP3    H2 6724   5.087   0.600   3.261  0.5972 -0.2943 -0.3984
 2240TIP3   OH2 6725   5.715   0.199   3.238  0.1466  0.4010  0.3328
 2240TIP3    H1 6726   5.763   0.234   3.163 -0.4077  1.4883  0.4607
 2240TIP3    H2 6727   5.776   0.209   3.312  0.1314  0.7527  0.2991
 2241TIP3   OH2 6728   1.053   0.681   0.708  0.7449  0.3957 -0.0782
 2241TIP3    H1 6729   1.053   0.592   0.674 -0.4227 -0.6787  2.4853
 2241TIP3    H2 6730   0.961   0.700   0.727  1.0684  1.8746  0.1542
 2242TIP3   OH2 6731   2.610   0.997   0.109 -0.0621 -0.0464  0.1006
 2242TIP3    H1 6732   2.603   1.007   0.014  1.8789 -1.7035 -0.2790
 2242TIP3    H2 6733   2.699   1.025   0.130 -0.4374  0.2265  1.4465
 2243TIP3   OH2 6734   5.599   1.570   4.956  0.0425 -0.9426  0.2375
 2243TIP3    H1 6735   5.543   1.647   4.951  0.4946 -0.4763  1.7165
 2243TIP3    H2 6736   5.620   1.549   4.865  0.9646  1.4616 -0.1923
 2244TIP3   OH2 6737   6.243   0.102   0.281  0.0249  0.6943 -0.1900
 2244TIP3    H1 6738   6.164   0.137   0.324 -0.4437  0.4562 -0.8386
 2244TIP3    H2 6739   6.315   0.145   0.326 -0.4453  0.4060  0.8887
 2245TIP3   OH2 6740   4.224   0.742   4.905 -0.1338 -0.3061  0.8899
 2245TIP3    H1 6741   4.316   0.739   4.881  0.1980 -0.0082  2.0688
 2245TIP3    H2 6742   4.204   0.653   4.935 -0.4860 -0.6159 -0.2120
 2246TIP3   OH2 6743   4.601   2.216   2.623 -0.3415  0.4473  0.7189
 2246TIP3    H1 6744   4.635   2.289   2.675  1.1421  1.7049 -1.8416
 2246TIP3    H2 6745   4.506   2.231   2.620  0.0309  3.4115 -1.1389
 2247TIP3   OH2 6746   3.752   1.151   0.440  0.1700  0.2182 -0.3375
 2247TIP3    H1 6747   3.789   1.109   0.518  2.7015  2.4015 -0.2303
 2247TIP3    H2 6748   3.739   1.079   0.378  2.1174 -1.0341  0.6280
 2248TIP3   OH2 6749   3.945   0.064   2.778 -0.2464  0.4889  0.1462
 2248TIP3    H1 6750   3.906   0.151   2.781 -0.0126  0.5623  1.7322
 2248TIP3    H2 6751   3.944   0.034   2.869 -0.3127 -1.1620 -0.3736
 2249TIP3   OH2 6752   4.954   5.408   3.255  0.3271 -0.6610 -0.5355
 2249TIP3    H1 6753   4.996   5.347   3.315  1.1761 -1.6797 -2.0713
 2249TIP3    H2 6754   4.866   5.419   3.289  1.7829  1.8175  3.0209
 2250TIP3   OH2 6755   3.907   1.623   1.159  0.2511  0.0611  0.8585
 2250TIP3    H1 6756   3.840   1.641   1.093  2.0685  1.4581 -0.7095
 2250TIP3    H2 6757   3.903   1.528   1.172 -1.3985  0.0095  0.1262
 2251TIP3   OH2 6758   3.657   5.563   0.866 -0.2536 -0.7050 -0.4995
 2251TIP3    H1 6759   3.710   5.484   0.863  0.6840 -0.1357 -4.3960
 2251TIP3    H2 6760   3.599   5.556   0.790 -0.2839  2.2069 -0.8842
 2252TIP3   OH2 6761   1.061   2.591   0.098 -0.0157  0.3208 -0.5641
 2252TIP3    H1 6762   1.090   2.682   0.089 -0.2811  0.3238 -1.4843
 2252TIP3    H2 6763   0.976   2.589   0.055 -0.6214 -0.0701  0.6436
 2253TIP3   OH2 6764   5.838   4.746   0.828  0.1065 -0.0096 -0.3499
 2253TIP3    H1 6765   5.819   4.781   0.741 -2.4171  1.8813  0.8316
 2253TIP3    H2 6766   5.777   4.674   0.839  1.8176 -1.6090 -0.8308
 2254TIP3   OH2 6767   4.216   4.192   0.599 -0.0387 -0.2142 -0.9413
 2254TIP3    H1 6768   4.260   4.167   0.517 -1.1122  0.0199 -1.6118
 2254TIP3    H2 6769   4.223   4.287   0.602  2.4832 -0.3469  0.7187
 2255TIP3   OH2 6770   4.462   2.467   4.166 -0.2555 -0.3364  0.2446
 2255TIP3    H1 6771   4.457   2.372   4.159  0.1330 -0.4153  0.9601
 2255TIP3    H2 6772   4.409   2.488   4.243  1.4449 -0.1934  1.4335
 2256TIP3   OH2 6773   5.394   2.833   1.171 -0.4348  0.3083  0.1166
 2256TIP3    H1 6774   5.445   2.883   1.108 -0.0394  1.3019  1.1976
 2256TIP3    H2 6775   5.304   2.840   1.139 -0.1298 -0.0779 -0.8896
 2257TIP3   OH2 6776   5.926   3.136   3.187 -0.1722 -0.3830  0.6260
 2257TIP3    H1 6777   5.965   3.088   3.114 -1.9142 -1.2051  0.1824
 2257TIP3    H2 6778   5.883   3.069   3.240  0.7329  0.2467  2.2272
 2258TIP3   OH2 6779   4.700   3.730   2.495  0.3912 -0.1042 -0.7222
 2258TIP3    H1 6780   4.623   3.673   2.498  0.3453 -0.0281  1.1949
 2258TIP3    H2 6781   4.696   3.772   2.410 -1.8691  0.1248 -0.5670
 2259TIP3   OH2 6782   5.322   4.227   2.078  0.2472  0.5608 -0.0122
 2259TIP3    H1 6783   5.350   4.310   2.118 -0.9125  2.5841 -3.0141
 2259TIP3    H2 6784   5.233   4.245   2.046 -0.7669 -2.4885  0.7752
 2260TIP3   OH2 6785   0.086   1.909   4.648  0.5115 -0.2566  0.2824
 2260TIP3    H1 6786   0.113   1.852   4.577 -0.3280 -1.9604  1.2625
 2260TIP3    H2 6787   0.107   1.860   4.728  2.4154  2.0366  1.3070
 2261TIP3   OH2 6788   3.885   4.130   4.782  0.4556  0.5156 -0.3687
 2261TIP3    H1 6789   3.920   4.108   4.868  2.3777  0.0011 -1.2130
 2261TIP3    H2 6790   3.949   4.094   4.720 -0.4877  1.4942 -2.0044
 2262TIP3   OH2 6791   2.478   0.955   2.792  0.2668  0.0948  0.0646
 2262TIP3    H1 6792   2.419   0.952   2.717 -3.4752  2.0452  2.6204
 2262TIP3    H2 6793   2.518   1.042   2.788  1.0946 -0.2875 -0.2992
 2263TIP3   OH2 6794   2.615   4.111   3.857 -0.4265 -0.0643  0.6495
 2263TIP3    H1 6795   2.586   4.183   3.913 -0.4012  0.4011  0.0741
 2263TIP3    H2 6796   2.582   4.032   3.900  0.3480  0.2028  1.8055
 2264TIP3   OH2 6797   1.339   5.359   2.739  0.6991 -0.5279  0.0999
 2264TIP3    H1 6798   1.364   5.313   2.819 -1.9419 -2.4280 -0.0356
 2264TIP3    H2 6799   1.249   5.388   2.755 -1.0312 -3.4345 -3.0047
 2265TIP3   OH2 6800   2.261   0.717   0.423 -0.2612 -0.4050 -0.0430
 2265TIP3    H1 6801   2.183   0.669   0.395 -0.7220  0.4321 -0.2484
 2265TIP3    H2 6802   2.264   0.793   0.364 -0.4741  0.6745  1.3016
 2266TIP3   OH2 6803   3.088   5.585   0.672  0.3040  0.3474  0.2485
 2266TIP3    H1 6804   3.068   5.567   0.764 -0.6284  0.6218  0.1095
 2266TIP3    H2 6805   3.087   5.498   0.630 -0.9584  0.3693  0.1921
 2267TIP3   OH2 6806   1.314   4.374   2.721 -0.2656 -0.3278 -0.2644
 2267TIP3    H1 6807   1.287   4.457   2.761  0.0387  0.8168 -2.3069
 2267TIP3    H2 6808   1.326   4.395   2.628 -1.3971 -2.9585 -1.0891
 2268TIP3   OH2 6809   0.140   0.308   1.039  0.2271  0.0897  0.0850
 2268TIP3    H1 6810   0.211   0.371   1.024 -0.0072  0.4348  0.4149
 2268TIP3    H2 6811   0.185   0.225   1.057  0.5407  0.2070 -0.1637
 2269TIP3   OH2 6812   2.492   2.635   0.531 -0.5705 -0.5132 -0.9749
 2269TIP3    H1 6813   2.587   2.628   0.542 -0.6640 -0.8587 -0.3524
 2269TIP3    H2 6814   2.456   2.602   0.613 -1.2044  0.6012 -0.7786
 2270TIP3   OH2 6815   2.727   0.956   3.005  0.2172 -0.0440 -0.2586
 2270TIP3    H1 6816   2.678   1.010   3.067 -0.3689  1.8258 -2.1960
 2270TIP3    H2 6817   2.791   1.017   2.966  1.1943 -1.3768 -0.8024
 2271TIP3   OH2 6818   2.781   1.080   4.310 -0.0269 -0.0378 -0.0857
 2271TIP3    H1 6819   2.824   1.008   4.357 -1.5949 -0.7115  0.3693
 2271TIP3    H2 6820   2.852   1.122   4.261  0.7401 -2.8888 -1.6725
 2272TIP3   OH2 6821   1.086   0.691   1.647 -0.8195 -0.5561 -0.2842
 2272TIP3    H1 6822   1.090   0.746   1.725  0.2575 -0.8901 -0.0750
 2272TIP3    H2 6823   1.102   0.602   1.680 -1.4738 -0.8526 -0.7477
 2273TIP3   OH2 6824   0.295   5.675   0.477 -0.1532  0.0203 -0.6410
 2273TIP3    H1 6825   0.383   5.676   0.515 -0.2211  0.3571 -0.4879
 2273TIP3    H2 6826   0.287   5.760   0.433  0.2779 -0.7293 -2.2309
 2274TIP3   OH2 6827   3.069   2.224   4.847 -0.0952 -0.1525  0.1701
 2274TIP3    H1 6828   3.012   2.210   4.923  1.0499  1.3915  1.3795
 2274TIP3    H2 6829   3.072   2.139   4.803 -1.4038 -0.8864  1.3994
 2275TIP3   OH2 6830   5.361   0.913   1.249  0.3787 -0.1720 -0.1661
 2275TIP3    H1 6831   5.427   0.847   1.228 -1.8013 -3.2010  1.6094
 2275TIP3    H2 6832   5.409   0.980   1.299  2.4064 -1.2270 -0.5784
 2276TIP3   OH2 6833   3.992   2.864   4.335  0.4103 -0.9594  0.0333
 2276TIP3    H1 6834   3.972   2.914   4.255 -1.2121  0.2181  1.1172
 2276TIP3    H2 6835   4.064   2.913   4.376  0.2480 -0.7206  0.0335
 2277TIP3   OH2 6836   0.694   4.380   4.794 -0.6843 -0.1331  0.0513
 2277TIP3    H1 6837   0.648   4.398   4.876 -0.8473  1.0065 -0.2664
 2277TIP3    H2 6838   0.785   4.400   4.813 -0.6021 -0.6297  0.1751
 2278TIP3   OH2 6839   1.794   2.734   0.625  0.6070 -0.0516 -0.7205
 2278TIP3    H1 6840   1.714   2.722   0.676  0.4814  1.0668 -0.6223
 2278TIP3    H2 6841   1.848   2.658   0.646 -0.0704 -0.3707 -0.1063
 2279TIP3   OH2 6842   5.635   0.816   2.913 -0.3033  0.0482  0.2213
 2279TIP3    H1 6843   5.664   0.743   2.858  0.5283  1.1634 -0.8740
 2279TIP3    H2 6844   5.623   0.889   2.852  0.0812  1.1730  1.4404
 2280TIP3   OH2 6845   3.550   3.165   4.764 -0.0697  0.2185 -0.3182
 2280TIP3    H1 6846   3.482   3.195   4.704  1.9843  0.5093 -2.6470
 2280TIP3    H2 6847   3.579   3.244   4.810 -0.0989  0.4145 -0.6357
 2281TIP3   OH2 6848   4.355   2.711   0.607  0.0995  0.1385  0.4129
 2281TIP3    H1 6849   4.416   2.639   0.621 -0.5509 -0.3311  0.8934
 2281TIP3    H2 6850   4.383   2.751   0.525  0.7680 -0.3554  0.3972
 2282TIP3   OH2 6851   5.761   2.337   3.717 -0.1448  0.1233  0.4758
 2282TIP3    H1 6852   5.689   2.282   3.687  2.0150 -2.6727 -0.0738
 2282TIP3    H2 6853   5.776   2.311   3.807 -1.1914  2.3757  1.3782
 2283TIP3   OH2 6854   4.727   4.593   3.117  0.3442  1.0665  0.2470
 2283TIP3    H1 6855   4.772   4.524   3.067  0.6173  1.3464  0.1055
 2283TIP3    H2 6856   4.798   4.643   3.157  0.1215  0.5277  1.3536
 2284TIP3   OH2 6857   0.324   5.297   4.739  0.0384 -0.5510  0.4734
 2284TIP3    H1 6858   0.316   5.332   4.827  1.5009 -1.0096  0.8220
 2284TIP3    H2 6859   0.375   5.216   4.750 -1.4511 -1.6926 -0.5520
 2285TIP3   OH2 6860   3.179   5.315   3.470  0.3184  0.5170 -0.0490
 2285TIP3    H1 6861   3.148   5.393   3.516  0.0717 -0.0897  0.8559
 2285TIP3    H2 6862   3.160   5.331   3.378 -3.3143 -0.0297  0.4605
 2286TIP3   OH2 6863   5.029   1.235   1.313 -0.0858 -0.2031  0.6279
 2286TIP3    H1 6864   5.034   1.329   1.330 -1.4348 -0.3019  1.8135
 2286TIP3    H2 6865   4.936   1.214   1.326  0.5267 -2.0759  2.6187
 2287TIP3   OH2 6866   3.144   1.173   0.042  0.0874 -0.1306  0.3605
 2287TIP3    H1 6867   3.139   1.266   0.021  1.0195  0.1222  1.2184
 2287TIP3    H2 6868   3.196   1.135  -0.028  1.9555  0.4637  1.3612
 2288TIP3   OH2 6869   5.101   5.055   0.463  0.2542 -0.0818  0.0508
 2288TIP3    H1 6870   5.120   4.964   0.489  0.1615 -0.3094 -0.6702
 2288TIP3    H2 6871   5.057   5.047   0.378  2.4331  0.7447 -1.2310
 2289TIP3   OH2 6872   2.435   1.420   4.230  0.0561 -0.5299  0.2867
 2289TIP3    H1 6873   2.427   1.326   4.246  0.2895 -1.3946 -3.6821
 2289TIP3    H2 6874   2.528   1.440   4.242 -0.1258 -0.5189  1.9838
 2290TIP3   OH2 6875   1.294   2.913   4.457  0.1452  0.1600 -0.0762
 2290TIP3    H1 6876   1.325   3.003   4.449  0.8683 -0.1623 -1.2774
 2290TIP3    H2 6877   1.222   2.906   4.394  1.1462 -0.4975 -1.2080
 2291TIP3   OH2 6878   6.182   3.417   4.976 -0.3211  0.5063  0.2359
 2291TIP3    H1 6879   6.183   3.345   4.914 -1.8108 -0.1059  0.8825
 2291TIP3    H2 6880   6.262   3.406   5.027  0.5656  0.6082 -1.0763
 2292TIP3   OH2 6881   2.162   1.566   1.598 -0.4533  0.0521  0.6765
 2292TIP3    H1 6882   2.183   1.656   1.571  0.6168  0.0248  1.3666
 2292TIP3    H2 6883   2.066   1.565   1.604 -0.4458  1.4175  1.4958
 2293TIP3   OH2 6884   3.365   5.909   1.938  0.1956  0.5228 -0.1279
 2293TIP3    H1 6885   3.318   5.949   2.011  1.5417  2.3491 -0.1937
 2293TIP3    H2 6886   3.443   5.871   1.978 -0.8786 -1.9066 -0.1185
 2294TIP3   OH2 6887   0.964   4.555   3.081 -0.1865  0.3781 -0.2488
 2294TIP3    H1 6888   0.877   4.567   3.042  0.7741 -0.1352 -2.7463
 2294TIP3    H2 6889   0.956   4.476   3.134 -0.3981 -2.0870 -3.6054
 2295TIP3   OH2 6890   5.802   3.550   1.949  0.0653  0.2800  0.0685
 2295TIP3    H1 6891   5.736   3.611   1.981 -0.0979  0.3656 -0.4176
 2295TIP3    H2 6892   5.817   3.577   1.858  1.6195  0.9977  0.5085
 2296TIP3   OH2 6893   5.384   5.025   4.807 -0.0672  0.4221  0.7422
 2296TIP3    H1 6894   5.461   4.993   4.854 -0.1732 -0.6981  0.1913
 2296TIP3    H2 6895   5.387   4.980   4.722 -3.3829 -2.7895  2.0578
 2297TIP3   OH2 6896   5.680   2.951   2.336 -0.2646  0.2860  0.0069
 2297TIP3    H1 6897   5.616   2.895   2.381  0.7172  0.1610  1.2823
 2297TIP3    H2 6898   5.667   3.038   2.374  0.6433  0.1582  0.6334
 2298TIP3   OH2 6899   3.352   3.054   0.022  0.5506 -0.4855 -0.1776
 2298TIP3    H1 6900   3.363   3.073   0.115 -0.7350 -0.2238 -0.0637
 2298TIP3    H2 6901   3.438   3.024  -0.007  0.9055 -0.7897  1.1441
 2299TIP3   OH2 6902   2.648   2.806   1.504  0.2226 -0.8122  0.5959
 2299TIP3    H1 6903   2.614   2.806   1.594 -0.8832 -1.0585  0.1818
 2299TIP3    H2 6904   2.628   2.718   1.471 -0.2996 -0.3862 -0.2373
 2300TIP3   OH2 6905   0.328   1.229   0.095 -0.4287  0.5749  0.1924
 2300TIP3    H1 6906   0.406   1.179   0.073 -0.9837  0.2322 -1.0513
 2300TIP3    H2 6907   0.270   1.166   0.139  0.2139  0.9799  1.6904
 2301TIP3   OH2 6908   2.548   5.098   0.944 -0.0877  0.0301 -0.2186
 2301TIP3    H1 6909   2.510   5.137   1.023 -0.3450 -0.6976  0.0268
 2301TIP3    H2 6910   2.591   5.019   0.975  1.8919  0.9496 -0.4390
 2302TIP3   OH2 6911   3.343   4.303   2.495  0.3023  0.6825  0.1819
 2302TIP3    H1 6912   3.367   4.342   2.580  0.8602 -1.3255  1.0162
 2302TIP3    H2 6913   3.354   4.374   2.432  2.0738  1.6569  1.4806
 2303TIP3   OH2 6914   2.395   5.855   0.339  0.3363  0.2607  0.1105
 2303TIP3    H1 6915   2.405   5.774   0.388 -0.2705 -0.0756 -0.3130
 2303TIP3    H2 6916   2.328   5.905   0.386 -0.8167 -0.3987 -0.7850
 2304TIP3   OH2 6917   5.312   0.659   4.096  0.1975  0.5996  0.0158
 2304TIP3    H1 6918   5.277   0.572   4.116 -0.3539  1.4465  3.3512
 2304TIP3    H2 6919   5.246   0.699   4.040 -0.1796 -0.6666 -0.4814
 2305TIP3   OH2 6920   0.762   2.563   1.983 -0.5030 -0.0606 -0.4681
 2305TIP3    H1 6921   0.715   2.486   2.014 -0.2991 -0.6310 -1.5672
 2305TIP3    H2 6922   0.839   2.529   1.937  2.4225  0.8208  3.2077
 2306TIP3   OH2 6923   3.497   0.873   4.534  0.2552 -0.3494 -0.2905
 2306TIP3    H1 6924   3.422   0.928   4.555 -1.4463 -2.6728  0.1880
 2306TIP3    H2 6925   3.558   0.887   4.606 -1.1394 -0.7236  1.0195
 2307TIP3   OH2 6926   5.283   0.432   1.690  0.1411  0.4079 -0.1091
 2307TIP3    H1 6927   5.252   0.521   1.676  0.0412  0.1341 -1.9047
 2307TIP3    H2 6928   5.350   0.419   1.622  2.2558  0.0533  1.9233
 2308TIP3   OH2 6929   5.653   2.685   4.719  0.3644  0.2405 -0.4265
 2308TIP3    H1 6930   5.709   2.759   4.696  2.1690 -0.5408  1.1561
 2308TIP3    H2 6931   5.569   2.725   4.742  1.4157  1.8563  0.8079
 2309TIP3   OH2 6932   5.073   3.824   0.552 -0.2908  0.7578 -0.0756
 2309TIP3    H1 6933   5.024   3.852   0.475 -0.1242 -2.4970 -1.5039
 2309TIP3    H2 6934   5.008   3.785   0.610  0.3199 -4.1165 -2.2315
 2310TIP3   OH2 6935   4.553   3.608   1.015  0.2991 -0.2357 -0.0344
 2310TIP3    H1 6936   4.493   3.604   1.090 -0.4944 -3.4245 -0.6988
 2310TIP3    H2 6937   4.638   3.583   1.052  0.5534  1.0028  0.2746
 2311TIP3   OH2 6938   5.459   1.148   3.811  0.0967  0.3327 -0.3718
 2311TIP3    H1 6939   5.515   1.140   3.734 -1.3593 -0.5755 -1.3881
 2311TIP3    H2 6940   5.447   1.058   3.843 -0.7012  0.5102 -0.1307
 2312TIP3   OH2 6941   6.316   2.750   5.099  0.0709 -0.3692 -0.6608
 2312TIP3    H1 6942   6.241   2.810   5.099  0.1765 -0.2099 -2.1450
 2312TIP3    H2 6943   6.381   2.793   5.154 -0.3738  0.2132 -0.5816
 2313TIP3   OH2 6944   5.360   6.001   2.165 -0.2913  0.2486  0.4345
 2313TIP3    H1 6945   5.340   5.928   2.224  2.4690 -0.3512  0.7338
 2313TIP3    H2 6946   5.385   5.958   2.083  0.6252  0.8864  0.3761
 2314TIP3   OH2 6947   5.448   3.475   2.094 -0.4383  0.0181 -0.4161
 2314TIP3    H1 6948   5.459   3.489   2.000 -0.3464  2.4912 -0.0928
 2314TIP3    H2 6949   5.457   3.380   2.105  0.4082 -0.2436 -2.7706
 2315TIP3   OH2 6950   1.705   0.793   1.780 -0.0422 -0.2200 -0.2264
 2315TIP3    H1 6951   1.641   0.829   1.719 -1.8043 -0.9166  1.1149
 2315TIP3    H2 6952   1.770   0.750   1.724 -0.7760  0.4417 -1.6371
 2316TIP3   OH2 6953   2.259   1.406   0.760  0.1010 -0.2949  0.6299
 2316TIP3    H1 6954   2.314   1.338   0.720 -0.3469 -0.4126  0.2112
 2316TIP3    H2 6955   2.319   1.480   0.774  0.0275  0.1852 -1.3313
 2317TIP3   OH2 6956   2.750   3.589   3.236  0.3671  0.1569  0.4491
 2317TIP3    H1 6957   2.659   3.616   3.224 -0.0629 -0.7313  1.4859
 2317TIP3    H2 6958   2.755   3.501   3.198  0.3117 -0.5188  1.9324
 2318TIP3   OH2 6959   4.489   0.156   2.245  0.2611  0.2944 -0.4461
 2318TIP3    H1 6960   4.554   0.118   2.304  0.2328  0.9475  0.0174
 2318TIP3    H2 6961   4.534   0.161   2.160  0.4772 -0.1655 -0.3640
 2319TIP3   OH2 6962   5.053   2.573   1.443  0.1647  0.0515  0.5045
 2319TIP3    H1 6963   5.053   2.566   1.539 -1.2133 -0.8000  0.4694
 2319TIP3    H2 6964   5.093   2.658   1.425  3.0105 -0.9128  1.7024
 2320TIP3   OH2 6965   1.296   2.412   0.480  0.9961 -0.0802 -0.2481
 2320TIP3    H1 6966   1.269   2.363   0.402 -0.2347 -1.5565  1.0314
 2320TIP3    H2 6967   1.340   2.490   0.445 -0.4260 -0.1545 -2.4152
 2321TIP3   OH2 6968   4.604   3.933   4.685 -0.6779  0.4889  0.3950
 2321TIP3    H1 6969   4.532   3.880   4.718 -1.5207  0.5395 -1.2724
 2321TIP3    H2 6970   4.569   4.023   4.685  0.7277  1.1575  3.1929
 2322TIP3   OH2 6971   5.086   4.279   1.430  0.3031  0.2905  0.5414
 2322TIP3    H1 6972   5.181   4.290   1.431  0.3619 -0.1158 -0.0674
 2322TIP3    H2 6973   5.068   4.212   1.496  0.4914 -0.0144  0.2831
 2323TIP3   OH2 6974   4.763   2.866   0.912  0.1902 -0.6461 -0.0942
 2323TIP3    H1 6975   4.836   2.804   0.919  1.4782  0.8612  0.7132
 2323TIP3    H2 6976   4.695   2.830   0.969  0.0584 -2.3515 -1.2587
 2324TIP3   OH2 6977   5.116   4.402   3.159  0.4677  0.1895 -0.9899
 2324TIP3    H1 6978   5.040   4.461   3.149  0.3775  0.1406 -0.6134
 2324TIP3    H2 6979   5.180   4.454   3.208 -0.0902 -0.4309  0.4565
 2325TIP3   OH2 6980   4.626   1.635   2.601 -0.0952  0.1914 -0.4336
 2325TIP3    H1 6981   4.604   1.641   2.508  0.6173 -1.7544 -0.7741
 2325TIP3    H2 6982   4.722   1.640   2.603 -0.1505  2.8179  0.4927
 2326TIP3   OH2 6983   3.406   5.080   2.348  0.3846  0.1461  0.4512
 2326TIP3    H1 6984   3.336   5.115   2.293 -1.7267 -0.7051  2.4196
 2326TIP3    H2 6985   3.468   5.153   2.357 -0.4166  1.0618 -1.0629
 2327TIP3   OH2 6986   5.802   2.695   4.135  0.0501 -0.0915 -0.4131
 2327TIP3    H1 6987   5.745   2.772   4.137  2.8429  2.1482 -0.9400
 2327TIP3    H2 6988   5.820   2.681   4.042  1.5325  0.2352 -0.2007
 2328TIP3   OH2 6989   1.381   4.905   2.062 -0.0493 -0.0984  0.3444
 2328TIP3    H1 6990   1.314   4.958   2.106  0.4477  0.1230  0.8449
 2328TIP3    H2 6991   1.414   4.847   2.131  0.9149  0.4254  0.3480
 2329TIP3   OH2 6992   5.247   3.058   2.255  0.1957 -0.4048  0.3121
 2329TIP3    H1 6993   5.200   3.092   2.331 -2.0489 -1.6367 -0.4478
 2329TIP3    H2 6994   5.195   3.086   2.180  0.4196 -2.1597 -0.5516
 2330TIP3   OH2 6995   2.954   4.668   3.246  0.0686  0.4720  0.6917
 2330TIP3    H1 6996   2.914   4.731   3.306 -0.0245  1.2600 -0.1817
 2330TIP3    H2 6997   2.972   4.718   3.167  2.4225  0.0618  0.8881
 2331TIP3   OH2 6998   5.407   4.485   2.159  0.5465 -0.7326  0.3419
 2331TIP3    H1 6999   5.405   4.452   2.249  1.2366 -2.3977 -0.2093
 2331TIP3    H2 7000   5.360   4.568   2.163  1.5339 -0.2067  2.4387
 2332TIP3   OH2 7001   2.084   5.633   0.623 -0.5361  0.3506 -0.3237
 2332TIP3    H1 7002   2.082   5.673   0.709  0.6483 -0.0208 -0.0975
 2332TIP3    H2 7003   1.993   5.612   0.603 -0.6348 -1.7433  1.8750
 2333TIP3   OH2 7004   3.293   0.692   3.797 -0.6064  0.6302  0.1365
 2333TIP3    H1 7005   3.224   0.705   3.862 -1.0976  0.6936 -0.3920
 2333TIP3    H2 7006   3.289   0.769   3.741  0.3872  0.9872  0.5342
 2334TIP3   OH2 7007   3.805   0.492   0.881  0.0024  0.5010 -0.1844
 2334TIP3    H1 7008   3.893   0.469   0.912  1.4281  0.8798 -3.5001
 2334TIP3    H2 7009   3.761   0.408   0.867 -0.0963  0.3011  1.2052
 2335TIP3   OH2 7010   2.187   2.422   1.736  0.5324  0.0887 -0.1619
 2335TIP3    H1 7011   2.231   2.394   1.816 -0.9609  1.0668  1.0443
 2335TIP3    H2 7012   2.197   2.517   1.734  1.8150 -0.0294 -1.9483
 2336TIP3   OH2 7013   0.783   0.705   0.705  0.2239 -0.3494 -0.1360
 2336TIP3    H1 7014   0.740   0.748   0.631 -0.9976 -0.9258  0.2146
 2336TIP3    H2 7015   0.766   0.611   0.692  0.8047 -0.5356  0.3768
 2337TIP3   OH2 7016   5.975   0.108   0.903 -0.5370  0.0354  0.2451
 2337TIP3    H1 7017   5.937   0.020   0.897  0.7798 -0.5284 -0.1635
 2337TIP3    H2 7018   6.014   0.124   0.817  1.8795 -0.2559  1.1882
 2338TIP3   OH2 7019   4.323   4.022   4.828  0.4290  0.2176  0.3132
 2338TIP3    H1 7020   4.392   4.072   4.784  0.2426  0.7380  0.6051
 2338TIP3    H2 7021   4.242   4.055   4.791  0.2575  0.8500  1.2337
 2339TIP3   OH2 7022   0.117   1.413   0.222 -0.4421  0.4567  0.7852
 2339TIP3    H1 7023   0.082   1.414   0.133  1.7042  1.5423 -0.1092
 2339TIP3    H2 7024   0.154   1.325   0.232  1.7279  1.1296 -0.4956
 2340TIP3   OH2 7025   1.211   1.475   3.531 -0.3504 -0.5726 -0.0934
 2340TIP3    H1 7026   1.219   1.387   3.567  0.2564 -0.4120  0.1824
 2340TIP3    H2 7027   1.295   1.517   3.551 -0.4590 -0.0823 -0.6285
 2341TIP3   OH2 7028   5.520   5.530   3.892 -0.3068 -0.2672  0.1380
 2341TIP3    H1 7029   5.589   5.580   3.849 -1.7385  1.9840  0.3052
 2341TIP3    H2 7030   5.512   5.569   3.979 -3.5208  1.5062 -0.7549
 2342TIP3   OH2 7031   3.257   0.620   3.368  0.0482  0.5790  0.3785
 2342TIP3    H1 7032   3.305   0.699   3.343  0.5684 -0.2319 -1.4056
 2342TIP3    H2 7033   3.166   0.639   3.347 -0.0748  1.2528  1.4656
 2343TIP3   OH2 7034   2.147   4.260   2.254  0.0397 -0.5258 -0.0281
 2343TIP3    H1 7035   2.180   4.331   2.308 -1.1385  0.1768 -0.1882
 2343TIP3    H2 7036   2.198   4.265   2.173 -1.0780  1.1572 -0.6651
 2344TIP3   OH2 7037   5.936   4.343   3.465  0.1547 -0.2382  0.2486
 2344TIP3    H1 7038   5.869   4.392   3.417  1.0762 -0.0793 -0.9047
 2344TIP3    H2 7039   6.000   4.409   3.490 -0.6100 -0.2041  2.3118
 2345TIP3   OH2 7040   5.973   4.612   4.444 -0.7429 -0.2625 -0.1048
 2345TIP3    H1 7041   5.918   4.595   4.521  0.7376 -1.8932  0.6559
 2345TIP3    H2 7042   6.027   4.686   4.471 -1.6685  0.5550 -0.4086
 2346TIP3   OH2 7043   5.815   2.995   0.260 -0.5016 -0.4939 -0.2831
 2346TIP3    H1 7044   5.845   3.046   0.185  0.0583  0.6857  0.7128
 2346TIP3    H2 7045   5.804   2.907   0.225  0.1344 -0.0659 -1.6596
 2347TIP3   OH2 7046   1.935   0.674   3.692  0.1835  0.2776 -0.3902
 2347TIP3    H1 7047   2.001   0.711   3.750 -1.7184 -0.8892  2.7608
 2347TIP3    H2 7048   1.886   0.750   3.660  0.2587  0.8851  0.8824
 2348TIP3   OH2 7049   5.248   5.276   1.805  0.0263 -0.2127  0.3052
 2348TIP3    H1 7050   5.236   5.344   1.871 -2.4453  0.1667 -0.4228
 2348TIP3    H2 7051   5.219   5.316   1.723 -1.8319 -2.1750 -0.0873
 2349TIP3   OH2 7052   6.024   2.488   3.780  0.0588  0.0920 -0.9213
 2349TIP3    H1 7053   6.073   2.434   3.842  1.1818  0.5097 -1.4054
 2349TIP3    H2 7054   5.968   2.427   3.732  1.1323 -0.6221 -1.2967
 2350TIP3   OH2 7055   4.247   0.547   1.468  0.3859 -0.4883  0.0165
 2350TIP3    H1 7056   4.255   0.458   1.432  2.1232 -1.0963  1.7393
 2350TIP3    H2 7057   4.300   0.601   1.410  1.6655 -1.1278  0.5583
 2351TIP3   OH2 7058   3.640   1.699   4.927  0.2354  0.2074  0.5881
 2351TIP3    H1 7059   3.732   1.685   4.905 -0.0835 -0.8510 -0.1808
 2351TIP3    H2 7060   3.592   1.659   4.854 -0.8369  0.3417  1.2006
 2352TIP3   OH2 7061   3.817   0.006   2.274  0.0793 -0.2062 -0.3420
 2352TIP3    H1 7062   3.901   0.037   2.240  0.2116 -2.0317 -1.8587
 2352TIP3    H2 7063   3.836  -0.024   2.363  0.6482  0.8984 -0.0798
 2353TIP3   OH2 7064   5.319   4.529   4.594 -0.2441 -0.1301  0.3655
 2353TIP3    H1 7065   5.343   4.468   4.524 -0.8909 -0.4161  0.3795
 2353TIP3    H2 7066   5.339   4.615   4.558  0.1906 -0.3230  0.1412
 2354TIP3   OH2 7067   4.750   3.468   1.706  0.2097  0.3027 -0.2857
 2354TIP3    H1 7068   4.817   3.404   1.727 -0.1279 -0.2297 -0.8104
 2354TIP3    H2 7069   4.672   3.416   1.685 -0.5866  0.9040  0.9702
 2355TIP3   OH2 7070   2.392   0.898   1.978  0.1775  0.0819  0.4978
 2355TIP3    H1 7071   2.461   0.960   2.003  0.6905 -0.0903 -0.4239
 2355TIP3    H2 7072   2.312   0.937   2.013  0.7259  0.2965  1.5758
 2356TIP3   OH2 7073   4.521   4.337   4.441  0.0622  0.0583  0.2733
 2356TIP3    H1 7074   4.612   4.313   4.459  0.2695  0.6309  0.0124
 2356TIP3    H2 7075   4.513   4.330   4.346  0.1641  1.1203  0.1750
 2357TIP3   OH2 7076   4.557   2.097   1.975 -0.3750  0.2787 -0.2909
 2357TIP3    H1 7077   4.544   2.189   1.953  0.9019  0.4059 -0.5921
 2357TIP3    H2 7078   4.629   2.069   1.918 -0.5869 -0.8436 -0.0311
 2358TIP3   OH2 7079   0.785   3.666   2.411  0.1172 -0.3258  0.0882
 2358TIP3    H1 7080   0.713   3.727   2.423 -0.3057 -0.9142  0.6346
 2358TIP3    H2 7081   0.762   3.616   2.333  0.4973  0.2555 -0.3985
 2359TIP3   OH2 7082   5.492   0.737   1.527 -0.1899 -0.1867  0.0379
 2359TIP3    H1 7083   5.426   0.699   1.585  1.0468 -0.8729  1.0380
 2359TIP3    H2 7084   5.470   0.830   1.524 -1.6539 -0.5205 -0.2756
 2360TIP3   OH2 7085   5.119   2.138   4.597 -0.0274  0.1960  0.0474
 2360TIP3    H1 7086   5.182   2.211   4.598  0.9210 -0.6087  0.9145
 2360TIP3    H2 7087   5.139   2.090   4.517  2.0484 -1.3512  1.4026
 2361TIP3   OH2 7088   5.685   5.747   3.813  0.1581  0.6094 -0.4587
 2361TIP3    H1 7089   5.770   5.772   3.850 -0.6025 -0.2068  2.0878
 2361TIP3    H2 7090   5.629   5.823   3.826  0.5736  1.3752 -2.6994
 2362TIP3   OH2 7091   1.503   4.159   3.125 -0.0054 -0.1466  0.2595
 2362TIP3    H1 7092   1.512   4.148   3.030 -1.0629  0.0957  0.1186
 2362TIP3    H2 7093   1.462   4.244   3.136 -0.2755 -0.3530  0.9135
 2363TIP3   OH2 7094   2.149   5.844   2.711 -0.6349  0.6740 -0.2531
 2363TIP3    H1 7095   2.198   5.883   2.639  0.3124  0.6235  0.3406
 2363TIP3    H2 7096   2.091   5.781   2.669  1.5816 -1.1221 -0.8549
 2364TIP3   OH2 7097   1.859   4.635   2.112  0.0868 -0.2300 -0.4060
 2364TIP3    H1 7098   1.806   4.582   2.172  0.7397  0.7290  1.0883
 2364TIP3    H2 7099   1.947   4.632   2.150  0.3990  0.8563 -1.0232
 2365TIP3   OH2 7100   2.290   0.291   2.388  0.0398 -1.1237  0.6976
 2365TIP3    H1 7101   2.269   0.270   2.479 -1.7654  1.4695  0.9900
 2365TIP3    H2 7102   2.238   0.369   2.368  2.0108 -0.2958 -1.8954
 2366TIP3   OH2 7103   1.175   4.140   2.845 -0.1320  0.3022  0.1884
 2366TIP3    H1 7104   1.189   4.201   2.773  0.4148  0.7057  0.6322
 2366TIP3    H2 7105   1.165   4.195   2.922  1.3721 -0.1822  0.7591
 2367TIP3   OH2 7106   5.561   3.967   3.341  0.1148  0.0004  0.3509
 2367TIP3    H1 7107   5.503   4.042   3.353  0.1282  0.2539 -1.0597
 2367TIP3    H2 7108   5.631   4.000   3.285 -0.8433 -1.4970 -1.8707
 2368TIP3   OH2 7109   1.241   5.224   2.517  0.7080 -0.6040 -0.1411
 2368TIP3    H1 7110   1.150   5.252   2.501  1.0064  0.8826  0.5770
 2368TIP3    H2 7111   1.266   5.269   2.598  2.2617 -0.6018 -0.5987
 2369TIP3   OH2 7112   5.955   0.524   4.128  0.6012 -0.7135  0.3742
 2369TIP3    H1 7113   5.865   0.554   4.122  0.8223 -0.3286 -1.8382
 2369TIP3    H2 7114   6.002   0.598   4.167  0.5509  0.6248 -1.9097
 2370TIP3   OH2 7115   1.221   4.246   0.697  0.1615  0.1835 -0.2300
 2370TIP3    H1 7116   1.214   4.263   0.603  0.2898  0.1558 -0.2459
 2370TIP3    H2 7117   1.142   4.284   0.735  0.0126  0.0190 -0.3743
 2371TIP3   OH2 7118   4.860   1.825   3.084  0.3743 -0.1434  0.6593
 2371TIP3    H1 7119   4.860   1.911   3.126  0.5868 -0.9463  2.3655
 2371TIP3    H2 7120   4.952   1.811   3.059  0.0264  0.9482 -1.5014
 2372TIP3   OH2 7121   6.032   1.214   3.949  0.1729 -0.0808 -0.3207
 2372TIP3    H1 7122   5.938   1.205   3.963 -0.2737  0.6890 -2.4094
 2372TIP3    H2 7123   6.064   1.125   3.936 -0.0937 -0.4191  1.1960
 2373TIP3   OH2 7124   3.093   5.966   1.072  0.3890 -0.0516  0.3560
 2373TIP3    H1 7125   3.063   6.018   1.147  1.2233 -0.1875  0.7897
 2373TIP3    H2 7126   3.176   5.928   1.100  0.0986 -1.1230 -0.1823
 2374TIP3   OH2 7127   1.170   0.930   3.462  0.1459 -0.4454  0.2588
 2374TIP3    H1 7128   1.093   0.880   3.487  0.7433 -0.7919  1.4857
 2374TIP3    H2 7129   1.242   0.867   3.465  0.3212 -0.4221 -2.0965
 2375TIP3   OH2 7130   2.963   4.483   0.874 -0.2940 -0.0779  0.8105
 2375TIP3    H1 7131   2.980   4.389   0.887  0.3606 -0.1364 -0.3039
 2375TIP3    H2 7132   2.890   4.486   0.813  0.5592  0.1108 -0.2271
 2376TIP3   OH2 7133   3.316   0.784   1.135 -0.0551 -0.5547 -0.4850
 2376TIP3    H1 7134   3.319   0.799   1.040  0.8038  0.6563 -0.2863
 2376TIP3    H2 7135   3.325   0.871   1.173  1.6463 -1.2216  0.7352
 2377TIP3   OH2 7136   0.941   1.191   2.359 -0.0970  0.0288  0.6476
 2377TIP3    H1 7137   0.955   1.139   2.438 -0.4149  0.4950  1.0197
 2377TIP3    H2 7138   1.028   1.218   2.332  0.3405 -2.7381 -0.9889
 2378TIP3   OH2 7139   6.298   0.175   0.616 -0.1208  0.2402 -0.8625
 2378TIP3    H1 7140   6.353   0.179   0.694 -2.3559  0.1509  0.8120
 2378TIP3    H2 7141   6.355   0.203   0.545  2.2048 -0.3267  0.6647
 2379TIP3   OH2 7142   5.291   1.611   3.156 -0.3672 -0.1511  0.0931
 2379TIP3    H1 7143   5.297   1.588   3.063 -0.7012  1.9118 -0.5041
 2379TIP3    H2 7144   5.376   1.648   3.177 -1.2507  2.4087 -0.3786
 2380TIP3   OH2 7145   0.638   1.158   3.480  0.1162 -0.7279 -0.2307
 2380TIP3    H1 7146   0.721   1.112   3.494  0.4499 -0.4469 -1.2316
 2380TIP3    H2 7147   0.571   1.093   3.500  0.5736 -1.8070 -1.9644
 2381TIP3   OH2 7148   3.627   1.372   2.633 -0.3193  0.3894  0.3905
 2381TIP3    H1 7149   3.641   1.343   2.542  0.7538  1.7294  0.1002
 2381TIP3    H2 7150   3.538   1.343   2.654 -0.6270  0.1458 -1.1260
 2382TIP3   OH2 7151   2.389   5.109   2.250  0.2375 -0.1905  0.0340
 2382TIP3    H1 7152   2.401   5.042   2.182  2.2030  0.3422 -0.1775
 2382TIP3    H2 7153   2.385   5.059   2.332 -0.6864 -0.7155 -0.3031
 2383TIP3   OH2 7154   3.530   1.127   0.691  0.4623  0.4207  0.2753
 2383TIP3    H1 7155   3.612   1.176   0.681  0.7886  0.1173  1.3277
 2383TIP3    H2 7156   3.477   1.180   0.750  0.0069  0.4802 -0.1852
 2384TIP3   OH2 7157   2.545   0.557   0.152  0.6104  0.3506  0.5541
 2384TIP3    H1 7158   2.501   0.619   0.094 -0.0010 -1.2001 -0.7160
 2384TIP3    H2 7159   2.623   0.605   0.183  1.3041  1.0663 -2.0460
 2385TIP3   OH2 7160   1.515   5.355   3.921  0.2861  0.3344  0.7975
 2385TIP3    H1 7161   1.480   5.387   3.838 -0.1548  2.6114  1.7901
 2385TIP3    H2 7162   1.447   5.298   3.955 -0.2189  0.6380  0.3220
 2386TIP3   OH2 7163   5.360   0.110   1.398  1.0999  0.0671  0.3053
 2386TIP3    H1 7164   5.376   0.152   1.483  0.6207  1.2463 -0.1589
 2386TIP3    H2 7165   5.398   0.171   1.334 -1.4718  0.8879 -0.5515
 2387TIP3   OH2 7166   2.825   0.157   4.909 -0.1631 -0.1208  0.1671
 2387TIP3    H1 7167   2.791   0.134   4.995 -0.9515 -0.6851 -0.2812
 2387TIP3    H2 7168   2.860   0.245   4.920  0.5550 -0.5271  1.2775
 2388TIP3   OH2 7169   3.798   2.777   2.969  0.3503  0.0857 -0.2057
 2388TIP3    H1 7170   3.726   2.820   2.924  0.4580  0.3703 -0.1076
 2388TIP3    H2 7171   3.854   2.849   2.999  0.4620 -0.1151  0.0714
 2389TIP3   OH2 7172   0.373   4.004   2.323  0.0151 -0.1336  0.3173
 2389TIP3    H1 7173   0.407   4.074   2.380  1.0116  0.4392 -0.9313
 2389TIP3    H2 7174   0.300   4.045   2.277  0.0207 -0.1981  0.2527
 2390TIP3   OH2 7175   3.918   1.972   1.056  0.1327 -0.0987 -0.2060
 2390TIP3    H1 7176   3.916   2.067   1.067 -0.9507 -0.0828 -0.4808
 2390TIP3    H2 7177   3.866   1.938   1.128 -2.1383 -0.2928 -1.8400
 2391TIP3   OH2 7178   6.082   3.200   4.023  0.0818  0.0274  0.0851
 2391TIP3    H1 7179   6.048   3.272   3.970 -0.0895 -0.6763 -0.7864
 2391TIP3    H2 7180   6.082   3.234   4.112 -1.5108  0.5750 -0.0840
 2392TIP3   OH2 7181   2.219   5.626   4.447 -0.0559 -0.2086 -0.2858
 2392TIP3    H1 7182   2.314   5.637   4.451  0.1705 -1.6124 -1.2092
 2392TIP3    H2 7183   2.202   5.594   4.359 -1.1760 -1.8657  0.4838
 2393TIP3   OH2 7184   2.029   1.628   0.385 -0.8422  0.6120  0.0129
 2393TIP3    H1 7185   2.088   1.663   0.452  1.3485 -0.7444 -1.0895
 2393TIP3    H2 7186   2.055   1.673   0.305  0.3222 -1.5785 -0.9275
 2394TIP3   OH2 7187   2.761   1.709   3.797  0.5374  0.0134 -0.6915
 2394TIP3    H1 7188   2.811   1.791   3.790  1.6352 -0.6298 -0.5791
 2394TIP3    H2 7189   2.719   1.700   3.711  0.4595  0.6461 -0.7301
 2395TIP3   OH2 7190   6.137   2.948   1.846 -0.9543  0.0721  0.5393
 2395TIP3    H1 7191   6.171   2.893   1.917  1.4685  3.0542  1.9259
 2395TIP3    H2 7192   6.046   2.965   1.870 -1.1386 -1.5839  1.1476
 2396TIP3   OH2 7193   5.199   1.058   2.983 -0.1293  0.4948  0.0336
 2396TIP3    H1 7194   5.274   1.046   3.040  0.5403 -0.4579 -1.0136
 2396TIP3    H2 7195   5.151   1.131   3.022  0.6279  0.2757  1.4506
 2397TIP3   OH2 7196   2.793   2.274   3.329 -0.1384  0.4293 -0.4692
 2397TIP3    H1 7197   2.881   2.300   3.353 -0.8168  1.6478  0.8748
 2397TIP3    H2 7198   2.737   2.311   3.397 -2.0055  2.1616 -2.7559
 2398TIP3   OH2 7199   3.515   1.225   4.611 -0.5620 -0.1920 -0.1173
 2398TIP3    H1 7200   3.541   1.134   4.597 -0.9549 -0.3898  0.3853
 2398TIP3    H2 7201   3.460   1.246   4.535 -1.9656 -0.9734  0.6409
 2399TIP3   OH2 7202   4.652   1.113   1.835  0.1111 -0.4358  0.7651
 2399TIP3    H1 7203   4.596   1.188   1.852  2.2171  0.8435  2.5954
 2399TIP3    H2 7204   4.722   1.147   1.779  0.3978 -1.3848  0.5187
 2400TIP3   OH2 7205   3.708   3.382   5.017 -0.3918  0.2765 -0.3636
 2400TIP3    H1 7206   3.747   3.415   5.098 -1.8167 -1.8047  1.3000
 2400TIP3    H2 7207   3.741   3.292   5.010 -1.7183 -0.1746 -1.1041
 2401TIP3   OH2 7208   3.748   3.527   0.109  0.0470  0.0165  0.5603
 2401TIP3    H1 7209   3.796   3.471   0.049  0.7971  0.0730  1.0929
 2401TIP3    H2 7210   3.795   3.610   0.108 -2.3021  1.4979 -1.9313
 2402TIP3   OH2 7211   1.995   2.262   5.081 -0.5982 -0.1348 -0.2920
 2402TIP3    H1 7212   1.957   2.263   5.169  0.7007  1.4478  0.3121
 2402TIP3    H2 7213   1.972   2.348   5.044  1.6714  0.6065 -0.1635
 2403TIP3   OH2 7214   2.156   1.910   3.438 -0.3008 -0.4004  0.3587
 2403TIP3    H1 7215   2.128   1.861   3.361 -1.3953 -0.1431  0.5768
 2403TIP3    H2 7216   2.112   1.995   3.430  0.4333  0.0271  0.7192
 2404TIP3   OH2 7217   0.518   1.957   2.984  0.8258 -0.5191 -0.0496
 2404TIP3    H1 7218   0.521   2.032   2.923  2.4794 -0.7919 -0.3602
 2404TIP3    H2 7219   0.600   1.910   2.968 -0.2480 -2.5195  0.0236
 2405TIP3   OH2 7220   6.271   2.269   3.605 -0.2180 -0.1329  0.1367
 2405TIP3    H1 7221   6.357   2.307   3.624 -0.4705  0.7430 -0.3981
 2405TIP3    H2 7222   6.290   2.179   3.581  0.5200 -0.0407  0.3323
 2406TIP3   OH2 7223   6.219   3.666   0.174 -0.5740 -0.0677 -0.3399
 2406TIP3    H1 7224   6.173   3.748   0.155 -1.2461  0.1184  1.8244
 2406TIP3    H2 7225   6.311   3.686   0.158 -0.9148  0.5296 -1.6392
 2407TIP3   OH2 7226   2.438   0.830   3.865  1.2251 -0.3088 -0.3000
 2407TIP3    H1 7227   2.365   0.883   3.896  1.2814 -0.5660  0.2739
 2407TIP3    H2 7228   2.516   0.868   3.906  1.2772 -0.7705  0.0345
 2408TIP3   OH2 7229   4.267   3.340   4.854  0.0291 -0.4083  0.4024
 2408TIP3    H1 7230   4.188   3.344   4.908 -0.4480  0.7008 -0.3546
 2408TIP3    H2 7231   4.288   3.246   4.850 -0.3975 -0.5790  1.8112
 2409TIP3   OH2 7232   1.257   1.900   0.303  0.4829 -0.0893 -0.2669
 2409TIP3    H1 7233   1.344   1.902   0.262  0.5179  1.6364 -0.1576
 2409TIP3    H2 7234   1.253   1.814   0.345  1.6182 -0.7145 -1.3640
 2410TIP3   OH2 7235   5.222   3.613   0.360 -0.4853 -0.6809  0.1451
 2410TIP3    H1 7236   5.221   3.696   0.408 -2.7288 -0.9412  0.6685
 2410TIP3    H2 7237   5.130   3.587   0.356  0.1312 -3.0141 -0.2600
 2411TIP3   OH2 7238   2.939   5.561   5.106 -0.0010  0.0023  0.0033
 2411TIP3    H1 7239   2.849   5.559   5.076  0.3284  0.1415 -1.0281
 2411TIP3    H2 7240   2.978   5.480   5.071 -0.0481 -0.7270  1.5404
 2412TIP3   OH2 7241   3.606   4.137   4.455  0.0541  0.2121 -0.5574
 2412TIP3    H1 7242   3.629   4.111   4.366 -0.2070  1.4969 -1.0287
 2412TIP3    H2 7243   3.583   4.230   4.447 -0.0227  0.3320  0.8416
 2413TIP3   OH2 7244   3.735   1.234   3.508 -0.3827  0.1681  0.3168
 2413TIP3    H1 7245   3.803   1.301   3.494 -1.8224  1.4360 -0.9006
 2413TIP3    H2 7246   3.710   1.246   3.600  1.1738 -0.5013  0.8738
 2414TIP3   OH2 7247   2.203   0.410   0.727 -0.2218  0.2194  0.2118
 2414TIP3    H1 7248   2.216   0.504   0.713 -2.4232  0.3940 -1.2200
 2414TIP3    H2 7249   2.211   0.398   0.822  1.2802  1.6130  0.3000
 2415TIP3   OH2 7250   5.358   4.148   0.138 -0.0400  0.2038  0.1375
 2415TIP3    H1 7251   5.402   4.069   0.169  0.2234  0.0254 -0.6638
 2415TIP3    H2 7252   5.287   4.162   0.200 -0.5649 -1.0965 -0.1442
 2416TIP3   OH2 7253   3.411   0.914   2.008 -0.1248  0.3076 -0.1443
 2416TIP3    H1 7254   3.365   0.868   2.079  2.6256 -1.4902  0.6322
 2416TIP3    H2 7255   3.430   0.847   1.944 -1.1656  1.6217 -1.9234
 2417TIP3   OH2 7256   2.941   4.959   3.745  0.1621 -0.5772  0.3087
 2417TIP3    H1 7257   2.870   4.988   3.802  2.2103  1.7415  1.8581
 2417TIP3    H2 7258   2.930   5.009   3.665  0.8179  0.8523  1.0874
 2418TIP3   OH2 7259   5.039   3.020   1.780 -0.5378 -0.1131 -0.3719
 2418TIP3    H1 7260   5.008   2.950   1.723 -0.3932  0.1622 -0.7915
 2418TIP3    H2 7261   5.133   3.023   1.764 -0.5335  0.1265 -0.2976
 2419TIP3   OH2 7262   0.376   3.478   2.233  0.1293 -0.0572  0.2782
 2419TIP3    H1 7263   0.407   3.432   2.155 -0.8810 -0.0778 -0.1202
 2419TIP3    H2 7264   0.423   3.561   2.232  1.3721 -0.7298  0.5672
 2420TIP3   OH2 7265   2.843   4.703   3.648 -0.4324  0.5267 -0.2667
 2420TIP3    H1 7266   2.865   4.785   3.692  2.9332  0.2486 -1.1039
 2420TIP3    H2 7267   2.812   4.729   3.561  1.5848  1.0010 -0.9022
 2421TIP3   OH2 7268   3.545   0.910   1.744  0.0965  0.3441 -0.3715
 2421TIP3    H1 7269   3.631   0.868   1.737  0.7729  1.2540  1.8366
 2421TIP3    H2 7270   3.554   0.972   1.816 -1.9573  1.6532 -1.1583
 2422TIP3   OH2 7271   2.444   1.972   0.652 -0.4727  1.1650 -0.1981
 2422TIP3    H1 7272   2.523   1.947   0.604 -0.8260  1.0898 -0.7531
 2422TIP3    H2 7273   2.474   1.992   0.741  0.0736  0.5370 -0.2413
 2423TIP3   OH2 7274   3.628   2.439   0.405 -0.5469 -0.4617 -0.0118
 2423TIP3    H1 7275   3.650   2.417   0.314  2.0067  0.1789  0.3848
 2423TIP3    H2 7276   3.558   2.505   0.396  0.3108  0.3088 -1.5729
 2424TIP3   OH2 7277   2.712   4.421   0.144  0.0575 -0.5815 -0.0201
 2424TIP3    H1 7278   2.713   4.515   0.126 -0.2577 -0.5553  0.0803
 2424TIP3    H2 7279   2.653   4.385   0.078  0.8064 -0.8228 -0.5704
 2425TIP3   OH2 7280   4.197   1.929   4.070 -0.5327  0.1951 -0.3774
 2425TIP3    H1 7281   4.108   1.896   4.056 -0.7664 -0.3661  1.9971
 2425TIP3    H2 7282   4.185   2.017   4.105 -0.1236  0.2062 -0.2596
 2426TIP3   OH2 7283   3.571   4.391   1.596  0.8468 -0.0983 -0.1081
 2426TIP3    H1 7284   3.514   4.466   1.614  1.0499 -0.4793  2.4057
 2426TIP3    H2 7285   3.640   4.397   1.661  1.6043 -1.7415 -0.7225
 2427TIP3   OH2 7286   1.961   4.686   2.711  0.4946  0.8029  0.4025
 2427TIP3    H1 7287   2.024   4.693   2.639 -0.9602 -1.0092 -1.1635
 2427TIP3    H2 7288   1.884   4.732   2.680  0.3105  1.1960  1.4159
 2428TIP3   OH2 7289   2.198   1.871   3.891  0.3481 -0.1310  0.0875
 2428TIP3    H1 7290   2.269   1.819   3.854  0.4303 -1.6516  2.2083
 2428TIP3    H2 7291   2.212   1.867   3.986 -1.4836  1.1514  0.4668
 2429TIP3   OH2 7292   1.955   4.512   1.038 -0.2351  0.4287 -0.1236
 2429TIP3    H1 7293   2.015   4.537   1.108 -1.0128  0.6946  0.4584
 2429TIP3    H2 7294   1.916   4.430   1.067  1.3154 -0.8294 -1.4251
 2430TIP3   OH2 7295   6.252   0.738   3.510  1.2542 -0.0870 -0.2101
 2430TIP3    H1 7296   6.290   0.696   3.433 -0.9913 -2.7358 -0.0187
 2430TIP3    H2 7297   6.218   0.666   3.562 -0.2857  1.8364  1.6166
 2431TIP3   OH2 7298   2.242   4.737   0.694  0.0294 -0.3930  0.2530
 2431TIP3    H1 7299   2.303   4.796   0.649  1.1555 -1.3267  0.4962
 2431TIP3    H2 7300   2.239   4.659   0.639  1.6941 -1.6920  1.8443
 2432TIP3   OH2 7301   5.615   3.375   5.015 -0.2272  0.6196  0.6987
 2432TIP3    H1 7302   5.570   3.425   4.947 -0.0341 -0.3271 -0.1407
 2432TIP3    H2 7303   5.704   3.365   4.982  0.1214  0.9472  1.5253
 2433TIP3   OH2 7304   5.631   3.557   0.353 -0.5044 -0.2604  0.0593
 2433TIP3    H1 7305   5.577   3.484   0.384  2.1665 -1.7950  1.4762
 2433TIP3    H2 7306   5.575   3.604   0.292 -2.0033 -4.2332 -1.9799
 2434TIP3   OH2 7307   4.502   2.976   3.758  0.1048  0.1206 -0.3388
 2434TIP3    H1 7308   4.431   2.934   3.708 -1.5196  1.6385  0.5865
 2434TIP3    H2 7309   4.484   2.953   3.849  0.2015  1.3177  0.0016
 2435TIP3   OH2 7310   5.147   0.020   0.607 -0.1820  0.7658  0.1792
 2435TIP3    H1 7311   5.209  -0.052   0.616  0.3151  0.8778 -1.7605
 2435TIP3    H2 7312   5.164   0.076   0.682  3.6406  1.9034 -1.2724
 2436TIP3   OH2 7313   1.801   2.777   3.728 -0.2653 -0.0139  0.4656
 2436TIP3    H1 7314   1.822   2.730   3.648  0.0422  1.0596 -0.1023
 2436TIP3    H2 7315   1.886   2.800   3.766 -0.3653  1.4204 -0.0940
 2437TIP3   OH2 7316   1.857   4.124   3.438 -0.4019 -0.5818  0.1341
 2437TIP3    H1 7317   1.870   4.062   3.366 -0.3377 -0.0582 -0.3130
 2437TIP3    H2 7318   1.915   4.197   3.417  2.0174 -1.7347  2.3152
 2438TIP3   OH2 7319   3.584   2.898   1.150 -0.1718  0.0565  0.2954
 2438TIP3    H1 7320   3.592   2.906   1.245 -2.1781  0.5689  0.4751
 2438TIP3    H2 7321   3.542   2.812   1.137 -1.5700  0.7500  0.0280
 2439TIP3   OH2 7322   2.676   1.688   3.528 -0.4628  0.3391 -0.2962
 2439TIP3    H1 7323   2.659   1.649   3.442  2.2733  1.1863 -1.3118
 2439TIP3    H2 7324   2.701   1.778   3.510  1.1057  0.2840  1.2754
 2440TIP3   OH2 7325   5.355   2.667   1.646 -0.1011 -0.0406  0.5083
 2440TIP3    H1 7326   5.368   2.600   1.580 -2.5858  0.3198 -0.4421
 2440TIP3    H2 7327   5.380   2.749   1.603  0.5644 -0.0589  0.8439
 2441TIP3   OH2 7328   3.384   5.032   2.020 -0.2809  0.3758 -0.5439
 2441TIP3    H1 7329   3.296   5.031   1.983 -0.8766 -0.1470  0.8335
 2441TIP3    H2 7330   3.442   5.032   1.944 -1.4438 -1.9468 -1.5078
 2442TIP3   OH2 7331   2.582   5.499   4.721 -0.5369 -0.3300 -0.5463
 2442TIP3    H1 7332   2.591   5.426   4.660 -0.9078 -3.0640  2.4185
 2442TIP3    H2 7333   2.670   5.513   4.755 -0.6779 -0.2310 -0.2162
 2443TIP3   OH2 7334   2.138   2.556   2.039  0.1757 -0.4418  0.2293
 2443TIP3    H1 7335   2.154   2.620   1.970  0.3970 -1.7802 -1.0121
 2443TIP3    H2 7336   2.099   2.606   2.110  0.7237  1.1277 -0.5402
 2444TIP3   OH2 7337   0.467   3.223   0.366 -0.1926 -0.3151 -0.2530
 2444TIP3    H1 7338   0.535   3.290   0.370 -0.9558  0.4698  0.1243
 2444TIP3    H2 7339   0.441   3.221   0.274 -1.1598  0.9889 -0.0514
 2445TIP3   OH2 7340   0.638   4.944   2.841 -0.4440 -0.2877 -0.4193
 2445TIP3    H1 7341   0.596   5.012   2.788 -0.7563 -0.6018 -0.5781
 2445TIP3    H2 7342   0.600   4.862   2.809  0.5472 -0.6084 -0.8108
 2446TIP3   OH2 7343   1.564   2.679   3.850 -0.4601 -0.3040 -0.4712
 2446TIP3    H1 7344   1.587   2.592   3.884  0.6194 -0.4458 -1.4900
 2446TIP3    H2 7345   1.648   2.726   3.846 -0.9870  0.6846 -0.2270
 2447TIP3   OH2 7346   0.642   4.829   1.706 -0.3731 -0.5085  0.0658
 2447TIP3    H1 7347   0.729   4.867   1.695 -0.4423 -0.2201  0.5134
 2447TIP3    H2 7348   0.633   4.814   1.800 -1.2127  0.4426  0.1531
 2448TIP3   OH2 7349   3.709   0.919   3.831  0.2875  0.6365 -0.5638
 2448TIP3    H1 7350   3.676   1.006   3.854 -0.9179 -0.0167  0.2881
 2448TIP3    H2 7351   3.651   0.889   3.760 -0.0475  0.0739 -0.0625
 2449TIP3   OH2 7352   0.526   5.068   4.433 -0.4720  0.1134 -0.0003
 2449TIP3    H1 7353   0.604   5.035   4.477  0.0791  0.8947 -0.3626
 2449TIP3    H2 7354   0.550   5.072   4.341 -1.5527 -1.3227 -0.3807
 2450TIP3   OH2 7355   3.642   1.145   1.501 -0.0750  0.1971 -0.3010
 2450TIP3    H1 7356   3.679   1.157   1.588  2.6404  2.5097 -1.6127
 2450TIP3    H2 7357   3.655   1.052   1.481 -1.2343 -0.4916  1.8606
 2451TIP3   OH2 7358   2.871   3.829   1.273 -0.2258  0.1207  0.0722
 2451TIP3    H1 7359   2.908   3.798   1.356 -1.7416  0.6463  0.9775
 2451TIP3    H2 7360   2.914   3.913   1.258 -0.3190  0.2712  0.6042
 2452TIP3   OH2 7361   5.439   2.840   4.774  0.5039  0.5478 -0.5029
 2452TIP3    H1 7362   5.443   2.896   4.851  2.3277  3.0681 -2.2359
 2452TIP3    H2 7363   5.379   2.886   4.715  1.4294  0.3260 -1.6630
 2453TIP3   OH2 7364   5.354   2.140   2.770 -0.0544  0.1333  0.1209
 2453TIP3    H1 7365   5.272   2.187   2.760 -0.5604 -0.1250  2.4790
 2453TIP3    H2 7366   5.329   2.054   2.802  1.1184  0.2680  1.5380
 2454TIP3   OH2 7367   3.194   5.406   2.793 -0.4085 -0.0728 -0.4895
 2454TIP3    H1 7368   3.171   5.442   2.707 -1.0292  0.1187 -0.2537
 2454TIP3    H2 7369   3.244   5.327   2.774 -1.7857 -0.8493 -1.0662
 2455TIP3   OH2 7370   1.836   0.784   4.815 -0.5605  0.5907 -0.8020
 2455TIP3    H1 7371   1.813   0.852   4.878 -0.7280 -0.0473 -0.1638
 2455TIP3    H2 7372   1.904   0.824   4.760 -0.2260  1.0589 -0.0576
 2456TIP3   OH2 7373   3.946   3.772   0.672 -0.2592 -0.2128  0.1830
 2456TIP3    H1 7374   3.905   3.740   0.753  0.5832 -1.0328  0.3061
 2456TIP3    H2 7375   4.033   3.732   0.673 -0.4361 -0.6749 -1.4040
 2457TIP3   OH2 7376   4.403   0.053   3.940 -0.3833  0.1224 -0.6685
 2457TIP3    H1 7377   4.379   0.015   3.856  0.3088 -1.5342 -0.1591
 2457TIP3    H2 7378   4.469   0.119   3.919 -0.9757  0.4643 -1.5021
 2458TIP3   OH2 7379   3.893   2.349   5.071 -0.0178  0.0794 -0.6522
 2458TIP3    H1 7380   3.910   2.443   5.072 -0.6383  0.2094  0.7821
 2458TIP3    H2 7381   3.954   2.312   5.135  1.5867 -0.8004 -2.6067
 2459TIP3   OH2 7382   6.166   4.373   0.689  0.2547 -0.4202 -0.3237
 2459TIP3    H1 7383   6.097   4.414   0.637 -0.3020  0.1141  0.8071
 2459TIP3    H2 7384   6.247   4.418   0.663 -0.4252  1.9499  1.3805
 2460TIP3   OH2 7385   3.601   3.416   4.407  0.2980 -0.3456 -0.1251
 2460TIP3    H1 7386   3.527   3.364   4.438  0.1970 -0.0680  0.1115
 2460TIP3    H2 7387   3.673   3.391   4.464  0.5288 -1.0146 -0.7055
 2461TIP3   OH2 7388   5.746   4.710   2.342  0.0012  0.0094 -0.4988
 2461TIP3    H1 7389   5.778   4.800   2.336  0.8309 -0.1927  0.5613
 2461TIP3    H2 7390   5.664   4.710   2.292  1.0543  0.8317 -2.3360
 2462TIP3   OH2 7391   4.218   4.134   0.131  0.5744 -0.1278  0.1718
 2462TIP3    H1 7392   4.307   4.123   0.097  0.8940 -1.3912  1.3537
 2462TIP3    H2 7393   4.215   4.225   0.161  0.9210  0.4101 -1.3336
 2463TIP3   OH2 7394   1.905   0.708   0.739 -0.2777 -0.3777 -0.4670
 2463TIP3    H1 7395   1.950   0.735   0.819  1.3817  1.2453 -1.8338
 2463TIP3    H2 7396   1.815   0.689   0.766  0.4844 -0.8756  1.9040
 2464TIP3   OH2 7397   5.405   4.423   3.708  0.0782  0.4305  0.2402
 2464TIP3    H1 7398   5.418   4.486   3.638  2.6346  1.6838  1.6936
 2464TIP3    H2 7399   5.408   4.338   3.666 -0.3451  1.1822 -1.3709
 2465TIP3   OH2 7400   2.818   1.218   0.959 -0.1909 -0.1306 -0.4099
 2465TIP3    H1 7401   2.745   1.159   0.977 -0.2185 -0.1778 -0.6610
 2465TIP3    H2 7402   2.889   1.188   1.016 -0.6597  0.5002  0.5197
 2466TIP3   OH2 7403   1.453   4.757   2.266  0.2535 -0.0962  0.0023
 2466TIP3    H1 7404   1.429   4.839   2.309 -1.4000  1.7308 -3.8404
 2466TIP3    H2 7405   1.548   4.758   2.264  0.3335  0.4792  2.0846
 2467TIP3   OH2 7406   2.613   0.974   2.264 -0.4525  0.1014 -0.1076
 2467TIP3    H1 7407   2.555   1.023   2.205 -1.0559  1.5304  1.5835
 2467TIP3    H2 7408   2.692   1.027   2.270  0.6479 -1.2801 -1.5133
 2468TIP3   OH2 7409   4.991   0.943   0.852  0.1682 -0.0577  0.4362
 2468TIP3    H1 7410   5.002   0.980   0.940  0.5780  0.5873  0.1217
 2468TIP3    H2 7411   4.900   0.964   0.829 -0.3030 -1.2011  1.1306
 2469TIP3   OH2 7412   4.520   2.364   1.845  0.4959 -0.4919  0.3552
 2469TIP3    H1 7413   4.460   2.351   1.772 -1.0758 -0.6322  1.6045
 2469TIP3    H2 7414   4.467   2.409   1.911  2.0973  0.3572  1.1054
 2470TIP3   OH2 7415   0.500   5.455   0.641 -0.1556 -0.2275 -0.1722
 2470TIP3    H1 7416   0.537   5.492   0.721  0.2254  1.0281 -0.9041
 2470TIP3    H2 7417   0.415   5.421   0.667 -0.2310  0.5816  0.6762
 2471TIP3   OH2 7418   4.853   1.382   2.833 -0.2138  0.4011  0.0334
 2471TIP3    H1 7419   4.824   1.455   2.887 -1.7538  1.7748 -2.4797
 2471TIP3    H2 7420   4.777   1.325   2.828  0.3060 -0.3265  0.2407
 2472TIP3   OH2 7421   4.897   4.868   1.078 -0.4412  0.2276 -0.0576
 2472TIP3    H1 7422   4.981   4.914   1.080 -0.0638 -0.1305 -2.9405
 2472TIP3    H2 7423   4.858   4.895   0.995 -2.4530 -0.8713  0.4860
 2473TIP3   OH2 7424   1.206   3.839   5.077  0.0644 -0.2425 -0.3694
 2473TIP3    H1 7425   1.134   3.843   5.139 -0.6341  1.2046 -1.2104
 2473TIP3    H2 7426   1.170   3.794   5.000  0.3130 -0.2619 -0.4779
 2474TIP3   OH2 7427   6.269   0.360   0.129  0.3475 -0.4494 -0.2164
 2474TIP3    H1 7428   6.343   0.404   0.087  0.2440  0.1431  0.2084
 2474TIP3    H2 7429   6.303   0.274   0.154  0.7742 -0.3315 -0.3840
 2475TIP3   OH2 7430   1.869   5.298   2.754 -0.7348  0.2297  0.0634
 2475TIP3    H1 7431   1.818   5.378   2.738 -0.6555 -0.0670 -1.9051
 2475TIP3    H2 7432   1.949   5.311   2.703  0.0236 -0.4180  1.0569
 2476TIP3   OH2 7433   0.754   5.073   1.867 -0.0192  0.0223 -0.0436
 2476TIP3    H1 7434   0.689   5.085   1.797 -0.3288  0.7949  0.3626
 2476TIP3    H2 7435   0.707   5.094   1.947  1.2122  2.5991  0.1000
 2477TIP3   OH2 7436   3.486   3.668   0.033 -0.5659 -0.4782 -0.0183
 2477TIP3    H1 7437   3.518   3.749  -0.007 -0.4358  0.8242  2.5481
 2477TIP3    H2 7438   3.565   3.620   0.057 -0.6424 -1.4370 -1.5626
 2478TIP3   OH2 7439   2.870   4.777   1.254 -0.7169 -0.3108 -0.1149
 2478TIP3    H1 7440   2.949   4.730   1.228 -0.4918  0.3289 -0.6220
 2478TIP3    H2 7441   2.848   4.741   1.340  0.8442  0.3841  0.6111
 2479TIP3   OH2 7442   5.873   2.983   1.894 -0.4623  0.9517  0.4460
 2479TIP3    H1 7443   5.794   2.951   1.938 -0.7083 -0.2565 -0.8098
 2479TIP3    H2 7444   5.840   3.043   1.827 -0.1745  1.8071  1.0528
 2480TIP3   OH2 7445   5.416   0.381   2.252 -0.2880  0.0242  0.4651
 2480TIP3    H1 7446   5.456   0.444   2.193  2.7124 -1.2313  1.0040
 2480TIP3    H2 7447   5.374   0.317   2.194 -1.1233  1.0718 -0.1255
 2481TIP3   OH2 7448   3.362   2.574   1.863 -0.3734 -0.2789  0.0940
 2481TIP3    H1 7449   3.318   2.645   1.817  0.0983 -0.4459 -0.6455
 2481TIP3    H2 7450   3.454   2.584   1.838 -0.1646 -0.5928  0.7241
 2482TIP3   OH2 7451   2.204   5.957   0.515  0.0618 -0.1452  0.5316
 2482TIP3    H1 7452   2.139   6.027   0.522 -0.5280 -0.7164  0.9973
 2482TIP3    H2 7453   2.165   5.884   0.564  1.9080  0.0974  2.4586
 2483TIP3   OH2 7454   3.162   5.391   1.011 -0.1647 -0.5364 -0.3283
 2483TIP3    H1 7455   3.076   5.406   0.973  0.4106 -0.2755 -1.5670
 2483TIP3    H2 7456   3.176   5.297   1.004 -0.4882 -0.6284  0.2067
 2484TIP3   OH2 7457   6.247   2.863   2.087 -0.2785  0.2284 -0.0830
 2484TIP3    H1 7458   6.337   2.830   2.100 -0.5384  0.0817  1.7012
 2484TIP3    H2 7459   6.192   2.799   2.132 -1.2179  0.7201 -0.5122
 2485TIP3   OH2 7460   4.478   5.527   0.307 -0.2510 -0.1333 -0.0098
 2485TIP3    H1 7461   4.430   5.489   0.233 -1.1086  1.2204 -0.1745
 2485TIP3    H2 7462   4.422   5.596   0.340 -0.2069 -1.1563  2.4178
 2486TIP3   OH2 7463   3.331   2.171   2.899  0.3165 -0.5008 -0.0090
 2486TIP3    H1 7464   3.259   2.141   2.954  0.3068 -0.5978 -0.0754
 2486TIP3    H2 7465   3.409   2.151   2.951  0.3812 -1.6152 -0.4907
 2487TIP3   OH2 7466   2.762   3.191   2.023 -0.7633  0.8376  0.1975
 2487TIP3    H1 7467   2.725   3.269   1.980  0.2589  0.4905 -1.4056
 2487TIP3    H2 7468   2.855   3.209   2.030 -0.4074 -0.4639 -0.7755
 2488TIP3   OH2 7469   6.035   4.281   0.410  0.0604 -0.2301 -0.5330
 2488TIP3    H1 7470   5.986   4.333   0.474 -0.8723  0.1731 -1.5312
 2488TIP3    H2 7471   6.031   4.192   0.444  1.1337  0.2157  0.8779
 2489TIP3   OH2 7472   5.229   0.859   0.760  0.3954 -0.0412  0.3384
 2489TIP3    H1 7473   5.163   0.882   0.826  0.3365 -1.6676  0.8953
 2489TIP3    H2 7474   5.206   0.912   0.684 -0.6272  0.5496  1.0355
 2490TIP3   OH2 7475   1.471   1.502   3.607 -0.2566 -0.2261  0.2339
 2490TIP3    H1 7476   1.469   1.517   3.701 -0.9860 -1.1092  0.3784
 2490TIP3    H2 7477   1.481   1.407   3.598  0.3137 -0.0972 -0.5802
 2491TIP3   OH2 7478   3.870   0.437   3.797 -0.3473 -0.2550 -0.1191
 2491TIP3    H1 7479   3.884   0.531   3.790 -1.5825 -0.0823 -0.6308
 2491TIP3    H2 7480   3.956   0.400   3.815 -0.1497  1.1571  2.1250
 2492TIP3   OH2 7481   0.711   2.222   2.816 -0.2301 -0.1467  0.8521
 2492TIP3    H1 7482   0.640   2.183   2.766  0.6766  0.3540 -0.8865
 2492TIP3    H2 7483   0.767   2.148   2.840  0.4361 -0.1917 -0.7288
 2493TIP3   OH2 7484   5.769   1.739   2.392  0.1634  0.1290 -0.3277
 2493TIP3    H1 7485   5.773   1.724   2.298 -1.2537  1.2110 -0.5899
 2493TIP3    H2 7486   5.694   1.688   2.421  0.2685  0.2333  0.1360
 2494TIP3   OH2 7487   3.061   2.416   2.434  0.5242  0.2243  0.0437
 2494TIP3    H1 7488   2.975   2.442   2.401  0.2434  0.6272  1.0584
 2494TIP3    H2 7489   3.042   2.354   2.505  1.1426 -1.4388 -1.1743
 2495TIP3   OH2 7490   1.067   2.736   3.343  0.1868  0.0394 -0.3293
 2495TIP3    H1 7491   1.056   2.704   3.432 -0.4792  1.8827  0.2951
 2495TIP3    H2 7492   0.992   2.699   3.295 -1.0143  1.2354  0.5620
 2496TIP3   OH2 7493   3.284   0.668   2.279 -0.2567  0.2811  0.3670
 2496TIP3    H1 7494   3.197   0.649   2.316  0.7946 -2.6095  1.6132
 2496TIP3    H2 7495   3.315   0.744   2.330 -1.4811  0.4731  0.8699
 2497TIP3   OH2 7496   1.609   3.241   2.352  0.3995 -0.7080 -0.5072
 2497TIP3    H1 7497   1.650   3.159   2.328  0.9155 -0.8217  0.6902
 2497TIP3    H2 7498   1.517   3.231   2.326  0.5291 -1.5433 -0.6556
 2498TIP3   OH2 7499   3.296   1.908   2.714 -0.1752  0.3032  0.2359
 2498TIP3    H1 7500   3.273   2.000   2.727 -0.6542  0.2814 -0.4039
 2498TIP3    H2 7501   3.225   1.872   2.661 -0.3348 -0.6169  1.0532
 2499TIP3   OH2 7502   0.114   3.752   4.970 -0.3680  0.0725 -0.5142
 2499TIP3    H1 7503   0.171   3.794   4.906 -2.2704  2.3132 -0.8661
 2499TIP3    H2 7504   0.108   3.661   4.941  0.4087  0.5598 -2.3358
 2500TIP3   OH2 7505   6.134   3.688   3.184 -0.1804 -0.1949  0.3558
 2500TIP3    H1 7506   6.152   3.757   3.120 -0.2096 -1.4540 -1.0770
 2500TIP3    H2 7507   6.039   3.689   3.193 -0.1626  0.1063  0.5233
 2501TIP3   OH2 7508   5.643   4.062   2.165 -0.0592 -0.0954 -0.2821
 2501TIP3    H1 7509   5.548   4.071   2.158 -0.1287 -0.3056  0.3864
 2501TIP3    H2 7510   5.657   4.010   2.244  0.5597 -1.3351 -1.1850
 2502TIP3   OH2 7511   1.865   3.709   3.348  0.2391  0.0478  0.1670
 2502TIP3    H1 7512   1.946   3.742   3.308  0.1778 -0.0346 -0.0286
 2502TIP3    H2 7513   1.796   3.764   3.311  0.0351 -0.8055 -0.8084
 2503TIP3   OH2 7514   3.101   4.106   3.561  0.6306 -0.1025  0.7631
 2503TIP3    H1 7515   3.014   4.068   3.546  0.1616  1.6364 -1.4374
 2503TIP3    H2 7516   3.090   4.160   3.640  0.2624 -1.3198  1.5799
 2504TIP3   OH2 7517   4.635   1.220   2.855 -0.1456 -0.4082 -0.5609
 2504TIP3    H1 7518   4.589   1.136   2.853  0.2359 -0.6374  0.0443
 2504TIP3    H2 7519   4.642   1.241   2.948  1.8754 -0.8845 -0.5539
 2505TIP3   OH2 7520   1.093   5.684   1.367 -0.3604 -0.1792  0.5055
 2505TIP3    H1 7521   1.048   5.734   1.435  0.4467 -1.6011  2.1440
 2505TIP3    H2 7522   1.186   5.701   1.381 -0.2042  2.0353 -2.3038
 2506TIP3   OH2 7523   5.892   1.482   1.275  0.2304  0.0095 -0.1375
 2506TIP3    H1 7524   5.955   1.522   1.335 -0.5618  0.1813  0.5921
 2506TIP3    H2 7525   5.882   1.547   1.205 -1.4202  1.3694  1.2857
 2507TIP3   OH2 7526   0.495   5.403   1.582  0.0516 -0.5379  0.0484
 2507TIP3    H1 7527   0.474   5.486   1.625  0.8112 -0.5260  0.4136
 2507TIP3    H2 7528   0.435   5.399   1.508 -0.5519 -0.0506  0.4948
 2508TIP3   OH2 7529   1.740   3.653   1.864  0.7976  0.1393  0.3999
 2508TIP3    H1 7530   1.737   3.728   1.804  1.0888  0.9592  1.3759
 2508TIP3    H2 7531   1.798   3.590   1.821 -1.2505 -0.5534 -1.5317
 2509TIP3   OH2 7532   1.000   2.095   3.632 -0.2866  0.2536  0.3685
 2509TIP3    H1 7533   0.967   2.172   3.679 -0.3518 -0.0330  0.7899
 2509TIP3    H2 7534   0.979   2.113   3.540  0.3910  1.1033  0.3568
 2510TIP3   OH2 7535   4.844   0.941   2.896 -0.9599  0.2023 -0.2595
 2510TIP3    H1 7536   4.801   0.975   2.975  0.5849 -1.6647  1.5158
 2510TIP3    H2 7537   4.865   1.019   2.845 -1.9383  1.5075  1.2267
 2511TIP3   OH2 7538   2.152   5.475   3.693 -0.0261  0.1415  0.9860
 2511TIP3    H1 7539   2.208   5.541   3.733  2.1089 -1.0816  0.1664
 2511TIP3    H2 7540   2.101   5.439   3.766 -0.6290  2.0765  1.5649
 2512TIP3   OH2 7541   1.514   0.628   4.403 -1.1006 -0.6578  0.1397
 2512TIP3    H1 7542   1.574   0.614   4.477 -1.1532 -0.7114  0.1725
 2512TIP3    H2 7543   1.552   0.577   4.331 -1.7320 -1.6581  0.4882
 2513TIP3   OH2 7544   0.859   5.001   1.308 -0.5532  0.3500  0.1101
 2513TIP3    H1 7545   0.920   5.023   1.238 -2.6380  1.7782 -1.4089
 2513TIP3    H2 7546   0.914   4.975   1.382  1.8763  2.3601 -0.8629
 2514TIP3   OH2 7547   3.095   1.056   0.346 -0.4527  0.1548 -1.1587
 2514TIP3    H1 7548   3.146   1.132   0.316  1.3127 -0.1009  0.9103
 2514TIP3    H2 7549   3.123   0.984   0.290  1.2050  0.1273 -0.3473
 2515TIP3   OH2 7550   4.574   5.611   2.075  0.2318 -0.0741  0.5257
 2515TIP3    H1 7551   4.577   5.549   2.002  1.0029 -0.1413  0.6048
 2515TIP3    H2 7552   4.537   5.691   2.037 -1.3377 -0.7348  0.5549
 2516TIP3   OH2 7553   5.244   1.897   0.594 -0.7998 -0.1878  0.0798
 2516TIP3    H1 7554   5.149   1.903   0.601 -0.8692  0.0986 -0.9811
 2516TIP3    H2 7555   5.274   1.988   0.595 -0.6258 -0.2317 -0.6186
 2517TIP3   OH2 7556   4.674   0.958   4.295  0.0433  0.2947 -0.8869
 2517TIP3    H1 7557   4.730   1.032   4.273  2.1962 -0.6684  0.9361
 2517TIP3    H2 7558   4.585   0.990   4.280  0.9018  3.1110 -0.5435
 2518TIP3   OH2 7559   6.065   3.454   0.159 -0.1332  0.1708  0.3272
 2518TIP3    H1 7560   6.115   3.529   0.192 -0.9915  1.0068 -0.2249
 2518TIP3    H2 7561   6.129   3.383   0.154  1.1164  1.3114 -0.7611
 2519TIP3   OH2 7562   1.396   5.459   3.686  0.4663 -0.3258 -0.2956
 2519TIP3    H1 7563   1.324   5.522   3.684 -1.1135 -1.9550  1.3590
 2519TIP3    H2 7564   1.474   5.512   3.703 -0.5516  1.3373 -0.6185
 2520TIP3   OH2 7565   0.746   4.896   3.788 -0.5079  0.2127 -0.4629
 2520TIP3    H1 7566   0.792   4.903   3.871 -1.0584  3.5668 -0.3044
 2520TIP3    H2 7567   0.654   4.911   3.810 -1.3079 -2.7480 -1.2645
 2521TIP3   OH2 7568   1.689   0.266   1.467  0.4596 -0.2392 -0.2526
 2521TIP3    H1 7569   1.716   0.315   1.389 -1.4132  2.8402  0.8278
 2521TIP3    H2 7570   1.637   0.193   1.432 -2.0728  2.1862 -2.0216
 2522TIP3   OH2 7571   2.894   5.196   4.443  0.0170 -0.1745 -0.5393
 2522TIP3    H1 7572   2.864   5.106   4.452  0.8944 -0.5224 -1.0310
 2522TIP3    H2 7573   2.845   5.230   4.368 -3.9488  1.3329  2.3480
 2523TIP3   OH2 7574   3.766   3.120   2.092  0.1110 -0.0554 -0.1297
 2523TIP3    H1 7575   3.796   3.044   2.041  0.8731 -0.7828  1.3420
 2523TIP3    H2 7576   3.795   3.196   2.041 -0.8465 -0.7147 -1.7330
 2524TIP3   OH2 7577   5.441   0.277   0.765  0.3016 -0.2871  0.2160
 2524TIP3    H1 7578   5.472   0.329   0.691 -0.2296  2.5136  1.8089
 2524TIP3    H2 7579   5.498   0.302   0.838 -0.2685 -1.6643  1.1798
 2525TIP3   OH2 7580   1.690   4.105   2.657  0.5616 -0.3588 -0.4488
 2525TIP3    H1 7581   1.785   4.091   2.659  0.2989 -2.5777  0.1257
 2525TIP3    H2 7582   1.654   4.017   2.663 -1.5566  0.4011 -1.3327
 2526TIP3   OH2 7583   2.579   5.380   0.987 -0.4583 -0.2410  0.2683
 2526TIP3    H1 7584   2.495   5.383   0.940 -0.3845  3.1855  0.0928
 2526TIP3    H2 7585   2.631   5.316   0.939 -1.1552  1.5000 -3.1326
 2527TIP3   OH2 7586   4.316   5.409   0.100  0.1625  0.7248  0.5985
 2527TIP3    H1 7587   4.309   5.323   0.061  0.4493  1.0748 -0.2453
 2527TIP3    H2 7588   4.228   5.429   0.132 -0.0220  0.3432  0.3236
 2528TIP3   OH2 7589   3.069   3.145   3.564 -0.1993  0.7062 -0.2242
 2528TIP3    H1 7590   3.136   3.189   3.616 -2.0134  2.0666  1.1051
 2528TIP3    H2 7591   3.008   3.215   3.540 -1.6899 -0.6257 -0.4740
 2529TIP3   OH2 7592   0.908   1.624   2.188  0.1139 -0.5856 -0.3868
 2529TIP3    H1 7593   0.872   1.613   2.100 -0.7391 -2.2856  0.1262
 2529TIP3    H2 7594   0.883   1.713   2.213  0.2025 -0.1483 -1.7791
 2530TIP3   OH2 7595   3.347   3.343   0.399  0.8969 -0.2565  0.6650
 2530TIP3    H1 7596   3.408   3.273   0.424 -0.0381 -0.3412  2.9801
 2530TIP3    H2 7597   3.294   3.305   0.329  1.8312 -1.0762  0.3797
 2531TIP3   OH2 7598   3.321   2.448   2.366  0.0610  0.1923  0.2893
 2531TIP3    H1 7599   3.347   2.404   2.285  2.0297 -0.6149  1.2880
 2531TIP3    H2 7600   3.226   2.447   2.364 -0.0131  1.5356 -2.7015
 2532TIP3   OH2 7601   1.789   4.660   0.874 -0.1029  0.4613  0.6461
 2532TIP3    H1 7602   1.841   4.637   0.952  1.8572  2.8632  0.1787
 2532TIP3    H2 7603   1.839   4.626   0.801 -0.8594  0.0581  0.3042
 2533TIP3   OH2 7604   2.484   3.051   1.052 -0.2614  0.5683  0.5083
 2533TIP3    H1 7605   2.501   2.958   1.066 -1.2051  0.2945 -0.1408
 2533TIP3    H2 7606   2.571   3.090   1.048  0.1589 -0.3670  0.2233
 2534TIP3   OH2 7607   5.719   6.002   2.689  0.0555 -0.3900 -0.4479
 2534TIP3    H1 7608   5.764   5.917   2.693  0.4882 -0.2040 -1.1896
 2534TIP3    H2 7609   5.627   5.980   2.674 -0.4549 -0.8525  2.7086
 2535TIP3   OH2 7610   3.384   2.098   0.593 -0.0915  0.4062  0.1110
 2535TIP3    H1 7611   3.316   2.050   0.641  0.0219  0.6355  0.5052
 2535TIP3    H2 7612   3.456   2.106   0.655 -0.5912  2.2162  0.5124
 2536TIP3   OH2 7613   0.042   5.842   5.018  0.5204 -0.1031  0.1063
 2536TIP3    H1 7614   0.089   5.768   4.977  2.0149 -0.1584  1.8066
 2536TIP3    H2 7615   0.098   5.917   5.001  0.8829 -0.0294  1.5141
 2537TIP3   OH2 7616   0.760   2.797   2.252 -0.1104  0.0321 -0.0303
 2537TIP3    H1 7617   0.675   2.762   2.225  0.0679 -0.1662 -0.3323
 2537TIP3    H2 7618   0.824   2.742   2.207  0.1924 -0.3518  0.8349
 2538TIP3   OH2 7619   1.940   2.343   1.583 -0.9419  0.4489  0.2200
 2538TIP3    H1 7620   1.987   2.263   1.556  0.5628  1.6727 -1.0090
 2538TIP3    H2 7621   2.003   2.389   1.639 -1.8762  0.7048  1.0799
 2539TIP3   OH2 7622   1.378   0.682   2.443 -0.6185  0.0699 -0.3795
 2539TIP3    H1 7623   1.376   0.649   2.353  1.9055 -0.0164 -0.5012
 2539TIP3    H2 7624   1.430   0.616   2.490  1.0399  1.7866  0.3118
 2540TIP3   OH2 7625   0.808   4.885   3.047 -0.7461  0.3908 -0.7521
 2540TIP3    H1 7626   0.742   4.868   2.980 -1.8757  0.2094  0.3680
 2540TIP3    H2 7627   0.802   4.810   3.106  0.8661  0.0941 -0.9165
 2541TIP3   OH2 7628   4.571   1.049   0.267  0.4906 -0.3124  0.3994
 2541TIP3    H1 7629   4.510   1.001   0.322  0.5419 -1.3056 -0.3871
 2541TIP3    H2 7630   4.533   1.137   0.261 -0.8503 -0.8940 -0.0241
 2542TIP3   OH2 7631   0.764   2.760   4.095  0.1538  0.0618  0.1837
 2542TIP3    H1 7632   0.726   2.734   4.178 -0.0604 -2.2109 -0.5602
 2542TIP3    H2 7633   0.834   2.822   4.118 -1.7202  1.6964  1.7944
 2543TIP3   OH2 7634   1.345   1.051   2.188 -0.8268  0.4175  0.2595
 2543TIP3    H1 7635   1.423   1.024   2.237 -1.4007 -3.1275 -0.5263
 2543TIP3    H2 7636   1.380   1.086   2.105 -0.0515 -0.4647  0.1985
 2544TIP3   OH2 7637   2.329   5.092   4.503 -0.3955 -0.0420 -0.1129
 2544TIP3    H1 7638   2.409   5.136   4.530 -0.0790  0.2745 -1.5012
 2544TIP3    H2 7639   2.282   5.075   4.585  0.2613  1.3415  0.5759
 2545TIP3   OH2 7640   0.419   3.442   1.160  0.2524 -0.5063  0.1480
 2545TIP3    H1 7641   0.351   3.468   1.222  0.3429  0.1094 -0.0052
 2545TIP3    H2 7642   0.468   3.374   1.206  0.9866  0.6834  1.1951
 2546TIP3   OH2 7643   1.391   3.905   3.237  0.3380  0.6930  0.4013
 2546TIP3    H1 7644   1.406   3.968   3.167 -2.5580  2.7265  1.4107
 2546TIP3    H2 7645   1.444   3.937   3.310  1.2460  0.1487 -0.0106
 2547TIP3   OH2 7646   6.044   4.000   4.569 -1.0567  0.2679  0.0173
 2547TIP3    H1 7647   6.011   3.911   4.562 -1.0022  0.3082 -0.7983
 2547TIP3    H2 7648   5.996   4.037   4.644  0.1565 -0.9543  1.4523
 2548TIP3   OH2 7649   3.308   2.296   4.208 -0.0610  0.5859  0.3372
 2548TIP3    H1 7650   3.222   2.289   4.250  0.8764  0.6626  2.3799
 2548TIP3    H2 7651   3.291   2.342   4.126 -2.2463 -1.1120 -0.2799
 2549TIP3   OH2 7652   4.902   2.668   4.565  0.2445  0.1189 -0.0801
 2549TIP3    H1 7653   4.840   2.613   4.516 -2.7061  2.3044  0.9142
 2549TIP3    H2 7654   4.960   2.606   4.607 -2.5680 -2.2989  0.5800
 2550TIP3   OH2 7655   1.871   1.477   2.956 -0.0115 -0.0926 -0.2847
 2550TIP3    H1 7656   1.950   1.523   2.986 -0.3409  1.3823 -1.5467
 2550TIP3    H2 7657   1.900   1.428   2.879 -0.1235 -0.3984 -0.1377
 2551TIP3   OH2 7658   6.291   1.807   4.067 -0.2853 -0.1297 -0.2415
 2551TIP3    H1 7659   6.345   1.782   4.143  2.5234  2.0708 -1.3249
 2551TIP3    H2 7660   6.306   1.737   4.004 -0.9164 -0.8800  0.4089
 2552TIP3   OH2 7661   2.734   5.606   3.440  0.1761 -0.4376  0.7346
 2552TIP3    H1 7662   2.723   5.521   3.396  0.3814 -0.1610  0.1432
 2552TIP3    H2 7663   2.768   5.664   3.372 -2.0139  0.7130  0.5055
 2553TIP3   OH2 7664   0.534   3.091   1.566  0.3745  0.3798  0.3100
 2553TIP3    H1 7665   0.594   3.156   1.602  0.2173 -0.4583  2.2098
 2553TIP3    H2 7666   0.571   3.068   1.481  0.7384  2.4991 -0.1678
 2554TIP3   OH2 7667   1.648   3.016   1.905 -0.1325 -0.3438  0.4614
 2554TIP3    H1 7668   1.575   3.059   1.950  0.4093 -0.4651  1.4945
 2554TIP3    H2 7669   1.720   3.078   1.912  0.5680 -1.2415  1.6865
 2555TIP3   OH2 7670   1.346   3.956   2.149 -0.4688 -0.1590 -0.2208
 2555TIP3    H1 7671   1.325   3.862   2.146  0.9336 -0.5000 -0.2930
 2555TIP3    H2 7672   1.427   3.960   2.201 -0.0463  0.9144 -0.9355
 2556TIP3   OH2 7673   5.405   5.289   1.443 -0.4903  0.1609 -0.1332
 2556TIP3    H1 7674   5.368   5.206   1.412  1.3876 -0.6225 -0.4222
 2556TIP3    H2 7675   5.459   5.320   1.371 -1.7398  2.0876 -0.3217
 2557TIP3   OH2 7676   1.495   5.721   2.788  0.4458 -0.3744 -0.3313
 2557TIP3    H1 7677   1.529   5.757   2.870  0.7288 -1.5933  0.1034
 2557TIP3    H2 7678   1.417   5.774   2.769  0.5869  0.1565  0.5241
 2558TIP3   OH2 7679   6.189   4.850   4.619 -0.0648  0.3060  0.0114
 2558TIP3    H1 7680   6.210   4.916   4.685 -0.0827 -1.6406  2.1059
 2558TIP3    H2 7681   6.274   4.812   4.596 -0.3068 -0.9938  1.1654
 2559TIP3   OH2 7682   1.723   4.546   2.434  0.4441 -0.2286  0.6192
 2559TIP3    H1 7683   1.637   4.547   2.476  0.2239 -1.1055  0.1997
 2559TIP3    H2 7684   1.762   4.630   2.459  0.1721 -0.5476  2.2645
 2560TIP3   OH2 7685   4.407   0.580   0.089 -0.0089  0.0727  0.3366
 2560TIP3    H1 7686   4.349   0.653   0.112  0.0529  0.5451 -0.9469
 2560TIP3    H2 7687   4.495   0.619   0.087 -0.0976  0.2903 -1.5101
 2561TIP3   OH2 7688   4.100   4.307   4.074 -0.2206  0.3846  0.3043
 2561TIP3    H1 7689   4.104   4.212   4.069 -1.1140  0.3952 -1.0755
 2561TIP3    H2 7690   4.119   4.327   4.166 -0.2587 -1.1282  0.6636
 2562TIP3   OH2 7691   1.403   3.348   2.158 -0.1362  0.0056 -0.4058
 2562TIP3    H1 7692   1.462   3.419   2.133 -0.7022  0.6073 -0.0754
 2562TIP3    H2 7693   1.315   3.386   2.149 -0.4573 -0.7388 -0.4849
 2563TIP3   OH2 7694   0.297   3.256   4.757  0.0574  0.1876 -0.2217
 2563TIP3    H1 7695   0.244   3.176   4.763 -0.5570  0.6389  0.5427
 2563TIP3    H2 7696   0.246   3.314   4.701  0.6020 -0.0232 -0.9470
 2564TIP3   OH2 7697   3.565   0.873   3.619 -0.3655 -0.2419 -0.1240
 2564TIP3    H1 7698   3.477   0.845   3.593 -0.2464 -0.1759 -0.5984
 2564TIP3    H2 7699   3.622   0.802   3.591 -0.3114 -0.4819  0.5688
 2565TIP3   OH2 7700   5.741   0.887   4.327  0.4815 -0.1225 -0.2679
 2565TIP3    H1 7701   5.719   0.817   4.388 -1.0436  1.2928  0.9147
 2565TIP3    H2 7702   5.688   0.869   4.249  0.9534 -0.8702 -0.4249
 2566TIP3   OH2 7703   4.857   3.263   4.784  0.1504  0.2629 -0.1935
 2566TIP3    H1 7704   4.769   3.267   4.746  0.5074 -1.7955 -1.3642
 2566TIP3    H2 7705   4.882   3.355   4.797 -1.5476  0.9196 -1.3076
 2567TIP3   OH2 7706   1.351   0.754   1.440 -0.4293 -0.1997  0.0579
 2567TIP3    H1 7707   1.258   0.741   1.460 -0.5595 -1.3132 -1.1326
 2567TIP3    H2 7708   1.393   0.672   1.465  0.0648 -0.0821 -0.3662
 2568TIP3   OH2 7709   5.185   3.624   1.451  0.7401  0.2079 -0.6236
 2568TIP3    H1 7710   5.177   3.534   1.480 -1.3269  0.9824  1.4625
 2568TIP3    H2 7711   5.100   3.645   1.413  1.0714  1.3702 -0.7648
 2569TIP3   OH2 7712   3.892   3.657   4.828  0.1995 -0.4444 -0.0094
 2569TIP3    H1 7713   3.957   3.671   4.897  1.6251  1.1369 -1.6028
 2569TIP3    H2 7714   3.809   3.650   4.875  1.1617  0.2741  1.8841
 2570TIP3   OH2 7715   3.065   4.349   2.524 -0.1083  0.1373 -0.6009
 2570TIP3    H1 7716   3.031   4.429   2.564 -0.8126  1.1383 -2.9896
 2570TIP3    H2 7717   3.160   4.354   2.539 -0.2779  0.7574  0.3786
 2571TIP3   OH2 7718   2.448   2.809   5.140  0.4718  0.4167  0.7874
 2571TIP3    H1 7719   2.366   2.803   5.189 -0.9360  2.7511 -1.0923
 2571TIP3    H2 7720   2.456   2.724   5.096 -0.2348 -0.2890  1.9644
 2572TIP3   OH2 7721   4.605   1.286   0.503 -0.5731  0.5965 -0.9982
 2572TIP3    H1 7722   4.553   1.332   0.569 -2.7292  0.8328 -2.7194
 2572TIP3    H2 7723   4.593   1.193   0.523  0.6509  0.6683  0.2195
 2573TIP3   OH2 7724   0.469   5.098   2.714  0.1900  0.0133 -0.0416
 2573TIP3    H1 7725   0.464   5.174   2.656  0.5484  1.5223  1.7919
 2573TIP3    H2 7726   0.393   5.045   2.691  2.0192 -1.2241 -4.0978
 2574TIP3   OH2 7727   5.685   1.244   2.901 -0.4285  0.2831  0.0691
 2574TIP3    H1 7728   5.754   1.189   2.864 -0.1168 -0.6352  1.9202
 2574TIP3    H2 7729   5.616   1.183   2.924 -1.5216  1.0984 -0.9243
 2575TIP3   OH2 7730   2.669   2.141   0.325 -0.0487  0.5760  0.0365
 2575TIP3    H1 7731   2.589   2.090   0.337  0.4510 -0.3459 -0.4309
 2575TIP3    H2 7732   2.640   2.224   0.288 -0.8290  0.4392  0.3191
 2576TIP3   OH2 7733   1.406   4.482   1.225  0.0807  0.5987 -0.0057
 2576TIP3    H1 7734   1.501   4.490   1.219  0.1829 -0.5504 -0.2437
 2576TIP3    H2 7735   1.380   4.545   1.291  1.0937  0.4596  0.5378
 2577TIP3   OH2 7736   1.319   2.637   0.266  0.2815 -0.0652 -0.0244
 2577TIP3    H1 7737   1.278   2.647   0.180 -1.5499 -1.3959  0.6423
 2577TIP3    H2 7738   1.266   2.691   0.325 -0.5979 -1.7870  0.8457
 2578TIP3   OH2 7739   0.869   4.678   1.734 -0.9763 -0.1788 -0.4264
 2578TIP3    H1 7740   0.898   4.603   1.785 -0.8587  0.3629  0.3292
 2578TIP3    H2 7741   0.840   4.642   1.651 -2.7227 -1.2971  0.5974
 2579TIP3   OH2 7742   2.039   4.300   0.787  0.2439 -0.3990 -0.2601
 2579TIP3    H1 7743   2.004   4.224   0.833  1.1051 -0.1949  0.7701
 2579TIP3    H2 7744   2.134   4.289   0.792  0.3611  0.0556 -1.2961
 2580TIP3   OH2 7745   2.825   4.721   2.318 -0.1750  0.4425  0.3456
 2580TIP3    H1 7746   2.766   4.794   2.338 -0.6852  0.7883 -2.0472
 2580TIP3    H2 7747   2.809   4.658   2.387 -1.2338  1.7543  1.3606
 2581TIP3   OH2 7748   5.658   1.667   1.892 -0.3239 -0.3996 -0.2863
 2581TIP3    H1 7749   5.624   1.722   1.821  0.0724 -1.1420 -1.0704
 2581TIP3    H2 7750   5.667   1.580   1.852 -2.3256 -1.4221  1.2962
 2582TIP3   OH2 7751   0.564   2.846   3.704 -0.2879  0.1746 -0.1316
 2582TIP3    H1 7752   0.639   2.787   3.696 -0.7654 -0.3965 -0.4291
 2582TIP3    H2 7753   0.511   2.829   3.626 -0.5063  0.8885 -0.1437
 2583TIP3   OH2 7754   1.362   2.177   3.060 -0.4346 -0.2818  0.8411
 2583TIP3    H1 7755   1.315   2.198   2.980  0.7143 -1.0240 -0.0751
 2583TIP3    H2 7756   1.300   2.194   3.131 -1.1688  1.2814 -0.1311
 2584TIP3   OH2 7757   1.794   5.141   1.237  0.1996 -0.4811  0.1598
 2584TIP3    H1 7758   1.794   5.085   1.314  1.0007 -0.6469  0.0502
 2584TIP3    H2 7759   1.703   5.141   1.207 -0.2333  0.0382  1.4174
 2585TIP3   OH2 7760   5.595   1.197   5.070  0.6411 -0.6684 -0.7865
 2585TIP3    H1 7761   5.679   1.152   5.063  0.1329 -2.0749  1.4113
 2585TIP3    H2 7762   5.597   1.241   5.155 -0.6359 -0.2659 -0.9378
 2586TIP3   OH2 7763   3.075   1.693   1.105 -0.3867 -0.1034  0.5840
 2586TIP3    H1 7764   3.114   1.740   1.179  1.0842 -2.9559  1.7937
 2586TIP3    H2 7765   3.072   1.601   1.134  1.0666 -1.5276 -3.2059
 2587TIP3   OH2 7766   4.256   3.612   0.964 -0.2827  0.3601  0.0133
 2587TIP3    H1 7767   4.202   3.536   0.940  0.3209  0.2377 -1.0458
 2587TIP3    H2 7768   4.346   3.583   0.950 -0.0763  1.7192 -1.9131
 2588TIP3   OH2 7769   6.042   5.103   0.241 -0.8221  0.4850 -0.1612
 2588TIP3    H1 7770   5.952   5.092   0.211  0.5490 -0.2076 -4.6778
 2588TIP3    H2 7771   6.065   5.193   0.218 -0.4272  0.8261  1.4224
 2589TIP3   OH2 7772   5.715   3.805   0.044 -0.2139 -0.4706 -0.1152
 2589TIP3    H1 7773   5.756   3.719   0.058 -0.7777 -0.2441  4.1984
 2589TIP3    H2 7774   5.789   3.864   0.030  0.3751 -1.2676 -0.4652
 2590TIP3   OH2 7775   0.857   2.525   3.317  0.1399  0.0655  0.0551
 2590TIP3    H1 7776   0.933   2.470   3.337  0.3169 -0.3259 -1.6078
 2590TIP3    H2 7777   0.790   2.464   3.289 -0.4267  0.5197  0.3975
 2591TIP3   OH2 7778   1.566   0.777   3.002 -0.4270 -0.1177 -0.3655
 2591TIP3    H1 7779   1.600   0.745   3.086  0.5822  1.5181 -0.1057
 2591TIP3    H2 7780   1.477   0.741   2.998  0.0528 -1.5539  0.6273
 2592TIP3   OH2 7781   3.790   2.094   1.397  0.3433 -0.0920  0.1476
 2592TIP3    H1 7782   3.751   2.149   1.329  3.1065  0.1074 -1.4182
 2592TIP3    H2 7783   3.774   2.004   1.368  1.1229 -0.0111 -0.5568
 2593TIP3   OH2 7784   5.228   0.688   1.624 -0.5844  0.7752 -0.3866
 2593TIP3    H1 7785   5.137   0.718   1.630 -0.6578  0.6551 -0.9178
 2593TIP3    H2 7786   5.274   0.741   1.690 -1.0949  0.6070  0.1212
 2594TIP3   OH2 7787   3.846   4.145   1.723 -0.1008 -0.0436 -0.5339
 2594TIP3    H1 7788   3.770   4.115   1.773  0.4251 -2.1438 -0.8968
 2594TIP3    H2 7789   3.917   4.087   1.750  1.2688  1.5260 -0.6027
 2595TIP3   OH2 7790   1.602   2.978   4.401  0.3557 -0.0818 -0.5969
 2595TIP3    H1 7791   1.681   2.964   4.453  0.6392  0.3456 -0.9028
 2595TIP3    H2 7792   1.555   3.048   4.447 -0.9880 -1.8412  0.8527
 2596TIP3   OH2 7793   1.969   0.499   1.437 -0.4133 -0.3242 -0.0283
 2596TIP3    H1 7794   1.986   0.443   1.514 -0.4521  1.5789  1.4260
 2596TIP3    H2 7795   1.874   0.497   1.427 -0.3824 -0.8580 -0.2680
 2597TIP3   OH2 7796   4.736   3.023   3.571  0.1280  0.4985 -0.0448
 2597TIP3    H1 7797   4.793   2.947   3.584 -0.8016 -0.1639  0.2882
 2597TIP3    H2 7798   4.663   3.009   3.632 -0.6570  1.0407 -0.8299
 2598TIP3   OH2 7799   1.285   5.711   4.743 -0.5422  0.8909  0.2930
 2598TIP3    H1 7800   1.217   5.653   4.778 -1.1385  2.0561  1.1672
 2598TIP3    H2 7801   1.283   5.697   4.649  0.7946 -2.0395  0.6027
 2599TIP3   OH2 7802   1.549   1.600   0.369 -0.1779 -0.5509 -0.5857
 2599TIP3    H1 7803   1.492   1.660   0.321 -1.0994 -1.5158 -0.7366
 2599TIP3    H2 7804   1.634   1.608   0.326 -0.0938  1.1235 -0.1752
 2600TIP3   OH2 7805   2.414   2.723   2.703 -0.0201  0.3167 -0.0914
 2600TIP3    H1 7806   2.332   2.774   2.696 -0.2626  0.3634  2.3169
 2600TIP3    H2 7807   2.407   2.658   2.633 -3.7276 -1.7942  1.8918
 2601TIP3   OH2 7808   5.709   4.515   0.850  0.3379  0.2070 -0.5177
 2601TIP3    H1 7809   5.669   4.476   0.928 -0.0387  1.9548  0.2171
 2601TIP3    H2 7810   5.680   4.459   0.778 -0.3201 -0.7438  0.4455
 2602TIP3   OH2 7811   0.047   0.537   0.521 -0.3364 -0.2850  0.5695
 2602TIP3    H1 7812  -0.007   0.614   0.537 -1.3958 -0.9103  0.1214
 2602TIP3    H2 7813   0.053   0.493   0.606 -0.5641 -0.2390  0.6079
 2603TIP3   OH2 7814   1.163   4.688   0.614  0.2642  0.5808  0.1330
 2603TIP3    H1 7815   1.081   4.737   0.622  0.6993  1.0599  2.2134
 2603TIP3    H2 7816   1.212   4.710   0.693  1.3423 -1.6524  0.1573
 2604TIP3   OH2 7817   5.146   2.692   0.590  0.5971  0.0008  0.2163
 2604TIP3    H1 7818   5.140   2.750   0.666  1.9415 -0.9094  1.0488
 2604TIP3    H2 7819   5.239   2.671   0.583  0.1251 -2.2457  0.1124
 2605TIP3   OH2 7820   2.111   5.810   4.931  0.4733  0.5408 -0.2860
 2605TIP3    H1 7821   2.176   5.845   4.870  0.4417  0.0616 -0.6001
 2605TIP3    H2 7822   2.152   5.819   5.017  1.0475  0.0694 -0.5006
 2606TIP3   OH2 7823   4.921   4.639   2.593 -0.2872 -0.0291 -0.1258
 2606TIP3    H1 7824   4.865   4.585   2.537 -1.7128  1.1902  0.0529
 2606TIP3    H2 7825   4.867   4.716   2.613  1.3921  1.0949  0.2505
 2607TIP3   OH2 7826   3.997   0.207   4.156  0.0089  0.2783  0.3329
 2607TIP3    H1 7827   3.922   0.151   4.135  0.9191 -0.5125 -0.9294
 2607TIP3    H2 7828   4.043   0.160   4.225  0.5025 -0.3116 -0.3853
 2608TIP3   OH2 7829   2.859   3.363   3.002  0.1365 -0.5260  0.2662
 2608TIP3    H1 7830   2.864   3.276   2.962  1.6494 -0.1630 -0.4033
 2608TIP3    H2 7831   2.872   3.348   3.095 -2.3977 -1.2743  0.5803
 2609TIP3   OH2 7832   0.745   3.188   4.405  0.6812  0.5506  0.2543
 2609TIP3    H1 7833   0.817   3.182   4.343  0.4348  2.0451 -0.2298
 2609TIP3    H2 7834   0.751   3.109   4.457 -0.3321 -1.8533 -2.9662
 2610TIP3   OH2 7835   2.588   1.567   3.288  0.1428  0.2133  0.0365
 2610TIP3    H1 7836   2.539   1.615   3.221 -1.2303 -0.6192  0.3805
 2610TIP3    H2 7837   2.619   1.489   3.243 -2.9987 -1.6896  0.8262
 2611TIP3   OH2 7838   1.807   4.631   1.334 -0.4920  0.0140  0.3911
 2611TIP3    H1 7839   1.754   4.551   1.335  0.1033 -0.4367 -0.8889
 2611TIP3    H2 7840   1.884   4.607   1.281  0.1557  1.1540  0.7863
 2612TIP3   OH2 7841   3.756   3.589   0.555 -0.3905 -0.1059 -0.3802
 2612TIP3    H1 7842   3.822   3.655   0.578 -0.1395 -0.6887  0.6245
 2612TIP3    H2 7843   3.805   3.520   0.511 -0.5053 -0.0506 -0.5964
 2613TIP3   OH2 7844   0.519   1.358   4.554  0.2923 -0.2175  0.6728
 2613TIP3    H1 7845   0.573   1.340   4.477 -1.0492 -1.7825  0.0419
 2613TIP3    H2 7846   0.477   1.442   4.535  0.2095 -0.4432 -0.1809
 2614TIP3   OH2 7847   0.302   3.344   2.461 -0.1327 -0.5636 -0.6130
 2614TIP3    H1 7848   0.264   3.419   2.506  0.3328 -1.5214  1.4951
 2614TIP3    H2 7849   0.332   3.379   2.377  0.9559  1.8378  0.6766
 2615TIP3   OH2 7850   4.823   0.544   4.470 -0.0945  0.5771 -0.0187
 2615TIP3    H1 7851   4.825   0.462   4.421 -0.7761 -0.5447  1.7613
 2615TIP3    H2 7852   4.868   0.607   4.413  0.7693 -1.0986 -1.2672
 2616TIP3   OH2 7853   3.552   0.274   1.655 -0.1626  0.1432  0.2245
 2616TIP3    H1 7854   3.484   0.288   1.720 -0.6451  0.8417 -0.4099
 2616TIP3    H2 7855   3.535   0.186   1.621 -0.6631  0.2614  0.1684
 2617TIP3   OH2 7856   3.557   0.330   4.261 -0.3454 -0.1773 -0.2781
 2617TIP3    H1 7857   3.487   0.391   4.288  1.1313  1.1395  0.8037
 2617TIP3    H2 7858   3.630   0.387   4.238  0.2367 -1.5096 -1.8941
 2618TIP3   OH2 7859   2.614   4.333   3.239  0.2565  0.2209 -0.0990
 2618TIP3    H1 7860   2.615   4.427   3.223 -0.0313  0.2782  0.2071
 2618TIP3    H2 7861   2.531   4.317   3.283  0.1840 -0.2174 -0.3836
 2619TIP3   OH2 7862   2.610   2.191   4.002  0.1707 -0.1392  0.4717
 2619TIP3    H1 7863   2.609   2.101   3.970 -0.0367  0.1699 -0.4205
 2619TIP3    H2 7864   2.526   2.228   3.973  0.8920  0.7841 -0.4860
 2620TIP3   OH2 7865   0.015   0.547   1.419 -0.3026  0.3563 -0.7103
 2620TIP3    H1 7866   0.103   0.561   1.383 -0.8236  0.1729 -2.1132
 2620TIP3    H2 7867  -0.020   0.473   1.369 -1.5633  0.9626 -0.7570
 2621TIP3   OH2 7868   3.632   3.038   1.540 -0.1002  0.4812  0.2847
 2621TIP3    H1 7869   3.593   3.125   1.532 -0.5575  0.1801 -0.9852
 2621TIP3    H2 7870   3.604   2.992   1.461 -1.7356 -1.5752  1.9660
 2622TIP3   OH2 7871   2.789   4.995   2.100  0.6581 -0.0028 -0.0952
 2622TIP3    H1 7872   2.826   5.083   2.104 -0.5609  0.4742  1.7157
 2622TIP3    H2 7873   2.766   4.974   2.190  0.3554 -1.9515 -0.5769
 2623TIP3   OH2 7874   2.541   5.239   0.692 -0.2460  0.4966 -0.1409
 2623TIP3    H1 7875   2.458   5.220   0.647  0.8375 -2.9960 -0.9277
 2623TIP3    H2 7876   2.557   5.163   0.747  2.5313  0.9943 -0.1109
 2624TIP3   OH2 7877   6.045   5.635   4.595  0.7482  0.1337 -0.2589
 2624TIP3    H1 7878   6.139   5.648   4.613  1.1544 -1.9334 -0.6403
 2624TIP3    H2 7879   6.008   5.612   4.680  0.6722  0.4226 -0.2111
 2625TIP3   OH2 7880   4.002   1.561   5.045  0.1318  0.2409 -0.0034
 2625TIP3    H1 7881   4.021   1.654   5.033  0.1908  0.0342 -1.7226
 2625TIP3    H2 7882   3.925   1.545   4.992 -0.9159 -0.3644  1.6366
 2626TIP3   OH2 7883   2.579   2.304   4.415  0.6241  0.4391 -0.0638
 2626TIP3    H1 7884   2.554   2.316   4.506 -0.3493 -2.0996  0.0830
 2626TIP3    H2 7885   2.499   2.276   4.371  1.6646 -1.1391 -1.0764
 2627TIP3   OH2 7886   3.500   0.169   1.260  0.0554 -0.3116 -0.2647
 2627TIP3    H1 7887   3.479   0.088   1.306 -0.5411 -0.0331 -0.0420
 2627TIP3    H2 7888   3.508   0.235   1.329 -0.7907  0.0969 -0.5470
 2628TIP3   OH2 7889   1.473   1.140   4.877 -0.1242  0.3981 -0.4188
 2628TIP3    H1 7890   1.547   1.201   4.869 -0.1639  0.6709  1.1248
 2628TIP3    H2 7891   1.401   1.194   4.908 -0.6090 -0.1441 -0.5837
 2629TIP3   OH2 7892   4.866   4.011   4.361 -0.4267 -0.3031 -0.5046
 2629TIP3    H1 7893   4.948   3.974   4.330 -0.0682 -0.3860  0.4920
 2629TIP3    H2 7894   4.813   3.934   4.383  0.0706 -0.2589  0.9425
 2630TIP3   OH2 7895   1.981   5.612   2.600 -0.0339 -0.2079  0.0938
 2630TIP3    H1 7896   2.022   5.618   2.513  0.0644 -0.1282  0.1442
 2630TIP3    H2 7897   1.900   5.565   2.586  0.4964 -1.1581  0.1347
 2631TIP3   OH2 7898   3.199   0.948   3.140  0.3104  0.4267  0.3428
 2631TIP3    H1 7899   3.258   0.937   3.066 -0.1720  0.0998  0.0042
 2631TIP3    H2 7900   3.252   0.923   3.216  0.9548  1.2195  0.1740
 2632TIP3   OH2 7901   2.489   1.496   4.834 -0.5081  0.2013  0.1041
 2632TIP3    H1 7902   2.569   1.514   4.882 -0.0329 -0.9934 -0.1998
 2632TIP3    H2 7903   2.499   1.543   4.751  0.1640 -0.4348 -0.1868
 2633TIP3   OH2 7904   2.625   2.331   2.262 -0.1292  0.7878 -0.1335
 2633TIP3    H1 7905   2.531   2.344   2.274 -0.3548  0.1999 -1.1480
 2633TIP3    H2 7906   2.635   2.236   2.254  0.3767  0.9146 -1.2542
 2634TIP3   OH2 7907   3.549   1.589   5.151 -0.8627 -0.1379 -0.2887
 2634TIP3    H1 7908   3.561   1.623   5.062 -1.6411 -1.1401 -0.8030
 2634TIP3    H2 7909   3.636   1.597   5.191 -0.7177  1.1831 -0.8123
 2635TIP3   OH2 7910   2.590   0.628   0.644  0.6901 -0.3887  0.2153
 2635TIP3    H1 7911   2.618   0.577   0.569 -0.5829  0.2828 -0.7696
 2635TIP3    H2 7912   2.668   0.678   0.671  0.8848  0.2218 -1.3954
 2636TIP3   OH2 7913   4.108   2.157   2.597  0.4532 -0.5099  0.6373
 2636TIP3    H1 7914   4.118   2.193   2.509  0.9192 -1.0128  0.4804
 2636TIP3    H2 7915   4.021   2.186   2.625  0.9299  0.9902  0.6388
 2637TIP3   OH2 7916   2.038   2.601   1.513  0.0837  0.7762 -0.4360
 2637TIP3    H1 7917   2.122   2.578   1.473 -0.0918 -1.3324  0.2434
 2637TIP3    H2 7918   1.984   2.523   1.501 -0.9618  1.1886  1.2317
 2638TIP3   OH2 7919   2.091   5.321   2.577  0.4680 -0.4064 -0.4541
 2638TIP3    H1 7920   2.024   5.334   2.510 -0.3785 -0.4027  0.3784
 2638TIP3    H2 7921   2.174   5.334   2.530 -0.1198  0.3209 -1.3388
 2639TIP3   OH2 7922   0.509   5.416   3.072  0.3512  0.6084 -0.0812
 2639TIP3    H1 7923   0.538   5.339   3.023 -1.5330 -0.1967 -0.0218
 2639TIP3    H2 7924   0.577   5.430   3.137  0.4798 -1.3715  0.2692
 2640TIP3   OH2 7925   1.721   5.017   2.485 -0.3769  0.0999  0.4218
 2640TIP3    H1 7926   1.786   5.078   2.448  0.4880 -1.4333 -0.6999
 2640TIP3    H2 7927   1.672   5.070   2.547  1.8622  1.3675  1.2347
 2641TIP3   OH2 7928   2.129   3.820   4.321  0.1073  0.2430  0.4819
 2641TIP3    H1 7929   2.061   3.760   4.291  0.6318 -0.4350  0.6192
 2641TIP3    H2 7930   2.112   3.830   4.414 -0.4516  0.9436  0.3170
 2642TIP3   OH2 7931   2.216   3.410   1.007 -0.1110 -0.8777 -0.4577
 2642TIP3    H1 7932   2.295   3.461   0.989  0.0091 -1.5710 -2.1189
 2642TIP3    H2 7933   2.199   3.424   1.100  1.3730  0.1089 -0.2935
 2643TIP3   OH2 7934   2.031   5.853   3.173  0.3597  0.1329  0.2105
 2643TIP3    H1 7935   2.036   5.780   3.111 -2.4253  0.9089 -1.0764
 2643TIP3    H2 7936   2.038   5.931   3.118 -1.2115  0.8380  0.9682
 2644TIP3   OH2 7937   4.906   0.544   0.102  0.0390  0.7259 -0.1213
 2644TIP3    H1 7938   4.947   0.577   0.181  0.4480  0.5446 -0.2549
 2644TIP3    H2 7939   4.817   0.521   0.128  0.9020 -1.7474  0.9308
 2645TIP3   OH2 7940   0.532   5.047   3.872 -0.4672  0.8649  0.0959
 2645TIP3    H1 7941   0.598   5.107   3.906  3.5798 -1.7210 -2.2838
 2645TIP3    H2 7942   0.496   5.003   3.949  1.0565  2.0150  1.5166
 2646TIP3   OH2 7943   2.315   0.382   0.275 -0.3618  0.0097 -0.2786
 2646TIP3    H1 7944   2.385   0.448   0.280 -0.4734  0.1355 -0.3788
 2646TIP3    H2 7945   2.331   0.336   0.193 -0.0711 -0.3291 -0.0369
 2647TIP3   OH2 7946   0.681   3.892   1.829  0.5885  0.2037 -0.0747
 2647TIP3    H1 7947   0.629   3.922   1.903 -1.0726 -0.1130 -1.0595
 2647TIP3    H2 7948   0.621   3.893   1.755  2.2733  0.8145 -1.5105
 2648TIP3   OH2 7949   3.762   5.518   4.426 -0.0811 -0.4925  0.1161
 2648TIP3    H1 7950   3.680   5.546   4.467 -0.1096  0.5248 -0.6043
 2648TIP3    H2 7951   3.744   5.431   4.392 -1.0352 -0.0620 -0.5071
 2649TIP3   OH2 7952   3.501   5.451   3.412 -0.3074  0.5470  0.0482
 2649TIP3    H1 7953   3.496   5.509   3.488  3.2500  0.1543  0.7843
 2649TIP3    H2 7954   3.493   5.363   3.448  1.6418  0.3462  0.1232
 2650TIP3   OH2 7955   4.744   4.495   4.141 -0.0593 -0.2257 -0.1815
 2650TIP3    H1 7956   4.822   4.478   4.088  0.3095 -0.8007  0.5288
 2650TIP3    H2 7957   4.778   4.529   4.223 -0.2981 -3.2849  1.3362
 2651TIP3   OH2 7958   1.810   2.934   3.395 -0.6125  0.1435  0.0557
 2651TIP3    H1 7959   1.816   2.849   3.439  0.4999 -0.0630 -0.4741
 2651TIP3    H2 7960   1.812   2.998   3.467 -1.1632 -0.2565  0.4356
 2652TIP3   OH2 7961   3.316   4.495   5.041 -0.3158 -0.8060 -0.3251
 2652TIP3    H1 7962   3.360   4.420   5.003  0.0112 -0.8708  0.1674
 2652TIP3    H2 7963   3.373   4.569   5.021 -0.4781 -0.7378 -0.5360
 2653TIP3   OH2 7964   2.481   4.415   3.779 -0.1775  0.0839 -0.3061
 2653TIP3    H1 7965   2.525   4.356   3.839  0.0483 -0.2997 -0.8416
 2653TIP3    H2 7966   2.535   4.414   3.700 -2.0503 -1.8119 -1.6665
 2654TIP3   OH2 7967   1.979   0.789   4.104 -0.0405  0.0111  0.2287
 2654TIP3    H1 7968   2.013   0.730   4.172 -1.7784 -0.2465  0.9107
 2654TIP3    H2 7969   1.884   0.782   4.111 -0.2778  1.6959 -0.7382
 2655TIP3   OH2 7970   1.676   3.680   1.068 -0.2277 -0.7829  0.6700
 2655TIP3    H1 7971   1.644   3.612   1.128 -1.3817 -1.0049 -0.1580
 2655TIP3    H2 7972   1.606   3.690   1.004 -0.3641  1.6480  1.1107
 2656TIP3   OH2 7973   0.324   0.956   0.919  0.0504  0.1890  0.4931
 2656TIP3    H1 7974   0.259   1.001   0.865 -0.9710 -0.8725  0.8079
 2656TIP3    H2 7975   0.336   0.872   0.876  1.4642  0.4829  0.2779
 2657TIP3   OH2 7976   0.187   4.575   2.582  0.4401  0.6651 -0.1163
 2657TIP3    H1 7977   0.121   4.527   2.632  1.1600 -1.2482 -0.8897
 2657TIP3    H2 7978   0.268   4.526   2.597  0.6775 -0.0500 -3.1511
 2658TIP3   OH2 7979   0.686   5.507   0.424 -0.0685 -0.0961  0.2971
 2658TIP3    H1 7980   0.745   5.431   0.415 -0.0285 -0.0105 -0.1980
 2658TIP3    H2 7981   0.639   5.491   0.506  0.8473 -0.0226  0.8627
 2659TIP3   OH2 7982   5.654   3.096   3.928  0.0780 -0.3655 -0.2556
 2659TIP3    H1 7983   5.665   3.150   3.850  0.6179 -0.5276 -0.2973
 2659TIP3    H2 7984   5.743   3.066   3.949  0.6166  2.6575  2.5629
 2660TIP3   OH2 7985   1.954   3.649   4.225  0.5149  0.0460 -0.2821
 2660TIP3    H1 7986   1.894   3.679   4.156  0.1419  2.2637  0.9133
 2660TIP3    H2 7987   1.900   3.592   4.281  0.2336 -0.0158 -0.6114
 2661TIP3   OH2 7988   3.297   1.861   4.910 -0.2750 -0.1846  0.1357
 2661TIP3    H1 7989   3.321   1.772   4.887  1.3512 -0.4433  2.4984
 2661TIP3    H2 7990   3.334   1.915   4.840  0.7562 -1.1934 -0.1096
 2662TIP3   OH2 7991   0.672   2.912   0.528 -0.4813  0.4425 -0.1292
 2662TIP3    H1 7992   0.717   2.982   0.576 -0.0471 -0.0850  0.2412
 2662TIP3    H2 7993   0.741   2.848   0.509 -0.8507  0.1713 -0.5833
 2663TIP3   OH2 7994   1.255   3.185   1.079  0.5641  0.7188 -0.3236
 2663TIP3    H1 7995   1.210   3.164   0.997  0.1042  0.2410  0.0361
 2663TIP3    H2 7996   1.343   3.150   1.068  0.2223 -0.1920 -0.2679
 2664TIP3   OH2 7997   0.102   0.609   3.003 -0.6399  0.3789  0.3565
 2664TIP3    H1 7998   0.157   0.652   2.938 -1.2154  0.5517 -0.0200
 2664TIP3    H2 7999   0.105   0.516   2.980 -0.5324  0.3916  0.3197
 2665TIP3   OH2 8000   2.821   5.565   3.141 -0.4849  0.6074 -0.4007
 2665TIP3    H1 8001   2.756   5.499   3.165 -0.3654  0.4999 -0.3690
 2665TIP3    H2 8002   2.904   5.517   3.140 -0.1281  1.1080  1.2991
 2666TIP3   OH2 8003   2.963   2.135   1.443 -0.0689  0.0917 -0.2665
 2666TIP3    H1 8004   2.929   2.215   1.482  1.9333  0.5142  0.7679
 2666TIP3    H2 8005   2.982   2.158   1.352 -1.4518  0.1431 -0.5630
 2667TIP3   OH2 8006   3.804   5.250   1.166  0.2364 -0.8995 -0.2227
 2667TIP3    H1 8007   3.846   5.167   1.187 -1.3954 -1.4881  0.9238
 2667TIP3    H2 8008   3.758   5.233   1.084 -1.6309 -1.7692  0.9453
 2668TIP3   OH2 8009   5.933   3.290   4.987  0.1536 -0.0321  0.2029
 2668TIP3    H1 8010   5.913   3.253   5.073  1.0512 -1.0812 -0.0143
 2668TIP3    H2 8011   6.018   3.334   4.998 -0.9411  2.1591  0.4850
 2669TIP3   OH2 8012   4.219   3.574   2.635  0.2751 -0.2496  0.9019
 2669TIP3    H1 8013   4.150   3.608   2.693  0.5138  0.4391  0.7860
 2669TIP3    H2 8014   4.183   3.585   2.547 -0.1212 -1.3739  0.9124
 2670TIP3   OH2 8015  -0.002   5.818   0.720  0.1679 -0.3873 -0.4593
 2670TIP3    H1 8016   0.070   5.757   0.703  0.3641 -0.0037 -1.0440
 2670TIP3    H2 8017  -0.013   5.865   0.637 -0.2092  0.1288 -0.1197
 2671TIP3   OH2 8018   6.181   3.047   4.309  0.3187 -0.0651  0.3669
 2671TIP3    H1 8019   6.179   3.000   4.226 -0.0407  0.3746  0.1246
 2671TIP3    H2 8020   6.164   3.139   4.286 -1.1504 -0.1329  1.0571
 2672TIP3   OH2 8021   2.331   1.743   2.107  0.4404  0.2781 -0.0576
 2672TIP3    H1 8022   2.421   1.710   2.114  0.0682 -0.7126  0.1953
 2672TIP3    H2 8023   2.295   1.698   2.031 -0.5047 -0.9781  1.0897
 2673TIP3   OH2 8024   2.850   5.981   0.269 -0.1161  0.0745  0.5353
 2673TIP3    H1 8025   2.830   5.926   0.193 -0.0772 -1.6243  1.7020
 2673TIP3    H2 8026   2.944   5.966   0.284 -0.3190 -0.2895  1.4436
 2674TIP3   OH2 8027   3.568   3.901   4.944 -0.6464 -0.1336  0.0076
 2674TIP3    H1 8028   3.594   3.946   4.864  2.4817  0.3140  1.1520
 2674TIP3    H2 8029   3.563   3.809   4.920  1.2655 -0.1271 -0.5123
 2675TIP3   OH2 8030   2.196   0.120   0.293  0.3382 -0.3575 -0.2596
 2675TIP3    H1 8031   2.250   0.195   0.317  1.2157 -0.8489 -0.6259
 2675TIP3    H2 8032   2.242   0.080   0.219 -0.9218 -0.3880 -1.0380
 2676TIP3   OH2 8033   5.968   3.719   0.979 -1.0261  0.4579 -0.8546
 2676TIP3    H1 8034   5.968   3.812   1.004 -0.0614  0.5444 -1.1184
 2676TIP3    H2 8035   5.968   3.672   1.062  0.2974  0.7308 -0.6681
 2677TIP3   OH2 8036   5.269   2.074   2.063  0.4113 -0.6439  0.2317
 2677TIP3    H1 8037   5.199   2.098   2.002 -0.8675  0.0246  1.8677
 2677TIP3    H2 8038   5.337   2.036   2.008  0.1739  1.6894 -1.8550
 2678TIP3   OH2 8039   3.402   3.236   3.041 -0.1034 -0.4115 -0.3954
 2678TIP3    H1 8040   3.487   3.250   2.998  0.5044 -1.4478  0.4371
 2678TIP3    H2 8041   3.338   3.250   2.971  0.7649 -0.0802 -1.1522
 2679TIP3   OH2 8042   2.940   3.318   1.317 -0.7612  0.5239 -0.4529
 2679TIP3    H1 8043   2.912   3.403   1.350 -1.1216  0.0287  0.5548
 2679TIP3    H2 8044   2.864   3.261   1.330 -0.3212 -0.1008 -0.5591
 2680TIP3   OH2 8045   0.367   0.872   0.024  0.5186 -0.5097 -0.5428
 2680TIP3    H1 8046   0.437   0.937   0.014  0.1256 -0.2781 -2.1057
 2680TIP3    H2 8047   0.289   0.924   0.044  0.6463 -0.7086  0.4988
 2681TIP3   OH2 8048   2.951   2.861   0.654 -0.4773  0.2353 -0.5956
 2681TIP3    H1 8049   2.963   2.830   0.564 -2.2651 -0.1722 -0.7311
 2681TIP3    H2 8050   2.856   2.860   0.667 -0.2506  0.2267  1.3259
 2682TIP3   OH2 8051   5.736   2.454   1.022 -0.2109 -0.9027 -0.2442
 2682TIP3    H1 8052   5.829   2.469   1.001  1.4048  0.3580  5.8598
 2682TIP3    H2 8053   5.700   2.542   1.032 -1.1189 -1.3524  0.5363
 2683TIP3   OH2 8054   4.537   2.682   2.514  0.2059  0.5664 -0.1654
 2683TIP3    H1 8055   4.535   2.602   2.462  2.4429  0.2960  0.0802
 2683TIP3    H2 8056   4.470   2.738   2.475 -1.2714 -1.3134 -0.4789
 2684TIP3   OH2 8057   2.244   3.950   0.857  0.0042 -0.9035 -0.6008
 2684TIP3    H1 8058   2.274   3.925   0.769  0.4591  2.2584 -1.4705
 2684TIP3    H2 8059   2.155   3.983   0.843  0.5613  0.8931 -0.1888
 2685TIP3   OH2 8060   1.886   4.974   1.432 -0.5970 -0.1086  0.9063
 2685TIP3    H1 8061   1.838   4.903   1.475  0.3410 -1.9181 -0.8773
 2685TIP3    H2 8062   1.957   4.930   1.386 -0.5995  1.8734 -1.1277
 2686TIP3   OH2 8063   4.694   5.517   1.040  0.0908 -0.0984  0.1603
 2686TIP3    H1 8064   4.726   5.508   0.950  1.1203 -1.4921  0.6402
 2686TIP3    H2 8065   4.771   5.545   1.090 -0.6424  1.4028  0.5235
 2687TIP3   OH2 8066   5.101   4.873   4.586 -0.5306 -0.0541 -0.5046
 2687TIP3    H1 8067   5.017   4.833   4.608  0.1081 -0.0422  2.2923
 2687TIP3    H2 8068   5.092   4.964   4.615  0.4062 -0.0311 -0.2630
 2688TIP3   OH2 8069   2.203   2.990   3.593 -0.0322  0.1059 -0.2998
 2688TIP3    H1 8070   2.116   2.981   3.555 -0.0909 -2.4237  0.2148
 2688TIP3    H2 8071   2.222   3.083   3.590 -2.0261  0.5202 -2.0190
 2689TIP3   OH2 8072   1.153   1.832   2.016  0.2307  0.1490  0.0886
 2689TIP3    H1 8073   1.173   1.915   2.060  0.4262 -0.2191  0.7100
 2689TIP3    H2 8074   1.202   1.836   1.934  0.1488  0.6986  0.0642
 2690TIP3   OH2 8075   0.063   4.462   3.584  0.0299  0.1543 -0.7210
 2690TIP3    H1 8076  -0.021   4.483   3.542  0.5061  2.1119 -0.7956
 2690TIP3    H2 8077   0.092   4.381   3.540 -0.6428  0.8141 -2.4815
 2691TIP3   OH2 8078   0.268   2.274   2.561 -0.6539  0.2870  0.2978
 2691TIP3    H1 8079   0.275   2.197   2.505  1.9963 -0.5230  1.5640
 2691TIP3    H2 8080   0.328   2.337   2.522  1.9972 -0.6309  2.4970
 2692TIP3   OH2 8081   1.156   2.333   4.257  0.2731  0.3827 -0.2275
 2692TIP3    H1 8082   1.198   2.348   4.172 -0.7879  0.7399 -0.7126
 2692TIP3    H2 8083   1.142   2.421   4.293 -0.9237  0.3296 -0.5256
 2693TIP3   OH2 8084   0.116   5.916   2.355 -0.8371 -0.3848  0.9386
 2693TIP3    H1 8085   0.126   5.827   2.388 -0.3463  0.3504  2.9070
 2693TIP3    H2 8086   0.100   5.969   2.433 -0.3742  1.3609 -0.1000
 2694TIP3   OH2 8087   2.549   1.514   1.726  0.2637  0.3861  0.3474
 2694TIP3    H1 8088   2.580   1.604   1.731  0.5814  0.2591  0.7028
 2694TIP3    H2 8089   2.607   1.472   1.663  0.7395  0.1830  0.9124
 2695TIP3   OH2 8090   6.010   5.337   2.196  0.0333  0.2758  0.1745
 2695TIP3    H1 8091   5.991   5.281   2.271  0.0994 -1.2387 -0.9021
 2695TIP3    H2 8092   5.930   5.389   2.183  0.0471  0.5993  1.3031
 2696TIP3   OH2 8093   0.596   1.341   2.532  0.0361  0.6183 -0.4231
 2696TIP3    H1 8094   0.669   1.393   2.566 -0.3837  1.2059 -0.4184
 2696TIP3    H2 8095   0.634   1.292   2.459  1.1049 -1.0949  1.1649
 2697TIP3   OH2 8096   5.767   4.264   4.461 -0.1863 -0.5678 -0.3958
 2697TIP3    H1 8097   5.776   4.202   4.387  0.3688 -0.3940 -0.4806
 2697TIP3    H2 8098   5.769   4.350   4.420 -1.4909 -0.4907 -0.3278
 2698TIP3   OH2 8099   5.588   5.750   3.146 -0.0273  0.4503 -0.2415
 2698TIP3    H1 8100   5.647   5.741   3.071  0.5125 -1.1251  0.3165
 2698TIP3    H2 8101   5.501   5.752   3.108  0.2831  0.5760 -0.9595
 2699TIP3   OH2 8102   5.064   1.468   3.188 -0.3474 -0.1478  0.1811
 2699TIP3    H1 8103   5.007   1.545   3.197  0.5950  0.4978  0.9035
 2699TIP3    H2 8104   5.153   1.504   3.196  0.2210 -1.0205 -1.6322
 2700TIP3   OH2 8105   5.514   5.009   2.188 -0.3102 -0.4645  0.5281
 2700TIP3    H1 8106   5.455   5.065   2.239  2.6494  1.9604  1.6227
 2700TIP3    H2 8107   5.601   5.028   2.224  1.3638 -2.4769 -2.1364
 2701TIP3   OH2 8108   3.038   4.550   4.903  0.4702 -0.1154  0.1208
 2701TIP3    H1 8109   3.127   4.546   4.868 -0.0058  1.7943 -1.5027
 2701TIP3    H2 8110   3.039   4.624   4.963  0.1069 -0.4533  0.5506
 2702TIP3   OH2 8111   1.907   0.170   2.659  0.6674 -0.1037  0.3281
 2702TIP3    H1 8112   1.986   0.117   2.669  0.8602  0.1610  0.2232
 2702TIP3    H2 8113   1.915   0.209   2.572  0.6686  0.3244  0.5155
 2703TIP3   OH2 8114   5.126   5.488   0.674  0.0029  0.3845  0.3315
 2703TIP3    H1 8115   5.079   5.458   0.596 -2.5132  1.0176  1.4838
 2703TIP3    H2 8116   5.158   5.575   0.651 -0.8807  0.6409  0.0156
 2704TIP3   OH2 8117   2.657   2.873   4.295 -0.2819 -0.1173 -0.2371
 2704TIP3    H1 8118   2.740   2.879   4.342 -0.0486 -0.7751 -0.5481
 2704TIP3    H2 8119   2.636   2.779   4.296 -0.2405 -0.1566 -1.4714
 2705TIP3   OH2 8120   2.269   0.570   1.985 -0.4527  0.6598 -0.4736
 2705TIP3    H1 8121   2.304   0.549   1.898 -1.3830  0.6009 -0.8462
 2705TIP3    H2 8122   2.182   0.606   1.967 -0.7636  0.3814  0.4553
 2706TIP3   OH2 8123   0.311   0.195   4.086  0.2804 -0.1616 -0.1152
 2706TIP3    H1 8124   0.280   0.144   4.011 -0.3071  2.1721 -1.5411
 2706TIP3    H2 8125   0.274   0.282   4.073  2.0377  0.9334  1.6888
 2707TIP3   OH2 8126   5.403   5.397   3.382  0.5956  0.2980  0.1346
 2707TIP3    H1 8127   5.379   5.463   3.447  3.8062 -0.7600  2.7013
 2707TIP3    H2 8128   5.473   5.439   3.331  1.1190 -0.3356  0.3181
 2708TIP3   OH2 8129   4.798   5.127   2.487  0.1180 -0.1784  0.0276
 2708TIP3    H1 8130   4.723   5.187   2.489  0.9787  1.0305 -1.6503
 2708TIP3    H2 8131   4.873   5.182   2.512  1.1156 -0.1663 -2.6901
 2709TIP3   OH2 8132   5.610   2.262   4.541 -0.0748 -0.3218 -0.4651
 2709TIP3    H1 8133   5.638   2.228   4.456  0.8648  0.2150 -0.3895
 2709TIP3    H2 8134   5.692   2.277   4.588 -0.5243  0.8046 -0.0221
 2710TIP3   OH2 8135   4.996   2.141   1.421  0.4692  0.1985  0.2008
 2710TIP3    H1 8136   4.982   2.047   1.432  1.9704 -0.1182 -0.3395
 2710TIP3    H2 8137   4.907   2.177   1.411 -0.1278 -1.1635  0.2992
 2711TIP3   OH2 8138   5.496   5.104   1.133  0.0340  0.2884  0.0987
 2711TIP3    H1 8139   5.410   5.094   1.174 -1.0300 -0.7415 -2.1865
 2711TIP3    H2 8140   5.535   5.017   1.137  1.9880  1.1626  2.9864
 2712TIP3   OH2 8141   4.902   2.626   4.254  0.2015  0.0522 -0.0431
 2712TIP3    H1 8142   4.832   2.668   4.305 -2.2797  0.1600 -3.2072
 2712TIP3    H2 8143   4.861   2.604   4.170  3.1661 -2.8554 -0.9560
 2713TIP3   OH2 8144   0.987   0.099   2.404  0.1173 -0.0865  0.3040
 2713TIP3    H1 8145   1.032   0.117   2.321  1.1626  0.3494  0.9447
 2713TIP3    H2 8146   0.937   0.020   2.387 -0.1916  0.3448 -0.9339
 2714TIP3   OH2 8147   4.541   5.696   3.725  0.5771 -0.4426 -0.1750
 2714TIP3    H1 8148   4.459   5.718   3.769 -1.1377 -1.2629 -2.7253
 2714TIP3    H2 8149   4.593   5.653   3.792 -1.5670 -0.9867  1.2522
 2715TIP3   OH2 8150   2.448   0.732   1.346 -0.2551 -0.1950  0.2945
 2715TIP3    H1 8151   2.431   0.704   1.256 -0.8015  2.5239 -0.5498
 2715TIP3    H2 8152   2.365   0.718   1.391 -1.3915  2.3152 -0.8150
 2716TIP3   OH2 8153   6.325   5.040   0.270 -0.0521 -0.2988  0.2866
 2716TIP3    H1 8154   6.244   5.079   0.237  1.1357 -0.2695 -2.9218
 2716TIP3    H2 8155   6.362   5.107   0.328  0.2510  2.0785 -2.4280
 2717TIP3   OH2 8156   0.807   1.946   1.980 -0.2063  0.2608  0.1573
 2717TIP3    H1 8157   0.715   1.933   1.959 -0.0192 -0.5550 -0.2169
 2717TIP3    H2 8158   0.855   1.906   1.907  0.4510  1.4668 -0.0970
 2718TIP3   OH2 8159   4.416   4.779   0.707  0.8695 -0.1240 -0.0725
 2718TIP3    H1 8160   4.460   4.788   0.791  1.9327  3.2317 -0.8239
 2718TIP3    H2 8161   4.457   4.703   0.666 -0.3089 -2.4095  2.6653
 2719TIP3   OH2 8162   1.197   4.464   4.845 -0.1411  0.4053  0.1569
 2719TIP3    H1 8163   1.247   4.401   4.896  1.1929  1.1991 -0.1316
 2719TIP3    H2 8164   1.238   4.549   4.863  0.6403  0.6922 -2.4204
 2720TIP3   OH2 8165   5.925   4.599   0.093 -0.4646  0.0853  1.0954
 2720TIP3    H1 8166   5.991   4.654   0.052 -0.4070  1.2636  2.6628
 2720TIP3    H2 8167   5.966   4.513   0.102  0.6748  0.6592  1.5558
 2721TIP3   OH2 8168   5.196   2.486   2.849 -0.4118  0.1344 -0.0199
 2721TIP3    H1 8169   5.184   2.562   2.905 -1.4771  0.4655 -0.6682
 2721TIP3    H2 8170   5.207   2.413   2.910  0.6859  0.8008  0.6048
 2722TIP3   OH2 8171   6.199   2.690   0.808  0.0611 -0.0037  0.1206
 2722TIP3    H1 8172   6.158   2.756   0.751  0.7998 -0.4423 -0.9579
 2722TIP3    H2 8173   6.256   2.741   0.865  2.2389  0.2032 -2.0885
 2723TIP3   OH2 8174   5.732   1.964   5.072 -0.3948  0.0956  0.1428
 2723TIP3    H1 8175   5.704   2.006   4.991  0.3133  0.5685  0.1292
 2723TIP3    H2 8176   5.818   2.002   5.090  0.7781 -2.1106 -0.4392
 2724TIP3   OH2 8177   0.018   2.441   4.708 -0.2344 -0.0893  0.2879
 2724TIP3    H1 8178   0.033   2.349   4.689  0.2758  0.1648 -0.5871
 2724TIP3    H2 8179  -0.007   2.480   4.624  1.4974  0.9508  0.2011
 2725TIP3   OH2 8180   5.461   2.773   2.375 -0.0698  0.1341  0.4624
 2725TIP3    H1 8181   5.426   2.773   2.286 -1.5007 -0.7087  0.9851
 2725TIP3    H2 8182   5.512   2.693   2.381  1.2616  0.9174 -0.0229
 2726TIP3   OH2 8183   5.990   1.841   0.792 -0.0238 -0.1719  0.2564
 2726TIP3    H1 8184   6.056   1.797   0.845 -0.8103 -2.6356 -0.6976
 2726TIP3    H2 8185   5.914   1.849   0.849 -0.2076 -1.0052  0.1390
 2727TIP3   OH2 8186   4.787   0.121   1.073 -0.5138 -0.7005 -0.2460
 2727TIP3    H1 8187   4.695   0.119   1.048  0.0479 -0.7764 -2.5109
 2727TIP3    H2 8188   4.825   0.044   1.031  0.9536  0.4076 -1.0420
 2728TIP3   OH2 8189   0.481   4.357   4.607  0.0375 -0.3307 -0.3245
 2728TIP3    H1 8190   0.512   4.288   4.549 -0.8135 -0.2488 -0.8794
 2728TIP3    H2 8191   0.539   4.351   4.683 -0.5528 -2.2159  0.0260
 2729TIP3   OH2 8192   3.795   2.210   0.766  0.3966 -0.0728  0.0481
 2729TIP3    H1 8193   3.885   2.178   0.766  0.7246  0.6021  2.6449
 2729TIP3    H2 8194   3.803   2.305   0.758 -0.1798 -0.0806 -0.8227
 2730TIP3   OH2 8195   0.723   5.290   1.330  0.3389  0.1566 -0.2715
 2730TIP3    H1 8196   0.752   5.201   1.312  0.9790  0.2446  0.3012
 2730TIP3    H2 8197   0.632   5.281   1.356  0.9737 -0.5772  1.8433
 2731TIP3   OH2 8198   2.021   5.201   0.986  0.3162 -0.1087 -0.1354
 2731TIP3    H1 8199   2.068   5.149   1.051  1.4689 -0.4079 -1.1702
 2731TIP3    H2 8200   1.969   5.137   0.937 -0.0671  0.0354  0.0768
 2732TIP3   OH2 8201   5.695   1.143   4.520  0.1763 -0.1008 -0.1513
 2732TIP3    H1 8202   5.664   1.055   4.542  0.2409  0.2183  1.3380
 2732TIP3    H2 8203   5.770   1.128   4.462 -1.0309 -0.9384 -1.5764
 2733TIP3   OH2 8204   0.175   3.365   3.684  0.2597 -0.4053  0.3684
 2733TIP3    H1 8205   0.125   3.288   3.712 -0.5088  0.1355  0.5115
 2733TIP3    H2 8206   0.127   3.398   3.608  1.6847 -1.1940 -0.9279
 2734TIP3   OH2 8207   4.537   1.218   1.510  0.7171 -0.2714 -0.4581
 2734TIP3    H1 8208   4.532   1.305   1.470 -1.7268 -0.0744  0.1117
 2734TIP3    H2 8209   4.599   1.229   1.582 -2.0494  2.0678  1.8410
 2735TIP3   OH2 8210   6.000   2.440   2.411 -0.2939 -0.9020  0.1602
 2735TIP3    H1 8211   5.985   2.351   2.379 -1.7024 -0.7655  0.3823
 2735TIP3    H2 8212   5.914   2.470   2.441 -0.0133  0.8451 -0.6697
 2736TIP3   OH2 8213   0.198   0.513   5.029  0.8097 -0.3450  0.3728
 2736TIP3    H1 8214   0.203   0.433   5.081  0.7063 -1.1989 -0.9076
 2736TIP3    H2 8215   0.140   0.491   4.956  1.4181  0.6414 -0.4327
 2737TIP3   OH2 8216   1.708   2.860   4.764 -0.1766  0.5585 -0.1237
 2737TIP3    H1 8217   1.733   2.912   4.688  0.9960  1.8976  1.1245
 2737TIP3    H2 8218   1.619   2.830   4.743  0.4386  0.1036 -2.3925
 2738TIP3   OH2 8219   1.335   1.889   2.957 -0.7335 -0.0200  0.3580
 2738TIP3    H1 8220   1.351   1.853   3.045 -0.5148  0.4241  0.5036
 2738TIP3    H2 8221   1.339   1.984   2.969 -0.0831  0.0365 -0.2508
 2739TIP3   OH2 8222   1.705   0.083   2.909 -0.4840 -0.0237 -0.5807
 2739TIP3    H1 8223   1.697   0.017   2.841 -1.8935  1.2891 -1.7878
 2739TIP3    H2 8224   1.745   0.158   2.865  1.9784 -0.2960  0.9855
 2740TIP3   OH2 8225   5.533   2.272   2.587  0.4145  0.0476 -0.2752
 2740TIP3    H1 8226   5.547   2.218   2.510  0.9902 -0.8081  0.4029
 2740TIP3    H2 8227   5.458   2.232   2.631  1.3265 -0.7211  0.6382
 2741TIP3   OH2 8228   4.374   3.645   0.564 -0.2146 -0.1447 -0.5656
 2741TIP3    H1 8229   4.448   3.684   0.609 -2.0629 -0.1033  2.7627
 2741TIP3    H2 8230   4.320   3.720   0.537  0.1062 -0.2276 -1.4759
 2742TIP3   OH2 8231   3.081   2.021   4.065  0.9964 -0.2336  0.0427
 2742TIP3    H1 8232   3.021   1.962   4.110  1.2503 -0.0097  0.6746
 2742TIP3    H2 8233   3.051   2.020   3.974 -1.0869  1.2402  0.6330
 2743TIP3   OH2 8234   2.200   4.484   2.691  0.2277 -0.1637  0.3868
 2743TIP3    H1 8235   2.216   4.391   2.709 -0.0257 -0.0732  1.1390
 2743TIP3    H2 8236   2.114   4.500   2.730 -1.4952 -0.4914 -2.9442
 2744TIP3   OH2 8237   1.367   1.739   3.167 -0.5211  0.2008 -0.0284
 2744TIP3    H1 8238   1.445   1.713   3.215  0.5223  2.8667 -0.0967
 2744TIP3    H2 8239   1.295   1.719   3.226  0.3217 -0.8646  0.6912
 2745TIP3   OH2 8240   4.770   3.068   2.221  0.4158  0.5255  0.8628
 2745TIP3    H1 8241   4.856   3.041   2.255  0.2929  1.5280  2.0171
 2745TIP3    H2 8242   4.721   2.986   2.213  1.0181  0.0930  1.5094
 2746TIP3   OH2 8243   4.182   1.987   1.282  0.4680 -0.7171 -0.0302
 2746TIP3    H1 8244   4.161   2.065   1.334 -3.2400 -1.4039 -0.2018
 2746TIP3    H2 8245   4.247   2.017   1.218 -0.2710  2.0280  0.3770
 2747TIP3   OH2 8246   1.212   2.057   2.164  0.0695  0.1189  0.2640
 2747TIP3    H1 8247   1.245   1.981   2.211 -0.8949 -1.0219 -0.8253
 2747TIP3    H2 8248   1.186   2.119   2.233  1.3184 -0.3071  1.1578
 2748TIP3   OH2 8249   2.531   4.983   2.025 -0.6733 -0.0563  0.2164
 2748TIP3    H1 8250   2.512   4.894   1.995 -2.1940 -0.7265  2.8254
 2748TIP3    H2 8251   2.619   4.977   2.062 -1.3671 -0.9671  1.8323
 2749TIP3   OH2 8252   3.479   0.202   3.586  0.4995  0.2301  0.0286
 2749TIP3    H1 8253   3.410   0.266   3.600 -0.0663 -0.1489 -0.9900
 2749TIP3    H2 8254   3.560   0.253   3.585  0.3124  0.6179  1.7419
 2750TIP3   OH2 8255   2.432   3.855   0.632  0.0258 -0.1008 -0.4067
 2750TIP3    H1 8256   2.522   3.854   0.601 -0.3524 -0.4584 -1.5633
 2750TIP3    H2 8257   2.383   3.809   0.564 -1.5064  2.6915 -1.3376
 2751TIP3   OH2 8258   2.641   2.213   1.485  0.1059 -0.0140  0.2559
 2751TIP3    H1 8259   2.685   2.131   1.463  1.2062  0.4364  0.6952
 2751TIP3    H2 8260   2.580   2.190   1.555 -1.4832 -0.9343 -1.3735
 2752TIP3   OH2 8261   4.032   3.992   3.671 -0.7406  0.3552 -0.0865
 2752TIP3    H1 8262   4.088   4.014   3.745 -0.7656  0.4635 -0.1006
 2752TIP3    H2 8263   4.064   3.906   3.642  1.1605  1.5333 -1.7541
 2753TIP3   OH2 8264   3.252   5.774   2.238  0.7031 -0.4126  0.5013
 2753TIP3    H1 8265   3.178   5.811   2.189  0.8156 -0.2501  0.4541
 2753TIP3    H2 8266   3.211   5.722   2.307  0.5087  1.8084  2.1536
 2754TIP3   OH2 8267   1.309   4.030   1.687  0.4838  0.1743 -0.4980
 2754TIP3    H1 8268   1.290   3.994   1.774  1.0284  0.9446 -0.0426
 2754TIP3    H2 8269   1.386   3.981   1.658  1.1757  0.8923  0.0851
 2755TIP3   OH2 8270   6.263   0.998   0.962  0.1424 -0.5536  0.3235
 2755TIP3    H1 8271   6.241   0.940   0.889 -0.0996 -0.5286  0.3762
 2755TIP3    H2 8272   6.318   0.944   1.019  0.4222 -0.5406  0.0728
 2756TIP3   OH2 8273   0.612   0.036   4.067 -0.7725 -0.1872 -0.0704
 2756TIP3    H1 8274   0.625  -0.014   4.147 -0.2102 -1.3528 -0.8677
 2756TIP3    H2 8275   0.685   0.098   4.066  0.6538 -1.8183 -0.8791
 2757TIP3   OH2 8276   1.109   0.797   4.629  0.0106  0.5611 -0.0873
 2757TIP3    H1 8277   1.053   0.873   4.648  1.3651  1.5883 -0.0453
 2757TIP3    H2 8278   1.197   0.826   4.651  0.8029 -0.4463 -1.7014
 2758TIP3   OH2 8279   0.074   5.673   2.129 -0.4462  0.2543  0.6170
 2758TIP3    H1 8280   0.071   5.722   2.047  0.4331  0.8912  0.9455
 2758TIP3    H2 8281   0.154   5.620   2.123  0.6880  1.7399  1.8213
 2759TIP3   OH2 8282   0.572   3.111   4.849 -0.0817 -0.7523  0.1980
 2759TIP3    H1 8283   0.585   3.204   4.830  0.6101 -0.6557  1.0955
 2759TIP3    H2 8284   0.593   3.066   4.767 -2.1764 -0.0163 -0.8123
 2760TIP3   OH2 8285   3.361   5.711   2.743 -0.1019  0.8583 -0.0420
 2760TIP3    H1 8286   3.357   5.770   2.818  1.3655  0.1932  0.6060
 2760TIP3    H2 8287   3.407   5.761   2.676  2.3665  0.0887  0.9595
 2761TIP3   OH2 8288   5.038   2.192   0.544  0.1488  0.3751 -0.4943
 2761TIP3    H1 8289   5.019   2.218   0.454 -0.8166  0.5596 -0.2492
 2761TIP3    H2 8290   5.108   2.252   0.572  0.2491  0.5070 -1.0195
 2762TIP3   OH2 8291   3.940   2.416   2.131 -0.1044 -0.0635  0.1892
 2762TIP3    H1 8292   3.911   2.410   2.222  0.5201 -0.5630  0.3616
 2762TIP3    H2 8293   4.028   2.378   2.131  0.3506  0.9433 -0.4228
 2763TIP3   OH2 8294   3.237   4.577   0.518 -0.1205 -0.1681 -0.4003
 2763TIP3    H1 8295   3.279   4.499   0.555 -1.7408 -2.0539 -2.2567
 2763TIP3    H2 8296   3.259   4.647   0.579  0.3005 -2.3381  2.1346
 2764TIP3   OH2 8297   2.121   0.011   1.681  0.2358 -0.2749  0.3007
 2764TIP3    H1 8298   2.137   0.095   1.723 -0.4082 -0.2367  0.4739
 2764TIP3    H2 8299   2.172  -0.052   1.733  0.5716 -0.0206  0.2788
 2765TIP3   OH2 8300   1.057   1.414   0.783 -0.3214 -0.1227 -0.5407
 2765TIP3    H1 8301   0.985   1.443   0.728 -0.9564  0.7665  0.7158
 2765TIP3    H2 8302   1.080   1.492   0.835  1.1404 -0.5582 -0.4960
 2766TIP3   OH2 8303   5.213   5.870   3.692 -1.0571  0.0786  0.0184
 2766TIP3    H1 8304   5.156   5.938   3.656  1.5658  3.2081  1.2458
 2766TIP3    H2 8305   5.287   5.867   3.631 -0.9970 -1.6055  0.1243
 2767TIP3   OH2 8306   4.748   1.251   4.793  0.2460  0.1308  0.4145
 2767TIP3    H1 8307   4.671   1.225   4.742  0.5909  0.6712 -0.4014
 2767TIP3    H2 8308   4.751   1.188   4.865 -1.1741  0.3218  0.6831
 2768TIP3   OH2 8309   4.873   2.766   3.615 -0.4866  0.1471 -0.0747
 2768TIP3    H1 8310   4.815   2.700   3.652  0.1079  0.1294  0.8422
 2768TIP3    H2 8311   4.938   2.782   3.683  0.4995  0.2721 -1.0187
 2769TIP3   OH2 8312   5.815   1.688   1.500 -0.3080 -0.3473  0.0054
 2769TIP3    H1 8313   5.825   1.742   1.422 -0.1578  1.0589  0.9712
 2769TIP3    H2 8314   5.890   1.628   1.497  0.7702  0.9541  0.0437
 2770TIP3   OH2 8315   3.334   2.281   3.923 -0.2179  0.0833  0.1285
 2770TIP3    H1 8316   3.324   2.281   3.828  0.4629  2.1705  0.0153
 2770TIP3    H2 8317   3.416   2.327   3.939 -0.2156 -0.4097  1.7318
 2771TIP3   OH2 8318   1.439   2.401   3.695 -0.3286 -0.1548 -0.5419
 2771TIP3    H1 8319   1.525   2.360   3.693  0.4432  1.4397 -1.2842
 2771TIP3    H2 8320   1.378   2.328   3.697  1.0383 -1.3248  1.0590
 2772TIP3   OH2 8321   3.521   3.164   0.507 -0.2863  0.1393  0.2011
 2772TIP3    H1 8322   3.444   3.159   0.564  0.0769 -0.5779  0.6339
 2772TIP3    H2 8323   3.587   3.210   0.559  0.2078 -0.9445  0.5686
 2773TIP3   OH2 8324   5.548   0.189   3.521 -0.5761 -0.2977 -0.1753
 2773TIP3    H1 8325   5.483   0.147   3.465 -0.8139  0.4615 -0.4871
 2773TIP3    H2 8326   5.501   0.260   3.564  0.0573  0.3065 -0.4569
 2774TIP3   OH2 8327   4.758   5.050   3.628  0.1086 -0.2945 -0.1317
 2774TIP3    H1 8328   4.665   5.053   3.651  0.3640 -2.1554  1.3696
 2774TIP3    H2 8329   4.762   4.994   3.551 -0.1392  1.1364 -1.2279
 2775TIP3   OH2 8330   0.755   1.881   3.238 -0.0414 -0.3645  0.6973
 2775TIP3    H1 8331   0.839   1.840   3.215 -0.3112 -1.6080  1.7873
 2775TIP3    H2 8332   0.714   1.819   3.298 -0.2112  1.7682  2.9692
 2776TIP3   OH2 8333   4.311   4.574   3.973 -0.0098  0.2396  0.3063
 2776TIP3    H1 8334   4.370   4.556   4.047 -0.1374  1.8753  0.8589
 2776TIP3    H2 8335   4.223   4.570   4.010 -0.2059 -0.9688 -0.2435
 2777TIP3   OH2 8336   0.036   4.992   1.538  0.2264  0.0485  0.3739
 2777TIP3    H1 8337   0.011   5.077   1.501  3.4695  1.4417  1.0738
 2777TIP3    H2 8338   0.106   4.960   1.481  0.9800 -0.8009  1.7249
 2778TIP3   OH2 8339   4.143   1.399   2.388  0.3515  0.5698 -0.2989
 2778TIP3    H1 8340   4.130   1.458   2.314 -0.4570  0.2338 -0.4330
 2778TIP3    H2 8341   4.079   1.328   2.374 -0.2622  0.8300  1.0429
 2779TIP3   OH2 8342   5.142   0.978   0.289  0.0513 -0.0877  0.7441
 2779TIP3    H1 8343   5.047   0.982   0.293 -0.0174 -1.3429  0.9958
 2779TIP3    H2 8344   5.167   0.925   0.366  0.9231  0.0118  0.5432
 2780TIP3   OH2 8345   4.691   0.776   2.756  1.0178 -0.5445 -0.6947
 2780TIP3    H1 8346   4.702   0.822   2.673 -0.7602  0.1250 -0.5897
 2780TIP3    H2 8347   4.765   0.805   2.809  2.0206 -0.7585 -1.9186
 2781TIP3   OH2 8348   3.892   1.723   4.801 -0.0224  0.4821  0.0769
 2781TIP3    H1 8349   3.949   1.799   4.812  1.7462 -0.8136  0.1805
 2781TIP3    H2 8350   3.839   1.744   4.724  0.6422  1.6851 -0.0807
 2782TIP3   OH2 8351   0.820   4.294   2.995 -0.2421 -0.5912  0.1599
 2782TIP3    H1 8352   0.798   4.268   3.085 -0.0131 -1.6029 -0.0671
 2782TIP3    H2 8353   0.801   4.388   2.992  0.7409 -0.3298  1.5598
 2783TIP3   OH2 8354   2.560   4.308   4.044 -0.2728  0.2732 -0.0847
 2783TIP3    H1 8355   2.565   4.242   4.113 -1.1542  0.0209 -0.2481
 2783TIP3    H2 8356   2.605   4.384   4.081  1.1067 -0.5257 -0.0497
 2784TIP3   OH2 8357   3.741   0.342   4.765  0.7982 -0.3888 -0.1609
 2784TIP3    H1 8358   3.668   0.340   4.827  0.2629  0.2222 -0.7629
 2784TIP3    H2 8359   3.798   0.270   4.794  0.8215  0.1942  1.3399
 2785TIP3   OH2 8360   0.875   1.175   1.724  0.7747 -0.0532  0.3880
 2785TIP3    H1 8361   0.906   1.093   1.686  1.5899  0.3869  0.0761
 2785TIP3    H2 8362   0.823   1.149   1.800  0.7228 -0.8679  0.0725
 2786TIP3   OH2 8363   6.362   1.139   4.014 -0.5263  0.3552 -0.0643
 2786TIP3    H1 8364   6.375   1.143   4.109 -1.0492  0.1609  0.0192
 2786TIP3    H2 8365   6.268   1.125   4.003 -0.1534 -2.4110 -0.5151
 2787TIP3   OH2 8366   5.047   0.424   4.785 -0.0148 -0.2656  0.3446
 2787TIP3    H1 8367   4.963   0.417   4.831 -0.4522 -0.5261 -0.4794
 2787TIP3    H2 8368   5.039   0.504   4.733  1.4383  1.4555  2.5887
 2788TIP3   OH2 8369   3.448   1.545   3.629  0.4888  0.2975 -0.0575
 2788TIP3    H1 8370   3.466   1.626   3.581  0.8069 -0.0284 -0.4914
 2788TIP3    H2 8371   3.408   1.487   3.564  0.6924 -0.0586  0.1330
 2789TIP3   OH2 8372   1.173   1.404   0.502  0.7232  0.0240 -0.6281
 2789TIP3    H1 8373   1.112   1.384   0.431  0.7449 -0.6047 -0.4724
 2789TIP3    H2 8374   1.117   1.412   0.580  0.7752 -0.0043 -0.5876
 2790TIP3   OH2 8375   5.204   5.039   1.606  0.2966 -0.0487 -0.6413
 2790TIP3    H1 8376   5.233   5.033   1.697  0.7996  1.9570 -0.6166
 2790TIP3    H2 8377   5.266   5.099   1.565 -1.2796  0.9560 -1.6831
 2791TIP3   OH2 8378   1.007   2.800   1.983 -0.5904  0.4396  0.4160
 2791TIP3    H1 8379   0.958   2.718   1.999  0.9089 -0.3696  1.0690
 2791TIP3    H2 8380   1.042   2.824   2.069  0.2732  0.9155 -0.0568
 2792TIP3   OH2 8381   2.896   5.778   0.047  0.4370 -0.3117  0.5809
 2792TIP3    H1 8382   2.930   5.831  -0.025 -1.1449  0.3528  0.2703
 2792TIP3    H2 8383   2.929   5.690   0.030  1.2452  0.1150 -0.1609
 2793TIP3   OH2 8384   1.293   1.815   4.806  0.1770  0.2192  0.0712
 2793TIP3    H1 8385   1.354   1.889   4.799  1.5878 -0.9781 -1.0759
 2793TIP3    H2 8386   1.257   1.807   4.717 -1.4963  0.7316  0.6689
 2794TIP3   OH2 8387   2.862   5.815   2.610 -0.0934  0.1768  0.3718
 2794TIP3    H1 8388   2.934   5.876   2.625  0.5082 -1.0664  3.1269
 2794TIP3    H2 8389   2.862   5.801   2.516  1.3355  2.4761 -0.0525
 2795TIP3   OH2 8390   2.939   5.333   3.826  0.4858  0.4978  0.5307
 2795TIP3    H1 8391   2.929   5.264   3.762  0.0593 -0.4917  1.6258
 2795TIP3    H2 8392   2.849   5.363   3.844  0.4006 -0.5552  2.0342
 2796TIP3   OH2 8393   3.156   3.093   1.819 -0.0920 -0.0209 -0.2735
 2796TIP3    H1 8394   3.061   3.102   1.807 -0.1799 -0.9485 -0.3353
 2796TIP3    H2 8395   3.190   3.083   1.730  0.2828  1.9805 -0.4170
 2797TIP3   OH2 8396   2.101   0.343  -0.012  0.2461  0.5022 -0.2687
 2797TIP3    H1 8397   2.066   0.369   0.074  1.5832  0.0365  0.4490
 2797TIP3    H2 8398   2.149   0.420  -0.042 -0.2244  0.6654 -0.6031
 2798TIP3   OH2 8399   3.870   0.338   2.260 -0.5575 -0.1688  0.4532
 2798TIP3    H1 8400   3.901   0.300   2.342  0.1091 -0.1821  0.1962
 2798TIP3    H2 8401   3.820   0.267   2.218 -1.0330 -0.1122  0.9111
 2799TIP3   OH2 8402   5.999   3.596   1.234  0.5146 -0.1162 -0.0548
 2799TIP3    H1 8403   5.969   3.509   1.207  0.5823 -0.1989  0.1335
 2799TIP3    H2 8404   5.950   3.614   1.315 -1.0012  0.8651 -1.1336
 2800TIP3   OH2 8405   3.069   0.550   2.424  0.0311 -0.2086  0.4166
 2800TIP3    H1 8406   3.022   0.492   2.364  0.0027  1.7363 -1.5847
 2800TIP3    H2 8407   3.000   0.584   2.482 -0.3499 -0.3430  0.0514
 2801TIP3   OH2 8408   4.853   0.868   2.300  0.2907 -0.8076 -0.1727
 2801TIP3    H1 8409   4.786   0.856   2.232 -0.6870  0.2533  0.5673
 2801TIP3    H2 8410   4.929   0.901   2.252 -0.0714 -0.9610 -0.8771
 2802TIP3   OH2 8411   4.400   3.840   2.636  0.4367 -0.0592 -0.2266
 2802TIP3    H1 8412   4.435   3.778   2.701  2.5890 -1.2215 -2.3238
 2802TIP3    H2 8413   4.337   3.788   2.586 -0.6103  0.6020  0.3705
 2803TIP3   OH2 8414   5.110   3.318   1.899  0.4339  0.7408 -0.0729
 2803TIP3    H1 8415   5.082   3.358   1.816  0.0915 -1.5061 -1.1219
 2803TIP3    H2 8416   5.201   3.344   1.908  0.0692  2.2469 -0.3481
 2804TIP3   OH2 8417   4.925   5.136   5.049  0.1820 -0.9115 -0.2853
 2804TIP3    H1 8418   5.013   5.142   5.010  0.6044  1.5652  0.8347
 2804TIP3    H2 8419   4.910   5.223   5.087 -2.6454 -1.3577 -0.1542
 2805TIP3   OH2 8420   5.967   3.038   0.483  0.1711  0.0986  0.4617
 2805TIP3    H1 8421   6.046   3.000   0.443  0.4667 -0.2871  1.3882
 2805TIP3    H2 8422   5.898   3.021   0.419  0.4727 -1.2441  0.4488
 2806TIP3   OH2 8423   4.265   5.483   1.471  0.0281  0.0338  0.1235
 2806TIP3    H1 8424   4.324   5.449   1.538 -0.6049  1.0761  1.2401
 2806TIP3    H2 8425   4.182   5.438   1.488 -0.4517  1.1488  0.7838
 2807TIP3   OH2 8426   0.601   5.626   3.472  0.1523 -0.2177 -0.5083
 2807TIP3    H1 8427   0.679   5.597   3.426  1.8210  1.3327  1.1798
 2807TIP3    H2 8428   0.615   5.720   3.488 -1.9926  0.0861 -0.0341
 2808TIP3   OH2 8429   4.600   1.955   2.300  0.4033 -0.2250  0.3430
 2808TIP3    H1 8430   4.595   1.916   2.387 -1.8269 -0.6983  0.0771
 2808TIP3    H2 8431   4.617   2.048   2.315  0.7731 -0.4372  1.2444
 2809TIP3   OH2 8432   4.050   5.396   2.572 -0.0617 -0.0179 -0.4608
 2809TIP3    H1 8433   4.057   5.472   2.515  0.7575  0.2943  0.0454
 2809TIP3    H2 8434   3.986   5.339   2.528  1.7468 -0.5734 -2.5850
 2810TIP3   OH2 8435   5.798   1.017   1.248 -0.3335  0.3590 -0.0704
 2810TIP3    H1 8436   5.794   0.995   1.155 -1.2230  1.3734 -0.3009
 2810TIP3    H2 8437   5.706   1.019   1.276 -0.1066  0.6085  0.6903
 2811TIP3   OH2 8438   1.044   2.097   5.117  0.0245  0.3534  0.5052
 2811TIP3    H1 8439   1.062   2.041   5.041 -1.2129  0.7674 -0.1244
 2811TIP3    H2 8440   1.034   2.036   5.190  0.3305 -0.1215  0.1516
 2812TIP3   OH2 8441   3.294   5.986   2.608  0.0182 -0.0763  0.0342
 2812TIP3    H1 8442   3.368   5.939   2.570  0.3294  0.0665  0.4462
 2812TIP3    H2 8443   3.299   5.965   2.702 -1.1652 -1.0237 -0.0889
 2813TIP3   OH2 8444   3.077   0.717   3.980  0.5006 -0.2271  0.4857
 2813TIP3    H1 8445   3.086   0.736   4.074 -1.1021  0.0984  0.5928
 2813TIP3    H2 8446   2.991   0.677   3.971  1.5071 -2.3392 -0.5652
 2814TIP3   OH2 8447   2.984   4.083   2.777 -0.0060 -0.1219 -0.0521
 2814TIP3    H1 8448   3.029   4.104   2.695  0.1480 -2.4191 -0.6284
 2814TIP3    H2 8449   2.916   4.021   2.752 -0.4941 -0.2245  1.4485
 2815TIP3   OH2 8450   1.714   4.766   2.592 -0.0642  0.5406 -0.0187
 2815TIP3    H1 8451   1.625   4.732   2.597  0.0324  0.3275  0.2270
 2815TIP3    H2 8452   1.703   4.857   2.562 -0.2947  0.1713 -1.1231
 2816TIP3   OH2 8453   4.900   0.770   4.311  0.6053 -0.0447  0.4413
 2816TIP3    H1 8454   4.903   0.777   4.407  0.6733  1.4037  0.3454
 2816TIP3    H2 8455   4.819   0.813   4.286  0.2093 -1.0741 -0.1248
 2817TIP3   OH2 8456   3.366   1.216   2.241 -0.1075 -0.3361 -0.1393
 2817TIP3    H1 8457   3.366   1.121   2.255 -1.6286 -0.0682  2.3629
 2817TIP3    H2 8458   3.274   1.237   2.226  0.1881  0.7805 -0.4448
 2818TIP3   OH2 8459   5.647   1.005  -0.013 -0.2784  0.1231 -0.1340
 2818TIP3    H1 8460   5.647   0.984   0.080  2.1374  0.4271  0.0021
 2818TIP3    H2 8461   5.576   0.953  -0.050  1.1570 -3.0985  1.2578
 2819TIP3   OH2 8462   1.608   0.121   4.740 -0.1441  0.2453 -0.0218
 2819TIP3    H1 8463   1.534   0.180   4.725 -0.7770 -0.4578  0.2679
 2819TIP3    H2 8464   1.681   0.179   4.761 -1.1300  0.8896  1.9007
 2820TIP3   OH2 8465   5.891   0.984   1.878 -0.2533 -0.2937  0.4921
 2820TIP3    H1 8466   5.931   0.920   1.936 -1.0464 -0.7978  0.4858
 2820TIP3    H2 8467   5.840   0.932   1.816  0.9524  0.1920 -0.9642
 2821TIP3   OH2 8468   3.225   3.280   2.835 -0.2146  0.3121 -0.0919
 2821TIP3    H1 8469   3.206   3.372   2.818 -2.0584 -0.2325 -1.3148
 2821TIP3    H2 8470   3.286   3.255   2.766 -0.8349  0.2865 -0.6435
 2822TIP3   OH2 8471   1.651   5.034   3.023 -0.0700 -0.5974  0.4249
 2822TIP3    H1 8472   1.737   5.037   2.981 -0.8881  2.3966 -1.2798
 2822TIP3    H2 8473   1.604   4.966   2.974 -0.2631  1.2811 -2.1786
 2823TIP3   OH2 8474   1.644   0.625   0.558  0.2669  0.3918 -0.2320
 2823TIP3    H1 8475   1.600   0.646   0.640 -0.0219  2.7892 -0.9222
 2823TIP3    H2 8476   1.586   0.563   0.514 -1.0173  1.2815  0.1512
 2824TIP3   OH2 8477   3.903   5.459   2.271  0.3220  0.2857  0.3679
 2824TIP3    H1 8478   3.852   5.512   2.332  1.2900 -0.3462  1.7862
 2824TIP3    H2 8479   3.887   5.499   2.185 -3.0324 -0.2711  0.6074
 2825TIP3   OH2 8480   0.939   5.259   0.019 -0.5017 -0.3200  0.2759
 2825TIP3    H1 8481   1.020   5.237  -0.027 -0.5103 -0.1036  0.1536
 2825TIP3    H2 8482   0.967   5.316   0.090 -0.2626 -2.0803  1.6567
 2826TIP3   OH2 8483   4.397   2.995   2.610 -0.5975 -0.4214  0.3245
 2826TIP3    H1 8484   4.468   2.941   2.645  1.1411  1.5058 -0.0556
 2826TIP3    H2 8485   4.360   3.038   2.686 -0.2108 -0.1116  0.3366
 2827TIP3   OH2 8486   0.866   5.072   3.602 -0.0015  0.4287  0.3544
 2827TIP3    H1 8487   0.819   5.011   3.658  2.3543 -0.4550  1.5198
 2827TIP3    H2 8488   0.854   5.037   3.513 -0.6075 -0.3915  0.7452
 2828TIP3   OH2 8489   4.559   4.795   4.424  0.1367  0.5703 -0.1886
 2828TIP3    H1 8490   4.463   4.796   4.421 -0.0569 -3.3288 -0.9850
 2828TIP3    H2 8491   4.581   4.814   4.515 -1.5645 -0.4008  0.4746
 2829TIP3   OH2 8492   6.134   3.323   0.715 -0.2761 -0.3685  0.2462
 2829TIP3    H1 8493   6.072   3.290   0.781 -0.0318  1.1887  1.3262
 2829TIP3    H2 8494   6.112   3.416   0.707 -0.2921 -0.5272 -1.9163
 2830TIP3   OH2 8495   4.228   0.518   2.952 -0.3242 -0.3003 -0.1995
 2830TIP3    H1 8496   4.197   0.455   3.017  1.3504 -0.7028  0.2749
 2830TIP3    H2 8497   4.248   0.465   2.875  0.8208 -0.3521  0.1060
 2831TIP3   OH2 8498   2.754   1.761   2.677 -0.0383 -0.0850 -0.1966
 2831TIP3    H1 8499   2.828   1.725   2.627  2.0510  0.4344  2.3286
 2831TIP3    H2 8500   2.794   1.810   2.748 -2.8274 -0.4302  1.7845
 2832TIP3   OH2 8501   0.105   4.033   2.280  0.4445  0.6201 -0.1368
 2832TIP3    H1 8502   0.089   3.961   2.340  0.2409 -0.5818 -1.5593
 2832TIP3    H2 8503   0.028   4.034   2.223  1.8476 -0.2393 -2.2119
 2833TIP3   OH2 8504   4.403   1.622   2.770  0.3451  0.3222 -1.0357
 2833TIP3    H1 8505   4.461   1.637   2.696  1.2150  1.0459 -0.2247
 2833TIP3    H2 8506   4.346   1.699   2.772 -1.2537 -0.7604 -2.3338
 2834TIP3   OH2 8507   4.048   3.595   2.421 -0.1121  0.0346  0.3582
 2834TIP3    H1 8508   3.981   3.559   2.478  0.1689 -1.3801 -0.1598
 2834TIP3    H2 8509   4.062   3.528   2.354  2.8440 -0.4428  1.2721
 2835TIP3   OH2 8510   5.826   5.422   5.114 -0.3345 -0.4788 -0.4411
 2835TIP3    H1 8511   5.795   5.512   5.118  1.3698  0.1001  2.4814
 2835TIP3    H2 8512   5.921   5.428   5.124 -0.1779 -2.6106 -0.0849
 2836TIP3   OH2 8513   5.626   1.515   4.678  0.1508  0.1500  0.2203
 2836TIP3    H1 8514   5.601   1.601   4.646  1.2136  1.3142  2.3002
 2836TIP3    H2 8515   5.558   1.456   4.646 -2.0450  2.1847  0.9157
 2837TIP3   OH2 8516   2.105   4.687   0.268 -0.0040  0.2876  0.1773
 2837TIP3    H1 8517   2.068   4.760   0.319  2.1870  3.6209 -2.5712
 2837TIP3    H2 8518   2.199   4.694   0.283  0.2787 -1.9678 -0.3326
 2838TIP3   OH2 8519   1.061   4.983   0.108 -0.2414  0.1079 -0.2781
 2838TIP3    H1 8520   1.131   5.042   0.135 -1.3059  1.4892 -0.3868
 2838TIP3    H2 8521   1.022   4.953   0.190  0.6946 -0.9687 -0.2098
 2839TIP3   OH2 8522   2.240   1.226   4.686 -0.1222  0.8126 -0.3217
 2839TIP3    H1 8523   2.186   1.191   4.615  0.1894  0.4297 -0.3677
 2839TIP3    H2 8524   2.257   1.317   4.661  0.3073  0.5648 -0.9187
 2840TIP3   OH2 8525   4.479   3.514   4.782  0.3429  0.0238  0.6695
 2840TIP3    H1 8526   4.523   3.497   4.866 -0.1666 -0.2379  0.8902
 2840TIP3    H2 8527   4.394   3.470   4.791 -0.2346  1.0728  0.5052
 2841TIP3   OH2 8528   2.654   2.390   3.544  0.3023 -0.3082 -0.3806
 2841TIP3    H1 8529   2.623   2.447   3.474  1.2541 -0.3189 -0.8391
 2841TIP3    H2 8530   2.632   2.436   3.624  1.6367  1.0596 -0.7472
 2842TIP3   OH2 8531   5.826   4.451   2.648 -0.1850  1.0715  0.0918
 2842TIP3    H1 8532   5.792   4.537   2.670 -3.8284 -0.1999  0.1492
 2842TIP3    H2 8533   5.802   4.439   2.556  2.4106  0.9500 -0.6448
 2843TIP3   OH2 8534   1.295   5.332   3.473  0.0304 -0.0064  0.5118
 2843TIP3    H1 8535   1.277   5.246   3.510  1.2992 -1.1800 -1.3871
 2843TIP3    H2 8536   1.358   5.372   3.533  1.2019 -1.3880  0.2644
 2844TIP3   OH2 8537   0.824   3.441   4.543 -0.0456  0.1822 -0.1108
 2844TIP3    H1 8538   0.913   3.456   4.575  1.0199  0.3748 -2.8621
 2844TIP3    H2 8539   0.830   3.360   4.493 -0.7896  1.3243 -2.2067
 2845TIP3   OH2 8540   0.723   3.479   2.614  0.3249  0.5591 -0.5610
 2845TIP3    H1 8541   0.735   3.550   2.551 -0.2982  1.9464  0.8126
 2845TIP3    H2 8542   0.637   3.495   2.653 -0.2088 -1.4638 -0.8153
 2846TIP3   OH2 8543   5.776   5.146   0.156  0.3544 -0.6511  0.0257
 2846TIP3    H1 8544   5.714   5.193   0.099 -1.2609 -2.0258  0.5531
 2846TIP3    H2 8545   5.769   5.190   0.240 -1.8752 -2.2781  0.7886
 2847TIP3   OH2 8546   2.000   5.731   1.706  0.1888  0.6476  0.2651
 2847TIP3    H1 8547   2.012   5.731   1.611  1.0867 -1.0645  0.3320
 2847TIP3    H2 8548   1.909   5.702   1.718  0.6569 -1.0990 -0.0882
 2848TIP3   OH2 8549   4.092   4.075   2.379  0.2682 -0.5997  0.1430
 2848TIP3    H1 8550   4.051   3.994   2.349  0.1153 -0.6613  0.5119
 2848TIP3    H2 8551   4.172   4.082   2.328 -0.1294 -0.5570 -0.4761
 2849TIP3   OH2 8552   0.799   5.153   0.945 -0.7128  0.3216 -0.6217
 2849TIP3    H1 8553   0.864   5.175   1.012 -1.0270 -0.0903 -0.1726
 2849TIP3    H2 8554   0.801   5.057   0.940 -1.2073  0.3119 -0.6829
 2850TIP3   OH2 8555   1.945   1.158   0.166  0.0891  0.4051 -0.4317
 2850TIP3    H1 8556   1.991   1.098   0.108  2.5229  2.9053 -1.2878
 2850TIP3    H2 8557   1.873   1.105   0.202  1.4259 -2.6629 -1.8552
 2851TIP3   OH2 8558   0.796   1.238   3.186 -0.0997  0.2170 -0.2070
 2851TIP3    H1 8559   0.856   1.303   3.220 -0.1217  0.3786 -0.4778
 2851TIP3    H2 8560   0.825   1.222   3.096 -0.3911  0.2141 -0.3020
 2852TIP3   OH2 8561   4.156   4.781   3.001 -1.0127  0.1963 -0.2886
 2852TIP3    H1 8562   4.195   4.713   3.056 -0.4476  0.6961 -0.0697
 2852TIP3    H2 8563   4.064   4.755   2.993 -0.7667 -0.6997 -0.3652
 2853TIP3   OH2 8564   3.142   3.601   2.776 -0.2987 -0.0156  0.2716
 2853TIP3    H1 8565   3.149   3.610   2.871 -1.3140  0.1190  0.3445
 2853TIP3    H2 8566   3.049   3.619   2.757 -0.0547  0.2087 -0.7676
 2854TIP3   OH2 8567   0.160   0.796   4.407  0.3056 -0.3582 -0.8052
 2854TIP3    H1 8568   0.076   0.799   4.362  1.0219 -1.1606 -2.2727
 2854TIP3    H2 8569   0.159   0.873   4.465 -1.9040 -1.0415  0.1620
 2855TIP3   OH2 8570   1.507   3.506   2.835  0.0538  0.3510 -0.1174
 2855TIP3    H1 8571   1.581   3.556   2.800  0.9733 -0.5226  0.5508
 2855TIP3    H2 8572   1.463   3.567   2.893 -0.3078  1.1733 -1.2194
 2856TIP3   OH2 8573   1.847   1.792   4.555  0.3752 -0.0974  0.1803
 2856TIP3    H1 8574   1.860   1.842   4.635 -2.8497 -1.4568  1.7352
 2856TIP3    H2 8575   1.923   1.813   4.501  1.1464  3.2932  2.2871
 2857TIP3   OH2 8576   4.825   1.156   4.191 -0.8245  0.3358 -0.2427
 2857TIP3    H1 8577   4.877   1.190   4.263 -2.1291  0.4693  0.6496
 2857TIP3    H2 8578   4.779   1.232   4.155  0.5589  0.4662 -1.9078
 2858TIP3   OH2 8579   1.442   0.694   1.822  0.1062  0.1871  0.0731
 2858TIP3    H1 8580   1.530   0.723   1.844  0.6301 -2.0154  1.2166
 2858TIP3    H2 8581   1.447   0.598   1.826 -2.0860 -0.0242 -0.8691
 2859TIP3   OH2 8582   5.909   3.314   0.358  0.1004  0.6964 -0.4570
 2859TIP3    H1 8583   5.937   3.226   0.385 -1.0813  0.1206 -1.0221
 2859TIP3    H2 8584   5.978   3.344   0.299  1.5146  0.9890  1.2520
 2860TIP3   OH2 8585   3.209   4.052   0.285  0.0977 -0.1126  0.4139
 2860TIP3    H1 8586   3.133   4.008   0.246  0.2292  0.3459 -0.3920
 2860TIP3    H2 8587   3.191   4.053   0.379 -1.0462  0.2734  0.2001
 2861TIP3   OH2 8588   3.553   2.568   0.778  0.1621 -0.1193 -0.2678
 2861TIP3    H1 8589   3.566   2.586   0.685  0.4008  0.1039 -0.1924
 2861TIP3    H2 8590   3.640   2.549   0.812  0.3018  1.2342  0.2045
 2862TIP3   OH2 8591   3.135   1.269   4.744 -0.0946  0.5166  0.0482
 2862TIP3    H1 8592   3.093   1.354   4.751 -1.2030 -0.0321  0.3911
 2862TIP3    H2 8593   3.081   1.212   4.799  2.0886  0.1303  1.9260
 2863TIP3   OH2 8594   4.167   0.416   4.189 -0.7103 -0.5910 -0.1025
 2863TIP3    H1 8595   4.134   0.329   4.166  0.2801 -0.8871 -0.4593
 2863TIP3    H2 8596   4.097   0.476   4.166 -1.4485 -1.3041  0.2422
 2864TIP3   OH2 8597   0.231   2.714   4.897  0.1125  0.2964  1.1502
 2864TIP3    H1 8598   0.243   2.769   4.975 -0.8222  1.1946  0.6701
 2864TIP3    H2 8599   0.140   2.726   4.872  0.3387 -0.1691  0.0378
 2865TIP3   OH2 8600   2.394   3.352   1.830  0.6443 -0.6932 -0.0886
 2865TIP3    H1 8601   2.452   3.365   1.905  1.6213 -1.0873 -0.7451
 2865TIP3    H2 8602   2.454   3.334   1.757 -0.2471  0.2671 -1.0948
 2866TIP3   OH2 8603   3.789   0.030   3.827  0.6156 -0.2227  0.9044
 2866TIP3    H1 8604   3.769  -0.054   3.869  0.8601 -0.2825  0.9065
 2866TIP3    H2 8605   3.731   0.093   3.869  1.3684 -0.1466  1.8503
 2867TIP3   OH2 8606   2.184   4.206   2.715 -0.1869  0.1419  0.1216
 2867TIP3    H1 8607   2.209   4.114   2.726 -1.0560 -0.1790 -0.4280
 2867TIP3    H2 8608   2.143   4.209   2.628 -2.1396  0.5718  0.9864
 2868TIP3   OH2 8609   5.362   0.022   4.221 -0.2562  0.4970 -0.0720
 2868TIP3    H1 8610   5.419  -0.026   4.281  0.2754  0.1708 -0.8232
 2868TIP3    H2 8611   5.403   0.011   4.135 -1.8036 -0.3275 -0.7448
 2869TIP3   OH2 8612   0.460   0.943   4.498 -0.4339 -0.0893  0.2800
 2869TIP3    H1 8613   0.513   0.964   4.422 -0.9711 -0.4524 -0.2009
 2869TIP3    H2 8614   0.411   1.023   4.516 -0.2784  0.0091  0.2692
 2870TIP3   OH2 8615   0.493   5.926   0.062 -0.2538 -0.0537  0.3299
 2870TIP3    H1 8616   0.565   5.940   0.123 -1.1081 -0.3203  1.4284
 2870TIP3    H2 8617   0.529   5.950  -0.023  1.4716 -1.2184  0.6791
 2871TIP3   OH2 8618   0.961   5.212   5.027  0.0692  0.0036  0.6470
 2871TIP3    H1 8619   0.977   5.302   4.999  0.8191  0.2069  1.6923
 2871TIP3    H2 8620   0.937   5.220   5.120  3.5656 -1.1070  1.7735
 2872TIP3   OH2 8621   0.354   2.391   1.178  0.1125 -0.0517 -0.3480
 2872TIP3    H1 8622   0.313   2.457   1.234  1.1452  0.1656  0.1764
 2872TIP3    H2 8623   0.447   2.412   1.180  0.4594 -1.4799 -0.2171
 2873TIP3   OH2 8624   2.516   3.711   3.184 -0.2364 -0.4084 -0.0708
 2873TIP3    H1 8625   2.500   3.786   3.127 -0.8258 -1.1922 -0.9822
 2873TIP3    H2 8626   2.438   3.706   3.239  0.2940  0.2973  0.7515
 2874TIP3   OH2 8627   2.208   2.285   1.017  0.3995 -0.1112  0.4110
 2874TIP3    H1 8628   2.134   2.328   0.975  0.2622 -0.1360  0.6271
 2874TIP3    H2 8629   2.174   2.255   1.102  0.6402 -0.1717  0.4874
 2875TIP3   OH2 8630   1.010   2.318   1.305  0.0918 -0.4930  0.1905
 2875TIP3    H1 8631   1.030   2.278   1.221 -2.0844 -1.2479 -0.0261
 2875TIP3    H2 8632   0.916   2.303   1.317  0.2633 -0.0352  2.5636
 2876TIP3   OH2 8633   2.317   3.443   3.252 -0.1681  0.3674  0.2034
 2876TIP3    H1 8634   2.347   3.393   3.329  3.2512  1.3582 -0.3028
 2876TIP3    H2 8635   2.296   3.530   3.286  1.1843  0.7550  0.1213
 2877TIP3   OH2 8636   0.780   5.325   3.563  0.2162 -0.0744 -0.0818
 2877TIP3    H1 8637   0.775   5.364   3.650  1.1115  0.2546 -0.1667
 2877TIP3    H2 8638   0.830   5.245   3.574  0.1619 -0.1363 -0.2673
 2878TIP3   OH2 8639  -0.033   2.912   0.979 -0.1716 -0.2278 -0.5759
 2878TIP3    H1 8640  -0.002   2.889   1.067 -0.1513  1.5634 -0.0853
 2878TIP3    H2 8641   0.040   2.962   0.941 -0.0511 -1.2569 -1.7565
 2879TIP3   OH2 8642   0.439   4.862   3.626  0.3478 -0.2364  0.2289
 2879TIP3    H1 8643   0.355   4.898   3.657  0.7111  0.4303  0.4498
 2879TIP3    H2 8644   0.475   4.930   3.570  1.2283 -0.0764  0.9625
 2880TIP3   OH2 8645   0.445   0.864   2.364  0.0314  0.2620  0.3370
 2880TIP3    H1 8646   0.541   0.867   2.358  0.0192  1.8971  0.4409
 2880TIP3    H2 8647   0.419   0.793   2.306  1.2261  0.7992 -0.9040
 2881TIP3   OH2 8648   2.599   0.440   4.904 -0.0110  0.3080  0.4851
 2881TIP3    H1 8649   2.689   0.460   4.930 -0.5983  1.3207  1.8415
 2881TIP3    H2 8650   2.573   0.513   4.848 -0.0247  0.0845  0.2017
 2882TIP3   OH2 8651   3.752   3.233   3.227  0.1700 -0.5281  0.3216
 2882TIP3    H1 8652   3.838   3.252   3.265 -0.4606  0.7941  1.1494
 2882TIP3    H2 8653   3.719   3.160   3.280  0.3426 -0.3316  0.7065
 2883TIP3   OH2 8654   5.178   5.300   3.794 -0.0676  0.7267  0.1298
 2883TIP3    H1 8655   5.229   5.333   3.868 -0.4148  1.1025  0.2030
 2883TIP3    H2 8656   5.128   5.375   3.764  1.7587  1.2053 -1.9440
 2884TIP3   OH2 8657   5.112   0.520   3.717  0.7266  0.3338  0.7603
 2884TIP3    H1 8658   5.185   0.575   3.746  0.9084  1.2418 -1.2108
 2884TIP3    H2 8659   5.146   0.474   3.640 -0.8092  1.0005 -0.3814
 2885TIP3   OH2 8660   4.005   2.124   4.844  0.2971  0.2491  0.0309
 2885TIP3    H1 8661   4.063   2.101   4.917 -1.0611  0.1462  1.1156
 2885TIP3    H2 8662   4.011   2.219   4.838 -1.5631  0.5937  2.0897
 2886TIP3   OH2 8663   2.093   1.198   2.291 -0.4476 -0.5235  0.5475
 2886TIP3    H1 8664   2.020   1.152   2.331 -0.2391 -1.9707 -0.6475
 2886TIP3    H2 8665   2.161   1.199   2.359 -0.6473 -1.5397  0.7797
 2887TIP3   OH2 8666   3.673   3.277   0.225  0.0882  0.0686  0.1291
 2887TIP3    H1 8667   3.708   3.282   0.314  0.2218  1.5952  0.0264
 2887TIP3    H2 8668   3.691   3.364   0.188  1.5829 -1.0599 -1.9811
 2888TIP3   OH2 8669   1.629   4.566   3.307  0.0102 -0.2600  0.5514
 2888TIP3    H1 8670   1.668   4.635   3.361 -0.7060  0.6174 -0.0243
 2888TIP3    H2 8671   1.683   4.565   3.228  0.7554 -1.2084  1.0418
 2889TIP3   OH2 8672   1.809   3.951   4.565 -0.2258 -1.3028  0.2569
 2889TIP3    H1 8673   1.882   3.896   4.594  0.7465 -0.8837 -1.2495
 2889TIP3    H2 8674   1.821   3.958   4.470 -0.9507  0.5759  0.2617
 2890TIP3   OH2 8675   1.929   3.105   0.682 -0.2920 -0.0058 -0.2169
 2890TIP3    H1 8676   1.952   3.032   0.739 -0.6962 -0.0246 -0.0767
 2890TIP3    H2 8677   1.958   3.183   0.729 -0.7913 -0.0090  0.0986
 2891TIP3   OH2 8678   3.486   0.999   4.085 -0.0346 -0.2361 -0.4710
 2891TIP3    H1 8679   3.407   1.051   4.104  0.9779  0.5981  1.8157
 2891TIP3    H2 8680   3.531   1.049   4.017 -0.9259 -0.1502 -1.0198
 2892TIP3   OH2 8681   5.783   0.053   2.046 -0.2656 -0.5292 -0.1071
 2892TIP3    H1 8682   5.799   0.038   2.139  3.0786 -0.4942 -0.5427
 2892TIP3    H2 8683   5.827  -0.020   2.003 -1.4910 -0.3692 -1.6898
 2893TIP3   OH2 8684   6.226   5.787   1.921 -0.5313  0.2854  0.3481
 2893TIP3    H1 8685   6.309   5.787   1.873  0.3155  0.2009  1.7697
 2893TIP3    H2 8686   6.210   5.695   1.940 -0.8974  0.3143  0.1846
 2894TIP3   OH2 8687   2.036   2.567   3.393  0.1287  0.0597  0.0879
 2894TIP3    H1 8688   2.092   2.489   3.391 -1.6073 -1.2730  0.7034
 2894TIP3    H2 8689   1.989   2.565   3.310 -0.3967  0.0690  0.3787
 2895TIP3   OH2 8690   4.874   2.382   2.527 -0.0051  0.2824 -0.4100
 2895TIP3    H1 8691   4.918   2.302   2.554  1.3087  1.1313  0.0436
 2895TIP3    H2 8692   4.871   2.437   2.606 -3.1371 -0.2335 -0.0245
 2896TIP3   OH2 8693   3.363   5.299   0.182 -0.3081  0.4304 -0.2842
 2896TIP3    H1 8694   3.381   5.211   0.148  0.8490  0.3096  0.5841
 2896TIP3    H2 8695   3.346   5.351   0.103  1.8435  0.0529 -1.0730
 2897TIP3   OH2 8696   2.775   5.254   0.485  0.3133 -0.0768 -0.0972
 2897TIP3    H1 8697   2.769   5.330   0.427  0.0657  0.4124  0.5499
 2897TIP3    H2 8698   2.868   5.246   0.506  0.2270  0.7263  0.6830
 2898TIP3   OH2 8699   1.193   5.388   1.836 -0.6603 -0.0802  0.1605
 2898TIP3    H1 8700   1.238   5.323   1.890  0.5969  0.3801 -0.3101
 2898TIP3    H2 8701   1.130   5.429   1.896  0.5067  0.2182  1.2282
 2899TIP3   OH2 8702   0.220   3.610   2.621 -0.0945  0.6792  0.2468
 2899TIP3    H1 8703   0.184   3.649   2.541 -0.1650  2.2498  0.9949
 2899TIP3    H2 8704   0.149   3.618   2.685  0.0885 -0.2167  0.5681
 2900TIP3   OH2 8705   0.488   0.541   3.384 -0.1414  0.2877  0.4160
 2900TIP3    H1 8706   0.514   0.632   3.367 -0.6021  0.4386  0.5056
 2900TIP3    H2 8707   0.426   0.547   3.457  0.0541 -0.1299  0.6206
 2901TIP3   OH2 8708   3.682   2.660   2.320  0.3540  0.6209 -0.0804
 2901TIP3    H1 8709   3.613   2.631   2.380  0.7630  0.7855  0.4732
 2901TIP3    H2 8710   3.649   2.635   2.233 -0.9199  1.7096  0.0580
 2902TIP3   OH2 8711   0.168   3.669   3.723  0.3858 -0.7492  0.3614
 2902TIP3    H1 8712   0.119   3.745   3.691  0.6487  0.2736  2.1910
 2902TIP3    H2 8713   0.138   3.596   3.670 -1.3259  0.2946 -0.1832
 2903TIP3   OH2 8714   1.854   3.144   3.030  0.2106  0.5339 -0.8153
 2903TIP3    H1 8715   1.914   3.161   3.103  1.6067 -0.7051 -1.6123
 2903TIP3    H2 8716   1.791   3.217   3.033 -0.0624  0.2895  1.8658
 2904TIP3   OH2 8717   2.672   0.948   3.974 -0.0117 -0.1047  0.2950
 2904TIP3    H1 8718   2.753   0.955   3.924  0.3366 -0.4898  0.7818
 2904TIP3    H2 8719   2.638   1.037   3.978  0.9832  0.2632  1.0396
 2905TIP3   OH2 8720   3.290   5.722   3.070 -0.7641 -0.1452 -0.0380
 2905TIP3    H1 8721   3.351   5.775   3.123 -1.4338 -0.2658  0.8764
 2905TIP3    H2 8722   3.301   5.756   2.981  0.3743  0.0791  0.1671
 2906TIP3   OH2 8723   2.614   5.097   4.855 -0.0694 -0.1104  0.4741
 2906TIP3    H1 8724   2.532   5.072   4.896  0.1580 -0.9334  0.4452
 2906TIP3    H2 8725   2.590   5.122   4.766 -0.2163 -0.9374  0.2756
 2907TIP3   OH2 8726   6.226   3.201   4.541 -0.1136  0.3804  0.4601
 2907TIP3    H1 8727   6.248   3.136   4.474 -0.2912  2.1229 -1.4191
 2907TIP3    H2 8728   6.156   3.253   4.501 -1.7755  0.1903  2.9235
 2908TIP3   OH2 8729   0.056   1.384   0.522  0.1573  0.3807  0.7582
 2908TIP3    H1 8730  -0.006   1.376   0.449 -0.5025 -0.9955  1.4382
 2908TIP3    H2 8731   0.081   1.477   0.522 -0.9025  0.6955 -0.3363
 2909TIP3   OH2 8732   6.149   2.527   3.508 -0.3901  0.0455 -0.2312
 2909TIP3    H1 8733   6.069   2.503   3.556 -0.5039 -0.4913 -0.6763
 2909TIP3    H2 8734   6.218   2.478   3.553 -0.3693  0.1930 -0.1003
 2910TIP3   OH2 8735   1.566   3.639   3.274 -0.2252  0.7140  0.0884
 2910TIP3    H1 8736   1.525   3.556   3.297 -0.4842  1.0271  0.7520
 2910TIP3    H2 8737   1.567   3.690   3.355  0.9469  0.9320 -0.0416
 2911TIP3   OH2 8738   1.651   4.011   1.964  0.0716  0.3101  0.4420
 2911TIP3    H1 8739   1.604   4.077   2.015  0.4599  1.9664 -1.2644
 2911TIP3    H2 8740   1.604   4.007   1.881  0.3503 -1.2507  0.3164
 2912TIP3   OH2 8741   0.089   5.491   3.542 -0.1877 -0.1281 -0.1310
 2912TIP3    H1 8742   0.067   5.399   3.532 -0.4891 -0.1500  0.6080
 2912TIP3    H2 8743   0.011   5.538   3.513 -0.3857 -0.1395  0.3680
 2913TIP3   OH2 8744   2.122   1.940   2.832  0.3262 -0.0968 -0.5936
 2913TIP3    H1 8745   2.199   1.923   2.887  0.0085  0.1218 -0.0745
 2913TIP3    H2 8746   2.075   2.010   2.877 -1.6860 -2.1130  0.6352
 2914TIP3   OH2 8747   1.725   4.396   2.193  0.7401  0.2044  0.0263
 2914TIP3    H1 8748   1.775   4.316   2.208 -0.3139 -0.2707  1.2030
 2914TIP3    H2 8749   1.716   4.435   2.280  0.5294  1.1632 -0.4132
 2915TIP3   OH2 8750   1.238   2.207   1.424  0.2753  0.1858  0.0860
 2915TIP3    H1 8751   1.276   2.271   1.484  0.0618  0.4381 -0.0447
 2915TIP3    H2 8752   1.161   2.251   1.388 -1.2720 -1.0053  1.8072
 2916TIP3   OH2 8753   5.997   1.593   3.781  0.4944 -0.1634 -0.2151
 2916TIP3    H1 8754   5.950   1.516   3.752  0.0260  0.5304 -1.3837
 2916TIP3    H2 8755   6.029   1.634   3.701  4.7574 -1.5505  0.5069
 2917TIP3   OH2 8756   1.086   1.053   2.594 -0.5935 -0.2029  0.6902
 2917TIP3    H1 8757   1.124   1.015   2.673  0.9759  0.8975  0.5039
 2917TIP3    H2 8758   1.161   1.070   2.537 -1.5603  0.3144 -0.4706
 2918TIP3   OH2 8759   4.211   0.109   3.015 -0.0441  0.4732  0.4926
 2918TIP3    H1 8760   4.143   0.147   2.961  0.5929 -0.2758 -0.8901
 2918TIP3    H2 8761   4.289   0.108   2.959  0.6429 -0.3126  1.4148
 2919TIP3   OH2 8762   6.136   4.619   2.727  0.0731 -0.0565  0.0051
 2919TIP3    H1 8763   6.086   4.569   2.663 -0.0684  0.4439 -0.2858
 2919TIP3    H2 8764   6.214   4.567   2.743  0.0198 -0.2789 -0.4349
 2920TIP3   OH2 8765   3.392   1.184   1.946  0.0060 -0.5106 -0.1000
 2920TIP3    H1 8766   3.412   1.238   2.022  0.9528 -0.6260 -0.2548
 2920TIP3    H2 8767   3.409   1.095   1.975 -2.7393 -0.9136  0.5489
 2921TIP3   OH2 8768   2.659   0.915   1.300  0.4017  0.1742 -0.6371
 2921TIP3    H1 8769   2.629   1.002   1.273  0.8932  0.4102 -0.4275
 2921TIP3    H2 8770   2.578   0.865   1.312  0.0369  1.0216  0.6478
 2922TIP3   OH2 8771   3.448   5.486   2.331 -0.1142  0.6890  0.5700
 2922TIP3    H1 8772   3.383   5.456   2.268 -0.3450  0.9179  0.7003
 2922TIP3    H2 8773   3.496   5.406   2.355 -1.3386  0.2385  1.6327
 2923TIP3   OH2 8774   0.852   1.463   3.778 -0.2206 -0.6229 -0.2136
 2923TIP3    H1 8775   0.860   1.515   3.858  2.8738 -1.2606  0.0105
 2923TIP3    H2 8776   0.878   1.523   3.708 -1.4999 -0.4945 -0.6086
 2924TIP3   OH2 8777   0.771   1.572   5.009 -0.0070 -0.2560 -0.3134
 2924TIP3    H1 8778   0.717   1.492   5.015  0.0842 -0.3825 -1.0266
 2924TIP3    H2 8779   0.732   1.632   5.072  0.0036 -0.9134  0.3331
 2925TIP3   OH2 8780   4.696   2.299   4.240 -0.0931 -0.0226 -0.1506
 2925TIP3    H1 8781   4.740   2.304   4.324 -0.5650  1.2258  0.0409
 2925TIP3    H2 8782   4.654   2.213   4.239 -1.2945  0.5109  1.5072
 2926TIP3   OH2 8783   5.930   1.036   3.498 -0.1464 -0.3148  0.0604
 2926TIP3    H1 8784   5.904   0.966   3.557 -1.2529  1.1096  1.3406
 2926TIP3    H2 8785   5.995   1.086   3.547  0.7169 -0.4686 -0.8829
 2927TIP3   OH2 8786   5.555   3.118   0.379  0.0881 -0.3475 -0.1095
 2927TIP3    H1 8787   5.618   3.046   0.372 -0.4121 -0.8887  0.7701
 2927TIP3    H2 8788   5.554   3.157   0.292  3.3020  1.1147  0.3889
 2928TIP3   OH2 8789   5.841   5.515   0.356 -1.1711  0.4852  0.1771
 2928TIP3    H1 8790   5.788   5.435   0.349  0.5478 -0.7282  0.3128
 2928TIP3    H2 8791   5.805   5.561   0.432 -2.5210  0.1055 -0.2102
 2929TIP3   OH2 8792   0.982   5.859   1.562 -0.0254 -0.2737 -1.3407
 2929TIP3    H1 8793   0.933   5.939   1.542  0.5176 -0.2414 -2.6320
 2929TIP3    H2 8794   0.924   5.810   1.621  0.0198  1.4542  0.2228
 2930TIP3   OH2 8795   2.220   5.491   0.033  0.1967  0.1178  0.1471
 2930TIP3    H1 8796   2.288   5.558   0.038 -0.6709  1.0223  0.1128
 2930TIP3    H2 8797   2.160   5.523  -0.034 -0.0123 -0.9131 -0.1785
 2931TIP3   OH2 8798   5.918   4.960   2.092 -0.5331  0.3404  0.3425
 2931TIP3    H1 8799   5.844   5.011   2.060 -1.0398 -0.1401  0.7482
 2931TIP3    H2 8800   5.912   4.876   2.046 -0.3243  0.2483  0.4800
 2932TIP3   OH2 8801   1.419   3.702   0.877  0.4498  0.5669 -0.3514
 2932TIP3    H1 8802   1.402   3.715   0.784 -0.0489  0.7138 -0.2420
 2932TIP3    H2 8803   1.362   3.629   0.903  0.0273  1.0080 -0.0035
 2933TIP3   OH2 8804   3.389   1.527   1.618 -0.3953 -0.3804 -0.5745
 2933TIP3    H1 8805   3.352   1.472   1.687 -0.6373  1.1583  0.5722
 2933TIP3    H2 8806   3.351   1.493   1.537 -0.6969 -1.7509  0.1201
 2934TIP3   OH2 8807   5.056   5.964   0.917 -0.3899  0.1976 -0.0395
 2934TIP3    H1 8808   5.042   5.932   1.006  1.7062 -0.7399  0.0181
 2934TIP3    H2 8809   4.981   5.931   0.868 -0.4567 -1.2229  0.9433
 2935TIP3   OH2 8810   3.374   1.664   0.416 -0.0619 -0.4640  0.7009
 2935TIP3    H1 8811   3.377   1.758   0.401  1.1099 -0.3916  1.2415
 2935TIP3    H2 8812   3.354   1.626   0.331  0.5306  0.2266  0.2441
 2936TIP3   OH2 8813   1.699   3.169   4.686  0.0998  0.4969  0.3365
 2936TIP3    H1 8814   1.676   3.261   4.697 -2.0802  0.1417 -0.6230
 2936TIP3    H2 8815   1.756   3.167   4.610  0.2465  1.0705  0.4320
 2937TIP3   OH2 8816   4.044   5.823   0.339 -0.0019  0.0669  0.3696
 2937TIP3    H1 8817   3.958   5.787   0.360  0.0692  0.6128  1.7430
 2937TIP3    H2 8818   4.026   5.914   0.316  0.0603 -0.2147 -0.8342
 2938TIP3   OH2 8819   3.624   0.419   2.546  0.1771  0.1528 -0.5114
 2938TIP3    H1 8820   3.622   0.495   2.488  0.8593 -0.1531 -0.9428
 2938TIP3    H2 8821   3.715   0.412   2.574  0.1183 -0.5066 -0.4724
 2939TIP3   OH2 8822   3.660   4.542   4.957  0.2552 -0.4524  0.3238
 2939TIP3    H1 8823   3.586   4.591   4.921  0.2830 -1.0643 -0.6247
 2939TIP3    H2 8824   3.682   4.478   4.888  1.0924 -0.8713  0.9555
 2940TIP3   OH2 8825   4.092   4.449   4.784 -0.2542  0.1491  0.4408
 2940TIP3    H1 8826   4.139   4.530   4.765 -0.7055  0.1874 -0.6185
 2940TIP3    H2 8827   4.100   4.437   4.879  1.6073  0.3019  0.3337
 2941TIP3   OH2 8828   0.093   5.338   3.185  0.0581  0.0820  0.1786
 2941TIP3    H1 8829   0.121   5.259   3.141  0.8638 -0.7500  2.0663
 2941TIP3    H2 8830   0.018   5.310   3.239  0.8136  0.3883  1.4339
 2942TIP3   OH2 8831   1.252   3.977   3.688  0.8628  0.2377  0.7819
 2942TIP3    H1 8832   1.296   4.016   3.613  1.0131 -0.8288  0.2883
 2942TIP3    H2 8833   1.281   3.885   3.688 -1.1242 -0.4518  0.5972
 2943TIP3   OH2 8834   5.991   0.925   4.198 -0.0118  0.1456  0.0488
 2943TIP3    H1 8835   6.002   1.014   4.233 -0.7852  0.3814 -0.2987
 2943TIP3    H2 8836   5.912   0.892   4.241 -0.5293  0.1499 -0.8731
 2944TIP3   OH2 8837   5.292   5.175   2.332 -0.4545 -0.4954 -0.1182
 2944TIP3    H1 8838   5.232   5.169   2.406 -0.7239 -1.3326 -0.3955
 2944TIP3    H2 8839   5.240   5.217   2.263 -0.7205 -1.1800 -0.3440
 2945TIP3   OH2 8840   5.718   2.444   4.249  0.2273  0.0044 -0.4359
 2945TIP3    H1 8841   5.751   2.530   4.224  0.5949  0.0713  0.2496
 2945TIP3    H2 8842   5.723   2.443   4.345 -1.3700 -0.1455 -0.3180
 2946TIP3   OH2 8843   3.921   0.023   0.851  0.1317  0.7445  0.2580
 2946TIP3    H1 8844   4.013  -0.000   0.835  0.0408  0.3448  0.3170
 2946TIP3    H2 8845   3.919   0.052   0.942  0.4482  2.0117 -0.1186
 2947TIP3   OH2 8846   2.266   0.268   4.176 -0.0236 -0.1080  0.2112
 2947TIP3    H1 8847   2.198   0.209   4.144  0.7993  0.7861 -3.7550
 2947TIP3    H2 8848   2.312   0.218   4.243 -2.4667 -1.9675  0.6343
 2948TIP3   OH2 8849   5.456   3.480   1.036  0.0836 -0.0687 -0.1949
 2948TIP3    H1 8850   5.424   3.564   1.004  0.8262 -0.2499 -1.4427
 2948TIP3    H2 8851   5.514   3.448   0.967  1.2392 -0.7655  1.0482
 2949TIP3   OH2 8852   0.905   5.853   4.044  0.6436 -0.4502  0.1626
 2949TIP3    H1 8853   0.815   5.877   4.062 -0.7735 -3.1511 -2.4224
 2949TIP3    H2 8854   0.941   5.927   3.995 -0.1524  0.6443  1.2079
 2950TIP3   OH2 8855   3.994   0.115   3.689 -0.3026 -0.0911  0.1730
 2950TIP3    H1 8856   4.008   0.199   3.731 -2.0960  0.9594 -1.1834
 2950TIP3    H2 8857   3.915   0.080   3.731 -1.1141  0.1786 -1.0827
 2951TIP3   OH2 8858   5.448   2.999   5.052 -0.2755 -0.1476 -0.4044
 2951TIP3    H1 8859   5.420   3.071   4.996 -2.1411 -0.0204  0.5953
 2951TIP3    H2 8860   5.416   3.023   5.139  2.1614 -0.5423  0.6700
 2952TIP3   OH2 8861   2.089   3.440   3.646  0.5249  0.1443 -0.0709
 2952TIP3    H1 8862   2.073   3.369   3.584 -0.2806 -0.0144  0.3046
 2952TIP3    H2 8863   2.179   3.425   3.677  0.4072 -0.6308 -0.0973
 2953TIP3   OH2 8864   2.918   0.337   2.305  0.5369  0.2266 -0.1573
 2953TIP3    H1 8865   2.868   0.258   2.326  0.0318  1.0023  1.8378
 2953TIP3    H2 8866   2.858   0.389   2.251 -0.0421  0.2286  0.4635
 2954TIP3   OH2 8867   5.551   0.926   2.682 -0.1429 -0.0738  0.1442
 2954TIP3    H1 8868   5.485   0.888   2.625  0.0380 -0.2200  0.0309
 2954TIP3    H2 8869   5.633   0.884   2.655  0.3606  1.6452 -1.1793
 2955TIP3   OH2 8870   0.956   0.235   1.492 -1.0423  0.5683 -0.3831
 2955TIP3    H1 8871   0.997   0.255   1.408 -2.0566  0.9462 -0.8124
 2955TIP3    H2 8872   0.954   0.320   1.537 -0.7538  0.4205 -0.0919
 2956TIP3   OH2 8873   4.830   5.702   1.993 -0.5311  0.0838 -0.2375
 2956TIP3    H1 8874   4.817   5.796   2.000 -0.5607  0.0234  0.6583
 2956TIP3    H2 8875   4.749   5.664   2.025  0.1007 -0.2476  1.0388
 2957TIP3   OH2 8876   2.498   1.424   4.535  0.1752  1.0100 -0.3345
 2957TIP3    H1 8877   2.445   1.420   4.456 -1.9331 -0.8577  1.0588
 2957TIP3    H2 8878   2.508   1.518   4.553 -1.6481  1.4249 -1.3161
 2958TIP3   OH2 8879   6.312   5.018   2.783  0.2860 -0.1096  0.3776
 2958TIP3    H1 8880   6.320   5.113   2.776  0.4108 -0.2256 -2.7195
 2958TIP3    H2 8881   6.365   4.984   2.711 -1.6555 -2.3875 -0.1451
 2959TIP3   OH2 8882   5.277   5.270   0.015  0.1590 -0.5166  0.0971
 2959TIP3    H1 8883   5.334   5.196   0.037  0.3512 -0.2523  0.5016
 2959TIP3    H2 8884   5.196   5.229  -0.014  0.1297 -0.8880  0.6850
 2960TIP3   OH2 8885   3.881   3.740   4.581  0.7190 -0.3595  0.2132
 2960TIP3    H1 8886   3.888   3.741   4.677 -0.4132  0.3046  0.2981
 2960TIP3    H2 8887   3.801   3.690   4.564  1.4676 -1.3819 -0.4434
 2961TIP3   OH2 8888   3.230   0.536   1.186  0.6126 -0.1942 -0.1442
 2961TIP3    H1 8889   3.263   0.620   1.154  1.2997 -0.5986 -0.5180
 2961TIP3    H2 8890   3.188   0.557   1.269 -1.1247  0.8687 -1.2235
 2962TIP3   OH2 8891   1.792   4.107   4.920  0.3529  0.1027  0.6351
 2962TIP3    H1 8892   1.843   4.028   4.936 -0.4371 -0.9963 -1.7761
 2962TIP3    H2 8893   1.840   4.154   4.852 -0.4199  0.4466  0.3060
 2963TIP3   OH2 8894   3.870   5.923   0.060 -0.3820  0.0945 -0.2187
 2963TIP3    H1 8895   3.799   5.973   0.102 -1.4251  0.1512 -1.9411
 2963TIP3    H2 8896   3.854   5.833   0.087 -1.1803  0.0962 -0.6553
 2964TIP3   OH2 8897   5.646   2.717   1.205 -0.2782  0.4460  0.4369
 2964TIP3    H1 8898   5.613   2.630   1.228 -0.4590  0.3748 -0.0653
 2964TIP3    H2 8899   5.566   2.769   1.190 -0.1789  0.8061  1.1002
 2965TIP3   OH2 8900   5.705   0.199   3.955  0.1956  0.0545 -0.2914
 2965TIP3    H1 8901   5.632   0.255   3.982 -1.1718 -1.1482 -1.3750
 2965TIP3    H2 8902   5.739   0.164   4.037 -0.2188  0.8818  0.2595
 2966TIP3   OH2 8903   5.958   3.333   0.948 -0.3680 -0.3888  0.3256
 2966TIP3    H1 8904   5.900   3.409   0.955  1.0032  0.7821 -0.3172
 2966TIP3    H2 8905   6.025   3.348   1.015 -0.9842 -1.9051  1.3134
 2967TIP3   OH2 8906   2.932   3.382   3.504 -0.2330  0.3623  0.6254
 2967TIP3    H1 8907   2.879   3.408   3.579 -0.9093 -0.8248  0.5901
 2967TIP3    H2 8908   2.954   3.464   3.460  1.5946  1.2779  3.0116
 2968TIP3   OH2 8909   2.695   1.719   0.246  0.1521  0.2826 -0.0465
 2968TIP3    H1 8910   2.746   1.649   0.286 -1.1631 -0.7282 -0.1093
 2968TIP3    H2 8911   2.708   1.708   0.152  0.5086  0.5785 -0.0376
 2969TIP3   OH2 8912   0.976   4.359   0.807  0.2256  0.7045 -0.3353
 2969TIP3    H1 8913   0.901   4.302   0.823 -0.5991  1.4657 -1.3078
 2969TIP3    H2 8914   0.937   4.444   0.786  1.3709  1.1954 -0.5541
 2970TIP3   OH2 8915   5.096   1.671   0.411  0.0158  0.3435  0.1497
 2970TIP3    H1 8916   5.129   1.754   0.446  0.0276  0.7092 -0.6947
 2970TIP3    H2 8917   5.002   1.675   0.426 -0.0550  0.7543 -0.3683
 2971TIP3   OH2 8918   4.088   2.911   4.856  0.9129  0.4346 -0.1239
 2971TIP3    H1 8919   4.018   2.846   4.856  0.6814  0.5396 -3.1526
 2971TIP3    H2 8920   4.058   2.979   4.795  3.6621  0.3863 -1.6893
 2972TIP3   OH2 8921   3.910   0.266   0.579  0.0347 -0.3241 -0.0100
 2972TIP3    H1 8922   3.837   0.223   0.535 -1.0683  1.5554 -0.1157
 2972TIP3    H2 8923   3.988   0.234   0.534 -0.7102 -2.0697 -0.1588
 2973TIP3   OH2 8924   4.100   3.011   2.634 -0.7350 -0.4146 -0.5443
 2973TIP3    H1 8925   4.093   2.916   2.634 -1.5940 -0.3689 -1.2363
 2973TIP3    H2 8926   4.143   3.032   2.551 -0.0575 -0.2169 -0.1531
 2974TIP3   OH2 8927   5.329   2.298   3.601  0.2773  0.3774 -0.7206
 2974TIP3    H1 8928   5.374   2.221   3.637 -1.2306  0.4674  1.6215
 2974TIP3    H2 8929   5.252   2.307   3.656 -0.1000  3.0103 -1.5723
 2975TIP3   OH2 8930   1.901   3.376   4.303 -0.2949  0.0229 -0.4961
 2975TIP3    H1 8931   1.935   3.366   4.214 -1.3188 -1.9181 -0.7312
 2975TIP3    H2 8932   1.808   3.398   4.291 -0.1523  1.0340  0.1197
 2976TIP3   OH2 8933   1.449   3.316   2.647 -0.3451  0.0909 -0.5021
 2976TIP3    H1 8934   1.442   3.390   2.708  0.6194  0.0363 -0.3058
 2976TIP3    H2 8935   1.527   3.268   2.676 -0.1749 -0.2363 -1.4524
 2977TIP3   OH2 8936   4.983   3.248   0.163  0.3485  0.3364 -0.2977
 2977TIP3    H1 8937   4.946   3.221   0.247 -0.3148  0.2054 -0.6290
 2977TIP3    H2 8938   5.065   3.199   0.157  0.5610  0.5958  0.4198
 2978TIP3   OH2 8939   5.319   3.220   1.040 -0.6915  0.2031  0.5485
 2978TIP3    H1 8940   5.352   3.309   1.025  1.6702 -0.8386 -0.8058
 2978TIP3    H2 8941   5.225   3.228   1.024 -0.4426  2.2994 -0.2966
 2979TIP3   OH2 8942   0.695   1.374   1.961 -0.2459  0.0739  0.5816
 2979TIP3    H1 8943   0.785   1.359   1.989 -0.3574 -0.3402  0.7267
 2979TIP3    H2 8944   0.673   1.298   1.908 -0.3946  0.3446  0.2455
 2980TIP3   OH2 8945   5.200   1.940   5.040  0.0827  0.4094  0.2529
 2980TIP3    H1 8946   5.105   1.943   5.049 -0.1840 -2.5337 -0.5835
 2980TIP3    H2 8947   5.233   1.983   5.119 -1.9831 -0.9212  1.9623
 2981TIP3   OH2 8948   3.677   1.955   3.926  0.5349  0.1245 -0.4327
 2981TIP3    H1 8949   3.622   1.889   3.885  1.8159 -0.0680 -1.9429
 2981TIP3    H2 8950   3.618   2.002   3.985 -0.3988 -2.3826  0.7619
 2982TIP3   OH2 8951   4.880   2.032   3.252  0.4855  0.0132  0.5284
 2982TIP3    H1 8952   4.897   2.121   3.220  1.3527 -0.6942 -1.1421
 2982TIP3    H2 8953   4.918   2.030   3.340 -0.2032  1.4907  0.8853
 2983TIP3   OH2 8954   0.282   0.854   3.388 -0.3680  0.2102 -0.0352
 2983TIP3    H1 8955   0.228   0.925   3.353 -0.5684 -0.2222 -0.6199
 2983TIP3    H2 8956   0.264   0.780   3.331 -1.0835 -0.6778  1.2875
 2984TIP3   OH2 8957   4.927   3.177   0.541  0.1383 -0.7126  0.2045
 2984TIP3    H1 8958   4.872   3.174   0.462 -0.1429  0.9536  0.2951
 2984TIP3    H2 8959   4.875   3.133   0.608  0.4203 -2.2362 -0.5357
 2985TIP3   OH2 8960   2.547   4.986   1.288  0.1186 -0.2557  0.4900
 2985TIP3    H1 8961   2.479   5.024   1.343  1.2973 -0.6563  2.3354
 2985TIP3    H2 8962   2.596   5.061   1.255 -0.3813 -0.0195  0.2788
 2986TIP3   OH2 8963   3.647   2.633   3.203 -0.1359  0.1630  0.1963
 2986TIP3    H1 8964   3.564   2.660   3.166  0.4559 -1.3725 -2.5268
 2986TIP3    H2 8965   3.686   2.713   3.238 -2.0620  1.1656  0.1307
 2987TIP3   OH2 8966   0.029   3.659   2.823  0.0485  0.0414  0.0172
 2987TIP3    H1 8967  -0.059   3.627   2.844 -0.6651  2.8524  1.7611
 2987TIP3    H2 8968   0.086   3.611   2.883 -0.7416  0.6376  1.2740
 2988TIP3   OH2 8969   1.970   4.137   3.724 -0.3862 -0.8851  0.0786
 2988TIP3    H1 8970   1.899   4.100   3.776 -0.6789 -1.3816 -0.6503
 2988TIP3    H2 8971   1.938   4.133   3.634  0.1484 -0.1358 -0.1582
 2989TIP3   OH2 8972   2.893   0.684   0.158  1.0128 -0.1212  0.3283
 2989TIP3    H1 8973   2.910   0.730   0.075  0.8876  0.8816  0.8460
 2989TIP3    H2 8974   2.819   0.731   0.196  2.1372  0.5236  1.8222
 2990TIP3   OH2 8975   1.022   5.137   1.133  0.1155 -0.2777  0.6776
 2990TIP3    H1 8976   1.059   5.144   1.045  0.0115 -0.6981  0.5980
 2990TIP3    H2 8977   1.072   5.200   1.185 -0.0649  0.2274  0.2371
 2991TIP3   OH2 8978   2.180   1.245   0.269  0.0924  0.4740  0.6034
 2991TIP3    H1 8979   2.198   1.297   0.191  0.4721  0.1620  0.4792
 2991TIP3    H2 8980   2.096   1.203   0.251  0.8531 -0.7354 -0.2567
 2992TIP3   OH2 8981   6.239   3.349   2.667 -0.4080 -0.7512 -0.5031
 2992TIP3    H1 8982   6.146   3.363   2.686 -0.1622  2.3019 -1.0645
 2992TIP3    H2 8983   6.258   3.410   2.596  1.9980 -1.4606 -0.5396
 2993TIP3   OH2 8984   2.977   5.514   2.515  0.0822  0.1508 -0.7523
 2993TIP3    H1 8985   3.042   5.582   2.496  0.1439  0.0906 -0.7595
 2993TIP3    H2 8986   2.976   5.507   2.610  0.0544  0.1833 -0.7506
 2994TIP3   OH2 8987   0.374   5.600   2.548 -0.1911 -0.3717  0.4464
 2994TIP3    H1 8988   0.438   5.666   2.522 -0.5539  0.1425  0.8325
 2994TIP3    H2 8989   0.291   5.631   2.511 -0.8989  0.8528  2.8851
 2995TIP3   OH2 8990   2.182   3.150   0.302 -0.1874 -0.4015  0.2342
 2995TIP3    H1 8991   2.223   3.105   0.229  0.2435  1.1383 -0.4971
 2995TIP3    H2 8992   2.222   3.237   0.304 -0.8544 -0.0813  1.7247
 2996TIP3   OH2 8993   6.176   5.797   0.327  0.6446  0.2194 -0.3663
 2996TIP3    H1 8994   6.262   5.758   0.312  0.5521 -0.0025 -0.3096
 2996TIP3    H2 8995   6.190   5.857   0.401  0.0769 -2.1002  1.7581
 2997TIP3   OH2 8996   1.969   0.972   3.234  0.1391 -0.4718 -0.6735
 2997TIP3    H1 8997   2.055   1.010   3.216 -0.8398  1.3808 -1.7122
 2997TIP3    H2 8998   1.964   0.895   3.178  0.0375  1.0611 -2.8919
 2998TIP3   OH2 8999   5.544   5.450   2.296  0.2045 -0.2715  0.5164
 2998TIP3    H1 9000   5.501   5.519   2.347 -0.5069 -2.1205  2.6386
 2998TIP3    H2 9001   5.507   5.458   2.209 -1.0713  1.0188  1.1265
 2999TIP3   OH2 9002   4.266   5.191   0.333  0.0962  0.7492 -0.5138
 2999TIP3    H1 9003   4.356   5.226   0.329  0.4430 -0.0710 -0.1058
 2999TIP3    H2 9004   4.267   5.131   0.407 -0.8166  0.7707 -0.4736
 3000TIP3   OH2 9005   2.525   3.549   4.751  0.3524  0.3604  0.2018
 3000TIP3    H1 9006   2.530   3.540   4.846 -1.3197  0.0938  0.2922
 3000TIP3    H2 9007   2.550   3.463   4.717  0.5132  0.3259  0.4041
 3001TIP3   OH2 9008   0.028   1.479   1.585 -0.3224  0.4509  0.1956
 3001TIP3    H1 9009   0.093   1.520   1.643  0.1225  1.1861 -0.7930
 3001TIP3    H2 9010   0.065   1.489   1.497 -0.8070 -0.9782 -0.1871
 3002TIP3   OH2 9011   4.514   4.954   0.928 -0.1067  0.9213 -0.0051
 3002TIP3    H1 9012   4.532   4.932   1.019 -0.4854 -0.7352 -0.2839
 3002TIP3    H2 9013   4.501   5.048   0.927 -0.0581  0.9647  1.6434
 3003TIP3   OH2 9014   0.110   0.485   2.256  0.2308 -0.2854  0.1183
 3003TIP3    H1 9015   0.088   0.460   2.346 -0.9564 -0.2341 -0.1330
 3003TIP3    H2 9016   0.169   0.416   2.226  2.2459  0.7312  1.5492
 3004TIP3   OH2 9017   4.182   5.769   1.374 -0.2622 -0.2939  0.2226
 3004TIP3    H1 9018   4.241   5.695   1.389 -0.6749 -0.7995 -0.5750
 3004TIP3    H2 9019   4.113   5.734   1.317  0.3212  1.0600 -1.4181
 3005TIP3   OH2 9020   5.926   1.508   5.163  0.3551 -0.2601 -0.1022
 3005TIP3    H1 9021   5.833   1.524   5.145  0.2769 -0.4379  0.1416
 3005TIP3    H2 9022   5.964   1.595   5.175  0.0116 -0.2261  0.8181
 3006TIP3   OH2 9023   0.698   5.931   3.163 -0.5550  0.2178  0.4053
 3006TIP3    H1 9024   0.642   5.931   3.240  1.1366 -0.0247  1.6900
 3006TIP3    H2 9025   0.704   6.024   3.138 -1.5031  0.2429  0.2614
 3007TIP3   OH2 9026   1.121   0.376   2.908  0.1762  0.0227  0.3075
 3007TIP3    H1 9027   1.048   0.314   2.914  0.9241 -0.9961 -0.5460
 3007TIP3    H2 9028   1.096   0.436   2.837 -1.0494  1.4448  1.8707
 3008TIP3   OH2 9029   1.827   1.283   2.272 -0.0057 -0.6985 -0.8255
 3008TIP3    H1 9030   1.867   1.197   2.289 -0.2136 -0.6003  0.2095
 3008TIP3    H2 9031   1.891   1.346   2.305 -0.9023 -0.5316  0.6472
 3009TIP3   OH2 9032   3.101   5.326   5.025 -0.0511 -0.3440 -1.1355
 3009TIP3    H1 9033   3.132   5.395   4.967 -1.9314  0.2850 -1.4562
 3009TIP3    H2 9034   3.066   5.259   4.967 -3.5118  1.0329 -0.8468
 3010TIP3   OH2 9035   2.055   4.196   1.316 -0.1149 -0.2775 -0.3189
 3010TIP3    H1 9036   2.080   4.257   1.385  2.2987 -2.9554  1.4140
 3010TIP3    H2 9037   2.016   4.122   1.362  3.5544 -3.1705 -1.3128
 3011TIP3   OH2 9038   4.953   1.190   5.144  0.5705 -0.0792  0.2228
 3011TIP3    H1 9039   4.900   1.124   5.099 -1.0378  1.7508 -0.6817
 3011TIP3    H2 9040   5.025   1.209   5.084  1.6737 -1.7000  0.9438
 3012TIP3   OH2 9041   4.379   2.216   2.266 -0.0342 -0.0794 -0.1348
 3012TIP3    H1 9042   4.454   2.170   2.227 -0.6977  0.3440 -1.9615
 3012TIP3    H2 9043   4.346   2.154   2.332 -0.2217 -1.8085 -1.7544
 3013TIP3   OH2 9044   0.962   3.336   4.790 -0.0396 -0.0737  0.2375
 3013TIP3    H1 9045   1.003   3.420   4.811 -0.4520 -0.1093  1.2298
 3013TIP3    H2 9046   0.871   3.346   4.818 -0.7949  0.0582 -2.0785
 3014TIP3   OH2 9047   1.192   2.204   1.714  0.4476 -0.2380  0.3194
 3014TIP3    H1 9048   1.103   2.179   1.740  0.3551 -0.9792 -0.6664
 3014TIP3    H2 9049   1.238   2.218   1.797 -0.2463 -1.0692  0.8580
 3015TIP3   OH2 9050   2.946   5.013   2.469 -0.3615  0.2285 -0.1102
 3015TIP3    H1 9051   2.993   4.957   2.408 -1.1800  1.4602 -1.9648
 3015TIP3    H2 9052   2.990   5.000   2.553  2.6324  0.5036 -1.5047
 3016TIP3   OH2 9053   3.306   3.218   4.610 -0.2571  0.4107 -0.0088
 3016TIP3    H1 9054   3.244   3.145   4.609 -0.1522  0.2983  0.9504
 3016TIP3    H2 9055   3.277   3.274   4.538  0.0028 -0.8412 -1.1147
 3017TIP3   OH2 9056   3.994   4.811   2.301  0.3014  0.4799  0.1948
 3017TIP3    H1 9057   3.947   4.824   2.219  0.8179  0.2641 -0.1437
 3017TIP3    H2 9058   3.965   4.882   2.357  0.5944  1.1407 -0.4792
 3018TIP3   OH2 9059   1.194   1.531   3.077 -0.1786 -0.1011  0.2313
 3018TIP3    H1 9060   1.129   1.524   3.007  0.2797 -0.5047 -0.1496
 3018TIP3    H2 9061   1.244   1.610   3.055  0.2629 -0.4851 -0.1448
 3019TIP3   OH2 9062   0.705   4.212   3.661 -0.5193 -0.0100 -0.3278
 3019TIP3    H1 9063   0.723   4.140   3.721  1.2704  1.1782  0.6692
 3019TIP3    H2 9064   0.645   4.176   3.596  1.3729 -2.8087 -0.6814
 3020TIP3   OH2 9065   0.078   1.815   1.525 -0.2640 -0.0442  0.4238
 3020TIP3    H1 9066   0.172   1.797   1.538 -0.8175 -3.1182  1.0540
 3020TIP3    H2 9067   0.044   1.827   1.613 -0.2555  3.0985  0.1171
 3021TIP3   OH2 9068   4.924   1.903   2.763 -0.5852 -0.1073  0.5531
 3021TIP3    H1 9069   4.977   1.906   2.843  0.0450  0.5930  0.1277
 3021TIP3    H2 9070   4.947   1.820   2.722  1.2009  0.7537 -0.2797
 3022TIP3   OH2 9071   4.702   1.902   3.778 -0.0025  0.2330  0.3459
 3022TIP3    H1 9072   4.651   1.971   3.736 -1.7332 -0.3461  1.3674
 3022TIP3    H2 9073   4.715   1.934   3.867 -1.0829 -0.8390  0.9180
 3023TIP3   OH2 9074   1.981   2.821   1.341 -0.0093  0.1168 -0.1266
 3023TIP3    H1 9075   2.073   2.839   1.318  0.2087 -0.4733  0.2572
 3023TIP3    H2 9076   1.987   2.758   1.413 -0.6459  2.3148  1.9893
 3024TIP3   OH2 9077   5.469   4.110   0.408 -0.4450  0.3102 -0.3632
 3024TIP3    H1 9078   5.452   4.035   0.465 -0.3523 -0.0335 -0.7828
 3024TIP3    H2 9079   5.551   4.090   0.365 -2.0413 -0.9931 -3.0653
 3025TIP3   OH2 9080   1.909   2.724   1.781 -0.6993  0.5176 -0.3743
 3025TIP3    H1 9081   1.934   2.817   1.781  3.8589 -0.4414  0.5764
 3025TIP3    H2 9082   1.899   2.702   1.688  1.1133  1.4275 -0.8381
 3026TIP3   OH2 9083   4.351   4.835   2.811  0.5626  0.6226  0.3745
 3026TIP3    H1 9084   4.286   4.816   2.879  0.3136  1.0116  0.2452
 3026TIP3    H2 9085   4.430   4.787   2.839  0.1598 -0.0271  0.4212
 3027TIP3   OH2 9086   5.246   3.810   4.859 -0.0713 -0.7263  0.1896
 3027TIP3    H1 9087   5.312   3.747   4.832  0.6810 -0.4803  1.3913
 3027TIP3    H2 9088   5.212   3.775   4.942 -1.5464 -0.9071 -0.4458
 3028TIP3   OH2 9089   5.594   0.538   3.848  0.7172 -0.5948  0.2597
 3028TIP3    H1 9090   5.619   0.597   3.918  0.4852  0.2993 -0.3852
 3028TIP3    H2 9091   5.535   0.475   3.889  0.2712  0.1553  0.7864
 3029TIP3   OH2 9092   1.128   5.378   0.414  0.1963 -0.2673  0.1758
 3029TIP3    H1 9093   1.204   5.326   0.440  0.6115  1.1677  2.0669
 3029TIP3    H2 9094   1.155   5.469   0.430 -1.4681  0.3535 -0.3456
 3030TIP3   OH2 9095   1.406   0.813   0.689 -0.6995  0.6525 -0.1748
 3030TIP3    H1 9096   1.411   0.812   0.593 -1.8093  0.3187 -0.2366
 3030TIP3    H2 9097   1.359   0.893   0.710  0.0366  1.0161  0.1317
 3031TIP3   OH2 9098   2.550   3.837   3.969 -0.5345  0.7357 -0.2673
 3031TIP3    H1 9099   2.600   3.858   4.047  0.5004  0.6087 -0.8788
 3031TIP3    H2 9100   2.460   3.829   4.000  0.0806 -1.1509  1.2598
 3032TIP3   OH2 9101   2.848   1.746   0.679  0.0251 -0.4005 -0.8084
 3032TIP3    H1 9102   2.919   1.726   0.741  0.2963  0.8393 -0.6859
 3032TIP3    H2 9103   2.792   1.668   0.680  0.6224 -0.8345  0.1693
 3033TIP3   OH2 9104   1.980   5.891   3.891  0.2530 -0.3246  0.4527
 3033TIP3    H1 9105   1.967   5.980   3.858 -0.4437 -0.9501 -1.0592
 3033TIP3    H2 9106   1.944   5.835   3.823  3.7688 -1.9380 -0.2760
 3034TIP3   OH2 9107   3.861   4.673   3.851 -0.9252  0.0448  0.4503
 3034TIP3    H1 9108   3.867   4.684   3.945  0.5375  1.5690  0.2132
 3034TIP3    H2 9109   3.768   4.657   3.834 -0.8889 -2.8980  2.3590
 3035TIP3   OH2 9110   5.665   5.167   5.049  0.1276 -0.1112 -0.2057
 3035TIP3    H1 9111   5.718   5.244   5.027 -0.6535  0.4643 -0.0992
 3035TIP3    H2 9112   5.703   5.135   5.132 -0.2001  0.7865  0.3067
 3036TIP3   OH2 9113   2.819   5.120   1.485 -0.2066  0.0210 -0.2370
 3036TIP3    H1 9114   2.740   5.148   1.438 -0.4311  1.8644  1.1265
 3036TIP3    H2 9115   2.844   5.196   1.538  2.0089 -0.7992  0.0235
 3037TIP3   OH2 9116   5.745   4.328   2.137 -0.2235  0.0147 -0.2590
 3037TIP3    H1 9117   5.691   4.349   2.213 -1.6584 -1.3933 -0.8211
 3037TIP3    H2 9118   5.737   4.233   2.127  0.5524  0.0632 -1.7122
 3038TIP3   OH2 9119   1.136   2.360   5.119 -0.1159  0.0268 -0.0164
 3038TIP3    H1 9120   1.139   2.371   5.024  2.0242 -2.2779 -0.3212
 3038TIP3    H2 9121   1.115   2.267   5.132 -0.8325  0.3897  1.8027
 3039TIP3   OH2 9122   5.457   5.492   2.018 -0.4524 -0.1633  0.3738
 3039TIP3    H1 9123   5.484   5.541   1.941  0.1524 -3.0551 -1.4209
 3039TIP3    H2 9124   5.367   5.466   2.001 -1.2275  1.3036  1.9076
 3040TIP3   OH2 9125   2.738   3.198   1.093 -0.0658  0.2129  0.8445
 3040TIP3    H1 9126   2.832   3.187   1.110 -0.1376 -1.3572  0.4193
 3040TIP3    H2 9127   2.717   3.283   1.130  1.1782 -0.1414  2.5155
 3041TIP3   OH2 9128   4.226   3.558   3.167 -0.1925  0.2391 -0.8024
 3041TIP3    H1 9129   4.157   3.520   3.221  0.0205  0.9596  0.0101
 3041TIP3    H2 9130   4.183   3.583   3.086 -1.3731  2.5265  0.4465
 3042TIP3   OH2 9131   4.298   5.718   0.379  0.7772  0.4475  0.4619
 3042TIP3    H1 9132   4.333   5.767   0.454  0.1984  0.8493  0.4825
 3042TIP3    H2 9133   4.203   5.730   0.386  0.7742  1.4564 -0.9951
 3043TIP3   OH2 9134   2.843   1.108   0.042  0.0626  0.3008 -0.0122
 3043TIP3    H1 9135   2.933   1.128   0.069  0.8245 -2.2958 -0.3575
 3043TIP3    H2 9136   2.840   1.135  -0.049  0.1445  1.3667  0.2886
 3044TIP3   OH2 9137   1.482   0.136   3.083 -0.1963 -0.9532 -0.1387
 3044TIP3    H1 9138   1.565   0.110   3.042  0.2180  0.3434 -0.1648
 3044TIP3    H2 9139   1.456   0.216   3.038 -0.1435  0.0771  1.5455
 3045TIP3   OH2 9140   5.158   2.821   4.621  0.0313 -0.4103  0.1247
 3045TIP3    H1 9141   5.070   2.803   4.586 -0.3944  1.3028  0.2358
 3045TIP3    H2 9142   5.155   2.787   4.710 -1.6151  2.2963  1.2217
 3046TIP3   OH2 9143   5.003   0.514   2.869  0.0163 -0.6242  0.0613
 3046TIP3    H1 9144   4.912   0.494   2.847 -0.2387  0.7763 -0.2472
 3046TIP3    H2 9145   4.997   0.578   2.939  0.7985 -1.4418  0.8946
 3047TIP3   OH2 9146   3.088   4.796   0.900  0.1608 -0.1736 -0.7331
 3047TIP3    H1 9147   3.136   4.815   0.980  1.1810  1.7595 -1.7504
 3047TIP3    H2 9148   3.057   4.706   0.913  2.5257 -0.8928  0.7205
 3048TIP3   OH2 9149   3.510   0.186   2.151  0.6722 -0.0093 -0.0709
 3048TIP3    H1 9150   3.547   0.208   2.236 -1.2514  1.5506  0.4437
 3048TIP3    H2 9151   3.493   0.271   2.110  0.0085 -0.7128 -1.3047
 3049TIP3   OH2 9152   5.507   4.578   3.880  0.0230  0.1523  0.0961
 3049TIP3    H1 9153   5.597   4.563   3.909 -0.1398  0.3923  0.7424
 3049TIP3    H2 9154   5.485   4.500   3.830  0.8093  0.3770 -0.6249
 3050TIP3   OH2 9155   0.298   4.448   0.159 -0.2303 -0.1965  0.2131
 3050TIP3    H1 9156   0.253   4.433   0.076  1.8330  1.3090 -1.2716
 3050TIP3    H2 9157   0.238   4.503   0.209 -0.4091  1.2384 -1.4554
 3051TIP3   OH2 9158   1.610   0.607   1.156 -0.3105  0.1685 -0.5700
 3051TIP3    H1 9159   1.594   0.701   1.162 -0.4341  0.2484 -1.8914
 3051TIP3    H2 9160   1.523   0.568   1.158 -0.3804  0.2178 -1.8305
 3052TIP3   OH2 9161   4.604   0.200   5.182  0.9148  0.0773 -0.1507
 3052TIP3    H1 9162   4.675   0.265   5.190 -0.0954  1.0623  1.4038
 3052TIP3    H2 9163   4.530   0.250   5.149  0.3778 -0.4938  0.1757
 3053TIP3   OH2 9164   4.678   2.242   2.342  0.2647  0.0378  0.4671
 3053TIP3    H1 9165   4.692   2.234   2.436  0.5729 -0.1406  0.4079
 3053TIP3    H2 9166   4.755   2.290   2.310 -0.8065  1.9643  0.5936
 3054TIP3   OH2 9167   0.084   1.190   1.354 -0.1226  0.4444  0.0368
 3054TIP3    H1 9168   0.102   1.096   1.366 -0.4625  0.3899  0.1081
 3054TIP3    H2 9169   0.164   1.233   1.384 -0.1737  0.2062  0.5133
 3055TIP3   OH2 9170   3.435   5.316   0.726 -0.0106  0.5595  0.9620
 3055TIP3    H1 9171   3.416   5.288   0.815  0.2885  0.6152  1.0474
 3055TIP3    H2 9172   3.437   5.235   0.675 -1.1850  0.6140  0.8017
 3056TIP3   OH2 9173   1.230   5.279   3.098 -0.6412 -0.5006 -0.8493
 3056TIP3    H1 9174   1.277   5.359   3.121 -0.8982 -0.4407 -0.5248
 3056TIP3    H2 9175   1.139   5.298   3.120 -0.5400 -1.3121  0.3967
 3057TIP3   OH2 9176   2.208   5.680   3.866 -0.4946 -0.0212 -0.1281
 3057TIP3    H1 9177   2.155   5.718   3.937  0.0615 -0.2568  0.4207
 3057TIP3    H2 9178   2.233   5.755   3.812  0.3225  0.3720  0.7644
 3058TIP3   OH2 9179   0.203   2.141   1.791  0.0512 -0.1960 -0.1968
 3058TIP3    H1 9180   0.163   2.161   1.875  1.0406 -0.4884  0.3644
 3058TIP3    H2 9181   0.243   2.055   1.803  0.4567 -0.1088 -0.8671
 3059TIP3   OH2 9182   0.970   0.018   0.690 -0.3351 -0.3851  0.0278
 3059TIP3    H1 9183   0.954   0.089   0.628 -0.3227  0.6948  1.2198
 3059TIP3    H2 9184   0.900   0.026   0.755  0.4629 -0.5873  0.9433
 3060TIP3   OH2 9185   1.838   5.934   0.564  0.2916 -0.3850  0.1655
 3060TIP3    H1 9186   1.842   5.974   0.651  0.3685  0.2860 -0.1394
 3060TIP3    H2 9187   1.744   5.932   0.544  0.2828 -0.4158  0.2095
 3061TIP3   OH2 9188   0.258   4.856   0.246  0.6034  0.0921 -0.0235
 3061TIP3    H1 9189   0.237   4.773   0.290 -1.9806  0.7739  0.1986
 3061TIP3    H2 9190   0.210   4.922   0.296  1.9148  1.6132 -0.7174
 3062TIP3   OH2 9191   5.693   4.056   1.418 -0.9090 -0.6334 -0.1645
 3062TIP3    H1 9192   5.678   4.098   1.503 -0.3675  0.8026 -0.7480
 3062TIP3    H2 9193   5.617   4.000   1.405 -0.5418 -1.6344  1.6981
 3063TIP3   OH2 9194   4.779   1.503   3.331  0.0453 -0.5625  0.4724
 3063TIP3    H1 9195   4.718   1.576   3.345 -1.4152 -1.7921  0.7287
 3063TIP3    H2 9196   4.802   1.474   3.420  0.0989 -0.8420  0.3676
 3064TIP3   OH2 9197   2.735   3.661   3.803  0.3820  0.3877 -0.6267
 3064TIP3    H1 9198   2.827   3.674   3.825 -0.0485  0.6191  1.2235
 3064TIP3    H2 9199   2.688   3.724   3.858 -0.8433  0.9357 -2.2346
 3065TIP3   OH2 9200   5.428   2.002   1.319  0.5207  0.4020  0.2783
 3065TIP3    H1 9201   5.508   2.054   1.321 -0.1833  1.5086  1.7618
 3065TIP3    H2 9202   5.412   1.986   1.226  0.8461  2.7898 -0.2625
 3066TIP3   OH2 9203   2.168   5.897   4.153  0.2938  0.0928 -0.6390
 3066TIP3    H1 9204   2.221   5.950   4.094  0.4781 -1.8290 -2.3515
 3066TIP3    H2 9205   2.078   5.916   4.128  0.3110  0.5257 -0.3736
 3067TIP3   OH2 9206   2.531   5.783   2.357  0.0792  0.3810  0.0008
 3067TIP3    H1 9207   2.492   5.751   2.275 -2.9689  0.8877  1.1029
 3067TIP3    H2 9208   2.482   5.738   2.426  1.0905  1.5708  1.5665
 3068TIP3   OH2 9209   4.883   2.208   4.787  0.2904 -0.0976  0.0436
 3068TIP3    H1 9210   4.945   2.160   4.733 -0.2517 -0.6774 -0.0836
 3068TIP3    H2 9211   4.907   2.300   4.777 -1.0581  0.0622 -2.9111
 3069TIP3   OH2 9212   0.343   0.647   1.805 -0.2309 -0.5028  0.2120
 3069TIP3    H1 9213   0.304   0.732   1.824 -0.2238 -0.6842  1.0891
 3069TIP3    H2 9214   0.434   0.667   1.782  0.0911 -0.3546  1.5445
 3070TIP3   OH2 9215   3.655   0.865   0.639  0.4290 -0.3655 -0.0067
 3070TIP3    H1 9216   3.611   0.780   0.633 -0.0699 -0.1076 -0.0288
 3070TIP3    H2 9217   3.584   0.929   0.641  0.7194 -0.0468  2.0299
 3071TIP3   OH2 9218   5.490   4.902   2.945  0.0219  0.2880 -0.3087
 3071TIP3    H1 9219   5.399   4.896   2.974 -0.1526 -0.3238 -0.9676
 3071TIP3    H2 9220   5.496   4.842   2.871  0.9848  0.2532 -0.2174
 3072TIP3   OH2 9221   0.738   0.805   1.819 -0.1955  0.1304 -0.2207
 3072TIP3    H1 9222   0.814   0.841   1.863 -1.3160  2.0046  0.3219
 3072TIP3    H2 9223   0.683   0.771   1.889 -0.9181  0.9869 -0.3439
 3073TIP3   OH2 9224   1.407   2.284   1.137  0.0312 -0.1924 -0.1870
 3073TIP3    H1 9225   1.476   2.349   1.126  0.4644 -0.8799 -1.9390
 3073TIP3    H2 9226   1.350   2.296   1.060 -0.3108 -1.3404 -0.1311
 3074TIP3   OH2 9227   5.351   1.590   4.091  0.1932  0.1850 -0.2402
 3074TIP3    H1 9228   5.446   1.584   4.104  0.2431 -0.0013 -0.6747
 3074TIP3    H2 9229   5.333   1.527   4.021 -0.5277 -1.2597  1.1687
 3075TIP3   OH2 9230   2.141   4.976   0.809 -0.2767  0.4797  0.0701
 3075TIP3    H1 9231   2.168   4.886   0.789  0.8111  0.3267  2.0412
 3075TIP3    H2 9232   2.051   4.968   0.840 -0.1191  0.0491  0.4148
 3076TIP3   OH2 9233   5.539   3.950   4.783 -0.2086 -0.1029  0.5242
 3076TIP3    H1 9234   5.571   4.034   4.749 -0.0724 -0.2162  0.3672
 3076TIP3    H2 9235   5.519   3.967   4.875  0.1905 -0.0002  0.5927
 3077TIP3   OH2 9236   5.362   3.371   3.722 -0.3945  0.3464 -0.6670
 3077TIP3    H1 9237   5.456   3.352   3.730 -0.6581 -0.1992  3.8640
 3077TIP3    H2 9238   5.352   3.460   3.754 -1.5176 -0.1528  0.4760
 3078TIP3   OH2 9239   2.256   1.575   2.386  0.5754  0.5954 -0.0057
 3078TIP3    H1 9240   2.254   1.625   2.304 -0.7385  1.3559  0.4695
 3078TIP3    H2 9241   2.349   1.558   2.400  0.7593 -0.8501 -2.4115
 3079TIP3   OH2 9242   1.274   1.072   0.230 -0.5005  0.0286 -0.1282
 3079TIP3    H1 9243   1.296   1.162   0.251 -1.5593  0.3373 -0.2797
 3079TIP3    H2 9244   1.344   1.020   0.269  1.1927  1.0271 -1.6858
 3080TIP3   OH2 9245   5.979   2.688   0.490 -0.3164  0.2317  0.2675
 3080TIP3    H1 9246   6.060   2.667   0.443 -0.0457  1.6492  0.0740
 3080TIP3    H2 9247   5.912   2.691   0.423 -0.0193  1.7595  0.0067
 3081TIP3   OH2 9248   2.727   2.859   4.654  0.4712 -0.0407  0.2795
 3081TIP3    H1 9249   2.799   2.820   4.605  0.4958 -0.0554  0.3275
 3081TIP3    H2 9250   2.732   2.952   4.635  0.6753 -0.0053  0.5084
 3082TIP3   OH2 9251   4.998   1.302   3.985 -0.4225  0.1425 -0.1547
 3082TIP3    H1 9252   4.911   1.339   4.002  0.4392  0.6694  3.9867
 3082TIP3    H2 9253   5.058   1.354   4.038  2.0268 -2.1445 -0.4547
 3083TIP3   OH2 9254   2.986   4.639   4.362 -0.0186  0.0806  0.2910
 3083TIP3    H1 9255   3.018   4.648   4.452  1.4477 -0.2185 -0.1679
 3083TIP3    H2 9256   2.989   4.729   4.327  2.9493 -0.2304 -0.5400
 3084TIP3   OH2 9257   2.824   2.228   3.833  0.0347  0.5152 -0.6458
 3084TIP3    H1 9258   2.792   2.168   3.766  2.0882 -2.2853  0.6692
 3084TIP3    H2 9259   2.750   2.239   3.892 -0.8320  0.4541 -1.6923
 3085TIP3   OH2 9260   2.563   2.318   5.011  0.3980 -0.0711  0.2207
 3085TIP3    H1 9261   2.508   2.251   4.970  0.2642 -0.0220  0.3168
 3085TIP3    H2 9262   2.641   2.271   5.041  0.1451 -0.2518  0.6027
 3086TIP3   OH2 9263   4.315   4.096   0.383  0.5438 -0.1217  0.3946
 3086TIP3    H1 9264   4.400   4.135   0.367  0.8047 -0.5725  0.6699
 3086TIP3    H2 9265   4.259   4.132   0.314  0.6929  0.9676  0.8307
 3087TIP3   OH2 9266   5.442   0.327   3.980  0.6809 -0.0385 -0.4023
 3087TIP3    H1 9267   5.365   0.272   3.990  0.0332  0.1922 -3.2558
 3087TIP3    H2 9268   5.478   0.335   4.068 -1.2525 -2.0095  0.6441
 3088TIP3   OH2 9269   3.425   3.051   2.702 -0.2665  0.3657 -0.0264
 3088TIP3    H1 9270   3.372   3.020   2.629  1.4596  0.5320 -1.4276
 3088TIP3    H2 9271   3.428   3.146   2.690 -0.2410  0.4226  0.4414
 3089TIP3   OH2 9272   6.093   5.252   3.239  0.3931 -0.0544  0.0720
 3089TIP3    H1 9273   6.096   5.294   3.325  1.1514  1.5045 -0.6681
 3089TIP3    H2 9274   6.054   5.166   3.256  0.9389  0.0225  2.0334
 3090TIP3   OH2 9275   1.770   5.351   0.199  0.3853  0.7981  0.1296
 3090TIP3    H1 9276   1.788   5.343   0.292  2.1593  0.4100 -0.2202
 3090TIP3    H2 9277   1.802   5.439   0.176  2.7511 -0.1949 -0.6574
 3091TIP3   OH2 9278   0.495   5.145   2.348 -0.0986  0.0621 -0.1923
 3091TIP3    H1 9279   0.483   5.051   2.358  1.0194 -0.0296  0.3480
 3091TIP3    H2 9280   0.455   5.183   2.426 -2.7179  0.2478 -1.5093
 3092TIP3   OH2 9281   1.583   1.224   0.019 -0.0155 -0.0857 -0.0988
 3092TIP3    H1 9282   1.669   1.267   0.012  0.6196 -1.3649 -0.4366
 3092TIP3    H2 9283   1.541   1.268   0.093  1.1636  0.1777  0.4489
 3093TIP3   OH2 9284   0.126   5.624   2.419 -0.5219  0.0058 -0.2077
 3093TIP3    H1 9285   0.066   5.574   2.474 -0.4266 -1.7746 -1.6540
 3093TIP3    H2 9286   0.090   5.618   2.331  0.8319  0.4106 -0.8256
 3094TIP3   OH2 9287   2.411   3.281   2.327  0.1645  1.0280  0.3241
 3094TIP3    H1 9288   2.463   3.322   2.396  0.8000 -0.9313  1.0945
 3094TIP3    H2 9289   2.448   3.192   2.320 -1.0757  0.6049 -1.2787
 3095TIP3   OH2 9290   5.572   5.166   0.625 -0.0899  0.0791 -0.2516
 3095TIP3    H1 9291   5.495   5.112   0.610 -0.6487  1.0033 -0.8126
 3095TIP3    H2 9292   5.549   5.222   0.698 -0.0224  0.4795 -0.5310
 3096TIP3   OH2 9293   3.261   4.507   1.994 -0.5846  0.2686 -0.0948
 3096TIP3    H1 9294   3.227   4.435   1.940 -0.7233  1.0771 -1.1329
 3096TIP3    H2 9295   3.243   4.481   2.084 -1.7598 -0.4428 -0.5099
 3097TIP3   OH2 9296   4.750   2.198   2.886  0.1435  0.0980  0.2511
 3097TIP3    H1 9297   4.718   2.270   2.940 -1.4277 -0.8421  0.6527
 3097TIP3    H2 9298   4.687   2.127   2.901  1.4091 -1.2324 -0.4238
 3098TIP3   OH2 9299   3.629   0.705   4.364 -0.2605 -0.2206 -0.0693
 3098TIP3    H1 9300   3.566   0.761   4.408 -1.1334 -0.5642 -0.8475
 3098TIP3    H2 9301   3.694   0.683   4.431 -2.5959 -2.3793  1.6652
 3099TIP3   OH2 9302   3.773   3.920   4.039  0.0181  0.0693 -0.2376
 3099TIP3    H1 9303   3.751   3.868   4.116 -1.1085 -0.3479 -0.8152
 3099TIP3    H2 9304   3.853   3.880   4.004  1.1048  0.8587  1.2234
 3100TIP3   OH2 9305   3.519   3.998   1.136  0.1115  0.0374  0.0254
 3100TIP3    H1 9306   3.565   4.022   1.216 -1.1739  0.0403  0.7951
 3100TIP3    H2 9307   3.432   3.972   1.166 -0.9512  1.6159 -1.5015
 3101TIP3   OH2 9308   4.829   0.996   1.986  0.0024  0.0882 -0.4803
 3101TIP3    H1 9309   4.751   1.002   1.931 -0.1981 -2.8343 -0.7174
 3101TIP3    H2 9310   4.825   1.072   2.044 -1.9273  1.0780 -1.8087
 3102TIP3   OH2 9311   4.756   0.265   4.307 -0.0228 -0.8324 -0.5019
 3102TIP3    H1 9312   4.739   0.323   4.233  0.2699  1.1244  0.8569
 3102TIP3    H2 9313   4.674   0.218   4.321 -0.9125  0.6418 -0.5317
 3103TIP3   OH2 9314   4.374   4.248   2.170  0.1655 -0.6007  0.1315
 3103TIP3    H1 9315   4.466   4.239   2.144 -0.0176 -0.6144 -0.5383
 3103TIP3    H2 9316   4.349   4.162   2.202 -0.0285 -1.0360 -1.1084
 3104TIP3   OH2 9317   5.513   1.214   0.670 -0.0864  0.3458 -0.1102
 3104TIP3    H1 9318   5.447   1.198   0.737 -0.9208  2.0379 -0.4769
 3104TIP3    H2 9319   5.481   1.290   0.622  0.8359 -0.3754 -1.9941
 3105TIP3   OH2 9320   2.347   2.265   1.394  0.3419 -0.4795 -0.6998
 3105TIP3    H1 9321   2.367   2.189   1.448  1.6827  0.4927  0.2372
 3105TIP3    H2 9322   2.397   2.252   1.314  0.2424 -0.7735 -0.7162
 3106TIP3   OH2 9323   5.737   0.850   1.675 -0.1083  0.7516  0.2405
 3106TIP3    H1 9324   5.649   0.858   1.639  0.8150  1.0443 -2.1342
 3106TIP3    H2 9325   5.793   0.901   1.615  2.0548 -1.5495  0.1306
 3107TIP3   OH2 9326   5.801   5.770   4.881  0.2466  0.5583  0.4427
 3107TIP3    H1 9327   5.761   5.854   4.901 -2.0349 -0.4026  0.2683
 3107TIP3    H2 9328   5.767   5.747   4.794  2.4449  0.3529 -0.4144
 3108TIP3   OH2 9329   5.682   0.645   1.354 -0.4489 -0.2393 -0.2165
 3108TIP3    H1 9330   5.614   0.665   1.419 -1.3732 -3.4055 -0.0407
 3108TIP3    H2 9331   5.645   0.674   1.271  0.2373  2.7250  0.3690
 3109TIP3   OH2 9332   4.189   2.975   0.352 -0.1709 -0.3350  0.3356
 3109TIP3    H1 9333   4.218   3.025   0.428  0.0036 -1.7767  1.2539
 3109TIP3    H2 9334   4.178   2.886   0.384 -0.3343 -0.9397 -1.2846
 3110TIP3   OH2 9335   0.132   4.664   3.167 -0.0799 -0.2683  0.3915
 3110TIP3    H1 9336   0.127   4.740   3.110  1.1857 -0.1587  0.3975
 3110TIP3    H2 9337   0.101   4.695   3.252 -1.1502 -0.2119 -0.0029
 3111TIP3   OH2 9338   4.490   2.820   4.003 -0.2174 -0.7878 -0.0251
 3111TIP3    H1 9339   4.507   2.732   3.968 -0.7764 -1.7444  1.9276
 3111TIP3    H2 9340   4.501   2.810   4.098  1.5781  1.7300  0.1372
 3112TIP3   OH2 9341   1.357   1.806   1.422  0.2462  0.7334 -0.3253
 3112TIP3    H1 9342   1.317   1.858   1.353  3.0336  2.7761 -0.5641
 3112TIP3    H2 9343   1.346   1.859   1.501  1.0479  0.5648 -0.0967
 3113TIP3   OH2 9344   3.413   3.853   4.445 -0.6902 -0.0169 -0.1948
 3113TIP3    H1 9345   3.383   3.928   4.497  2.7712  0.1859  1.8157
 3113TIP3    H2 9346   3.420   3.781   4.507  1.1736 -0.4746 -0.8653
 3114TIP3   OH2 9347   5.826   4.505   3.233 -0.0222  0.2236 -0.3577
 3114TIP3    H1 9348   5.846   4.419   3.195 -1.0853 -0.7941  1.2143
 3114TIP3    H2 9349   5.896   4.562   3.204  0.0163 -0.8463 -2.5375
 3115TIP3   OH2 9350   6.353   1.887   1.805 -0.1096 -0.3497 -0.6897
 3115TIP3    H1 9351   6.334   1.929   1.890 -0.1019 -0.2766 -0.7235
 3115TIP3    H2 9352   6.329   1.795   1.818  0.3895 -0.4460 -0.4476
 3116TIP3   OH2 9353   2.639   2.891   2.722  0.0077 -0.4478  0.2354
 3116TIP3    H1 9354   2.565   2.835   2.698  1.6839 -2.4602 -0.5195
 3116TIP3    H2 9355   2.655   2.944   2.644 -0.3572 -0.3138  0.2496
 3117TIP3   OH2 9356   4.940   0.219   4.980 -0.1223 -0.4920 -0.0533
 3117TIP3    H1 9357   4.990   0.138   4.983 -0.1012 -0.4781 -0.0341
 3117TIP3    H2 9358   4.919   0.238   5.071  1.8064  0.7451  0.1910
 3118TIP3   OH2 9359   5.296   5.740   2.271 -0.4602  0.1543  0.5038
 3118TIP3    H1 9360   5.361   5.697   2.328  0.2424  1.0925  0.4371
 3118TIP3    H2 9361   5.221   5.755   2.328 -0.6740 -1.0485  0.5545
 3119TIP3   OH2 9362   2.964   1.472   1.964  0.2882  0.1071 -0.5211
 3119TIP3    H1 9363   2.883   1.433   1.931 -0.7888  0.5467  1.4450
 3119TIP3    H2 9364   2.943   1.564   1.977  1.3942  0.4121 -0.7634
 3120TIP3   OH2 9365   2.022   3.207   2.631  0.4852  0.1816  0.2430
 3120TIP3    H1 9366   2.081   3.140   2.667  1.6056  0.6233 -0.6978
 3120TIP3    H2 9367   2.019   3.187   2.537 -2.5543 -1.1008  0.4865
 3121TIP3   OH2 9368   6.067   1.343   4.205 -0.4552 -0.4816 -0.6283
 3121TIP3    H1 9369   6.081   1.309   4.117  1.0788 -0.3846 -0.4381
 3121TIP3    H2 9370   6.020   1.426   4.192 -0.1638 -0.4288 -1.3495
 3122TIP3   OH2 9371   3.269   3.642   3.597  0.3072 -0.1644 -0.0442
 3122TIP3    H1 9372   3.342   3.647   3.536  2.1152 -0.6195  1.9554
 3122TIP3    H2 9373   3.247   3.549   3.602 -1.7593  0.1160 -2.0077
 3123TIP3   OH2 9374   2.068   0.325   5.124  0.3177 -0.0188 -0.1942
 3123TIP3    H1 9375   2.031   0.260   5.064 -1.0674 -0.2677  0.9008
 3123TIP3    H2 9376   2.098   0.396   5.066  0.4417 -0.9377 -1.2850
 3124TIP3   OH2 9377   5.328   5.218   3.150  0.4572  0.6773  0.2367
 3124TIP3    H1 9378   5.372   5.274   3.085 -0.3484  1.1698  0.0989
 3124TIP3    H2 9379   5.342   5.263   3.233  1.0324  0.3284  0.3292
 3125TIP3   OH2 9380   2.342   0.502   2.613  0.2648 -0.0580 -0.0433
 3125TIP3    H1 9381   2.389   0.442   2.555 -0.8399  0.4221 -1.4906
 3125TIP3    H2 9382   2.315   0.574   2.556 -0.7619  0.5009  1.1078
 3126TIP3   OH2 9383   4.452   1.417   0.679  0.7659 -0.0725  0.5273
 3126TIP3    H1 9384   4.408   1.483   0.625  0.3669 -0.6506  0.1359
 3126TIP3    H2 9385   4.405   1.419   0.762  0.7290  0.1109  0.5028
 3127TIP3   OH2 9386   0.990   2.594   2.209 -0.1172 -0.5054  0.1321
 3127TIP3    H1 9387   1.061   2.572   2.268 -0.0468  0.2750  0.3515
 3127TIP3    H2 9388   0.930   2.519   2.214  0.3118 -0.8277  0.5222
 3128TIP3   OH2 9389   2.825   4.346   0.586  0.1289 -0.1429  0.5063
 3128TIP3    H1 9390   2.863   4.266   0.548 -1.9770 -0.4866 -1.0887
 3128TIP3    H2 9391   2.875   4.417   0.547  0.6306 -0.6297  0.2379
 3129TIP3   OH2 9392   0.942   5.497   0.876 -0.2060  0.7281 -0.3642
 3129TIP3    H1 9393   0.991   5.448   0.810  0.4198 -2.5283  2.2694
 3129TIP3    H2 9394   0.860   5.449   0.886  0.3552  0.1332  2.2082
 3130TIP3   OH2 9395   6.031   5.841   1.470  0.3636  0.2248 -0.1026
 3130TIP3    H1 9396   6.018   5.863   1.378 -0.0715 -1.6445 -0.5310
 3130TIP3    H2 9397   6.110   5.788   1.471 -0.6061 -1.2716  0.3207
 3131TIP3   OH2 9398   5.734   2.845   3.663 -0.5258 -0.2170  0.5292
 3131TIP3    H1 9399   5.799   2.912   3.686 -0.0274 -0.2605 -0.6896
 3131TIP3    H2 9400   5.650   2.889   3.673 -0.2282  0.4017  0.3788
 3132TIP3   OH2 9401   6.140   2.218   2.099 -0.2841  0.3361 -0.9690
 3132TIP3    H1 9402   6.188   2.174   2.029  0.3988  0.8397 -0.8276
 3132TIP3    H2 9403   6.051   2.183   2.092  0.0143 -0.3624 -1.4477
 3133TIP3   OH2 9404   0.180   0.081   0.812  0.3534 -0.4422 -0.2156
 3133TIP3    H1 9405   0.210   0.172   0.808 -0.7880 -0.0416  0.0944
 3133TIP3    H2 9406   0.258   0.031   0.837  0.4253  0.7463  2.1165
 3134TIP3   OH2 9407   4.135   2.967   2.897 -0.6976 -0.6305 -0.3402
 3134TIP3    H1 9408   4.141   2.871   2.891 -1.2256 -0.6538 -0.5193
 3134TIP3    H2 9409   4.113   2.995   2.808  0.6196 -0.2436 -0.5623
 3135TIP3   OH2 9410   1.785   2.272   4.407 -0.1706 -0.7552 -0.2777
 3135TIP3    H1 9411   1.783   2.365   4.428  0.8008 -1.0914  1.5558
 3135TIP3    H2 9412   1.876   2.246   4.426  0.0095 -1.7744 -2.2625
 3136TIP3   OH2 9413   2.695   1.083   3.650 -0.4310 -0.5997  0.2860
 3136TIP3    H1 9414   2.724   1.011   3.594 -0.3317  0.4961 -1.1341
 3136TIP3    H2 9415   2.755   1.081   3.724  1.3612 -0.2858 -1.0891
 3137TIP3   OH2 9416   3.620   0.559   1.808 -0.1081  0.2183 -0.2191
 3137TIP3    H1 9417   3.591   0.638   1.854 -0.4395 -0.4347  0.7308
 3137TIP3    H2 9418   3.679   0.516   1.870  2.0977  0.9709 -1.7102
 3138TIP3   OH2 9419   3.220   5.411   2.171 -0.0554  0.2929  0.0211
 3138TIP3    H1 9420   3.145   5.469   2.182 -0.7568 -0.6692  0.4962
 3138TIP3    H2 9421   3.193   5.329   2.212  1.9587  0.4690  1.8328
 3139TIP3   OH2 9422   0.296   5.264   3.392  0.5934  0.3318 -0.0251
 3139TIP3    H1 9423   0.228   5.233   3.332 -0.2003  0.0707  0.9754
 3139TIP3    H2 9424   0.323   5.348   3.357  1.3938 -0.5697 -1.7113
 3140TIP3   OH2 9425   4.072   4.582   2.727 -0.1972 -0.2227 -0.5002
 3140TIP3    H1 9426   4.166   4.573   2.714  0.0307 -0.6532  1.2469
 3140TIP3    H2 9427   4.046   4.501   2.771 -1.3599 -0.0167 -0.7748
 3141TIP3   OH2 9428   5.160   5.870   2.689 -0.9274  0.2377 -0.4984
 3141TIP3    H1 9429   5.173   5.838   2.778 -0.7732  1.0002 -0.2359
 3141TIP3    H2 9430   5.105   5.948   2.700  0.9156  1.6522 -0.8348
 3142TIP3   OH2 9431   1.010   0.691   0.293  0.3821 -0.1225  0.3528
 3142TIP3    H1 9432   1.011   0.738   0.209 -1.4290  0.2683  0.4918
 3142TIP3    H2 9433   0.917   0.684   0.314  0.8114  0.3102  2.6163
 3143TIP3   OH2 9434   0.399   2.021   4.690  0.2126  0.1548  0.1402
 3143TIP3    H1 9435   0.476   2.072   4.715  0.3051 -0.0426  0.2570
 3143TIP3    H2 9436   0.360   1.994   4.773  0.8921 -1.0616  0.0801
 3144TIP3   OH2 9437   1.902   2.459   1.884 -0.1066 -0.2882 -0.0671
 3144TIP3    H1 9438   1.996   2.439   1.883  0.6708  2.9157  0.0960
 3144TIP3    H2 9439   1.897   2.553   1.871 -3.1856  0.1261  2.7469
 3145TIP3   OH2 9440   3.216   4.147   4.870  0.1877  0.4229  0.2321
 3145TIP3    H1 9441   3.256   4.167   4.785  2.0119 -1.0615  0.6804
 3145TIP3    H2 9442   3.219   4.052   4.877  2.2627  0.5633  2.9044
 3146TIP3   OH2 9443   0.848   3.646   4.809 -0.4312 -0.1204 -0.2520
 3146TIP3    H1 9444   0.848   3.742   4.810  0.0017 -0.1112 -0.6672
 3146TIP3    H2 9445   0.802   3.623   4.728 -2.6401 -0.3043  1.0034
 3147TIP3   OH2 9446   5.883   2.958   3.953 -0.4163 -0.6998 -0.2230
 3147TIP3    H1 9447   5.974   2.937   3.973 -0.2297  0.1330 -0.1415
 3147TIP3    H2 9448   5.848   2.879   3.913 -0.3611 -1.8816  1.9347
 3148TIP3   OH2 9449   4.546   1.565   3.731 -0.1687 -0.0090 -0.1100
 3148TIP3    H1 9450   4.569   1.480   3.769 -0.5402 -0.1324 -0.1587
 3148TIP3    H2 9451   4.457   1.582   3.762 -0.2309  0.1915 -0.3930
 3149TIP3   OH2 9452   1.709   5.632   4.770 -0.3047  0.7525  0.2387
 3149TIP3    H1 9453   1.768   5.566   4.734  0.6958  2.0405 -0.5586
 3149TIP3    H2 9454   1.633   5.582   4.800  0.3060 -0.7265 -0.5700
 3150TIP3   OH2 9455   1.111   3.314   4.423  0.0023 -0.3645  0.1797
 3150TIP3    H1 9456   1.150   3.366   4.493  0.3177 -0.0734 -0.2027
 3150TIP3    H2 9457   1.108   3.374   4.348 -4.3087  0.8225  1.0463
 3151TIP3   OH2 9458   1.255   4.204   4.129  0.0788 -0.0615  0.0029
 3151TIP3    H1 9459   1.270   4.219   4.222  1.7217 -0.3766 -0.1862
 3151TIP3    H2 9460   1.278   4.287   4.087  0.2720 -0.2164 -0.2031
 3152TIP3   OH2 9461   1.509   3.159   1.033  0.1454 -0.3236  0.2908
 3152TIP3    H1 9462   1.574   3.229   1.039 -0.4355  0.0861  2.4107
 3152TIP3    H2 9463   1.551   3.084   1.074 -0.8830  0.1240  2.2802
 3153TIP3   OH2 9464   2.125   5.697   3.467  0.4828  0.2425 -0.0394
 3153TIP3    H1 9465   2.127   5.652   3.552  0.6623 -0.2105 -0.2832
 3153TIP3    H2 9466   2.058   5.765   3.478  0.4663  0.1499  0.4476
 3154TIP3   OH2 9467   4.307   1.253   1.684  0.0994  0.3254 -0.0322
 3154TIP3    H1 9468   4.261   1.330   1.650 -1.2682 -0.4692 -0.0705
 3154TIP3    H2 9469   4.365   1.226   1.613 -0.5965  0.3955 -0.6424
 3155TIP3   OH2 9470   6.131   0.215   3.320  0.2960  0.5048  0.3160
 3155TIP3    H1 9471   6.191   0.240   3.249  0.1550  0.6170  0.2355
 3155TIP3    H2 9472   6.114   0.122   3.306  0.3103  0.5151  0.2329
 3156TIP3   OH2 9473   1.347   5.023   0.642  0.0624 -0.7627 -0.3736
 3156TIP3    H1 9474   1.406   5.032   0.718 -0.7644  0.6467  0.1512
 3156TIP3    H2 9475   1.382   4.949   0.593  1.5686 -0.7113  0.5498
 3157TIP3   OH2 9476   2.502   3.208   1.276  0.6900  0.2443 -0.5793
 3157TIP3    H1 9477   2.587   3.169   1.297  0.7955  0.3775 -0.7606
 3157TIP3    H2 9478   2.469   3.154   1.204  1.9473  1.9772 -2.5627
 3158TIP3   OH2 9479   0.946   4.395   4.889 -0.1332  0.3751  0.2104
 3158TIP3    H1 9480   0.946   4.336   4.964  2.4018  2.1219  1.7086
 3158TIP3    H2 9481   1.038   4.403   4.864 -0.8398  0.2634 -2.8160
 3159TIP3   OH2 9482   2.424   1.799   3.741  0.4465  0.1537 -0.1710
 3159TIP3    H1 9483   2.460   1.867   3.683 -0.3750 -0.1071 -1.0018
 3159TIP3    H2 9484   2.427   1.719   3.688  0.9686 -0.3728  0.6412
 3160TIP3   OH2 9485   3.214   0.830   2.477  0.2054 -0.1099  0.4908
 3160TIP3    H1 9486   3.179   0.877   2.552  1.9234 -0.0467  1.2943
 3160TIP3    H2 9487   3.144   0.832   2.413 -1.0634  0.4200  1.8370
 3161TIP3   OH2 9488   3.544   5.275   1.818  0.3359  0.7620  0.1012
 3161TIP3    H1 9489   3.451   5.252   1.814  0.1645  1.5264 -0.5865
 3161TIP3    H2 9490   3.587   5.194   1.846 -0.4192  0.0902 -0.6156
 3162TIP3   OH2 9491   4.034   2.688   2.827 -0.0229  0.4361  0.0036
 3162TIP3    H1 9492   4.114   2.653   2.867  0.1647  2.0881  1.2240
 3162TIP3    H2 9493   3.966   2.673   2.892 -0.5549 -0.2683 -0.7044
 3163TIP3   OH2 9494   3.109   3.012   4.559 -0.0325  0.6235  0.1610
 3163TIP3    H1 9495   3.136   2.924   4.535 -0.1853  1.2457 -2.6412
 3163TIP3    H2 9496   3.053   3.040   4.487  0.8787  3.4061  0.4269
 3164TIP3   OH2 9497   5.281   5.138   4.127 -0.3879 -0.6881 -0.0508
 3164TIP3    H1 9498   5.199   5.123   4.173 -1.0712 -0.9424 -1.2963
 3164TIP3    H2 9499   5.280   5.231   4.105  0.2959 -0.3973  1.0808
 3165TIP3   OH2 9500   2.318   2.345   2.837 -0.1653  0.5232  0.0724
 3165TIP3    H1 9501   2.362   2.423   2.802 -0.8058  0.6486 -0.4485
 3165TIP3    H2 9502   2.226   2.356   2.814 -0.3635 -0.0893  0.5421
 3166TIP3   OH2 9503   2.385   4.675   3.831 -0.7249  0.1078  0.1157
 3166TIP3    H1 9504   2.400   4.582   3.816 -0.3091  0.3700 -1.1801
 3166TIP3    H2 9505   2.344   4.678   3.918 -0.7368 -1.2713  0.1907
 3167TIP3   OH2 9506   3.979   3.425   4.705 -0.2354  0.5516 -0.1224
 3167TIP3    H1 9507   3.993   3.371   4.783 -1.6645  1.1333  0.5658
 3167TIP3    H2 9508   3.966   3.514   4.739 -0.6975  0.8424 -1.0286
 3168TIP3   OH2 9509   5.102   4.169   3.986  0.5989 -0.2449  0.2244
 3168TIP3    H1 9510   5.159   4.239   3.954 -1.0396  1.6041  1.1260
 3168TIP3    H2 9511   5.073   4.199   4.072  0.9699 -2.7553  1.3096
 3169TIP3   OH2 9512   3.184   1.718   1.851  0.2661 -0.0203 -0.1939
 3169TIP3    H1 9513   3.196   1.785   1.919 -1.9615 -1.6568  2.0335
 3169TIP3    H2 9514   3.186   1.766   1.769  1.8104  2.2859  1.0888
 3170TIP3   OH2 9515   1.674   1.910   3.152 -0.1255 -0.2594  0.6300
 3170TIP3    H1 9516   1.679   1.860   3.071 -0.7683  0.9164 -0.1571
 3170TIP3    H2 9517   1.683   2.001   3.125  5.3588  0.1036  2.3652
 3171TIP3   OH2 9518   6.039   4.000   0.471 -0.3977  0.3969 -0.0463
 3171TIP3    H1 9519   6.071   4.012   0.560 -1.9622  1.6434  0.4011
 3171TIP3    H2 9520   6.068   3.913   0.446 -1.1329 -0.5585  2.2229
 3172TIP3   OH2 9521   3.981   4.325   2.105 -0.0421 -0.0651 -0.3122
 3172TIP3    H1 9522   4.060   4.380   2.105  0.5054 -0.8132 -1.6566
 3172TIP3    H2 9523   4.006   4.248   2.156  0.0040 -0.1665 -0.4870
 3173TIP3   OH2 9524   2.798   5.247   0.759  0.4673 -0.4781 -0.5019
 3173TIP3    H1 9525   2.806   5.161   0.799  0.8629 -1.1440 -1.9329
 3173TIP3    H2 9526   2.743   5.232   0.681  1.7069  0.2628 -1.5527
 3174TIP3   OH2 9527   3.790   5.354   0.781 -0.3656  0.2288  0.1437
 3174TIP3    H1 9528   3.768   5.271   0.824  0.6227  0.5938  1.4286
 3174TIP3    H2 9529   3.886   5.357   0.783 -0.3953  1.5547  0.4437
 3175TIP3   OH2 9530   3.209   3.391   0.775 -0.0863  0.3790  0.1214
 3175TIP3    H1 9531   3.246   3.476   0.750 -0.6700  0.6111  0.0460
 3175TIP3    H2 9532   3.232   3.382   0.868 -0.8873  1.0826  0.3998
 3176TIP3   OH2 9533   4.964   5.786   1.132  0.5501 -0.0441 -0.0452
 3176TIP3    H1 9534   4.873   5.807   1.152  0.5691  0.8773 -0.8269
 3176TIP3    H2 9535   4.971   5.691   1.145 -0.1833  0.0651  1.2552
 3177TIP3   OH2 9536   0.419   2.263   2.109 -0.1773 -0.6664  0.0864
 3177TIP3    H1 9537   0.505   2.259   2.067 -0.1728 -0.7847  0.1069
 3177TIP3    H2 9538   0.393   2.172   2.121 -0.2353 -0.6326  0.2268
 3178TIP3   OH2 9539   3.041   2.808   0.333  0.3604 -0.6776 -0.1269
 3178TIP3    H1 9540   3.127   2.831   0.368  0.9538 -0.4667 -1.6586
 3178TIP3    H2 9541   3.059   2.746   0.263 -0.6659 -0.0854 -0.9539
 3179TIP3   OH2 9542   1.647   0.594   0.064  0.4177  0.2581 -0.3154
 3179TIP3    H1 9543   1.599   0.527   0.113  1.5459 -0.8115 -0.6250
 3179TIP3    H2 9544   1.579   0.649   0.026 -0.6393 -1.6441 -1.3592
 3180TIP3   OH2 9545   3.767   0.961   0.249  0.0122  0.3716  0.0401
 3180TIP3    H1 9546   3.818   0.935   0.172  0.8370  2.3180 -0.1187
 3180TIP3    H2 9547   3.807   0.914   0.322  1.2026  0.8646 -0.2817
 3181TIP3   OH2 9548   0.039   3.198   2.080 -0.0093 -0.6158  0.3649
 3181TIP3    H1 9549   0.113   3.257   2.067  0.4414 -1.1718  0.3667
 3181TIP3    H2 9550   0.077   3.110   2.073 -0.8142 -0.9156 -0.5012
 3182TIP3   OH2 9551   4.962   0.771   1.603 -0.7095  0.1837  0.1760
 3182TIP3    H1 9552   4.951   0.691   1.654  0.0866 -1.0608 -1.4740
 3182TIP3    H2 9553   4.894   0.766   1.536 -0.3611  0.6459 -0.2175
 3183TIP3   OH2 9554   4.457   0.530   4.591 -0.0956  0.1349 -0.0552
 3183TIP3    H1 9555   4.388   0.556   4.530  0.6036  1.6248 -0.2627
 3183TIP3    H2 9556   4.517   0.604   4.592  0.5352 -0.3545  1.5512
 3184TIP3   OH2 9557   5.177   1.052   0.573 -0.1389 -0.2431  0.4476
 3184TIP3    H1 9558   5.180   1.104   0.493  1.9663 -1.3423 -0.2761
 3184TIP3    H2 9559   5.183   1.116   0.644  0.6076  0.6223 -0.3631
 3185TIP3   OH2 9560   3.135   0.305   5.153  0.2207  0.2902  0.9823
 3185TIP3    H1 9561   3.116   0.213   5.171 -2.5948  0.5420 -0.2489
 3185TIP3    H2 9562   3.181   0.305   5.070 -0.5632  0.0001  0.5344
 3186TIP3   OH2 9563   6.031   4.776   3.413 -0.1893  0.3348 -0.0335
 3186TIP3    H1 9564   6.001   4.859   3.375 -0.7330  0.5032  0.7322
 3186TIP3    H2 9565   6.101   4.802   3.474  0.8415  0.0457 -1.0695
 3187TIP3   OH2 9566   5.793   5.649   4.111  0.5633  0.3490 -0.4505
 3187TIP3    H1 9567   5.875   5.645   4.062  1.6933  1.8266  1.1844
 3187TIP3    H2 9568   5.781   5.742   4.129  0.0562 -0.1118  1.8230
 3188TIP3   OH2 9569   4.801   1.653   3.935 -0.0349 -0.2787  0.6303
 3188TIP3    H1 9570   4.792   1.721   4.003  0.4821 -0.5009  0.9259
 3188TIP3    H2 9571   4.767   1.694   3.856  1.1352  0.6698  0.5908
 3189TIP3   OH2 9572   1.033   0.801   3.877  0.0947  0.6664 -0.5491
 3189TIP3    H1 9573   1.034   0.734   3.808 -0.1766  0.6886 -0.5744
 3189TIP3    H2 9574   0.943   0.802   3.909  0.3516  0.2460  0.2165
 3190TIP3   OH2 9575   3.294   1.380   2.914 -0.0760 -0.3455  0.3781
 3190TIP3    H1 9576   3.300   1.471   2.886  0.1243 -0.7762 -1.0268
 3190TIP3    H2 9577   3.249   1.384   2.999  1.3788  1.1952  1.1325
 3191TIP3   OH2 9578   1.069   5.651   3.982 -0.4957 -0.0232 -0.2089
 3191TIP3    H1 9579   1.041   5.736   4.014  0.4554  0.2677 -0.1278
 3191TIP3    H2 9580   1.141   5.670   3.922  0.2068 -0.7935  0.3552
 3192TIP3   OH2 9581   0.803   1.623   1.846 -0.0719  0.5784 -0.0626
 3192TIP3    H1 9582   0.796   1.537   1.886 -1.3089 -1.3685 -3.9684
 3192TIP3    H2 9583   0.807   1.606   1.752  0.9238  4.7714 -0.9996
 3193TIP3   OH2 9584   3.434   2.957   2.426  0.1357  0.1458 -0.1896
 3193TIP3    H1 9585   3.481   3.000   2.354 -0.1912  0.4514 -0.2234
 3193TIP3    H2 9586   3.468   2.868   2.426  0.6241  0.3242 -0.2976
 3194TIP3   OH2 9587   5.725   1.396   0.676  0.1297  0.6249  0.2577
 3194TIP3    H1 9588   5.707   1.433   0.590 -0.4769 -0.7314 -0.2253
 3194TIP3    H2 9589   5.671   1.317   0.680  1.2588 -0.1347  1.2996
 3195TIP3   OH2 9590   2.394   2.542   4.032 -0.0802 -0.1851 -0.2747
 3195TIP3    H1 9591   2.309   2.568   4.067 -0.0238 -0.2934 -0.0549
 3195TIP3    H2 9592   2.458   2.575   4.095  0.0096 -0.5682 -0.1641
 3196TIP3   OH2 9593   0.691   1.087   2.632 -0.0516 -0.2402 -0.1845
 3196TIP3    H1 9594   0.646   1.172   2.630 -0.3918 -0.4273 -1.7892
 3196TIP3    H2 9595   0.625   1.024   2.606  0.2139 -1.0198  0.9584
 3197TIP3   OH2 9596   1.390   4.066   0.604 -0.2795  0.0284 -0.7890
 3197TIP3    H1 9597   1.406   4.123   0.529 -0.4953  1.5947  0.3231
 3197TIP3    H2 9598   1.360   4.124   0.674  2.4142 -0.9712  1.3753
 3198TIP3   OH2 9599   4.119   4.035   4.049  0.2105 -0.8755  0.1174
 3198TIP3    H1 9600   4.105   3.965   3.985  0.8993 -0.9101  0.0033
 3198TIP3    H2 9601   4.103   3.993   4.134 -3.3786 -0.2222 -0.0643
 3199TIP3   OH2 9602   3.205   4.770   2.061  0.3938 -0.3704 -0.5019
 3199TIP3    H1 9603   3.165   4.820   1.989  0.5412  1.8866  0.8776
 3199TIP3    H2 9604   3.216   4.682   2.026 -0.6673  0.3348 -2.8117
 3200TIP3   OH2 9605   5.159   0.230   1.829 -0.1684  0.1978 -0.3780
 3200TIP3    H1 9606   5.113   0.296   1.881 -1.6278 -1.2783  0.2924
 3200TIP3    H2 9607   5.239   0.274   1.800 -0.8894  2.1127  0.3720
 3201TIP3   OH2 9608   1.596   0.971   0.880  0.1655  0.2986  0.7668
 3201TIP3    H1 9609   1.589   0.990   0.786  2.2713 -0.4097  0.4113
 3201TIP3    H2 9610   1.632   1.051   0.918  1.8445 -0.2927  0.4987
 3202TIP3   OH2 9611   1.967   1.829   3.181 -0.0759 -0.1711  0.2292
 3202TIP3    H1 9612   1.873   1.838   3.192 -0.1409  0.8500 -0.9726
 3202TIP3    H2 9613   1.997   1.917   3.155  1.0363 -0.7349 -0.4764
 3203TIP3   OH2 9614   0.488   3.107   1.856  0.2209  0.2322 -0.0337
 3203TIP3    H1 9615   0.580   3.131   1.865  0.3925  0.3061 -1.6712
 3203TIP3    H2 9616   0.477   3.086   1.763 -0.4961 -3.6760  0.7614
 3204TIP3   OH2 9617   4.139   5.017   3.167  0.1233  0.3044 -0.2434
 3204TIP3    H1 9618   4.209   5.076   3.141  0.7923 -0.3334  0.0809
 3204TIP3    H2 9619   4.149   4.941   3.110 -0.4586  0.3045 -0.3574
 3205TIP3   OH2 9620   5.515   1.634   2.367  0.1834  0.0665  0.5519
 3205TIP3    H1 9621   5.554   1.592   2.291 -0.5858 -0.2245  0.3090
 3205TIP3    H2 9622   5.450   1.694   2.331  1.3796  1.6361  0.8804
 3206TIP3   OH2 9623   0.084   5.548   1.204  0.6879 -0.2167  0.1983
 3206TIP3    H1 9624   0.043   5.467   1.176 -1.7250  1.7144 -2.3979
 3206TIP3    H2 9625   0.100   5.597   1.123  2.1568  1.9047  1.6379
 3207TIP3   OH2 9626   5.127   3.090   2.028 -0.2498 -1.0632 -0.3420
 3207TIP3    H1 9627   5.059   3.050   1.974 -0.3507 -0.4380 -0.6938
 3207TIP3    H2 9628   5.130   3.181   1.998  0.9203 -1.1409 -0.5155
 3208TIP3   OH2 9629   4.696   2.998   1.480  0.0102  0.3722  0.0808
 3208TIP3    H1 9630   4.651   3.037   1.556  2.0657 -0.6644  1.9597
 3208TIP3    H2 9631   4.745   2.925   1.517  0.6349 -0.5499 -2.4060
 3209TIP3   OH2 9632   3.226   1.451   1.862 -0.0675 -0.1667  0.0625
 3209TIP3    H1 9633   3.147   1.406   1.891 -0.5575  0.5235 -0.1806
 3209TIP3    H2 9634   3.199   1.542   1.850  0.7248  0.0447 -0.1808
 3210TIP3   OH2 9635   2.290   5.242   3.031  0.4676 -0.7732  0.3270
 3210TIP3    H1 9636   2.346   5.320   3.031  2.4747 -2.0509  2.4376
 3210TIP3    H2 9637   2.201   5.276   3.039  1.1529  1.3200 -0.3698
 3211TIP3   OH2 9638   1.633   5.370   1.465  0.1681 -0.2963 -0.1373
 3211TIP3    H1 9639   1.692   5.409   1.399  0.2353  0.9794  0.6476
 3211TIP3    H2 9640   1.546   5.403   1.441 -0.2447 -1.9769 -1.1439
 3212TIP3   OH2 9641   3.027   5.862   2.087  0.1567  0.5593 -0.0240
 3212TIP3    H1 9642   3.038   5.870   1.993 -1.5006 -0.1765 -0.3189
 3212TIP3    H2 9643   2.998   5.949   2.115 -0.7335  0.4113 -0.4400
 3213TIP3   OH2 9644   3.871   3.626   0.912 -0.3252  0.2674 -0.6720
 3213TIP3    H1 9645   3.802   3.571   0.874  0.6772 -0.2751 -1.7901
 3213TIP3    H2 9646   3.825   3.700   0.951 -1.5749 -0.3967 -0.8467
 3214TIP3   OH2 9647   1.058   3.070   0.922 -1.0716  0.2084  0.1309
 3214TIP3    H1 9648   1.065   3.134   0.851  0.9846  2.0760  1.8657
 3214TIP3    H2 9649   1.018   2.993   0.882 -0.2463  1.2706 -2.9487
 3215TIP3   OH2 9650   2.693   5.394   2.785  0.4931  0.0580  0.2994
 3215TIP3    H1 9651   2.662   5.392   2.695  0.7999  1.8320  0.1274
 3215TIP3    H2 9652   2.765   5.457   2.785  1.8887 -1.4429  1.3839
 3216TIP3   OH2 9653   0.458   1.050   4.143  0.4295  0.0542  0.1067
 3216TIP3    H1 9654   0.431   1.134   4.182  1.8804 -0.2166  1.7659
 3216TIP3    H2 9655   0.473   1.072   4.051 -0.1435  1.3953  0.2930
 3217TIP3   OH2 9656   0.051   4.931   1.899  0.0658  0.1031  0.3764
 3217TIP3    H1 9657   0.035   4.850   1.851  0.8933  0.4881 -0.5865
 3217TIP3    H2 9658   0.111   4.906   1.970  1.6435  0.1314 -0.8884
 3218TIP3   OH2 9659   4.583   3.119   4.219 -0.2296 -0.4961 -0.0533
 3218TIP3    H1 9660   4.536   3.093   4.298 -0.0850 -0.4027  0.0657
 3218TIP3    H2 9661   4.516   3.124   4.151 -0.2194 -1.4575 -0.1490
 3219TIP3   OH2 9662   4.567   1.260   3.809  0.2957  0.0459  0.2695
 3219TIP3    H1 9663   4.549   1.229   3.720 -0.1479 -2.0884  1.0440
 3219TIP3    H2 9664   4.587   1.180   3.858  1.4474  1.2692  1.8885
 3220TIP3   OH2 9665   3.990   4.042   0.603 -0.0102 -0.1855 -0.1474
 3220TIP3    H1 9666   4.058   4.100   0.637 -1.3651  1.1441  0.3788
 3220TIP3    H2 9667   4.005   3.959   0.648  0.5001  0.4500  0.8971
 3221TIP3   OH2 9668   4.010   4.054   2.864 -0.2270 -0.2021  0.2391
 3221TIP3    H1 9669   4.007   3.990   2.794 -0.3343 -0.2446  0.2818
 3221TIP3    H2 9670   4.076   4.021   2.925  1.3292  0.8324 -0.8009
 3222TIP3   OH2 9671   0.619   2.983   4.599 -0.1168  0.0338  0.3365
 3222TIP3    H1 9672   0.612   2.908   4.658 -1.3531  0.6391  1.0131
 3222TIP3    H2 9673   0.594   2.948   4.513  2.2898 -0.9939 -0.0204
 3223TIP3   OH2 9674   6.019   2.372   0.230  0.5118 -0.0946 -0.0586
 3223TIP3    H1 9675   6.073   2.450   0.223 -1.7946  1.6778  0.6101
 3223TIP3    H2 9676   6.033   2.325   0.147  1.5832  1.2699 -0.6853
 3224TIP3   OH2 9677   1.381   4.506   2.221 -0.4328  0.2931 -0.2320
 3224TIP3    H1 9678   1.370   4.486   2.128 -0.5787 -1.0607  0.0461
 3224TIP3    H2 9679   1.389   4.601   2.225 -1.1332  0.4305 -1.5568
 3225TIP3   OH2 9680   4.790   0.705   1.363  0.3868 -0.4053  0.1680
 3225TIP3    H1 9681   4.851   0.643   1.323  0.5044 -1.0436  1.2628
 3225TIP3    H2 9682   4.722   0.649   1.402  0.7908  0.0843  1.6683
 3226TIP3   OH2 9683   4.296   0.905   1.025 -0.5417  0.2033  0.4149
 3226TIP3    H1 9684   4.204   0.898   1.049 -0.6711  0.4646 -0.0043
 3226TIP3    H2 9685   4.331   0.817   1.037 -1.1117 -0.1616 -0.5387
 3227TIP3   OH2 9686   3.667   2.993   5.134 -0.2852  0.4680  0.1357
 3227TIP3    H1 9687   3.620   2.984   5.217  1.5082 -0.3352  1.1293
 3227TIP3    H2 9688   3.599   2.984   5.067 -1.7445  0.8543  1.4923
 3228TIP3   OH2 9689   4.410   1.902   3.875  0.4536 -0.1846  0.0233
 3228TIP3    H1 9690   4.478   1.853   3.921  0.0748 -2.4790 -1.6647
 3228TIP3    H2 9691   4.329   1.876   3.919  0.4997  1.6385  1.2789
 3229TIP3   OH2 9692   1.722   5.211   0.848 -0.2846  0.0761  0.0932
 3229TIP3    H1 9693   1.667   5.133   0.843  1.6621 -1.3189 -0.7623
 3229TIP3    H2 9694   1.797   5.191   0.792  1.3614  1.6671  1.6003
 3230TIP3   OH2 9695   3.472   2.101   4.840  0.4585 -0.1311 -0.1369
 3230TIP3    H1 9696   3.554   2.141   4.813  0.8788  0.4354  1.8055
 3230TIP3    H2 9697   3.498   2.036   4.906 -0.5708 -0.6621 -0.2307
 3231TIP3   OH2 9698   2.472   4.931   3.987  0.5149  0.1192  0.1422
 3231TIP3    H1 9699   2.408   4.956   4.053  1.1456  1.8966  0.1223
 3231TIP3    H2 9700   2.430   4.861   3.938 -0.5761 -0.1670  1.4329
 3232TIP3   OH2 9701   4.054   3.896   1.219 -0.3239  0.6906 -0.2420
 3232TIP3    H1 9702   4.020   3.925   1.135  1.0272  1.7959 -0.4469
 3232TIP3    H2 9703   4.145   3.926   1.220  0.2838 -1.0485  0.7885
 3233TIP3   OH2 9704   4.925   5.120   2.235  0.4484 -0.2827 -0.1256
 3233TIP3    H1 9705   4.859   5.149   2.173  0.7969  1.7930  0.4014
 3233TIP3    H2 9706   4.890   5.144   2.321  1.8791  0.9637  0.1606
 3234TIP3   OH2 9707   6.040   2.325   4.730 -0.2752 -0.1356  0.6713
 3234TIP3    H1 9708   6.025   2.363   4.817  0.7159 -1.3683  1.4048
 3234TIP3    H2 9709   6.077   2.397   4.679 -0.8589  0.6033  1.2620
 3235TIP3   OH2 9710   3.409   4.700   4.903  0.0933 -0.4890 -0.0618
 3235TIP3    H1 9711   3.334   4.754   4.877  1.4899  2.0308  0.7374
 3235TIP3    H2 9712   3.463   4.695   4.824  0.9506  1.1751  0.3576
 3236TIP3   OH2 9713   5.036   5.541   3.771 -0.4523  0.0122 -0.2552
 3236TIP3    H1 9714   5.007   5.605   3.836  0.9628  2.3965 -1.7967
 3236TIP3    H2 9715   4.987   5.562   3.692  0.7871 -0.0934 -1.0900
 3237TIP3   OH2 9716   2.262   1.291   1.606  0.2413 -0.2496  0.4233
 3237TIP3    H1 9717   2.234   1.382   1.598  1.5073  0.0637 -0.7203
 3237TIP3    H2 9718   2.189   1.240   1.570 -0.3047  0.3249  0.6926
 3238TIP3   OH2 9719   2.796   5.914   4.616 -0.0975  0.6828 -0.1592
 3238TIP3    H1 9720   2.756   5.870   4.541 -0.5413  1.0132 -0.1203
 3238TIP3    H2 9721   2.863   5.972   4.578 -2.0061  2.7682 -0.5619
 3239TIP3   OH2 9722   0.093   0.868   3.716 -0.4398  0.5250  0.4219
 3239TIP3    H1 9723   0.018   0.859   3.656 -1.1900  2.1033  1.0923
 3239TIP3    H2 9724   0.074   0.806   3.787 -0.0088 -0.6609 -0.4490
 3240TIP3   OH2 9725   5.272   1.488   1.043 -0.4221  0.0039  0.0597
 3240TIP3    H1 9726   5.177   1.471   1.042 -0.6391  1.0972  0.6059
 3240TIP3    H2 9727   5.293   1.511   0.953 -1.1255  1.9372  0.3443
 3241TIP3   OH2 9728   1.531   5.899   4.726  0.1205 -0.4228  0.1693
 3241TIP3    H1 9729   1.589   5.827   4.752  3.0474  2.3172  1.9408
 3241TIP3    H2 9730   1.448   5.856   4.706  1.4552 -4.2032  1.7190
 3242TIP3   OH2 9731   2.478   4.374   2.648 -0.1935  0.4727  0.5686
 3242TIP3    H1 9732   2.558   4.355   2.601 -1.1343  1.0363 -1.3676
 3242TIP3    H2 9733   2.506   4.393   2.737  1.7572  0.2267  0.0435
 3243TIP3   OH2 9734   5.058   3.759   2.997 -0.0799  0.0095 -0.2055
 3243TIP3    H1 9735   4.968   3.782   3.018  0.6328  1.7162  1.2740
 3243TIP3    H2 9736   5.108   3.839   3.014  1.7450 -0.9388 -0.8121
 3244TIP3   OH2 9737   5.840   3.248   1.953  0.3745 -0.3996  0.3366
 3244TIP3    H1 9738   5.830   3.226   1.861  0.7813 -1.3745  0.5132
 3244TIP3    H2 9739   5.891   3.176   1.989  1.4701  0.6766  1.0179
 3245TIP3   OH2 9740   5.860   4.679   4.081  0.3250 -0.0972 -0.0121
 3245TIP3    H1 9741   5.916   4.729   4.022  1.4912  0.3755  1.4173
 3245TIP3    H2 9742   5.788   4.739   4.103 -0.2038 -0.3381 -1.0648
 3246TIP3   OH2 9743   5.882   3.815   4.245 -0.4499 -0.2302 -0.4264
 3246TIP3    H1 9744   5.921   3.792   4.160 -0.9462 -1.1928 -0.3988
 3246TIP3    H2 9745   5.912   3.747   4.305  0.2653  0.6904  0.2955
 3247TIP3   OH2 9746   0.993   4.920   0.372 -0.3252  0.1061  0.3838
 3247TIP3    H1 9747   0.898   4.932   0.364 -0.1069  1.2865 -0.5934
 3247TIP3    H2 9748   1.022   4.992   0.427 -0.1963 -1.2685  2.2125
 3248TIP3   OH2 9749   1.005   5.959   3.413 -0.0220  0.5561 -0.6468
 3248TIP3    H1 9750   1.003   5.910   3.331 -4.0934  0.1966 -0.5214
 3248TIP3    H2 9751   0.960   6.042   3.393  0.9395  1.4609  0.7287
 3249TIP3   OH2 9752   6.099   5.604   3.682 -0.2353 -0.9814  0.0001
 3249TIP3    H1 9753   6.175   5.647   3.722  2.7156 -3.1992 -2.7322
 3249TIP3    H2 9754   6.092   5.521   3.730 -0.8079 -0.8862  0.0832
 3250TIP3   OH2 9755   4.347   5.430   4.890 -1.1722 -0.7095 -0.3828
 3250TIP3    H1 9756   4.377   5.471   4.971 -0.5463 -1.4458 -0.2250
 3250TIP3    H2 9757   4.423   5.433   4.832 -1.6594 -0.0705 -0.9937
 3251TIP3   OH2 9758   4.861   2.846   1.259 -0.2274  0.0518 -0.4844
 3251TIP3    H1 9759   4.779   2.811   1.223 -0.2080 -0.9140  0.3696
 3251TIP3    H2 9760   4.838   2.933   1.291 -1.2274 -0.6600  0.8241
 3252TIP3   OH2 9761   5.286   4.712   2.173 -0.2808 -0.0324  0.1697
 3252TIP3    H1 9762   5.237   4.684   2.096  0.0675 -1.5372  0.4755
 3252TIP3    H2 9763   5.268   4.806   2.180 -1.9720 -0.2834 -0.5264
 3253TIP3   OH2 9764   5.219   3.903   4.024 -0.1781 -0.1411 -0.1422
 3253TIP3    H1 9765   5.148   3.849   4.056  0.7729 -0.8299  0.8720
 3253TIP3    H2 9766   5.176   3.981   3.989 -1.3893 -0.2419  1.0523
 3254TIP3   OH2 9767   0.423   5.334   2.573 -0.1827 -0.0647  0.8294
 3254TIP3    H1 9768   0.336   5.309   2.606 -0.2466 -0.5712  0.2986
 3254TIP3    H2 9769   0.411   5.421   2.537 -0.3495  0.0783  1.2259
 3255TIP3   OH2 9770   1.790   3.773   5.012  0.3733  0.1419  0.1023
 3255TIP3    H1 9771   1.828   3.698   5.057  2.3896  0.8284 -0.3611
 3255TIP3    H2 9772   1.728   3.734   4.950  1.1209 -1.1314  0.1137
 3256TIP3   OH2 9773   5.621   2.892   4.129  0.5144  0.0554  0.0106
 3256TIP3    H1 9774   5.621   2.985   4.109  4.0605  0.2674  0.2897
 3256TIP3    H2 9775   5.567   2.852   4.060 -0.5054  2.2115 -0.5037
 3257TIP3   OH2 9776   4.735   4.355   4.845  0.0850 -0.7541  0.0708
 3257TIP3    H1 9777   4.734   4.443   4.883  1.3246 -0.3550 -0.7911
 3257TIP3    H2 9778   4.651   4.317   4.873  0.5015 -0.1617  2.3976
 3258TIP3   OH2 9779   4.669   1.895   1.161  0.5316  0.0942  0.2698
 3258TIP3    H1 9780   4.587   1.921   1.119  0.9435 -0.8178 -1.1651
 3258TIP3    H2 9781   4.723   1.974   1.158  0.4292  0.1372 -0.6302
 3259TIP3   OH2 9782   4.082   3.996   1.724  0.5449  0.3464  0.5040
 3259TIP3    H1 9783   4.132   3.927   1.768 -1.5204 -1.2704  0.4572
 3259TIP3    H2 9784   4.063   3.961   1.638 -3.5645 -0.6985  1.6510
 3260TIP3   OH2 9785   3.925   1.055   4.816 -0.3370  0.4678 -0.4023
 3260TIP3    H1 9786   3.861   1.083   4.881 -2.1603 -1.1134 -1.4291
 3260TIP3    H2 9787   3.965   1.137   4.785 -1.3707  1.4445  0.7251
 3261TIP3   OH2 9788   4.116   5.752   0.688 -0.5430  0.5983 -0.3919
 3261TIP3    H1 9789   4.080   5.822   0.634 -1.5632  0.1474 -0.3192
 3261TIP3    H2 9790   4.047   5.732   0.751  0.0361  0.0542  0.0907
 3262TIP3   OH2 9791   5.023   4.388   3.716  0.4126 -0.3217  0.4188
 3262TIP3    H1 9792   5.068   4.452   3.660 -0.9180 -0.6131 -1.0554
 3262TIP3    H2 9793   5.070   4.306   3.700  0.9900 -0.0992  0.9285
 3263TIP3   OH2 9794   1.632   2.177   3.094 -0.2192  0.0172 -0.4977
 3263TIP3    H1 9795   1.539   2.166   3.073 -0.7287  1.8475  0.5936
 3263TIP3    H2 9796   1.644   2.272   3.100  1.4794 -0.2246  0.4700
 3264TIP3   OH2 9797   3.030   3.772   3.595  0.3986  0.0413  0.0258
 3264TIP3    H1 9798   3.119   3.742   3.612 -0.2713 -2.4735 -0.5344
 3264TIP3    H2 9799   2.999   3.716   3.524 -2.9113 -1.8339  2.7021
 3265TIP3   OH2 9800   1.154   1.684   1.631 -0.2116 -0.0652  0.0626
 3265TIP3    H1 9801   1.226   1.714   1.687  0.8915 -0.5277 -1.0498
 3265TIP3    H2 9802   1.130   1.762   1.580  0.2132 -0.1601 -0.2902
 3266TIP3   OH2 9803   5.346   3.046   0.777 -0.4987 -0.2269 -0.1314
 3266TIP3    H1 9804   5.272   3.107   0.772 -0.7015 -0.5577 -1.5768
 3266TIP3    H2 9805   5.408   3.078   0.711  0.8738  0.2989  1.3390
 3267TIP3   OH2 9806   3.931   0.238   2.506 -0.5335 -1.0741  0.3864
 3267TIP3    H1 9807   3.968   0.315   2.550  0.3762 -0.5279 -1.2225
 3267TIP3    H2 9808   3.925   0.171   2.574 -0.6751  0.1954  1.6653
 3268TIP3   OH2 9809   2.032   1.620   0.795  0.2179  0.2847  0.0753
 3268TIP3    H1 9810   2.117   1.586   0.765 -0.5191 -1.3858 -0.2291
 3268TIP3    H2 9811   1.989   1.652   0.715 -0.3570 -1.0183 -0.1620
 3269TIP3   OH2 9812   5.597   3.373   3.371  0.0960  0.5791 -0.2582
 3269TIP3    H1 9813   5.656   3.384   3.296 -1.0861 -0.2155 -1.3523
 3269TIP3    H2 9814   5.655   3.367   3.446  1.4907 -0.9577 -1.3695
 3270TIP3   OH2 9815   4.007   1.536   2.594  0.1564 -0.1525 -0.2830
 3270TIP3    H1 9816   3.990   1.461   2.650 -0.2555  0.0008 -0.1992
 3270TIP3    H2 9817   4.059   1.501   2.521 -0.1364 -0.5423 -0.3059
 3271TIP3   OH2 9818   6.178   1.395   1.768 -0.0006  0.0210 -0.0743
 3271TIP3    H1 9819   6.154   1.304   1.747  1.3501 -0.2887 -0.3280
 3271TIP3    H2 9820   6.253   1.414   1.712  0.7675  0.7502  1.1691
 3272TIP3   OH2 9821   1.169   0.758   4.196  0.0620  0.4822  0.4716
 3272TIP3    H1 9822   1.202   0.778   4.108 -0.7014 -1.1730 -0.2293
 3272TIP3    H2 9823   1.241   0.781   4.254  1.0293  0.4970 -0.6959
 3273TIP3   OH2 9824   5.320   3.932   0.661 -0.6893  0.0845  0.5929
 3273TIP3    H1 9825   5.248   3.911   0.602 -1.0733  1.3550  0.5835
 3273TIP3    H2 9826   5.372   3.851   0.666 -0.7510 -0.0968 -1.3176
 3274TIP3   OH2 9827   0.675   0.684   2.924 -0.0966 -0.3660  0.2174
 3274TIP3    H1 9828   0.739   0.646   2.984 -0.7640 -1.8039  0.0509
 3274TIP3    H2 9829   0.629   0.750   2.978 -0.1314 -1.0553  1.0558
 3275TIP3   OH2 9830   0.612   4.804   2.605 -0.0092  0.0549  0.8791
 3275TIP3    H1 9831   0.619   4.714   2.637 -1.4597  0.1659  1.6052
 3275TIP3    H2 9832   0.700   4.839   2.613  0.4623 -1.1239  1.1295
 3276TIP3   OH2 9833   5.035   3.756   3.784 -0.0804 -0.0663  0.0195
 3276TIP3    H1 9834   4.991   3.723   3.862 -0.0049  0.2476  0.1983
 3276TIP3    H2 9835   5.013   3.849   3.782  0.6751  0.1275  0.1909
 3277TIP3   OH2 9836   4.441   3.429   3.518 -0.2507  0.2604 -0.3088
 3277TIP3    H1 9837   4.487   3.369   3.577  0.1240  1.0706  0.2501
 3277TIP3    H2 9838   4.398   3.373   3.454 -0.4187 -0.6235  0.5703
 3278TIP3   OH2 9839   6.310   2.330   1.347  0.3089  0.2226  0.0855
 3278TIP3    H1 9840   6.396   2.291   1.360 -0.5680 -2.5203 -1.3985
 3278TIP3    H2 9841   6.249   2.256   1.353 -1.6290  1.5309 -1.7933
 3279TIP3   OH2 9842   3.889   2.920   4.041  0.5795  0.5357  0.2440
 3279TIP3    H1 9843   3.886   2.855   3.970  0.1133  0.7094  0.1043
 3279TIP3    H2 9844   3.982   2.944   4.047  0.5712  0.7781 -0.5356
 3280TIP3   OH2 9845   5.965   3.694   1.498  0.5846 -0.1607  0.3504
 3280TIP3    H1 9846   6.060   3.690   1.509  0.7785 -0.6356 -1.2125
 3280TIP3    H2 9847   5.936   3.603   1.505 -0.0602  0.1528  2.7828
 3281TIP3   OH2 9848   1.052   3.641   0.866 -0.4451 -0.0315  0.3826
 3281TIP3    H1 9849   1.080   3.584   0.938  0.9103  0.3777  0.2085
 3281TIP3    H2 9850   1.107   3.614   0.792 -1.0171  0.3310 -0.1855
 3282TIP3   OH2 9851   1.803   0.323   0.050 -0.3819 -0.5824  0.2254
 3282TIP3    H1 9852   1.750   0.264   0.104  0.1613 -1.1970  0.1003
 3282TIP3    H2 9853   1.872   0.354   0.109 -0.2809 -0.5937  0.1139
 3283TIP3   OH2 9854   3.484   5.745   4.175 -0.2413 -0.5844 -0.0281
 3283TIP3    H1 9855   3.447   5.659   4.154  2.0413 -1.9490  1.1683
 3283TIP3    H2 9856   3.443   5.769   4.258 -1.2811 -0.2247 -0.6264
 3284TIP3   OH2 9857   3.433   1.585   4.001  0.2285 -0.0106 -0.0643
 3284TIP3    H1 9858   3.359   1.646   3.991 -0.5262 -0.8763  0.0763
 3284TIP3    H2 9859   3.392   1.498   4.001  1.3222 -0.5391 -0.6198
 3285TIP3   OH2 9860   2.395   0.185   0.621 -0.6962 -0.0226 -0.8142
 3285TIP3    H1 9861   2.339   0.126   0.570 -1.0430  1.1470 -1.8241
 3285TIP3    H2 9862   2.344   0.266   0.628  0.7259  0.9574 -1.4690
 3286TIP3   OH2 9863   0.517   1.448   1.766 -0.1662  0.2552 -0.0355
 3286TIP3    H1 9864   0.547   1.422   1.854 -0.2110  0.1650 -0.0469
 3286TIP3    H2 9865   0.597   1.450   1.714 -0.1111  0.5034  0.0544
 3287TIP3   OH2 9866   5.195   4.500   5.188  0.0751 -0.6940 -0.0797
 3287TIP3    H1 9867   5.270   4.467   5.139 -0.3904 -1.7808 -0.0939
 3287TIP3    H2 9868   5.130   4.521   5.120  0.2970  0.0862 -0.0582
 3288TIP3   OH2 9869   1.872   2.437   3.585  0.1949  0.4623 -0.4202
 3288TIP3    H1 9870   1.912   2.437   3.672  2.6545  0.4321 -1.4559
 3288TIP3    H2 9871   1.900   2.521   3.547  1.0329 -0.4693 -1.9346
 3289TIP3   OH2 9872   6.039   2.884   1.524  0.4330 -0.1935  0.8343
 3289TIP3    H1 9873   5.977   2.854   1.591  1.0714 -1.6064  0.8216
 3289TIP3    H2 9874   5.992   2.875   1.441  0.5015 -0.8475  0.8652
 3290TIP3   OH2 9875   1.363   2.843   4.852  0.1879 -0.0171 -0.2449
 3290TIP3    H1 9876   1.337   2.873   4.939 -0.9365 -1.2436 -0.1202
 3290TIP3    H2 9877   1.280   2.829   4.805  0.7428 -0.3526 -1.1598
 3291TIP3   OH2 9878   3.051   3.039   4.112  0.0265 -0.6152  0.7652
 3291TIP3    H1 9879   3.082   2.990   4.036 -0.8944 -2.3941  1.4750
 3291TIP3    H2 9880   3.107   3.010   4.184  1.8340  2.1100  0.5873
 3292TIP3   OH2 9881   3.000   3.101   0.119  0.8657  0.3408 -0.1059
 3292TIP3    H1 9882   2.973   3.087   0.210  0.3693  2.0611  0.0523
 3292TIP3    H2 9883   2.940   3.046   0.068  0.1327  0.5482  0.5184
 3293TIP3   OH2 9884   1.629   5.341   1.738  0.4285  0.3406  0.1660
 3293TIP3    H1 9885   1.565   5.298   1.795  1.9674  0.0346  1.7300
 3293TIP3    H2 9886   1.578   5.368   1.662 -1.1140 -1.9978  0.2578
 3294TIP3   OH2 9887   5.487   4.078   2.907 -0.2151 -0.2506 -0.5138
 3294TIP3    H1 9888   5.502   4.136   2.833 -1.4748  1.9821  0.8634
 3294TIP3    H2 9889   5.398   4.045   2.895 -0.9066  1.1108  0.5498
 3295TIP3   OH2 9890   6.110   5.014   1.593 -0.3872 -0.7563 -0.5638
 3295TIP3    H1 9891   6.173   4.955   1.552  0.0856  0.1593 -1.2088
 3295TIP3    H2 9892   6.157   5.051   1.668  0.6376  1.4235 -2.1590
 3296TIP3   OH2 9893   6.177   4.959   2.231 -0.5390 -0.4243  0.2023
 3296TIP3    H1 9894   6.152   4.978   2.321 -0.3870 -2.1936  0.6557
 3296TIP3    H2 9895   6.099   4.919   2.192 -1.3553  2.2647 -1.1686
 3297TIP3   OH2 9896   5.391   3.196   4.875  0.0878 -0.3396  0.0421
 3297TIP3    H1 9897   5.310   3.228   4.835 -0.6589 -1.3895  0.6892
 3297TIP3    H2 9898   5.453   3.268   4.863 -0.6499  0.1019 -1.3310
 3298TIP3   OH2 9899   3.573   0.245   3.120  0.4418 -0.0108  0.2854
 3298TIP3    H1 9900   3.661   0.283   3.127  0.5538  0.8667 -3.8193
 3298TIP3    H2 9901   3.514   0.318   3.142  0.7412  0.5556 -0.7224
 3299TIP3   OH2 9902   2.680   1.496   2.669  0.6711  0.2672 -0.2977
 3299TIP3    H1 9903   2.739   1.572   2.666  0.5886  0.4251  1.3563
 3299TIP3    H2 9904   2.669   1.477   2.762 -1.8642  0.2070 -0.5373
 3300TIP3   OH2 9905   3.993   5.351   4.566 -0.1116 -0.0941 -0.1474
 3300TIP3    H1 9906   4.042   5.433   4.560  0.1535 -0.3708 -2.6536
 3300TIP3    H2 9907   3.901   5.378   4.561 -0.0072  0.0454 -1.8204
 3301TIP3   OH2 9908   4.048   0.737   3.032  0.4420 -0.5096  0.2907
 3301TIP3    H1 9909   4.094   0.662   2.995 -1.1262 -1.7302  0.7179
 3301TIP3    H2 9910   3.960   0.733   2.995  0.3127  1.1496  0.3085
 3302TIP3   OH2 9911   3.186   0.123   1.289 -0.5283 -0.0054  0.0306
 3302TIP3    H1 9912   3.116   0.082   1.238 -1.7670  0.4331  1.3399
 3302TIP3    H2 9913   3.200   0.207   1.246  3.0694 -2.0853 -3.6235
 3303TIP3   OH2 9914   0.896   1.458   4.669  0.4475  0.3146  0.0189
 3303TIP3    H1 9915   0.847   1.376   4.678  0.2998  0.5013  1.0275
 3303TIP3    H2 9916   0.843   1.512   4.610  0.2253 -0.0780 -0.1418
 3304TIP3   OH2 9917   5.545   0.075   1.008 -0.1254 -0.0287  0.1685
 3304TIP3    H1 9918   5.525  -0.001   1.063  0.7504  0.2523  0.8938
 3304TIP3    H2 9919   5.554   0.038   0.920 -0.7249 -0.6082  0.3364
 3305TIP3   OH2 9920   1.247   3.713   2.244 -0.2846 -1.0601 -0.3231
 3305TIP3    H1 9921   1.253   3.643   2.180 -2.9776 -1.5042 -0.1679
 3305TIP3    H2 9922   1.204   3.674   2.320  1.3277 -0.1110  1.1826
 3306TIP3   OH2 9923   4.297   2.635   0.874 -0.4577  0.1816  0.1107
 3306TIP3    H1 9924   4.366   2.569   0.886 -0.1863  0.1880 -1.2299
 3306TIP3    H2 9925   4.309   2.665   0.783 -1.8562  0.6097  0.0556
 3307TIP3   OH2 9926   2.203   3.953   3.835  0.4516  0.1395  0.8308
 3307TIP3    H1 9927   2.119   3.912   3.819 -0.7031  2.5342  0.3001
 3307TIP3    H2 9928   2.185   4.047   3.831  2.7851  0.7522  2.6236
 3308TIP3   OH2 9929   1.371   3.349   0.445  0.6119  0.0036 -0.1483
 3308TIP3    H1 9930   1.303   3.411   0.418 -0.0053 -0.1089  1.0637
 3308TIP3    H2 9931   1.398   3.306   0.365 -0.7906  0.0130 -0.6515
 3309TIP3   OH2 9932   1.435   5.537   1.566  0.2099  0.4105  0.2875
 3309TIP3    H1 9933   1.404   5.551   1.655 -0.0924 -1.3317  0.4947
 3309TIP3    H2 9934   1.383   5.597   1.512 -1.7962 -0.6760  0.9327
 3310TIP3   OH2 9935   3.187   4.059   2.952 -0.1188 -0.1518  0.0852
 3310TIP3    H1 9936   3.257   4.027   2.895  0.8519 -0.3755  1.3656
 3310TIP3    H2 9937   3.112   4.069   2.893  0.9324 -0.0231 -1.2964
 3311TIP3   OH2 9938   5.475   3.296   0.147  0.0626  0.1157 -0.0153
 3311TIP3    H1 9939   5.387   3.285   0.111  0.7141  0.4859 -1.8170
 3311TIP3    H2 9940   5.476   3.386   0.182 -0.0353  0.4046 -0.7390
 3312TIP3   OH2 9941   2.039   0.844   2.835  0.6697 -0.0383  0.2455
 3312TIP3    H1 9942   2.106   0.871   2.898 -0.5972  0.6089  1.3728
 3312TIP3    H2 9943   1.975   0.795   2.886 -0.6303  0.8890 -0.4092
 3313TIP3   OH2 9944   2.781   1.946   3.653  0.8272  0.5180  0.0299
 3313TIP3    H1 9945   2.734   2.027   3.671 -1.6870 -0.5424 -1.1445
 3313TIP3    H2 9946   2.780   1.938   3.557 -1.7481 -2.2306  0.1108
 3314TIP3   OH2 9947   1.284   3.535   1.218 -0.7734 -0.5478  0.1276
 3314TIP3    H1 9948   1.279   3.488   1.135 -3.1284 -2.1172  1.0653
 3314TIP3    H2 9949   1.311   3.469   1.281  1.0653  0.6442  0.6894
 3315TIP3   OH2 9950   5.754   4.292   0.098 -0.0449  0.1756  0.0002
 3315TIP3    H1 9951   5.845   4.323   0.102 -0.1514  0.3523  1.9904
 3315TIP3    H2 9952   5.728   4.307   0.007  1.4616  1.4252 -0.2740
 3316TIP3   OH2 9953   3.542   0.627   0.919 -0.0165  0.1857  0.1567
 3316TIP3    H1 9954   3.594   0.551   0.945 -0.7170  0.0095  1.1163
 3316TIP3    H2 9955   3.457   0.590   0.895  0.0666  0.5396 -0.6877
 3317TIP3   OH2 9956   3.409   3.607   0.287  0.0668 -0.5595 -0.2576
 3317TIP3    H1 9957   3.427   3.619   0.194  2.5867  0.2447  0.2516
 3317TIP3    H2 9958   3.394   3.514   0.297  0.5596 -0.7737 -1.3835
 3318TIP3   OH2 9959   4.264   3.557   1.545  0.0237  0.0688  0.1903
 3318TIP3    H1 9960   4.246   3.643   1.508 -0.3842 -0.2886 -0.4619
 3318TIP3    H2 9961   4.201   3.499   1.503  0.6937 -0.6580  0.1609
 3319TIP3   OH2 9962   2.481   1.695   4.595  0.0669  0.1404  0.5764
 3319TIP3    H1 9963   2.406   1.726   4.645 -0.1913 -0.3573  0.4976
 3319TIP3    H2 9964   2.523   1.775   4.563 -1.5915  0.3981 -1.1275
 3320TIP3   OH2 9965   1.854   0.463   4.209  0.1626 -0.0638  0.2943
 3320TIP3    H1 9966   1.893   0.504   4.286 -0.7022 -0.8703  1.1983
 3320TIP3    H2 9967   1.862   0.529   4.140  2.2668  0.1301  0.6580
 3321TIP3   OH2 9968   2.906   1.005   3.838 -0.6869  0.2878  0.2512
 3321TIP3    H1 9969   2.932   0.961   3.757 -3.2736 -1.4719  0.2613
 3321TIP3    H2 9970   2.982   0.996   3.895  1.4966  2.1995 -2.1154
 3322TIP3   OH2 9971   5.438   0.408   3.635 -0.1539 -0.1824 -0.1532
 3322TIP3    H1 9972   5.506   0.450   3.689 -0.9943 -0.1150  0.8970
 3322TIP3    H2 9973   5.385   0.481   3.602  0.2210 -0.2399 -0.9016
 3323TIP3   OH2 9974   0.070   2.472   2.644  1.1798 -0.7705 -0.1293
 3323TIP3    H1 9975   0.097   2.406   2.581 -0.2264  0.6298 -2.3161
 3323TIP3    H2 9976   0.106   2.554   2.610 -2.7379  0.6604 -1.4143
 3324TIP3   OH2 9977   0.584   3.818   1.103 -0.0977 -0.3059  0.2401
 3324TIP3    H1 9978   0.574   3.731   1.065 -1.1501 -0.0455 -0.0999
 3324TIP3    H2 9979   0.647   3.805   1.175 -1.9657 -1.8304  1.7290
 3325TIP3   OH2 9980   3.888   2.791   5.111 -0.4253 -0.3856  0.6013
 3325TIP3    H1 9981   3.904   2.770   5.203 -1.0153 -0.0511  0.7814
 3325TIP3    H2 9982   3.821   2.859   5.113 -0.4636 -0.3992 -0.0805
 3326TIP3   OH2 9983   2.491   0.277   0.075  0.3770  0.1757 -0.0558
 3326TIP3    H1 9984   2.534   0.361   0.058 -2.3760  1.8478  0.6542
 3326TIP3    H2 9985   2.483   0.237  -0.012  4.0068 -0.6819 -0.1446
 3327TIP3   OH2 9986   1.648   0.387   5.058  0.3679 -0.2985 -0.3650
 3327TIP3    H1 9987   1.587   0.399   4.986  2.3054  0.2811 -1.9956
 3327TIP3    H2 9988   1.729   0.430   5.030  1.5120 -0.8607  1.7584
 3328TIP3   OH2 9989   1.947   3.653   1.008  0.6068  0.2173  0.5656
 3328TIP3    H1 9990   1.982   3.636   1.096  0.8741  2.5605  0.9826
 3328TIP3    H2 9991   1.852   3.654   1.020  0.5513 -1.2289  0.4309
 3329TIP3   OH2 9992   5.994   3.126   3.685 -0.0087 -0.3543  0.3326
 3329TIP3    H1 9993   5.980   3.221   3.682  0.3183 -0.3017  0.3842
 3329TIP3    H2 9994   6.000   3.105   3.778 -3.1657 -0.9096  0.4936
 3330TIP3   OH2 9995   5.157   3.226   0.674 -0.3262 -0.6257  0.0482
 3330TIP3    H1 9996   5.082   3.184   0.632 -2.2485  1.7630  0.8263
 3330TIP3    H2 9997   5.219   3.241   0.603 -1.8207 -0.1705 -1.2260
 3331TIP3   OH2 9998   2.067   0.762   2.407 -0.6043  0.5709  0.7816
 3331TIP3    H1 9999   1.985   0.778   2.454 -1.4760 -1.5159  0.0918
 3331TIP3    H210000   2.044   0.774   2.315 -0.0621  0.2630  0.6040
 3332TIP3   OH210001   1.662   1.182   4.486 -0.0446 -0.5633  0.2192
 3332TIP3    H110002   1.711   1.167   4.405 -0.7408 -1.7058 -0.0155
 3332TIP3    H210003   1.630   1.272   4.479  1.2492 -0.1088 -0.0281
 3333TIP3   OH210004   1.567   3.862   2.616  0.3125 -0.2303  0.2940
 3333TIP3    H110005   1.476   3.854   2.586 -0.2766 -0.0036  1.9246
 3333TIP3    H210006   1.577   3.793   2.682  1.8257 -1.2716 -0.9441
 3334TIP3   OH210007   2.916   2.024   1.724 -0.0392 -0.0068  0.2778
 3334TIP3    H110008   2.899   2.020   1.630  0.5202 -1.0776  0.2043
 3334TIP3    H210009   2.966   2.105   1.736  0.5828 -0.2620 -0.4856
 3335TIP3   OH210010   1.074   0.585   4.817 -0.7013 -0.0967 -0.0735
 3335TIP3    H110011   1.047   0.661   4.766 -1.4695 -0.0427  0.4051
 3335TIP3    H210012   1.142   0.544   4.764 -0.9832  0.3617 -0.8048
 3336TIP3   OH210013   5.962   2.625   0.964  0.2270  0.4573  0.0558
 3336TIP3    H110014   5.965   2.720   0.979 -0.2302  0.4096  0.4774
 3336TIP3    H210015   6.048   2.594   0.992  1.0000  0.9552 -1.6501
 3337TIP3   OH210016   3.255   2.434   1.628  0.4284 -0.3525 -0.1871
 3337TIP3    H110017   3.192   2.496   1.594 -0.4378 -1.1811 -0.1384
 3337TIP3    H210018   3.298   2.479   1.700 -2.4580 -0.8464  2.0302
 3338TIP3   OH210019   1.909   4.401   2.594 -0.1162  0.2046  0.2368
 3338TIP3    H110020   1.882   4.423   2.683 -0.6389 -1.0718  0.4245
 3338TIP3    H210021   1.852   4.454   2.538 -0.4891  0.2598  0.6599
 3339TIP3   OH210022   0.082   1.369   4.428  0.0697 -0.1431 -0.5412
 3339TIP3    H110023   0.047   1.368   4.517  0.6774  0.5277 -0.2890
 3339TIP3    H210024   0.168   1.329   4.436  0.1186 -0.0992 -0.8400
 3340TIP3   OH210025   2.139   5.051   1.215 -0.1101 -0.4939 -0.1815
 3340TIP3    H110026   2.182   5.069   1.299 -0.2915 -0.6455 -0.0557
 3340TIP3    H210027   2.119   4.958   1.218 -1.5334 -0.1947  0.2684
 3341TIP3   OH210028   4.352   5.502   1.789  0.7384 -0.0411 -0.0443
 3341TIP3    H110029   4.440   5.473   1.810  0.3664 -0.9280  0.3661
 3341TIP3    H210030   4.296   5.461   1.855 -0.3079 -1.8059 -1.8902
 3342TIP3   OH210031   4.590   5.418   0.578  0.8845 -0.0923 -0.6908
 3342TIP3    H110032   4.659   5.484   0.592 -1.6599  2.5439  0.5285
 3342TIP3    H210033   4.547   5.445   0.497  0.2544 -0.7302 -0.5780
 3343TIP3   OH210034   1.573   1.488   5.116  0.0518  0.0039 -0.1096
 3343TIP3    H110035   1.575   1.418   5.051  2.6748  0.6249 -0.8045
 3343TIP3    H210036   1.531   1.561   5.071  1.8064  0.4131 -1.1635
 3344TIP3   OH210037   1.393   5.680   1.290  0.0126 -0.0910 -0.2936
 3344TIP3    H110038   1.425   5.596   1.257  2.3705 -0.6468  2.9327
 3344TIP3    H210039   1.470   5.738   1.289 -0.4804  0.6724  1.4246
 3345TIP3   OH210040   1.935   5.579   5.107 -0.1655  0.2812 -0.4227
 3345TIP3    H110041   1.937   5.655   5.049  0.0993 -0.2864 -1.1758
 3345TIP3    H210042   1.844   5.549   5.103 -0.2829  0.5902 -0.0821
 3346TIP3   OH210043   1.158   3.810   4.811 -0.2098  0.6263 -0.1331
 3346TIP3    H110044   1.216   3.864   4.758  0.0665 -0.4301 -0.9407
 3346TIP3    H210045   1.086   3.868   4.836  0.9979  1.8622  0.5895
 3347TIP3   OH210046   1.786   4.342   1.669  0.0786  0.3020  0.4641
 3347TIP3    H110047   1.770   4.248   1.666  1.7338  0.0051 -0.1994
 3347TIP3    H210048   1.819   4.359   1.757  2.0634 -0.1896 -0.1373
 3348TIP3   OH210049   4.659   3.141   1.228  0.1793 -0.3841  0.1727
 3348TIP3    H110050   4.670   3.120   1.321 -0.0362 -0.1878  0.2429
 3348TIP3    H210051   4.641   3.235   1.227 -1.0067 -0.6056  0.0177
 3349TIP3   OH210052   2.879   3.651   0.776  0.7967  0.0109  0.5132
 3349TIP3    H110053   2.966   3.691   0.774  0.7389  0.1353  0.4413
 3349TIP3    H210054   2.858   3.644   0.868  1.7249 -1.8626  0.6281
 3350TIP3   OH210055   2.681   2.158   0.990 -0.4714  0.0850  0.2143
 3350TIP3    H110056   2.588   2.179   0.983 -0.3315  0.5847 -0.1955
 3350TIP3    H210057   2.684   2.063   0.980 -0.7537  0.2565 -1.9776
 3351TIP3   OH210058   5.323   4.676   1.690  0.5218 -0.3746  0.4785
 3351TIP3    H110059   5.341   4.594   1.738 -0.5550 -0.8686  0.0731
 3351TIP3    H210060   5.228   4.686   1.696  0.5392  0.3148 -0.3491
 3352TIP3   OH210061   5.851   4.586   3.793  0.3901 -0.3785  0.4766
 3352TIP3    H110062   5.941   4.555   3.809  0.7387 -0.7459 -1.8646
 3352TIP3    H210063   5.797   4.509   3.809  0.4782 -0.2166  1.6732
 3353TIP3   OH210064   2.267   5.446   0.965  0.5654 -0.5336 -0.0306
 3353TIP3    H110065   2.240   5.364   0.923 -1.1479 -0.2690  0.4806
 3353TIP3    H210066   2.188   5.499   0.967  1.3728  0.6970  0.6946
 3354TIP3   OH210067   1.562   1.904   0.321 -0.5953  0.0476 -1.2222
 3354TIP3    H110068   1.635   1.873   0.269  0.0346  0.1985 -0.4429
 3354TIP3    H210069   1.592   1.898   0.412 -1.9436 -0.9415 -0.8039
 3355TIP3   OH210070   0.469   4.803   1.496 -0.4538  1.0400  0.2284
 3355TIP3    H110071   0.515   4.810   1.579  1.4529 -0.3490 -0.6351
 3355TIP3    H210072   0.484   4.713   1.468  1.8320  2.2588 -3.1396
 3356TIP3   OH210073   4.709   4.514   4.628  0.0905  0.0456 -0.1871
 3356TIP3    H110074   4.682   4.461   4.703  0.0781  0.0528 -0.1865
 3356TIP3    H210075   4.673   4.469   4.552 -0.3506  0.3179 -0.1501
 3357TIP3   OH210076   4.029   1.378   4.241 -0.3071 -0.6893  0.1423
 3357TIP3    H110077   3.991   1.291   4.256  0.8287 -1.7291 -2.3695
 3357TIP3    H210078   4.122   1.366   4.259 -0.3095  0.3467  0.8984
 3358TIP3   OH210079   3.128   0.414   0.290  0.0454 -0.7488  0.0493
 3358TIP3    H110080   3.176   0.481   0.337  0.2088 -1.4509  0.9114
 3358TIP3    H210081   3.039   0.450   0.282  0.9592  1.1769 -2.8093
 3359TIP3   OH210082   3.851   2.413   2.727 -0.9203  0.4183  0.4910
 3359TIP3    H110083   3.820   2.472   2.795  0.4886  1.3433  0.3784
 3359TIP3    H210084   3.946   2.414   2.735 -0.8405 -1.8420  0.4522
 3360TIP3   OH210085   2.464   3.840   3.518  0.7359 -0.2505 -0.1889
 3360TIP3    H110086   2.410   3.874   3.447 -0.6589 -2.2812 -0.1745
 3360TIP3    H210087   2.500   3.918   3.560 -2.3264  1.2391 -0.1004
 3361TIP3   OH210088   4.617   2.143   5.021 -1.0107  0.2661  0.0021
 3361TIP3    H110089   4.702   2.101   5.019 -0.8932  0.4585  0.7937
 3361TIP3    H210090   4.565   2.092   5.084 -0.7481  1.4823  1.2515
 3362TIP3   OH210091   4.338   5.839   0.128 -0.4006 -0.0355 -0.1040
 3362TIP3    H110092   4.329   5.819   0.221 -1.8245  0.0052 -0.2104
 3362TIP3    H210093   4.282   5.774   0.084  3.1294 -2.5647 -1.2921
 3363TIP3   OH210094   1.514   4.229   2.090  0.3896 -0.2645  0.2758
 3363TIP3    H110095   1.431   4.264   2.056 -0.3572 -1.8971  0.3166
 3363TIP3    H210096   1.554   4.303   2.135 -0.7644  0.7264 -0.2563
 3364TIP3   OH210097   1.536   0.581   2.098 -0.0284  0.9045  0.0889
 3364TIP3    H110098   1.449   0.620   2.097 -1.3644 -1.6668  2.4157
 3364TIP3    H210099   1.569   0.598   2.186  0.2113 -1.2109  0.4736
 3365TIP3   OH210100   2.650   0.787   0.303  0.3538  0.3953 -0.0134
 3365TIP3    H110101   2.641   0.827   0.390  1.6844 -0.1016  0.3805
 3365TIP3    H210102   2.646   0.860   0.242  1.5872  1.0180  0.6201
 3366TIP3   OH210103   4.725   3.061   0.692 -0.2520  0.4208  0.4362
 3366TIP3    H110104   4.737   2.993   0.760  0.3414  0.5629  0.4761
 3366TIP3    H210105   4.631   3.077   0.692 -0.7904 -2.1994 -1.3083
 3367TIP3   OH210106   2.965   2.767   1.739 -0.0481  0.0163 -0.4712
 3367TIP3    H110107   2.921   2.716   1.806 -0.8431  0.4775 -0.6327
 3367TIP3    H210108   2.932   2.856   1.751 -0.3735  0.0663 -1.6162
 3368TIP3   OH210109   1.053   2.786   0.702 -0.0797 -0.9236  0.1493
 3368TIP3    H110110   1.032   2.695   0.720  1.0912 -0.8968  2.0308
 3368TIP3    H210111   0.983   2.836   0.745  0.1375 -0.9341  0.5246
 3369TIP3   OH210112   2.149   3.122   4.231  0.0453 -0.0899 -0.4086
 3369TIP3    H110113   2.176   3.140   4.141  2.6949  1.4209  0.5977
 3369TIP3    H210114   2.152   3.207   4.275 -2.1719 -0.6241  0.9228
 3370TIP3   OH210115   2.878   2.683   4.284  0.0193  0.0606 -0.6105
 3370TIP3    H110116   2.846   2.701   4.196 -0.1271  0.2428 -0.5204
 3370TIP3    H210117   2.861   2.589   4.297 -0.7276  0.2130 -0.4640
 3371TIP3   OH210118   3.395   0.545   4.206 -0.4203  0.2458 -0.1551
 3371TIP3    H110119   3.341   0.493   4.147 -0.3186 -1.5911  1.2958
 3371TIP3    H210120   3.461   0.584   4.149 -1.2987 -0.1099 -1.4764
 3372TIP3   OH210121   1.809   5.336   1.951  0.3547  0.0349  0.2908
 3372TIP3    H110122   1.726   5.350   1.906 -0.4425  0.9963  1.9619
 3372TIP3    H210123   1.812   5.242   1.968  1.3599 -0.6548 -2.8810
 3373TIP3   OH210124   6.308   1.575   4.275 -0.2527  0.3669  0.0861
 3373TIP3    H110125   6.359   1.627   4.337 -1.3785  1.4538  0.1289
 3373TIP3    H210126   6.332   1.484   4.294  1.2372  0.8116  0.4704
 3374TIP3   OH210127   2.696   5.198   3.000  0.2584  0.7204  0.3447
 3374TIP3    H110128   2.788   5.184   2.974  0.2979 -1.6612  1.4787
 3374TIP3    H210129   2.655   5.237   2.923  1.8478  0.2050 -0.8130
 3375TIP3   OH210130   4.487   2.348   0.522  0.1970  0.0642  0.0057
 3375TIP3    H110131   4.409   2.371   0.471 -0.0063 -1.7553 -0.5823
 3375TIP3    H210132   4.554   2.410   0.494 -0.2057 -0.2539 -1.7317
 3376TIP3   OH210133   0.363   0.457   0.989  0.2015 -0.6799  0.7350
 3376TIP3    H110134   0.447   0.490   1.019  0.5083 -2.2702  1.7470
 3376TIP3    H210135   0.378   0.432   0.898  0.9015 -1.1599  0.9724
 3377TIP3   OH210136   1.843   2.423   2.213  0.8583  0.4663 -0.2674
 3377TIP3    H110137   1.875   2.350   2.266 -1.5535 -0.4196  0.0922
 3377TIP3    H210138   1.872   2.404   2.124 -2.2334 -2.7185 -0.8246
 3378TIP3   OH210139   2.481   3.424   0.764  0.1659  0.0713 -0.5697
 3378TIP3    H110140   2.569   3.449   0.739  0.5727 -0.2736  0.4673
 3378TIP3    H210141   2.455   3.488   0.830 -0.0601 -0.2672 -0.3229
 3379TIP3   OH210142   4.965   0.255   0.827  0.1204 -0.1306  0.4513
 3379TIP3    H110143   5.059   0.239   0.816  0.4550  0.6358  1.8092
 3379TIP3    H210144   4.928   0.170   0.850  0.2684 -0.6613 -1.1808
 3380TIP3   OH210145   3.342   5.879   1.191 -0.2311 -0.0090  0.0863
 3380TIP3    H110146   3.327   5.922   1.276 -1.5128 -0.7199  0.2370
 3380TIP3    H210147   3.304   5.792   1.201  3.8827 -1.9895  0.3884
 3381TIP3   OH210148   6.174   1.375   5.208 -0.4698 -0.7783 -0.3256
 3381TIP3    H110149   6.227   1.400   5.132 -0.1877 -0.0021  0.1170
 3381TIP3    H210150   6.084   1.401   5.185 -0.1487  0.9669  0.2272
 3382TIP3   OH210151   5.464   3.653   0.648 -0.2907  0.1576  0.1169
 3382TIP3    H110152   5.458   3.602   0.729 -0.2180 -0.2792 -0.1436
 3382TIP3    H210153   5.426   3.595   0.581  0.9122 -0.0703 -0.4061
 3383TIP3   OH210154   5.566   0.938   4.671 -0.0660  0.2235 -0.3721
 3383TIP3    H110155   5.543   0.951   4.763 -0.3472 -2.7435  0.0891
 3383TIP3    H210156   5.483   0.944   4.624 -0.1933  0.0391 -0.1741
 3384TIP3   OH210157   2.847   4.591   5.173 -0.4470 -0.2125  0.4378
 3384TIP3    H110158   2.877   4.500   5.184  2.2466  0.8089  2.5628
 3384TIP3    H210159   2.914   4.632   5.119 -1.3685  0.6861 -0.0607
 3385TIP3   OH210160   0.287   0.650   1.314 -0.3056  0.1376 -0.3141
 3385TIP3    H110161   0.331   0.733   1.335  2.0062 -1.2594  0.8176
 3385TIP3    H210162   0.352   0.602   1.263 -0.2985 -2.1524  1.6645
 3386TIP3   OH210163   3.489   0.936   0.125 -0.2739 -0.1000 -0.3159
 3386TIP3    H110164   3.483   0.844   0.151 -0.2728  0.3541  1.4088
 3386TIP3    H210165   3.570   0.967   0.166 -0.2676  0.6771 -0.8943
 3387TIP3   OH210166   3.640   5.968   0.193 -0.1255 -0.1180  0.3677
 3387TIP3    H110167   3.582   6.044   0.196  0.7128  0.7880 -2.7131
 3387TIP3    H210168   3.583   5.893   0.178 -0.6397  0.5822 -1.2913
 3388TIP3   OH210169   2.364   5.786   3.467  0.2160  0.8080 -0.0249
 3388TIP3    H110170   2.293   5.731   3.435  1.2072  0.2459 -1.4174
 3388TIP3    H210171   2.352   5.869   3.421  0.8620  0.4596 -0.8488
 3389TIP3   OH210172   5.154   3.827   2.399  0.5239  0.6988 -0.3123
 3389TIP3    H110173   5.183   3.888   2.331  0.7563 -1.2530 -2.0772
 3389TIP3    H210174   5.204   3.747   2.382 -0.8344 -0.4836  0.9688
 3390TIP3   OH210175   3.575   0.604   0.250  0.0542 -0.0766 -0.8777
 3390TIP3    H110176   3.598   0.549   0.324 -0.4232 -0.1640 -0.7918
 3390TIP3    H210177   3.497   0.651   0.278  0.5145  0.7367 -0.9045
 3391TIP3   OH210178   2.243   2.127   3.773 -0.8379  0.9239  0.2642
 3391TIP3    H110179   2.224   2.039   3.806 -3.1781  1.4006  0.3466
 3391TIP3    H210180   2.241   2.183   3.850  0.0296  1.1537  0.1289
 3392TIP3   OH210181   0.869   3.879   1.634 -0.1364  0.2373 -0.1842
 3392TIP3    H110182   0.857   3.951   1.572 -1.3904 -0.6816 -1.0584
 3392TIP3    H210183   0.817   3.903   1.710 -0.9054  0.0812 -0.6491
 3393TIP3   OH210184   0.122   4.232   5.143 -0.4357 -0.2964 -0.0055
 3393TIP3    H110185   0.080   4.293   5.083 -0.9449  0.6780  1.2829
 3393TIP3    H210186   0.078   4.148   5.127 -1.7744  0.3344  0.1712
 3394TIP3   OH210187   4.060   5.366   3.900 -0.2129 -0.0259 -0.4951
 3394TIP3    H110188   4.019   5.287   3.867 -1.8551  0.2188  0.8228
 3394TIP3    H210189   3.990   5.431   3.901  0.3773  0.6452  1.0717
 3395TIP3   OH210190   3.599   2.064   3.028 -0.1193 -0.2023  0.3052
 3395TIP3    H110191   3.671   2.039   3.086  1.8552  0.1720 -1.8068
 3395TIP3    H210192   3.562   1.981   2.999  1.2167 -0.5243 -0.5806
 3396TIP3   OH210193   0.964   0.878   1.946 -0.6720 -0.0488 -0.2578
 3396TIP3    H110194   1.058   0.894   1.945 -0.3184 -1.8972  0.1184
 3396TIP3    H210195   0.936   0.904   2.033  0.2605 -3.1550  1.0875
 3397TIP3   OH210196   1.352   3.043   3.765  0.3682 -0.0913 -0.1573
 3397TIP3    H110197   1.279   3.089   3.806  0.7032  0.1628  0.1632
 3397TIP3    H210198   1.330   2.950   3.773  0.9550 -0.1051  1.6337
 3398TIP3   OH210199   2.729   5.624   2.079 -0.5569  0.0411 -0.5262
 3398TIP3    H110200   2.650   5.631   2.133 -0.3868 -2.0474  0.0481
 3398TIP3    H210201   2.800   5.609   2.142 -0.1402 -0.9551 -1.2106
 3399TIP3   OH210202   4.937   5.326   3.005  0.1670  0.2350  0.0919
 3399TIP3    H110203   4.842   5.313   3.011  0.2831 -1.3832 -0.8555
 3399TIP3    H210204   4.961   5.367   3.088 -1.2411 -0.2112  0.7560
 3400TIP3   OH210205   2.323   0.932   0.931 -0.4914 -0.1441  0.0423
 3400TIP3    H110206   2.247   0.875   0.924 -0.2045 -0.7309  1.4950
 3400TIP3    H210207   2.299   1.011   0.881 -0.9307 -1.4439 -1.9079
 3401TIP3   OH210208   3.293   3.917   1.279 -0.0760  0.4939  0.2666
 3401TIP3    H110209   3.262   3.932   1.368 -0.5694 -0.3520  0.2545
 3401TIP3    H210210   3.308   3.822   1.275 -0.3216  0.4822 -0.6222
 3402TIP3   OH210211   1.404   2.775   2.185  0.0090 -0.2320 -0.1318
 3402TIP3    H110212   1.361   2.802   2.104 -0.0686 -0.6710 -0.2421
 3402TIP3    H210213   1.482   2.728   2.156  0.5911  0.5902  0.0682
 3403TIP3   OH210214   5.432   4.652   4.199 -0.4049  0.3103  0.3569
 3403TIP3    H110215   5.457   4.560   4.202 -4.0615 -0.8700 -0.4505
 3403TIP3    H210216   5.369   4.663   4.271 -0.4852  2.0051  0.0692
 3404TIP3   OH210217   0.632   5.403   0.898 -0.0169 -0.5780  0.4690
 3404TIP3    H110218   0.542   5.376   0.914 -0.9541  1.8895 -0.2685
 3404TIP3    H210219   0.683   5.323   0.911 -2.3490 -2.1963  0.2975
 3405TIP3   OH210220   4.359   0.054   2.491  0.2514 -0.9574  0.0840
 3405TIP3    H110221   4.454   0.057   2.487  0.2321  1.5121 -0.4482
 3405TIP3    H210222   4.330   0.124   2.433 -1.9088 -1.7458  0.1047
 3406TIP3   OH210223   1.210   4.302   3.315 -0.2482 -1.0816 -0.1411
 3406TIP3    H110224   1.149   4.275   3.247  0.2060 -0.6098 -0.7432
 3406TIP3    H210225   1.271   4.360   3.271  0.8031 -1.7498  0.3908
 3407TIP3   OH210226   1.338   0.650   2.875  0.4791 -0.4366 -0.0830
 3407TIP3    H110227   1.402   0.651   2.804  0.2054 -3.3844 -0.4811
 3407TIP3    H210228   1.253   0.655   2.832  0.3405 -0.2537  0.2026
 3408TIP3   OH210229   0.349   2.846   3.495  0.0836  0.4640  0.3658
 3408TIP3    H110230   0.296   2.926   3.494 -0.6366  0.0647  2.3876
 3408TIP3    H210231   0.407   2.855   3.419 -2.1985  1.3520 -1.3818
 3409TIP3   OH210232   1.328   1.961   2.689  0.2243 -0.1723 -0.1409
 3409TIP3    H110233   1.327   1.924   2.778  0.8441 -1.0403 -0.4720
 3409TIP3    H210234   1.248   1.928   2.648  0.9269 -1.4716 -0.5365
 3410TIP3   OH210235   2.657   2.940   0.618 -0.0454  0.7555 -0.4605
 3410TIP3    H110236   2.687   2.982   0.699 -0.4282 -0.3716  0.2911
 3410TIP3    H210237   2.584   2.994   0.588 -1.0496  0.2191  0.9169
 3411TIP3   OH210238   1.512   4.830   0.502 -0.7344 -0.0435 -0.4752
 3411TIP3    H110239   1.436   4.817   0.446 -0.3117 -0.1188 -1.0410
 3411TIP3    H210240   1.512   4.755   0.562  0.7562 -1.8898 -2.6246
 3412TIP3   OH210241   3.483   4.830   2.974 -0.6998 -0.9338 -0.3249
 3412TIP3    H110242   3.557   4.883   3.004  0.2595 -1.9012 -0.9001
 3412TIP3    H210243   3.518   4.741   2.969 -1.6090 -1.2513 -1.5680
 3413TIP3   OH210244   6.232   2.966   0.391  0.3876  0.1734 -0.1047
 3413TIP3    H110245   6.299   2.915   0.438  0.4128  0.2834 -0.0183
 3413TIP3    H210246   6.224   2.924   0.306  1.2029  0.6768 -0.4459
 3414TIP3   OH210247   3.823   2.059   5.058  0.4370 -0.6279 -0.3460
 3414TIP3    H110248   3.788   2.124   5.120 -1.6189 -1.6215 -0.3829
 3414TIP3    H210249   3.849   2.111   4.982  0.2965  0.3285  0.2378
 3415TIP3   OH210250   4.021   1.364   0.952 -0.3672  0.1957 -0.5843
 3415TIP3    H110251   4.101   1.323   0.986 -1.1586  0.4903  1.7993
 3415TIP3    H210252   3.963   1.291   0.933 -0.1964  0.0533 -0.5621
 3416TIP3   OH210253   1.662   1.246   2.494 -0.1826 -0.1164 -0.1801
 3416TIP3    H110254   1.664   1.334   2.531  2.0328 -0.5066  0.7904
 3416TIP3    H210255   1.734   1.245   2.431 -0.8676 -0.9236 -0.9673
 3417TIP3   OH210256   2.365   4.677   0.311 -0.1812  0.0031  0.4026
 3417TIP3    H110257   2.390   4.585   0.301 -1.0012 -0.1842 -0.0442
 3417TIP3    H210258   2.396   4.701   0.398  0.1727 -0.6518  0.4673
 3418TIP3   OH210259   0.870   0.772   1.217 -0.0978 -0.4003  0.0576
 3418TIP3    H110260   0.916   0.786   1.134 -1.1192 -0.7828 -0.5826
 3418TIP3    H210261   0.907   0.692   1.253  0.8876  0.1698  0.3670
 3419TIP3   OH210262   6.220   1.753   0.500  0.0886 -0.1298  0.2624
 3419TIP3    H110263   6.255   1.750   0.411 -0.8047 -1.4951 -0.0761
 3419TIP3    H210264   6.126   1.769   0.488 -0.0084 -0.1289  0.9658
 3420TIP3   OH210265   3.793   4.621   5.188  0.0940  0.1444 -0.1826
 3420TIP3    H110266   3.762   4.596   5.101  2.1920 -0.7248 -0.7308
 3420TIP3    H210267   3.841   4.545   5.220 -0.1553  0.6473  1.5287
 3421TIP3   OH210268   6.177   1.966   4.452 -0.5444  0.5611 -0.1098
 3421TIP3    H110269   6.241   1.952   4.522 -0.0486 -0.1024 -0.6808
 3421TIP3    H210270   6.167   2.061   4.447  1.1184  0.7262 -0.6440
 3422TIP3   OH210271   6.127   5.934   4.735  0.0778  0.1867 -0.3383
 3422TIP3    H110272   6.175   6.008   4.697 -0.0556  1.0412  1.0656
 3422TIP3    H210273   6.189   5.861   4.732  1.7076  1.3506  1.7920
 3423TIP3   OH210274   1.806   1.744   0.257  1.0218 -0.2589  0.6188
 3423TIP3    H110275   1.858   1.669   0.288 -0.8301 -1.2832  1.4199
 3423TIP3    H210276   1.817   1.743   0.162  1.2650 -1.3792  0.6402
 3424TIP3   OH210277   5.476   3.465   2.421 -0.2407  0.3806  0.1021
 3424TIP3    H110278   5.430   3.548   2.407  0.6449  0.8366 -0.2169
 3424TIP3    H210279   5.568   3.491   2.432  0.0265 -0.5536  0.1316
 3425TIP3   OH210280   1.599   3.253   3.276  0.6667 -0.3547 -0.2882
 3425TIP3    H110281   1.530   3.238   3.341  1.2545  0.2410  0.5033
 3425TIP3    H210282   1.552   3.283   3.198  0.0069 -0.2810  0.1249
 3426TIP3   OH210283   0.637   2.325   0.360  0.5066  0.1424 -0.3599
 3426TIP3    H110284   0.573   2.393   0.381 -1.0988 -1.4765  0.3165
 3426TIP3    H210285   0.690   2.316   0.439  0.8097  0.6801 -0.4991
 3427TIP3   OH210286   5.279   5.538   3.612  0.2503  0.3090 -0.3618
 3427TIP3    H110287   5.219   5.506   3.679 -0.8523 -0.3125 -1.6004
 3427TIP3    H210288   5.237   5.617   3.578 -0.3000 -0.5107 -1.7232
 3428TIP3   OH210289   6.028   1.352   0.686  0.2218  0.0200 -0.0173
 3428TIP3    H110290   6.056   1.320   0.772  0.3602 -0.7911 -0.3552
 3428TIP3    H210291   5.933   1.355   0.690  0.1778 -0.9512 -0.1502
 3429TIP3   OH210292   3.049   2.189   2.245 -0.5589  1.0916 -0.4301
 3429TIP3    H110293   3.100   2.125   2.295  0.3201  1.4786 -0.8220
 3429TIP3    H210294   3.033   2.261   2.307  0.1290  1.3600 -0.5542
 3430TIP3   OH210295   2.786   1.178   2.023 -0.4191  0.3407  0.1507
 3430TIP3    H110296   2.837   1.098   2.015  1.0950  1.2754  0.0676
 3430TIP3    H210297   2.795   1.221   1.939  0.5348  1.5753  0.8469
 3431TIP3   OH210298   5.986   4.974   3.655 -0.4377  0.3161  0.2175
 3431TIP3    H110299   5.939   5.007   3.578 -0.3866  1.5923  0.7013
 3431TIP3    H210300   6.072   4.949   3.622 -0.8063 -0.2581 -0.3352
 3432TIP3   OH210301   5.562   1.994   4.833  0.2334  0.1022 -0.0023
 3432TIP3    H110302   5.474   2.030   4.821  0.3911  0.2784 -0.6833
 3432TIP3    H210303   5.593   1.977   4.744  1.7427  2.1508  0.0632
 3433TIP3   OH210304   2.101   4.342   1.866  0.2235 -0.0001 -0.0475
 3433TIP3    H110305   2.162   4.287   1.916  0.5742  0.4368  0.0147
 3433TIP3    H210306   2.018   4.335   1.914 -0.1063 -1.5459 -0.8011
 3434TIP3   OH210307   1.570   0.437   4.188 -0.0678 -0.3278 -0.1923
 3434TIP3    H110308   1.546   0.409   4.100 -1.5023  0.1122  0.0452
 3434TIP3    H210309   1.663   0.415   4.195  0.2374  0.2429 -2.0414
 3435TIP3   OH210310   1.043   1.882   2.910 -0.2541  0.0995  0.2906
 3435TIP3    H110311   1.013   1.801   2.867 -0.4374  1.1000 -1.5711
 3435TIP3    H210312   1.135   1.865   2.931 -0.8499 -1.3551  1.9241
 3436TIP3   OH210313   6.141   5.335   0.123 -0.1237  0.4676  0.5308
 3436TIP3    H110314   6.117   5.424   0.151  0.2610  0.1953  1.8065
 3436TIP3    H210315   6.236   5.340   0.109  0.0428  0.0580  1.4522
 3437TIP3   OH210316   1.627   2.699   3.072 -0.3769 -0.4985 -0.2445
 3437TIP3    H110317   1.651   2.783   3.111 -1.4903 -0.9788  1.5662
 3437TIP3    H210318   1.536   2.710   3.046  0.0870 -0.4893 -1.9734
 3438TIP3   OH210319   3.182   0.725   2.033  0.1544 -0.0942  0.0247
 3438TIP3    H110320   3.243   0.690   2.098 -0.6687 -1.8198 -0.1016
 3438TIP3    H210321   3.106   0.667   2.036 -0.3995  0.4768 -1.6759
 3439TIP3   OH210322   4.190   5.607   2.037  0.1071  0.0578  0.1412
 3439TIP3    H110323   4.133   5.616   1.960 -0.5326  0.6646  0.6608
 3439TIP3    H210324   4.201   5.697   2.068  0.0048 -0.2169  0.9996
 3440TIP3   OH210325   1.438   3.759   0.370  0.7113  0.0845  0.2647
 3440TIP3    H110326   1.532   3.768   0.386  0.7406 -0.9535  0.7991
 3440TIP3    H210327   1.399   3.757   0.457  0.3217 -0.6761  0.0785
 3441TIP3   OH210328   2.692   0.722   4.152  0.9509 -0.1058  0.3041
 3441TIP3    H110329   2.651   0.753   4.233 -2.1387  0.3270 -1.2823
 3441TIP3    H210330   2.681   0.794   4.090  0.5111 -1.4954 -1.3145
 3442TIP3   OH210331   3.073   3.088   2.977 -0.2109 -0.2286 -0.3200
 3442TIP3    H110332   3.108   3.167   2.936  0.8091 -1.0846 -1.1599
 3442TIP3    H210333   3.007   3.056   2.916  0.0011 -0.4979 -0.4099
 3443TIP3   OH210334   2.950   1.050   1.170 -0.1998  0.2051 -0.0739
 3443TIP3    H110335   3.034   1.051   1.125 -0.0218 -1.6154  0.1351
 3443TIP3    H210336   2.892   1.002   1.111 -0.4308 -0.6574  0.8257
 3444TIP3   OH210337   6.174   1.125   3.689  0.4958  0.3972  0.1732
 3444TIP3    H110338   6.179   1.059   3.759  2.1566  0.6547  0.3408
 3444TIP3    H210339   6.261   1.125   3.651  0.3188  2.0134 -0.2905
 3445TIP3   OH210340   4.842   5.991   0.767 -0.2451 -0.2085 -0.2919
 3445TIP3    H110341   4.784   5.921   0.797  0.2694 -1.1598 -1.4513
 3445TIP3    H210342   4.807   6.018   0.682  0.6534 -0.4039 -0.7467
 3446TIP3   OH210343   4.875   2.095   3.550 -0.0304 -0.6267  0.0381
 3446TIP3    H110344   4.886   2.011   3.593 -0.1308 -1.0510 -0.7365
 3446TIP3    H210345   4.780   2.108   3.546  0.0028 -0.1104  0.8357
 3447TIP3   OH210346   4.460   5.784   0.986 -0.6491 -0.0326 -0.3330
 3447TIP3    H110347   4.440   5.707   1.040  0.3067 -0.4598 -0.5540
 3447TIP3    H210348   4.378   5.833   0.982 -1.2388 -0.9679 -0.0563
 3448TIP3   OH210349   0.841   0.501   1.309 -0.3414  0.5875 -0.3653
 3448TIP3    H110350   0.856   0.488   1.402 -1.9471 -1.9430 -0.3430
 3448TIP3    H210351   0.926   0.488   1.268  0.3447  1.5660  0.6901
 3449TIP3   OH210352   0.335   0.034   0.178  0.6303 -0.0566  0.2347
 3449TIP3    H110353   0.257  -0.014   0.148 -0.9936  1.9881  0.9550
 3449TIP3    H210354   0.397   0.027   0.106 -0.3113 -1.5028 -0.4834
 3450TIP3   OH210355   4.813   2.919   4.460  0.4816 -0.1740  0.5901
 3450TIP3    H110356   4.852   2.837   4.490  0.4230 -0.0054  1.1348
 3450TIP3    H210357   4.755   2.893   4.388  0.4312 -0.6177  0.7869
 3451TIP3   OH210358   5.915   1.758   3.034 -0.2415  0.2125 -0.2371
 3451TIP3    H110359   5.863   1.753   2.953  0.1437 -1.0238 -0.4274
 3451TIP3    H210360   5.867   1.820   3.089 -0.6704  0.8533 -1.2947
 3452TIP3   OH210361   3.225   1.365   0.754 -0.3391  0.4873  0.9752
 3452TIP3    H110362   3.263   1.381   0.668 -0.5531  0.3047  0.8496
 3452TIP3    H210363   3.300   1.372   0.814 -0.2986  1.2584  0.8456
 3453TIP3   OH210364   5.672   3.002   1.480 -0.1941  0.4512 -0.0112
 3453TIP3    H110365   5.752   3.032   1.437  0.4267 -2.4399 -1.0557
 3453TIP3    H210366   5.697   2.925   1.529 -2.4968 -1.3055 -1.3615
 3454TIP3   OH210367   2.956   3.255   0.799 -0.0630  0.1470  0.3751
 3454TIP3    H110368   2.913   3.265   0.714  0.2794  0.7433  0.2654
 3454TIP3    H210369   3.033   3.312   0.794  2.1134 -2.6303 -0.3232
 3455TIP3   OH210370   0.789   4.627   3.688 -0.1891  0.4211  0.2150
 3455TIP3    H110371   0.814   4.584   3.769  4.1447  2.1797  0.0955
 3455TIP3    H210372   0.777   4.719   3.712 -0.5861  0.6660 -0.8447
 3456TIP3   OH210373   6.055   2.868   0.687 -0.6335 -0.0507 -0.0607
 3456TIP3    H110374   6.018   2.812   0.619 -0.2225 -0.4670  0.0562
 3456TIP3    H210375   6.057   2.955   0.648  0.2430 -0.4059 -0.8312
 3457TIP3   OH210376   2.766   0.456   0.524  0.4296  0.0962 -0.1185
 3457TIP3    H110377   2.773   0.400   0.602 -0.0990 -1.0991 -0.9047
 3457TIP3    H210378   2.790   0.399   0.451  0.2645  1.0118 -0.9069
 3458TIP3   OH210379   2.701   1.444   4.285 -0.1804  0.4339  0.1533
 3458TIP3    H110380   2.692   1.408   4.373  0.0110 -1.0486 -0.4122
 3458TIP3    H210381   2.757   1.381   4.239  0.9601  1.9419 -0.6073
 3459TIP3   OH210382   4.633   1.366   5.048  0.0905 -0.1870 -0.2645
 3459TIP3    H110383   4.694   1.369   5.122 -0.4831 -1.3626  0.2914
 3459TIP3    H210384   4.688   1.377   4.971  0.9443 -0.6435  0.2618
 3460TIP3   OH210385   2.397   4.894   0.542  0.5810 -0.2480  0.6773
 3460TIP3    H110386   2.454   4.913   0.467 -0.8377  0.2118 -0.3401
 3460TIP3    H210387   2.348   4.976   0.555 -1.2049 -1.2060  0.2646
 3461TIP3   OH210388   1.797   1.410   1.291  0.2530 -0.0329  0.7700
 3461TIP3    H110389   1.769   1.434   1.380 -1.1887 -0.1156  0.3501
 3461TIP3    H210390   1.766   1.482   1.236 -0.0980 -0.6641  0.1387
 3462TIP3   OH210391   1.815   2.567   4.799 -0.2820  0.5276  0.1710
 3462TIP3    H110392   1.847   2.548   4.888  0.8794 -0.5841 -0.4528
 3462TIP3    H210393   1.832   2.660   4.786 -0.0467  0.5994  0.9377
 3463TIP3   OH210394   4.964   2.367   5.026  0.1972 -0.1468 -0.2950
 3463TIP3    H110395   5.008   2.331   5.102  0.9203  1.0892 -0.1099
 3463TIP3    H210396   5.009   2.328   4.951  1.2055  0.6179 -0.1023
 3464TIP3   OH210397   6.175   5.683   2.276 -0.0471  0.3653  0.5389
 3464TIP3    H110398   6.108   5.701   2.211 -0.8146 -0.1272  1.1756
 3464TIP3    H210399   6.257   5.684   2.227 -0.2339  3.1901  0.1135
 3465TIP3   OH210400   3.558   3.511   1.051  0.3914 -0.4492 -0.2028
 3465TIP3    H110401   3.564   3.534   0.958  0.4526 -1.6142 -0.5001
 3465TIP3    H210402   3.641   3.466   1.070 -0.2348 -1.5228  0.0393
 3466TIP3   OH210403   5.643   5.111   1.396 -0.1804 -0.1063 -0.3536
 3466TIP3    H110404   5.665   5.192   1.351  1.1605 -0.0531  0.3278
 3466TIP3    H210405   5.665   5.128   1.488  0.7251 -1.4103 -0.2896
 3467TIP3   OH210406   0.495   2.041   1.675 -0.0921  0.7195  0.2505
 3467TIP3    H110407   0.427   1.979   1.700 -1.2181  0.8785 -2.1928
 3467TIP3    H210408   0.466   2.077   1.591  2.9641  0.8578 -0.8710
 3468TIP3   OH210409   4.941   4.801   0.030  0.0175 -0.5556  0.2176
 3468TIP3    H110410   5.030   4.827   0.005 -0.6813  1.1296 -0.7149
 3468TIP3    H210411   4.889   4.879   0.013 -1.4803 -1.1838  1.7143
 3469TIP3   OH210412   0.242   4.904   1.369  0.0994  0.0786  0.3667
 3469TIP3    H110413   0.321   4.897   1.422  0.1718 -1.2259  0.1181
 3469TIP3    H210414   0.230   4.817   1.332 -0.5546  0.6739 -0.8973
 3470TIP3   OH210415   4.569   4.863   0.408 -0.2639 -0.1830 -0.2719
 3470TIP3    H110416   4.584   4.851   0.315 -0.7317  0.0965 -0.3848
 3470TIP3    H210417   4.557   4.774   0.442  0.8743 -0.3646 -0.3014
 3471TIP3   OH210418   6.063   4.037   5.015 -0.0114 -0.3610  0.1286
 3471TIP3    H110419   6.023   3.969   5.069 -0.3713  0.6383  1.1674
 3471TIP3    H210420   6.143   4.061   5.062  0.2249 -0.2113 -0.3409
 3472TIP3   OH210421   2.203   3.079   3.951  0.5438  0.2399 -0.1645
 3472TIP3    H110422   2.284   3.034   3.926  0.7747  1.2375 -1.3552
 3472TIP3    H210423   2.210   3.165   3.908 -2.0552 -0.3608 -2.0363
 3473TIP3   OH210424   1.889   4.410   3.748 -0.0844  0.4233 -0.0654
 3473TIP3    H110425   1.934   4.329   3.725  1.0862  0.3282  2.2696
 3473TIP3    H210426   1.797   4.385   3.757  0.3239 -0.7989  1.0627
 3474TIP3   OH210427   5.105   4.624   4.069  0.0490 -0.0212  0.0926
 3474TIP3    H110428   5.052   4.636   4.148  1.1021 -0.2854  0.8592
 3474TIP3    H210429   5.163   4.700   4.067  0.4716 -0.3438 -0.0693
 3475TIP3   OH210430   4.985   1.761   4.735 -0.0214 -0.5873 -0.0104
 3475TIP3    H110431   4.907   1.799   4.777  0.2172  1.7203 -1.4731
 3475TIP3    H210432   4.954   1.732   4.649  0.7541  0.7326 -0.7726
 3476TIP3   OH210433   4.235   4.859   0.906  0.2253 -0.7507  0.3897
 3476TIP3    H110434   4.258   4.842   0.815 -1.5770 -2.2082  0.1369
 3476TIP3    H210435   4.318   4.858   0.953  1.2094  0.2714 -1.2469
 3477TIP3   OH210436   6.089   3.079   2.160  0.0563 -0.6138 -0.3308
 3477TIP3    H110437   6.108   3.172   2.170  0.5622 -0.8743  1.3748
 3477TIP3    H210438   6.175   3.037   2.155 -0.1657 -1.0272 -0.7463
 3478TIP3   OH210439   5.185   0.191   3.978 -0.6179  0.1121  0.0992
 3478TIP3    H110440   5.104   0.228   3.944 -0.2516  0.7172 -0.1382
 3478TIP3    H210441   5.162   0.102   4.004 -0.5161 -1.0607 -3.3898
 3479TIP3   OH210442   3.060   2.109   0.170  0.2173 -0.5287 -0.3958
 3479TIP3    H110443   3.078   2.029   0.219  0.1703 -0.6110 -0.5138
 3479TIP3    H210444   3.067   2.084   0.078 -1.5981 -0.8484 -0.4885
 3480TIP3   OH210445   0.961   2.968   4.139  0.4569  0.2025 -0.0636
 3480TIP3    H110446   0.998   2.950   4.225  0.7519 -0.5417 -0.3437
 3480TIP3    H210447   0.937   3.061   4.143  0.9671  0.3166  0.6338
 3481TIP3   OH210448   2.760   3.482   1.442  0.1715  0.0601 -0.0513
 3481TIP3    H110449   2.671   3.447   1.435  0.2363 -1.1538  3.4008
 3481TIP3    H210450   2.759   3.534   1.523  2.8884 -1.0692  0.8153
 3482TIP3   OH210451   0.556   5.082   1.467 -0.2609 -0.8399 -0.3791
 3482TIP3    H110452   0.585   5.085   1.559  1.2276 -2.1919 -0.7464
 3482TIP3    H210453   0.541   4.989   1.451 -1.0036 -0.5566 -1.3851
 3483TIP3   OH210454   1.338   3.803   0.635 -0.6863  0.1571  0.5029
 3483TIP3    H110455   1.366   3.890   0.607 -1.0714 -0.5798 -2.5388
 3483TIP3    H210456   1.242   3.806   0.633 -0.7006 -0.4031  0.1330
 3484TIP3   OH210457   5.203   4.892   1.017  0.4955  1.0517 -0.6120
 3484TIP3    H110458   5.232   4.951   0.948 -0.3866  1.3236 -0.7746
 3484TIP3    H210459   5.144   4.831   0.972  1.6167 -0.1405 -0.5006
 3485TIP3   OH210460   4.746   3.859   2.241  0.2394  0.6966  0.2320
 3485TIP3    H110461   4.814   3.876   2.176  2.3243 -1.4946  1.6723
 3485TIP3    H210462   4.675   3.819   2.192  0.5926  1.6244 -1.0887
 3486TIP3   OH210463   1.973   3.222   4.528 -0.3926  0.2374  0.3960
 3486TIP3    H110464   1.958   3.283   4.456  0.0980 -0.2710 -0.1453
 3486TIP3    H210465   2.007   3.277   4.599 -0.6208  0.6977  0.1529
 3487TIP3   OH210466   5.925   5.918   4.538 -0.3391  0.4291 -0.0945
 3487TIP3    H110467   5.980   5.981   4.585  0.1746  1.6183 -2.1641
 3487TIP3    H210468   5.929   5.839   4.591  1.0101  1.3782  1.3194
 3488TIP3   OH210469   4.441   4.355   4.152 -0.5012 -0.3007  0.8645
 3488TIP3    H110470   4.351   4.343   4.183 -1.1130 -0.9135 -1.0280
 3488TIP3    H210471   4.472   4.266   4.135  0.3977 -0.0741  1.2661
 3489TIP3   OH210472   1.662   3.519   1.281  0.3783  0.8464 -0.2460
 3489TIP3    H110473   1.596   3.547   1.343  0.0876 -2.1334  0.9559
 3489TIP3    H210474   1.744   3.555   1.315  0.3262 -1.1835  2.3429
 3490TIP3   OH210475   1.165   2.336   3.970  0.0823 -0.9158  0.0636
 3490TIP3    H110476   1.189   2.314   3.880  0.3983 -1.4180  0.2671
 3490TIP3    H210477   1.088   2.392   3.962  0.0484 -1.0452 -0.5110
 3491TIP3   OH210478   2.571   5.069   3.545 -0.2356  0.7802  0.4406
 3491TIP3    H110479   2.586   5.096   3.454  0.6737  0.7100  0.5564
 3491TIP3    H210480   2.593   4.976   3.547 -0.4489  0.7348  0.6865
 3492TIP3   OH210481   0.706   1.887   1.590 -0.0338 -0.7673  0.8093
 3492TIP3    H110482   0.646   1.942   1.640 -0.3153 -0.4419  0.1207
 3492TIP3    H210483   0.786   1.886   1.642  0.6260  1.8020 -0.0470
 3493TIP3   OH210484   2.823   5.400   4.181 -0.0100 -0.3380  0.0643
 3493TIP3    H110485   2.742   5.384   4.133  0.1681  1.1800 -0.8067
 3493TIP3    H210486   2.858   5.481   4.143  1.4658 -0.4870  1.0192
 3494TIP3   OH210487   0.512   1.682   5.189 -0.1943 -0.5855 -0.0842
 3494TIP3    H110488   0.439   1.743   5.202  0.0155  0.3152 -2.6038
 3494TIP3    H210489   0.475   1.610   5.138  0.3687 -0.7731 -0.2364
 3495TIP3   OH210490   5.158   2.714   4.878 -0.2332  0.3155 -0.0148
 3495TIP3    H110491   5.105   2.692   4.955 -0.1366  0.6990  0.1636
 3495TIP3    H210492   5.249   2.700   4.906 -0.2745 -1.9971 -0.8393
 3496TIP3   OH210493   1.360   0.517   3.859 -0.2304  0.2180  0.1072
 3496TIP3    H110494   1.411   0.436   3.867 -1.7052 -0.8520 -0.7601
 3496TIP3    H210495   1.329   0.535   3.948  0.0194 -0.2150  0.2856
 3497TIP3   OH210496   0.795   4.872   0.953 -0.0883 -0.1868  0.6356
 3497TIP3    H110497   0.714   4.838   0.915  0.0717 -0.2804  0.3716
 3497TIP3    H210498   0.845   4.794   0.976  0.7273 -0.1805 -0.9247
 3498TIP3   OH210499   2.415   4.217   3.446  0.5583  0.1665 -0.5508
 3498TIP3    H110500   2.468   4.147   3.483  0.1966  0.7905  1.2439
 3498TIP3    H210501   2.366   4.176   3.374 -0.1486 -1.5913  0.8664
 3499TIP3   OH210502   1.973   5.332   1.300  0.0324  0.1276 -0.0579
 3499TIP3    H110503   1.916   5.265   1.264 -2.6121  0.0885  3.6620
 3499TIP3    H210504   2.033   5.284   1.358 -0.1345  0.7177  0.6162
 3500TIP3   OH210505   4.892   0.119   2.477 -0.5391  0.3400 -0.6766
 3500TIP3    H110506   4.904   0.201   2.430 -2.4125 -0.1779 -2.1668
 3500TIP3    H210507   4.981   0.092   2.500  0.1824  2.2672 -1.0145
 3501TIP3   OH210508   3.077   1.640   0.255  0.2433 -0.5675 -0.1914
 3501TIP3    H110509   3.029   1.577   0.310 -1.1066  0.8162  0.3137
 3501TIP3    H210510   3.063   1.609   0.165 -0.3201 -1.0346  0.0478
 3502TIP3   OH210511   3.656   0.647   1.556  0.0140 -0.1982 -0.1936
 3502TIP3    H110512   3.563   0.661   1.539  0.3288  2.3046 -0.2242
 3502TIP3    H210513   3.661   0.628   1.650 -0.4454  0.8111  0.0438
 3503TIP3   OH210514   3.741   1.811   4.583  0.2783  0.0532  0.3315
 3503TIP3    H110515   3.704   1.894   4.552  0.5589  0.0082 -0.1340
 3503TIP3    H210516   3.731   1.751   4.509 -1.5489 -0.8668  1.2507
 3504TIP3   OH210517   0.826   1.921   0.702  0.6630 -0.0882 -0.3406
 3504TIP3    H110518   0.912   1.917   0.661  0.7094 -0.7268 -0.1887
 3504TIP3    H210519   0.807   2.015   0.709  1.3205  0.0518 -0.4161
 3505TIP3   OH210520   0.333   2.039   3.183 -0.4287  0.0597  0.3730
 3505TIP3    H110521   0.307   2.120   3.139  0.2409  0.9153  1.4787
 3505TIP3    H210522   0.393   1.996   3.122  1.3611  1.7671  0.8185
 3506TIP3   OH210523   2.798   2.516   4.548 -0.2111 -0.0321 -0.3220
 3506TIP3    H110524   2.734   2.467   4.496  0.3863 -0.4740 -0.6407
 3506TIP3    H210525   2.802   2.469   4.631  0.2772 -0.4723 -0.5867
 3507TIP3   OH210526   2.001   0.271   0.608 -0.0527  0.2166 -1.0602
 3507TIP3    H110527   1.925   0.314   0.570  0.0066  1.1884 -0.1372
 3507TIP3    H210528   2.061   0.342   0.630  0.3633 -0.3852 -0.1568
 3508TIP3   OH210529   5.944   5.728   2.078  0.7473  0.4024  0.3797
 3508TIP3    H110530   5.879   5.712   2.147  1.1328  0.9433  0.8792
 3508TIP3    H210531   5.918   5.669   2.007  0.6012 -0.4971  1.1592
 3509TIP3   OH210532   2.329   4.784   4.481  0.1682  0.1863 -0.2225
 3509TIP3    H110533   2.245   4.813   4.448  0.0351  1.5036  1.1794
 3509TIP3    H210534   2.365   4.730   4.411 -1.6360 -0.0482 -1.0153
 3510TIP3   OH210535   4.179   5.339   0.725 -0.0234  0.1843 -0.4175
 3510TIP3    H110536   4.140   5.257   0.694 -1.1777  0.0550  1.2041
 3510TIP3    H210537   4.121   5.366   0.797  1.2913  1.5391  0.1681
 3511TIP3   OH210538  -0.021   0.030   4.671 -0.0752  0.2019 -0.4152
 3511TIP3    H110539   0.017   0.009   4.586  0.2950 -3.5988  0.5114
 3511TIP3    H210540   0.039   0.094   4.709  2.1398 -1.1494 -1.4164
 3512TIP3   OH210541   3.155   3.612   2.476  0.2267 -0.0738  0.5416
 3512TIP3    H110542   3.192   3.600   2.563 -0.1747 -1.2585  0.5745
 3512TIP3    H210543   3.228   3.593   2.416  0.3960  0.3418  0.6150
 3513TIP3   OH210544   0.963   5.720   4.938  0.4533  0.1399 -0.2370
 3513TIP3    H110545   1.025   5.788   4.911  0.6933 -0.2225 -0.6172
 3513TIP3    H210546   0.891   5.726   4.875  2.0797 -2.2532 -2.5784
 3514TIP3   OH210547   3.057   3.487   4.729  0.1977 -0.4792  0.0351
 3514TIP3    H110548   2.980   3.544   4.722  1.5338  1.3065 -0.7081
 3514TIP3    H210549   3.023   3.399   4.712 -1.5156  0.3775 -1.2592
 3515TIP3   OH210550   3.081   4.736   5.117  0.0435  0.0017  0.5051
 3515TIP3    H110551   3.144   4.681   5.163 -1.5602 -1.8499  0.6174
 3515TIP3    H210552   3.082   4.819   5.165 -0.4130 -1.3123  2.9321
 3516TIP3   OH210553   4.097   4.323   2.821  0.1635  0.6257  0.0122
 3516TIP3    H110554   4.159   4.305   2.891 -0.2244 -1.4643 -0.1183
 3516TIP3    H210555   4.051   4.240   2.808 -1.8964  1.7835 -0.6447
 3517TIP3   OH210556   3.023   5.114   1.799  0.2923  0.1668  0.4134
 3517TIP3    H110557   3.108   5.158   1.807 -0.0925  0.8763  0.6384
 3517TIP3    H210558   2.961   5.184   1.781 -0.0911 -0.4737 -0.8793
 3518TIP3   OH210559   4.240   5.215   1.325 -0.2580 -0.0573 -0.0115
 3518TIP3    H110560   4.174   5.261   1.274 -1.8128 -1.2855  0.7728
 3518TIP3    H210561   4.232   5.252   1.413 -0.3534 -0.6508  0.2335
 3519TIP3   OH210562   2.498   3.025   3.274  0.5947  0.2491  0.4964
 3519TIP3    H110563   2.504   3.066   3.361  0.0275 -1.4548  1.3932
 3519TIP3    H210564   2.587   3.031   3.239  0.3066  3.2685  0.0206
 3520TIP3   OH210565   3.400   3.124   1.025  0.0206  0.1884 -0.0826
 3520TIP3    H110566   3.321   3.092   0.981  0.0736  0.5773 -0.4666
 3520TIP3    H210567   3.458   3.048   1.029  0.4489  0.3933 -1.6712
 3521TIP3   OH210568   5.467   3.202   2.273  0.1416 -0.6150 -0.1526
 3521TIP3    H110569   5.418   3.120   2.286  0.2620 -0.6485  0.0942
 3521TIP3    H210570   5.454   3.251   2.354  1.7103 -1.2571  0.5182
 3522TIP3   OH210571   2.251   3.906   2.668 -0.0138 -0.2055  0.2162
 3522TIP3    H110572   2.225   3.833   2.613  1.1562 -1.4582  1.2522
 3522TIP3    H210573   2.250   3.871   2.757 -1.5943  1.6934  1.0092
 3523TIP3   OH210574   1.502   2.614   0.793 -0.2509  0.3170 -0.2786
 3523TIP3    H110575   1.564   2.683   0.816 -0.3677  0.6349 -0.8952
 3523TIP3    H210576   1.422   2.661   0.769 -0.2321 -0.0165 -1.0056
 3524TIP3   OH210577   3.582   4.992   1.841 -0.2954 -0.0514  0.1462
 3524TIP3    H110578   3.621   4.909   1.871 -0.0935 -0.2143 -0.5486
 3524TIP3    H210579   3.591   4.989   1.746 -0.7549  0.5443  0.0839
 3525TIP3   OH210580   5.140   0.761   1.305 -0.6503 -0.0973 -0.1263
 3525TIP3    H110581   5.220   0.812   1.319 -0.2583 -0.9191  0.7526
 3525TIP3    H210582   5.123   0.720   1.390 -1.6056 -0.5086 -0.5065
 3526TIP3   OH210583   3.847   4.764   4.769  0.6067 -0.4030  0.2849
 3526TIP3    H110584   3.877   4.842   4.816 -1.2730 -0.0107  0.8789
 3526TIP3    H210585   3.848   4.694   4.835 -1.6116  0.0508  0.8503
 3527TIP3   OH210586   5.338   5.641   3.053 -0.4511 -0.0526 -0.2797
 3527TIP3    H110587   5.292   5.643   3.137  0.3452  0.8941  0.1617
 3527TIP3    H210588   5.373   5.552   3.047 -1.8324 -0.6155 -0.3670
 3528TIP3   OH210589   0.797   5.094   0.198 -0.1095 -0.3695  0.1384
 3528TIP3    H110590   0.828   5.156   0.263 -0.0489 -0.3692  0.1095
 3528TIP3    H210591   0.853   5.109   0.122 -0.8606  0.3863 -0.3018
 3529TIP3   OH210592   5.692   5.291   0.395  0.0667  0.3103 -0.0279
 3529TIP3    H110593   5.654   5.246   0.471 -0.4996 -0.8498 -0.9536
 3529TIP3    H210594   5.622   5.349   0.364 -0.3760 -0.5481 -0.7016
 3530TIP3   OH210595   5.678   2.013   1.099 -0.2129 -0.3558 -0.0535
 3530TIP3    H110596   5.612   2.082   1.100  0.2884  0.1397 -0.4079
 3530TIP3    H210597   5.761   2.059   1.109  0.1950 -0.8166 -1.1721
 3531TIP3   OH210598   6.206   1.785   5.022 -0.2047  0.3504 -0.5318
 3531TIP3    H110599   6.178   1.877   5.021  0.2938  0.5288 -2.4381
 3531TIP3    H210600   6.279   1.783   5.084 -1.7923  0.6855  1.4439
 3532TIP3   OH210601   1.987   4.748   2.430  0.3296 -0.0697 -0.3770
 3532TIP3    H110602   2.045   4.735   2.356 -0.7105 -1.7910 -0.9450
 3532TIP3    H210603   1.900   4.753   2.392 -0.0061  1.5549  0.5365
 3533TIP3   OH210604   5.097   3.430   5.018 -0.1484 -0.1655 -0.0151
 3533TIP3    H110605   5.091   3.335   5.024 -0.7421 -0.1720 -0.5571
 3533TIP3    H210606   5.116   3.447   4.925 -0.9916  0.2637 -0.1283
 3534TIP3   OH210607   4.990   3.435   0.412 -0.3340 -0.6263 -0.3945
 3534TIP3    H110608   5.019   3.473   0.495 -1.1521 -0.5872 -0.1092
 3534TIP3    H210609   4.971   3.343   0.433 -1.0643 -0.4851 -0.3941
 3535TIP3   OH210610   1.192   1.198   3.600 -0.1889  0.3161 -0.3878
 3535TIP3    H110611   1.188   1.154   3.685 -0.2399  2.1307  0.5873
 3535TIP3    H210612   1.205   1.126   3.537 -3.4475 -1.4612  0.7323
 3536TIP3   OH210613   1.817   4.459   3.140 -0.3257  0.2011  0.6269
 3536TIP3    H110614   1.906   4.495   3.139 -0.5393  0.7388 -0.0805
 3536TIP3    H210615   1.770   4.509   3.073 -0.7557 -1.1082 -0.0810
 3537TIP3   OH210616   0.281   3.671   1.457 -0.3873  0.5836 -0.6913
 3537TIP3    H110617   0.369   3.634   1.464 -0.3542  0.8502  0.5092
 3537TIP3    H210618   0.232   3.608   1.404  0.2735 -0.0395 -0.5656
 3538TIP3   OH210619   4.726   1.728   1.804  0.2304 -0.3423 -0.1258
 3538TIP3    H110620   4.734   1.820   1.780 -0.8220 -0.4234 -0.8987
 3538TIP3    H210621   4.743   1.726   1.898 -0.1018  0.7042 -0.0242
 3539TIP3   OH210622   1.239   4.647   2.786  0.0824 -0.2017 -0.0320
 3539TIP3    H110623   1.276   4.632   2.873  0.2464 -3.2401 -0.5225
 3539TIP3    H210624   1.155   4.689   2.803  1.8621  3.3239  1.2725
 3540TIP3   OH210625   1.152   3.242   4.077 -0.0280  0.8867  0.2981
 3540TIP3    H110626   1.197   3.159   4.066 -1.0016  0.4382 -0.3627
 3540TIP3    H210627   1.170   3.291   3.997 -0.4446  0.8394  0.1757
 3541TIP3   OH210628   0.039   2.151   0.432  0.0241  0.4850 -0.2042
 3541TIP3    H110629   0.036   2.217   0.363 -1.8790 -0.1760 -0.8098
 3541TIP3    H210630  -0.053   2.137   0.456  0.5959  0.4970  2.2974
 3542TIP3   OH210631   1.933   3.561   5.121 -0.2125  0.0998  0.2890
 3542TIP3    H110632   1.962   3.484   5.170  1.5125  0.3180 -0.2959
 3542TIP3    H210633   1.987   3.633   5.156 -1.2149  0.8905  0.2654
 3543TIP3   OH210634   1.680   5.542   4.039 -0.0348  0.3857 -0.2014
 3543TIP3    H110635   1.729   5.501   4.110 -2.2766  0.4689  1.4930
 3543TIP3    H210636   1.609   5.480   4.021 -0.5083  1.1881 -1.1897
 3544TIP3   OH210637   3.060   4.869   2.273  0.0410 -0.5306  0.6490
 3544TIP3    H110638   2.990   4.807   2.250 -1.0145  0.4397  1.1144
 3544TIP3    H210639   3.140   4.828   2.242 -0.8978 -1.0145 -1.2631
 3545TIP3   OH210640   5.113   0.146   2.226  0.0015 -0.1049  0.4064
 3545TIP3    H110641   5.125   0.196   2.306  2.7477  1.9286 -1.0798
 3545TIP3    H210642   5.054   0.200   2.172  1.4291  0.6702 -0.4495
 3546TIP3   OH210643   1.167   1.615   2.201  0.7069 -0.0876  0.5975
 3546TIP3    H110644   1.165   1.701   2.160  0.6946 -1.0167 -1.4945
 3546TIP3    H210645   1.078   1.581   2.190  1.2648 -1.2461 -0.7392
 3547TIP3   OH210646   0.420   0.598   0.141  0.2453  0.2324 -0.4578
 3547TIP3    H110647   0.394   0.690   0.144 -0.5464 -0.0146  0.4118
 3547TIP3    H210648   0.409   0.567   0.231 -0.2433 -0.9189 -0.9048
 3548TIP3   OH210649   2.482   2.535   1.922 -0.1919 -0.1298 -0.8585
 3548TIP3    H110650   2.480   2.550   1.828  0.2357 -0.7059 -0.9658
 3548TIP3    H210651   2.396   2.565   1.953 -0.1885  0.4118 -1.3719
 3549TIP3   OH210652   0.699   5.868   1.642  0.5374 -0.2011  0.3149
 3549TIP3    H110653   0.702   5.885   1.547  0.6680 -0.2835  0.3042
 3549TIP3    H210654   0.608   5.886   1.666  0.2125 -1.2905 -0.0294
 3550TIP3   OH210655   1.336   5.712   3.402  0.1905  0.5998 -0.0885
 3550TIP3    H110656   1.405   5.779   3.401  0.7358  0.0669  0.6879
 3550TIP3    H210657   1.328   5.687   3.494  0.9250 -1.3104 -0.4929
 3551TIP3   OH210658   2.161   4.715   5.075  0.2979 -0.8101 -0.0355
 3551TIP3    H110659   2.245   4.684   5.108  0.8363  2.4259  2.1024
 3551TIP3    H210660   2.100   4.705   5.148  0.4193  2.4036  0.6606
 3552TIP3   OH210661   0.938   2.554   5.139 -0.1416  0.1629 -0.4600
 3552TIP3    H110662   0.872   2.505   5.188 -0.7835 -0.3551 -1.8076
 3552TIP3    H210663   1.011   2.493   5.130  1.0032  1.0605  1.8921
 3553TIP3   OH210664   5.388   4.976   0.240  0.5282  0.4969  0.6528
 3553TIP3    H110665   5.457   4.985   0.173 -0.9955  1.4526 -0.8768
 3553TIP3    H210666   5.360   4.885   0.233  1.5378  0.1226  1.2268
 3554TIP3   OH210667   4.771   0.206   0.331  0.1104  0.1091 -0.0025
 3554TIP3    H110668   4.710   0.221   0.259 -2.0925 -2.6491  1.0655
 3554TIP3    H210669   4.834   0.142   0.297 -0.8070 -1.0346  0.3529
 3555TIP3   OH210670   5.170   5.154   4.945 -0.3477  0.7672 -0.0843
 3555TIP3    H110671   5.194   5.231   4.997 -1.2862  2.4409 -1.9976
 3555TIP3    H210672   5.249   5.132   4.896 -0.6263  1.8615 -1.0799
 3556TIP3   OH210673   3.611   1.645   0.178  0.2362 -0.3417 -0.1727
 3556TIP3    H110674   3.564   1.706   0.120  0.5191 -0.3891 -0.4571
 3556TIP3    H210675   3.555   1.568   0.182  0.0626 -0.2135 -0.1279
 3557TIP3   OH210676   0.765   2.792   2.541 -0.2158  0.2525  0.4707
 3557TIP3    H110677   0.726   2.771   2.456  0.4824 -1.3652  0.5096
 3557TIP3    H210678   0.859   2.802   2.523 -0.2292  1.2033  0.8520
 3558TIP3   OH210679   2.512   4.773   3.578 -0.5443  0.7471  0.1449
 3558TIP3    H110680   2.464   4.743   3.656 -0.6596  0.6826  0.0493
 3558TIP3    H210681   2.444   4.788   3.513 -0.3409 -0.5326 -0.3906
 3559TIP3   OH210682   1.722   0.608   1.431  1.1775  0.3574 -0.4740
 3559TIP3    H110683   1.702   0.544   1.500  0.4254  1.9497  0.8598
 3559TIP3    H210684   1.643   0.613   1.379  1.1408  0.4020 -0.4139
 3560TIP3   OH210685   1.319   2.458   2.109 -0.7014  0.1349  0.7588
 3560TIP3    H110686   1.315   2.546   2.073  0.0668  0.2582  0.9601
 3560TIP3    H210687   1.270   2.464   2.191  2.3781  1.3749  2.7105
 3561TIP3   OH210688   2.223   1.725   0.576 -0.0485 -0.1271  0.1257
 3561TIP3    H110689   2.276   1.708   0.654  1.7739 -1.2641 -1.2747
 3561TIP3    H210690   2.287   1.740   0.507 -1.6112  1.5332 -1.0629
 3562TIP3   OH210691   6.189   2.629   2.297  0.0255 -0.0279  0.0629
 3562TIP3    H110692   6.178   2.600   2.207 -2.9015 -0.0899  0.3572
 3562TIP3    H210693   6.159   2.555   2.350  0.9797  0.2915  1.0980
 3563TIP3   OH210694   5.342   2.564   0.893 -0.4060  0.0272  0.7921
 3563TIP3    H110695   5.334   2.657   0.870  0.1928 -0.4028 -1.3661
 3563TIP3    H210696   5.364   2.521   0.811  2.8511 -1.6084  2.3514
 3564TIP3   OH210697   1.152   4.668   1.636 -0.4874  0.6463  0.3423
 3564TIP3    H110698   1.083   4.716   1.681 -1.0918  0.8972 -0.8046
 3564TIP3    H210699   1.110   4.587   1.606 -0.1641  0.5873  0.0365
 3565TIP3   OH210700   4.177   5.878   2.626 -0.2733 -0.5028  0.3670
 3565TIP3    H110701   4.154   5.818   2.697 -0.0142 -1.1800 -0.1052
 3565TIP3    H210702   4.273   5.885   2.630 -0.1313 -1.5294 -0.6651
 3566TIP3   OH210703   3.812   4.432   1.751 -0.1032 -0.2611  0.2442
 3566TIP3    H110704   3.814   4.336   1.746 -0.5602 -0.3210  1.0143
 3566TIP3    H210705   3.859   4.453   1.832  2.0492  0.3145 -1.0872
 3567TIP3   OH210706   4.011   1.868   2.940 -0.6653 -0.4184 -0.4158
 3567TIP3    H110707   4.014   1.873   3.036  0.5225 -1.6346 -0.3663
 3567TIP3    H210708   3.946   1.801   2.921 -2.5097  1.3108 -0.5678
 3568TIP3   OH210709   1.347   5.603   2.309 -0.0302 -0.0341  0.3769
 3568TIP3    H110710   1.303   5.517   2.315  0.6872 -0.4778 -0.4699
 3568TIP3    H210711   1.392   5.613   2.393  0.7043 -0.9634  0.1148
 3569TIP3   OH210712   6.253   2.505   2.071 -0.1677  0.2377  0.2670
 3569TIP3    H110713   6.330   2.501   2.015 -0.1553  0.6478  0.2527
 3569TIP3    H210714   6.215   2.418   2.066 -0.1885  0.2820 -0.4064
 3570TIP3   OH210715   3.340   2.174   4.590  0.1089 -0.1285 -0.2189
 3570TIP3    H110716   3.382   2.171   4.504 -0.6125 -0.3805 -0.5707
 3570TIP3    H210717   3.389   2.112   4.643  0.8757  0.3954 -0.2953
 3571TIP3   OH210718   2.947   2.479   1.283  0.1623  0.0057 -0.5135
 3571TIP3    H110719   3.001   2.493   1.205  2.0763 -0.3267  0.6850
 3571TIP3    H210720   2.897   2.400   1.263  1.1665 -0.4935 -1.1682
 3572TIP3   OH210721   5.379   2.122   4.002  0.7861  0.6267 -0.1825
 3572TIP3    H110722   5.326   2.165   3.934 -1.2202 -2.1333 -0.5352
 3572TIP3    H210723   5.420   2.048   3.957 -0.5463 -1.2469  1.5513
 3573TIP3   OH210724   5.156   4.760   2.686 -0.4716  0.1246 -0.4316
 3573TIP3    H110725   5.091   4.713   2.634 -0.8651  0.0568  0.1052
 3573TIP3    H210726   5.187   4.830   2.629  0.7056 -1.2441 -1.5272
 3574TIP3   OH210727   5.096   4.304   4.411 -0.6015  0.1270  0.4509
 3574TIP3    H110728   5.191   4.318   4.416 -0.4698  0.3405 -1.7035
 3574TIP3    H210729   5.059   4.373   4.466  0.4816 -0.0624  1.4498
 3575TIP3   OH210730   3.165   2.394   4.579 -0.2596  0.5659  0.2148
 3575TIP3    H110731   3.215   2.313   4.591  1.0299  1.1844 -0.7683
 3575TIP3    H210732   3.073   2.366   4.584  0.1628 -0.9298  0.0726
 3576TIP3   OH210733   0.908   5.791   4.330  0.6167  0.2441  0.6571
 3576TIP3    H110734   0.833   5.733   4.318  0.4940 -0.0111  2.4362
 3576TIP3    H210735   0.937   5.812   4.241 -1.3993  0.1627 -0.0533
 3577TIP3   OH210736   2.692   4.961   2.346  0.1943  0.0163 -0.4530
 3577TIP3    H110737   2.758   5.008   2.397 -0.1478 -1.0179  1.0281
 3577TIP3    H210738   2.609   4.999   2.374  0.0219 -0.3170 -0.5104
 3578TIP3   OH210739   0.332   3.436   0.615 -0.0608  0.5525 -0.3763
 3578TIP3    H110740   0.417   3.395   0.600 -0.0577  0.5642 -0.3912
 3578TIP3    H210741   0.300   3.397   0.697 -0.4910 -0.1863 -0.8835
 3579TIP3   OH210742   4.289   2.345   3.520  0.5718 -0.4012 -0.3149
 3579TIP3    H110743   4.291   2.254   3.549 -1.0311  0.1152  1.6328
 3579TIP3    H210744   4.200   2.357   3.487  0.7452  0.4802 -0.4878
 3580TIP3   OH210745   3.148   4.786   0.045  0.1413 -0.0500 -0.2787
 3580TIP3    H110746   3.053   4.781   0.053  0.1553 -2.9277 -0.7984
 3580TIP3    H210747   3.182   4.739   0.121  1.1281  0.3585 -0.4430
 3581TIP3   OH210748   0.796   3.272   1.311  0.3390 -0.0231 -0.3773
 3581TIP3    H110749   0.792   3.255   1.217 -0.8478  0.2374 -0.3876
 3581TIP3    H210750   0.853   3.349   1.319 -1.4350  1.4216 -1.1089
 3582TIP3   OH210751   0.376   4.508   1.850 -0.4640 -0.0422 -0.2048
 3582TIP3    H110752   0.285   4.480   1.838 -0.0739 -0.2177 -3.9535
 3582TIP3    H210753   0.428   4.443   1.803  1.1071  2.6771 -2.5671
 3583TIP3   OH210754   0.449   3.145   2.597 -0.3743  0.2672 -0.2631
 3583TIP3    H110755   0.404   3.219   2.556  0.0018  0.8430  0.3528
 3583TIP3    H210756   0.539   3.150   2.565  0.0865  1.0934  1.0911
 3584TIP3   OH210757   2.047   1.179   4.483 -0.4768 -0.2193  0.5542
 3584TIP3    H110758   1.986   1.252   4.484 -0.8577 -0.5249  1.6557
 3584TIP3    H210759   2.036   1.139   4.397  1.2965  2.2415 -0.9549
 3585TIP3   OH210760   0.049   5.368   0.792  0.0399  0.2934 -0.1758
 3585TIP3    H110761  -0.033   5.415   0.805 -0.0024  0.5376 -1.2081
 3585TIP3    H210762   0.023   5.280   0.766  0.0198  0.8800 -2.4093
 3586TIP3   OH210763   4.700   2.589   3.700 -0.0288 -0.5384  0.1019
 3586TIP3    H110764   4.644   2.583   3.777 -2.1519  0.5515 -1.2455
 3586TIP3    H210765   4.684   2.508   3.652  1.5813 -1.3888  0.9436
 3587TIP3   OH210766   3.749   5.282   0.071 -0.4165  0.4276 -0.0812
 3587TIP3    H110767   3.720   5.195   0.097  0.3860 -0.0788 -0.8236
 3587TIP3    H210768   3.823   5.301   0.129 -0.0075  0.2152 -0.5247
 3588TIP3   OH210769   2.279   5.212   0.831 -0.6856  0.0420  0.2356
 3588TIP3    H110770   2.363   5.167   0.843 -0.6214  0.4218  1.3352
 3588TIP3    H210771   2.214   5.143   0.840 -0.6342  0.2355  2.8614
 3589TIP3   OH210772   4.549   3.247   3.692  0.4186  0.1837  0.3118
 3589TIP3    H110773   4.507   3.289   3.767 -1.0540 -1.0671  0.2339
 3589TIP3    H210774   4.538   3.153   3.708  1.5630 -0.1407 -0.6647
 3590TIP3   OH210775   1.302   1.973   3.904 -0.0215  0.5494 -0.1589
 3590TIP3    H110776   1.391   1.974   3.870 -0.0333  0.2639 -0.2063
 3590TIP3    H210777   1.312   1.993   3.997  0.1912 -0.3792  0.0307
 3591TIP3   OH210778   4.592   3.277   4.681  0.2265  0.2063 -0.4325
 3591TIP3    H110779   4.545   3.296   4.600  1.1267  1.3711 -0.7179
 3591TIP3    H210780   4.548   3.330   4.748 -0.3172 -0.5061 -0.2268
 3592TIP3   OH210781   3.026   5.612   3.488  0.1324 -0.2884  0.2547
 3592TIP3    H110782   2.940   5.588   3.452  0.4610  0.9307 -1.4933
 3592TIP3    H210783   3.009   5.690   3.541 -0.1901 -1.5039  2.0293
 3593TIP3   OH210784   3.736   4.251   3.594 -0.9031 -0.2313  0.0156
 3593TIP3    H110785   3.761   4.175   3.646 -1.0778  0.0689  0.5494
 3593TIP3    H210786   3.669   4.219   3.534 -1.0535 -0.4683  0.3130
 3594TIP3   OH210787   5.617   4.141   3.727 -0.0782  0.5789  0.7491
 3594TIP3    H110788   5.653   4.224   3.757 -0.3767  1.5655 -1.4145
 3594TIP3    H210789   5.672   4.116   3.653 -1.5064  0.1820 -0.2287
 3595TIP3   OH210790   4.958   2.612   0.432  0.3600  0.1633 -0.3714
 3595TIP3    H110791   5.034   2.634   0.486  1.0092 -1.4569 -0.5697
 3595TIP3    H210792   4.982   2.530   0.389 -1.8689 -0.9069  0.2908
 3596TIP3   OH210793   3.681   1.653   0.988  0.5594  0.6456  0.6814
 3596TIP3    H110794   3.585   1.651   0.984  0.4779  1.6029  1.6299
 3596TIP3    H210795   3.705   1.729   0.935  0.7052  1.0618  1.3242
 3597TIP3   OH210796   3.774   5.522   4.942 -0.2736 -0.0633 -0.0020
 3597TIP3    H110797   3.700   5.567   4.982  1.5860  1.4018  2.0539
 3597TIP3    H210798   3.772   5.549   4.850 -1.5845  0.9085  0.2865
 3598TIP3   OH210799   5.419   3.957   1.458 -0.0872  0.1095  0.0950
 3598TIP3    H110800   5.351   3.925   1.398  1.3818 -1.2041 -0.9460
 3598TIP3    H210801   5.424   4.051   1.441 -0.6558 -0.0163 -0.8471
 3599TIP3   OH210802   0.194   2.420   0.427  0.6333  0.1203  0.6172
 3599TIP3    H110803   0.178   2.460   0.512 -2.1221  1.2108 -0.2704
 3599TIP3    H210804   0.222   2.331   0.446  0.1391  0.3575  2.6695
 3600TIP3   OH210805   1.034   4.127   2.574  0.4412  0.3423  0.4134
 3600TIP3    H110806   0.986   4.073   2.511 -0.7110  1.1348  0.5764
 3600TIP3    H210807   1.072   4.063   2.635  0.8008 -0.3796 -0.5426
 3601TIP3   OH210808   5.151   0.117   4.681 -0.6836 -0.5323 -0.0373
 3601TIP3    H110809   5.172   0.117   4.588  0.9593 -0.4055  0.2976
 3601TIP3    H210810   5.081   0.182   4.690 -1.7002 -1.4088 -1.3247
 3602TIP3   OH210811   5.492  -0.033   0.363  0.2465  0.2138 -0.1793
 3602TIP3    H110812   5.472   0.007   0.448  0.3489 -0.4581  0.1678
 3602TIP3    H210813   5.494   0.040   0.302  0.3323  0.7258  0.4301
 3603TIP3   OH210814   5.642   5.534   3.297 -0.5822  0.5156  0.0275
 3603TIP3    H110815   5.621   5.621   3.262 -1.0905  0.3436 -0.1058
 3603TIP3    H210816   5.702   5.551   3.370  0.6611  0.8659 -1.0530
 3604TIP3   OH210817   4.928   0.775   3.316 -0.0129  0.5906 -0.0841
 3604TIP3    H110818   4.974   0.856   3.337 -1.5300  0.8868  2.3957
 3604TIP3    H210819   4.836   0.801   3.305  0.0666 -0.1563 -3.8295
 3605TIP3   OH210820   0.386   4.912   4.099 -0.0643 -1.1074 -0.7110
 3605TIP3    H110821   0.346   4.997   4.081 -0.2640 -0.7677  1.1533
 3605TIP3    H210822   0.336   4.850   4.046 -1.6317 -0.3999 -0.1038
 3606TIP3   OH210823   4.787   2.378   1.103 -0.4981  0.3607  0.0010
 3606TIP3    H110824   4.873   2.407   1.071 -0.6754 -0.9931 -1.8609
 3606TIP3    H210825   4.776   2.424   1.186  0.8652  2.6129 -0.9661
 3607TIP3   OH210826   1.536   5.511   0.395  0.1034  0.0663  0.1101
 3607TIP3    H110827   1.501   5.454   0.326  1.6827 -1.0153  0.1492
 3607TIP3    H210828   1.490   5.594   0.383 -1.2431 -0.7729 -0.8431
 3608TIP3   OH210829   4.423   5.522   5.142  0.1671 -0.2683 -0.0145
 3608TIP3    H110830   4.424   5.509   5.236 -0.4140  0.0553  0.0401
 3608TIP3    H210831   4.343   5.571   5.125 -0.5533 -1.6840 -0.8697
 3609TIP3   OH210832   3.142   0.608   0.033  0.3623  0.3008  0.1889
 3609TIP3    H110833   3.069   0.590  -0.027  1.3608  0.4260 -1.1105
 3609TIP3    H210834   3.149   0.529   0.086 -0.8053  0.3438  0.4453
 3610TIP3   OH210835   3.623   1.856   2.690 -0.2643  0.4071  0.5634
 3610TIP3    H110836   3.695   1.805   2.651  0.2611 -1.1546  3.3275
 3610TIP3    H210837   3.665   1.934   2.725 -0.1123  0.1329  1.0069
 3611TIP3   OH210838   1.002   4.219   2.035 -0.0332 -0.1721 -0.3032
 3611TIP3    H110839   0.957   4.299   2.006 -0.4430 -0.5217 -0.6555
 3611TIP3    H210840   0.931   4.161   2.063  0.1515 -0.8795 -1.2288
 3612TIP3   OH210841   0.530   0.181   2.862  1.0029 -0.8631 -0.6620
 3612TIP3    H110842   0.485   0.215   2.939  0.7609  1.1831 -1.6538
 3612TIP3    H210843   0.575   0.257   2.824  0.5565 -1.6452 -2.9140
 3613TIP3   OH210844   0.306   0.375   1.898 -0.3139  0.0291 -0.0750
 3613TIP3    H110845   0.266   0.461   1.884  1.1435  0.8184  0.3727
 3613TIP3    H210846   0.343   0.352   1.813 -1.7277 -0.7366 -0.5094
 3614TIP3   OH210847   0.039   4.833   2.542  0.0648  0.4103  0.1377
 3614TIP3    H110848   0.111   4.783   2.504 -0.6821  0.3143 -1.2068
 3614TIP3    H210849  -0.039   4.778   2.529 -0.3718  0.8134  0.9400
 3615TIP3   OH210850   3.624   5.389   2.052 -0.4111  0.1747 -0.5888
 3615TIP3    H110851   3.597   5.365   1.963  0.7071  1.5900 -1.3503
 3615TIP3    H210852   3.703   5.441   2.040 -0.3695  0.6060  1.2367
 3616TIP3   OH210853   2.719   1.046   0.513 -0.4062  0.3245 -0.0693
 3616TIP3    H110854   2.624   1.040   0.522 -0.5173  0.1774 -1.2631
 3616TIP3    H210855   2.753   0.988   0.581 -1.1562  0.6066  0.5667
 3617TIP3   OH210856   5.906   0.509   1.912  0.3692  0.1340 -0.1232
 3617TIP3    H110857   5.891   0.501   1.818  0.6816  0.6524 -0.2224
 3617TIP3    H210858   5.993   0.472   1.926 -0.3042 -1.3877  0.2088
 3618TIP3   OH210859   5.595   3.507   1.665 -0.1121 -0.5685 -0.0631
 3618TIP3    H110860   5.665   3.572   1.673 -1.3635  1.0181 -1.3015
 3618TIP3    H210861   5.634   3.438   1.611  1.0500 -0.5810  0.7505
 3619TIP3   OH210862   0.666   0.589   0.012  0.1049  0.0797  0.4580
 3619TIP3    H110863   0.665   0.669  -0.041  2.9498 -0.9459 -1.4062
 3619TIP3    H210864   0.592   0.599   0.072 -0.8180  3.2010 -0.9705
 3620TIP3   OH210865   1.852   4.983   2.829  0.2437  0.5061 -0.0845
 3620TIP3    H110866   1.837   4.967   2.735  0.3953 -0.8730  0.1025
 3620TIP3    H210867   1.939   5.022   2.833  0.8026 -0.6308 -0.4556
 3621TIP3   OH210868   1.156  -0.006   3.483  0.3262 -0.3223 -0.1654
 3621TIP3    H110869   1.131   0.068   3.538  0.6382 -1.7584  2.0359
 3621TIP3    H210870   1.240   0.019   3.444  1.0864 -0.0139  1.6059
 3622TIP3   OH210871   1.112   3.980   0.906 -0.1409 -0.4337 -0.3768
 3622TIP3    H110872   1.127   4.011   0.817 -0.6749 -2.1183 -1.0849
 3622TIP3    H210873   1.094   3.887   0.897  0.5816 -0.8131  1.5862
 3623TIP3   OH210874   4.597   1.222   3.256  0.1486  0.5727 -0.0775
 3623TIP3    H110875   4.515   1.213   3.305 -0.0454  1.4428 -0.2353
 3623TIP3    H210876   4.615   1.316   3.255  0.6531  0.4816 -0.8579
 3624TIP3   OH210877   4.984   2.631   5.088  0.1593  0.2217  0.0991
 3624TIP3    H110878   4.990   2.536   5.083  0.6509  0.2764 -0.3891
 3624TIP3    H210879   4.894   2.647   5.117 -0.4114 -0.3519 -1.2502
 3625TIP3   OH210880   0.011   1.377   4.720  0.3572 -0.4090  0.9818
 3625TIP3    H110881   0.056   1.324   4.786 -0.1397 -1.7147  0.3164
 3625TIP3    H210882  -0.021   1.453   4.768  1.8680 -0.2506  1.7900
 3626TIP3   OH210883   0.112   0.022   4.417 -0.2349  0.3268 -0.1168
 3626TIP3    H110884   0.138   0.114   4.405 -0.7000  0.4053 -0.5830
 3626TIP3    H210885   0.049   0.006   4.346 -1.4851  0.1707  0.9892
 3627TIP3   OH210886   1.797   0.413   4.536 -0.7747  0.4578  0.0131
 3627TIP3    H110887   1.815   0.349   4.606 -0.0175  2.9822  2.2994
 3627TIP3    H210888   1.759   0.487   4.582 -0.2915  2.2290 -2.2989
 3628TIP3   OH210889   3.125   0.728   4.851  0.2576  0.1852  0.1288
 3628TIP3    H110890   3.061   0.728   4.780 -1.2884 -3.7774  1.2510
 3628TIP3    H210891   3.117   0.816   4.890 -0.9998  1.4278 -2.6647
 3629TIP3   OH210892   3.569   1.459   4.739 -0.0961 -0.0881 -0.0857
 3629TIP3    H110893   3.662   1.446   4.721  0.1161  1.6630 -0.4233
 3629TIP3    H210894   3.525   1.395   4.682  0.8589 -0.1144 -0.8298
 3630TIP3   OH210895   6.275   2.756   1.664 -0.1674 -0.6037  0.4871
 3630TIP3    H110896   6.317   2.803   1.592 -1.3945 -2.4419 -1.5623
 3630TIP3    H210897   6.190   2.799   1.674 -0.2217 -0.6940  0.4225
 3631TIP3   OH210898   0.950   0.976   0.977  0.9869 -0.1675  0.1819
 3631TIP3    H110899   0.958   1.023   0.894 -2.7407  0.2086 -0.1348
 3631TIP3    H210900   0.936   1.045   1.042 -0.7696 -0.5744  0.2970
 3632TIP3   OH210901   1.506   3.647   0.129 -0.3025 -0.8357  0.0164
 3632TIP3    H110902   1.503   3.551   0.128  1.3631 -1.0235  2.6173
 3632TIP3    H210903   1.470   3.671   0.215  1.9689  0.6542  0.6422
 3633TIP3   OH210904   5.980   4.440   2.170  0.0207  0.4822  0.4192
 3633TIP3    H110905   5.902   4.406   2.127  0.6149  0.9242 -1.0468
 3633TIP3    H210906   5.982   4.533   2.148  0.6370  0.6065  0.9512
 3634TIP3   OH210907   5.129   0.036   3.359 -0.7502  0.0213 -0.1595
 3634TIP3    H110908   5.076  -0.038   3.390  0.0464 -0.8763 -0.8696
 3634TIP3    H210909   5.068   0.087   3.306 -1.5314  0.3512  1.0144
 3635TIP3   OH210910   2.583   2.843   1.810  0.4379  0.0455  0.6202
 3635TIP3    H110911   2.564   2.890   1.891  1.5395  0.8176  0.4623
 3635TIP3    H210912   2.676   2.820   1.817 -0.1366 -2.5830  0.9086
 3636TIP3   OH210913   0.502   5.649   0.020 -0.0056  0.0376 -0.2837
 3636TIP3    H110914   0.437   5.608   0.077  0.4585 -0.4856 -0.1212
 3636TIP3    H210915   0.502   5.741   0.046 -0.7301  0.0558 -0.3362
 3637TIP3   OH210916   1.972   2.970   0.401 -0.1003 -0.0460 -0.0695
 3637TIP3    H110917   2.023   3.045   0.368  1.4431 -0.7864  0.5708
 3637TIP3    H210918   1.925   3.005   0.477  1.0223  0.1485  0.5443
 3638TIP3   OH210919   4.742   3.782   4.414  0.2713  0.0494  0.5119
 3638TIP3    H110920   4.690   3.755   4.490  0.6210 -0.4001  0.5925
 3638TIP3    H210921   4.788   3.703   4.387  0.4949  0.3171  0.1043
 3639TIP3   OH210922   5.743   1.836   4.196 -0.0911  0.3924  0.2858
 3639TIP3    H110923   5.806   1.842   4.125 -1.2631  0.5868 -0.7805
 3639TIP3    H210924   5.792   1.800   4.269  1.3765  1.0777 -0.3313
 3640TIP3   OH210925   3.352   0.581   4.917  0.3074  0.0339  0.4845
 3640TIP3    H110926   3.282   0.637   4.885  1.2476  0.6118 -0.6350
 3640TIP3    H210927   3.308   0.502   4.947 -0.7619  0.0349 -0.9838
 3641TIP3   OH210928   5.001   1.755   4.187 -0.4863 -0.1423  0.2808
 3641TIP3    H110929   4.926   1.813   4.179 -0.4103  0.0945  1.1313
 3641TIP3    H210930   5.077   1.811   4.167 -0.4999 -0.2663 -0.1263
 3642TIP3   OH210931   2.727   4.702   3.401 -0.2927  0.3699  0.2620
 3642TIP3    H110932   2.711   4.662   3.316  0.9824 -1.5192  0.8340
 3642TIP3    H210933   2.642   4.735   3.429 -0.7612  0.8883 -1.6346
 3643TIP3   OH210934   0.190   0.035   1.887 -0.0513  0.3719  0.2491
 3643TIP3    H110935   0.279   0.068   1.895 -0.3482  1.9765 -1.9490
 3643TIP3    H210936   0.199  -0.060   1.884  1.4315  0.4502  1.1983
 3644TIP3   OH210937   6.057   3.451   4.719 -0.1237 -0.1528  0.9725
 3644TIP3    H110938   6.066   3.448   4.814  0.8738  1.3789  0.9540
 3644TIP3    H210939   6.108   3.528   4.692  0.1165 -0.8979 -0.8577
 3645TIP3   OH210940   0.329   3.905   2.618  0.0104  0.0075 -0.0533
 3645TIP3    H110941   0.378   3.853   2.555  0.1024  0.5264 -0.4177
 3645TIP3    H210942   0.390   3.919   2.690  0.7892  1.5306 -0.9553
 3646TIP3   OH210943   5.820   5.838   0.244  0.3410 -0.7035 -0.5351
 3646TIP3    H110944   5.733   5.810   0.214 -0.8060  1.2759  0.7029
 3646TIP3    H210945   5.876   5.763   0.227 -1.2488 -1.5060 -2.8791
 3647TIP3   OH210946   3.570   1.938   5.029 -0.0936 -0.0045  0.0363
 3647TIP3    H110947   3.665   1.951   5.036 -0.0848 -0.5126  0.9627
 3647TIP3    H210948   3.560   1.845   5.011 -0.4228  0.0453 -0.0342
 3648TIP3   OH210949   5.242   1.134   4.382  0.0478 -0.4043 -0.0411
 3648TIP3    H110950   5.181   1.090   4.323  0.1673  0.4957 -0.8710
 3648TIP3    H210951   5.208   1.223   4.390  0.7885 -0.1256  0.1347
 3649TIP3   OH210952   4.893   5.732   1.475 -0.3690  0.1177 -0.2536
 3649TIP3    H110953   4.904   5.817   1.432 -1.3612  1.0977  1.3240
 3649TIP3    H210954   4.869   5.672   1.404  1.6838  0.8090 -1.6306
 3650TIP3   OH210955   0.241   4.538   5.053  0.2242  0.3343  0.4378
 3650TIP3    H110956   0.305   4.468   5.064  1.2659  1.3927  1.3871
 3650TIP3    H210957   0.269   4.606   5.114 -1.1931  1.2766  0.0896
 3651TIP3   OH210958   4.983   1.919   0.594  0.2949 -0.3013  0.2353
 3651TIP3    H110959   4.955   1.893   0.681 -0.5293 -1.0792 -0.2423
 3651TIP3    H210960   4.975   2.014   0.593 -0.1535 -0.3327  0.8498
 3652TIP3   OH210961   5.297   1.549   1.311  0.0634  0.7454 -0.0939
 3652TIP3    H110962   5.326   1.529   1.222  1.4964  0.2292  0.4503
 3652TIP3    H210963   5.202   1.544   1.307  0.0349  1.7678 -1.8318
 3653TIP3   OH210964   2.323   5.893   2.945  0.1767  0.4198  0.3010
 3653TIP3    H110965   2.319   5.815   3.001  1.4828 -0.1849 -0.3933
 3653TIP3    H210966   2.289   5.864   2.861 -0.8922  1.0699  0.4986
 3654TIP3   OH210967   3.654   0.600   3.557  0.2768  0.6100 -0.1457
 3654TIP3    H110968   3.748   0.613   3.569  0.3409  0.3851 -0.4117
 3654TIP3    H210969   3.639   0.510   3.586  0.2570  0.4160 -0.7507
 3655TIP3   OH210970   5.769   3.430   3.596 -0.3175 -0.3405 -0.5450
 3655TIP3    H110971   5.728   3.508   3.632  2.0837 -0.1879  2.2905
 3655TIP3    H210972   5.835   3.463   3.535  0.7903 -0.0347  0.7521
 3656TIP3   OH210973   4.825   4.132   3.614  0.8328 -0.3735  0.9621
 3656TIP3    H110974   4.840   4.082   3.534 -1.1512 -1.8797  1.4444
 3656TIP3    H210975   4.872   4.214   3.600 -1.0782  0.3334 -2.6675
 3657TIP3   OH210976   4.415   0.832   0.736 -0.3189 -0.3179 -0.8419
 3657TIP3    H110977   4.336   0.786   0.765  0.3117 -1.4541 -0.8771
 3657TIP3    H210978   4.393   0.865   0.649 -1.1676  0.4589 -0.3586
 3658TIP3   OH210979   4.913   3.557   2.529 -0.1875  0.5279  0.3967
 3658TIP3    H110980   4.868   3.483   2.488  0.7736  0.3116 -0.2957
 3658TIP3    H210981   4.863   3.633   2.500  0.0949  0.3218 -0.6822
 3659TIP3   OH210982   5.917   3.571   4.359  0.0427 -0.2307  0.2983
 3659TIP3    H110983   5.893   3.524   4.438 -0.7797  1.4137  1.0762
 3659TIP3    H210984   5.843   3.559   4.300  0.8160 -1.7684 -0.4008
 3660TIP3   OH210985   2.119   2.124   1.580 -0.3803  0.4089 -0.4180
 3660TIP3    H110986   2.186   2.176   1.625 -1.0825  2.4753 -1.6160
 3660TIP3    H210987   2.071   2.080   1.650  0.7620  0.7198  0.5970
 3661TIP3   OH210988   0.680   2.307   2.029  0.2030  0.3922 -0.3901
 3661TIP3    H110989   0.764   2.306   2.075  1.0166  3.7622 -1.4862
 3661TIP3    H210990   0.702   2.279   1.940 -0.3179 -0.8046 -0.1663
 3662TIP3   OH210991   5.501   3.296   1.248  0.2908 -0.5557  0.7291
 3662TIP3    H110992   5.489   3.380   1.203 -1.0443 -0.0404  1.9418
 3662TIP3    H210993   5.463   3.231   1.188 -1.5436  0.1240  1.0841
 3663TIP3   OH210994   3.120   1.081   1.919  0.2376 -0.2233  0.0948
 3663TIP3    H110995   3.201   1.125   1.892  0.3072  0.6295  1.5711
 3663TIP3    H210996   3.149   1.001   1.962  0.1385 -1.4280 -1.9640
 3664TIP3   OH210997   2.354   0.831   3.013 -0.1240  0.1864 -0.3519
 3664TIP3    H110998   2.391   0.872   2.935  0.9601 -0.4886 -0.2159
 3664TIP3    H210999   2.388   0.741   3.011 -0.6823 -0.0561  0.5092
 3665TIP3   OH211000   0.150   5.555   1.666 -0.2678 -0.5875  0.2209
 3665TIP3    H111001   0.154   5.538   1.572 -1.9649 -0.5664  0.1239
 3665TIP3    H211002   0.130   5.470   1.705  2.7947 -1.1464  0.8560
 3666TIP3   OH211003   2.556   2.701   0.242 -0.2624 -0.1829  0.1210
 3666TIP3    H111004   2.632   2.755   0.262  1.1335 -1.6377 -1.0532
 3666TIP3    H211005   2.500   2.710   0.319  1.3235  0.5065  1.2431
 3667TIP3   OH211006   1.391   2.496   3.294 -0.1960 -0.1146 -0.5538
 3667TIP3    H111007   1.422   2.547   3.368 -0.3376 -1.0285  0.1634
 3667TIP3    H211008   1.419   2.406   3.314 -0.6427 -0.4438 -1.3771
 3668TIP3   OH211009   3.517   4.276   4.778  0.2820 -0.0317 -1.0376
 3668TIP3    H111010   3.515   4.233   4.864 -0.5151  2.4801  0.3041
 3668TIP3    H211011   3.607   4.308   4.771  0.2289  0.1446 -0.9234
 3669TIP3   OH211012   3.642   4.035   1.858 -0.9435 -0.0885  0.1835
 3669TIP3    H111013   3.631   4.029   1.953 -0.9014  0.6145  0.2388
 3669TIP3    H211014   3.554   4.049   1.824 -1.0750 -1.2014  0.0368
 3670TIP3   OH211015   0.488   0.120   2.477 -0.1828 -0.3805 -0.3557
 3670TIP3    H111016   0.510   0.206   2.441 -1.0720  0.4445  0.9837
 3670TIP3    H211017   0.426   0.139   2.548  1.3715 -1.8960  1.5232
 3671TIP3   OH211018   5.333   0.623   2.685  0.1795  0.0480  0.3138
 3671TIP3    H111019   5.328   0.715   2.710  1.7182  0.7268 -1.6605
 3671TIP3    H211020   5.362   0.578   2.764  1.8710  1.6268  0.6432
 3672TIP3   OH211021   6.246   2.808   1.341  0.1566 -0.7097 -0.2815
 3672TIP3    H111022   6.333   2.837   1.367 -0.8077  2.3189 -0.0158
 3672TIP3    H211023   6.189   2.838   1.413 -1.2538 -1.4751 -1.0414
 3673TIP3   OH211024   4.197   0.227   0.522 -0.1759 -0.3761 -0.5576
 3673TIP3    H111025   4.234   0.264   0.442  0.8428 -2.0664 -0.9193
 3673TIP3    H211026   4.234   0.281   0.593  1.8604 -1.1103 -1.0095
 3674TIP3   OH211027   4.578   2.168   3.964 -0.0886 -0.0872 -0.0874
 3674TIP3    H111028   4.485   2.157   3.946 -0.3879  1.9803 -0.0420
 3674TIP3    H211029   4.598   2.103   4.031 -1.4923 -0.5125 -0.0557
 3675TIP3   OH211030   1.617   4.825   1.265  0.6159 -0.1875  0.1298
 3675TIP3    H111031   1.686   4.762   1.287  0.6895  0.0693  0.6531
 3675TIP3    H211032   1.612   4.883   1.342  0.6351  0.5221 -0.3957
 3676TIP3   OH211033   1.149   5.235   0.881  0.4061 -0.6866 -0.3264
 3676TIP3    H111034   1.130   5.215   0.790  0.8019  0.0869 -0.5920
 3676TIP3    H211035   1.235   5.278   0.879 -0.6216  1.5514  0.1071
 3677TIP3   OH211036   3.089   1.984   4.737  0.1659  0.2685  0.1667
 3677TIP3    H111037   3.182   1.978   4.716  0.3296 -1.3670  1.1444
 3677TIP3    H211038   3.044   1.972   4.653  0.8151  2.1850 -0.4884
 3678TIP3   OH211039   4.238   2.891   2.054 -0.0462  0.3158 -0.0589
 3678TIP3    H111040   4.286   2.809   2.047  1.1329  0.8531  1.2630
 3678TIP3    H211041   4.162   2.880   1.996  0.0125 -1.7430  0.1926
 3679TIP3   OH211042   4.662   3.961   4.002 -0.6654 -0.4924 -0.4908
 3679TIP3    H111043   4.651   4.054   4.020 -0.6227 -0.9321  2.1740
 3679TIP3    H211044   4.747   3.954   3.959 -0.8184  0.7079 -1.0166
 3680TIP3   OH211045   3.237   0.455   3.996  0.0941  0.0579 -0.5550
 3680TIP3    H111046   3.193   0.417   3.921  0.4864  0.1190 -0.8203
 3680TIP3    H211047   3.228   0.550   3.985  0.2042  0.0685 -0.5619
 3681TIP3   OH211048   0.102   4.633   1.321 -0.5080 -0.1299 -0.3687
 3681TIP3    H111049   0.130   4.553   1.277  0.0971  0.2171 -0.6196
 3681TIP3    H211050   0.011   4.644   1.294 -1.0145 -1.4178  0.6725
 3682TIP3   OH211051   3.797   1.455   3.100 -0.3554  0.5364 -0.2622
 3682TIP3    H111052   3.887   1.423   3.089 -0.7426 -0.2792 -1.2138
 3682TIP3    H211053   3.770   1.480   3.012 -1.0940  0.7012  0.0056
 3683TIP3   OH211054   2.033   4.015   0.035  0.2884  0.1902  0.1179
 3683TIP3    H111055   1.954   4.033  -0.017  0.5422 -2.3331 -1.2965
 3683TIP3    H211056   2.020   4.064   0.116 -2.7877 -0.2109 -0.0253
 3684TIP3   OH211057   5.652   5.362   1.253 -0.7014 -0.4637  0.1780
 3684TIP3    H111058   5.698   5.431   1.300 -1.7555 -0.5957  1.4843
 3684TIP3    H211059   5.714   5.333   1.186  1.2700 -0.8860  2.0603
 3685TIP3   OH211060   4.764   3.686   4.931  0.2008 -0.0164 -0.8290
 3685TIP3    H111061   4.830   3.618   4.948  3.0608  2.3185 -1.7941
 3685TIP3    H211062   4.744   3.677   4.838 -0.5957 -0.4945 -0.6149
 3686TIP3   OH211063   1.403   4.337   0.123 -0.0478  1.2843  0.3379
 3686TIP3    H111064   1.322   4.314   0.168 -0.8991  1.4660 -1.0243
 3686TIP3    H211065   1.423   4.426   0.153 -0.8377  1.5646  0.0469
 3687TIP3   OH211066   2.637   0.571   1.047 -0.3601  0.0954 -0.2905
 3687TIP3    H111067   2.614   0.479   1.033 -0.2313 -0.0006  0.1168
 3687TIP3    H211068   2.553   0.614   1.066 -0.3226 -0.0924  0.3260
 3688TIP3   OH211069   2.587   3.135   3.492 -0.7639  0.0833  0.1569
 3688TIP3    H111070   2.656   3.130   3.558 -0.9257 -1.5987  0.2502
 3688TIP3    H211071   2.583   3.227   3.468 -0.6420  0.7616  2.4393
 3689TIP3   OH211072   4.267   4.101   1.295  0.2660  0.3549 -0.1576
 3689TIP3    H111073   4.310   4.087   1.211  1.2586  2.6529 -0.0813
 3689TIP3    H211074   4.333   4.143   1.350 -1.3762  1.9575  0.6901
 3690TIP3   OH211075   5.348   0.715   4.435  0.1647  0.7468 -0.6525
 3690TIP3    H111076   5.344   0.627   4.397  1.2871 -0.4883  1.8905
 3690TIP3    H211077   5.262   0.753   4.414  0.1294 -0.3894 -2.9482
 3691TIP3   OH211078   4.761   2.185   0.523 -0.0458 -0.0437  0.5526
 3691TIP3    H111079   4.855   2.187   0.540  0.0206 -0.1250  0.2081
 3691TIP3    H211080   4.753   2.204   0.429 -0.3791  0.0857  0.6045
 3692TIP3   OH211081   2.665   1.005   1.765  0.7522 -0.1772  0.1099
 3692TIP3    H111082   2.684   0.950   1.689  0.2873 -0.2940  0.0770
 3692TIP3    H211083   2.593   1.060   1.738  1.1197  0.3519  0.1983
 3693TIP3   OH211084   4.464   1.449   4.033  0.6711  0.2573  0.3017
 3693TIP3    H111085   4.490   1.541   4.033 -0.0628  0.4964 -1.1874
 3693TIP3    H211086   4.420   1.436   3.948  1.1520 -1.5741  0.2775
 3694TIP3   OH211087   0.730   4.556   2.944 -0.5615  0.1393  0.2931
 3694TIP3    H111088   0.733   4.547   2.848  1.7987 -0.1297  0.3304
 3694TIP3    H211089   0.643   4.591   2.962 -1.6608 -1.3023 -1.8150
 3695TIP3   OH211090   3.570   3.592   4.917  0.1376 -0.0427  0.0690
 3695TIP3    H111091   3.484   3.564   4.885  1.1021 -1.4471 -1.4837
 3695TIP3    H211092   3.602   3.517   4.967  1.1070 -0.2010 -0.7577
 3696TIP3   OH211093   2.935   0.503   3.420  1.0647  0.4871  0.8517
 3696TIP3    H111094   2.847   0.466   3.413  0.8815  0.8434  1.1932
 3696TIP3    H211095   2.921   0.591   3.455  1.5864  0.3977  1.2954
 3697TIP3   OH211096   2.305   0.055   4.907  0.0086 -0.0966 -0.4149
 3697TIP3    H111097   2.330  -0.000   4.833  0.1735 -0.0715 -0.3792
 3697TIP3    H211098   2.264   0.131   4.867  1.4614  0.6382 -0.5720
 3698TIP3   OH211099   2.729   3.288   5.162  0.5153  0.0648 -0.1776
 3698TIP3    H111100   2.690   3.341   5.092 -0.7006  0.2957  0.6364
 3698TIP3    H211101   2.660   3.283   5.229  1.3744 -0.7876  0.6710
 3699TIP3   OH211102   4.560   0.603   3.596  0.3239  0.1548 -0.1224
 3699TIP3    H111103   4.547   0.689   3.554  0.3746  0.2492  0.0548
 3699TIP3    H211104   4.571   0.542   3.523  0.3011  0.3022 -0.2494
 3700TIP3   OH211105   0.947   3.889   2.944  0.3638  0.0034  0.7427
 3700TIP3    H111106   1.026   3.866   2.896 -1.2964  1.1604 -2.8754
 3700TIP3    H211107   0.978   3.910   3.032  4.0485  0.3013 -0.4564
 3701TIP3   OH211108   5.975   5.134   2.894  0.2201  0.0505  0.0958
 3701TIP3    H111109   6.018   5.215   2.922  0.6954 -0.4790  0.9425
 3701TIP3    H211110   5.882   5.155   2.892  0.4608  1.1876 -1.6604
 3702TIP3   OH211111   5.808   3.473   0.558  0.4595  0.3744 -0.0298
 3702TIP3    H111112   5.720   3.491   0.525 -0.4415 -1.0031  1.4915
 3702TIP3    H211113   5.847   3.415   0.493 -0.1673  0.1046 -0.1704
 3703TIP3   OH211114   3.541   5.030   0.730 -0.2843  0.0130 -0.1844
 3703TIP3    H111115   3.467   5.048   0.787  0.2957  0.3843  0.4733
 3703TIP3    H211116   3.616   5.067   0.776  0.4324 -1.0706 -0.4514
 3704TIP3   OH211117   4.499   4.052   1.080 -0.2715 -0.2865  0.1027
 3704TIP3    H111118   4.488   4.033   0.987 -0.5880 -0.5088  0.1817
 3704TIP3    H211119   4.547   4.135   1.082 -3.3310  1.6952 -0.3296
 3705TIP3   OH211120   1.206   5.374   2.263  0.1705  0.0813  0.5470
 3705TIP3    H111121   1.113   5.397   2.272  0.3159  1.2121 -0.5500
 3705TIP3    H211122   1.218   5.301   2.324 -1.5172 -0.3378  0.4433
 3706TIP3   OH211123   4.564   5.222   0.309  0.0308 -0.4829  0.5245
 3706TIP3    H111124   4.605   5.290   0.362 -0.7974 -0.2968  0.9467
 3706TIP3    H211125   4.609   5.227   0.224  0.8653 -0.2921  0.9701
 3707TIP3   OH211126   2.812   4.847   1.546  1.1400 -0.7418 -0.4426
 3707TIP3    H111127   2.814   4.938   1.517 -0.9747 -0.4585  0.1343
 3707TIP3    H211128   2.902   4.828   1.572  1.2061  1.9461  1.6904
 3708TIP3   OH211129   6.259   5.495   0.479 -0.3825  0.2973 -0.2522
 3708TIP3    H111130   6.191   5.427   0.481  0.7660 -0.8764  1.4392
 3708TIP3    H211131   6.234   5.555   0.549 -0.6549  0.8694 -0.8397
 3709TIP3   OH211132   1.339   3.980   4.657  0.0023  0.1736 -0.3380
 3709TIP3    H111133   1.308   4.070   4.647 -0.4230  0.1102  0.3362
 3709TIP3    H211134   1.417   3.987   4.712 -0.5972  0.0429  0.5409
 3710TIP3   OH211135   3.042   3.743   4.542  0.0833  0.1315  0.5330
 3710TIP3    H111136   3.050   3.654   4.506  0.4547  0.3257  0.1377
 3710TIP3    H211137   2.953   3.769   4.521  0.4482  0.4313 -0.6809
 3711TIP3   OH211138   2.265   4.051   4.326 -0.2101 -0.5467 -0.1929
 3711TIP3    H111139   2.227   3.963   4.324 -0.5604 -0.3970 -0.1225
 3711TIP3    H211140   2.309   4.057   4.411  2.3203 -1.7002 -1.2820
 3712TIP3   OH211141   0.766   4.791   3.347  0.0129  0.7494  0.5179
 3712TIP3    H111142   0.740   4.729   3.415 -1.5770  0.2750 -0.4547
 3712TIP3    H211143   0.860   4.804   3.359  0.4333 -1.9940  0.6395
 3713TIP3   OH211144   1.586   1.610   4.680 -0.7928  0.2920  0.1455
 3713TIP3    H111145   1.638   1.679   4.721 -0.7360  0.6726 -0.5467
 3713TIP3    H211146   1.574   1.639   4.590  0.3487 -1.2088 -0.5495
 3714TIP3   OH211147   0.522   4.584   0.263  0.0528  0.5968 -0.2389
 3714TIP3    H111148   0.438   4.547   0.237  0.9548 -1.5923 -0.2369
 3714TIP3    H211149   0.531   4.564   0.356  0.8046  0.3339 -0.3591
 3715TIP3   OH211150   1.712   1.550   3.874  0.0182 -0.3335 -0.7482
 3715TIP3    H111151   1.767   1.625   3.897 -1.4493  1.1879 -1.9712
 3715TIP3    H211152   1.721   1.542   3.779 -1.8607 -0.0342 -0.9833
 3716TIP3   OH211153   4.399   1.067   2.233  0.4494 -0.0717  0.2899
 3716TIP3    H111154   4.442   1.020   2.162 -2.5744  0.7309 -2.3170
 3716TIP3    H211155   4.356   0.999   2.285  1.8843 -0.5971  0.8355
 3717TIP3   OH211156   0.579   0.267   2.197  0.2218 -0.0200  0.0169
 3717TIP3    H111157   0.673   0.251   2.202 -0.0264 -2.3991 -1.2806
 3717TIP3    H211158   0.559   0.317   2.276  2.2983 -0.9834  1.2354
 3718TIP3   OH211159   3.919   1.032   3.592 -0.1784 -0.4651  0.0838
 3718TIP3    H111160   3.908   1.059   3.683 -1.1025 -0.6524  0.0361
 3718TIP3    H211161   3.842   1.065   3.547  0.7653  0.5246 -0.8630
 3719TIP3   OH211162   5.741   4.725   2.703  0.3397  0.3555  0.2878
 3719TIP3    H111163   5.813   4.785   2.685 -0.9008  2.1681  1.1107
 3719TIP3    H211164   5.666   4.764   2.660 -0.4878 -0.6822  0.7561
 3720TIP3   OH211165   1.729   0.935   2.009  0.7787 -0.5334 -0.6295
 3720TIP3    H111166   1.672   0.889   1.948 -1.5664  1.8104 -0.3556
 3720TIP3    H211167   1.784   0.990   1.953 -0.5419  0.7141 -0.7599
 3721TIP3   OH211168   1.216   2.567   3.737 -0.1700  0.1545  0.3022
 3721TIP3    H111169   1.301   2.529   3.716  0.0742  1.0429 -0.3854
 3721TIP3    H211170   1.231   2.620   3.815  0.1625  1.1745 -0.4447
 3722TIP3   OH211171   3.839   5.641   0.144 -0.0200  0.2241 -0.3641
 3722TIP3    H111172   3.744   5.638   0.137 -0.1130 -0.2841  0.8884
 3722TIP3    H211173   3.859   5.602   0.229  1.3495 -0.2759 -0.8705
 3723TIP3   OH211174   2.704   5.011   3.863 -0.0149  0.0083 -0.5039
 3723TIP3    H111175   2.669   5.099   3.851 -0.1505 -0.1237 -1.1034
 3723TIP3    H211176   2.630   4.960   3.896 -0.3137 -0.2018 -1.4883
 3724TIP3   OH211177   1.024   3.132   4.588 -0.4122  0.4187 -0.0690
 3724TIP3    H111178   1.002   3.176   4.670 -1.8451  1.2247 -0.8389
 3724TIP3    H211179   1.051   3.202   4.530  1.2821 -0.2316 -0.1022
 3725TIP3   OH211180   0.908   4.522   3.927  0.5639  0.0745 -0.3871
 3725TIP3    H111181   0.817   4.510   3.953  0.7174  0.1763  0.2202
 3725TIP3    H211182   0.944   4.433   3.925  0.5797  0.0748 -0.1384
 3726TIP3   OH211183   4.590   1.844   0.799  0.2092 -0.0999 -0.0309
 3726TIP3    H111184   4.524   1.872   0.863 -1.5104 -0.2603 -1.6676
 3726TIP3    H211185   4.602   1.751   0.816 -0.2530 -0.1489  0.0249
 3727TIP3   OH211186   2.376   4.968   2.952  0.1346 -0.4504 -0.5254
 3727TIP3    H111187   2.295   4.935   2.913  0.3484  1.1053 -2.4160
 3727TIP3    H211188   2.351   5.050   2.994  0.3290 -1.0808  0.8831
 3728TIP3   OH211189   6.066   0.045   0.648  0.5408 -0.1551 -0.3844
 3728TIP3    H111190   6.031   0.053   0.559 -0.5785  0.9991  0.1139
 3728TIP3    H211191   6.152   0.086   0.643 -0.0891  1.1966 -0.6580
 3729TIP3   OH211192   1.016   0.030   1.272  0.0269  0.1804  0.3487
 3729TIP3    H111193   0.934   0.006   1.314  0.1252  1.2422  1.1853
 3729TIP3    H211194   0.991   0.095   1.206  0.0291 -0.5458 -0.3758
 3730TIP3   OH211195   0.079   5.284   0.373 -0.3271  0.5579 -0.1801
 3730TIP3    H111196   0.126   5.247   0.447  0.8802  0.3156 -1.0407
 3730TIP3    H211197   0.040   5.365   0.406 -0.2133  0.2101  0.8305
 3731TIP3   OH211198   3.572   2.193   4.118  0.2953  0.7128 -0.0140
 3731TIP3    H111199   3.509   2.134   4.077 -0.6278  2.0100 -0.5090
 3731TIP3    H211200   3.581   2.266   4.057  3.0186  0.1620 -0.4200
 3732TIP3   OH211201   2.802   5.295   1.803  0.1624  0.3343 -0.3012
 3732TIP3    H111202   2.737   5.227   1.785  1.3695 -0.6578 -1.0605
 3732TIP3    H211203   2.783   5.363   1.738 -0.0250 -0.0182 -0.6271
 3733TIP3   OH211204   5.132   4.868   2.443  0.0176  0.1411  0.3525
 3733TIP3    H111205   5.186   4.793   2.417 -0.7591 -0.4865  0.4920
 3733TIP3    H211206   5.135   4.927   2.368  1.8929  0.7136  0.8329
 3734TIP3   OH211207   2.790   0.288   4.043 -0.2916  0.1255  0.1859
 3734TIP3    H111208   2.706   0.295   4.088  0.0222  1.6211  0.5994
 3734TIP3    H211209   2.793   0.364   3.985  0.9994  0.4081  0.5728
 3735TIP3   OH211210   1.888   4.157   2.196  0.1222  0.4121 -0.5644
 3735TIP3    H111211   1.971   4.171   2.242  0.3029  0.5843 -0.9338
 3735TIP3    H211212   1.840   4.096   2.251  0.0087  1.2057  0.2518
 3736TIP3   OH211213   1.078   0.306   4.391  0.5548  0.2273 -0.0045
 3736TIP3    H111214   0.983   0.291   4.393  0.5136  0.3694  2.6931
 3736TIP3    H211215   1.088   0.397   4.420  1.5397 -0.0626  0.6037
 3737TIP3   OH211216   0.605   4.507   2.696  0.2552  0.3602 -0.2526
 3737TIP3    H111217   0.664   4.447   2.651 -0.4445 -0.5267 -0.0155
 3737TIP3    H211218   0.520   4.464   2.692 -0.9109  2.5805 -2.5234
 3738TIP3   OH211219   3.857   2.420   1.697  0.1838 -0.5543  0.9524
 3738TIP3    H111220   3.935   2.436   1.645  0.2352 -0.1367  1.1511
 3738TIP3    H211221   3.828   2.332   1.671  1.4329 -1.2488  1.7773
 3739TIP3   OH211222   5.061   0.803   2.602  0.1436  0.3044 -0.1900
 3739TIP3    H111223   5.004   0.732   2.572  1.1301  0.0696 -1.5905
 3739TIP3    H211224   5.078   0.783   2.693  0.0280 -1.0069 -0.4369
 3740TIP3   OH211225   5.580   1.708   0.515  0.4877 -0.3290 -0.4392
 3740TIP3    H111226   5.536   1.735   0.596 -0.1497 -5.1003  1.1038
 3740TIP3    H211227   5.509   1.692   0.454  0.9059  2.0684 -1.6573
 3741TIP3   OH211228   2.705   2.656   3.434  0.3555  1.2336  0.4463
 3741TIP3    H111229   2.615   2.634   3.409  0.6787  1.0709 -0.6363
 3741TIP3    H211230   2.752   2.664   3.350  1.3517  1.3108  0.9951
 3742TIP3   OH211231   0.203   2.563   1.485  0.1772  0.4582 -0.9603
 3742TIP3    H111232   0.137   2.539   1.551  1.0225  2.3015  0.6719
 3742TIP3    H211233   0.286   2.534   1.522  0.5307  0.1936 -1.9349
 3743TIP3   OH211234   4.795   5.277   4.399  0.0604 -0.1445 -0.4839
 3743TIP3    H111235   4.767   5.353   4.450 -3.1044 -0.9308 -0.8634
 3743TIP3    H211236   4.808   5.208   4.464 -0.2919 -0.1524 -0.4221
 3744TIP3   OH211237   5.300   0.122   2.044  0.4980  0.2257 -0.4429
 3744TIP3    H111238   5.230   0.150   2.102  1.7854  1.1497  0.7321
 3744TIP3    H211239   5.269   0.143   1.956 -1.0066 -0.1306 -0.0181
 3745TIP3   OH211240   3.988   3.383   2.248 -0.3626  0.2074  0.0684
 3745TIP3    H111241   3.916   3.437   2.215 -0.5601  0.0683  0.2618
 3745TIP3    H211242   3.950   3.337   2.323  0.0225  0.3821  0.3733
 3746TIP3   OH211243   6.245   3.670   1.303 -0.2547 -0.0764  0.6372
 3746TIP3    H111244   6.169   3.625   1.267  0.6907 -0.3599 -1.1023
 3746TIP3    H211245   6.235   3.662   1.398 -2.3902 -0.0697  0.4428
 3747TIP3   OH211246   4.499   3.932   3.147  0.1414  0.7254  0.1166
 3747TIP3    H111247   4.474   3.907   3.236  2.3253 -1.0978  0.3178
 3747TIP3    H211248   4.545   3.855   3.113  1.2603  2.1613 -1.8101
 3748TIP3   OH211249   3.982   4.215   1.480 -0.6003 -0.4002 -0.1275
 3748TIP3    H111250   3.921   4.180   1.545 -1.0378 -1.2600 -0.9659
 3748TIP3    H211251   3.933   4.284   1.436 -0.2924  0.2046  0.4624
 3749TIP3   OH211252   0.706   5.428   3.245 -1.1285  0.7020  1.1150
 3749TIP3    H111253   0.801   5.434   3.231 -1.2455  1.2459  0.4756
 3749TIP3    H211254   0.697   5.393   3.333 -0.3292  0.1881  1.0076
 3750TIP3   OH211255   0.345   1.807   1.774 -0.3403 -0.5973 -0.6026
 3750TIP3    H111256   0.421   1.795   1.831 -0.5446 -2.5883 -0.6788
 3750TIP3    H211257   0.271   1.774   1.824 -1.2893  1.6176 -0.4055
 3751TIP3   OH211258   1.830   2.543   3.171 -0.3091 -0.0428  0.2714
 3751TIP3    H111259   1.751   2.596   3.166 -1.5490 -1.7990  0.3643
 3751TIP3    H211260   1.882   2.570   3.095 -1.1850  0.8403 -0.0314
 3752TIP3   OH211261   1.562   2.554   0.087 -0.1164 -0.5292  0.5690
 3752TIP3    H111262   1.508   2.574   0.164  0.4326  1.1516  0.5681
 3752TIP3    H211263   1.646   2.526   0.123  0.1776  0.3647  0.6190
 3753TIP3   OH211264   2.557   3.280   3.983  0.0976  0.6188  0.6204
 3753TIP3    H111265   2.521   3.242   3.904  2.2171 -1.1684  0.4040
 3753TIP3    H211266   2.562   3.374   3.965  0.6880  0.2414 -1.4571
 3754TIP3   OH211267   4.642   5.451   1.883 -0.3144  0.2587 -0.0221
 3754TIP3    H111268   4.684   5.517   1.827  1.5404  0.8158  1.8713
 3754TIP3    H211269   4.700   5.375   1.876 -2.9148 -1.6890 -2.9141
 3755TIP3   OH211270   5.118   1.860   3.026  0.0212  0.1005  0.2385
 3755TIP3    H111271   5.149   1.932   3.080 -1.4172  0.2437  0.9377
 3755TIP3    H211272   5.170   1.864   2.946  0.1025  1.7959  0.3592
 3756TIP3   OH211273   6.166   2.135   1.011  0.5056  0.1268 -0.0210
 3756TIP3    H111274   6.177   2.150   0.917  1.3332 -1.4048 -0.2009
 3756TIP3    H211275   6.214   2.206   1.053  0.7754  0.3959 -0.7761
 3757TIP3   OH211276   1.523   5.847   0.267 -0.3947 -0.4065  0.1013
 3757TIP3    H111277   1.579   5.919   0.295 -0.5613 -0.1834 -0.1342
 3757TIP3    H211278   1.516   5.857   0.172 -0.8548 -0.4155  0.1309
 3758TIP3   OH211279   1.528   2.527   1.853  0.8433 -0.0468  0.4415
 3758TIP3    H111280   1.516   2.533   1.948  2.2496 -0.0467  0.6401
 3758TIP3    H211281   1.548   2.616   1.825 -1.1612  0.2775 -0.1378
 3759TIP3   OH211282   4.098   4.467   1.654  0.4395  0.4763  0.1445
 3759TIP3    H111283   4.008   4.491   1.676  0.5176  0.9411 -0.0445
 3759TIP3    H211284   4.103   4.374   1.674  0.3099  0.7368  1.4751
 3760TIP3   OH211285   0.694   1.322   1.342 -0.2089  0.7426  0.2738
 3760TIP3    H111286   0.615   1.269   1.329  0.7602 -1.1596  1.7608
 3760TIP3    H211287   0.766   1.264   1.321  0.8674  2.3532 -0.7236
 3761TIP3   OH211288   4.037   0.432   1.027 -0.5366  0.0829  0.2748
 3761TIP3    H111289   4.131   0.418   1.016 -0.2209  1.3153  1.1675
 3761TIP3    H211290   4.030   0.484   1.107 -2.1190 -1.6016  1.3209
 3762TIP3   OH211291   6.213   5.151   1.827  0.1417 -0.4831 -0.3051
 3762TIP3    H111292   6.176   5.187   1.907  1.4180  0.5593 -0.1644
 3762TIP3    H211293   6.285   5.095   1.857  1.9857  1.5412 -0.7644
 3763TIP3   OH211294   0.439   2.876   4.085  0.3582 -0.3459 -0.0337
 3763TIP3    H111295   0.389   2.813   4.034 -0.3414 -1.9987  2.4950
 3763TIP3    H211296   0.392   2.958   4.075 -0.3588 -0.8742 -1.1663
 3764TIP3   OH211297   4.728   3.699   3.804 -0.3880  0.6117 -0.4092
 3764TIP3    H111298   4.697   3.788   3.819 -0.1411  0.7006 -0.4204
 3764TIP3    H211299   4.717   3.685   3.709 -2.5668 -0.1834 -0.1051
 3765TIP3   OH211300   1.799   5.692   2.999  0.4494  0.1107 -0.5637
 3765TIP3    H111301   1.729   5.756   2.985 -0.0388 -0.0464  0.9608
 3765TIP3    H211302   1.758   5.608   2.979 -0.5493 -0.2150  2.4673
 3766TIP3   OH211303   2.145   4.975   1.922  0.3611  0.0477 -0.0888
 3766TIP3    H111304   2.176   5.054   1.876 -0.4486  0.2076 -0.3647
 3766TIP3    H211305   2.050   4.979   1.917  0.2753 -0.3324  0.9552
 3767TIP3   OH211306   2.658   5.580   5.081  0.1547  0.0063  0.3534
 3767TIP3    H111307   2.632   5.494   5.048  0.2521 -0.3015  1.0674
 3767TIP3    H211308   2.654   5.572   5.176 -0.1838  0.9042  0.4254
 3768TIP3   OH211309   0.537   1.365   3.294  0.3104 -0.4046  0.1408
 3768TIP3    H111310   0.583   1.282   3.309 -0.4698 -0.7964  0.4246
 3768TIP3    H211311   0.444   1.340   3.287  0.0301  0.4806  0.5532
 3769TIP3   OH211312   3.242   1.144   3.838 -0.3017  0.3520 -0.1078
 3769TIP3    H111313   3.320   1.138   3.783  0.1536 -1.2682  0.6666
 3769TIP3    H211314   3.206   1.056   3.839 -0.7285  0.5042  1.5535
 3770TIP3   OH211315   2.108   4.866   4.277  0.2237  0.5885  0.2862
 3770TIP3    H111316   2.030   4.811   4.287 -0.4597  1.2549 -1.0908
 3770TIP3    H211317   2.078   4.954   4.297  1.2165  0.5766  2.0500
 3771TIP3   OH211318   4.976   2.825   2.255  0.6099  0.2832 -0.0039
 3771TIP3    H111319   4.978   2.730   2.267 -0.3658 -0.0178 -1.8839
 3771TIP3    H211320   5.059   2.856   2.292  1.9339 -1.5602 -1.2540
 3772TIP3   OH211321   1.286   1.679   0.463  0.0593  0.6378 -0.5678
 3772TIP3    H111322   1.366   1.647   0.504  0.6964 -1.5471 -3.1953
 3772TIP3    H211323   1.224   1.606   0.470 -0.1691  0.6081 -2.4025
 3773TIP3   OH211324   3.858   0.244   1.680  0.0669  0.5868  0.0978
 3773TIP3    H111325   3.816   0.160   1.697 -0.9322  0.3181 -3.0153
 3773TIP3    H211326   3.791   0.310   1.699 -0.4171  0.4076 -0.9080
 3774TIP3   OH211327   0.553   0.560   1.249  0.1151  0.1021 -0.2297
 3774TIP3    H111328   0.575   0.561   1.156  1.0516 -1.1129 -0.0630
 3774TIP3    H211329   0.639   0.556   1.293 -0.3345 -0.3595  0.6333
 3775TIP3   OH211330   4.689   4.394   3.715  0.4177 -0.3841 -0.4435
 3775TIP3    H111331   4.785   4.394   3.709  0.3663 -0.1023 -1.4158
 3775TIP3    H211332   4.671   4.425   3.804  1.2263  0.1010 -0.4333
 3776TIP3   OH211333   1.470   3.325   3.684  0.2695  0.5314  0.3597
 3776TIP3    H111334   1.427   3.239   3.690  3.0320 -0.9553  0.9603
 3776TIP3    H211335   1.409   3.386   3.724 -1.8502 -1.1181 -0.1844
 3777TIP3   OH211336   4.044   5.361   1.584 -0.1532 -0.1089 -0.3160
 3777TIP3    H111337   3.949   5.371   1.589 -0.0895  0.6901 -0.5665
 3777TIP3    H211338   4.069   5.321   1.667 -0.7637 -0.8163 -0.4663
 3778TIP3   OH211339   4.515   2.100   4.310  0.6756  0.0886 -0.1911
 3778TIP3    H111340   4.556   2.029   4.360  2.3513  1.0726 -0.0746
 3778TIP3    H211341   4.432   2.064   4.281  1.0452 -1.5845  0.6771
 3779TIP3   OH211342   2.680   2.560   1.373 -0.2279  0.3394 -0.3138
 3779TIP3    H111343   2.666   2.474   1.413  0.4241  0.4448  0.1620
 3779TIP3    H211344   2.772   2.559   1.346 -0.3003  0.7763 -0.5920
 3780TIP3   OH211345   2.228   5.890   4.403  0.0704  0.1617 -0.4154
 3780TIP3    H111346   2.209   5.811   4.454 -2.2571  0.0653 -1.3315
 3780TIP3    H211347   2.198   5.870   4.315  2.2692  1.0173 -1.4367
 3781TIP3   OH211348   3.311   0.013   2.162 -0.0525  0.7961  0.2278
 3781TIP3    H111349   3.241   0.078   2.155 -0.2400  0.4835 -1.0382
 3781TIP3    H211350   3.392   0.064   2.159 -0.1452  0.9162 -2.5417
 3782TIP3   OH211351   0.278   1.962   0.009 -0.4971 -0.7554  0.6214
 3782TIP3    H111352   0.206   1.950   0.071  0.6521 -3.6092  1.5876
 3782TIP3    H211353   0.357   1.944   0.060  1.1549  3.4154 -0.0995
 3783TIP3   OH211354   0.686   0.133   0.296  0.5672  0.3230  0.0568
 3783TIP3    H111355   0.713   0.090   0.215  0.4119 -0.2667  0.3196
 3783TIP3    H211356   0.618   0.195   0.268 -1.9119 -2.1811  0.1309
 3784TIP3   OH211357   0.320   2.241   3.991  0.3442 -0.3414  0.8199
 3784TIP3    H111358   0.368   2.159   3.994 -0.1988 -0.6393  2.1261
 3784TIP3    H211359   0.242   2.222   3.939  0.5888 -0.4373  0.4868
 3785TIP3   OH211360   0.341   3.825   0.836  0.1129 -0.2369  0.7891
 3785TIP3    H111361   0.404   3.779   0.779 -0.6919 -0.0662 -0.2586
 3785TIP3    H211362   0.304   3.756   0.891  1.2954 -0.3225  1.5167
 3786TIP3   OH211363   5.933   2.133   1.153  0.4984  0.3104  0.4019
 3786TIP3    H111364   5.997   2.157   1.221  1.3887  0.1918 -0.3743
 3786TIP3    H211365   5.986   2.101   1.081 -0.5193 -1.1504  0.2661
 3787TIP3   OH211366   1.795   0.268   2.155  0.2113  0.1187  0.4816
 3787TIP3    H111367   1.718   0.226   2.194 -0.7550  0.1485 -1.2916
 3787TIP3    H211368   1.823   0.207   2.087 -1.6559  2.4732 -2.6736
 3788TIP3   OH211369   4.864   3.282   2.510 -0.2408 -0.1609 -0.3385
 3788TIP3    H111370   4.851   3.310   2.601 -0.8751  0.7963 -0.7024
 3788TIP3    H211371   4.804   3.209   2.499  0.4350 -0.8230  0.2358
 3789TIP3   OH211372   0.165   2.730   0.844  0.3765  0.6845  0.4342
 3789TIP3    H111373   0.170   2.755   0.936 -0.7265  1.8488  0.2000
 3789TIP3    H211374   0.180   2.811   0.796 -0.5990  0.4001 -0.3828
 3790TIP3   OH211375   4.541   2.569   1.465  0.1732  0.4759 -0.2257
 3790TIP3    H111376   4.606   2.632   1.497 -0.7170  0.2054  2.4186
 3790TIP3    H211377   4.569   2.485   1.501  0.1470 -0.2696 -1.8700
 3791TIP3   OH211378   3.931   0.424   0.153 -0.0619  0.7433  0.0288
 3791TIP3    H111379   3.851   0.374   0.139 -0.3497  1.1901  0.0519
 3791TIP3    H211380   3.923   0.457   0.242  1.0517 -0.8071  0.7559
 3792TIP3   OH211381   3.291   0.288   2.433  0.2168 -0.0217  0.0381
 3792TIP3    H111382   3.320   0.374   2.403 -0.5240 -0.3318 -1.7359
 3792TIP3    H211383   3.240   0.253   2.359 -1.1391 -1.1761  1.4539
 3793TIP3   OH211384   3.640   5.656   1.518 -0.0231 -0.0166 -0.1412
 3793TIP3    H111385   3.687   5.737   1.539 -0.2541 -0.2048  1.1605
 3793TIP3    H211386   3.627   5.613   1.602 -1.2931 -0.6580 -0.6401
 3794TIP3   OH211387   6.080   5.981   2.049 -0.3762 -0.1955 -0.0910
 3794TIP3    H111388   6.148   5.950   1.988 -0.7562  0.2119 -0.7340
 3794TIP3    H211389   6.043   5.901   2.086 -0.4402 -0.4688 -0.7326
 3795TIP3   OH211390   2.493   3.910   2.969  0.1064 -0.0124 -0.3954
 3795TIP3    H111391   2.409   3.888   2.929  0.2513 -2.3726  0.4415
 3795TIP3    H211392   2.491   4.005   2.979 -2.7627 -0.0468  0.2272
 3796TIP3   OH211393   1.243   3.280   2.893 -0.3301 -0.0149  0.4653
 3796TIP3    H111394   1.312   3.214   2.898 -1.0367 -0.7290  1.3592
 3796TIP3    H211395   1.218   3.282   2.801 -1.4989 -2.3367  0.6589
 3797TIP3   OH211396   2.581   0.996   3.295  0.3141 -0.4657  0.2501
 3797TIP3    H111397   2.597   0.907   3.262  0.8674 -1.4304  2.9108
 3797TIP3    H211398   2.488   0.997   3.316  0.1508 -0.1427 -0.4541
 3798TIP3   OH211399   0.519   5.547   2.237  0.9220  0.1048 -0.6744
 3798TIP3    H111400   0.563   5.467   2.266 -0.7202 -1.2378 -1.6809
 3798TIP3    H211401   0.526   5.607   2.311  0.4616 -1.7028  0.9048
 3799TIP3   OH211402   3.394   2.626   0.487 -0.1189 -0.1646  0.4700
 3799TIP3    H111403   3.412   2.703   0.541 -0.3703 -0.4194  0.9247
 3799TIP3    H211404   3.392   2.660   0.397  2.2028 -0.0494  0.4015
 3800TIP3   OH211405   4.959   5.259   0.928  0.0882  0.0820 -0.4640
 3800TIP3    H111406   4.955   5.183   0.986 -0.0353  0.1478 -0.3855
 3800TIP3    H211407   4.911   5.232   0.850 -1.6968  0.7577  0.3494
 3801TIP3   OH211408   3.506   2.797   3.928 -0.1164 -0.1248 -0.0263
 3801TIP3    H111409   3.509   2.790   3.833  1.3991 -1.4583  0.0801
 3801TIP3    H211410   3.562   2.872   3.949  1.8377 -1.5099 -0.0816
 3802TIP3   OH211411   4.374   2.093   3.704  0.6346 -0.4513  0.6660
 3802TIP3    H111412   4.393   2.021   3.765  0.2117 -0.7203  0.4854
 3802TIP3    H211413   4.347   2.166   3.759 -0.6211 -0.9654  0.7647
 3803TIP3   OH211414   4.436   5.207   1.611 -0.1368 -0.5574  0.6677
 3803TIP3    H111415   4.350   5.192   1.649 -0.6911 -2.4484 -1.1243
 3803TIP3    H211416   4.469   5.119   1.591  0.5655  0.2295 -2.1134
 3804TIP3   OH211417   1.504   4.274   0.441  0.0614  0.2031 -0.4520
 3804TIP3    H111418   1.548   4.320   0.369  1.5968  0.9987  0.9211
 3804TIP3    H211419   1.462   4.343   0.491 -1.1568 -0.3667 -0.6717
 3805TIP3   OH211420   1.893   3.854   1.756  0.0513 -0.3809  0.3320
 3805TIP3    H111421   1.824   3.908   1.718 -0.7187 -0.6834  1.2665
 3805TIP3    H211422   1.928   3.907   1.827  2.0116  0.5045 -1.2008
 3806TIP3   OH211423   5.723   3.784   2.692 -0.1512 -0.2201 -0.0431
 3806TIP3    H111424   5.736   3.815   2.782 -1.6891  1.9154 -0.5011
 3806TIP3    H211425   5.628   3.782   2.681 -0.1258 -3.5425 -0.6803
 3807TIP3   OH211426   3.008   5.725   3.864  0.9377  0.1919 -0.0025
 3807TIP3    H111427   2.924   5.696   3.828  0.0789  0.9383  1.3110
 3807TIP3    H211428   3.006   5.695   3.955  1.8587  0.6948  0.1889
 3808TIP3   OH211429   4.997   5.704   4.589  0.7817  0.6012  0.0745
 3808TIP3    H111430   4.944   5.762   4.643  1.5523  0.0121  1.5251
 3808TIP3    H211431   5.060   5.665   4.650  1.6478 -0.1515 -1.2443
 3809TIP3   OH211432   2.878   5.093   4.103  0.2089 -0.0109  0.5717
 3809TIP3    H111433   2.808   5.146   4.141 -0.4078 -1.0932  0.9871
 3809TIP3    H211434   2.834   5.035   4.041  0.5227 -1.5480  1.7203
 3810TIP3   OH211435   0.117   2.468   4.370 -0.3046  0.0674 -0.7051
 3810TIP3    H111436   0.196   2.442   4.417 -0.9531 -1.1199 -0.2374
 3810TIP3    H211437   0.114   2.410   4.294  0.4585  1.6270 -1.9961
 3811TIP3   OH211438   4.805   0.655   3.891  0.2055 -0.1378 -0.1921
 3811TIP3    H111439   4.824   0.687   3.803  1.1027 -1.1297 -0.3794
 3811TIP3    H211440   4.844   0.567   3.894 -0.9803 -0.6740  0.7462
 3812TIP3   OH211441   4.318   0.628   0.959 -0.7950  0.5335  0.2019
 3812TIP3    H111442   4.266   0.609   0.880  0.2002 -1.7052  0.0135
 3812TIP3    H211443   4.310   0.549   1.012  1.4333  0.5912  0.6943
 3813TIP3   OH211444   2.597   3.066   0.360 -0.0250  0.1402 -0.0779
 3813TIP3    H111445   2.568   3.124   0.431  1.5501 -0.5917  1.2264
 3813TIP3    H211446   2.658   3.005   0.402  0.7302 -0.5193 -2.0224
 3814TIP3   OH211447   3.110   1.838   4.402 -0.5100  0.1646  0.3908
 3814TIP3    H111448   3.109   1.925   4.362 -0.6786  1.4221  2.9764
 3814TIP3    H211449   3.189   1.837   4.456 -0.9948 -0.9690  1.1084
 3815TIP3   OH211450   3.318   4.523   1.636 -0.4969 -0.5638 -0.0015
 3815TIP3    H111451   3.259   4.450   1.654 -2.4997  1.1198  0.7022
 3815TIP3    H211452   3.280   4.567   1.560 -0.5163  0.8547  0.7750
 3816TIP3   OH211453   1.608   0.188   2.352  0.2295 -0.4150  0.3824
 3816TIP3    H111454   1.551   0.252   2.394  0.5798 -0.7662  1.4278
 3816TIP3    H211455   1.577   0.103   2.384 -0.3957 -0.8222 -1.1803
 3817TIP3   OH211456   3.480   4.176   5.021 -0.3657  0.0464 -0.2622
 3817TIP3    H111457   3.553   4.183   5.083  0.4523  2.2910 -1.3785
 3817TIP3    H211458   3.461   4.082   5.017  1.9427 -0.5260  0.6342
 3818TIP3   OH211459   0.841   2.197   0.705  0.1572  0.0029 -0.3086
 3818TIP3    H111460   0.771   2.262   0.692 -0.4539 -0.2501  1.4597
 3818TIP3    H211461   0.906   2.242   0.758 -0.5869 -0.9695  1.5233
 3819TIP3   OH211462   1.414   0.873   3.948 -0.8909  0.1219  0.1266
 3819TIP3    H111463   1.419   0.824   4.030  0.1016  1.6916  1.0663
 3819TIP3    H211464   1.492   0.847   3.900 -0.7944  0.1590  0.2613
 3820TIP3   OH211465   3.100   2.095   3.005  0.8217 -0.3858 -0.0672
 3820TIP3    H111466   3.035   2.134   2.947  0.3401 -2.7725 -1.2814
 3820TIP3    H211467   3.052   2.026   3.051  2.1841 -1.3526 -0.0339
 3821TIP3   OH211468   4.487   5.011   3.658  0.0564 -0.6465 -0.0540
 3821TIP3    H111469   4.451   4.981   3.741  1.2079 -1.7699  0.0710
 3821TIP3    H211470   4.456   4.947   3.594 -0.6712  0.1082 -0.4808
 3822TIP3   OH211471   1.447   3.069   2.890 -0.0856  0.1036 -0.5842
 3822TIP3    H111472   1.533   3.030   2.872  0.0908  0.8538 -1.4519
 3822TIP3    H211473   1.395   2.997   2.925  0.1759 -0.9754 -2.2928
 3823TIP3   OH211474   2.831   4.205   3.184 -0.2213  0.1958 -0.2773
 3823TIP3    H111475   2.743   4.243   3.187  0.3470  1.5263  0.3122
 3823TIP3    H211476   2.816   4.111   3.187 -1.6321  0.3902 -0.3530
 3824TIP3   OH211477   4.838   3.552   2.241  0.2994  0.4885  0.9513
 3824TIP3    H111478   4.785   3.627   2.211  1.7656  1.2220  0.0718
 3824TIP3    H211479   4.820   3.484   2.176  1.0021  1.0014  0.1923
 3825TIP3   OH211480   5.437   5.595   0.647  0.6475  0.0848 -0.1291
 3825TIP3    H111481   5.434   5.541   0.726  1.9778 -1.0615 -0.8208
 3825TIP3    H211482   5.355   5.645   0.649 -0.9989 -2.4406  0.2024
 3826TIP3   OH211483   4.987   3.601   1.782  0.0798 -0.4716 -0.4782
 3826TIP3    H111484   4.920   3.619   1.716  0.8483  1.0407 -0.8810
 3826TIP3    H211485   4.976   3.670   1.847  1.0527 -0.3784 -0.4001
 3827TIP3   OH211486   4.166   1.428   3.157 -0.2983 -0.2833 -0.3732
 3827TIP3    H111487   4.166   1.454   3.065  0.8431  2.5164  0.3000
 3827TIP3    H211488   4.256   1.400   3.173 -0.7221 -1.6783 -0.2757
 3828TIP3   OH211489   4.500   5.200   4.403  0.2362  0.2131 -0.3569
 3828TIP3    H111490   4.582   5.245   4.388  2.8387 -3.6698  0.6569
 3828TIP3    H211491   4.511   5.158   4.489 -3.2318  0.2830  0.2732
 3829TIP3   OH211492   3.985   4.152   4.370 -0.1100  0.0234 -0.4381
 3829TIP3    H111493   3.967   4.225   4.428  1.8411 -0.0100  0.2576
 3829TIP3    H211494   3.913   4.154   4.307 -1.0346  1.4505  0.5956
 3830TIP3   OH211495   4.490   3.322   1.549 -0.0721  1.0718 -0.0995
 3830TIP3    H111496   4.481   3.318   1.644 -0.4351  0.1009 -0.1605
 3830TIP3    H211497   4.430   3.392   1.522 -0.0038  1.3168  0.3829
 3831TIP3   OH211498   1.127   1.947   1.555  0.2744  0.7767  0.0005
 3831TIP3    H111499   1.166   2.030   1.582  0.1877  1.1112 -0.8582
 3831TIP3    H211500   1.057   1.972   1.494 -0.3809  0.1152  0.4671
 3832TIP3   OH211501   4.636   0.759   2.118 -0.4055 -0.2140 -0.2152
 3832TIP3    H111502   4.578   0.825   2.080 -0.9750 -0.6470 -0.1299
 3832TIP3    H211503   4.602   0.746   2.207  0.3077  0.0809  0.1081
 3833TIP3   OH211504   2.865   0.039   2.333  0.5391 -0.7618 -0.1820
 3833TIP3    H111505   2.947  -0.002   2.306  1.7066  1.4373 -0.1767
 3833TIP3    H211506   2.839   0.094   2.258 -0.3257 -0.5711  0.2390
 3834TIP3   OH211507   0.087   2.598   0.245  0.2046 -0.1414  0.1792
 3834TIP3    H111508   0.123   2.544   0.315 -1.9639 -0.2591  1.2636
 3834TIP3    H211509   0.097   2.544   0.166  1.8140 -0.3865  0.5132
 3835TIP3   OH211510   1.326   2.785   1.927  0.0125  0.0154 -0.2168
 3835TIP3    H111511   1.405   2.822   1.887  1.0935 -2.1708 -0.2371
 3835TIP3    H211512   1.263   2.782   1.855  1.3789 -2.2507 -1.4335
 3836TIP3   OH211513   0.372   2.382   1.611  0.3009  0.3124 -0.2685
 3836TIP3    H111514   0.462   2.367   1.581 -0.0496  0.1843 -1.2898
 3836TIP3    H211515   0.373   2.356   1.703  1.7766  2.1135  0.3022
 3837TIP3   OH211516   5.224   0.265   0.441  0.5233  0.1268 -0.0010
 3837TIP3    H111517   5.204   0.180   0.481  0.5909 -0.9719 -2.0951
 3837TIP3    H211518   5.147   0.319   0.457  1.0590  0.2197  2.6145
 3838TIP3   OH211519   3.309   4.510   3.647 -0.0518 -0.1332 -0.2804
 3838TIP3    H111520   3.336   4.567   3.575 -0.7895 -0.6445 -0.9821
 3838TIP3    H211521   3.214   4.504   3.640 -0.3283  0.9992  1.6792
 3839TIP3   OH211522   0.089   2.298   0.829  0.1873 -0.2116 -0.1812
 3839TIP3    H111523   0.018   2.339   0.780  0.6903  1.7527  0.6371
 3839TIP3    H211524   0.062   2.303   0.920  0.6387 -0.9772  0.0027
 3840TIP3   OH211525   4.393   1.669   5.015 -0.2351 -0.0065  0.4760
 3840TIP3    H111526   4.368   1.602   5.079  0.3460 -1.7117 -0.9891
 3840TIP3    H211527   4.336   1.652   4.939 -0.3311  1.4230  0.1888
 3841TIP3   OH211528   0.398   5.934   1.550 -0.7918 -0.2246  0.5210
 3841TIP3    H111529   0.397   5.961   1.641 -2.0517 -0.3209  0.5642
 3841TIP3    H211530   0.344   5.999   1.505 -0.6532 -0.4977 -0.0500
 3842TIP3   OH211531   3.941   0.542   0.659 -0.6779  0.1145  0.3665
 3842TIP3    H111532   3.934   0.448   0.639  0.6104 -0.0956  0.8603
 3842TIP3    H211533   3.904   0.551   0.747 -0.5895  0.0332  0.4119
 3843TIP3   OH211534   4.498   5.180   4.907 -0.5080  0.1547 -0.2130
 3843TIP3    H111535   4.460   5.111   4.961 -0.1237 -0.6148 -0.9136
 3843TIP3    H211536   4.452   5.260   4.935 -0.1529 -0.1688  1.4128
 3844TIP3   OH211537   5.940   0.233   4.407  0.0825  0.6672  0.0035
 3844TIP3    H111538   5.914   0.323   4.426  2.0883  1.0411  1.2436
 3844TIP3    H211539   5.985   0.204   4.486  2.3709 -0.2716 -1.5428
 3845TIP3   OH211540   3.992   2.138   0.047  0.3374 -0.1671 -0.4261
 3845TIP3    H111541   4.046   2.058   0.048  0.4457 -0.0969 -0.6203
 3845TIP3    H211542   4.016   2.184   0.127 -0.8659 -1.0861  0.5089
 3846TIP3   OH211543   3.637   5.153   0.981  0.1075  0.0464 -0.2014
 3846TIP3    H111544   3.574   5.226   0.984 -0.5717 -0.2695 -3.3562
 3846TIP3    H211545   3.587   5.078   1.013  0.1515  0.5188  1.0415
 3847TIP3   OH211546   3.777   4.633   1.202 -0.2620  0.1127  0.3135
 3847TIP3    H111547   3.738   4.620   1.116 -0.7894 -0.5978  0.6432
 3847TIP3    H211548   3.829   4.713   1.194  0.5637 -0.5232 -0.9595
 3848TIP3   OH211549   1.301   3.038   1.515  0.1748 -0.3475  0.0694
 3848TIP3    H111550   1.235   3.056   1.582 -0.1017  1.0839 -0.5551
 3848TIP3    H211551   1.251   3.029   1.434  0.6063 -0.9305 -0.1392
 3849TIP3   OH211552   2.041   5.011   3.565  0.1048  0.1045 -0.4052
 3849TIP3    H111553   2.110   5.045   3.622 -0.9206 -1.5074  1.9568
 3849TIP3    H211554   2.086   4.946   3.510  0.6997 -0.1256  0.3224
 3850TIP3   OH211555   4.755   2.703   1.567  0.4721 -0.2688 -0.1785
 3850TIP3    H111556   4.709   2.698   1.651 -1.5748  1.4219 -1.0987
 3850TIP3    H211557   4.847   2.716   1.591 -0.3449  2.7725  1.9242
 3851TIP3   OH211558   5.134   4.796   0.523  0.1764  0.2726 -0.3376
 3851TIP3    H111559   5.054   4.803   0.471 -0.6470  1.2268  1.0023
 3851TIP3    H211560   5.164   4.706   0.508 -1.2601 -0.1781 -0.6895
 3852TIP3   OH211561   6.023   1.517   2.203 -0.1649  0.8535  0.2022
 3852TIP3    H111562   5.948   1.495   2.257  0.4136 -0.5655  0.4847
 3852TIP3    H211563   6.024   1.450   2.134  1.6319 -0.0421  1.0336
 3853TIP3   OH211564   4.671   2.588   4.428  0.0843  0.1952  0.6144
 3853TIP3    H111565   4.658   2.511   4.373 -1.3941  1.2541 -0.6140
 3853TIP3    H211566   4.636   2.563   4.514 -1.9029 -0.0059 -0.2148
 3854TIP3   OH211567   2.049   3.812   5.138  0.0638 -0.4220 -0.2920
 3854TIP3    H111568   1.987   3.871   5.181 -0.0367 -1.4569  1.0123
 3854TIP3    H211569   2.049   3.842   5.047 -0.7762  0.9191  0.1101
 3855TIP3   OH211570   0.870   0.152   4.064 -0.3481  0.0967  0.0773
 3855TIP3    H111571   0.899   0.180   3.978  1.0458  0.3344  0.5946
 3855TIP3    H211572   0.843   0.233   4.108 -3.1527 -0.2500 -0.8252
 3856TIP3   OH211573   4.465   4.487   4.787  0.0003  0.1252  0.6350
 3856TIP3    H111574   4.534   4.553   4.779 -1.0423  1.1005 -0.8153
 3856TIP3    H211575   4.399   4.529   4.843 -0.5346  0.2304 -0.0571
 3857TIP3   OH211576   3.854   3.841   2.369  0.7330 -0.0180 -0.0936
 3857TIP3    H111577   3.838   3.747   2.359 -0.6005  0.0552  1.0538
 3857TIP3    H211578   3.851   3.856   2.464  0.1215  1.3198 -0.3021
 3858TIP3   OH211579   1.460   0.674   4.119 -0.0930 -0.6448 -0.0306
 3858TIP3    H111580   1.438   0.681   4.212 -0.8796 -0.7075 -0.2072
 3858TIP3    H211581   1.506   0.591   4.112  0.3500 -0.4384  0.3730
 3859TIP3   OH211582   5.544   1.097   1.329  0.1320 -0.2851  0.4570
 3859TIP3    H111583   5.495   1.152   1.269  1.0739 -1.0219 -1.0493
 3859TIP3    H211584   5.565   1.154   1.403  1.3249  1.5149 -1.1700
 3860TIP3   OH211585   5.409   1.010   1.624 -0.1922 -0.4057 -0.1158
 3860TIP3    H111586   5.463   1.089   1.621 -1.3243  0.7564  3.8075
 3860TIP3    H211587   5.335   1.029   1.565  1.4192 -0.2677 -2.2080
 3861TIP3   OH211588   5.559   4.371   3.156 -0.2039 -0.0288  0.2198
 3861TIP3    H111589   5.502   4.411   3.090 -1.6120 -0.0919  1.3655
 3861TIP3    H211590   5.587   4.444   3.212  0.6689 -0.0376 -0.1781
 3862TIP3   OH211591   1.563   1.694   0.912  0.0657 -0.7594  0.3867
 3862TIP3    H111592   1.519   1.663   0.833 -1.2592 -0.4988  1.0090
 3862TIP3    H211593   1.583   1.786   0.894 -0.1824 -0.7157  0.3439
 3863TIP3   OH211594   0.954   3.155   2.567 -0.4699  0.4677 -0.4361
 3863TIP3    H111595   1.024   3.138   2.504  2.5648 -0.4454  2.8615
 3863TIP3    H211596   0.985   3.231   2.617 -0.8542 -0.9915  2.2332
 3864TIP3   OH211597   3.322   3.150   0.711  0.1068  0.0472 -0.3202
 3864TIP3    H111598   3.300   3.242   0.724 -2.2061 -0.5669  0.5716
 3864TIP3    H211599   3.278   3.104   0.782  1.0194 -1.7882 -0.8724
 3865TIP3   OH211600   5.316   4.160   1.722 -0.1515 -0.1426 -0.1358
 3865TIP3    H111601   5.357   4.178   1.637 -0.8070 -3.2041 -1.2365
 3865TIP3    H211602   5.222   4.164   1.703 -0.2998 -1.5875  0.2245
 3866TIP3   OH211603   4.081   0.660   3.333  0.0644 -0.1605 -0.0691
 3866TIP3    H111604   4.173   0.635   3.324  0.2130  0.6490 -0.9938
 3866TIP3    H211605   4.059   0.701   3.249 -0.4719  1.7766  0.9545
 3867TIP3   OH211606   2.418   5.246   4.067  0.2407  0.4177 -0.0334
 3867TIP3    H111607   2.399   5.158   4.098  1.1566  0.2478  0.0523
 3867TIP3    H211608   2.466   5.234   3.985 -1.6859  0.8575 -1.3098
 3868TIP3   OH211609   2.316   4.797   4.780  0.1686 -0.5807 -0.0086
 3868TIP3    H111610   2.285   4.711   4.806 -1.0126 -0.1128  0.2127
 3868TIP3    H211611   2.304   4.799   4.685  1.0447 -0.9732 -0.1355
 3869TIP3   OH211612   5.399   2.633   4.497 -0.0864  0.1516  0.0780
 3869TIP3    H111613   5.426   2.685   4.572  1.7473 -0.3228 -0.2107
 3869TIP3    H211614   5.463   2.653   4.430 -1.2840  0.0136 -1.1531
 3870TIP3   OH211615   0.834   4.033   2.152 -0.0901 -0.5477  0.2176
 3870TIP3    H111616   0.867   3.963   2.095  1.2618 -0.0391  0.3250
 3870TIP3    H211617   0.741   4.038   2.133  0.3300 -0.3469 -2.0036
 3871TIP3   OH211618   4.667   2.393   3.055  0.1149  0.0181  0.1407
 3871TIP3    H111619   4.695   2.481   3.032 -1.9140  0.9917  1.1718
 3871TIP3    H211620   4.577   2.386   3.022  0.5758 -2.0788 -0.8718
 3872TIP3   OH211621   5.714   2.746   3.387 -0.6495 -0.2166 -0.4634
 3872TIP3    H111622   5.662   2.784   3.316  1.1207  0.8528 -1.2460
 3872TIP3    H211623   5.684   2.791   3.466  0.7303  2.2512 -1.2386
 3873TIP3   OH211624   4.355   3.326   4.164 -0.3622  0.3595 -0.1162
 3873TIP3    H111625   4.304   3.398   4.202  0.4942  1.3237 -0.7288
 3873TIP3    H211626   4.347   3.255   4.228 -0.1999  1.4210  1.1435
 3874TIP3   OH211627   4.948   3.527   0.665  0.0783  0.4362  0.2333
 3874TIP3    H111628   4.882   3.457   0.664 -0.1404  0.6140 -1.9070
 3874TIP3    H211629   4.948   3.558   0.756 -0.7979 -1.4028  0.9262
 3875TIP3   OH211630   2.403   1.903   2.846 -0.2833 -0.0501 -0.3256
 3875TIP3    H111631   2.467   1.894   2.916 -0.2028 -0.9146 -0.5036
 3875TIP3    H211632   2.408   1.821   2.797 -0.0016  0.7066 -1.6397
 3876TIP3   OH211633   2.592   1.484   2.915 -0.5907  0.1554 -0.4903
 3876TIP3    H111634   2.575   1.395   2.945 -1.4925  0.7295  0.7999
 3876TIP3    H211635   2.507   1.517   2.887 -0.2512  0.5950 -1.0371
 3877TIP3   OH211636   2.918   3.197   1.624  0.0903  0.1701 -0.3416
 3877TIP3    H111637   2.938   3.265   1.688 -0.3587  1.2305 -1.2902
 3877TIP3    H211638   2.954   3.231   1.541 -0.7468 -0.4214 -0.9624
 3878TIP3   OH211639   3.822   0.777   0.896  0.4545  0.2382 -0.0770
 3878TIP3    H111640   3.808   0.687   0.927 -0.7774  0.1252 -0.9016
 3878TIP3    H211641   3.790   0.777   0.806 -0.6876  1.7877  0.2919
 3879TIP3   OH211642   0.303   3.103   4.091  0.3533 -0.0845 -0.0955
 3879TIP3    H111643   0.326   3.143   4.175  0.5697 -0.3573 -0.0227
 3879TIP3    H211644   0.356   3.149   4.027 -0.8521  1.1148 -0.2850
 3880TIP3   OH211645   1.262   4.786   0.386 -0.1238  0.5857  0.3813
 3880TIP3    H111646   1.194   4.850   0.365 -0.2567  1.1359  2.3331
 3880TIP3    H211647   1.233   4.746   0.468  0.7019 -0.9564 -0.0331
 3881TIP3   OH211648   0.816   3.341   0.783 -0.4297  0.4739  0.7279
 3881TIP3    H111649   0.784   3.404   0.718  1.7137  1.4973  0.5829
 3881TIP3    H211650   0.749   3.342   0.851 -1.7309  0.9163 -0.4947
 3882TIP3   OH211651   4.538   4.438   1.143  0.1196 -0.0549 -0.5958
 3882TIP3    H111652   4.585   4.519   1.123  1.5505 -0.5124  0.7268
 3882TIP3    H211653   4.465   4.436   1.080 -0.7329  2.8735  0.1497
 3883TIP3   OH211654   6.184   3.046   2.539 -0.0786 -0.9158  0.7902
 3883TIP3    H111655   6.218   3.128   2.502 -1.0351 -0.5298  0.7233
 3883TIP3    H211656   6.214   2.978   2.479  0.9653 -0.6565  0.9989
 3884TIP3   OH211657   0.935   0.847   3.565  0.1236  0.1873 -0.5103
 3884TIP3    H111658   0.863   0.805   3.612  0.9399 -0.9441 -0.2379
 3884TIP3    H211659   0.908   0.843   3.473 -0.8038  1.0818 -0.2987
 3885TIP3   OH211660   6.199   5.885   1.189  0.1142  0.4790  0.3160
 3885TIP3    H111661   6.271   5.926   1.141  0.5787  0.1641  0.7359
 3885TIP3    H211662   6.240   5.844   1.265  0.1020 -3.0217 -1.3460
 3886TIP3   OH211663   2.329   3.607   4.423 -1.0236  0.1916  0.0511
 3886TIP3    H111664   2.333   3.591   4.517 -0.4678  2.2117  0.4160
 3886TIP3    H211665   2.317   3.702   4.415 -0.3833  0.1562 -1.9220
 3887TIP3   OH211666   1.462   5.450   1.176  0.1664 -0.0346 -0.1665
 3887TIP3    H111667   1.532   5.451   1.111 -0.2714  0.2997 -0.6400
 3887TIP3    H211668   1.382   5.453   1.124 -0.1891  0.1660  0.3909
 3888TIP3   OH211669   2.385   2.514   5.075  0.1060 -0.9559  0.0368
 3888TIP3    H111670   2.443   2.439   5.083  0.3715 -0.6422  1.1633
 3888TIP3    H211671   2.317   2.499   5.141 -0.3036 -0.6167 -0.3026
 3889TIP3   OH211672   3.750   2.994   3.754  0.2521 -0.2095 -0.1667
 3889TIP3    H111673   3.747   2.900   3.736 -0.5021  0.0276 -1.4142
 3889TIP3    H211674   3.685   3.007   3.823 -0.0019 -0.5388 -0.3393
 3890TIP3   OH211675   6.109   0.799   2.698 -0.3929  0.3012 -0.4056
 3890TIP3    H111676   6.061   0.752   2.765  1.0930 -0.4365  0.1807
 3890TIP3    H211677   6.140   0.878   2.741 -0.2018  0.2660 -0.4754
 3891TIP3   OH211678   2.371   0.668   1.079 -0.4395  0.1540 -0.0137
 3891TIP3    H111679   2.328   0.595   1.035 -2.3299  0.9675  0.3771
 3891TIP3    H211680   2.339   0.746   1.034  0.9487  0.8000  0.0659
 3892TIP3   OH211681   2.588   0.099   0.778  0.0748  0.1194 -0.1167
 3892TIP3    H111682   2.502   0.116   0.738  0.1296  0.0911 -0.2467
 3892TIP3    H211683   2.642   0.173   0.750 -0.1324  0.5702  0.6338
 3893TIP3   OH211684   1.761   4.141   0.561  0.4712  0.3889  0.6787
 3893TIP3    H111685   1.682   4.154   0.508  0.7283  1.3498  0.5115
 3893TIP3    H211686   1.831   4.178   0.508  0.8188  0.8241  1.4363
 3894TIP3   OH211687   5.602   1.860   2.702  0.0281  0.1731  0.6607
 3894TIP3    H111688   5.540   1.889   2.635 -0.0859 -1.4483  0.0201
 3894TIP3    H211689   5.680   1.913   2.686  0.0895 -0.3429 -0.9672
 3895TIP3   OH211690   5.696   0.819   3.407 -0.1274  0.1782  0.1220
 3895TIP3    H111691   5.749   0.740   3.409 -0.3853  0.0145  1.1688
 3895TIP3    H211692   5.605   0.788   3.414 -0.5978  0.3226 -3.3849
 3896TIP3   OH211693   3.269   1.601   5.092 -0.4240 -0.3458 -0.1474
 3896TIP3    H111694   3.333   1.539   5.058  0.3895  0.4266 -0.0736
 3896TIP3    H211695   3.261   1.578   5.185 -0.7943 -0.8964 -0.3138
 3897TIP3   OH211696   2.703   5.582   0.342 -0.7331 -0.0630  0.0378
 3897TIP3    H111697   2.674   5.553   0.428  2.0743 -0.3552  0.9795
 3897TIP3    H211698   2.714   5.676   0.350 -0.4837 -0.0873 -0.0106
 3898TIP3   OH211699   6.331   5.742   1.360  0.7201 -0.2414  0.3968
 3898TIP3    H111700   6.299   5.693   1.435  0.8685 -0.0838  0.5661
 3898TIP3    H211701   6.370   5.676   1.303  0.2733 -0.4080  0.2812
 3899TIP3   OH211702   5.001   4.239   1.171 -0.0536 -0.7783  0.5769
 3899TIP3    H111703   5.022   4.261   1.262 -0.0561  1.3989  0.1164
 3899TIP3    H211704   5.064   4.290   1.119 -1.1489 -0.6100 -0.6539
 3900TIP3   OH211705   3.289   2.600   3.578 -0.2267  0.0166 -0.1437
 3900TIP3    H111706   3.357   2.543   3.540 -0.3419  0.0577 -0.4166
 3900TIP3    H211707   3.235   2.626   3.503  0.3077  1.1553 -0.1440
 3901TIP3   OH211708   1.335   2.800   0.741 -0.1850  0.2475 -0.2215
 3901TIP3    H111709   1.370   2.889   0.750  0.2724  0.2802 -1.9135
 3901TIP3    H211710   1.240   2.811   0.736 -0.3303  0.3757  2.1299
 3902TIP3   OH211711   5.048   3.405   2.296 -0.5096 -0.0932  0.6417
 3902TIP3    H111712   5.015   3.327   2.251 -0.8906  0.4978 -0.1222
 3902TIP3    H211713   4.981   3.472   2.281  0.8522  1.0502 -0.6797
 3903TIP3   OH211714   3.551   4.884   5.092 -0.1316  0.1590 -0.1555
 3903TIP3    H111715   3.482   4.950   5.103 -1.2849 -1.3553  3.1509
 3903TIP3    H211716   3.513   4.819   5.034 -1.1345 -0.1185  0.7716
 3904TIP3   OH211717   1.700   4.826   4.532  0.3479  0.2429 -0.0836
 3904TIP3    H111718   1.791   4.842   4.559  0.5528  0.4487 -0.8693
 3904TIP3    H211719   1.649   4.891   4.579  0.5773 -0.0159  0.5361
 3905TIP3   OH211720   2.016   1.613   2.196 -0.0042 -0.0710  0.6078
 3905TIP3    H111721   2.020   1.579   2.286  2.0134 -0.3219  0.4845
 3905TIP3    H211722   2.046   1.704   2.203 -0.2341  0.0331  0.2510
 3906TIP3   OH211723   5.022   1.950   1.708  0.0331 -0.0192 -0.8400
 3906TIP3    H111724   5.062   1.863   1.714  2.1389  0.9565  0.7998
 3906TIP3    H211725   5.092   2.006   1.674  0.9003  2.0703  3.6144
 3907TIP3   OH211726   0.395   5.109   1.027  0.1948  0.5702 -0.3260
 3907TIP3    H111727   0.318   5.105   1.084 -1.2366 -0.3002 -2.2501
 3907TIP3    H211728   0.468   5.085   1.085 -1.0906  0.3185  1.2771
 3908TIP3   OH211729   0.595   4.728   1.942 -0.0857 -0.2606 -0.2126
 3908TIP3    H111730   0.620   4.665   1.875  0.5848  1.6156 -1.8393
 3908TIP3    H211731   0.595   4.678   2.024  3.0436 -1.7587 -0.9798
 3909TIP3   OH211732   2.451   0.910   0.572 -0.6445  0.7703  0.2637
 3909TIP3    H111733   2.419   0.933   0.485  2.2636  0.0495 -1.1461
 3909TIP3    H211734   2.413   0.825   0.591 -2.5191  1.5984  0.4527
 3910TIP3   OH211735   0.490   1.087   1.576  0.2543  0.3613  0.1310
 3910TIP3    H111736   0.428   1.155   1.549 -0.1207 -0.9369 -2.6662
 3910TIP3    H211737   0.572   1.112   1.533  0.1405 -0.8262 -0.8365
 3911TIP3   OH211738   5.177   0.688   4.679 -0.0159 -0.2480 -0.7782
 3911TIP3    H111739   5.248   0.689   4.616  1.0489 -0.7438  0.3843
 3911TIP3    H211740   5.205   0.747   4.749  0.0375 -1.7264  0.4997
 3912TIP3   OH211741   2.341   5.338   4.875  0.2752 -0.1575  0.2928
 3912TIP3    H111742   2.408   5.391   4.832 -1.1953  0.8445 -0.8586
 3912TIP3    H211743   2.291   5.300   4.803  0.6602 -2.3488  1.1102
 3913TIP3   OH211744   5.529   3.026   1.009 -0.0926 -0.4949 -0.2843
 3913TIP3    H111745   5.591   3.097   0.996  0.4422 -0.4183  2.2532
 3913TIP3    H211746   5.443   3.068   1.001  0.2109  0.2205  0.1318
 3914TIP3   OH211747   2.424   2.463   0.258 -0.4481  0.0595  0.7484
 3914TIP3    H111748   2.475   2.544   0.253 -0.7010  0.1851  0.1185
 3914TIP3    H211749   2.355   2.482   0.321  1.1927 -0.6381  2.8735
 3915TIP3   OH211750   5.551   2.859   3.211 -0.6488 -0.3304  0.4603
 3915TIP3    H111751   5.541   2.954   3.221 -0.4403 -0.2369 -0.2021
 3915TIP3    H211752   5.477   2.833   3.157 -1.0926 -0.6572  1.2034
 3916TIP3   OH211753   3.088   0.970   5.042 -0.2145 -0.8424 -0.1559
 3916TIP3    H111754   3.128   1.056   5.032  0.0479 -1.0422 -0.8385
 3916TIP3    H211755   3.149   0.921   5.097  0.8329 -1.3507 -1.6997
 3917TIP3   OH211756   3.691   1.393   1.056  0.0796 -0.7814  0.1172
 3917TIP3    H111757   3.728   1.478   1.033 -0.9690 -0.9696 -2.5464
 3917TIP3    H211758   3.766   1.343   1.090  0.7508  1.0755  1.5428
 3918TIP3   OH211759   2.571   4.586   5.071 -0.0734 -0.0881 -0.2849
 3918TIP3    H111760   2.664   4.592   5.094 -0.1605  0.2883 -0.0190
 3918TIP3    H211761   2.525   4.597   5.155 -0.3419 -0.9577 -0.3143
 3919TIP3   OH211762   1.887   3.559   4.518 -0.4926 -0.2444  0.3545
 3919TIP3    H111763   1.935   3.518   4.446 -1.4516  0.6000 -0.8018
 3919TIP3    H211764   1.949   3.621   4.556 -0.2135 -0.1742 -0.2129
 3920TIP3   OH211765   1.168   3.609   4.291  0.2937  0.7788  0.3899
 3920TIP3    H111766   1.248   3.582   4.336  0.3873 -0.4402 -0.4539
 3920TIP3    H211767   1.155   3.701   4.316  1.6163  0.8058  1.0190
 3921TIP3   OH211768   2.751   5.411   1.539  0.0881  0.1701  0.2983
 3921TIP3    H111769   2.682   5.384   1.478  1.0904 -0.2227 -0.7039
 3921TIP3    H211770   2.789   5.488   1.498  0.7802 -0.1022  0.4205
 3922TIP3   OH211771   0.172   2.016   0.901  0.1343 -0.2621  0.0889
 3922TIP3    H111772   0.093   1.965   0.880  1.2447 -0.8827 -3.0575
 3922TIP3    H211773   0.148   2.106   0.880  0.1722 -0.4083 -0.5891
 3923TIP3   OH211774   3.711   0.329   4.006  0.4010  0.3554 -0.8999
 3923TIP3    H111775   3.753   0.366   3.928  1.0881  0.8239 -0.3168
 3923TIP3    H211776   3.741   0.384   4.078 -0.4261  0.0747 -0.3320
 3924TIP3   OH211777   1.124   4.356   2.464 -0.0062  0.9467  0.7914
 3924TIP3    H111778   1.188   4.299   2.421  1.0576  2.4159  0.3536
 3924TIP3    H211779   1.078   4.298   2.524 -0.6651 -0.9224 -1.3598
 3925TIP3   OH211780   0.516   2.897   3.290 -0.0666 -0.2525  0.1859
 3925TIP3    H111781   0.582   2.958   3.322 -0.3277 -1.2823  2.9021
 3925TIP3    H211782   0.565   2.829   3.244  0.6037 -0.0728  0.6264
 3926TIP3   OH211783   4.713   6.006   1.704  0.0704  0.4870  0.3312
 3926TIP3    H111784   4.681   5.918   1.724 -1.0358  0.8627  0.2526
 3926TIP3    H211785   4.804   5.992   1.675 -0.2174 -0.6636 -0.0833
 3927TIP3   OH211786   5.855   0.741   0.680 -0.5041  0.3009 -0.2626
 3927TIP3    H111787   5.915   0.681   0.724 -1.0217  0.4022  0.6054
 3927TIP3    H211788   5.885   0.828   0.706  1.2213  0.5558 -2.7629
 3928TIP3   OH211789   0.650   0.692   5.097 -0.7103  0.0399  0.1050
 3928TIP3    H111790   0.658   0.624   5.164 -0.3530  1.6109  1.7410
 3928TIP3    H211791   0.570   0.670   5.049 -0.5140 -1.5938  0.4822
 3929TIP3   OH211792   0.578   3.442   1.983 -0.0472 -0.0886 -0.0499
 3929TIP3    H111793   0.576   3.350   2.007  0.3780  0.2700  1.5168
 3929TIP3    H211794   0.497   3.456   1.934 -0.2266 -1.2465 -0.1110
 3930TIP3   OH211795   3.327   0.833   0.839 -0.7370  0.4231  0.2786
 3930TIP3    H111796   3.299   0.742   0.844 -3.5428  1.2542  3.0681
 3930TIP3    H211797   3.265   0.875   0.780 -0.2312  0.7772 -0.0108
 3931TIP3   OH211798   1.629   5.330   3.233 -0.3640  1.0408  0.1118
 3931TIP3    H111799   1.548   5.380   3.243 -0.3765  0.9251  0.6036
 3931TIP3    H211800   1.642   5.288   3.318  0.1852  1.0187  0.0207
 3932TIP3   OH211801   3.062   3.633   1.183  0.0398  0.0933  1.1457
 3932TIP3    H111802   2.996   3.681   1.133 -0.1027 -0.1591  1.0890
 3932TIP3    H211803   3.052   3.664   1.273  0.9651  1.2922  0.8622
 3933TIP3   OH211804   0.974   4.069   4.617 -0.0382  0.2319 -0.3506
 3933TIP3    H111805   0.967   4.139   4.682 -0.1534 -0.4780  0.4346
 3933TIP3    H211806   0.959   4.111   4.533 -0.9124  0.9975  0.1780
 3934TIP3   OH211807   1.182   4.528   4.264 -0.0681 -0.2241  0.2393
 3934TIP3    H111808   1.257   4.472   4.282 -0.4172 -0.5923  0.5750
 3934TIP3    H211809   1.191   4.601   4.326  0.2405 -0.0383 -0.0169
 3935TIP3   OH211810   3.183   4.178   1.168 -0.3442  0.3900 -0.1565
 3935TIP3    H111811   3.088   4.172   1.164 -0.3326  0.2713 -0.2544
 3935TIP3    H211812   3.211   4.099   1.214 -0.2223 -0.0927 -1.0439
 3936TIP3   OH211813   2.436   2.637   2.271  0.2057  0.3515 -0.0963
 3936TIP3    H111814   2.385   2.563   2.238 -0.4874  1.2067 -1.0062
 3936TIP3    H211815   2.521   2.629   2.228  1.2899 -1.6585  2.1932
 3937TIP3   OH211816   2.599   4.202   2.324  0.5286  0.2290 -0.6106
 3937TIP3    H111817   2.526   4.178   2.382  0.9357 -2.5765 -1.1032
 3937TIP3    H211818   2.669   4.228   2.384 -0.0943  0.6072 -0.0213
 3938TIP3   OH211819   1.466   0.845   1.200  0.5309  0.1943 -0.4474
 3938TIP3    H111820   1.418   0.886   1.128 -0.6356  0.5340  0.5111
 3938TIP3    H211821   1.400   0.824   1.265  1.3685 -1.4687 -0.0755
 3939TIP3   OH211822   1.419   1.131   2.624 -0.1767 -0.3602 -0.0248
 3939TIP3    H111823   1.424   1.061   2.558 -0.8236 -0.5057  0.0747
 3939TIP3    H211824   1.504   1.175   2.618  2.0478 -3.7108  2.7837
 3940TIP3   OH211825   0.935   5.102   3.188 -0.0095  0.5068  0.2789
 3940TIP3    H111826   0.915   5.186   3.146 -0.0186  0.7734  0.8021
 3940TIP3    H211827   0.891   5.037   3.134 -0.9403  0.9416  0.4915
 3941TIP3   OH211828   4.080   5.603   1.785 -0.5145 -0.2648 -0.1622
 3941TIP3    H111829   4.030   5.648   1.716 -0.4222 -0.3881 -0.3093
 3941TIP3    H211830   4.159   5.572   1.741 -0.1496  0.2160  0.1426
 3942TIP3   OH211831   2.001   3.494   3.097 -0.4251  0.1421 -0.0322
 3942TIP3    H111832   1.934   3.454   3.153 -0.5508  0.1162 -0.2014
 3942TIP3    H211833   2.026   3.424   3.036 -1.5915  0.7103 -1.1894
 3943TIP3   OH211834   4.749   3.959   5.020 -0.6219  0.0561 -0.2465
 3943TIP3    H111835   4.766   3.965   4.926  0.0890 -1.7393 -0.2733
 3943TIP3    H211836   4.723   3.868   5.034 -1.1994  0.4129  1.2368
 3944TIP3   OH211837   0.960   4.479   0.143  0.1919 -0.3006  0.0508
 3944TIP3    H111838   1.012   4.518   0.072 -2.6199  1.2025 -1.3469
 3944TIP3    H211839   0.908   4.552   0.177 -1.8121 -1.8940  0.5829
 3945TIP3   OH211840   2.930   5.686   1.100 -0.0276 -0.1772 -0.4375
 3945TIP3    H111841   2.949   5.775   1.071  1.5598 -0.2851  0.1628
 3945TIP3    H211842   2.844   5.666   1.063 -0.7107  1.8272 -0.0621
 3946TIP3   OH211843   4.416   4.799   3.502 -0.2107 -0.1185  0.4781
 3946TIP3    H111844   4.450   4.721   3.460  2.5731  0.4443  1.4384
 3946TIP3    H211845   4.438   4.788   3.595  2.1480  2.5469  0.4030
 3947TIP3   OH211846   5.449   3.749   2.436  0.4170 -0.0865 -0.9745
 3947TIP3    H111847   5.435   3.821   2.497 -1.7109 -1.9368  0.9076
 3947TIP3    H211848   5.368   3.744   2.386 -0.6105 -2.7337  0.7790
 3948TIP3   OH211849   2.217   4.651   0.964  0.0213  0.1585 -0.2024
 3948TIP3    H111850   2.222   4.559   0.938 -1.1373  0.0610 -0.1326
 3948TIP3    H211851   2.216   4.700   0.882  0.2321  0.0876 -0.2473
 3949TIP3   OH211852   3.478   2.626   2.498 -0.0339 -0.0636 -0.1786
 3949TIP3    H111853   3.510   2.616   2.588 -2.8263  1.7367  1.1665
 3949TIP3    H211854   3.433   2.544   2.479 -0.5185  0.0075  0.6067
 3950TIP3   OH211855   5.133   1.709   1.631 -0.7152 -0.0590  0.7055
 3950TIP3    H111856   5.216   1.664   1.611 -0.8347  0.5652 -1.4348
 3950TIP3    H211857   5.068   1.639   1.636 -0.5628 -0.3231 -0.6652
 3951TIP3   OH211858   4.836   4.631   0.553  0.4543  0.4522  0.4486
 3951TIP3    H111859   4.760   4.680   0.583  1.1035  1.3742  0.6364
 3951TIP3    H211860   4.868   4.680   0.477  1.9223  1.1090  1.4707
 3952TIP3   OH211861   3.082   4.308   1.896  0.4422 -0.0871  0.3912
 3952TIP3    H111862   3.032   4.310   1.977 -1.1619  0.7677 -0.5712
 3952TIP3    H211863   3.058   4.224   1.856 -0.4016  0.4204 -0.1740
 3953TIP3   OH211864   4.092   4.708   1.104  0.5829  0.9106  0.0330
 3953TIP3    H111865   4.034   4.776   1.141 -0.1581  1.5962 -2.2362
 3953TIP3    H211866   4.154   4.757   1.050  0.2156 -0.1787 -1.4152
 3954TIP3   OH211867   4.236   0.572   4.413 -0.2909 -0.3351  0.1031
 3954TIP3    H111868   4.184   0.639   4.368  1.1581  0.7520 -0.0266
 3954TIP3    H211869   4.224   0.493   4.359 -0.1129  0.4449 -1.1273
 3955TIP3   OH211870   5.047   2.431   1.017 -0.2635  0.2291 -0.6589
 3955TIP3    H111871   5.064   2.427   1.111 -0.4879 -0.9433 -0.6550
 3955TIP3    H211872   5.087   2.352   0.982 -2.4512 -0.7226 -1.1744
 3956TIP3   OH211873   5.518   0.738   0.405 -0.0937  0.5078 -0.4564
 3956TIP3    H111874   5.424   0.726   0.395 -0.0353  0.7257 -1.3447
 3956TIP3    H211875   5.526   0.801   0.477 -0.5250 -1.2896  1.2273
 3957TIP3   OH211876   2.369   4.688   2.310 -0.4771 -0.4473  0.2202
 3957TIP3    H111877   2.348   4.706   2.219 -2.6695 -1.1664  0.5224
 3957TIP3    H211878   2.389   4.774   2.347 -2.1760  0.2476 -0.3699
 3958TIP3   OH211879   0.852   0.554   4.610  0.3311  0.1898  0.2116
 3958TIP3    H111880   0.802   0.549   4.692 -0.8719 -0.2148 -0.5141
 3958TIP3    H211881   0.821   0.635   4.568  0.2615 -0.0728 -0.2534
 3959TIP3   OH211882   1.998   0.382   1.695  0.6662  0.1890  0.5386
 3959TIP3    H111883   1.926   0.355   1.752 -0.5376  2.8122  0.3908
 3959TIP3    H211884   2.077   0.351   1.740 -0.3355  0.9015  2.9195
 3960TIP3   OH211885   2.907   5.462   0.880  0.4522 -0.1992 -0.0090
 3960TIP3    H111886   2.825   5.496   0.915 -0.3977 -2.0694 -0.0364
 3960TIP3    H211887   2.881   5.381   0.835  2.4032 -1.1404  0.4858
 3961TIP3   OH211888   0.004   0.249   4.143  0.0020  0.2633  0.0360
 3961TIP3    H111889  -0.071   0.283   4.191 -0.6131 -0.9696 -0.0141
 3961TIP3    H211890   0.077   0.258   4.203 -0.1051  1.7298 -0.0100
 3962TIP3   OH211891   6.301   4.842   3.846 -0.4461 -0.8090  0.3023
 3962TIP3    H111892   6.320   4.763   3.897 -1.6141 -1.6046 -0.4321
 3962TIP3    H211893   6.269   4.905   3.910  0.3975 -0.9564  0.8855
 3963TIP3   OH211894   2.676   4.484   1.683 -0.5618  0.3763 -0.1360
 3963TIP3    H111895   2.656   4.537   1.606 -1.6397  1.0868  0.6144
 3963TIP3    H211896   2.758   4.521   1.717 -0.2504  0.2598 -0.7436
 3964TIP3   OH211897   5.149   2.185   3.413 -0.7436  0.8548 -0.5697
 3964TIP3    H111898   5.075   2.193   3.473 -1.1604 -2.7227 -0.3437
 3964TIP3    H211899   5.221   2.153   3.468 -0.4660 -0.2950 -1.5491
 3965TIP3   OH211900   2.078   0.409   4.549 -0.2440 -0.0271  0.4956
 3965TIP3    H111901   1.991   0.435   4.521 -0.0680  1.0059  0.8631
 3965TIP3    H211902   2.119   0.490   4.579  2.0444  0.2278 -2.7168
 3966TIP3   OH211903   2.210   5.501   5.113 -0.2347 -0.1238  0.1412
 3966TIP3    H111904   2.119   5.524   5.094 -1.6350 -4.4768  0.5356
 3966TIP3    H211905   2.246   5.472   5.029  0.4261  0.3918  0.2341
 3967TIP3   OH211906   2.466   2.008   4.763  0.0703 -0.3149  0.5810
 3967TIP3    H111907   2.424   2.026   4.847  0.7800  0.9995  0.6964
 3967TIP3    H211908   2.560   2.010   4.783  0.4618  3.4492 -0.7145
 3968TIP3   OH211909   1.491   3.205   3.969  0.1761 -0.2698 -0.1152
 3968TIP3    H111910   1.471   3.256   3.890  0.9935 -0.8697 -0.7353
 3968TIP3    H211911   1.501   3.115   3.937 -0.7906 -0.7516  0.8889
 3969TIP3   OH211912   0.766   5.766   0.461 -0.5481 -0.3577 -0.0154
 3969TIP3    H111913   0.714   5.788   0.538 -0.9252  0.9624 -0.6265
 3969TIP3    H211914   0.739   5.677   0.438  0.3353 -1.1890  1.9810
 3970TIP3   OH211915   3.096   1.363   2.175 -0.0052  0.9741  0.2791
 3970TIP3    H111916   3.037   1.387   2.103 -0.3194  0.5454  0.3879
 3970TIP3    H211917   3.047   1.299   2.226  1.7787 -2.1943 -1.6099
 3971TIP3   OH211918   3.065   1.258   1.544  0.1916 -0.2535 -0.2056
 3971TIP3    H111919   3.035   1.348   1.535  0.0355 -0.1614  1.0664
 3971TIP3    H211920   3.157   1.265   1.568  0.5274 -0.4790 -1.3545
 3972TIP3   OH211921   0.750   3.637   4.360  0.0834  0.2215  0.3805
 3972TIP3    H111922   0.791   3.718   4.390  0.3661  0.0065  0.5800
 3972TIP3    H211923   0.783   3.570   4.420  1.3649 -0.3814 -0.9107
 3973TIP3   OH211924   1.716   5.638   1.731 -0.1454  0.1694  0.5500
 3973TIP3    H111925   1.667   5.582   1.791 -1.3348  0.1521 -0.4227
 3973TIP3    H211926   1.704   5.598   1.645  0.4660  0.9222  0.1022
 3974TIP3   OH211927   3.731   0.057   5.043  0.0099 -0.2258 -0.3802
 3974TIP3    H111928   3.817   0.074   5.005  0.0642 -0.1067 -0.2053
 3974TIP3    H211929   3.733  -0.036   5.065  0.9345  0.2337  1.7041
 3975TIP3   OH211930   4.601   0.446   1.105  0.0678  0.6292 -0.6293
 3975TIP3    H111931   4.676   0.485   1.061  0.1365 -0.3089 -1.3753
 3975TIP3    H211932   4.625   0.353   1.115 -0.9927  0.3163 -0.8916
 3976TIP3   OH211933   5.966   5.191   1.424 -0.6117 -0.6284 -0.6397
 3976TIP3    H111934   5.935   5.124   1.363 -0.5918 -1.4704  0.2379
 3976TIP3    H211935   6.025   5.143   1.483 -0.8192  0.0991  0.1769
 3977TIP3   OH211936   0.756   4.733   1.282 -0.7373  0.3576  0.2773
 3977TIP3    H111937   0.804   4.814   1.263  1.7937 -0.0774  3.8320
 3977TIP3    H211938   0.764   4.681   1.202  3.8513  0.8539  0.1264
 3978TIP3   OH211939   0.123   3.837   4.250  0.5668  0.4939  0.0065
 3978TIP3    H111940   0.086   3.778   4.184 -1.3258 -0.7748  2.0647
 3978TIP3    H211941   0.054   3.902   4.264  1.4455  1.4664 -0.1236
 3979TIP3   OH211942   1.524   0.909   1.595  0.3021  0.0163  0.4427
 3979TIP3    H111943   1.490   0.836   1.543  1.6561  0.4616 -1.1806
 3979TIP3    H211944   1.556   0.971   1.530  1.0216  1.1450  1.8231
 3980TIP3   OH211945   0.377   1.091   5.127 -0.0289 -0.4177 -0.0321
 3980TIP3    H111946   0.296   1.047   5.099 -0.6452  0.0144  1.0132
 3980TIP3    H211947   0.348   1.154   5.193  1.3811 -1.6970  1.9190
 3981TIP3   OH211948   1.776   0.235   3.865  0.1328 -0.1095  0.0170
 3981TIP3    H111949   1.789   0.311   3.808 -1.5614  0.0731 -0.1955
 3981TIP3    H211950   1.820   0.163   3.821 -0.4737  0.2048 -1.1292
 3982TIP3   OH211951   5.670   4.113   3.128 -0.5005  0.2409  0.1772
 3982TIP3    H111952   5.619   4.195   3.127 -1.1675 -0.1578  0.5860
 3982TIP3    H211953   5.642   4.067   3.049  1.0025  1.0523 -0.8891
 3983TIP3   OH211954   4.181   2.036   1.644  0.0415 -0.2589  0.0371
 3983TIP3    H111955   4.147   2.068   1.560 -0.8694 -0.5977  0.2580
 3983TIP3    H211956   4.142   1.949   1.654  0.1139 -0.2130  0.8275
 3984TIP3   OH211957   3.020   3.587   2.163 -0.1214 -0.3135 -0.0031
 3984TIP3    H111958   2.949   3.620   2.110 -1.3898  0.7435  2.2067
 3984TIP3    H211959   3.069   3.665   2.191  0.7142 -0.8574  0.1039
 3985TIP3   OH211960   4.894   3.174   3.854  0.3494  0.5357  0.0732
 3985TIP3    H111961   4.820   3.137   3.805  0.9447 -0.8040  0.1281
 3985TIP3    H211962   4.896   3.266   3.830 -1.6347  0.7137  0.4351
 3986TIP3   OH211963   5.022   1.656   2.679 -0.3829  0.2807 -0.0819
 3986TIP3    H111964   5.107   1.615   2.666  0.2187  1.4052  0.1198
 3986TIP3    H211965   4.958   1.592   2.648  0.4760 -0.9736  0.6686
 3987TIP3   OH211966   0.385   2.505   4.979 -0.4896 -0.3584  0.1162
 3987TIP3    H111967   0.349   2.572   4.920 -0.5406 -0.5586 -0.0804
 3987TIP3    H211968   0.313   2.443   4.990 -0.9450  0.3665  1.4576
 3988TIP3   OH211969   0.136   3.009   4.784  0.0698  1.1107 -0.4542
 3988TIP3    H111970   0.104   2.920   4.771  0.5831  0.6231  1.3435
 3988TIP3    H211971   0.216   2.999   4.835 -0.6703  2.6685  1.1225
 3989TIP3   OH211972   0.880   0.434  -0.003  0.0191 -0.3019 -0.2749
 3989TIP3    H111973   0.833   0.352   0.011 -1.3009  0.4871  0.0458
 3989TIP3    H211974   0.812   0.501  -0.005  1.0740  0.7946 -0.5275
 3990TIP3   OH211975   1.315   5.861   3.887 -0.0182 -0.3411 -0.2497
 3990TIP3    H111976   1.319   5.853   3.982 -1.6037  0.9212 -0.0415
 3990TIP3    H211977   1.319   5.955   3.870  0.4049 -0.5620 -1.4379
 3991TIP3   OH211978   1.754   2.494   2.671 -0.4093  0.2089  0.3333
 3991TIP3    H111979   1.691   2.481   2.601 -1.9795 -0.3248  1.7718
 3991TIP3    H211980   1.718   2.566   2.723  0.5490  0.3903  0.7640
 3992TIP3   OH211981   3.085   5.316   0.575  0.2859 -0.3847  0.2067
 3992TIP3    H111982   3.119   5.237   0.616  0.9356  0.3660  1.1768
 3992TIP3    H211983   3.152   5.341   0.511 -0.3746 -1.1403 -0.7996
 3993TIP3   OH211984   0.780   0.124   2.675  0.8014 -0.2665 -0.3588
 3993TIP3    H111985   0.691   0.149   2.651  0.7169  0.0092  0.2179
 3993TIP3    H211986   0.836   0.180   2.622  0.6303 -0.2026 -0.4736
 3994TIP3   OH211987   2.862   4.804   0.070  0.5808 -0.2218 -0.1970
 3994TIP3    H111988   2.780   4.761   0.045  0.8677 -0.7514 -0.2408
 3994TIP3    H211989   2.862   4.885   0.020 -0.0588 -0.0738  0.0270
 3995TIP3   OH211990   4.065   3.539   1.764  0.4641  0.6395 -0.0959
 3995TIP3    H111991   4.025   3.613   1.718  0.3970 -0.2653 -1.5779
 3995TIP3    H211992   3.995   3.473   1.766  0.0648  1.0553  2.4290
 3996TIP3   OH211993   5.251   1.402   2.911  0.0954 -0.7213  0.5362
 3996TIP3    H111994   5.198   1.411   2.832  0.5241 -1.1056  0.2036
 3996TIP3    H211995   5.192   1.361   2.975  0.1714 -1.7373 -0.0284
 3997TIP3   OH211996   4.314   2.854   0.121 -0.3985  0.1906 -0.3946
 3997TIP3    H111997   4.314   2.844   0.026 -1.1126 -1.7303 -0.2396
 3997TIP3    H211998   4.308   2.948   0.135  0.2680  0.5488 -2.2429
 3998TIP3   OH211999   2.697   1.442   0.299  0.6224 -0.0734 -0.0618
 3998TIP3    H112000   2.750   1.363   0.305  0.5052 -0.2255 -0.8488
 3998TIP3    H212001   2.608   1.413   0.319  0.2278 -0.5817 -2.2994
 3999TIP3   OH212002   4.416   0.790   3.443 -0.1863 -0.6410 -0.1514
 3999TIP3    H112003   4.412   0.744   3.360 -0.4216 -2.7872  0.9694
 3999TIP3    H212004   4.346   0.751   3.496  0.0979  0.4959  1.1364
 4000TIP3   OH212005   2.000   5.118   0.188  0.5424 -0.4957 -0.2429
 4000TIP3    H112006   2.010   5.211   0.208  0.2727 -0.6531  0.6710
 4000TIP3    H212007   1.941   5.086   0.256 -0.1508 -1.1277 -1.1388
 4001TIP3   OH212008   0.482   1.597   4.803 -0.1292 -0.1598  0.2301
 4001TIP3    H112009   0.390   1.581   4.782 -0.0896 -1.8103  1.1576
 4001TIP3    H212010   0.514   1.652   4.730 -2.2114  1.8556  0.7022
 4002TIP3   OH212011   0.904   1.562   2.449 -0.5259 -0.1028  0.0593
 4002TIP3    H112012   0.984   1.510   2.453 -0.5950 -0.2086  0.0484
 4002TIP3    H212013   0.903   1.599   2.361 -0.3691  0.0858  0.1362
 4003TIP3   OH212014   4.459   4.021   1.516 -0.3994 -0.6529 -0.0022
 4003TIP3    H112015   4.493   4.011   1.427 -2.2063 -0.5502 -0.7434
 4003TIP3    H212016   4.453   4.115   1.529  0.5470 -0.6460  0.5444
 4004TIP3   OH212017   4.087   4.785   4.615 -0.0541 -0.4102  0.0963
 4004TIP3    H112018   4.084   4.874   4.580  1.9686 -0.1667  0.3894
 4004TIP3    H212019   4.000   4.769   4.650 -0.0870  2.0001  1.2876
 4005TIP3   OH212020   5.318   0.139   3.704  0.4206 -0.3184  0.1611
 4005TIP3    H112021   5.337   0.047   3.718  1.6799 -0.0993 -0.0056
 4005TIP3    H212022   5.373   0.185   3.767  1.1227  0.3804 -0.9221
 4006TIP3   OH212023   4.493   3.730   1.605  0.3412 -0.1781  0.2294
 4006TIP3    H112024   4.468   3.818   1.579 -1.5037 -0.1376  1.9713
 4006TIP3    H212025   4.421   3.674   1.575  1.5746 -1.1824 -1.0370
 4007TIP3   OH212026   6.156   2.609   1.170 -0.2538 -0.2559  0.2673
 4007TIP3    H112027   6.081   2.567   1.211  0.2506 -1.3699  0.0722
 4007TIP3    H212028   6.195   2.662   1.240 -0.1161 -1.1779  0.9081
 4008TIP3   OH212029   2.038   2.702   3.636 -0.7401  0.0807 -0.1522
 4008TIP3    H112030   2.046   2.671   3.546 -2.5091  1.3115 -0.8027
 4008TIP3    H212031   2.128   2.718   3.665 -0.1644  0.3120 -1.9562
 4009TIP3   OH212032   2.911   3.327   0.505  0.8113 -0.1448  0.1295
 4009TIP3    H112033   2.983   3.382   0.475  0.6207  0.5602  0.9350
 4009TIP3    H212034   2.934   3.239   0.475  1.5375  0.2286 -0.4376
 4010TIP3   OH212035   1.437   1.674   0.135  0.1915 -0.1479  0.2514
 4010TIP3    H112036   1.511   1.642   0.083  1.7019  1.2514  1.4418
 4010TIP3    H212037   1.429   1.767   0.112 -1.2658 -0.2870  0.0940
 4011TIP3   OH212038   5.300   4.677   0.266 -0.4788  0.4668 -0.2887
 4011TIP3    H112039   5.269   4.666   0.356 -0.8486 -0.7695 -0.5432
 4011TIP3    H212040   5.263   4.602   0.220  0.2667  0.7304 -1.3217
 4012TIP3   OH212041   3.341   3.036   3.474  0.1078  0.0746 -0.5179
 4012TIP3    H112042   3.248   3.047   3.450  0.0001 -1.2818 -0.7867
 4012TIP3    H212043   3.388   3.050   3.392  0.0986  0.0806 -0.5221
 4013TIP3   OH212044   3.022   4.484   3.594 -0.2423  0.6516 -0.6197
 4013TIP3    H112045   2.983   4.464   3.509 -0.3294  2.5024 -1.0670
 4013TIP3    H212046   2.952   4.527   3.643 -1.2702 -3.2083  1.7173
 4014TIP3   OH212047   2.773   3.963   2.589 -0.3813  0.3742 -0.7574
 4014TIP3    H112048   2.816   3.916   2.518 -0.7070  0.1881 -0.8375
 4014TIP3    H212049   2.700   3.906   2.614  1.0028 -0.6480  1.2412
 4015TIP3   OH212050   5.783   5.663   2.294  0.0152  0.5588 -0.2593
 4015TIP3    H112051   5.695   5.698   2.281 -0.8289  0.4172  3.9477
 4015TIP3    H212052   5.781   5.577   2.253 -0.3425  2.0721 -3.8283
 4016TIP3   OH212053   0.753   0.424   2.751  0.4924  0.7181 -0.5731
 4016TIP3    H112054   0.816   0.402   2.683 -1.1516 -1.9284 -1.3866
 4016TIP3    H212055   0.770   0.361   2.821 -0.7870  0.4296 -0.5068
 4017TIP3   OH212056   4.573   0.404   1.717 -0.1508  0.2458 -0.1826
 4017TIP3    H112057   4.481   0.378   1.713 -0.4672  1.3031 -0.1692
 4017TIP3    H212058   4.620   0.324   1.741 -1.1771 -0.1033  0.7700
 4018TIP3   OH212059   2.586   5.653   4.225  0.3870  0.2466  0.2453
 4018TIP3    H112060   2.645   5.717   4.264  2.1087 -0.0206 -1.7055
 4018TIP3    H212061   2.559   5.693   4.142 -0.4782 -0.5630  0.1148
 4019TIP3   OH212062   3.820   0.600   4.785  0.2869 -0.5058 -0.2528
 4019TIP3    H112063   3.809   0.652   4.865  1.9777 -1.0936  0.3911
 4019TIP3    H212064   3.760   0.526   4.796 -0.2649 -0.0353 -0.0313
 4020TIP3   OH212065   4.603   4.979   1.695 -0.0415 -0.7525  0.4285
 4020TIP3    H112066   4.557   4.903   1.729 -0.7944 -0.0909  0.9246
 4020TIP3    H212067   4.628   5.029   1.773  0.7552 -0.6554  0.1254
 4021TIP3   OH212068   0.551   4.788   0.743 -0.6766  0.1092 -0.6472
 4021TIP3    H112069   0.539   4.697   0.771  2.8196 -0.4824 -0.6704
 4021TIP3    H212070   0.567   4.782   0.649 -0.8935  0.8123 -0.7355
 4022TIP3   OH212071   2.736   3.912   2.229 -0.1094 -0.6256 -0.0564
 4022TIP3    H112072   2.802   3.889   2.294 -0.5064  0.4921  0.7731
 4022TIP3    H212073   2.733   4.008   2.231 -1.1899 -0.6359 -0.6479
 4023TIP3   OH212074   1.075   2.375   3.612 -0.2303 -0.1767 -0.2286
 4023TIP3    H112075   1.126   2.438   3.662  1.8102 -1.4869 -0.5319
 4023TIP3    H212076   1.099   2.391   3.520  2.6854 -3.1114 -0.1827
 4024TIP3   OH212077   6.176   4.348   2.353  0.3197  0.5826  0.4926
 4024TIP3    H112078   6.244   4.394   2.306 -0.5483  1.1705 -0.2135
 4024TIP3    H212079   6.094   4.377   2.313 -0.3289 -0.5040  0.9577
 4025TIP3   OH212080   2.670   3.277   4.719  0.0356 -0.4352 -0.1829
 4025TIP3    H112081   2.638   3.251   4.633 -0.0364  0.2839 -0.3770
 4025TIP3    H212082   2.765   3.270   4.713  0.3917  3.4558 -1.6674
 4026TIP3   OH212083   1.432   3.441   4.685  0.1425 -0.5149 -0.3585
 4026TIP3    H112084   1.424   3.429   4.779  0.5317  2.8640  0.2266
 4026TIP3    H212085   1.517   3.403   4.662  1.6211  1.5474  1.3418
 4027TIP3   OH212086   3.104   1.883   0.375  0.4333  0.1539  0.9026
 4027TIP3    H112087   3.024   1.896   0.428  0.6423 -0.1173  1.2883
 4027TIP3    H212088   3.088   1.801   0.328 -0.1389  0.8575 -0.1729
 4028TIP3   OH212089   1.257   0.973   1.070 -0.4589 -0.5605 -0.1758
 4028TIP3    H112090   1.203   1.040   1.028  2.2849  0.5409 -2.2132
 4028TIP3    H212091   1.241   0.894   1.017 -1.9374 -0.9580  0.8112
 4029TIP3   OH212092   6.336   4.871   0.036 -0.1605  0.6903  0.1146
 4029TIP3    H112093   6.355   4.920   0.116 -0.7610  0.7281  0.2402
 4029TIP3    H212094   6.307   4.785   0.066  1.2817  0.0806 -0.1132
 4030TIP3   OH212095   0.376   1.938   2.104 -0.0143  0.0342 -0.5701
 4030TIP3    H112096   0.301   1.886   2.134  1.3755 -1.3540  0.6263
 4030TIP3    H212097   0.429   1.877   2.054  1.4705  0.3422  0.5564
 4031TIP3   OH212098   0.301   0.616   3.569  0.1734 -0.3849 -0.4414
 4031TIP3    H112099   0.284   0.622   3.663 -3.0915 -1.4841 -0.8467
 4031TIP3    H212100   0.236   0.673   3.529  1.5119  0.0659 -2.0634
 4032TIP3   OH212101   1.552   2.251   0.098  0.1731 -0.0901  0.1217
 4032TIP3    H112102   1.484   2.315   0.079  1.3117  0.6323 -1.8846
 4032TIP3    H212103   1.508   2.166   0.095 -0.9355  0.4570  0.5852
 4033TIP3   OH212104   0.790   1.215   5.111 -0.5605  0.0697  0.2304
 4033TIP3    H112105   0.730   1.141   5.104 -1.0892  0.6007 -1.1946
 4033TIP3    H212106   0.751   1.283   5.056  1.7182  0.1758 -1.3726
 4034TIP3   OH212107   4.668   3.676   4.087  0.7785 -0.0140 -0.4846
 4034TIP3    H112108   4.657   3.765   4.120 -1.4014 -0.4588  0.1285
 4034TIP3    H212109   4.640   3.681   3.995 -0.5802 -0.2850 -0.1051
 4035TIP3   OH212110   3.583   4.916   2.480 -0.0365 -0.0120 -0.6904
 4035TIP3    H112111   3.547   4.834   2.445  0.5400 -1.3544  1.6026
 4035TIP3    H212112   3.510   4.978   2.479 -0.9991 -1.1154 -0.8303
 4036TIP3   OH212113   1.714   2.111   2.001  0.4299 -0.0034 -0.4867
 4036TIP3    H112114   1.724   2.141   1.910 -1.7063 -0.7458 -1.0106
 4036TIP3    H212115   1.672   2.026   1.994  2.0677 -1.0147  1.1696
 4037TIP3   OH212116   0.233   1.313   4.901  0.5489  0.1058  0.1923
 4037TIP3    H112117   0.192   1.231   4.929  0.8119 -0.1389 -0.1399
 4037TIP3    H212118   0.306   1.286   4.846 -0.0513  0.5781 -0.8826
 4038TIP3   OH212119   0.836   2.907   1.796  0.0091  0.1072  0.0303
 4038TIP3    H112120   0.803   2.987   1.837  1.7103  0.9215 -0.0974
 4038TIP3    H212121   0.904   2.876   1.856  1.2645  0.3095 -1.2362
 4039TIP3   OH212122   2.106   3.129   3.210 -0.1738  0.3883 -0.2503
 4039TIP3    H112123   2.177   3.163   3.156 -0.0521  0.5146 -0.0167
 4039TIP3    H212124   2.118   3.034   3.210  0.3519  0.4486  0.2682
 4040TIP3   OH212125   4.646   1.762   1.384 -0.4118  0.4068  0.1307
 4040TIP3    H112126   4.555   1.789   1.369 -0.0812  2.2635  1.1733
 4040TIP3    H212127   4.698   1.824   1.333  0.3108  0.1637  0.5571
 4041TIP3   OH212128   3.095   4.145   0.538  0.1019  0.3213 -0.1925
 4041TIP3    H112129   3.037   4.169   0.465 -0.9857  1.1783  0.9230
 4041TIP3    H212130   3.082   4.050   0.548 -0.6727  0.4123 -0.3084
 4042TIP3   OH212131   3.004   4.376   0.136  0.6684 -0.0591  0.2411
 4042TIP3    H112132   2.913   4.387   0.166  0.5583  0.8585 -0.3792
 4042TIP3    H212133   3.000   4.305   0.072  0.4424 -0.2126  0.4208
 4043TIP3   OH212134   2.653   1.851   0.910 -0.1515  0.5530 -0.0068
 4043TIP3    H112135   2.604   1.779   0.951 -2.0277  0.4052 -2.3049
 4043TIP3    H212136   2.726   1.808   0.866  0.2820  0.4004  0.8390
 4044TIP3   OH212137   2.140   0.482   2.813  0.1845  0.0941  0.4295
 4044TIP3    H112138   2.192   0.488   2.733 -1.9483  0.3694 -1.0070
 4044TIP3    H212139   2.202   0.500   2.883  1.9969  0.4879 -1.1965
 4045TIP3   OH212140   5.606   4.678   3.166  0.4694  0.0032 -0.1339
 4045TIP3    H112141   5.658   4.642   3.238  0.1414 -0.8193 -0.3013
 4045TIP3    H212142   5.671   4.698   3.098  0.4713 -2.6248 -1.0256
 4046TIP3   OH212143   0.979   3.179   2.954 -0.2217  0.2699 -0.1223
 4046TIP3    H112144   1.059   3.222   2.924 -0.1488 -0.4463 -1.0006
 4046TIP3    H212145   0.934   3.245   3.006 -1.5100  2.5069 -3.6766
 4047TIP3   OH212146   0.835   2.678   1.081 -0.0637 -0.1093 -0.2151
 4047TIP3    H112147   0.867   2.621   1.010  0.5394  0.5895 -0.5175
 4047TIP3    H212148   0.756   2.718   1.045 -1.3869 -1.8841  0.5546
 4048TIP3   OH212149   0.777   2.829   3.428  0.5147  0.2045  0.1619
 4048TIP3    H112150   0.823   2.818   3.511  0.9442 -0.7465 -0.1866
 4048TIP3    H212151   0.712   2.758   3.427  1.3971 -0.6209 -0.8738
 4049TIP3   OH212152   3.972   2.490   0.005  0.2441  0.0540  0.1170
 4049TIP3    H112153   4.025   2.537   0.070 -0.6069  0.0835  0.8133
 4049TIP3    H212154   3.965   2.550  -0.069  0.2439  0.5032  0.4778
 4050TIP3   OH212155   2.611   4.014   1.557  0.6835  0.2890 -0.5087
 4050TIP3    H112156   2.650   3.931   1.532  0.7233 -0.0093  0.4827
 4050TIP3    H212157   2.666   4.080   1.515  0.9090 -0.1734 -0.9467
 4051TIP3   OH212158   4.873   5.025   3.895  0.4082  0.5820 -0.1939
 4051TIP3    H112159   4.823   4.969   3.953  1.8054 -0.3738  0.1389
 4051TIP3    H212160   4.828   5.019   3.811  0.3353 -0.7817 -0.0700
 4052TIP3   OH212161   2.420   4.179   4.824  0.2884  0.2542 -0.8333
 4052TIP3    H112162   2.326   4.165   4.815  0.3845  0.3767 -2.2719
 4052TIP3    H212163   2.428   4.256   4.881 -0.5047  0.7525 -1.3784
 4053TIP3   OH212164   0.912   1.071   0.729  0.3187  0.0310  0.4655
 4053TIP3    H112165   0.826   1.113   0.733  0.1244 -0.0149 -1.7736
 4053TIP3    H212166   0.912   1.024   0.646  2.0448 -1.0542  1.0221
 4054TIP3   OH212167   0.367   3.224   3.243  0.8518 -0.0301 -0.0909
 4054TIP3    H112168   0.356   3.170   3.322 -0.9614 -0.3692 -0.5361
 4054TIP3    H212169   0.401   3.308   3.276 -1.3068  0.3787  1.2889
 4055TIP3   OH212170   5.643   5.064   3.417  0.2351  0.2844 -0.4932
 4055TIP3    H112171   5.560   5.097   3.452  0.3512 -0.7390  0.8547
 4055TIP3    H212172   5.617   5.002   3.349 -0.2291 -1.1789  0.9387
 4056TIP3   OH212173   4.119   4.935   3.884  0.1703 -0.1481  0.3141
 4056TIP3    H112174   4.085   4.992   3.815  1.4025  0.4182  0.1670
 4056TIP3    H212175   4.144   4.995   3.954 -0.7725 -0.6982  1.1557
 4057TIP3   OH212176   0.978   0.978   1.562  0.2122  0.0234 -0.4095
 4057TIP3    H112177   1.065   0.993   1.526 -0.2345  0.3381 -1.3750
 4057TIP3    H212178   0.966   0.883   1.556  0.2461  0.0463 -0.8324
 4058TIP3   OH212179   4.228   3.644   3.960  0.7308  0.5092 -0.3296
 4058TIP3    H112180   4.303   3.702   3.961  0.1983  1.2025  0.5463
 4058TIP3    H212181   4.242   3.588   3.883  1.9584  0.8394 -0.3652
 4059TIP3   OH212182   3.068   1.672   2.902 -0.0177 -0.2946 -0.3039
 4059TIP3    H112183   3.038   1.582   2.897 -1.3329  0.0184  1.2027
 4059TIP3    H212184   3.163   1.665   2.914 -0.1595 -1.5035  0.2271
 4060TIP3   OH212185   0.996   4.439   1.558 -0.6921 -0.4478 -0.6888
 4060TIP3    H112186   0.916   4.467   1.512 -0.0816  0.5975 -1.1328
 4060TIP3    H212187   1.000   4.345   1.542 -0.5120 -0.1322 -2.7938
 4061TIP3   OH212188   1.477   2.904   4.175 -0.2589  0.3327  0.0854
 4061TIP3    H112189   1.567   2.890   4.144 -0.0858  2.6123 -0.6419
 4061TIP3    H212190   1.486   2.919   4.269 -0.0501 -0.5627  0.2231
 4062TIP3   OH212191   4.571   5.106   3.343 -0.0358  0.6975  0.4084
 4062TIP3    H112192   4.544   5.084   3.254 -0.3680  0.4542  0.5677
 4062TIP3    H212193   4.592   5.200   3.339  1.1698  0.4222 -0.2162
 4063TIP3   OH212194   3.342   2.100   1.871  0.5978  0.4456 -0.1034
 4063TIP3    H112195   3.285   2.044   1.924 -1.0435  1.3798 -0.7924
 4063TIP3    H212196   3.410   2.041   1.839 -0.3660 -0.8863  0.1933
 4064TIP3   OH212197   1.360   5.007   4.163  0.0134 -0.0821 -0.1146
 4064TIP3    H112198   1.356   4.972   4.252 -0.1488 -0.7944 -0.3938
 4064TIP3    H212199   1.356   4.930   4.107 -0.4287  0.3931 -0.7523
 4065TIP3   OH212200   4.426   5.509   1.058 -0.2751 -0.0255 -0.7298
 4065TIP3    H112201   4.521   5.522   1.058 -0.0247 -0.9664  2.7036
 4065TIP3    H212202   4.402   5.515   0.965  2.7791  2.3391 -1.5683
 4066TIP3   OH212203   5.924   1.746   2.617 -0.4247 -0.5606 -0.1344
 4066TIP3    H112204   5.898   1.732   2.526  0.5929 -0.2793 -0.4764
 4066TIP3    H212205   5.888   1.832   2.639  0.8295  0.1694 -0.8495
 4067TIP3   OH212206   0.091   4.235   2.446  0.0427  0.0691  0.3010
 4067TIP3    H112207   0.007   4.272   2.471 -0.0554 -0.3557  0.6263
 4067TIP3    H212208   0.074   4.191   2.362  0.7341  2.8135 -1.3790
 4068TIP3   OH212209   1.026   4.794   3.365  0.5898 -0.4059  0.4575
 4068TIP3    H112210   1.068   4.805   3.279 -0.8212 -2.4901 -0.5805
 4068TIP3    H212211   1.094   4.753   3.419  0.8660 -0.9669 -0.2899
 4069TIP3   OH212212   2.841   2.591   1.913 -0.5158 -0.3697  0.2483
 4069TIP3    H112213   2.769   2.613   1.972 -1.1119 -2.5480  0.4288
 4069TIP3    H212214   2.900   2.536   1.965  1.2817  1.2820  0.0668
 4070TIP3   OH212215   6.055   0.917   1.115 -0.3632  0.1414 -0.0610
 4070TIP3    H112216   6.127   0.971   1.082  0.9064 -1.2344  0.3078
 4070TIP3    H212217   6.032   0.955   1.199 -1.2889  1.6386 -0.9538
 4071TIP3   OH212218   2.307   3.391   4.257  0.0552 -0.1352 -0.3200
 4071TIP3    H112219   2.248   3.426   4.191  0.6827  2.0372  0.1913
 4071TIP3    H212220   2.318   3.463   4.320  1.5288 -1.2183  0.7347
 4072TIP3   OH212221   5.003   1.716   5.077  0.2070 -0.0515 -0.5099
 4072TIP3    H112222   5.007   1.713   5.173  0.1664  0.8301 -0.4645
 4072TIP3    H212223   4.914   1.744   5.058 -0.2816 -1.7889 -0.8736
 4073TIP3   OH212224   0.675   2.407   0.672 -0.0982  0.2410 -0.2942
 4073TIP3    H112225   0.580   2.399   0.671  0.0639 -2.3123 -0.5909
 4073TIP3    H212226   0.691   2.502   0.669 -2.5923  0.7158 -0.5984
 4074TIP3   OH212227   2.153   0.078   2.130  0.5242 -0.7809 -0.2203
 4074TIP3    H112228   2.174   0.045   2.217 -2.3276  0.8443  1.1868
 4074TIP3    H212229   2.065   0.044   2.112  1.4550 -2.0258 -3.0447
 4075TIP3   OH212230   4.174   3.197   3.738 -0.3057 -0.6657 -0.2047
 4075TIP3    H112231   4.189   3.127   3.674 -0.2031 -0.3136 -0.5718
 4075TIP3    H212232   4.261   3.225   3.765 -0.3513 -0.8637  0.1412
 4076TIP3   OH212233   2.775   2.970   3.222 -0.1957  0.2249 -0.5191
 4076TIP3    H112234   2.773   2.877   3.244  1.1086  0.0717 -0.9470
 4076TIP3    H212235   2.749   2.975   3.130 -1.4866  0.4281 -0.1594
 4077TIP3   OH212236   0.304   1.180   4.501 -0.3173  0.0686 -0.1788
 4077TIP3    H112237   0.353   1.250   4.543 -0.4563  0.0862 -0.0443
 4077TIP3    H212238   0.319   1.193   4.407 -1.2515  0.9513 -0.2185
 4078TIP3   OH212239   3.399   4.900   2.711 -0.0181  0.1702 -0.1307
 4078TIP3    H112240   3.455   4.834   2.671  0.6749  0.1887  0.7691
 4078TIP3    H212241   3.430   4.906   2.802 -1.4592  0.1978  0.3954
 4079TIP3   OH212242   5.534   0.472   0.983 -0.4373  0.3306  0.0341
 4079TIP3    H112243   5.474   0.522   0.927  0.4082 -0.0768 -1.2837
 4079TIP3    H212244   5.573   0.537   1.041 -0.4649  0.9630 -0.6466
 4080TIP3   OH212245   1.342   0.240   1.413  0.5631 -0.5361 -0.5043
 4080TIP3    H112246   1.338   0.254   1.508 -3.4203 -0.6133 -0.4801
 4080TIP3    H212247   1.361   0.147   1.403 -0.9644 -0.9877  0.3786
 4081TIP3   OH212248   3.141   5.147   3.169 -0.2679  0.1376 -0.3762
 4081TIP3    H112249   3.102   5.166   3.084 -1.0472  0.7175  0.0973
 4081TIP3    H212250   3.226   5.109   3.149 -0.4753  0.2044 -1.4123
 4082TIP3   OH212251   1.295   4.713   0.865 -0.1381 -0.0091  0.3859
 4082TIP3    H112252   1.368   4.737   0.921  1.6800  0.0857 -1.8579
 4082TIP3    H212253   1.220   4.706   0.924  1.5042  0.6251  2.6775
 4083TIP3   OH212254   0.667   2.151   0.154  0.0052  0.0936  0.2187
 4083TIP3    H112255   0.743   2.108   0.195 -0.4099 -0.1995  0.6899
 4083TIP3    H212256   0.656   2.232   0.204 -0.3488 -0.1450  0.5336
 4084TIP3   OH212257   5.236   2.017   3.209 -0.5654 -0.1027  0.1691
 4084TIP3    H112258   5.171   2.063   3.262  0.0565  1.5005 -0.3864
 4084TIP3    H212259   5.314   2.013   3.264 -0.5593 -0.2995  0.1448
 4085TIP3   OH212260   2.394   3.908   1.950  0.3032 -0.3185 -0.4056
 4085TIP3    H112261   2.299   3.923   1.944  0.2060 -1.2331 -1.2897
 4085TIP3    H212262   2.426   3.924   1.861  0.8047 -1.1203 -0.3773
 4086TIP3   OH212263   5.639   3.858   0.598  0.0186  0.3796 -0.5051
 4086TIP3    H112264   5.716   3.817   0.637 -0.2334  1.2074  0.9383
 4086TIP3    H212265   5.570   3.793   0.608  0.3748 -0.1544 -1.3262
 4087TIP3   OH212266   5.948   4.301   4.020 -0.1711 -0.4684  0.0427
 4087TIP3    H112267   6.008   4.254   4.078  0.1822 -1.0686 -0.7811
 4087TIP3    H212268   6.005   4.342   3.955 -0.6150 -0.7281 -0.5230
 4088TIP3   OH212269   2.502   3.479   2.533 -0.0175  0.2208 -0.3224
 4088TIP3    H112270   2.556   3.460   2.610  1.6021  1.4918 -1.0832
 4088TIP3    H212271   2.476   3.570   2.545  0.7485  0.6289 -1.5265
 4089TIP3   OH212272   2.629   0.009   3.388  0.2677  0.1338 -0.4843
 4089TIP3    H112273   2.678  -0.004   3.469  0.3922  0.0280 -0.5758
 4089TIP3    H212274   2.560   0.071   3.411  0.2987  0.0987 -0.2960
 4090TIP3   OH212275   1.747   2.930   3.989 -0.1916 -0.4188  0.0195
 4090TIP3    H112276   1.820   2.880   3.953  0.2394  1.0067 -1.2046
 4090TIP3    H212277   1.774   3.022   3.979 -1.2192  0.0877  1.5916
 4091TIP3   OH212278   3.684   0.305   0.281  0.2708 -0.0886 -0.7101
 4091TIP3    H112279   3.613   0.306   0.216 -0.2263 -1.6411 -0.2186
 4091TIP3    H212280   3.647   0.350   0.357  0.0925 -0.1868 -0.7379
 4092TIP3   OH212281   4.687   0.583   0.427 -0.0491 -0.0420 -0.0435
 4092TIP3    H112282   4.751   0.512   0.436  2.1245  1.8652  0.5905
 4092TIP3    H212283   4.636   0.579   0.508  1.3080  0.2273  0.8601
 4093TIP3   OH212284   3.939   5.818   3.638  0.1013  0.3795 -0.0341
 4093TIP3    H112285   3.872   5.796   3.573  1.3598  0.1605 -1.3083
 4093TIP3    H212286   4.022   5.797   3.596  0.9746  0.0529  1.7342
 4094TIP3   OH212287   4.635   2.814   3.282  0.1058 -0.5362  0.5429
 4094TIP3    H112288   4.602   2.763   3.356  1.9977  0.9823  2.5654
 4094TIP3    H212289   4.730   2.810   3.291  0.3480  1.3516 -0.6016
 4095TIP3   OH212290   5.585   4.839   1.468 -0.0998  0.5432  0.4105
 4095TIP3    H112291   5.535   4.854   1.549 -1.1823  1.2151 -0.3462
 4095TIP3    H212292   5.610   4.927   1.439  0.9748  0.2565  0.4121
 4096TIP3   OH212293   5.185   5.104   2.798  0.2228  0.2254  0.5422
 4096TIP3    H112294   5.254   5.073   2.858 -0.7807  2.0350  2.7699
 4096TIP3    H212295   5.180   5.198   2.815 -1.2080  0.5174 -1.3088
 4097TIP3   OH212296   4.059   5.856   1.612 -0.0227 -0.4568  0.3010
 4097TIP3    H112297   4.099   5.833   1.528 -0.9740  1.5936 -0.7821
 4097TIP3    H212298   4.116   5.924   1.648  0.2784 -1.1969  1.2599
 4098TIP3   OH212299   2.364   4.595   3.039 -0.0245 -0.2104  0.3107
 4098TIP3    H112300   2.414   4.553   2.970 -1.4086 -1.1387 -0.1598
 4098TIP3    H212301   2.309   4.659   2.994 -1.4320 -1.2934  0.4384
 4099TIP3   OH212302   4.337   4.624   4.264  0.3130 -0.4241 -0.0689
 4099TIP3    H112303   4.340   4.541   4.312  1.3438  0.6674  1.8709
 4099TIP3    H212304   4.245   4.651   4.268  0.3680 -0.3615  1.3516
 4100TIP3   OH212305   4.662   5.301   4.157  0.5948 -0.0230 -0.0362
 4100TIP3    H112306   4.725   5.302   4.229 -0.5317 -0.2069  0.9935
 4100TIP3    H212307   4.715   5.308   4.078  1.8561  0.3469  0.8174
 4101TIP3   OH212308   0.971   5.315   2.467 -0.5128 -0.5882  0.4666
 4101TIP3    H112309   0.967   5.409   2.449 -2.0343 -0.8361 -0.6437
 4101TIP3    H212310   0.891   5.296   2.516  0.1914 -1.1732  1.4219
 4102TIP3   OH212311   0.326   1.973   3.781 -0.3738 -0.0135 -0.3115
 4102TIP3    H112312   0.256   2.013   3.833 -0.2804  0.2344 -0.3736
 4102TIP3    H212313   0.305   1.880   3.780 -0.6565  0.0486 -0.2593
 4103TIP3   OH212314   2.474   4.814   1.035 -0.3679  0.0206  0.0949
 4103TIP3    H112315   2.403   4.761   0.998 -0.0423 -0.0092 -0.4842
 4103TIP3    H212316   2.455   4.815   1.129 -1.7102  0.8658 -0.1525
 4104TIP3   OH212317   5.680   5.258   3.140  0.4389  0.2016  0.1323
 4104TIP3    H112318   5.652   5.304   3.219 -0.1894  1.1490 -0.6285
 4104TIP3    H212319   5.684   5.166   3.166  0.3090  0.5134  1.2855
 4105TIP3   OH212320   2.436   2.960   0.158 -0.2386  0.3240  0.6810
 4105TIP3    H112321   2.474   3.019   0.222 -0.0208  2.3697 -1.2291
 4105TIP3    H212322   2.505   2.895   0.141  0.4715  0.9915  0.9812
 4106TIP3   OH212323   1.118   4.291   0.251 -0.7927 -0.5353 -0.6083
 4106TIP3    H112324   1.138   4.340   0.331  0.2267 -0.8573 -0.6484
 4106TIP3    H212325   1.055   4.346   0.204 -1.0355 -0.1207  0.1918
 4107TIP3   OH212326   0.816   0.069   0.037  0.0637 -0.1474 -0.0853
 4107TIP3    H112327   0.896   0.044   0.084  0.1609 -1.6359 -1.0036
 4107TIP3    H212328   0.847   0.118  -0.039  0.3314 -2.6035 -1.6717
 4108TIP3   OH212329   1.861   5.906   4.568 -0.4747 -0.5783  0.6875
 4108TIP3    H112330   1.905   5.823   4.546  1.9282  0.5451  0.9805
 4108TIP3    H212331   1.842   5.898   4.662  0.5223 -0.4962  0.9113
 4109TIP3   OH212332   1.280   3.487   4.929 -0.0039  0.2068 -0.1181
 4109TIP3    H112333   1.284   3.511   4.837  0.6761 -2.6749 -0.9397
 4109TIP3    H212334   1.186   3.481   4.948 -0.1886  2.3054 -0.1073
 4110TIP3   OH212335   1.232   5.204   2.037 -0.4243 -0.0738  0.2375
 4110TIP3    H112336   1.154   5.162   2.004  0.2870  1.0995 -3.3659
 4110TIP3    H212337   1.200   5.269   2.100 -2.2483 -0.2647 -0.4535
 4111TIP3   OH212338   5.349   1.703   0.331  0.2637  0.1203 -0.6894
 4111TIP3    H112339   5.265   1.682   0.371  0.7152  2.7361  1.9959
 4111TIP3    H212340   5.328   1.767   0.263  0.0923  1.7245  0.8049
 4112TIP3   OH212341  -0.021   5.798   3.760  0.2841  0.4092 -0.2567
 4112TIP3    H112342   0.009   5.887   3.778 -1.0540  0.5219  1.7875
 4112TIP3    H212343   0.049   5.742   3.792  0.6966  0.6976 -0.6360
 4113TIP3   OH212344   6.227   0.819   0.542 -0.0876 -0.1900  0.4791
 4113TIP3    H112345   6.172   0.799   0.466 -2.5144  0.4772  1.9403
 4113TIP3    H212346   6.180   0.782   0.617  0.3412  2.1819  2.0583
 4114TIP3   OH212347   3.997   3.855   1.502  0.0113 -0.2218  0.6941
 4114TIP3    H112348   4.017   3.884   1.413  1.9176 -1.3227  0.7232
 4114TIP3    H212349   3.902   3.840   1.501 -0.3323  1.5937 -0.5685
 4115TIP3   OH212350   2.174   1.126   4.923  0.3760  0.1848  0.3385
 4115TIP3    H112351   2.213   1.161   4.843  0.5455  0.0339  0.3533
 4115TIP3    H212352   2.110   1.192   4.949  0.0943  0.0834 -0.0960
 4116TIP3   OH212353   3.242   4.480   0.817  0.4168 -0.2688 -0.6806
 4116TIP3    H112354   3.152   4.509   0.835  0.3521 -0.2244 -1.0602
 4116TIP3    H212355   3.234   4.425   0.739  0.8910  0.7868 -1.4926
 4117TIP3   OH212356   0.748   2.193   4.480  0.2426 -0.2430 -0.3208
 4117TIP3    H112357   0.817   2.134   4.510 -1.0346 -2.2294 -1.0793
 4117TIP3    H212358   0.684   2.194   4.551 -0.0485 -0.3296 -0.5776
 4118TIP3   OH212359   1.474   3.362   0.151 -0.2535  0.2743 -0.2469
 4118TIP3    H112360   1.437   3.294   0.095  0.6238 -0.3002 -0.1561
 4118TIP3    H212361   1.566   3.337   0.161  0.2489  1.7760 -0.6802
 4119TIP3   OH212362   5.687   2.526   1.571  0.1640 -0.1926  0.4941
 4119TIP3    H112363   5.651   2.465   1.507 -2.2961  0.4251  1.1777
 4119TIP3    H212364   5.714   2.471   1.644 -0.2133 -0.6252  0.3133
 4120TIP3   OH212365   4.092   4.722   0.245  0.2522 -0.2510  0.0407
 4120TIP3    H112366   4.066   4.639   0.284  1.0413  0.3451  1.9477
 4120TIP3    H212367   4.037   4.788   0.288  0.7702  0.3790 -0.2285
 4121TIP3   OH212368   5.928   0.669   5.122  0.1450 -0.5851 -0.3872
 4121TIP3    H112369   5.856   0.675   5.184 -0.1663 -2.1913 -0.5483
 4121TIP3    H212370   5.887   0.640   5.040  1.0660 -2.6628 -0.1833
 4122TIP3   OH212371   4.567   4.032   4.377  0.1063 -0.3312  0.0714
 4122TIP3    H112372   4.572   4.082   4.458 -0.4201  0.2418 -0.2411
 4122TIP3    H212373   4.634   3.964   4.386 -0.1015 -0.4098  1.0748
 4123TIP3   OH212374   5.501   3.435   4.758  0.1448  0.1128  0.0897
 4123TIP3    H112375   5.498   3.451   4.664 -2.0091  1.6785  0.3529
 4123TIP3    H212376   5.492   3.522   4.797  1.0729 -0.5017  1.7768
 4124TIP3   OH212377   2.861   2.727   1.070 -0.2785  0.0757 -0.5408
 4124TIP3    H112378   2.788   2.783   1.042  0.2880  0.3820 -1.4378
 4124TIP3    H212379   2.928   2.739   1.003  0.5019 -0.4128  0.1321
 4125TIP3   OH212380   3.793   5.786   0.454 -0.3839 -0.0019  0.2291
 4125TIP3    H112381   3.731   5.824   0.517 -0.5772 -3.4293  2.3713
 4125TIP3    H212382   3.752   5.704   0.427  0.6452  0.4140 -2.9705
 4126TIP3   OH212383   5.648   4.910   0.188  0.1132 -0.0797  0.1114
 4126TIP3    H112384   5.708   4.986   0.190 -1.9396  1.7142  3.6327
 4126TIP3    H212385   5.617   4.906   0.097  0.8288  2.9128 -0.3768
 4127TIP3   OH212386   0.027   5.213   1.411  0.5540  0.1522 -0.3296
 4127TIP3    H112387  -0.056   5.253   1.386  0.0681 -0.5166  0.1636
 4127TIP3    H212388   0.067   5.276   1.471 -0.1775 -0.0451  0.4011
 4128TIP3   OH212389   1.243   0.227   4.186 -0.1150  0.7291 -0.4965
 4128TIP3    H112390   1.187   0.250   4.261  1.4062 -0.0707  0.9402
 4128TIP3    H212391   1.330   0.214   4.224  0.3590 -1.3369 -2.1397
 4129TIP3   OH212392   0.859   0.997   4.684  0.2584 -0.0356  0.1676
 4129TIP3    H112393   0.861   1.086   4.649 -1.4561  0.1405  0.4040
 4129TIP3    H212394   0.777   0.993   4.734 -0.8275 -2.3388 -1.5545
 4130TIP3   OH212395   3.699   0.407   2.041 -0.0199 -0.1504 -0.2754
 4130TIP3    H112396   3.763   0.440   2.104  0.6384 -0.4463 -0.7670
 4130TIP3    H212397   3.619   0.456   2.059  0.5373  0.7174 -0.0931
 4131TIP3   OH212398   5.813   5.360   3.609  0.7161 -0.0772  0.4414
 4131TIP3    H112399   5.726   5.339   3.577  1.5776 -1.4137 -1.2057
 4131TIP3    H212400   5.825   5.304   3.685  0.9266 -1.5481 -0.6418
 4132TIP3   OH212401   2.533   4.088   4.226 -0.2528  0.0375 -0.4587
 4132TIP3    H112402   2.458   4.094   4.285 -0.0693  0.9727 -0.2939
 4132TIP3    H212403   2.556   3.995   4.225 -1.8660 -0.3870 -1.1036
 4133TIP3   OH212404   4.617   0.204   3.846 -0.0174 -0.4940  0.5325
 4133TIP3    H112405   4.628   0.298   3.864 -1.8288 -0.1394 -0.0601
 4133TIP3    H212406   4.597   0.200   3.753 -1.8628 -1.2666  0.9176
 4134TIP3   OH212407   3.406   4.509   3.056 -0.5059  0.2161 -0.0542
 4134TIP3    H112408   3.315   4.495   3.032 -0.9107  1.5646  0.5989
 4134TIP3    H212409   3.405   4.518   3.151  0.8462 -3.5085  0.4686
 4135TIP3   OH212410   4.654   0.695   0.183  0.0017 -0.1262 -0.3210
 4135TIP3    H112411   4.672   0.668   0.274 -0.9372  0.6489  0.1127
 4135TIP3    H212412   4.704   0.776   0.172 -0.8639  0.4439 -0.0841
 4136TIP3   OH212413   3.234   3.618   3.038 -0.5567 -0.1950  0.4472
 4136TIP3    H112414   3.266   3.549   3.097 -0.6158  0.1058  0.8342
 4136TIP3    H212415   3.197   3.684   3.096 -0.3693  0.2333  0.0877
 4137TIP3   OH212416   4.427   2.632   0.280  0.4765 -0.3273  0.4492
 4137TIP3    H112417   4.523   2.633   0.290  0.6492 -1.2064 -0.8060
 4137TIP3    H212418   4.406   2.721   0.250  1.1930 -0.6741 -1.2432
 4138TIP3   OH212419   5.748   2.599   3.076  0.6421 -0.1732  0.2899
 4138TIP3    H112420   5.793   2.647   3.146  0.1073 -0.5199  0.8776
 4138TIP3    H212421   5.700   2.667   3.028 -1.2054 -0.2280  1.9338
 4139TIP3   OH212422   3.644   5.125   2.145  0.0547 -0.3777 -0.1372
 4139TIP3    H112423   3.553   5.097   2.145 -0.3905  1.0093  0.1030
 4139TIP3    H212424   3.641   5.219   2.132  1.3282  0.0126  1.8642
 4140TIP3   OH212425   0.127   0.426   3.230 -0.0248  0.1277  0.0965
 4140TIP3    H112426   0.078   0.398   3.153  0.4059  0.0530 -0.1596
 4140TIP3    H212427   0.068   0.485   3.276 -0.3372  0.0718 -0.2256
 4141TIP3   OH212428   0.103   3.503   4.862  0.5262 -0.2012  0.4391
 4141TIP3    H112429   0.091   3.448   4.786 -0.0434 -0.6247  0.8275
 4141TIP3    H212430   0.128   3.443   4.932  0.5126  0.1106  0.7176
 4142TIP3   OH212431   5.164   2.586   3.861  0.1428 -0.2855  0.0165
 4142TIP3    H112432   5.179   2.596   3.767 -0.5452 -0.4115 -0.1116
 4142TIP3    H212433   5.085   2.534   3.867 -0.2829  0.4148  0.6641
 4143TIP3   OH212434   1.698   5.525   2.695 -0.0383  0.7139  0.3303
 4143TIP3    H112435   1.622   5.534   2.752 -0.9458 -1.7107 -0.3743
 4143TIP3    H212436   1.709   5.612   2.656 -0.7686  1.8227  2.4329
 4144TIP3   OH212437   5.636   2.778   0.148 -0.1879  0.2639 -0.1252
 4144TIP3    H112438   5.642   2.873   0.137 -1.0362  0.4458  0.8244
 4144TIP3    H212439   5.564   2.752   0.091 -1.2589  0.4910  1.0829
 4145TIP3   OH212440   5.466   0.997   4.916 -0.2609  0.4477  0.5987
 4145TIP3    H112441   5.517   0.944   4.978 -0.6627  0.0007  0.5592
 4145TIP3    H212442   5.460   1.083   4.957  3.6133  1.6956 -0.9986
 4146TIP3   OH212443   0.642   2.689   0.683  0.0432  0.3105 -0.1390
 4146TIP3    H112444   0.642   2.767   0.628  0.1809  0.0850 -0.4704
 4146TIP3    H212445   0.631   2.721   0.772 -1.7432  0.5733 -0.4302
 4147TIP3   OH212446   2.773   2.826   0.401 -0.1893  0.2828  0.7115
 4147TIP3    H112447   2.821   2.744   0.411 -0.0228  0.4484  1.2933
 4147TIP3    H212448   2.737   2.844   0.487 -0.2614  0.7970  0.5777
 4148TIP3   OH212449   4.033   3.768   1.993 -0.1883 -0.8520  0.0181
 4148TIP3    H112450   3.985   3.850   2.008 -0.0404 -0.8510  0.4969
 4148TIP3    H212451   3.966   3.700   1.996 -0.1898 -0.8357  0.5472
 4149TIP3   OH212452   4.341   1.442   5.132  0.3078 -0.3674  0.0501
 4149TIP3    H112453   4.261   1.394   5.153 -0.8436  0.7442 -1.6628
 4149TIP3    H212454   4.366   1.410   5.045  0.7072  0.6276 -0.2062
 4150TIP3   OH212455   3.597   1.547   1.852  0.0865 -0.3661  0.2521
 4150TIP3    H112456   3.561   1.565   1.765  0.2323  1.3257  0.5108
 4150TIP3    H212457   3.677   1.599   1.856 -0.5872  0.6131  1.8737
 4151TIP3   OH212458   4.072   0.283   3.909 -0.2554  0.6939  0.2358
 4151TIP3    H112459   4.163   0.255   3.918 -0.1242  0.2744 -1.9463
 4151TIP3    H212460   4.031   0.254   3.990  1.1012 -0.9781  0.3994
 4152TIP3   OH212461   0.002   4.863   5.077  0.2572 -0.3179  0.0223
 4152TIP3    H112462   0.084   4.907   5.055 -0.0568 -0.5946 -1.8005
 4152TIP3    H212463  -0.017   4.893   5.166  1.3588  1.2349 -0.2152
 4153TIP3   OH212464   0.028   3.249   0.824  0.1266  0.4478  0.3591
 4153TIP3    H112465  -0.055   3.278   0.785 -1.6711 -1.4181  2.4721
 4153TIP3    H212466   0.042   3.161   0.788 -0.8694 -0.7569  2.6610
 4154TIP3   OH212467   0.609   2.991   2.928  0.0413  0.0769 -0.7234
 4154TIP3    H112468   0.690   3.001   2.878 -0.0105 -0.6838 -0.9650
 4154TIP3    H212469   0.637   2.954   3.012  0.1667  1.6461 -0.0419
 4155TIP3   OH212470   5.082   0.411   1.076 -0.0844 -0.3073  0.2163
 4155TIP3    H112471   5.066   0.340   1.014 -0.6598  0.0450 -0.0483
 4155TIP3    H212472   5.029   0.484   1.043 -0.0691  0.0159  0.8880
 4156TIP3   OH212473   0.155   5.902   0.079  0.0246 -0.3227  0.1372
 4156TIP3    H112474   0.225   5.838   0.068  0.3104 -0.1820  1.0479
 4156TIP3    H212475   0.084   5.869   0.025  1.2844  0.3051 -1.9974
 4157TIP3   OH212476   2.986   5.293   4.664  0.2305  0.2549 -0.2633
 4157TIP3    H112477   2.975   5.220   4.724  1.3477 -0.8144 -1.3104
 4157TIP3    H212478   2.954   5.261   4.580  1.4958  0.6531 -0.9288
 4158TIP3   OH212479   0.880   2.023   0.309  0.1353  0.5758 -0.3731
 4158TIP3    H112480   0.946   2.006   0.241  1.1471  1.0705  0.4686
 4158TIP3    H212481   0.844   1.937   0.328  1.2302  0.1415 -0.1667
 4159TIP3   OH212482   5.747   0.264   0.998 -0.0306  0.3396 -0.0905
 4159TIP3    H112483   5.697   0.342   0.976 -1.3420 -0.9411 -2.0410
 4159TIP3    H212484   5.688   0.191   0.976  1.1499 -1.2153  1.6107
 4160TIP3   OH212485   4.326   0.196   4.894  0.4461  0.1553  0.7293
 4160TIP3    H112486   4.268   0.216   4.820 -2.5791 -1.5020  2.4186
 4160TIP3    H212487   4.371   0.116   4.869 -0.1253 -0.0786  0.4224
 4161TIP3   OH212488   3.098   0.261   1.947 -0.2651 -0.1106  0.5040
 4161TIP3    H112489   3.055   0.345   1.931  1.5694  0.4931 -1.9027
 4161TIP3    H212490   3.045   0.197   1.900  1.6580  0.7487 -3.1914
 4162TIP3   OH212491   4.183   0.064   0.812  0.4664  0.2606 -0.3478
 4162TIP3    H112492   4.258   0.077   0.870 -0.4189 -1.0421  1.1851
 4162TIP3    H212493   4.160   0.152   0.783  0.9120  0.9926  1.3665
 4163TIP3   OH212494   5.119   2.674   2.660 -0.3031  0.4944  0.5758
 4163TIP3    H112495   5.159   2.759   2.674  0.5509  0.1427  0.3067
 4163TIP3    H212496   5.154   2.619   2.730 -1.6525  0.6129  1.3892
 4164TIP3   OH212497   4.631   1.575   0.843  0.1279 -0.4527  0.5101
 4164TIP3    H112498   4.652   1.524   0.922  1.4432 -0.8101 -0.0429
 4164TIP3    H212499   4.584   1.514   0.786  0.9308 -0.7932  0.2080
 4165TIP3   OH212500   4.321   3.387   0.328 -0.1514 -0.4114 -0.4834
 4165TIP3    H112501   4.290   3.361   0.415  2.3872  0.3896  0.7599
 4165TIP3    H212502   4.244   3.425   0.286 -1.3499 -0.3228  1.6211
 4166TIP3   OH212503   0.502   4.684   2.976  0.6837 -0.2787  0.0541
 4166TIP3    H112504   0.477   4.734   3.054  2.2316 -1.0274  1.0813
 4166TIP3    H212505   0.419   4.667   2.931 -0.3158 -0.1902  1.7574
 4167TIP3   OH212506   3.992   1.832   5.060 -0.5821 -0.0351 -0.6465
 4167TIP3    H112507   3.935   1.907   5.080  0.2189  0.7472 -1.2487
 4167TIP3    H212508   4.077   1.856   5.097 -0.0888 -0.2632 -1.6107
 4168TIP3   OH212509   4.375   3.332   3.900  0.0455  0.5977 -0.4384
 4168TIP3    H112510   4.336   3.333   3.988 -2.2764 -1.7748 -1.2945
 4168TIP3    H212511   4.312   3.380   3.846  0.0684 -0.2377 -1.2372
 4169TIP3   OH212512  -0.006   3.925   1.071 -0.3149  0.5132 -0.2164
 4169TIP3    H112513   0.060   3.894   1.133 -1.3575 -0.4891  0.4430
 4169TIP3    H212514  -0.032   4.010   1.105 -0.6766  0.0948  0.5795
 4170TIP3   OH212515   1.045   1.109   0.404  0.6199 -0.1358  0.4945
 4170TIP3    H112516   1.010   1.035   0.453  1.0374 -0.2009  0.7009
 4170TIP3    H212517   1.112   1.071   0.347  1.7772  0.2443  1.5585
 4171TIP3   OH212518   5.686   2.105   4.290  0.4808 -0.3900 -0.6375
 4171TIP3    H112519   5.749   2.170   4.258 -0.0650  0.8073  0.6284
 4171TIP3    H212520   5.722   2.021   4.260  2.6930  0.2416  0.0371
 4172TIP3   OH212521   6.278   1.610   2.139 -0.0617  0.5113  0.1345
 4172TIP3    H112522   6.200   1.562   2.166 -0.2651  0.9547  0.3531
 4172TIP3    H212523   6.290   1.676   2.208 -0.1061  1.1233 -0.4343
 4173TIP3   OH212524   3.823   2.864   0.776 -0.2053 -0.1802  0.5575
 4173TIP3    H112525   3.894   2.801   0.763 -0.4733 -0.3619 -0.1102
 4173TIP3    H212526   3.867   2.948   0.789  0.1363 -0.2701  0.0303
 4174TIP3   OH212527   5.669   1.842   0.249  0.1184 -0.3770  0.1658
 4174TIP3    H112528   5.703   1.929   0.227 -1.5095 -0.2256 -2.0367
 4174TIP3    H212529   5.587   1.859   0.295  1.0433 -0.7915  2.0920
 4175TIP3   OH212530   5.598   1.445   1.328  0.3563 -0.0956  0.0266
 4175TIP3    H112531   5.560   1.516   1.380  0.2006 -0.4493  0.3987
 4175TIP3    H212532   5.692   1.464   1.326  0.3488 -0.0182  0.3415
 4176TIP3   OH212533   2.111   5.055   2.773 -0.1621 -0.7128  0.3524
 4176TIP3    H112534   2.148   5.139   2.802 -2.4222  0.3049  0.5420
 4176TIP3    H212535   2.097   5.066   2.679 -2.4290  0.0103  0.7197
 4177TIP3   OH212536   1.992   2.123   3.139  0.5883  0.0546  0.2669
 4177TIP3    H112537   1.948   2.179   3.202  2.2274  2.3738 -0.5051
 4177TIP3    H212538   1.969   2.160   3.054  2.6937  0.3450 -0.2165
 4178TIP3   OH212539   0.806   4.283   1.051  0.3877 -0.1526  0.1337
 4178TIP3    H112540   0.775   4.250   0.967  1.3941 -0.5062 -0.1197
 4178TIP3    H212541   0.888   4.235   1.067 -0.2700 -0.8133  1.7945
 4179TIP3   OH212542   2.090   3.681   2.392 -0.4140 -0.0085 -0.2571
 4179TIP3    H112543   2.055   3.660   2.305  1.0075  2.0132 -1.3822
 4179TIP3    H212544   2.036   3.753   2.423  1.2881  1.6896 -1.0805
 4180TIP3   OH212545   1.399   3.929   2.842 -0.2859 -0.1862  0.6532
 4180TIP3    H112546   1.314   3.884   2.841 -0.7273  0.5805  1.7564
 4180TIP3    H212547   1.380   4.015   2.806  0.2619 -0.3848 -0.1234
 4181TIP3   OH212548   2.450   5.556   3.606 -0.2512  0.0598  0.2195
 4181TIP3    H112549   2.492   5.513   3.531 -0.3985 -0.0101  0.1768
 4181TIP3    H212550   2.412   5.636   3.570 -0.0831  0.1641  0.2747
 4182TIP3   OH212551   5.613   4.197   4.680  0.6789 -0.5450 -0.5646
 4182TIP3    H112552   5.556   4.256   4.632  1.7199  1.2759  0.3275
 4182TIP3    H212553   5.697   4.201   4.635  0.9536 -0.8014 -0.0918
 4183TIP3   OH212554   1.556   5.749   1.035 -0.4591 -0.8652 -0.4416
 4183TIP3    H112555   1.530   5.841   1.032  0.5639 -0.5873 -1.7723
 4183TIP3    H212556   1.544   5.724   1.126  0.4037  0.9482  0.2360
 4184TIP3   OH212557   5.469   0.045   0.622  0.1187  0.6649  0.7185
 4184TIP3    H112558   5.411  -0.006   0.678 -0.8982  0.5367 -0.4107
 4184TIP3    H212559   5.459   0.135   0.652  1.6731  0.3016  2.5059
 4185TIP3   OH212560   6.233   1.859   1.211 -0.2023  0.1233  0.3925
 4185TIP3    H112561   6.201   1.907   1.135 -0.1736 -0.3387  0.0818
 4185TIP3    H212562   6.254   1.772   1.177  0.7330  0.2068  0.7338
 4186TIP3   OH212563   1.675   4.243   4.350 -0.3913  0.5385 -0.1344
 4186TIP3    H112564   1.739   4.229   4.280 -0.2958 -0.2980  0.1141
 4186TIP3    H212565   1.711   4.316   4.401 -0.4172  1.0941 -0.8992
 4187TIP3   OH212566   0.350   1.966   4.979  0.3029 -0.1643 -0.6691
 4187TIP3    H112567   0.440   1.974   5.009  0.5728 -0.8139 -1.2757
 4187TIP3    H212568   0.299   1.947   5.059  0.7999 -0.4534 -0.4168
 4188TIP3   OH212569   2.821   4.222   3.504  0.3183 -0.0958  0.2051
 4188TIP3    H112570   2.848   4.311   3.478  1.8376 -0.4947  0.3088
 4188TIP3    H212571   2.861   4.165   3.438 -0.4234 -0.7366  0.2935
 4189TIP3   OH212572   2.128   4.410   4.033 -0.6971  0.2945  0.1188
 4189TIP3    H112573   2.037   4.413   4.006 -0.8498 -2.8403 -0.1111
 4189TIP3    H212574   2.177   4.398   3.951 -0.2337  0.3868  0.3794
 4190TIP3   OH212575   5.618   4.850   1.115 -0.0214 -0.0385  0.5136
 4190TIP3    H112576   5.687   4.792   1.146  2.3955  2.2574 -0.1770
 4190TIP3    H212577   5.576   4.802   1.044 -0.3037 -2.1344  1.9917
 4191TIP3   OH212578   4.430   4.628   0.142 -0.0883 -0.4867 -0.4384
 4191TIP3    H112579   4.431   4.591   0.054 -0.5147 -0.5394 -0.4255
 4191TIP3    H212580   4.518   4.663   0.155  0.4512 -1.8378 -0.2962
 4192TIP3   OH212581   1.079   1.873   0.562 -0.2885  0.3402  0.2870
 4192TIP3    H112582   1.111   1.915   0.482 -1.0570  1.0780  0.3514
 4192TIP3    H212583   1.077   1.780   0.541 -0.7504  0.5494 -0.6600
 4193TIP3   OH212584   0.027   0.102   1.676  0.2878 -0.0465 -0.4051
 4193TIP3    H112585   0.073   0.179   1.642 -0.4592  0.6358  0.0860
 4193TIP3    H212586   0.082   0.071   1.747 -0.5362  1.4755  0.9691
 4194TIP3   OH212587   0.049   3.346   1.080 -0.5623 -0.0329 -0.0902
 4194TIP3    H112588   0.027   3.326   0.989  0.4528  0.1697 -0.3915
 4194TIP3    H212589   0.102   3.272   1.108  0.0885  0.4559 -0.0286
 4195TIP3   OH212590   2.692   0.243   1.286  0.4359 -0.2118 -0.2797
 4195TIP3    H112591   2.782   0.273   1.280  0.0234  1.4131  1.0263
 4195TIP3    H212592   2.658   0.250   1.197  1.0701  0.9475 -0.4466
 4196TIP3   OH212593   4.048   2.927   1.808  0.1624 -0.2651 -0.0372
 4196TIP3    H112594   3.990   2.956   1.738 -0.8426 -1.5979  0.2253
 4196TIP3    H212595   4.086   3.008   1.842 -0.9100  0.5634 -0.7532
 4197TIP3   OH212596   5.948   0.683   1.293 -0.2943  0.1331  0.4555
 4197TIP3    H112597   5.869   0.647   1.333 -1.0164  0.5165 -0.5778
 4197TIP3    H212598   5.920   0.713   1.207  0.9719  0.3379  0.0890
 4198TIP3   OH212599   3.064   0.670   1.699  0.4428 -0.2175 -0.2517
 4198TIP3    H112600   2.973   0.659   1.672  0.0181 -0.0262  1.0383
 4198TIP3    H212601   3.082   0.763   1.683  0.6592 -0.4112 -1.1944
 4199TIP3   OH212602   0.995   4.060   3.434  0.1642  0.5207  0.3188
 4199TIP3    H112603   1.073   4.086   3.384  0.6417 -0.9972  0.2110
 4199TIP3    H212604   1.008   3.967   3.450 -2.7583 -0.3916 -1.7951
 4200TIP3   OH212605   4.264   1.291   2.624 -0.0774 -0.1961 -0.1090
 4200TIP3    H112606   4.350   1.335   2.623  0.2079 -0.7335  0.4674
 4200TIP3    H212607   4.212   1.342   2.562 -0.3445  2.1178  1.8537
 4201TIP3   OH212608   0.059   5.635   0.286 -0.4070  0.1246  0.4168
 4201TIP3    H112609   0.010   5.586   0.353  1.1672 -0.6135  1.0720
 4201TIP3    H212610   0.151   5.627   0.312  0.0352  2.3639 -0.1720
 4202TIP3   OH212611   0.450   0.551   2.932  0.3308  0.0513 -0.8835
 4202TIP3    H112612   0.391   0.601   2.877  1.4400  2.0084 -0.3913
 4202TIP3    H212613   0.535   0.593   2.921  0.6993  0.2997  1.9697
 4203TIP3   OH212614   3.056   3.710   4.940 -0.1436  0.0312 -0.6131
 4203TIP3    H112615   3.075   3.620   4.912  0.7588  0.1825 -0.5136
 4203TIP3    H212616   3.098   3.765   4.873  3.4215  0.4336  1.7040
 4204TIP3   OH212617   2.910   2.020   0.747 -0.1319  0.0008 -0.0231
 4204TIP3    H112618   2.876   1.937   0.714  2.3369 -0.4237 -1.7707
 4204TIP3    H212619   2.929   2.004   0.839 -2.8844 -0.2132  0.6168
 4205TIP3   OH212620   2.362   0.059   3.656 -0.7656 -0.1820  0.1044
 4205TIP3    H112621   2.310   0.111   3.716  0.0601 -0.1200  0.7807
 4205TIP3    H212622   2.400   0.123   3.596 -0.8937 -0.1574  0.0482
 4206TIP3   OH212623   1.554   4.679   0.732 -0.7724 -0.3993  0.4199
 4206TIP3    H112624   1.522   4.700   0.820  0.5459 -2.4354  1.4815
 4206TIP3    H212625   1.646   4.657   0.745  0.4814  2.5784 -2.0705
 4207TIP3   OH212626   6.251   3.666   4.732  0.1476  0.3288 -0.9982
 4207TIP3    H112627   6.319   3.621   4.782 -0.4407 -0.4461 -0.8805
 4207TIP3    H212628   6.270   3.759   4.744  1.1642  0.1284 -0.9417
 4208TIP3   OH212629   3.641   4.989   4.718 -0.6636  0.8355 -0.7274
 4208TIP3    H112630   3.545   4.986   4.710 -0.7351 -0.0385  0.2782
 4208TIP3    H212631   3.656   5.014   4.809 -0.0530 -5.4860  1.3887
 4209TIP3   OH212632   1.882   4.760   3.875  0.3613 -0.6517  0.1399
 4209TIP3    H112633   1.973   4.736   3.856  0.9099  1.4116 -0.0988
 4209TIP3    H212634   1.864   4.833   3.815 -1.1009 -0.3261  0.9343
 4210TIP3   OH212635   3.126   0.669   2.979 -0.2734  0.1194  0.0842
 4210TIP3    H112636   3.217   0.698   2.978  0.2906 -1.5367 -0.5820
 4210TIP3    H212637   3.116   0.622   3.062 -0.5583  0.4155  0.2184
 4211TIP3   OH212638   4.297   1.912   4.892  0.3113 -0.1053 -0.0417
 4211TIP3    H112639   4.283   1.818   4.881 -1.6060  0.0620  0.5136
 4211TIP3    H212640   4.385   1.919   4.929  1.1592 -1.5403 -1.6084
 4212TIP3   OH212641   1.629   2.198   0.598 -0.4354  0.1171  0.1705
 4212TIP3    H112642   1.537   2.173   0.607 -0.6538  0.2417 -1.4027
 4212TIP3    H212643   1.646   2.194   0.504  1.3181 -0.4042  0.4635
 4213TIP3   OH212644   4.007   4.503   3.353 -0.2776 -0.2532  0.1466
 4213TIP3    H112645   4.013   4.420   3.306  0.5170 -1.2762  1.9699
 4213TIP3    H212646   4.066   4.562   3.306 -0.7593 -0.7332 -1.0955
 4214TIP3   OH212647   5.592   0.919   0.580  0.3079  0.5873 -0.1268
 4214TIP3    H112648   5.579   1.006   0.619 -0.5365  0.4355 -0.0650
 4214TIP3    H212649   5.682   0.922   0.547  0.8843  0.9013  1.3751
 4215TIP3   OH212650   1.587   5.058   3.985 -0.5224  0.0874  0.3987
 4215TIP3    H112651   1.535   5.085   4.061 -0.2561 -0.0609  0.6340
 4215TIP3    H212652   1.621   4.971   4.008 -1.8193 -0.7108 -0.5798
 4216TIP3   OH212653   6.002   4.694   1.045 -0.0549 -0.1017  0.1590
 4216TIP3    H112654   5.952   4.676   0.965  0.2372 -1.4982  0.2681
 4216TIP3    H212655   6.086   4.728   1.014 -0.3539  0.4498 -0.0737
 4217TIP3   OH212656   3.815   3.781   1.770  0.4269 -0.1453  0.0483
 4217TIP3    H112657   3.750   3.761   1.703 -1.6257 -1.7689  2.3550
 4217TIP3    H212658   3.791   3.868   1.801  1.6599  0.8099 -1.5106
 4218TIP3   OH212659   1.174   5.708   5.156 -0.0931  0.7089  0.6373
 4218TIP3    H112660   1.102   5.673   5.102 -0.3824  1.5482  0.4565
 4218TIP3    H212661   1.133   5.728   5.240  0.1406  0.3234  0.8444
 4219TIP3   OH212662   5.147   0.871   4.292 -0.0317  0.6139  0.3816
 4219TIP3    H112663   5.170   0.801   4.231  1.9901  0.7953  0.8560
 4219TIP3    H212664   5.055   0.856   4.312  0.1313 -1.4363 -0.1573
 4220TIP3   OH212665   3.109   0.064   3.854 -0.6809 -0.0905 -0.2401
 4220TIP3    H112666   3.138   0.023   3.772  1.5700  2.5784 -0.9147
 4220TIP3    H212667   3.084   0.153   3.829  0.2444  0.8627  1.9583
 4221TIP3   OH212668   5.049   5.045   4.297 -0.2487  0.0946 -0.3662
 4221TIP3    H112669   5.054   5.045   4.392  0.2975  0.5697 -0.3882
 4221TIP3    H212670   4.990   4.972   4.276  0.0471 -0.3557  0.3139
 4222TIP3   OH212671   3.410   0.942   2.322 -0.2746 -0.1218 -0.2631
 4222TIP3    H112672   3.484   0.982   2.367 -0.2289 -0.3430 -0.1380
 4222TIP3    H212673   3.352   0.913   2.392 -1.0078  1.0242 -0.3739
 4223TIP3   OH212674   1.100   3.589   4.644 -0.0951 -0.4877 -0.4676
 4223TIP3    H112675   1.091   3.659   4.580  1.2454  0.5085  0.3674
 4223TIP3    H212676   1.104   3.635   4.729 -0.4775 -1.6731  0.2167
 4224TIP3   OH212677   2.224   2.004   3.108  0.1860 -0.2063 -0.2793
 4224TIP3    H112678   2.280   2.081   3.112 -0.1852  0.0641 -0.2557
 4224TIP3    H212679   2.138   2.035   3.136 -0.0065 -0.5901 -0.4347
 4225TIP3   OH212680   5.988   1.021   5.105  0.3264  0.1001 -0.9450
 4225TIP3    H112681   5.943   0.942   5.075  0.8343 -0.3317 -0.5654
 4225TIP3    H212682   5.921   1.068   5.156  0.5750 -1.0446  0.5069
 4226TIP3   OH212683   5.974   1.292   0.133 -0.1303 -0.4173 -0.2446
 4226TIP3    H112684   5.912   1.344   0.183  1.3293  2.3666 -1.1520
 4226TIP3    H212685   5.921   1.248   0.067 -1.2015  2.1641 -1.2328
 4227TIP3   OH212686   1.366   1.892   0.706 -0.8088  0.5676  0.0901
 4227TIP3    H112687   1.375   1.962   0.641 -0.8193 -0.4218 -1.0273
 4227TIP3    H212688   1.333   1.818   0.655 -1.3580 -0.0756  1.3579
 4228TIP3   OH212689   0.197   4.698   2.350  0.3986  0.1523 -0.3214
 4228TIP3    H112690   0.216   4.628   2.413  1.4989 -0.1907 -1.0022
 4228TIP3    H212691   0.276   4.751   2.349 -0.2701  1.1748 -0.1354
 4229TIP3   OH212692   3.991   3.760   4.018  0.0616 -0.2993  0.3939
 4229TIP3    H112693   4.076   3.717   4.012  0.1606 -0.5769  2.8062
 4229TIP3    H212694   3.927   3.689   4.010  0.1650 -0.5478  1.5355
 4230TIP3   OH212695   5.778   4.068   0.459 -0.3174  0.1686  0.2114
 4230TIP3    H112696   5.870   4.042   0.464 -0.4651 -0.1212  1.5828
 4230TIP3    H212697   5.731   4.004   0.512 -1.2270  0.7300  0.1174
 4231TIP3   OH212698   5.734   1.418   3.322  0.0877 -0.0381 -0.3282
 4231TIP3    H112699   5.725   1.323   3.335  0.1814  0.0559  0.4804
 4231TIP3    H212700   5.706   1.432   3.232 -2.4937 -0.5208  0.3056
 4232TIP3   OH212701   2.744   5.072   0.176  0.0165  0.3359 -0.1771
 4232TIP3    H112702   2.840   5.072   0.173  0.0404 -1.6292 -1.0574
 4232TIP3    H212703   2.719   5.132   0.105  0.6276 -0.2331 -0.9056
 4233TIP3   OH212704   5.228   1.117   1.453  0.2751  0.5721  0.5525
 4233TIP3    H112705   5.176   1.144   1.378  2.0127  1.3847 -0.4399
 4233TIP3    H212706   5.168   1.119   1.527 -0.9370  2.0646 -0.4193
 4234TIP3   OH212707   5.998   4.961   0.466  0.1626 -0.2429  0.3816
 4234TIP3    H112708   6.028   5.011   0.390  2.5551  1.2452  2.1520
 4234TIP3    H212709   6.008   4.869   0.439  0.0352  0.2325 -1.4108
 4235TIP3   OH212710   0.601   0.449   3.858  0.0775  0.1944 -0.0679
 4235TIP3    H112711   0.561   0.368   3.827  2.2609 -0.9230 -0.1857
 4235TIP3    H212712   0.683   0.456   3.809  2.4706 -0.2749  3.4484
 4236TIP3   OH212713   3.864   3.811   2.641 -0.3992 -0.9131  0.3816
 4236TIP3    H112714   3.789   3.830   2.697  0.3651 -0.8281  1.3984
 4236TIP3    H212715   3.924   3.763   2.697  0.3316 -0.9416 -0.4098
 4237TIP3   OH212716   3.422   0.714   1.412  0.4641  0.4553 -0.7298
 4237TIP3    H112717   3.347   0.673   1.369  0.2662  2.5792 -2.5897
 4237TIP3    H212718   3.384   0.786   1.462  1.1684  0.8333 -0.7325
 4238TIP3   OH212719   2.973   2.824   2.149  0.3324 -0.2533 -0.5065
 4238TIP3    H112720   3.040   2.890   2.130  1.0732 -0.3701  1.4276
 4238TIP3    H212721   3.017   2.740   2.133 -0.0050 -0.3187 -1.1298
 4239TIP3   OH212722   4.988   2.607   1.707  0.1489  0.1550  0.0841
 4239TIP3    H112723   4.911   2.553   1.724  0.9109 -1.3199 -0.9503
 4239TIP3    H212724   5.060   2.561   1.750  0.5789  1.1319  0.4235
 4240TIP3   OH212725   6.087   0.064   4.104 -0.7925  0.0712 -0.1993
 4240TIP3    H112726   6.040   0.018   4.034  1.5702  0.2014 -2.0104
 4240TIP3    H212727   6.097   0.153   4.070 -0.3090  0.3656  0.6950
 4241TIP3   OH212728   0.686   0.736   3.616 -0.0334  0.3252  0.4096
 4241TIP3    H112729   0.639   0.755   3.697  2.1480  0.3608  1.7438
 4241TIP3    H212730   0.720   0.647   3.629 -1.2328 -0.4402 -1.3148
 4242TIP3   OH212731   0.597   1.109   3.914  0.4105 -0.0746 -0.1724
 4242TIP3    H112732   0.684   1.148   3.912  0.4491 -0.1426  0.1754
 4242TIP3    H212733   0.587   1.069   3.827  0.8367 -0.3048 -0.1197
 4243TIP3   OH212734   6.139   2.056   0.686 -0.3355  0.5836 -0.1265
 4243TIP3    H112735   6.064   2.000   0.706 -0.3114  0.4629 -0.3757
 4243TIP3    H212736   6.101   2.134   0.647 -0.5185  1.4979  1.7579
 4244TIP3   OH212737   4.279   5.206   3.024  0.3649  0.0408 -0.2736
 4244TIP3    H112738   4.247   5.217   2.935 -0.2422  1.0361  0.0554
 4244TIP3    H212739   4.233   5.273   3.075 -1.0412 -1.9236  1.2424
 4245TIP3   OH212740   0.835   3.811   0.859  0.6532 -0.5086  0.0545
 4245TIP3    H112741   0.818   3.840   0.948  0.9844  0.5645 -0.2096
 4245TIP3    H212742   0.886   3.730   0.869  1.5197  0.1096  0.8497
 4246TIP3   OH212743   3.056   1.851   2.520 -0.0606 -0.5982 -0.2376
 4246TIP3    H112744   3.067   1.764   2.480 -0.3035 -0.5701 -0.3713
 4246TIP3    H212745   3.089   1.912   2.454 -1.0697 -0.5069 -0.6818
 4247TIP3   OH212746   1.497   1.367   2.283  0.0379 -0.0943  0.3118
 4247TIP3    H112747   1.568   1.429   2.294 -0.9855  0.9314  1.4727
 4247TIP3    H212748   1.522   1.291   2.336 -0.0030  0.5298  1.2514
 4248TIP3   OH212749   4.246   4.851   2.576  0.2756 -0.6864  0.0575
 4248TIP3    H112750   4.163   4.875   2.616 -0.2170 -4.4423  1.7389
 4248TIP3    H212751   4.310   4.855   2.647  0.9707 -0.5084 -0.5575
 4249TIP3   OH212752   3.537   5.662   5.064  0.0110 -0.3769 -0.3996
 4249TIP3    H112753   3.581   5.617   5.136  1.0017 -0.3340 -0.9687
 4249TIP3    H212754   3.577   5.749   5.062 -1.7000  0.4899  0.5193
 4250TIP3   OH212755   0.194   1.334   3.855  0.0468  0.2188 -0.4669
 4250TIP3    H112756   0.156   1.266   3.911  1.9356 -0.5898 -0.1033
 4250TIP3    H212757   0.134   1.340   3.781 -2.7029  1.4830  1.6239
 4251TIP3   OH212758   4.594   1.220   0.998 -0.0556 -0.2088  0.1286
 4251TIP3    H112759   4.574   1.302   1.042 -1.3348 -0.0823 -0.6340
 4251TIP3    H212760   4.518   1.204   0.942  1.0433 -0.8900 -1.2302
 4252TIP3   OH212761   1.617   1.856   1.371  0.1535  0.2087  0.2623
 4252TIP3    H112762   1.582   1.943   1.356 -0.1244 -0.2409 -2.1361
 4252TIP3    H212763   1.543   1.804   1.402 -0.4867  0.1056 -1.3696
 4253TIP3   OH212764   1.410   5.017   2.405 -0.1678 -0.2010  0.2947
 4253TIP3    H112765   1.343   5.065   2.454  0.2414 -0.5837  1.2698
 4253TIP3    H212766   1.491   5.064   2.425  0.2510 -1.2995  1.3298
 4254TIP3   OH212767   3.173   1.206   1.047  0.1591  0.8598  0.1843
 4254TIP3    H112768   3.249   1.257   1.018  0.5898 -0.8957 -2.0548
 4254TIP3    H212769   3.203   1.161   1.126  1.3413  0.5523 -0.4142
 4255TIP3   OH212770   5.541   1.937   0.026 -0.6524  0.1708 -0.3451
 4255TIP3    H112771   5.616   1.895  -0.015 -0.5890  1.1335 -1.2761
 4255TIP3    H212772   5.579   1.996   0.091 -0.7591 -1.4608  1.2705
 4256TIP3   OH212773   5.820   0.849   4.853  0.1268  0.1267  0.4491
 4256TIP3    H112774   5.765   0.833   4.930 -0.8722 -0.9794 -0.4488
 4256TIP3    H212775   5.758   0.853   4.780  1.1468 -0.0001 -0.4494
 4257TIP3   OH212776   2.530   0.345   4.090  0.0723 -0.0049  0.4841
 4257TIP3    H112777   2.445   0.304   4.102 -0.9782  1.3445 -1.7857
 4257TIP3    H212778   2.511   0.430   4.050  2.4087  0.9195  1.1571
 4258TIP3   OH212779   1.555   1.611   3.342  0.0156  0.5736 -0.0768
 4258TIP3    H112780   1.529   1.564   3.421 -0.7329  0.8500 -0.1476
 4258TIP3    H212781   1.629   1.561   3.306 -0.4533 -0.2638  0.1096
 4259TIP3   OH212782   1.169   1.052   1.331 -0.1672 -0.6614 -0.3491
 4259TIP3    H112783   1.169   1.039   1.236 -2.9152  4.5028 -1.4493
 4259TIP3    H212784   1.247   1.104   1.348  0.5306 -1.9084  0.3573
 4260TIP3   OH212785   5.929   2.486   1.298 -0.4623  0.2186 -0.0297
 4260TIP3    H112786   5.879   2.442   1.230  0.2579  0.0826 -0.4734
 4260TIP3    H212787   5.867   2.548   1.337 -1.1067 -0.2815 -0.2558
 4261TIP3   OH212788   5.586   5.584   4.397 -0.7688  0.2346 -0.5111
 4261TIP3    H112789   5.681   5.586   4.380 -0.5108  2.2023  0.7532
 4261TIP3    H212790   5.560   5.676   4.393 -2.2260 -0.0560  1.1292
 4262TIP3   OH212791   2.967   4.669   4.632  0.7127 -0.2081 -0.2692
 4262TIP3    H112792   2.948   4.597   4.693  0.9406  0.5448  0.7146
 4262TIP3    H212793   2.911   4.741   4.661 -1.3012 -0.6635 -2.6943
 4263TIP3   OH212794   3.001   4.897   4.252 -0.1497 -0.1188  0.2844
 4263TIP3    H112795   2.949   4.952   4.193  1.5304  0.2963 -0.8890
 4263TIP3    H212796   3.092   4.910   4.223  0.8135  0.3821  3.2209
 4264TIP3   OH212797   6.087   4.417   3.838  0.2040 -0.2405  0.4764
 4264TIP3    H112798   6.168   4.465   3.854 -0.8302  1.6868  0.2060
 4264TIP3    H212799   6.098   4.379   3.751 -0.4715  2.9905 -1.1675
 4265TIP3   OH212800   4.090   5.466   3.543  0.1052 -0.4823 -0.0439
 4265TIP3    H112801   4.000   5.481   3.572 -0.5682 -2.4321 -0.9202
 4265TIP3    H212802   4.118   5.388   3.592  2.1247  1.2471  1.7639
 4266TIP3   OH212803   3.296   1.061   4.582  0.0212 -0.5566  0.2974
 4266TIP3    H112804   3.270   1.123   4.650  0.6354 -0.0997  0.1260
 4266TIP3    H212805   3.217   1.048   4.530 -0.3629 -0.6500  0.8967
 4267TIP3   OH212806   2.111   3.291   2.921 -0.0303 -0.2563 -0.3184
 4267TIP3    H112807   2.095   3.198   2.903 -2.6954 -0.0855  0.7316
 4267TIP3    H212808   2.065   3.337   2.852  0.9979  0.3328 -0.6388
 4268TIP3   OH212809   6.264   5.223   3.537 -0.2774  0.6234  0.4037
 4268TIP3    H112810   6.290   5.139   3.499  1.1167  1.3386 -0.2771
 4268TIP3    H212811   6.174   5.235   3.508  0.7846  1.3114 -3.1584
 4269TIP3   OH212812   2.964   1.925   1.005  0.3437  0.2868 -0.6158
 4269TIP3    H112813   2.996   1.844   1.045 -1.4166 -0.4770 -0.6498
 4269TIP3    H212814   2.997   1.995   1.062 -1.3729 -0.7226  1.7587
 4270TIP3   OH212815   0.165   3.715   2.370  0.0076  0.1476  0.3901
 4270TIP3    H112816   0.255   3.714   2.339 -0.2139 -0.8085 -0.2651
 4270TIP3    H212817   0.112   3.696   2.292 -0.6245 -1.3081  1.1338
 4271TIP3   OH212818   6.146   5.416   0.905  0.7146  0.5643  0.3867
 4271TIP3    H112819   6.111   5.501   0.931 -0.8020  0.0353  0.1526
 4271TIP3    H212820   6.211   5.396   0.973  2.3081  2.6038 -0.4252
 4272TIP3   OH212821   0.294   5.164   3.780 -0.2400  0.6502  0.8104
 4272TIP3    H112822   0.376   5.120   3.803  0.7906  1.1628 -1.5359
 4272TIP3    H212823   0.322   5.247   3.740 -1.9414  1.1686  0.6303
 4273TIP3   OH212824   1.366   1.572   3.867 -0.5686 -0.1303 -0.5035
 4273TIP3    H112825   1.301   1.518   3.912 -0.6634 -0.7687 -1.3997
 4273TIP3    H212826   1.402   1.629   3.936 -1.5166 -0.3107  0.1464
 4274TIP3   OH212827   0.744   3.816   3.277  0.6362  0.2977  0.3143
 4274TIP3    H112828   0.824   3.782   3.316 -0.2921 -0.1933  1.8977
 4274TIP3    H212829   0.687   3.740   3.268 -0.5052  0.9648  1.4456
 4275TIP3   OH212830   3.385   3.035   1.947 -0.1938 -0.1973  0.0656
 4275TIP3    H112831   3.441   2.970   1.906 -0.7027 -0.5982  0.0028
 4275TIP3    H212832   3.315   3.049   1.884 -0.9717 -0.8017  0.7770
 4276TIP3   OH212833   5.440   0.986   4.203  0.1477 -0.1988 -0.1541
 4276TIP3    H112834   5.441   0.946   4.291  1.1934 -1.0450 -0.5285
 4276TIP3    H212835   5.429   1.079   4.220  0.6595 -0.3112  0.9058
 4277TIP3   OH212836   0.514   4.832   0.425  0.5071 -0.6879 -0.1539
 4277TIP3    H112837   0.508   4.762   0.360  0.8056 -1.3153  0.4802
 4277TIP3    H212838   0.423   4.855   0.444  0.3013 -2.6145  1.4228
 4278TIP3   OH212839   0.677   2.447   4.837 -0.1295  0.2224  0.1176
 4278TIP3    H112840   0.604   2.486   4.885 -1.2021  1.3236 -2.2174
 4278TIP3    H212841   0.706   2.516   4.777  1.7684 -0.7529 -0.1734
 4279TIP3   OH212842   1.808   5.881   4.205  0.3752  0.8293  0.3247
 4279TIP3    H112843   1.738   5.944   4.188  0.7731  1.4407  0.8765
 4279TIP3    H212844   1.808   5.824   4.129 -1.7792 -0.1931  1.0010
 4280TIP3   OH212845   3.767   5.001   3.206  0.1062  0.2256  0.2917
 4280TIP3    H112846   3.784   4.919   3.252  0.3223 -0.2404 -0.6065
 4280TIP3    H212847   3.783   5.069   3.272 -0.2042 -0.4479  1.0758
 4281TIP3   OH212848   4.224   0.532   3.837  0.0391  0.0438  0.4005
 4281TIP3    H112849   4.154   0.472   3.864 -0.5015  1.0721  1.3276
 4281TIP3    H212850   4.238   0.588   3.913 -2.0538  3.5807 -1.5946
 4282TIP3   OH212851   6.186   4.202   4.171  0.0158  0.2165  0.3574
 4282TIP3    H112852   6.260   4.217   4.112  0.4140 -1.2437  0.4298
 4282TIP3    H212853   6.177   4.284   4.219  2.8151 -0.1083  1.6734
 4283TIP3   OH212854   3.726   5.962   3.446  0.4387  0.7108 -0.2348
 4283TIP3    H112855   3.720   6.007   3.530 -0.1465 -0.7145  0.5043
 4283TIP3    H212856   3.644   5.913   3.439  0.7690  0.2925 -1.3320
 4284TIP3   OH212857   3.454   2.966   4.925 -0.2746 -0.6084 -0.1211
 4284TIP3    H112858   3.497   3.035   4.874 -1.6595  1.6629  1.5946
 4284TIP3    H212859   3.372   2.949   4.879 -0.2610 -0.5798 -0.1557
 4285TIP3   OH212860   0.305   0.104   1.111  0.3060 -0.0402 -0.1884
 4285TIP3    H112861   0.390   0.129   1.148  1.7048 -3.9700 -0.3053
 4285TIP3    H212862   0.248   0.091   1.187 -0.3263  2.6180 -0.1096
 4286TIP3   OH212863   5.885   2.200   0.707  0.4386 -0.0622  0.3499
 4286TIP3    H112864   5.849   2.213   0.619  0.0787  3.2045  0.8593
 4286TIP3    H212865   5.810   2.172   0.759 -0.2427  1.6232  0.3296
 4287TIP3   OH212866   4.086   1.339   4.793 -0.6493  0.2216  0.1112
 4287TIP3    H112867   4.116   1.303   4.710 -1.5988 -1.1859  0.3478
 4287TIP3    H212868   4.167   1.368   4.837  0.3404 -2.4475  0.2645
 4288TIP3   OH212869   4.158   2.208   0.743  0.1986  0.3012 -0.0873
 4288TIP3    H112870   4.153   2.289   0.693  2.2870  0.2373 -0.4904
 4288TIP3    H212871   4.251   2.187   0.746 -0.2273 -1.7832  0.5056
 4289TIP3   OH212872   2.885   4.025   3.930 -0.0099  0.0734  0.7413
 4289TIP3    H112873   2.801   4.051   3.892  0.0420  0.2726  0.7673
 4289TIP3    H212874   2.892   4.074   4.011  0.5717  0.7782  0.2727
 4290TIP3   OH212875   4.945   2.895   0.114  0.4599 -0.3255  0.0932
 4290TIP3    H112876   4.861   2.906   0.157  0.9587  0.4291  0.9141
 4290TIP3    H212877   4.931   2.929   0.025  0.0153  0.1848  0.3540
 4291TIP3   OH212878   5.140   2.703   3.030 -0.0130  0.3510 -0.0240
 4291TIP3    H112879   5.057   2.746   3.009 -0.3556 -0.0018  0.5606
 4291TIP3    H212880   5.207   2.767   3.007 -0.5009  1.0869  0.5424
 4292TIP3   OH212881   2.051   1.172   1.513 -0.0698  0.4085 -0.7128
 4292TIP3    H112882   1.966   1.177   1.555  0.9678 -2.1740  2.0604
 4292TIP3    H212883   2.062   1.079   1.491  1.6032  0.8522 -1.9977
 4293TIP3   OH212884   2.318   0.740   4.363  0.3791 -0.0390  0.3786
 4293TIP3    H112885   2.406   0.776   4.363  0.9385 -1.3027 -1.2192
 4293TIP3    H212886   2.330   0.645   4.357 -1.0823 -0.3998  2.0734
 4294TIP3   OH212887   2.646   0.167   2.467 -0.4045 -0.0549  0.1052
 4294TIP3    H112888   2.696   0.100   2.514 -0.8587  0.4329  1.3202
 4294TIP3    H212889   2.625   0.126   2.383  0.3944 -0.9635  0.3226
 4295TIP3   OH212890   2.444   5.621   2.143 -0.0238  0.2982  0.3029
 4295TIP3    H112891   2.445   5.641   2.050 -1.2551 -1.1484 -0.0633
 4295TIP3    H212892   2.431   5.526   2.147 -1.8458  0.5484  1.9210
 4296TIP3   OH212893   2.990   3.085   0.397 -0.7284  0.3841  0.5887
 4296TIP3    H112894   2.956   3.018   0.456 -0.6913 -0.9593 -0.8310
 4296TIP3    H212895   3.085   3.073   0.398 -0.7671 -0.0571 -0.1789
 4297TIP3   OH212896   1.153   2.411   4.570  0.1524  0.3125 -0.3444
 4297TIP3    H112897   1.162   2.336   4.510 -1.1004  1.3366 -1.8977
 4297TIP3    H212898   1.243   2.438   4.588  0.6081 -1.1339 -0.3067
 4298TIP3   OH212899   5.168   2.829   0.859  0.3146  0.4640  0.8438
 4298TIP3    H112900   5.142   2.844   0.950 -0.4952 -0.2197  0.7349
 4298TIP3    H212901   5.236   2.895   0.843 -0.7067  1.7094  1.4246
 4299TIP3   OH212902   5.791   5.924   4.171 -0.4636  0.2811 -0.2436
 4299TIP3    H112903   5.879   5.899   4.200 -0.7764 -1.6186 -0.7746
 4299TIP3    H212904   5.741   5.935   4.252  0.0652  0.5782  0.0439
 4300TIP3   OH212905   2.754   2.303   1.220 -0.2415  0.0352 -0.0156
 4300TIP3    H112906   2.694   2.251   1.273  0.7567 -0.9859  0.1695
 4300TIP3    H212907   2.762   2.254   1.138  2.0332 -1.1319  0.7995
 4301TIP3   OH212908   6.153   2.631   0.263  0.3347  0.6892  0.2921
 4301TIP3    H112909   6.246   2.627   0.285  0.2663  0.3376  0.5346
 4301TIP3    H212910   6.149   2.676   0.179  0.7869  0.0977 -0.0568
 4302TIP3   OH212911   2.523   1.160   4.253  1.2402 -0.1907  0.1085
 4302TIP3    H112912   2.613   1.138   4.276  0.9841 -0.7688  0.5899
 4302TIP3    H212913   2.527   1.189   4.162  1.7806 -1.1109 -0.1724
 4303TIP3   OH212914   0.557   2.183   0.898  0.3578 -0.5006 -0.0059
 4303TIP3    H112915   0.533   2.090   0.897  1.6802 -0.8628 -0.8301
 4303TIP3    H212916   0.532   2.215   0.811 -3.2350  0.8394  1.3334
 4304TIP3   OH212917   3.226   3.378   2.196 -0.1211  0.0307 -0.2129
 4304TIP3    H112918   3.272   3.429   2.263  0.4552 -1.0009  0.2079
 4304TIP3    H212919   3.140   3.418   2.189 -0.2366  0.0796  1.2543
 4305TIP3   OH212920   5.524   1.187   2.603  0.0862 -0.1494 -0.0428
 4305TIP3    H112921   5.449   1.182   2.662  0.7961  0.4826  0.9359
 4305TIP3    H212922   5.578   1.111   2.627  0.3718  0.1033  0.1183
 4306TIP3   OH212923   4.393   3.714   3.415 -0.0672 -0.5598  0.6272
 4306TIP3    H112924   4.303   3.680   3.411 -0.7659  1.1585  0.5859
 4306TIP3    H212925   4.382   3.809   3.422  1.7683 -0.1228 -1.2625
 4307TIP3   OH212926   4.999   4.651   3.173  0.0420  0.1853 -0.4068
 4307TIP3    H112927   4.985   4.743   3.152 -0.4956  0.3080  0.4129
 4307TIP3    H212928   5.088   4.647   3.208 -0.8849  0.9578  2.3155
 4308TIP3   OH212929   3.765   3.146   4.175 -0.2494 -0.2366  0.2356
 4308TIP3    H112930   3.794   3.232   4.145  2.3518 -0.8856  0.6466
 4308TIP3    H212931   3.812   3.084   4.120  0.2132 -1.3920  1.8490
 4309TIP3   OH212932   2.077   0.819   3.867  0.4651 -0.4143  0.3276
 4309TIP3    H112933   2.153   0.876   3.877  0.7451 -0.7811  0.2823
 4309TIP3    H212934   2.039   0.812   3.955 -0.5676  1.2160  0.0579
 4310TIP3   OH212935   4.070   0.386   4.907  0.3972  0.1085 -0.2168
 4310TIP3    H112936   4.095   0.432   4.827  0.9965 -1.2095 -0.7986
 4310TIP3    H212937   4.087   0.450   4.977  1.3129  0.7460 -1.0012
 4311TIP3   OH212938   1.721   5.925   1.789 -0.0497  0.4945  0.0923
 4311TIP3    H112939   1.673   5.957   1.865 -2.0679  0.9670 -1.3094
 4311TIP3    H212940   1.680   5.841   1.769  1.4776 -0.3593  0.3836
 4312TIP3   OH212941   2.543   4.064   1.260 -0.5944  0.1597  0.4177
 4312TIP3    H112942   2.597   4.143   1.266 -0.3814 -0.0103  0.7326
 4312TIP3    H212943   2.518   4.060   1.167 -1.3018  1.0555  0.5618
 4313TIP3   OH212944   4.302   4.350   3.352  0.5238  0.4732  0.4097
 4313TIP3    H112945   4.391   4.354   3.388  1.2955 -1.0528 -1.1774
 4313TIP3    H212946   4.271   4.263   3.377  0.8829 -0.4208 -2.0583
 4314TIP3   OH212947   0.044   1.917   3.148  0.3971  0.0351 -0.0118
 4314TIP3    H112948   0.075   1.846   3.093 -2.2292 -1.7393  0.6529
 4314TIP3    H212949  -0.046   1.932   3.120 -0.3366  0.4839  2.4120
 4315TIP3   OH212950   0.443   0.271   0.209  0.2210  0.2887  0.3364
 4315TIP3    H112951   0.382   0.197   0.217 -0.3761  0.8892  1.5049
 4315TIP3    H212952   0.401   0.342   0.257  1.2590  1.0978  0.0780
 4316TIP3   OH212953   1.355   2.814   2.987 -0.2171 -0.6922  0.0851
 4316TIP3    H112954   1.268   2.849   3.005 -0.1622  0.8174 -2.1553
 4316TIP3    H212955   1.342   2.755   2.912  0.3598 -2.4124  1.2637
 4317TIP3   OH212956   0.108   4.875   2.965  0.9475 -0.1832  0.3539
 4317TIP3    H112957   0.165   4.852   2.892  1.4376 -0.7344  0.8991
 4317TIP3    H212958   0.028   4.908   2.924 -0.1334 -3.5519 -0.5236
 4318TIP3   OH212959   4.772   0.225   1.767 -0.0188  0.1999 -0.1095
 4318TIP3    H112960   4.796   0.133   1.772 -1.7358 -0.4532 -2.3329
 4318TIP3    H212961   4.826   0.260   1.696  0.0403  0.7241  0.1875
 4319TIP3   OH212962   2.013   4.414   1.525 -0.5046 -0.6231 -0.2674
 4319TIP3    H112963   1.923   4.391   1.546 -0.1540 -1.6227  0.2383
 4319TIP3    H212964   2.046   4.458   1.604 -1.3164  2.2413 -1.4019
 4320TIP3   OH212965   3.654   1.087   2.960  0.3201  0.3394  0.2885
 4320TIP3    H112966   3.688   0.999   2.972  1.4270  0.7869  0.6322
 4320TIP3    H212967   3.725   1.144   2.991  0.8225  1.4275 -2.4912
 4321TIP3   OH212968   1.454   0.457   4.881  0.1426  0.0436  0.1085
 4321TIP3    H112969   1.427   0.549   4.884  0.3584  0.1377 -0.6748
 4321TIP3    H212970   1.416   0.423   4.800 -0.4181 -0.7173  0.6843
 4322TIP3   OH212971   3.081   3.897   2.197 -0.2313  0.3851  0.0077
 4322TIP3    H112972   3.171   3.865   2.187  0.0342  0.7198  1.2285
 4322TIP3    H212973   3.090   3.983   2.237 -1.0753  0.7438 -0.5543
 4323TIP3   OH212974   1.446   4.702   2.625  0.0574  0.1345  0.2512
 4323TIP3    H112975   1.372   4.690   2.685 -0.4179 -1.4360 -0.5836
 4323TIP3    H212976   1.442   4.626   2.567  2.3877 -0.0597  0.2343
 4324TIP3   OH212977   3.961   3.334   2.889 -0.1025  0.6151 -0.1765
 4324TIP3    H112978   3.873   3.298   2.881  0.0543  0.4147 -1.0184
 4324TIP3    H212979   3.948   3.429   2.887 -0.1762  0.5912 -1.8426
 4325TIP3   OH212980   5.561   5.924   2.940 -0.0920 -0.1864  0.1882
 4325TIP3    H112981   5.633   5.981   2.913  0.9945 -0.6519  1.9564
 4325TIP3    H212982   5.531   5.962   3.023 -0.8872 -0.8878  0.2301
 4326TIP3   OH212983   3.234   2.148   0.950  0.3097  0.2368 -0.1832
 4326TIP3    H112984   3.301   2.080   0.960  1.5203  1.3208 -0.5627
 4326TIP3    H212985   3.284   2.230   0.951 -0.8846  1.0215 -1.7685
 4327TIP3   OH212986   3.333   0.167   1.517  0.4278 -0.4917 -0.2873
 4327TIP3    H112987   3.302   0.112   1.588  2.4965 -0.3640  0.7766
 4327TIP3    H212988   3.275   0.146   1.444 -1.5846 -0.8249  1.3169
 4328TIP3   OH212989   0.695   0.654   2.119 -0.0713  0.4593  0.6254
 4328TIP3    H112990   0.639   0.577   2.116 -0.1091  0.5203 -1.0248
 4328TIP3    H212991   0.636   0.727   2.097  0.5823  0.5470 -0.9363
 4329TIP3   OH212992   1.561   5.341   4.240 -0.4467  0.2422  0.3004
 4329TIP3    H112993   1.587   5.260   4.285  0.0053  0.4480  0.4207
 4329TIP3    H212994   1.634   5.401   4.256 -0.9653  0.8114  0.5668
 4330TIP3   OH212995   0.093   2.050   3.922  0.2466  0.0381  0.2259
 4330TIP3    H112996   0.024   2.040   3.857 -0.2981  0.8207  0.6714
 4330TIP3    H212997   0.068   1.992   3.993 -1.4543  2.2484  1.5940
 4331TIP3   OH212998   1.575   3.705   4.812  0.0053 -0.3958 -0.2476
 4331TIP3    H112999   1.607   3.785   4.770  0.6856 -0.5455 -0.0338
 4331TIP3    H213000   1.550   3.648   4.739  1.7418 -0.8843 -0.5041
 4332TIP3   OH213001   2.671   1.547   0.913  0.1376 -0.3991  0.3636
 4332TIP3    H113002   2.755   1.501   0.920 -0.4474 -1.5081  0.3271
 4332TIP3    H213003   2.631   1.537   0.999  0.9221  1.9723  1.0841
 4333TIP3   OH213004   5.813   4.450   4.202 -0.4950  0.2869  0.0680
 4333TIP3    H113005   5.871   4.396   4.147 -1.1177 -0.1129 -0.2078
 4333TIP3    H213006   5.825   4.539   4.168 -0.5704  0.1020 -0.4679
 4334TIP3   OH213007   6.341   4.210   1.303  0.1069 -0.1242  0.6591
 4334TIP3    H113008   6.271   4.213   1.239  0.5823 -2.1809 -0.0297
 4334TIP3    H213009   6.314   4.142   1.365  2.2573 -2.3941 -0.6986
 4335TIP3   OH213010   0.044   2.179   4.639  0.4410 -0.2166  0.2096
 4335TIP3    H113011  -0.007   2.182   4.558 -1.8158 -1.3531  1.4761
 4335TIP3    H213012   0.080   2.090   4.641  0.1132 -0.3442  0.6424
 4336TIP3   OH213013   3.115   5.848   0.286 -0.6412  0.0656  0.0723
 4336TIP3    H113014   3.200   5.862   0.328 -1.6043  0.8881  1.9228
 4336TIP3    H213015   3.067   5.795   0.349 -1.4191 -0.6065 -1.0671
 4337TIP3   OH213016   2.597   1.075   5.150  0.1471 -0.6926 -0.0452
 4337TIP3    H113017   2.687   1.044   5.164  0.2861 -0.4900 -0.4551
 4337TIP3    H213018   2.608   1.157   5.101 -0.2753 -0.9237 -0.5419
 4338TIP3   OH213019   3.737   0.097   4.202  0.4767 -0.2943 -0.2306
 4338TIP3    H113020   3.688   0.177   4.182  2.8567  1.0538 -1.0759
 4338TIP3    H213021   3.684   0.052   4.268 -0.6473  2.2669  0.7289
 4339TIP3   OH213022   1.879   4.953   0.914 -0.5053 -0.0813  0.2509
 4339TIP3    H113023   1.834   4.944   0.831  0.2003 -0.0503 -0.1408
 4339TIP3    H213024   1.809   4.949   0.980 -0.9102 -1.7826 -0.2306
 4340TIP3   OH213025   0.917   0.829   4.249  0.5917  0.1324  0.4414
 4340TIP3    H113026   0.903   0.890   4.177 -1.5310 -2.2499 -1.3773
 4340TIP3    H213027   1.012   0.814   4.250  0.6823  0.1575 -2.0191
 4341TIP3   OH213028   2.212   3.398   1.278 -0.3604  0.2971 -0.2240
 4341TIP3    H113029   2.199   3.401   1.373  0.4092  0.3459 -0.1126
 4341TIP3    H213030   2.216   3.305   1.257  1.1287  0.2802  0.0459
 4342TIP3   OH213031   1.679   1.858   0.589  0.0977 -0.1060  0.4241
 4342TIP3    H113032   1.735   1.780   0.588  1.0605  0.4929  2.0670
 4342TIP3    H213033   1.667   1.877   0.682  1.4881  2.7705  0.1237
 4343TIP3   OH213034   0.088   5.344   2.231 -0.0307 -0.7135  0.3200
 4343TIP3    H113035   0.124   5.403   2.165  0.2507 -0.4427  0.7146
 4343TIP3    H213036   0.054   5.270   2.180  0.9332 -0.9035 -0.0800
 4344TIP3   OH213037   1.469   3.440   0.755  0.5062  0.4065  0.0528
 4344TIP3    H113038   1.548   3.494   0.745 -1.3153  3.3007  0.1220
 4344TIP3    H213039   1.467   3.386   0.676  1.9562  1.0557 -0.4651
 4345TIP3   OH213040   2.942   1.677   4.011 -0.6812 -0.1883 -0.0544
 4345TIP3    H113041   2.877   1.658   3.943 -1.4336 -0.6189  0.7596
 4345TIP3    H213042   2.933   1.771   4.027 -0.8122 -0.1696 -0.2367
 4346TIP3   OH213043   5.266   4.809   4.368 -0.2093 -0.0506  0.1104
 4346TIP3    H113044   5.195   4.831   4.427  0.0121 -0.4069  0.5127
 4346TIP3    H213045   5.346   4.832   4.416 -0.0528  0.5390 -0.4128
 4347TIP3   OH213046   0.620   0.883   1.341  0.1126 -0.5346  0.2448
 4347TIP3    H113047   0.664   0.819   1.286 -1.6375 -1.2413 -0.4070
 4347TIP3    H213048   0.538   0.903   1.294 -0.2039  0.8390  1.3061
 4348TIP3   OH213049   1.841   0.740   0.211 -0.4048 -0.3444  0.1381
 4348TIP3    H113050   1.794   0.766   0.291 -0.9385 -1.5137  0.2195
 4348TIP3    H213051   1.777   0.688   0.162  0.0568  0.0211 -0.8632
 4349TIP3   OH213052   0.261   4.792   2.774 -0.1590  0.0606 -0.1528
 4349TIP3    H113053   0.220   4.716   2.733  0.0524  0.5844 -1.3968
 4349TIP3    H213054   0.297   4.842   2.700  0.3187  1.0012  0.6948
 4350TIP3   OH213055   4.484   1.327   1.885 -0.6100  0.1375  0.5900
 4350TIP3    H113056   4.424   1.337   1.811  0.1250  2.2706  0.2036
 4350TIP3    H213057   4.428   1.299   1.957 -1.7013  0.0116 -0.2792
 4351TIP3   OH213058   3.763   5.223   4.350  0.6185 -0.0580  0.7370
 4351TIP3    H113059   3.764   5.132   4.378 -1.4177 -0.3485  0.0035
 4351TIP3    H213060   3.815   5.225   4.270  2.8289 -0.0317  2.0830
 4352TIP3   OH213061   5.016   4.709   1.699  0.0427 -0.2330  0.2472
 4352TIP3    H113062   4.950   4.772   1.669  1.2038  0.5260 -0.8264
 4352TIP3    H213063   5.014   4.639   1.634 -0.0424 -0.4540  0.4862
 4353TIP3   OH213064   3.773   3.995   3.764  0.4699  0.3355 -0.0246
 4353TIP3    H113065   3.799   4.001   3.856 -1.2760 -1.3975  0.6500
 4353TIP3    H213066   3.856   3.980   3.717  1.3716  1.0808  1.2527
 4354TIP3   OH213067   2.741   5.556   2.393 -0.6169  0.3130  0.1366
 4354TIP3    H113068   2.824   5.555   2.441  0.1101  1.1362 -1.0523
 4354TIP3    H213069   2.709   5.645   2.402 -0.9204  0.2363 -0.1587
 4355TIP3   OH213070   1.066   2.665   1.333 -0.4697 -0.4119  0.7914
 4355TIP3    H113071   1.080   2.618   1.415 -0.7876 -0.7727  0.6384
 4355TIP3    H213072   1.021   2.603   1.276  2.0367 -1.1316 -0.6019
 4356TIP3   OH213073   5.350   1.245   0.863  0.5622  0.7400  0.0508
 4356TIP3    H113074   5.342   1.263   0.957 -1.1591 -2.0694  0.5537
 4356TIP3    H213075   5.260   1.255   0.830  0.7328 -0.5047 -0.8192
 4357TIP3   OH213076   3.645   5.339   3.628 -0.4799 -0.1681  0.1125
 4357TIP3    H113077   3.660   5.265   3.568  1.2407 -1.2131  1.7372
 4357TIP3    H213078   3.558   5.322   3.664 -0.0322 -1.5699  0.6279
 4358TIP3   OH213079   2.931   1.450   5.104  0.1425  0.1325 -0.1517
 4358TIP3    H113080   2.938   1.456   5.200  0.9581  3.3564 -0.2923
 4358TIP3    H213081   2.855   1.504   5.083  1.2504  1.2752 -1.4064
 4359TIP3   OH213082   2.595   2.418   3.127  0.2063  0.2135 -0.5606
 4359TIP3    H113083   2.651   2.462   3.191 -2.1993  2.0954  0.4034
 4359TIP3    H213084   2.598   2.474   3.050 -1.9610  1.6224  0.2736
 4360TIP3   OH213085   0.369   2.122   1.101  0.4530 -0.1175 -0.1527
 4360TIP3    H113086   0.350   2.209   1.135  1.5889 -0.0726  0.4227
 4360TIP3    H213087   0.438   2.137   1.035  1.5662 -0.6884  0.8426
 4361TIP3   OH213088   1.409   0.038   1.653  0.5719 -0.0136 -0.2867
 4361TIP3    H113089   1.410  -0.010   1.571 -0.0209 -1.0445  0.2852
 4361TIP3    H213090   1.491   0.013   1.696 -0.1391 -1.2764  0.4054
 4362TIP3   OH213091   0.082   4.184   3.542  0.1855  0.0676 -0.3626
 4362TIP3    H113092   0.159   4.201   3.597 -0.2225 -0.2139  0.3184
 4362TIP3    H213093   0.118   4.169   3.455  0.8342  0.7900 -0.2332
 4363TIP3   OH213094   1.093   0.410   1.292 -0.1386  0.0058  0.4703
 4363TIP3    H113095   1.132   0.464   1.223  0.3674  1.1037  1.5846
 4363TIP3    H213096   1.159   0.343   1.309 -0.2944 -0.3157 -0.1447
 4364TIP3   OH213097   4.489   2.792   4.635  0.4741  0.4083 -0.0567
 4364TIP3    H113098   4.548   2.867   4.641  0.5651  0.2539  1.0779
 4364TIP3    H213099   4.545   2.716   4.651 -0.1983  0.3320  2.3491
 4365TIP3   OH213100   2.643   1.235   4.004 -0.0523 -0.2285 -0.0941
 4365TIP3    H113101   2.732   1.216   4.035 -0.4146  0.6504  1.6025
 4365TIP3    H213102   2.647   1.326   3.974 -0.7173  0.3638  1.5018
 4366TIP3   OH213103   0.226   2.638   2.881 -0.3044 -0.0050 -0.7065
 4366TIP3    H113104   0.147   2.614   2.929  0.1013 -1.7810 -0.8561
 4366TIP3    H213105   0.248   2.726   2.914 -1.1464 -0.3409  0.8828
 4367TIP3   OH213106   3.107   3.810   5.206  0.0887  0.0561 -0.0321
 4367TIP3    H113107   3.189   3.859   5.195  1.2475 -2.1285 -1.7977
 4367TIP3    H213108   3.090   3.772   5.120 -2.1946 -0.4922  0.6051
 4368TIP3   OH213109   1.510   0.233   0.945  0.1400  0.1433  0.6208
 4368TIP3    H113110   1.591   0.265   0.906 -0.2736 -0.4018 -0.7687
 4368TIP3    H213111   1.525   0.140   0.962 -0.4430 -0.1650 -0.4338
 4369TIP3   OH213112   4.278   0.578   0.416 -0.4604 -0.3823 -0.5346
 4369TIP3    H113113   4.248   0.585   0.326  0.8207 -2.0054 -1.1498
 4369TIP3    H213114   4.341   0.506   0.414  0.5794  0.3978  1.3984
 4370TIP3   OH213115   1.724   4.942   0.702 -0.3285 -0.1963 -0.9423
 4370TIP3    H113116   1.676   4.860   0.698 -1.3599  0.3303 -0.0264
 4370TIP3    H213117   1.700   4.989   0.622 -0.3714 -0.4447 -1.0739
 4371TIP3   OH213118   0.412   4.052   3.101 -0.1477 -0.5920 -0.1423
 4371TIP3    H113119   0.500   4.088   3.106  0.2574 -1.4318 -0.9772
 4371TIP3    H213120   0.407   3.990   3.175  0.6712 -2.0063 -1.2272
 4372TIP3   OH213121   1.960   1.145   0.649 -0.4772 -0.2806 -0.0661
 4372TIP3    H113122   1.968   1.189   0.565  1.3093 -0.0335  0.2015
 4372TIP3    H213123   1.937   1.054   0.626 -1.1167  0.0424 -0.7460
 4373TIP3   OH213124   5.498   2.996   3.560  0.4275 -0.0841  0.2385
 4373TIP3    H113125   5.432   2.947   3.608  0.5019 -0.3779  0.0436
 4373TIP3    H213126   5.472   2.987   3.468  0.3321  0.4044  0.2126
 4374TIP3   OH213127   3.064   4.578   1.122 -0.0938  0.3050 -0.0216
 4374TIP3    H113128   3.133   4.518   1.151 -1.4565 -0.5703  1.6124
 4374TIP3    H213129   3.013   4.527   1.059 -1.2111 -0.2967  1.3148
 4375TIP3   OH213130   2.436   1.361   0.390 -0.2088  0.3879  0.1484
 4375TIP3    H113131   2.347   1.328   0.377 -0.3925  1.3682 -1.3174
 4375TIP3    H213132   2.428   1.456   0.387  1.0731  0.4967 -1.7109
 4376TIP3   OH213133   5.938   1.180   4.362  0.2248  0.5650  0.1417
 4376TIP3    H113134   5.993   1.244   4.318  1.1902 -1.6239 -2.0886
 4376TIP3    H213135   5.993   1.143   4.431  1.1708 -0.6680 -1.2186
 4377TIP3   OH213136   0.872   0.242   1.169 -0.1010  0.0787 -0.5754
 4377TIP3    H113137   0.875   0.274   1.079  0.1397 -0.1519 -0.6529
 4377TIP3    H213138   0.884   0.320   1.223 -2.0516  0.4957 -0.6816
 4378TIP3   OH213139   2.810   5.437   4.861 -0.0460  0.4416 -0.0973
 4378TIP3    H113140   2.866   5.384   4.804 -0.1418  1.2657 -0.9761
 4378TIP3    H213141   2.791   5.380   4.935  2.3550  0.2685  0.4930
 4379TIP3   OH213142   3.779   2.407   3.289  0.1806  1.0144 -0.1787
 4379TIP3    H113143   3.792   2.329   3.236  1.2551  0.7267  0.4704
 4379TIP3    H213144   3.724   2.464   3.236  0.1952  0.2185 -1.0623
 4380TIP3   OH213145   2.507   3.209   4.244 -0.1859 -0.1520  0.0452
 4380TIP3    H113146   2.541   3.234   4.158 -0.7375 -2.5165 -0.9381
 4380TIP3    H213147   2.447   3.280   4.267 -0.7435  0.1010 -1.9684
 4381TIP3   OH213148   0.549   3.887   5.101  0.0467  0.1717  0.8805
 4381TIP3    H113149   0.566   3.896   5.007  0.3903 -1.4182  0.7689
 4381TIP3    H213150   0.458   3.859   5.106  0.1785 -0.2386  0.9960
 4382TIP3   OH213151   0.822   5.809   3.536 -0.6023  0.1071 -0.3099
 4382TIP3    H113152   0.850   5.725   3.498  1.0776 -0.6140  2.2596
 4382TIP3    H213153   0.883   5.873   3.499 -0.6088 -0.1301 -0.7415
 4383TIP3   OH213154   5.662   3.624   2.159 -0.7149 -0.1187 -0.2923
 4383TIP3    H113155   5.690   3.619   2.250  0.7089 -0.2127 -0.6990
 4383TIP3    H213156   5.578   3.578   2.157 -1.8919  1.7861  1.3519
 4384TIP3   OH213157   2.752   5.302   2.307  0.4736  0.6140 -0.1474
 4384TIP3    H113158   2.755   5.390   2.344 -0.9925  0.1215  1.2747
 4384TIP3    H213159   2.813   5.304   2.233  0.1830  2.9079 -0.3748
 4385TIP3   OH213160   1.300   4.787   0.008 -0.1827 -0.5457 -0.0273
 4385TIP3    H113161   1.356   4.849  -0.039 -0.3131 -0.3185  0.1162
 4385TIP3    H213162   1.228   4.840   0.041 -0.6285 -0.8912 -0.4412
 4386TIP3   OH213163   1.051   2.168   0.946 -0.0614  0.2086  0.3812
 4386TIP3    H113164   1.091   2.232   0.887 -0.5964  1.2483  1.1142
 4386TIP3    H213165   0.971   2.210   0.977  0.2858 -0.2221  1.9795
 4387TIP3   OH213166   1.855   5.799   1.109 -0.4084  0.4925 -0.3696
 4387TIP3    H113167   1.847   5.880   1.160  2.2517  0.1246  0.8511
 4387TIP3    H213168   1.765   5.769   1.097 -1.2906  1.5264  2.6701
 4388TIP3   OH213169   0.311   1.225   3.359  0.0021  0.0739 -0.2272
 4388TIP3    H113170   0.219   1.247   3.346 -0.7421 -2.2280  0.4929
 4388TIP3    H213171   0.311   1.166   3.435  2.0610 -0.0702 -0.2761
 4389TIP3   OH213172   1.228   0.861   1.861  0.1276 -0.6018  0.1688
 4389TIP3    H113173   1.300   0.800   1.843  0.6669 -0.2243  0.9577
 4389TIP3    H213174   1.261   0.945   1.830 -0.0024 -0.4422  0.4654
 4390TIP3   OH213175   2.925   4.859   1.875  0.1266 -0.3712 -0.7555
 4390TIP3    H113176   2.899   4.895   1.959 -1.3396 -1.3984 -0.7325
 4390TIP3    H213177   2.938   4.935   1.819 -0.1563  0.2739  0.0449
 4391TIP3   OH213178   5.558   0.483   3.217 -0.2877  0.4988 -0.1653
 4391TIP3    H113179   5.615   0.487   3.294 -0.7405 -0.1870  0.2175
 4391TIP3    H213180   5.474   0.452   3.251 -0.4941  0.1944 -0.9335
 4392TIP3   OH213181   6.203   3.662   4.440 -0.1911  1.2436  0.0265
 4392TIP3    H113182   6.237   3.697   4.522 -0.3034  1.7628 -0.1408
 4392TIP3    H213183   6.108   3.678   4.445 -0.3767  0.1157  0.3457
 4393TIP3   OH213184   2.531   3.273   4.945  0.6808  0.4045  0.1859
 4393TIP3    H113185   2.575   3.263   4.860 -1.6553 -0.2396 -1.0379
 4393TIP3    H213186   2.536   3.366   4.964  1.5085  0.5131 -0.5017
 4394TIP3   OH213187   5.809   2.930   4.668  0.1072  0.3997  0.0889
 4394TIP3    H113188   5.827   2.897   4.580 -2.4313 -0.7196 -0.1043
 4394TIP3    H213189   5.773   3.018   4.654  0.4184  0.5208  0.0586
 4395TIP3   OH213190   0.336   4.224   3.648 -0.7032  0.0165 -0.0869
 4395TIP3    H113191   0.343   4.287   3.575  1.2999 -0.3698 -0.2906
 4395TIP3    H213192   0.382   4.267   3.721 -1.1836 -0.3255  0.4216
 4396TIP3   OH213193   2.478   3.646   2.844  0.0680 -0.1845 -0.0581
 4396TIP3    H113194   2.505   3.705   2.916 -1.6787  1.7646 -0.8900
 4396TIP3    H213195   2.409   3.592   2.883  0.6427 -0.6583  0.3130
 4397TIP3   OH213196   2.831   3.749   2.028  0.3334  0.0154 -0.2515
 4397TIP3    H113197   2.788   3.808   1.965  2.4375  1.4664 -0.4320
 4397TIP3    H213198   2.811   3.787   2.114  1.2754  0.7392 -0.3399
 4398TIP3   OH213199   3.746   5.605   3.029 -0.4092  0.2427  0.1048
 4398TIP3    H113200   3.801   5.529   3.011 -1.2419 -0.1285 -0.9953
 4398TIP3    H213201   3.658   5.576   3.005 -0.6049  1.8577 -1.2682
 4399TIP3   OH213202   5.431   3.637   1.829  0.2246  0.2742 -0.1790
 4399TIP3    H113203   5.420   3.725   1.793 -2.7468 -0.4451 -1.3417
 4399TIP3    H213204   5.489   3.592   1.768  1.8958  1.3883  0.5100
 4400TIP3   OH213205   6.134   1.041   4.500  0.3277  0.4523  0.6245
 4400TIP3    H113206   6.191   0.978   4.456 -3.3473 -2.9500  0.0860
 4400TIP3    H213207   6.133   1.012   4.592 -1.5519 -0.5942  0.3327
 4401TIP3   OH213208   2.286   1.536   3.315  0.4178  0.3224 -0.2089
 4401TIP3    H113209   2.332   1.505   3.393  1.0065 -1.8201 -1.3236
 4401TIP3    H213210   2.332   1.616   3.290  0.2112  1.0486  1.6033
 4402TIP3   OH213211   6.221   0.094   3.819 -0.2653  0.4288  0.3539
 4402TIP3    H113212   6.133   0.071   3.848 -0.5435 -1.2427 -1.5977
 4402TIP3    H213213   6.211   0.116   3.726  1.3338  0.3259  0.1231
 4403TIP3   OH213214   6.021   0.370   2.377  0.1353 -0.1675 -0.2056
 4403TIP3    H113215   6.093   0.428   2.352  0.6100 -0.1451  1.1453
 4403TIP3    H213216   5.944   0.427   2.384  0.4406  0.1815  0.3880
 4404TIP3   OH213217   4.364   3.483   2.890 -0.1975  0.1842  0.5339
 4404TIP3    H113218   4.298   3.545   2.860 -0.8490  1.0121  3.3744
 4404TIP3    H213219   4.320   3.398   2.889 -0.5024  0.3427  0.1642
 4405TIP3   OH213220   4.440   4.455   2.994  0.2506 -0.2625  0.1183
 4405TIP3    H113221   4.506   4.479   2.928  1.1670  0.8117  1.3511
 4405TIP3    H213222   4.468   4.369   3.026  1.2186  0.2647  0.7634
 4406TIP3   OH213223   6.015   2.493   2.964 -0.1569 -0.3696 -0.1977
 4406TIP3    H113224   6.023   2.544   2.884  1.4422 -0.1444  0.0747
 4406TIP3    H213225   5.982   2.555   3.029  0.2708 -0.0923 -0.2444
 4407TIP3   OH213226   3.324   0.149   2.850 -0.2707 -0.4448 -0.1731
 4407TIP3    H113227   3.357   0.237   2.835 -1.0890  0.7350  3.7125
 4407TIP3    H213228   3.383   0.112   2.916 -1.3174 -1.8774  0.0162
 4408TIP3   OH213229   3.781   0.488   4.226 -0.3951 -0.8256  0.9678
 4408TIP3    H113230   3.744   0.560   4.277  0.0280 -0.4063  0.6929
 4408TIP3    H213231   3.812   0.426   4.291  1.7179  0.4808  1.3036
 4409TIP3   OH213232   0.194   4.917   3.701 -0.1805 -0.5319 -0.2732
 4409TIP3    H113233   0.220   5.002   3.735  0.2681 -0.7439 -0.0839
 4409TIP3    H213234   0.113   4.896   3.748 -1.4254  0.6892 -1.7515
 4410TIP3   OH213235   5.574   2.091   3.660 -0.4362  0.1031 -0.4823
 4410TIP3    H113236   5.600   2.038   3.735 -0.0002 -0.7518 -1.2236
 4410TIP3    H213237   5.629   2.060   3.588 -0.8842  0.8724 -1.1707
 4411TIP3   OH213238   2.678   4.611   3.150 -0.3580 -0.1498  0.4563
 4411TIP3    H113239   2.769   4.633   3.130 -0.1966  0.1747  1.4767
 4411TIP3    H213240   2.630   4.691   3.133 -0.4463 -0.2929  0.0136
 4412TIP3   OH213241   2.947   2.120   2.521  0.0639 -0.6160  0.1962
 4412TIP3    H113242   2.972   2.038   2.565  0.0697 -1.0633 -0.6019
 4412TIP3    H213243   2.856   2.133   2.545  0.0238 -0.9352  0.2321
 4413TIP3   OH213244   4.504   1.606   4.663 -0.1972  0.0092 -0.1191
 4413TIP3    H113245   4.541   1.586   4.577 -0.6766 -1.8956  0.0848
 4413TIP3    H213246   4.437   1.673   4.645 -1.7403 -1.7928 -1.6012
 4414TIP3   OH213247   5.339   2.320   4.578 -0.1438 -0.1854  0.1941
 4414TIP3    H113248   5.432   2.316   4.556 -0.7926 -1.6903 -2.7408
 4414TIP3    H213249   5.306   2.395   4.529 -0.5430  0.1836  1.0135
 4415TIP3   OH213250   5.783   4.626   1.213  0.6594 -0.3846  0.0805
 4415TIP3    H113251   5.870   4.641   1.176  0.2461 -0.9307 -1.1433
 4415TIP3    H213252   5.763   4.535   1.193 -1.1281  0.3189 -1.7103
 4416TIP3   OH213253   3.233   3.679   3.970 -0.3304 -0.6575 -0.4220
 4416TIP3    H113254   3.147   3.720   3.962  0.7565  2.1678  0.8167
 4416TIP3    H213255   3.256   3.690   4.062  1.2217 -1.6952 -0.6454
 4417TIP3   OH213256   5.445   4.290   0.900  0.0367 -0.5347 -0.2685
 4417TIP3    H113257   5.387   4.311   0.827 -1.8302 -1.8300  0.7495
 4417TIP3    H213258   5.501   4.219   0.868 -0.4473 -0.7730 -0.5983
 4418TIP3   OH213259   3.986   5.641   1.247  0.4531 -0.4086 -0.6287
 4418TIP3    H113260   3.986   5.688   1.163  2.1287  2.6798  0.9437
 4418TIP3    H213261   3.895   5.643   1.275  0.3241  1.3080 -1.0216
 4419TIP3   OH213262   5.271   3.989   2.234  0.3334 -1.0656  0.0195
 4419TIP3    H113263   5.311   3.930   2.170  1.9877  1.2539 -1.2185
 4419TIP3    H213264   5.281   4.077   2.196 -0.2667  0.2379  2.6433
 4420TIP3   OH213265   3.282   4.181   0.901 -0.2537 -0.0539  0.0979
 4420TIP3    H113266   3.321   4.098   0.876 -1.1164 -0.0997 -1.1729
 4420TIP3    H213267   3.250   4.167   0.990 -0.4249 -1.0933 -0.1181
 4421TIP3   OH213268   4.934   2.619   0.083  0.0696  0.6327 -0.0972
 4421TIP3    H113269   5.011   2.584   0.127 -0.2084 -0.5554 -0.5294
 4421TIP3    H213270   4.922   2.706   0.121  1.2763  0.6029  0.3869
 4422TIP3   OH213271   3.344   1.803   4.563  0.5698 -0.4180  0.0490
 4422TIP3    H113272   3.417   1.762   4.516 -0.6325 -2.3474 -0.2676
 4422TIP3    H213273   3.345   1.762   4.649  0.4383  0.2624  0.3748
 4423TIP3   OH213274   5.223   4.847   2.964 -0.4437 -0.5845  0.2810
 4423TIP3    H113275   5.159   4.905   3.005 -0.6947 -0.4573 -0.2755
 4423TIP3    H213276   5.196   4.844   2.872 -0.5813 -1.7749  0.3422
 4424TIP3   OH213277   0.451   0.302   1.669 -0.5515 -0.4088  0.3268
 4424TIP3    H113278   0.502   0.315   1.589 -0.8131 -1.9420 -0.1114
 4424TIP3    H213279   0.467   0.211   1.694  0.4816  0.3405  2.7165
 4425TIP3   OH213280   1.715   1.708   2.959 -0.3074 -0.6894  0.0857
 4425TIP3    H113281   1.794   1.655   2.972  0.0332 -0.0284  0.7707
 4425TIP3    H213282   1.665   1.659   2.893 -0.0955 -1.9468  0.8178
 4426TIP3   OH213283   2.263   2.353   3.584  0.3546 -0.1668 -0.1876
 4426TIP3    H113284   2.305   2.425   3.630  0.6614 -0.5092  0.0655
 4426TIP3    H213285   2.219   2.302   3.652  1.2914 -1.0001 -0.1953
 4427TIP3   OH213286   1.883   5.143   4.993 -0.1113 -0.0578  0.7226
 4427TIP3    H113287   1.867   5.228   4.952  0.5415 -0.1913  0.1757
 4427TIP3    H213288   1.975   5.146   5.019  0.7944 -1.6441 -1.8892
 4428TIP3   OH213289   1.779   4.972   4.239 -0.0883 -0.1076 -0.3068
 4428TIP3    H113290   1.713   5.024   4.284  0.6399  0.5756 -0.0156
 4428TIP3    H213291   1.854   5.031   4.228  0.2216 -0.6570 -1.2595
 4429TIP3   OH213292   4.503   2.574   3.911  0.1327 -0.1480 -0.4254
 4429TIP3    H113293   4.444   2.548   3.840 -0.9795  0.3955  0.2570
 4429TIP3    H213294   4.459   2.542   3.990  1.1187 -0.3436  0.0582
 4430TIP3   OH213295   1.203   2.125   2.458  0.2569 -1.2487 -0.3966
 4430TIP3    H113296   1.297   2.136   2.470  0.3720 -2.9881  0.5496
 4430TIP3    H213297   1.164   2.187   2.521  0.7729 -1.2649 -0.0529
 4431TIP3   OH213298   3.470   5.886   1.691  0.1131  0.8622 -0.4769
 4431TIP3    H113299   3.537   5.824   1.722 -1.3590 -0.7004 -0.2574
 4431TIP3    H213300   3.421   5.909   1.770 -1.9214 -0.9846 -1.0898
 4432TIP3   OH213301   3.127   2.597   2.054  0.6638  0.1248  0.2163
 4432TIP3    H113302   3.186   2.596   1.978 -0.2950  0.5293 -0.5622
 4432TIP3    H213303   3.084   2.511   2.052  0.3039  0.3045  0.0134
 4433TIP3   OH213304   4.552   3.743   2.096  0.4952 -0.2717  0.2919
 4433TIP3    H113305   4.490   3.672   2.113 -0.0776  0.0297 -0.4372
 4433TIP3    H213306   4.577   3.730   2.004 -0.3048  0.9632 -0.1292
 4434TIP3   OH213307   0.382   5.904   2.708 -0.3128 -0.1090  0.2951
 4434TIP3    H113308   0.380   5.809   2.719 -2.2976 -0.0251  1.2878
 4434TIP3    H213309   0.452   5.934   2.765  0.0402 -0.9529  0.3098
 4435TIP3   OH213310   4.548   2.860   4.922  0.2275 -0.2540 -0.3720
 4435TIP3    H113311   4.514   2.941   4.961  0.2011 -0.3723 -0.1450
 4435TIP3    H213312   4.619   2.889   4.865 -0.7864  0.0705 -1.5033
 4436TIP3   OH213313   2.220   3.910   1.399 -0.0968  0.7387 -0.2313
 4436TIP3    H113314   2.281   3.945   1.335  0.6860  0.3250  0.2731
 4436TIP3    H213315   2.143   3.967   1.393  0.6470  1.7493 -0.3225
 4437TIP3   OH213316   4.217   2.843   3.940 -0.6038  0.3501  0.0585
 4437TIP3    H113317   4.308   2.816   3.951 -0.6838 -0.0400 -0.2325
 4437TIP3    H213318   4.203   2.908   4.008 -1.6637 -3.2827  3.6632
 4438TIP3   OH213319   3.074   4.108   2.398 -0.0897  0.0657  0.7521
 4438TIP3    H113320   3.142   4.124   2.464 -0.4600  0.4056  1.0567
 4438TIP3    H213321   3.011   4.179   2.411 -0.9335 -0.7073  1.0390
 4439TIP3   OH213322   0.059   2.254   4.227  0.3850  0.1860  0.0638
 4439TIP3    H113323   0.011   2.275   4.147  2.1996  1.4268 -0.7670
 4439TIP3    H213324   0.096   2.167   4.210 -1.1156 -0.5809  0.5337
 4440TIP3   OH213325   5.966   3.737   4.612  0.1676 -0.2307  0.4181
 4440TIP3    H113326   5.894   3.674   4.614  0.4888 -0.6678 -0.7723
 4440TIP3    H213327   5.995   3.745   4.703 -0.2465 -1.3716  0.6564
 4441TIP3   OH213328   2.590   4.720   4.829  0.3339 -0.1936  0.2246
 4441TIP3    H113329   2.569   4.668   4.907  1.0665  2.3218  2.2188
 4441TIP3    H213330   2.504   4.745   4.794 -0.0228 -2.1685 -0.4561
 4442TIP3   OH213331   1.864   3.092   3.654 -0.3075  0.0085 -0.2337
 4442TIP3    H113332   1.868   3.176   3.609 -3.4610 -0.5503 -1.8660
 4442TIP3    H213333   1.848   3.114   3.745  1.5073  1.1329 -0.1371
 4443TIP3   OH213334   1.784   4.766   1.610  0.2883 -0.1125 -0.0817
 4443TIP3    H113335   1.744   4.720   1.536 -1.2438  2.3055 -0.8948
 4443TIP3    H213336   1.714   4.772   1.675  0.2689  1.4236 -0.2101
 4444TIP3   OH213337   2.693   1.616   5.040  0.0939 -0.1904  0.1934
 4444TIP3    H113338   2.657   1.646   5.123  1.2984 -1.3368  1.1770
 4444TIP3    H213339   2.736   1.693   5.003 -0.0410  0.2170  0.8732
 4445TIP3   OH213340   3.335   3.976   3.484 -0.4714 -0.6649 -0.2721
 4445TIP3    H113341   3.240   3.983   3.483 -0.5987 -2.1674 -0.5604
 4445TIP3    H213342   3.357   3.972   3.577 -0.6612 -0.1642 -0.1995
 4446TIP3   OH213343   5.860   5.283   1.102  0.2199  0.2645 -0.1220
 4446TIP3    H113344   5.941   5.281   1.152  0.7381  0.7534 -0.9147
 4446TIP3    H213345   5.858   5.199   1.056 -0.1934 -0.1315  0.6018
 4447TIP3   OH213346   3.586   0.422   0.493 -0.2849 -0.2654  0.4997
 4447TIP3    H113347   3.543   0.353   0.543 -0.3755 -0.1613  0.5669
 4447TIP3    H213348   3.575   0.501   0.546 -0.2344 -0.1877  0.3960
 4448TIP3   OH213349   3.314   3.486   4.784 -0.7307  0.2443 -0.0096
 4448TIP3    H113350   3.225   3.490   4.750 -0.8669  0.7818  0.4005
 4448TIP3    H213351   3.315   3.407   4.838 -1.7866  1.6508  2.2166
 4449TIP3   OH213352   4.973   3.696   3.332 -0.0747 -0.0240  0.0192
 4449TIP3    H113353   4.952   3.644   3.410  1.8232  1.7460  1.8621
 4449TIP3    H213354   5.062   3.669   3.309 -0.1123  0.4507 -0.7136
 4450TIP3   OH213355   4.955   4.223   4.205  0.2089  0.1031  0.6215
 4450TIP3    H113356   4.917   4.153   4.258  0.1370  0.4154  0.9830
 4450TIP3    H213357   5.010   4.272   4.266  1.0925 -0.2578  0.1388
 4451TIP3   OH213358   6.217   1.099   0.674 -0.9023  0.5930  0.0537
 4451TIP3    H113359   6.195   1.025   0.616  0.7295 -0.1852  0.3428
 4451TIP3    H213360   6.157   1.168   0.648 -2.3774 -0.7675 -0.3642
 4452TIP3   OH213361   3.711   3.928   3.309  0.0283 -0.0154 -0.1090
 4452TIP3    H113362   3.771   3.883   3.249 -0.5140  0.1156 -0.7570
 4452TIP3    H213363   3.629   3.935   3.261  0.1695  1.9074 -0.1576
 4453TIP3   OH213364   4.317   2.564   3.679  0.3341  0.5241 -0.6618
 4453TIP3    H113365   4.225   2.567   3.706  0.3838 -1.3216 -0.1409
 4453TIP3    H213366   4.322   2.490   3.620  1.9806 -1.3439  1.6185
 4454TIP3   OH213367   2.057   3.565   2.678  0.8520 -0.3047 -0.0149
 4454TIP3    H113368   2.018   3.480   2.657 -1.2970  0.5093  0.3377
 4454TIP3    H213369   2.081   3.602   2.593  1.8012 -1.2366 -0.1681
 4455TIP3   OH213370   6.338   0.666   2.068 -0.0887  0.5947  0.4434
 4455TIP3    H113371   6.265   0.700   2.119 -1.0374 -0.4028 -0.2107
 4455TIP3    H213372   6.364   0.586   2.113 -1.6231 -0.8674 -1.1614
 4456TIP3   OH213373   0.387   2.190   4.438  0.0027 -0.0710 -0.3370
 4456TIP3    H113374   0.389   2.271   4.489  0.2799 -0.0787 -0.3351
 4456TIP3    H213375   0.396   2.120   4.503  1.7339 -0.0444 -0.4944
 4457TIP3   OH213376   4.941   1.979   0.125 -0.7354  0.0161 -0.0412
 4457TIP3    H113377   5.033   1.994   0.148 -0.5670 -1.3193  0.2226
 4457TIP3    H213378   4.895   1.980   0.209 -0.9754  0.7099 -0.1755
 4458TIP3   OH213379   5.437   3.827   2.067  0.2405 -0.2459  0.0630
 4458TIP3    H113380   5.527   3.804   2.088  0.1909 -1.8847 -1.3168
 4458TIP3    H213381   5.404   3.753   2.016 -1.5009  0.8535 -0.5105
 4459TIP3   OH213382   1.508   5.048   3.676 -0.2775  0.2742  0.2655
 4459TIP3    H113383   1.418   5.078   3.675 -0.0020  1.2299  1.5136
 4459TIP3    H213384   1.535   5.054   3.768  1.4177  1.2006 -0.2321
 4460TIP3   OH213385   5.283   0.637   3.503 -0.4185  1.2360  0.2491
 4460TIP3    H113386   5.302   0.677   3.587  2.8274 -0.0547  0.2791
 4460TIP3    H213387   5.255   0.710   3.447  1.5043  2.9121  1.3333
 4461TIP3   OH213388   2.508   0.756   1.751 -0.2460  0.0867 -0.3404
 4461TIP3    H113389   2.412   0.758   1.754 -0.2836 -1.1849 -0.1771
 4461TIP3    H213390   2.535   0.831   1.804 -1.1421  1.0982 -1.2672
 4462TIP3   OH213391   3.605   4.693   4.676  0.0542  0.0101  0.3914
 4462TIP3    H113392   3.700   4.699   4.692 -0.1186  0.0122  1.5012
 4462TIP3    H213393   3.586   4.766   4.618  0.8208 -0.3231 -0.3002
 4463TIP3   OH213394   5.265   4.655   3.296  0.1292  0.2236  0.4906
 4463TIP3    H113395   5.324   4.614   3.360  0.1817 -1.3743 -0.5352
 4463TIP3    H213396   5.287   4.748   3.299  2.3640 -0.2646  0.4886
 4464TIP3   OH213397   3.277   0.122   4.041  0.4172  0.1610 -0.0906
 4464TIP3    H113398   3.206   0.106   3.980 -0.4252 -0.7134  1.0798
 4464TIP3    H213399   3.356   0.125   3.987 -0.4047  0.2585 -1.2984
 4465TIP3   OH213400   4.084   1.106   3.381 -0.6286  0.1678 -0.6739
 4465TIP3    H113401   4.020   1.061   3.435  0.6844 -0.1208  0.7046
 4465TIP3    H213402   4.073   1.067   3.294 -1.3186 -0.9166 -0.1265
 4466TIP3   OH213403   2.535   0.489   2.847  0.5330 -0.0204  0.1484
 4466TIP3    H113404   2.586   0.426   2.796  1.0010  0.4579  0.0255
 4466TIP3    H213405   2.502   0.551   2.782 -0.5296 -0.5307  0.1678
 4467TIP3   OH213406   2.568   5.832   4.955 -0.0476  0.0477 -0.7829
 4467TIP3    H113407   2.595   5.746   4.989 -1.8914 -1.5987 -3.1050
 4467TIP3    H213408   2.475   5.839   4.979 -0.4120  0.4745 -2.1967
 4468TIP3   OH213409   3.712   1.832   3.614 -0.3660  0.2410 -0.1558
 4468TIP3    H113410   3.687   1.884   3.539 -1.6618  0.6626  0.5341
 4468TIP3    H213411   3.629   1.812   3.659  0.2205 -1.2333  0.3588
 4469TIP3   OH213412   2.885   3.677   2.735  0.0287  0.1457  0.4732
 4469TIP3    H113413   2.847   3.752   2.781 -0.5926  0.0134  0.1775
 4469TIP3    H213414   2.812   3.618   2.720  0.2256  0.1623 -0.6456
 4470TIP3   OH213415   3.204   2.504   0.691 -0.3793 -0.1254  0.0339
 4470TIP3    H113416   3.252   2.586   0.706  0.1839 -0.8597  3.0060
 4470TIP3    H213417   3.271   2.443   0.661 -0.4994  0.1153 -0.7347
 4471TIP3   OH213418   0.102   5.284   2.489 -0.4076 -0.0615 -0.2129
 4471TIP3    H113419   0.017   5.312   2.522 -0.7057 -2.0538  0.9328
 4471TIP3    H213420   0.093   5.284   2.394 -1.7121 -0.2734 -0.1048
 4472TIP3   OH213421   2.651   5.872   4.372  0.8623 -0.0643 -0.2974
 4472TIP3    H113422   2.585   5.941   4.379 -0.7081 -1.5799  0.5146
 4472TIP3    H213423   2.714   5.906   4.308  0.4982  2.3645  0.5301
 4473TIP3   OH213424   5.520   0.279   4.943  0.7192 -0.6542 -0.4062
 4473TIP3    H113425   5.530   0.224   4.865  0.8354 -3.1856  1.2736
 4473TIP3    H213426   5.426   0.287   4.955  0.6015  2.1397 -2.2724
 4474TIP3   OH213427   5.620   2.573   2.295 -0.0458  0.2113  0.5259
 4474TIP3    H113428   5.659   2.592   2.209  0.3078  1.5941  0.9676
 4474TIP3    H213429   5.558   2.502   2.278  1.6158 -1.0816 -0.4696
 4475TIP3   OH213430   0.441   2.608   4.288 -0.4489 -0.0394 -0.0891
 4475TIP3    H113431   0.454   2.531   4.233  0.1656 -0.7217  0.9768
 4475TIP3    H213432   0.349   2.631   4.277 -0.7370 -1.1802 -0.0993
 4476TIP3   OH213433   3.952   3.225   3.421  0.9914 -0.1554  0.0818
 4476TIP3    H113434   3.940   3.279   3.499 -0.2123  0.9268 -0.8039
 4476TIP3    H213435   3.889   3.154   3.431 -0.6599  1.1021 -0.7949
 4477TIP3   OH213436   5.346   4.058   3.808 -0.2581 -0.1410  0.6920
 4477TIP3    H113437   5.439   4.056   3.783 -0.5461 -1.9973 -0.3676
 4477TIP3    H213438   5.327   3.970   3.838 -2.3923 -0.7230 -2.0065
 4478TIP3   OH213439   3.948   4.425   0.250 -0.3129 -0.2571  0.1351
 4478TIP3    H113440   3.883   4.495   0.257  0.1040 -0.0320  2.2301
 4478TIP3    H213441   3.910   4.352   0.299  1.6474  0.4358  2.9450
 4479TIP3   OH213442   1.489   0.435   0.422 -0.3092  0.0691  0.1199
 4479TIP3    H113443   1.417   0.482   0.381  0.2673  0.4997 -0.4282
 4479TIP3    H213444   1.452   0.351   0.448 -0.6970 -0.1993 -1.2685
 4480TIP3   OH213445   4.621   4.212   5.099  0.5093  0.3498 -0.1904
 4480TIP3    H113446   4.708   4.171   5.095  0.6714  0.5422  0.9586
 4480TIP3    H213447   4.638   4.300   5.133 -0.2055  0.1215  0.7937
 4481TIP3   OH213448   4.550   2.538   0.767 -0.8686 -0.1448 -0.2428
 4481TIP3    H113449   4.528   2.457   0.722  0.0750 -0.9381  0.6554
 4481TIP3    H213450   4.634   2.520   0.811 -0.4687  1.4155 -0.2719
 4482TIP3   OH213451   0.712   1.405   3.541  0.2866 -0.2322 -0.6970
 4482TIP3    H113452   0.739   1.412   3.633 -0.6035  2.5048 -0.5411
 4482TIP3    H213453   0.686   1.314   3.531  1.6226 -0.9308  1.3913
 4483TIP3   OH213454   1.399   4.620   1.922 -0.0638 -0.2804 -1.1333
 4483TIP3    H113455   1.416   4.712   1.904  1.2872 -0.3353 -0.2368
 4483TIP3    H213456   1.482   4.576   1.905 -0.9406 -1.5282 -2.5569
 4484TIP3   OH213457   0.505   2.340   4.219 -0.1633 -0.2683 -0.4849
 4484TIP3    H113458   0.454   2.309   4.294 -0.9274  0.2598 -0.7730
 4484TIP3    H213459   0.452   2.316   4.143  1.0524 -1.6433 -0.9321
 4485TIP3   OH213460   5.030   5.116   1.226 -0.0723  0.3167  0.5608
 4485TIP3    H113461   5.042   5.038   1.279 -2.0929 -1.3046 -1.1744
 4485TIP3    H213462   4.935   5.127   1.220  0.0377  0.5020 -2.4888
 4486TIP3   OH213463   4.813   2.007   1.897  0.2552 -0.2928 -0.1473
 4486TIP3    H113464   4.868   1.992   1.973  1.7843 -1.5462 -1.4426
 4486TIP3    H213465   4.872   2.002   1.822 -1.3711 -0.2345 -1.5083
 4487TIP3   OH213466   3.744   3.583   2.259 -0.2853 -0.2498 -0.0147
 4487TIP3    H113467   3.782   3.586   2.171  0.4758  0.0639  0.3233
 4487TIP3    H213468   3.703   3.496   2.263  0.2407 -0.5254 -0.4430
 4488TIP3   OH213469   1.704   0.838   3.931 -0.1096 -0.0618  0.0420
 4488TIP3    H113470   1.766   0.898   3.890  0.7518 -1.2730 -0.4898
 4488TIP3    H213471   1.709   0.857   4.025 -0.1923  0.9891 -0.1595
 4489TIP3   OH213472   6.046   3.718   4.049 -0.1763 -0.1264 -0.1375
 4489TIP3    H113473   6.068   3.707   3.956 -0.7280 -0.2440 -0.2609
 4489TIP3    H213474   6.122   3.684   4.096  0.0687 -0.1534 -0.5477
 4490TIP3   OH213475   0.937   4.122   4.342  0.0722  0.3960  0.2595
 4490TIP3    H113476   0.885   4.189   4.298  0.3566 -0.3729 -1.3372
 4490TIP3    H213477   0.929   4.045   4.286  1.9329 -0.1071  0.6123
 4491TIP3   OH213478   1.106   3.892   3.172  0.4238  0.7700 -0.4622
 4491TIP3    H113479   1.200   3.881   3.184  0.6082 -0.2292 -2.5034
 4491TIP3    H213480   1.066   3.831   3.234  1.2260 -1.0455 -1.6317
 4492TIP3   OH213481   5.143   1.554   0.095 -0.3401  0.3839 -0.6884
 4492TIP3    H113482   5.165   1.591   0.181  0.0849  0.4096 -0.8077
 4492TIP3    H213483   5.199   1.602   0.034 -0.2037 -0.0570 -0.9081
 4493TIP3   OH213484   5.670   3.407   4.012 -0.0717 -0.2013  0.3463
 4493TIP3    H113485   5.607   3.336   4.006 -0.4014  0.0432  0.8989
 4493TIP3    H213486   5.622   3.480   4.051 -0.1123  0.7709 -1.3983
 4494TIP3   OH213487   2.284   3.844   4.080 -0.0718 -0.0494 -0.2865
 4494TIP3    H113488   2.235   3.874   4.157 -0.3240 -1.6904  0.2452
 4494TIP3    H213489   2.261   3.906   4.011 -0.1585  1.2331  0.8455
 4495TIP3   OH213490   4.458   5.082   2.761  0.3752 -0.3331 -0.1365
 4495TIP3    H113491   4.456   4.986   2.763  0.5706 -0.3374 -0.0420
 4495TIP3    H213492   4.366   5.108   2.760  0.3074 -0.5466 -1.9804
 4496TIP3   OH213493   0.659   1.390   0.298  0.1984 -1.0587  0.0576
 4496TIP3    H113494   0.740   1.357   0.336  1.1763  0.9084 -0.1533
 4496TIP3    H213495   0.674   1.388   0.203 -0.0868 -0.8961  0.0066
 4497TIP3   OH213496   2.605   5.915   3.466  0.0266 -0.1278 -0.4133
 4497TIP3    H113497   2.538   5.850   3.444 -3.1516  3.2434 -1.7167
 4497TIP3    H213498   2.612   5.910   3.561 -1.7789 -0.9584 -0.2764
 4498TIP3   OH213499   4.772   4.940   0.840 -0.0153 -0.5125  0.5831
 4498TIP3    H113500   4.755   5.020   0.791  0.8740  0.1748  1.3892
 4498TIP3    H213501   4.685   4.904   0.858 -0.5899  1.5847  2.3800
 4499TIP3   OH213502   4.223   3.042   3.175  0.0624 -0.6153 -0.0615
 4499TIP3    H113503   4.255   2.996   3.098 -0.1036 -1.8815  0.5995
 4499TIP3    H213504   4.276   3.008   3.247 -0.8412 -0.6163  0.6217
 4500TIP3   OH213505   3.765   1.584   0.667  0.4513 -0.0806  0.1217
 4500TIP3    H113506   3.712   1.663   0.657  1.9574  0.7638 -1.9686
 4500TIP3    H213507   3.844   1.614   0.711  1.7721  0.0247 -2.1818
 4501TIP3   OH213508   5.796   0.751   2.638 -0.3712 -0.1509 -0.1734
 4501TIP3    H113509   5.815   0.664   2.672 -1.3886 -0.1449  0.4314
 4501TIP3    H213510   5.823   0.747   2.546 -2.2398 -1.7387 -0.7150
 4502TIP3   OH213511   1.236   5.739   2.079 -0.2039 -0.1253  0.1238
 4502TIP3    H113512   1.272   5.678   2.143 -0.5490  0.5607  0.9890
 4502TIP3    H213513   1.239   5.825   2.122  0.6502  0.5560 -1.2100
 4503TIP3   OH213514   0.532   3.908   1.602  0.1729 -0.3301 -0.2260
 4503TIP3    H113515   0.525   3.986   1.548 -0.0761 -1.3862 -1.7621
 4503TIP3    H213516   0.531   3.835   1.540  1.4769 -1.5249  1.0793
 4504TIP3   OH213517   0.567   3.622   3.282  0.5475  0.2901 -0.2451
 4504TIP3    H113518   0.552   3.558   3.212  0.5370  0.3361 -0.2849
 4504TIP3    H213519   0.526   3.583   3.359  1.2314 -0.1218 -0.0794
 4505TIP3   OH213520   2.416   4.557   3.318  0.0113 -0.1266 -0.2251
 4505TIP3    H113521   2.370   4.628   3.362  0.8858  0.2385  0.1250
 4505TIP3    H213522   2.420   4.583   3.226  2.2110  1.3688  0.2117
 4506TIP3   OH213523   1.624   3.513   2.115 -0.1975 -0.0744  0.3550
 4506TIP3    H113524   1.661   3.513   2.203  1.2593 -3.7939 -0.0708
 4506TIP3    H213525   1.688   3.562   2.062  0.8999 -1.0677  0.7364
 4507TIP3   OH213526   0.251   4.386   0.517  0.9814  0.0807  0.1158
 4507TIP3    H113527   0.206   4.321   0.463 -1.1672  1.1907  0.4714
 4507TIP3    H213528   0.297   4.334   0.583  1.8528 -1.1851 -1.3999
 4508TIP3   OH213529   4.855   4.148   0.303 -0.5890 -0.8857 -0.4430
 4508TIP3    H113530   4.887   4.087   0.236  2.6831  1.2735 -1.0866
 4508TIP3    H213531   4.852   4.233   0.258  0.7427  0.4580  1.8398
 4509TIP3   OH213532   4.604   3.665   1.837 -0.1879 -0.1682  0.0613
 4509TIP3    H113533   4.654   3.591   1.801 -2.4543 -0.9282 -1.8033
 4509TIP3    H213534   4.564   3.706   1.760 -1.7260  0.9259  1.3808
 4510TIP3   OH213535   1.880   2.846   4.986 -0.7864 -0.3487  0.0222
 4510TIP3    H113536   1.812   2.849   4.920 -0.7298 -2.4171 -0.2075
 4510TIP3    H213537   1.950   2.795   4.946  0.0085 -0.0669  1.0104
 4511TIP3   OH213538   4.337   5.679   4.152  0.5887 -0.3214 -0.2159
 4511TIP3    H113539   4.310   5.768   4.171 -0.2540  0.0432 -2.7015
 4511TIP3    H213540   4.272   5.624   4.196  1.3854  0.2221  1.7212
 4512TIP3   OH213541   1.207   5.591   3.001 -0.0388 -0.3247  0.2072
 4512TIP3    H113542   1.150   5.627   3.070 -0.1643 -0.1698  0.0252
 4512TIP3    H213543   1.279   5.654   2.996  0.2857 -0.6645  0.6249
 4513TIP3   OH213544   3.164   2.632   4.707 -0.2520  0.9018  0.2796
 4513TIP3    H113545   3.162   2.544   4.670 -1.7342  1.1353 -0.2642
 4513TIP3    H213546   3.206   2.621   4.792  0.1886 -0.2102 -0.0646
 4514TIP3   OH213547   1.596   4.195   5.075 -1.0361  0.5676 -0.1470
 4514TIP3    H113548   1.558   4.108   5.084  1.0827 -0.4040 -0.1375
 4514TIP3    H213549   1.671   4.183   5.016 -0.5907  2.3451  0.0020
 4515TIP3   OH213550   6.028   5.302   0.531  0.5748  0.1628 -0.1256
 4515TIP3    H113551   5.934   5.312   0.516  0.7857  0.3739 -1.4136
 4515TIP3    H213552   6.034   5.250   0.612 -0.6378  0.2530  0.0384
 4516TIP3   OH213553   5.291   1.535   0.762 -0.0489  0.3812 -0.4094
 4516TIP3    H113554   5.198   1.552   0.753 -0.3205 -0.9338 -0.2033
 4516TIP3    H213555   5.316   1.491   0.681  0.4313  0.8267 -0.5141
 4517TIP3   OH213556   0.216   3.579   4.414  0.1002  0.4485  0.4959
 4517TIP3    H113557   0.192   3.655   4.362 -1.2816 -0.3208 -0.0571
 4517TIP3    H213558   0.309   3.567   4.398 -0.2807  0.2506 -1.8300
 4518TIP3   OH213559   1.155   2.569   4.904 -0.8653  0.3709  0.0596
 4518TIP3    H113560   1.245   2.574   4.938  0.1610 -2.2315 -1.9828
 4518TIP3    H213561   1.137   2.658   4.874  1.0555  0.9450  0.4517
 4519TIP3   OH213562   5.922   5.842   3.566  0.0747 -0.4752 -0.4195
 4519TIP3    H113563   5.970   5.765   3.596  2.5058 -0.2883 -3.2702
 4519TIP3    H213564   5.864   5.809   3.497  0.5210  0.0657 -1.0786
 4520TIP3   OH213565   0.650   4.600   3.990 -0.2942 -0.1989 -0.3099
 4520TIP3    H113566   0.691   4.665   4.048 -0.6065 -2.8391  3.1975
 4520TIP3    H213567   0.575   4.646   3.951  0.9416  2.2101 -0.0647
 4521TIP3   OH213568   4.226   4.321   4.345  0.3409  0.4166  0.0309
 4521TIP3    H113569   4.158   4.261   4.376  1.2676 -1.6162 -1.6554
 4521TIP3    H213570   4.272   4.348   4.424 -1.2261  0.3506  1.0083
 4522TIP3   OH213571   2.157   1.757   4.984 -0.1134  0.3098 -0.1640
 4522TIP3    H113572   2.159   1.663   5.000  2.6803  0.4705  0.9728
 4522TIP3    H213573   2.149   1.796   5.071 -1.8864  1.1710 -0.6650
 4523TIP3   OH213574   3.917   4.724   2.567 -0.2625  0.3124 -0.7821
 4523TIP3    H113575   3.928   4.692   2.477  0.1182  1.5312 -1.1910
 4523TIP3    H213576   3.995   4.694   2.613 -0.2681  0.0165 -0.9605
 4524TIP3   OH213577   2.728   1.832   2.382 -0.4341  0.3240  0.2995
 4524TIP3    H113578   2.819   1.806   2.366 -0.6265 -0.0467 -0.2098
 4524TIP3    H213579   2.709   1.800   2.470  0.4516  1.8640  1.0953
 4525TIP3   OH213580   5.136   3.453   1.127  0.0634  0.0661 -0.2738
 4525TIP3    H113581   5.119   3.396   1.053 -1.1044  1.9027 -1.5122
 4525TIP3    H213582   5.218   3.497   1.106  1.3964 -1.6259  1.0562
 4526TIP3   OH213583   3.014   4.475   1.686 -0.6329  0.4640 -0.0515
 4526TIP3    H113584   3.036   4.406   1.749  0.2361  0.8563  0.0929
 4526TIP3    H213585   2.946   4.526   1.729 -3.0130 -1.6107 -1.0710
 4527TIP3   OH213586   1.526   0.315   3.939 -0.3196  0.3498 -0.6292
 4527TIP3    H113587   1.612   0.295   3.901 -0.2293  0.0263 -0.2567
 4527TIP3    H213588   1.477   0.234   3.930 -1.2148  1.0357 -2.4940
 4528TIP3   OH213589   1.150   1.457   2.572  0.4225 -0.0977  0.5453
 4528TIP3    H113590   1.157   1.418   2.659 -1.4235  0.3522  0.9224
 4528TIP3    H213591   1.241   1.460   2.541  1.4130  1.4583  3.2154
 4529TIP3   OH213592   3.942   5.771   2.209  0.2945 -0.3259 -1.1231
 4529TIP3    H113593   4.013   5.833   2.229 -0.4827  0.0480  0.7501
 4529TIP3    H213594   3.974   5.687   2.240 -0.0041 -0.1781 -0.3843
 4530TIP3   OH213595   5.228   0.817   2.855  0.5606  0.2100 -0.1375
 4530TIP3    H113596   5.224   0.904   2.894  1.8870  0.2085  0.0397
 4530TIP3    H213597   5.227   0.757   2.929  1.1013  0.1396 -0.1796
 4531TIP3   OH213598   1.645   1.169   0.665 -0.5671  0.1957 -0.2338
 4531TIP3    H113599   1.726   1.149   0.712 -1.8946 -1.5893  1.4806
 4531TIP3    H213600   1.616   1.253   0.700  0.0433  0.3651 -0.1388
 4532TIP3   OH213601   1.648   2.997   2.268 -0.2466 -0.2564  0.3711
 4532TIP3    H113602   1.604   3.037   2.192  0.9691 -0.6717 -0.5963
 4532TIP3    H213603   1.674   2.910   2.237 -0.9997 -1.0045  1.7637
 4533TIP3   OH213604   0.231   2.174   0.629  0.2211 -0.0162 -0.7164
 4533TIP3    H113605   0.165   2.146   0.566  1.0166 -1.8826 -0.7786
 4533TIP3    H213606   0.182   2.193   0.709 -0.3966 -1.7195 -0.6490
 4534TIP3   OH213607   6.096   4.429   4.324  0.0661  0.4403 -0.4245
 4534TIP3    H113608   6.080   4.372   4.399  3.1816  1.1409  0.9194
 4534TIP3    H213609   6.047   4.509   4.344  2.9478  1.7199  2.4417
 4535TIP3   OH213610   1.960   1.729   1.347 -0.4467  0.3545  0.8143
 4535TIP3    H113611   1.950   1.823   1.361 -3.8471  0.4535 -1.2552
 4535TIP3    H213612   1.909   1.711   1.268  2.0275 -2.9107 -0.2612
 4536TIP3   OH213613   4.074   0.047   1.746 -0.0089 -0.0435  0.3300
 4536TIP3    H113614   4.095  -0.040   1.713 -2.0988  0.2805 -2.2363
 4536TIP3    H213615   3.980   0.044   1.766  0.0237  1.4283  0.9060
 4537TIP3   OH213616   4.848   4.003   4.764 -0.1852 -0.4133  0.3598
 4537TIP3    H113617   4.922   3.954   4.729 -0.9563 -1.8893  0.7317
 4537TIP3    H213618   4.772   3.966   4.721 -0.6593  2.2761 -1.3734
 4538TIP3   OH213619   5.425   5.980   2.602  0.0552 -0.0878  0.2740
 4538TIP3    H113620   5.336   6.015   2.593 -0.1968  0.6458  3.9937
 4538TIP3    H213621   5.418   5.911   2.667  2.1053 -0.5765  0.0595
 4539TIP3   OH213622   2.211   4.533   4.859 -0.5985 -0.2941 -0.3037
 4539TIP3    H113623   2.272   4.475   4.905 -1.7190 -1.8064 -0.6620
 4539TIP3    H213624   2.179   4.593   4.927  1.7024  0.9612 -0.2303
 4540TIP3   OH213625   5.643   0.983   0.250  0.2817  0.5044 -0.3185
 4540TIP3    H113626   5.660   0.899   0.293 -2.4150  0.8079  1.5743
 4540TIP3    H213627   5.699   1.045   0.297  0.6670  0.1148 -0.2534
 4541TIP3   OH213628   4.247   4.845   0.054 -0.3374 -0.5885 -0.1909
 4541TIP3    H113629   4.313   4.782   0.082 -0.3669 -1.6380 -2.2513
 4541TIP3    H213630   4.175   4.834   0.115 -0.1763 -2.3023 -0.2634
 4542TIP3   OH213631   3.611   4.248   2.446  0.7063  0.2243  0.1017
 4542TIP3    H113632   3.678   4.183   2.467 -0.7675 -1.4340 -0.0967
 4542TIP3    H213633   3.529   4.211   2.480 -0.3685  1.4594 -0.9865
 4543TIP3   OH213634   4.908   2.805   2.927  0.1625 -0.6054  0.1693
 4543TIP3    H113635   4.852   2.882   2.914 -0.6851 -1.2103  0.1807
 4543TIP3    H213636   4.891   2.750   2.851  1.4949 -0.3543 -0.3222
 4544TIP3   OH213637   5.586   2.130   1.810  0.1855  0.0039 -0.0252
 4544TIP3    H113638   5.533   2.056   1.838 -2.3551  0.5445 -2.8911
 4544TIP3    H213639   5.545   2.206   1.852 -0.5801  0.2913 -1.2509
 4545TIP3   OH213640   4.516   5.190   2.500  0.1210 -0.1933 -0.0231
 4545TIP3    H113641   4.467   5.272   2.497  0.3642 -0.0484 -0.0112
 4545TIP3    H213642   4.509   5.162   2.591  1.1979  0.5180  0.2904
 4546TIP3   OH213643   0.371   5.942   0.355 -0.1108 -0.2115 -0.0452
 4546TIP3    H113644   0.343   5.935   0.264 -1.5674 -0.1287  0.3618
 4546TIP3    H213645   0.387   6.035   0.368 -0.1318 -0.1915 -0.1580
 4547TIP3   OH213646   2.290   1.825   1.502  0.1804 -0.2881 -0.4132
 4547TIP3    H113647   2.232   1.875   1.445 -0.8383 -1.9326 -0.8738
 4547TIP3    H213648   2.369   1.810   1.449  0.6431  1.0380 -0.1557
 4548TIP3   OH213649   0.797   0.795   4.516  0.6885 -0.3661  0.4004
 4548TIP3    H113650   0.848   0.842   4.450  0.0688  2.0244  1.5093
 4548TIP3    H213651   0.788   0.857   4.588 -0.5172 -2.1022  1.8381
 4549TIP3   OH213652   3.609   4.516   3.554 -0.1993  0.0009  0.0403
 4549TIP3    H113653   3.665   4.443   3.579 -2.1723 -0.8194  2.5330
 4549TIP3    H213654   3.593   4.563   3.636 -4.2486 -0.7117 -0.1108
 4550TIP3   OH213655   2.223   0.160   3.876 -0.2073  0.6194  0.2193
 4550TIP3    H113656   2.131   0.173   3.900 -0.3371  0.1523 -0.0125
 4550TIP3    H213657   2.262   0.122   3.955  0.3283  2.9031  1.1434
 4551TIP3   OH213658   4.912   0.926   0.509 -0.5576 -0.3215  0.6490
 4551TIP3    H113659   4.961   1.000   0.546 -0.1691 -0.3807  0.2698
 4551TIP3    H213660   4.873   0.961   0.429 -0.4627 -0.4909  0.5262
 4552TIP3   OH213661   2.129   0.882   1.444  0.3062 -0.6226  0.3193
 4552TIP3    H113662   2.179   0.941   1.387  0.3539  2.1269  2.9484
 4552TIP3    H213663   2.189   0.861   1.516 -1.3396  0.5043  2.1293
 4553TIP3   OH213664   1.566   1.142   1.471  0.5688 -0.3408  0.0430
 4553TIP3    H113665   1.483   1.184   1.492  0.2761 -1.2102  0.6957
 4553TIP3    H213666   1.576   1.155   1.376  0.2212  0.6771  0.1352
 4554TIP3   OH213667   5.870   5.960   1.812  0.1595 -0.5447 -0.1768
 4554TIP3    H113668   5.917   5.930   1.890  0.3124 -2.1560 -0.8484
 4554TIP3    H213669   5.937   5.965   1.745 -0.0784  0.2537 -0.3596
 4555TIP3   OH213670   3.861   3.527   3.986 -0.2737 -0.3099 -0.2544
 4555TIP3    H113671   3.788   3.519   4.047 -0.8416 -0.3006 -0.9213
 4555TIP3    H213672   3.821   3.561   3.905  0.6817  1.0341 -0.2014
 4556TIP3   OH213673   1.624   1.945   0.872 -0.0464 -0.4792  0.1121
 4556TIP3    H113674   1.537   1.978   0.897 -0.6672 -1.6761 -0.3976
 4556TIP3    H213675   1.685   1.999   0.922 -1.0602  0.6948  0.1325
 4557TIP3   OH213676   4.595   0.191   0.530  0.6088 -0.2598  0.0258
 4557TIP3    H113677   4.667   0.155   0.477  0.0518  0.4500 -1.2639
 4557TIP3    H213678   4.638   0.243   0.598  1.3541 -1.5413  0.5702
 4558TIP3   OH213679   1.370   2.060   4.180 -0.5358 -0.0740 -0.5724
 4558TIP3    H113680   1.404   2.046   4.268  0.1757 -0.5369 -0.9144
 4558TIP3    H213681   1.397   2.149   4.158  1.0077 -0.6149 -1.0528
 4559TIP3   OH213682   4.310   4.908   4.169  0.4257  0.6094  0.1657
 4559TIP3    H113683   4.311   4.821   4.128 -1.1100  0.0545  1.2141
 4559TIP3    H213684   4.334   4.892   4.260  0.5475  1.3454  0.2697
 4560TIP3   OH213685   0.178   3.904   1.308  0.3872 -0.4320 -0.2730
 4560TIP3    H113686   0.119   3.946   1.370  4.0852  2.5778  1.6239
 4560TIP3    H213687   0.213   3.829   1.355  1.0576  0.1736  0.2082
 4561TIP3   OH213688   6.092   5.284   2.544  0.1619 -0.6474  0.5691
 4561TIP3    H113689   6.064   5.195   2.519 -1.6320  0.1736 -0.5441
 4561TIP3    H213690   6.080   5.287   2.639 -0.5061 -1.3545  0.5229
 4562TIP3   OH213691   4.894   0.721   3.618 -0.2083 -0.0560 -0.3160
 4562TIP3    H113692   4.987   0.716   3.640 -0.4279 -2.2187  0.3947
 4562TIP3    H213693   4.888   0.687   3.529 -0.2445  0.8927 -0.6857
 4563TIP3   OH213694   1.425   2.006   4.443 -0.0241  0.5028 -0.7275
 4563TIP3    H113695   1.485   2.061   4.494  1.3260  0.1627 -1.8825
 4563TIP3    H213696   1.347   2.060   4.431 -0.5621  0.4709  1.9481
 4564TIP3   OH213697   0.924   2.264   0.104 -0.3031 -0.3617  0.5540
 4564TIP3    H113698   0.857   2.330   0.125  0.5246  0.4772  0.6030
 4564TIP3    H213699   0.962   2.294   0.021 -1.6001 -2.1187 -0.7677
 4565TIP3   OH213700   1.464   2.076   1.673  0.1941 -0.1983  0.2468
 4565TIP3    H113701   1.378   2.116   1.674  0.9055  1.3984  0.6258
 4565TIP3    H213702   1.521   2.142   1.632  1.1682 -1.3581 -0.3302
 4566TIP3   OH213703   1.514   1.629   1.838  0.1374  0.2640 -0.0984
 4566TIP3    H113704   1.570   1.672   1.903 -1.9421  1.4952  0.9791
 4566TIP3    H213705   1.455   1.574   1.890 -0.8203  0.3917 -1.0220
 4567TIP3   OH213706   5.715   4.300   0.364 -0.2071 -0.0660  0.6824
 4567TIP3    H113707   5.748   4.218   0.401 -0.4342  0.2124  1.5230
 4567TIP3    H213708   5.733   4.293   0.270  0.5496 -0.7090  0.8654
 4568TIP3   OH213709   2.403   4.508   0.605 -0.0406  0.3672  0.2861
 4568TIP3    H113710   2.480   4.551   0.642 -0.0815 -0.0714  0.9025
 4568TIP3    H213711   2.429   4.486   0.516 -0.2010  2.1189 -0.2262
 4569TIP3   OH213712   2.539   3.519   4.133  0.0800  0.1713 -0.6585
 4569TIP3    H113713   2.532   3.548   4.042 -1.0693  2.1029 -0.0071
 4569TIP3    H213714   2.459   3.469   4.149  0.5169 -0.6058 -0.8184
 4570TIP3   OH213715   0.941   3.239   3.383 -0.1594  0.0494 -0.4824
 4570TIP3    H113716   0.969   3.228   3.292 -0.4366  1.6032 -0.7972
 4570TIP3    H213717   0.976   3.163   3.429  0.5683 -0.4165 -1.7602
 4571TIP3   OH213718   3.486   4.018   2.725  0.0749 -0.4706 -0.6426
 4571TIP3    H113719   3.477   4.099   2.776  0.9853 -2.5052  3.0507
 4571TIP3    H213720   3.559   3.972   2.764 -0.2177 -3.0438 -2.7954
 4572TIP3   OH213721   6.219   0.523   0.982  0.1076 -0.2071 -0.0086
 4572TIP3    H113722   6.278   0.505   0.908  0.7240  0.0627  0.4074
 4572TIP3    H213723   6.275   0.517   1.059 -0.8805 -2.3215  0.6164
 4573TIP3   OH213724   0.647   3.098   4.029  0.1053  0.4679 -0.4385
 4573TIP3    H113725   0.674   3.159   4.097  1.1368  0.2664 -0.6351
 4573TIP3    H213726   0.629   3.016   4.075  2.7524 -0.2732 -0.5317
 4574TIP3   OH213727   4.990   3.751   4.075 -0.0724  0.3346 -0.4161
 4574TIP3    H113728   5.028   3.669   4.107  1.7805  1.7072  1.1234
 4574TIP3    H213729   4.899   3.729   4.054  0.7912 -2.4800 -1.6946
 4575TIP3   OH213730   0.582   3.962   2.706 -0.0231  0.1966 -0.5661
 4575TIP3    H113731   0.592   3.898   2.777 -0.5094 -0.7333 -1.3022
 4575TIP3    H213732   0.662   4.014   2.708  0.1053 -0.0268  0.4566
 4576TIP3   OH213733   3.564   4.609   2.673  0.6631  0.0884  0.1139
 4576TIP3    H113734   3.613   4.539   2.629  1.3838  1.1368 -0.8162
 4576TIP3    H213735   3.610   4.621   2.756  1.6096  0.6039 -0.4630
 4577TIP3   OH213736   1.893   5.655   3.762  0.2310  0.2141 -0.0812
 4577TIP3    H113737   1.879   5.602   3.840  0.7394 -2.0576 -1.4216
 4577TIP3    H213738   1.839   5.613   3.695  0.1932  1.7915 -1.0923
 4578TIP3   OH213739   3.252   5.939   4.981 -0.5542 -0.0777  0.5716
 4578TIP3    H113740   3.336   5.963   4.942 -0.9420  0.3114 -0.0544
 4578TIP3    H213741   3.199   5.909   4.907 -1.3704  0.8557  0.7503
 4579TIP3   OH213742   1.901   0.753   1.569  0.2659 -0.0925  0.0244
 4579TIP3    H113743   1.949   0.810   1.509 -0.3398  0.0915 -0.2905
 4579TIP3    H213744   1.836   0.709   1.515  0.1284 -0.3995  0.4304
 4580TIP3   OH213745   3.088   5.033   2.722 -0.4845 -0.5081  0.2585
 4580TIP3    H113746   3.154   5.022   2.790 -2.7522 -0.1270  2.6591
 4580TIP3    H213747   3.107   5.118   2.683  0.5407 -0.4974  0.7723
 4581TIP3   OH213748   2.153   5.298   4.134  0.6386  0.3280 -0.6018
 4581TIP3    H113749   2.249   5.295   4.135  0.7113  2.0551 -0.6228
 4581TIP3    H213750   2.132   5.391   4.138 -1.0408 -0.0086 -1.1316
 4582TIP3   OH213751   0.264   5.604   4.254  0.0627  0.1493 -0.3843
 4582TIP3    H113752   0.216   5.633   4.177  0.5283  2.5838  0.1658
 4582TIP3    H213753   0.349   5.648   4.247  0.1629  0.3159  1.4268
 4583TIP3   OH213754   4.190   4.917   3.415  0.3157 -0.1663 -0.2044
 4583TIP3    H113755   4.201   4.947   3.325 -1.0188 -1.8622 -0.9934
 4583TIP3    H213756   4.274   4.877   3.438  0.7818  0.5976 -0.5340
 4584TIP3   OH213757   0.796   1.794   0.951  0.1634 -0.4936 -0.1679
 4584TIP3    H113758   0.793   1.699   0.940 -0.9092 -0.4992  0.0565
 4584TIP3    H213759   0.815   1.828   0.864  1.2707 -0.9285 -0.1155
 4585TIP3   OH213760   5.728   2.108   0.165  0.0926 -0.1874  0.4886
 4585TIP3    H113761   5.796   2.132   0.103  0.1610 -0.1864  0.5641
 4585TIP3    H213762   5.698   2.191   0.202 -1.6121  0.0545 -1.2801
 4586TIP3   OH213763   0.854   3.944   4.144  0.0314  0.1961  0.1570
 4586TIP3    H113764   0.905   3.868   4.116  0.6661  0.6875 -0.0390
 4586TIP3    H213765   0.863   4.007   4.073  0.4058  0.8731  0.7919
 4587TIP3   OH213766   1.664   1.843   3.419 -0.2217 -0.0848 -0.8650
 4587TIP3    H113767   1.664   1.884   3.332  0.2526 -2.2676 -1.9453
 4587TIP3    H213768   1.622   1.758   3.406  0.7670 -0.8818  0.8383
 4588TIP3   OH213769   1.382   3.579   4.437 -0.2568  0.4177 -0.3899
 4588TIP3    H113770   1.433   3.657   4.459 -0.1427  0.0598  0.6635
 4588TIP3    H213771   1.393   3.521   4.512 -0.8094 -0.3810 -0.9096
 4589TIP3   OH213772   1.652   2.490   0.419  0.5454 -0.2213 -0.2026
 4589TIP3    H113773   1.632   2.399   0.438 -1.7095  0.3075  0.1967
 4589TIP3    H213774   1.743   2.502   0.449  0.3568 -1.9262  1.1591
 4590TIP3   OH213775   2.821   0.478   1.743  0.0996 -0.4017  0.0999
 4590TIP3    H113776   2.730   0.466   1.770 -0.6280  1.4741 -1.2773
 4590TIP3    H213777   2.825   0.440   1.655  0.0811  1.1614 -0.6258
 4591TIP3   OH213778   6.092   2.172   0.415 -0.4297  0.1314 -0.1765
 4591TIP3    H113779   6.033   2.225   0.468  0.4597  1.2473 -0.2581
 4591TIP3    H213780   6.097   2.218   0.331 -0.4509 -0.6492 -0.6079
 4592TIP3   OH213781   2.548   3.838   2.652  0.8329  0.7583 -0.5735
 4592TIP3    H113782   2.546   3.760   2.707  0.2078  0.4081 -1.0730
 4592TIP3    H213783   2.469   3.830   2.597 -0.4151  2.7844  0.8097
 4593TIP3   OH213784   0.020   4.579   0.694  0.3512  0.0776  0.1135
 4593TIP3    H113785   0.004   4.656   0.748 -0.5635  0.3655 -0.5421
 4593TIP3    H213786   0.030   4.614   0.605  3.1386 -0.2366  0.2067
 4594TIP3   OH213787   4.946   5.540   1.664 -0.2173  0.3229 -0.2780
 4594TIP3    H113788   5.025   5.496   1.632 -1.0994 -0.8301 -0.9413
 4594TIP3    H213789   4.921   5.599   1.593 -0.2057  0.3565 -0.2544
 4595TIP3   OH213790   6.335   0.564   4.185 -0.2514 -0.0350 -0.3695
 4595TIP3    H113791   6.307   0.480   4.222  2.4688 -0.6226  0.6190
 4595TIP3    H213792   6.330   0.625   4.258 -0.1868  0.1348 -0.5065
 4596TIP3   OH213793   6.065   1.318   3.548 -0.1348  0.4846  0.4649
 4596TIP3    H113794   5.984   1.343   3.592  1.1979  0.8698  2.8614
 4596TIP3    H213795   6.106   1.255   3.607  1.1162 -0.0483 -0.9195
 4597TIP3   OH213796   1.630   2.598   4.328  0.4152  0.1826  0.1482
 4597TIP3    H113797   1.545   2.562   4.353  0.2584  1.4260  1.6150
 4597TIP3    H213798   1.657   2.650   4.404  2.0531  0.5857 -0.6531
 4598TIP3   OH213799   1.050   5.804   1.877  0.4314  0.3808 -0.4793
 4598TIP3    H113800   1.097   5.885   1.856  0.0388  1.0773  1.1856
 4598TIP3    H213801   1.103   5.763   1.945  0.8773 -1.0310 -1.6407
 4599TIP3   OH213802   2.387   5.644   2.546  0.2587 -0.7471 -0.5625
 4599TIP3    H113803   2.361   5.598   2.626  0.7211  1.5211  0.9695
 4599TIP3    H213804   2.305   5.676   2.508  0.1965 -0.0088  0.1815
 4600TIP3   OH213805   1.849   1.920   1.530  0.5512 -0.4729 -0.2692
 4600TIP3    H113806   1.844   1.994   1.469 -1.0477  0.9553  1.4581
 4600TIP3    H213807   1.788   1.856   1.493 -0.7378  0.5535 -0.0092
 4601TIP3   OH213808   3.378   1.251   0.203 -0.7171  0.7518 -0.0587
 4601TIP3    H113809   3.361   1.211   0.117  0.7211  1.3286 -0.6481
 4601TIP3    H213810   3.377   1.178   0.264 -0.1807  0.0899 -0.8138
 4602TIP3   OH213811   6.009   2.915   4.484  0.3849 -0.3139 -0.5555
 4602TIP3    H113812   5.999   2.972   4.560  1.5166 -1.2763  0.3582
 4602TIP3    H213813   6.058   2.966   4.420  1.9007 -0.4296  0.4740
 4603TIP3   OH213814   4.580   2.806   1.096 -0.0691  0.7786 -0.4804
 4603TIP3    H113815   4.532   2.726   1.116 -0.4743  0.8060 -1.3160
 4603TIP3    H213816   4.532   2.875   1.142  0.1992  0.5762  0.1250
 4604TIP3   OH213817   0.900   0.402   4.999 -0.4846 -0.4471 -0.1396
 4604TIP3    H113818   0.921   0.309   4.997 -0.0559 -0.3606  0.1812
 4604TIP3    H213819   0.818   0.409   4.950 -0.0865 -0.8808 -0.8895
 4605TIP3   OH213820   2.638   5.753   1.283  0.0239  0.2118  0.4091
 4605TIP3    H113821   2.549   5.723   1.300 -0.3552  1.2340  0.2944
 4605TIP3    H213822   2.646   5.753   1.187  0.3958 -0.5723  0.4367
 4606TIP3   OH213823   4.293   1.556   0.286 -0.2322 -0.0867 -0.6560
 4606TIP3    H113824   4.204   1.571   0.320  0.1998  2.3668 -0.3967
 4606TIP3    H213825   4.281   1.553   0.191 -0.3827  2.9850 -0.8354
 4607TIP3   OH213826   5.871   2.879   3.004 -0.1082 -0.6093 -0.4409
 4607TIP3    H113827   5.859   2.817   2.932  0.2240  0.5717 -1.5378
 4607TIP3    H213828   5.904   2.825   3.077 -0.7350 -1.8633 -1.0673
 4608TIP3   OH213829   5.846   4.029   2.860  0.1555  0.1919 -0.9775
 4608TIP3    H113830   5.828   4.051   2.769  1.7814 -1.1286 -1.6788
 4608TIP3    H213831   5.886   4.108   2.896 -1.1682  0.9827 -1.1512
 4609TIP3   OH213832   0.323   5.179   1.346 -0.1822  0.1586  0.1989
 4609TIP3    H113833   0.263   5.105   1.340  0.4407 -0.2759 -1.0165
 4609TIP3    H213834   0.396   5.146   1.399  0.7306 -0.5802 -1.4564
 4610TIP3   OH213835   5.457   1.970   0.341 -0.1563  0.3296  0.4583
 4610TIP3    H113836   5.408   2.008   0.269 -0.4569 -0.3103  0.3251
 4610TIP3    H213837   5.400   1.980   0.417 -0.5199 -0.4627  0.2932
 4611TIP3   OH213838   0.737   0.070   1.415 -0.2788 -0.1849  0.0749
 4611TIP3    H113839   0.805   0.137   1.410 -0.9867  0.5413  0.1671
 4611TIP3    H213840   0.739   0.041   1.507 -2.0519  1.9184  0.8546
 4612TIP3   OH213841   3.412   5.397   4.406  0.3118  0.1235  0.2585
 4612TIP3    H113842   3.318   5.413   4.415  0.5767  0.9775  1.6436
 4612TIP3    H213843   3.417   5.308   4.372 -1.0347  0.7221 -1.7006
 4613TIP3   OH213844   4.222   0.986   5.030 -0.1281  0.8480  0.1247
 4613TIP3    H113845   4.312   1.018   5.026  0.2434 -0.2371 -0.9762
 4613TIP3    H213846   4.226   0.899   4.990 -1.6712  0.8032  0.0053
 4614TIP3   OH213847   5.775   2.388   1.795  0.5211  0.1252 -0.1821
 4614TIP3    H113848   5.845   2.325   1.780  0.1134 -0.3237 -0.2180
 4614TIP3    H213849   5.765   2.390   1.890 -1.2212 -1.8509 -0.2365
 4615TIP3   OH213850   5.135   2.899   1.115  0.0939  0.4832  0.2133
 4615TIP3    H113851   5.115   2.983   1.073 -1.4823  0.0334 -0.0034
 4615TIP3    H213852   5.051   2.870   1.152  1.3303  0.7372  3.5282
 4616TIP3   OH213853   4.496   4.087   2.536 -0.1282  0.0078 -0.0546
 4616TIP3    H113854   4.492   3.996   2.567  0.3617 -0.1218 -0.3493
 4616TIP3    H213855   4.505   4.079   2.441 -1.0683  0.3883 -0.1889
 4617TIP3   OH213856   3.591   2.347   2.247  0.3596 -0.0632 -0.5306
 4617TIP3    H113857   3.515   2.369   2.195 -0.6539 -1.9667  0.0394
 4617TIP3    H213858   3.656   2.317   2.183 -0.7192 -1.9724 -0.8020
 4618TIP3   OH213859   2.202   5.239   1.903  0.2663  0.3116  0.5678
 4618TIP3    H113860   2.274   5.301   1.918  1.1929  0.0257 -2.1311
 4618TIP3    H213861   2.145   5.283   1.841 -0.6765 -0.3966  0.9099
 4619TIP3   OH213862   0.266   3.891   5.165  0.1704  0.1627  0.0665
 4619TIP3    H113863   0.204   3.854   5.101 -1.1970  3.4270 -0.6908
 4619TIP3    H213864   0.230   3.867   5.250 -0.7761 -0.0505 -0.3848
 4620TIP3   OH213865   3.287   0.322   4.918 -0.0591  0.1035  0.0324
 4620TIP3    H113866   3.363   0.263   4.911 -0.3171 -0.2003 -0.2401
 4620TIP3    H213867   3.255   0.330   4.828  0.5221  1.4077 -0.0857
 4621TIP3   OH213868   2.927   1.438   2.956  0.6915 -0.4384  0.2642
 4621TIP3    H113869   2.874   1.412   3.032  0.0012  1.0140  0.3060
 4621TIP3    H213870   2.915   1.366   2.893 -0.8765 -0.4090  0.4953
 4622TIP3   OH213871   1.635   5.193   3.462  0.2404 -0.1912 -0.7064
 4622TIP3    H113872   1.566   5.143   3.506 -0.8561  0.3476 -1.7548
 4622TIP3    H213873   1.697   5.126   3.432  0.5392 -0.6336  0.8129
 4623TIP3   OH213874   1.579   5.642   3.744 -0.1465  0.6143  0.0369
 4623TIP3    H113875   1.565   5.710   3.810 -2.6762  0.0323  0.1873
 4623TIP3    H213876   1.626   5.686   3.674  2.0287  1.4253  1.8629
 4624TIP3   OH213877   5.699   3.339   2.224  0.7555  0.2064 -0.0235
 4624TIP3    H113878   5.738   3.320   2.309 -0.0128  0.6674  0.4412
 4624TIP3    H213879   5.616   3.293   2.224  0.6673  0.3566 -0.4536
 4625TIP3   OH213880   3.168   1.368   2.493 -0.2571 -0.4443  0.6458
 4625TIP3    H113881   3.132   1.290   2.452  1.8079 -1.3881  0.4753
 4625TIP3    H213882   3.152   1.356   2.586  0.5504 -1.3891  0.6798
 4626TIP3   OH213883   2.399   5.092   1.485 -0.6163 -0.2772  0.0544
 4626TIP3    H113884   2.434   5.175   1.516 -0.4291 -0.4892  0.4261
 4626TIP3    H213885   2.311   5.087   1.521 -0.7840 -0.0458 -0.3251
 4627TIP3   OH213886   0.396   1.598   4.460 -0.1848 -0.4485 -0.0997
 4627TIP3    H113887   0.464   1.654   4.498 -0.1703 -0.3693 -0.2432
 4627TIP3    H213888   0.318   1.615   4.514 -0.6964  1.0690 -1.2233
 4628TIP3   OH213889   3.868   1.757   0.143  0.7633 -0.5022  0.1113
 4628TIP3    H113890   3.777   1.729   0.159 -0.3959  2.5829 -0.4133
 4628TIP3    H213891   3.879   1.749   0.048  0.4272  0.6473 -0.0415
 4629TIP3   OH213892   1.962   5.646   4.496  0.0068 -0.0182 -0.2480
 4629TIP3    H113893   1.927   5.557   4.489  0.3598 -0.1099 -0.9232
 4629TIP3    H213894   2.056   5.636   4.488  0.0274  0.4454 -0.6332
 4630TIP3   OH213895   4.480   1.120   5.019 -0.0988  0.1038 -0.1906
 4630TIP3    H113896   4.510   1.109   4.928  2.4344  2.0309  0.2937
 4630TIP3    H213897   4.481   1.214   5.033 -2.3682 -0.0193  1.3270
 4631TIP3   OH213898   5.709   1.924   4.594 -0.2672  0.2452  0.2056
 4631TIP3    H113899   5.777   1.914   4.660  1.1176  0.4460 -1.1235
 4631TIP3    H213900   5.748   1.982   4.528 -1.1371 -0.8711 -1.3575
 4632TIP3   OH213901   2.989   1.087   4.505  0.5535  0.1759 -0.4107
 4632TIP3    H113902   2.969   1.151   4.575  0.4693  0.9415 -1.1147
 4632TIP3    H213903   3.011   1.141   4.429  1.1408 -0.6522 -0.8418
 4633TIP3   OH213904   2.345   5.630   0.506  0.5589  0.3100 -0.0641
 4633TIP3    H113905   2.385   5.654   0.590  0.0044  1.1864 -0.0377
 4633TIP3    H213906   2.256   5.604   0.528  0.7930 -0.6742 -0.2409
 4634TIP3   OH213907   0.062   5.946   2.670  0.0560 -0.6197  0.0025
 4634TIP3    H113908   0.106   5.933   2.754  0.2428  0.6388  0.1173
 4634TIP3    H213909   0.024   5.860   2.650 -0.3604 -0.8445  1.5745
 4635TIP3   OH213910   2.948   4.567   0.477 -0.0962  0.0583  0.5567
 4635TIP3    H113911   3.040   4.571   0.451  0.0520 -1.6500  0.7076
 4635TIP3    H213912   2.907   4.638   0.429  1.3766  1.1587  0.8505
 4636TIP3   OH213913   1.802   0.880   3.551  0.2653 -0.5858 -0.1955
 4636TIP3    H113914   1.715   0.913   3.528 -0.1760 -2.3520 -1.2910
 4636TIP3    H213915   1.862   0.949   3.524 -0.6199 -0.6103 -2.4203
 4637TIP3   OH213916   6.037   1.181   0.462  0.6514  0.0028 -0.7253
 4637TIP3    H113917   6.069   1.247   0.402  0.6946  0.5894 -0.0723
 4637TIP3    H213918   6.015   1.229   0.542  0.3083 -0.7110 -0.3745
 4638TIP3   OH213919   2.350   3.112   3.040 -0.6264  0.3755 -0.2561
 4638TIP3    H113920   2.400   3.078   3.114 -2.0447  0.9436  0.9869
 4638TIP3    H213921   2.417   3.143   2.979  0.5635  0.2964  0.9651
 4639TIP3   OH213922   2.664   5.508   0.603 -0.0486 -0.3975  0.6845
 4639TIP3    H113923   2.695   5.418   0.614 -0.3046 -0.6944 -0.7115
 4639TIP3    H213924   2.572   5.504   0.628 -0.6942 -1.1138 -1.4850
 4640TIP3   OH213925   1.280   4.883   4.704 -0.0528  0.1148  0.3016
 4640TIP3    H113926   1.307   4.937   4.777  1.6087  2.0207 -1.5735
 4640TIP3    H213927   1.207   4.930   4.664 -0.9637 -0.9203  0.6826
 4641TIP3   OH213928   4.905   4.342   2.439 -0.3746 -0.1904  0.1252
 4641TIP3    H113929   4.823   4.331   2.487  0.8297 -2.0580  1.9270
 4641TIP3    H213930   4.900   4.278   2.368  0.6681 -2.5267  2.0321
 4642TIP3   OH213931   3.577   2.431   4.611  0.3039 -0.2131  0.1639
 4642TIP3    H113932   3.503   2.429   4.673  0.8576 -0.2602  0.8378
 4642TIP3    H213933   3.540   2.401   4.528 -0.7114  0.8805  0.1970
 4643TIP3   OH213934   4.585   5.257   0.983 -0.0147  0.0257  0.4004
 4643TIP3    H113935   4.594   5.352   0.984 -0.0956  0.1324 -1.9878
 4643TIP3    H213936   4.492   5.242   1.000  0.0712  0.3245  1.1898
 4644TIP3   OH213937   0.412   2.487   2.443 -0.7667 -0.1755  0.2503
 4644TIP3    H113938   0.432   2.581   2.444 -1.2451 -0.0561 -0.3615
 4644TIP3    H213939   0.497   2.444   2.439 -0.5662  0.2671 -0.3801
 4645TIP3   OH213940   5.061   3.268   0.944 -0.3321  0.6015 -0.4612
 4645TIP3    H113941   5.067   3.245   0.851 -2.9141 -0.5618 -0.4369
 4645TIP3    H213942   4.976   3.232   0.972 -0.3634  2.3035  1.9486
 4646TIP3   OH213943   3.381   0.906   3.325 -0.0161  0.0031  0.1168
 4646TIP3    H113944   3.344   0.919   3.413 -2.2489  2.0297 -0.9916
 4646TIP3    H213945   3.449   0.972   3.317  0.9464 -0.9023  0.6702
 4647TIP3   OH213946   2.341   4.540   1.270  0.0325  0.0527 -0.2444
 4647TIP3    H113947   2.388   4.474   1.321  1.0539 -0.1201 -1.3717
 4647TIP3    H213948   2.380   4.623   1.296 -0.0177  0.0489 -0.1538
 4648TIP3   OH213949   4.963   2.548   2.297 -0.4385 -0.6661  0.8409
 4648TIP3    H113950   4.925   2.514   2.378  0.3247 -0.3164  1.3539
 4648TIP3    H213951   5.053   2.517   2.297 -0.0491  0.4143  0.7700
 4649TIP3   OH213952   6.317   2.593   3.002 -0.1064  0.1679  0.0646
 4649TIP3    H113953   6.298   2.662   2.939  0.1889 -0.7112 -1.0167
 4649TIP3    H213954   6.265   2.518   2.973 -1.7090  0.3757  2.1693
 4650TIP3   OH213955   4.483   3.433   2.305  0.2829  0.0505 -0.4183
 4650TIP3    H113956   4.480   3.469   2.216  0.8897 -0.3228 -0.5938
 4650TIP3    H213957   4.508   3.342   2.293 -1.9558 -0.6724 -0.0359
 4651TIP3   OH213958   3.066   2.272   0.767  0.2697 -0.3263 -0.1182
 4651TIP3    H113959   3.098   2.241   0.852 -0.9155 -1.5070 -0.0564
 4651TIP3    H213960   3.125   2.343   0.743 -0.1192  0.9502  2.3229
 4652TIP3   OH213961   4.575   4.105   0.280 -0.5954  0.2556  0.3281
 4652TIP3    H113962   4.669   4.103   0.297 -0.6487 -1.3024  0.5548
 4652TIP3    H213963   4.548   4.014   0.286 -1.9345  0.5510 -0.8051
 4653TIP3   OH213964   2.261   3.374   3.877  0.2661 -0.1958 -0.9105
 4653TIP3    H113965   2.339   3.398   3.827 -0.0494  1.2683 -0.7490
 4653TIP3    H213966   2.246   3.449   3.935 -0.9443 -0.6888 -0.5542
 4654TIP3   OH213967   6.172   4.531   3.450  0.0922 -0.1668  0.2188
 4654TIP3    H113968   6.163   4.495   3.362  0.7445  0.0507  0.0631
 4654TIP3    H213969   6.128   4.616   3.445  2.4093  1.0646 -0.6510
 4655TIP3   OH213970   2.558   4.339   1.151 -0.3106 -0.1345 -0.1327
 4655TIP3    H113971   2.570   4.336   1.056 -0.4287 -0.1757 -0.1461
 4655TIP3    H213972   2.466   4.316   1.164 -0.9759  2.2701 -0.1702
 4656TIP3   OH213973   5.447   3.999   5.090 -0.2498  0.5169 -0.3063
 4656TIP3    H113974   5.522   4.039   5.046  0.4176  0.2149  0.5381
 4656TIP3    H213975   5.479   3.976   5.177 -0.9562 -0.8237 -0.3814
 4657TIP3   OH213976  -0.015  -0.014   0.980 -0.3310 -0.2006  0.0400
 4657TIP3    H113977   0.058   0.017   0.926 -0.8282 -0.8543 -1.0569
 4657TIP3    H213978  -0.015   0.042   1.057  0.3760  0.8045 -0.6811
 4658TIP3   OH213979   1.167   1.680   3.349  0.2259  0.3411  0.5508
 4658TIP3    H113980   1.195   1.607   3.403 -1.4771  0.5755  1.8704
 4658TIP3    H213981   1.180   1.757   3.404  2.2212  1.1207 -0.9044
 4659TIP3   OH213982   0.224   5.719   3.370 -0.5019 -0.2710  0.6051
 4659TIP3    H113983   0.280   5.647   3.342  0.2059  0.7258 -0.6925
 4659TIP3    H213984   0.248   5.734   3.461  0.2118 -0.8887  0.5324
 4660TIP3   OH213985   0.901   4.864   2.144  0.4659 -0.0076  0.3386
 4660TIP3    H113986   0.948   4.784   2.120 -0.8294 -0.7410  0.0999
 4660TIP3    H213987   0.911   4.922   2.068  1.1313 -0.0760  0.3730
 4661TIP3   OH213988   4.620   1.475   1.414  0.4763 -0.0627 -0.2496
 4661TIP3    H113989   4.651   1.564   1.398 -0.0682  0.2459  0.3627
 4661TIP3    H213990   4.672   1.420   1.354 -0.9179  0.9295 -2.4981
 4662TIP3   OH213991   3.206   5.438   0.363 -0.6708 -0.0636 -0.4739
 4662TIP3    H113992   3.275   5.504   0.367 -0.9677  0.2552 -0.5393
 4662TIP3    H213993   3.242   5.369   0.308 -0.4691  0.1817 -0.6546
 4663TIP3   OH213994   3.359   2.047   5.169  0.3006 -0.3970 -0.2405
 4663TIP3    H113995   3.404   2.130   5.156  0.4245 -0.5452 -0.7774
 4663TIP3    H213996   3.385   1.993   5.094  2.1824 -1.7918  1.2926
 4664TIP3   OH213997   0.039   1.911   2.643 -1.0543 -0.2259 -0.3729
 4664TIP3    H113998   0.117   1.953   2.607  0.2004 -2.1237 -0.0309
 4664TIP3    H213999  -0.012   1.886   2.566 -0.5960 -0.2439 -0.6779
 4665TIP3   OH214000   5.200   3.874   1.321  0.1258  0.5955  0.0704
 4665TIP3    H114001   5.156   3.802   1.366  0.7025  1.0503  1.4182
 4665TIP3    H214002   5.148   3.889   1.242  0.3872 -1.7457 -0.6160
 4666TIP3   OH214003   4.329   3.577   5.128  0.6094 -0.1784 -0.0701
 4666TIP3    H114004   4.411   3.614   5.160  0.7939  0.0852 -0.8178
 4666TIP3    H214005   4.313   3.622   5.045 -0.8888  0.5784  0.5907
 4667TIP3   OH214006   5.563   4.951   4.525 -0.2896 -0.1476 -0.2898
 4667TIP3    H114007   5.602   5.033   4.555 -2.3671  1.0917 -0.8025
 4667TIP3    H214008   5.540   4.967   4.433 -0.8507 -1.2630 -0.3637
 4668TIP3   OH214009   4.186   2.310   2.098 -0.2231  0.0824 -0.3126
 4668TIP3    H114010   4.266   2.310   2.150  0.6061 -2.5428 -1.4260
 4668TIP3    H214011   4.208   2.358   2.019  0.0459 -0.0552 -0.3216
 4669TIP3   OH214012   0.989   3.923   2.387 -0.2473 -0.0169  0.1096
 4669TIP3    H114013   0.966   3.960   2.302 -1.4037 -0.3699  0.2541
 4669TIP3    H214014   1.007   3.831   2.369  1.0752  0.2318  0.0116
 4670TIP3   OH214015   1.413   3.800   4.165 -0.4432 -0.0036 -0.4931
 4670TIP3    H114016   1.359   3.849   4.103 -0.9673 -0.3842 -0.3386
 4670TIP3    H214017   1.430   3.862   4.236  2.4435  1.4049 -2.1912
 4671TIP3   OH214018   5.818   5.711   1.604 -0.2732 -0.5909  0.3459
 4671TIP3    H114019   5.887   5.772   1.578 -0.7939 -0.1901 -0.1199
 4671TIP3    H214020   5.787   5.673   1.523 -0.6510 -0.7127  0.5443
 4672TIP3   OH214021   1.336   3.930   1.050 -0.3943  0.3018 -0.1175
 4672TIP3    H114022   1.365   3.861   0.990  0.5457  1.3356 -0.9019
 4672TIP3    H214023   1.252   3.958   1.015  0.0308  0.7221 -0.8382
 4673TIP3   OH214024   5.257   1.947   1.517  0.0102  0.0012  0.2186
 4673TIP3    H114025   5.326   1.972   1.456  0.9540 -0.7528  0.9356
 4673TIP3    H214026   5.277   1.856   1.539 -1.6413 -0.4531 -0.0987
 4674TIP3   OH214027   4.006   1.606   3.867  0.0868 -0.5180 -0.4909
 4674TIP3    H114028   3.983   1.519   3.898 -1.0745 -0.8220 -2.1089
 4674TIP3    H214029   3.976   1.608   3.776  0.5739  1.3826 -0.6454
 4675TIP3   OH214030   2.272   0.873   1.688 -0.8540 -0.1747 -0.8987
 4675TIP3    H114031   2.203   0.851   1.751 -0.6043  0.2712 -0.4683
 4675TIP3    H214032   2.313   0.952   1.723 -0.6828  0.0553 -1.5992
 4676TIP3   OH214033   6.251   3.932   3.053  0.3931 -0.0421 -0.3326
 4676TIP3    H114034   6.216   3.953   2.967  0.9352 -0.2707 -0.6143
 4676TIP3    H214035   6.346   3.931   3.041  0.4319 -2.5769 -0.3469
 4677TIP3   OH214036   0.471   4.272   0.999  0.2995  0.1237  0.2047
 4677TIP3    H114037   0.407   4.278   0.928  1.0001 -0.6257 -0.5130
 4677TIP3    H214038   0.465   4.182   1.029  1.2876 -0.0796 -0.1560
 4678TIP3   OH214039   4.337   5.411   2.586 -0.1605  0.2220 -0.2333
 4678TIP3    H114040   4.426   5.446   2.592  0.0881 -0.6568  2.9380
 4678TIP3    H214041   4.297   5.461   2.514  2.3869  1.7112 -0.7668
 4679TIP3   OH214042   5.222   4.729   3.792  0.1993 -0.5384  0.6259
 4679TIP3    H114043   5.162   4.679   3.736 -0.6080  0.4467  0.5809
 4679TIP3    H214044   5.166   4.793   3.836  1.2187  0.3995  0.5972
 4680TIP3   OH214045   4.240   4.675   4.817  0.1298 -0.2229 -0.2171
 4680TIP3    H114046   4.232   4.729   4.896 -1.8121  2.5037 -2.0933
 4680TIP3    H214047   4.187   4.721   4.751  1.2304 -2.6228 -2.9864
 4681TIP3   OH214048   3.558   2.915   1.779 -0.4474  0.6701 -0.4349
 4681TIP3    H114049   3.584   2.966   1.702 -0.1373  2.2195  0.6481
 4681TIP3    H214050   3.630   2.927   1.841 -0.7308 -0.4825  0.1547
 4682TIP3   OH214051   5.524   2.504   3.611 -0.6790  0.0362 -0.0091
 4682TIP3    H114052   5.451   2.454   3.647  0.4979  0.5905  3.5289
 4682TIP3    H214053   5.602   2.468   3.653  0.7624  1.5745 -1.1806
 4683TIP3   OH214054   1.716   0.523   2.295  0.0981 -1.2045 -0.0765
 4683TIP3    H114055   1.756   0.450   2.248  1.6769  0.1269 -0.9007
 4683TIP3    H214056   1.767   0.600   2.268 -1.1827  0.1339  1.1440
 4684TIP3   OH214057   1.794   5.596   0.495  0.0974  0.1377 -0.4915
 4684TIP3    H114058   1.819   5.505   0.486  1.9582  0.6793 -1.2880
 4684TIP3    H214059   1.702   5.599   0.469  0.3275 -1.3428 -1.5998
 4685TIP3   OH214060   3.552   2.598   2.777 -0.2531 -0.3406  0.0862
 4685TIP3    H114061   3.508   2.657   2.838 -0.2000 -0.3803  0.1627
 4685TIP3    H214062   3.498   2.519   2.776 -0.9093  0.0879 -0.8044
 4686TIP3   OH214063   0.867   3.061   2.140  0.8715  0.2440  0.0622
 4686TIP3    H114064   0.825   2.996   2.196 -0.0518 -0.3952 -1.3062
 4686TIP3    H214065   0.927   3.108   2.198 -0.5317  0.0827  1.7149
 4687TIP3   OH214066   4.823   0.262   1.335  0.8418  0.0468 -0.3964
 4687TIP3    H114067   4.802   0.250   1.243 -0.5185  1.4923 -0.3220
 4687TIP3    H214068   4.917   0.282   1.336  1.0414 -0.7878 -1.3742
 4688TIP3   OH214069   3.148   0.232   2.209 -0.0261 -0.7393 -0.0768
 4688TIP3    H114070   3.139   0.259   2.117 -1.0047 -0.7280  0.0125
 4688TIP3    H214071   3.068   0.264   2.251  0.8394  0.1011  0.9959
 4689TIP3   OH214072   4.130   2.664   0.192 -0.1414  0.6629  0.3676
 4689TIP3    H114073   4.124   2.662   0.287  2.8084 -1.0790  0.6385
 4689TIP3    H214074   4.160   2.752   0.172 -0.9076  1.0832  1.0039
 4690TIP3   OH214075   3.987   5.277   4.874  0.0940 -0.0255 -0.1796
 4690TIP3    H114076   4.075   5.307   4.853 -0.0621 -0.9442 -2.3676
 4690TIP3    H214077   3.942   5.356   4.905  1.2409  0.7955 -0.5263
 4691TIP3   OH214078   5.043   5.020   0.190 -0.0320  0.1499  0.2519
 4691TIP3    H114079   4.989   5.058   0.120  0.0573  1.0669  0.6601
 4691TIP3    H214080   5.129   5.009   0.150  0.4547  2.1647  0.6245
 4692TIP3   OH214081   5.192   5.709   4.842 -0.1510  0.7245  1.0411
 4692TIP3    H114082   5.287   5.720   4.847 -0.1539  0.2342  4.2755
 4692TIP3    H214083   5.158   5.799   4.841  0.3341  0.9076  0.8226
 4693TIP3   OH214084   4.732   0.057   4.772 -0.0806  0.2126 -0.8208
 4693TIP3    H114085   4.802   0.023   4.717 -0.3965  1.0046 -1.7546
 4693TIP3    H214086   4.717  -0.010   4.838  0.6197 -0.5628 -1.4396
 4694TIP3   OH214087   6.167   0.273   3.015  0.1450 -0.5630 -0.4912
 4694TIP3    H114088   6.072   0.287   3.013  0.4291  1.6207 -1.0321
 4694TIP3    H214089   6.180   0.192   2.965 -1.3509 -0.4609 -1.1139
 4695TIP3   OH214090   0.078   5.406   4.656  0.3325 -0.6235 -0.1185
 4695TIP3    H114091   0.152   5.365   4.702  0.1608 -1.9114 -0.9296
 4695TIP3    H214092   0.003   5.351   4.680  0.0077 -0.5154 -0.8850
 4696TIP3   OH214093   4.962   2.030   3.856 -0.3732 -0.1646 -0.5265
 4696TIP3    H114094   4.901   1.993   3.921 -0.6638  3.1607  1.3139
 4696TIP3    H214095   4.908   2.088   3.802  0.5133 -0.1382 -1.4159
 4697TIP3   OH214096   2.055   3.020   5.146 -0.6160 -0.0575  0.0713
 4697TIP3    H114097   2.146   3.006   5.121  0.0063  1.4545  1.3543
 4697TIP3    H214098   2.057   3.030   5.241 -1.7586  2.2660 -0.0787
 4698TIP3   OH214099   4.068   0.767   4.292  0.0862  0.0039 -0.1128
 4698TIP3    H114100   3.996   0.811   4.337  0.4339 -0.6256  1.1182
 4698TIP3    H214101   4.028   0.726   4.215 -1.3209 -2.0522  1.6075
 4699TIP3   OH214102   5.753  -0.003   4.513  0.5937  0.0018 -0.1353
 4699TIP3    H114103   5.788   0.083   4.536 -0.7890  0.5266  0.0957
 4699TIP3    H214104   5.820  -0.041   4.456  0.6885  1.7453 -1.2942
 4700TIP3   OH214105   5.977   0.098   1.225 -0.0466  0.7340  0.3975
 4700TIP3    H114106   6.057   0.119   1.274  0.2873 -0.2007  0.2843
 4700TIP3    H214107   5.958   0.007   1.249 -0.3025  0.5047 -0.6135
 4701TIP3   OH214108   1.682   3.824   0.448 -0.2038 -0.1327 -0.2195
 4701TIP3    H114109   1.660   3.911   0.482  0.1555 -0.4423  0.8276
 4701TIP3    H214110   1.754   3.794   0.503  0.6840 -0.4890 -1.5249
 4702TIP3   OH214111   3.305   3.907   0.828  0.0289 -0.1925  0.1235
 4702TIP3    H114112   3.317   3.935   0.738  1.3325  2.5718  1.0461
 4702TIP3    H214113   3.380   3.850   0.846 -0.0796 -0.5185 -0.4241
 4703TIP3   OH214114   6.140   1.943   3.042 -0.3582 -0.4239  0.6200
 4703TIP3    H114115   6.061   1.894   3.023  0.2677 -1.0453 -0.5181
 4703TIP3    H214116   6.166   1.981   2.958 -1.0625  2.2869  1.5211
 4704TIP3   OH214117   4.430   1.432   3.434  0.1619 -0.1445  0.1184
 4704TIP3    H114118   4.469   1.437   3.522 -0.1362 -0.0937  0.2473
 4704TIP3    H214119   4.397   1.342   3.428 -0.3466  0.0276  0.2846
 4705TIP3   OH214120   2.403   2.251   1.867  0.0580  1.0039  0.3609
 4705TIP3    H114121   2.470   2.311   1.900 -0.2596  0.9863  1.0625
 4705TIP3    H214122   2.386   2.192   1.941 -0.1203  0.4780 -0.0979
 4706TIP3   OH214123   5.897   4.759   5.061  0.0088  0.2399  0.0295
 4706TIP3    H114124   5.851   4.843   5.051  1.2129  0.7069 -2.3874
 4706TIP3    H214125   5.845   4.697   5.010  0.1596 -0.0413  0.2154
 4707TIP3   OH214126   2.571   0.240   0.346  0.8467 -0.2106  0.4519
 4707TIP3    H114127   2.511   0.309   0.373 -1.3093 -1.7154 -0.2608
 4707TIP3    H214128   2.582   0.252   0.252  1.7051  0.0507  0.5721
 4708TIP3   OH214129   3.788   4.241   1.148  0.2072  0.8446  0.1187
 4708TIP3    H114130   3.702   4.283   1.154 -1.0473 -1.5844  0.5911
 4708TIP3    H214131   3.801   4.226   1.055 -1.7869 -2.1769  0.1837
 4709TIP3   OH214132   3.880   4.220   0.392 -0.1876  0.0559  0.4697
 4709TIP3    H114133   3.826   4.153   0.351  0.4350  0.3230 -0.8193
 4709TIP3    H214134   3.930   4.173   0.459 -0.8180 -0.4879  0.5603
 4710TIP3   OH214135   5.121   1.738   3.797 -0.0526 -0.3297  0.0555
 4710TIP3    H114136   5.062   1.773   3.730  1.9362 -0.0167 -1.6457
 4710TIP3    H214137   5.077   1.757   3.880 -2.3769 -0.2552 -1.1095
 4711TIP3   OH214138   1.936   4.124   2.878 -0.1014  0.1041 -0.0572
 4711TIP3    H114139   1.901   4.156   2.961 -0.6711  1.8521 -0.9088
 4711TIP3    H214140   1.989   4.197   2.845  0.7154 -0.8328 -0.9005
 4712TIP3   OH214141   4.678   3.423   1.208 -0.1820  0.3217 -0.1747
 4712TIP3    H114142   4.639   3.482   1.273  0.6963 -0.2818  0.9395
 4712TIP3    H214143   4.769   3.415   1.235 -0.1539 -1.1193 -0.6275
 4713TIP3   OH214144   1.154   5.446   1.092  0.0140 -0.2652  0.3677
 4713TIP3    H114145   1.145   5.538   1.069 -0.3493  0.1313  1.9565
 4713TIP3    H214146   1.113   5.398   1.020 -0.2859  0.8330 -0.2093
 4714TIP3   OH214147   4.229   3.885   0.887 -0.1042 -0.2128 -0.7975
 4714TIP3    H114148   4.240   3.884   0.792  0.2725 -0.7679 -0.7518
 4714TIP3    H214149   4.242   3.794   0.914  0.7371  0.0929 -0.1101
 4715TIP3   OH214150   3.441   5.421   1.301  0.4139  0.4244  0.2367
 4715TIP3    H114151   3.498   5.362   1.351  0.9828  0.2409 -0.6046
 4715TIP3    H214152   3.357   5.418   1.347  0.7452 -0.2095  0.8215
 4716TIP3   OH214153   3.386   0.033   2.583  0.4147  0.4899  0.5237
 4716TIP3    H114154   3.372   0.109   2.526 -2.7516 -1.2437 -1.3301
 4716TIP3    H214155   3.356   0.062   2.669  0.7008  1.7611  0.2222
 4717TIP3   OH214156   1.889   4.488   0.317  0.0670 -0.3014 -0.1946
 4717TIP3    H114157   1.920   4.530   0.237 -2.7434  2.5304 -0.0027
 4717TIP3    H214158   1.802   4.454   0.294 -0.3955 -0.2621  1.4016
 4718TIP3   OH214159   4.010   5.925   4.962  0.6188 -0.8162  0.2238
 4718TIP3    H114160   4.103   5.933   4.941  0.6470  1.3694  0.9874
 4718TIP3    H214161   3.995   5.991   5.030 -1.4732 -1.2242  0.2179
 4719TIP3   OH214162   2.747   2.002   0.073 -0.0592 -0.5639 -0.0844
 4719TIP3    H114163   2.745   2.070   0.005  0.5082 -1.2185 -0.7710
 4719TIP3    H214164   2.759   2.050   0.155  0.3980  0.1616 -0.5680
 4720TIP3   OH214165   3.866   2.372   0.548  0.3619  0.3575  0.1539
 4720TIP3    H114166   3.870   2.278   0.528  1.0326  0.2226  0.8666
 4720TIP3    H214167   3.779   2.399   0.520  0.5679 -0.2217 -1.1248
 4721TIP3   OH214168   5.481   4.217   4.054 -0.3684  0.5560 -0.3067
 4721TIP3    H114169   5.467   4.134   4.101 -1.4785  1.6230  1.3402
 4721TIP3    H214170   5.412   4.218   3.988 -0.0675 -0.0185 -0.6447
 4722TIP3   OH214171   3.996   0.809   2.454 -0.6964  0.2152  0.3496
 4722TIP3    H114172   3.987   0.789   2.547 -1.7565  1.1321  0.4644
 4722TIP3    H214173   3.980   0.726   2.409  3.4933 -1.1926  1.0352
 4723TIP3   OH214174   3.260   1.250   4.084  0.3511 -0.5104 -0.2036
 4723TIP3    H114175   3.205   1.328   4.091  0.9495 -0.0661 -0.3712
 4723TIP3    H214176   3.257   1.227   3.991  0.0731 -0.7649 -0.1328
 4724TIP3   OH214177   4.530   1.654   3.325  0.1166 -0.1566  0.0085
 4724TIP3    H114178   4.455   1.596   3.340  0.0657 -0.6119 -1.7590
 4724TIP3    H214179   4.574   1.660   3.410 -1.4306 -0.5721  0.8691
 4725TIP3   OH214180   0.140   2.863   0.210 -0.1568  0.3095 -0.4962
 4725TIP3    H114181   0.122   2.769   0.213 -0.0798  0.2976 -0.3832
 4725TIP3    H214182   0.224   2.872   0.256 -0.5785  0.5316  0.2543
 4726TIP3   OH214183   0.611   5.922   2.888 -0.4208  0.1440  0.0928
 4726TIP3    H114184   0.655   5.972   2.820  0.3645  0.6057  0.9188
 4726TIP3    H214185   0.664   5.935   2.967 -0.6231 -1.3571  0.5250
 4727TIP3   OH214186   2.613   1.750   3.018  0.5260  0.1702  0.0957
 4727TIP3    H114187   2.691   1.805   3.014 -0.1486  1.1569  0.1541
 4727TIP3    H214188   2.643   1.664   2.990  1.6518  0.5123  0.2003
 4728TIP3   OH214189   5.112   5.032   3.766 -0.0271  0.1796  0.3505
 4728TIP3    H114190   5.161   5.111   3.788  0.1904  0.2035 -0.2036
 4728TIP3    H214191   5.030   5.040   3.815  0.2012  0.5058  0.6886
 4729TIP3   OH214192   0.108   1.059   4.958 -0.2298  0.0712 -0.8898
 4729TIP3    H114193   0.032   1.065   5.017  1.7788  1.0880  1.8176
 4729TIP3    H214194   0.125   0.965   4.952 -0.4900 -0.0644  0.1928
 4730TIP3   OH214195   5.308   3.239   1.416  0.2444 -0.2519 -0.1194
 4730TIP3    H114196   5.334   3.263   1.505  1.1070  0.8742 -0.6505
 4730TIP3    H214197   5.383   3.264   1.362 -0.8231  0.3630 -1.3453
 4731TIP3   OH214198   4.542   4.682   4.115 -0.2958  0.4622 -0.4784
 4731TIP3    H114199   4.466   4.673   4.172 -1.2848  0.5171 -1.7408
 4731TIP3    H214200   4.597   4.607   4.137 -0.9992  0.0917  0.0544
 4732TIP3   OH214201   2.625   0.652   1.539  0.8393 -0.2261  0.2508
 4732TIP3    H114202   2.586   0.694   1.616  3.6111  1.5392  0.8450
 4732TIP3    H214203   2.580   0.692   1.464 -0.3104 -0.2578  0.9138
 4733TIP3   OH214204   4.253   3.881   2.935  0.0843 -0.2983  0.2940
 4733TIP3    H114205   4.199   3.808   2.905 -0.7861 -0.7469  2.7188
 4733TIP3    H214206   4.244   3.880   3.030  1.3378  2.0055  0.5147
 4734TIP3   OH214207   5.446   2.789   3.888  0.0870  0.4605 -0.4239
 4734TIP3    H114208   5.409   2.718   3.941  0.8551 -0.0705 -0.5855
 4734TIP3    H214209   5.395   2.789   3.808 -0.1355  0.3077 -0.2818
 4735TIP3   OH214210   1.222   0.618   0.443  0.7946  0.0684 -0.5439
 4735TIP3    H114211   1.145   0.630   0.387 -0.4445  0.0699  1.0764
 4735TIP3    H214212   1.200   0.665   0.524  2.1175 -0.7202  0.3081
 4736TIP3   OH214213   3.455   3.615   3.413  0.3125  0.4212 -0.0834
 4736TIP3    H114214   3.490   3.536   3.372  0.5885 -0.0798  1.0815
 4736TIP3    H214215   3.518   3.683   3.390  1.8102 -0.3593  1.5182
 4737TIP3   OH214216   4.269   2.116   4.717 -0.8127 -0.0038  0.1554
 4737TIP3    H114217   4.193   2.170   4.739 -1.0635 -0.7060  1.0574
 4737TIP3    H214218   4.278   2.056   4.791 -0.7074 -1.3766 -0.9270
 4738TIP3   OH214219   5.802   5.951   0.939  0.0743 -0.0819  0.2283
 4738TIP3    H114220   5.878   5.904   0.905  0.6268  0.3531  0.8304
 4738TIP3    H214221   5.728   5.894   0.920  0.5764 -0.6138 -0.1685
 4739TIP3   OH214222   1.682   4.813   4.047  0.4064 -0.2585 -0.1649
 4739TIP3    H114223   1.748   4.810   3.978 -0.4333  2.8235 -1.2435
 4739TIP3    H214224   1.713   4.881   4.107 -2.3084  2.3474 -1.4523
 4740TIP3   OH214225   2.801   3.915   4.472 -0.4239 -0.0471  0.0883
 4740TIP3    H114226   2.828   3.988   4.529 -2.9379  1.9407 -1.0592
 4740TIP3    H214227   2.859   3.923   4.396 -0.0209  0.1193  0.4029
 4741TIP3   OH214228   2.331   5.190   0.502 -0.1967 -0.1143  0.2042
 4741TIP3    H114229   2.338   5.284   0.484  0.7373 -0.3669 -0.9091
 4741TIP3    H214230   2.350   5.148   0.418 -0.0994 -1.3167  0.7983
 4742TIP3   OH214231   0.850   4.600   0.756  0.3822  0.0226 -0.1794
 4742TIP3    H114232   0.856   4.627   0.665  0.3401 -1.1756 -0.5517
 4742TIP3    H214233   0.765   4.557   0.763  0.4317  0.0090  0.4054
 4743TIP3   OH214234   2.848   3.506   2.341 -0.0604  0.4137  0.0676
 4743TIP3    H114235   2.832   3.592   2.381 -1.0979 -0.2835  1.2735
 4743TIP3    H214236   2.916   3.521   2.277  1.1930  1.7769  1.6228
 4744TIP3   OH214237   1.735   1.021   4.920 -0.0049 -0.1792  0.0911
 4744TIP3    H114238   1.662   1.023   4.858 -0.0815  1.6540  0.1862
 4744TIP3    H214239   1.710   1.083   4.988  2.0631  1.2559 -0.3717
 4745TIP3   OH214240   1.181   2.513   2.987 -0.2521 -0.1216  0.4974
 4745TIP3    H114241   1.094   2.490   2.953 -1.2423  2.3346  1.0960
 4745TIP3    H214242   1.164   2.540   3.078  1.1836  0.1858  0.6957
 4746TIP3   OH214243   1.142   4.209   1.571  0.8889  0.2786 -0.0054
 4746TIP3    H114244   1.160   4.280   1.633 -0.9177 -0.5255  1.5157
 4746TIP3    H214245   1.191   4.134   1.605  2.1767  0.5427 -1.1865
 4747TIP3   OH214246   5.736  -0.023   0.620 -0.0421  0.2660 -0.0680
 4747TIP3    H114247   5.643  -0.001   0.612 -0.2994 -0.1637  1.4223
 4747TIP3    H214248   5.779   0.061   0.633 -0.5979  0.2703  2.1123
 4748TIP3   OH214249   3.382   5.082   5.100 -0.6880  0.1742  0.2943
 4748TIP3    H114250   3.370   5.167   5.144 -1.1209  0.0200  0.4754
 4748TIP3    H214251   3.347   5.096   5.012  2.2985  1.2040 -0.8653
 4749TIP3   OH214252   1.645   1.236   3.334 -0.1823 -0.6433 -0.0080
 4749TIP3    H114253   1.683   1.311   3.288 -1.1653 -0.4356 -0.4938
 4749TIP3    H214254   1.720   1.179   3.352  0.0195 -2.1168 -4.3806
 4750TIP3   OH214255   3.811   4.281   2.972  0.2945  0.2285 -0.3208
 4750TIP3    H114256   3.854   4.332   2.903  1.0802 -2.5654 -2.0358
 4750TIP3    H214257   3.883   4.246   3.024 -0.1464 -0.4263 -0.1435
 4751TIP3   OH214258   5.111   4.652   1.284  0.7242 -0.1939  0.2931
 4751TIP3    H114259   5.199   4.684   1.306  0.5606 -0.5929  1.6601
 4751TIP3    H214260   5.059   4.732   1.277  1.2023  0.0516 -0.6252
 4752TIP3   OH214261   6.152   3.870   2.353 -0.0975  0.5097  0.5149
 4752TIP3    H114262   6.186   3.872   2.264  2.9913 -0.1566  1.5522
 4752TIP3    H214263   6.073   3.925   2.350 -0.4329  0.0401 -2.6833
 4753TIP3   OH214264   2.711   4.583   0.716  0.0479  0.5614 -0.3770
 4753TIP3    H114265   2.750   4.637   0.785 -0.4456  1.6138 -0.8968
 4753TIP3    H214266   2.747   4.619   0.635  0.5506 -0.6044 -0.6822
 4754TIP3   OH214267  -0.011   1.236   2.929 -0.5913  0.0734  0.4041
 4754TIP3    H114268   0.073   1.205   2.962 -0.7903  1.3088  2.2158
 4754TIP3    H214269  -0.033   1.310   2.985 -1.8122  1.2319 -1.5019
 4755TIP3   OH214270   2.997   0.935   1.723 -0.1255  0.3156 -0.3799
 4755TIP3    H114271   3.029   1.005   1.780  1.2200 -0.3253 -0.2988
 4755TIP3    H214272   2.967   0.980   1.644 -1.7398  1.1860  0.6963
 4756TIP3   OH214273   4.230   3.263   0.830 -0.0106 -0.0422  0.6322
 4756TIP3    H114274   4.148   3.309   0.849 -1.3654 -1.4447 -1.4146
 4756TIP3    H214275   4.248   3.213   0.909 -0.1190  1.6461  1.7774
 4757TIP3   OH214276   2.004   2.773   2.183  0.1434 -0.2743 -0.4061
 4757TIP3    H114277   2.034   2.850   2.134 -1.1679  0.8698  0.5308
 4757TIP3    H214278   1.910   2.768   2.166  0.2339 -1.8761 -0.6749
 4758TIP3   OH214279   3.418   2.902   1.378 -0.0103 -0.1913 -0.4228
 4758TIP3    H114280   3.405   2.886   1.471 -0.8749  1.1429 -0.2889
 4758TIP3    H214281   3.332   2.888   1.338  0.2392 -0.2641 -0.9572
 4759TIP3   OH214282   1.791   5.318   0.477  0.3268  0.1212  0.2862
 4759TIP3    H114283   1.871   5.277   0.510  0.8174  1.0997  0.3225
 4759TIP3    H214284   1.723   5.252   0.494  0.6698  0.2727  2.6039
 4760TIP3   OH214285   0.080   3.894   0.372  0.1341 -0.0677  0.0932
 4760TIP3    H114286   0.060   3.855   0.457  0.3258 -0.5403 -0.0756
 4760TIP3    H214287   0.159   3.850   0.344  0.2470  0.3135 -0.1907
 4761TIP3   OH214288   2.919   4.053   5.127  0.5928 -0.1049  0.2050
 4761TIP3    H114289   2.919   4.073   5.033 -0.7621  1.1440  0.4272
 4761TIP3    H214290   2.991   3.992   5.138  1.5777  0.6723 -1.4494
 4762TIP3   OH214291   4.493   5.426   1.306 -0.2946  0.5230  0.3817
 4762TIP3    H114292   4.420   5.372   1.339 -0.5812  0.3933 -0.4371
 4762TIP3    H214293   4.463   5.456   1.221  1.2709 -0.9181 -0.7444
 4763TIP3   OH214294   4.208   4.494   2.162  0.0776  0.3364  0.2453
 4763TIP3    H114295   4.262   4.416   2.178  1.1737  1.2522  1.1947
 4763TIP3    H214296   4.230   4.553   2.234 -0.0372  1.8906 -0.9511
 4764TIP3   OH214297   0.478   1.993   4.059 -0.5895  0.3560  0.3132
 4764TIP3    H114298   0.488   1.904   4.022 -1.9416  0.2223  0.2220
 4764TIP3    H214299   0.551   2.001   4.120  1.9561  0.6792 -2.5199
 4765TIP3   OH214300   3.408   2.662   0.223 -0.1518 -0.8985  0.6852
 4765TIP3    H114301   3.329   2.683   0.173  0.3168  1.3455  0.7910
 4765TIP3    H214302   3.480   2.690   0.167  0.7442 -4.1364  0.0009
 4766TIP3   OH214303   0.753   4.971   4.962 -0.3639 -0.1160 -0.5612
 4766TIP3    H114304   0.821   5.003   5.021 -0.6066  0.5623 -0.6414
 4766TIP3    H214305   0.787   4.887   4.931  0.0119 -0.2281  0.1172
 4767TIP3   OH214306   2.310   4.787   3.393  0.3421  0.1530  0.3646
 4767TIP3    H114307   2.358   4.837   3.327  0.5001  0.5287  0.7602
 4767TIP3    H214308   2.218   4.806   3.374  0.2579 -1.4987 -1.1408
 4768TIP3   OH214309   3.252   1.586   4.263 -1.1596  0.2308  0.1812
 4768TIP3    H114310   3.221   1.631   4.342 -0.6031  2.7025 -0.9347
 4768TIP3    H214311   3.335   1.628   4.243 -0.2287 -1.8413 -0.5578
 4769TIP3   OH214312   5.805   2.208   4.722  0.3970 -0.5411  0.0640
 4769TIP3    H114313   5.812   2.126   4.771 -0.7569 -0.6587  0.0655
 4769TIP3    H214314   5.895   2.237   4.710  0.7565 -1.1460  1.1867
 4770TIP3   OH214315   5.513   2.756   0.397  0.2179 -0.1936  0.1751
 4770TIP3    H114316   5.578   2.719   0.337  0.7293  3.2297 -1.6511
 4770TIP3    H214317   5.562   2.818   0.450 -0.9122 -0.4641  1.5926
 4771TIP3   OH214318   4.405   5.214   2.082 -0.2576  0.0574 -0.1919
 4771TIP3    H114319   4.336   5.263   2.037 -0.4697 -0.4898 -0.4652
 4771TIP3    H214320   4.399   5.244   2.173 -0.2814  0.6552 -0.3824
 4772TIP3   OH214321   2.606   1.872   4.376 -0.0451 -0.2734  0.1136
 4772TIP3    H114322   2.670   1.871   4.305 -1.2871  0.2281 -1.0783
 4772TIP3    H214323   2.522   1.885   4.331 -0.8275  0.4565  1.7213
 4773TIP3   OH214324   5.324   4.428   1.847  0.0406  0.2167  0.3025
 4773TIP3    H114325   5.333   4.333   1.836 -3.4371 -0.5227  2.2080
 4773TIP3    H214326   5.352   4.444   1.937  1.4946  1.2236 -0.2948
 4774TIP3   OH214327   6.346   1.667   0.257 -0.1585  0.2157 -0.5411
 4774TIP3    H114328   6.367   1.576   0.278  0.2270  0.0566 -1.5498
 4774TIP3    H214329   6.272   1.661   0.197 -2.2290  0.7162  1.8110
 4775TIP3   OH214330   2.676   2.541   0.781 -0.1773  0.3310  0.1841
 4775TIP3    H114331   2.651   2.559   0.871  0.1533 -0.1526  0.3736
 4775TIP3    H214332   2.609   2.481   0.749  0.7510 -1.0516  0.7259
 4776TIP3   OH214333   0.537   1.667   3.463 -0.0191 -0.3805 -0.0776
 4776TIP3    H114334   0.451   1.707   3.457 -0.5974 -1.7067 -1.1191
 4776TIP3    H214335   0.584   1.720   3.527 -0.3560  2.5851 -2.0948
 4777TIP3   OH214336   1.826   0.512   2.815 -0.4518 -0.6272  0.1698
 4777TIP3    H114337   1.912   0.553   2.806  0.0465 -1.5273  0.7467
 4777TIP3    H214338   1.800   0.492   2.726 -0.6572  0.8066 -0.1253
 4778TIP3   OH214339   1.276   4.619   3.070  0.2106 -0.0506 -0.0432
 4778TIP3    H114340   1.268   4.689   3.134 -1.3205  0.8951 -1.1993
 4778TIP3    H214341   1.186   4.587   3.058  0.6865 -1.2524 -0.5857
 4779TIP3   OH214342   2.005   1.481   3.404  0.4069 -0.3787  0.2476
 4779TIP3    H114343   2.064   1.477   3.330  0.3638  1.2715  0.0932
 4779TIP3    H214344   2.061   1.503   3.479  0.3026 -1.0122  0.5158
 4780TIP3   OH214345   3.096   2.763   5.004 -0.8794  0.2385 -0.1377
 4780TIP3    H114346   3.126   2.677   5.035 -0.2836  1.2946  2.5141
 4780TIP3    H214347   3.026   2.787   5.065 -0.6323  1.8720 -0.4550
 4781TIP3   OH214348   6.094   0.775   0.316 -0.2932 -0.4250  0.7223
 4781TIP3    H114349   6.063   0.830   0.244 -0.6179  2.0316  2.6155
 4781TIP3    H214350   6.030   0.703   0.319 -2.1783  1.1433  0.5432
 4782TIP3   OH214351   3.896   5.889   2.537  0.0415 -0.5299  0.4094
 4782TIP3    H114352   3.911   5.968   2.484 -0.2695 -0.7442  0.0002
 4782TIP3    H214353   3.982   5.868   2.573  0.1833 -0.1679  0.2940
 4783TIP3   OH214354   3.974   2.040   4.585  0.0006 -0.4443 -0.3683
 4783TIP3    H114355   3.918   1.967   4.611  1.4002 -1.2963  0.3399
 4783TIP3    H214356   3.992   2.087   4.666 -1.0415  0.8553 -0.8392
 4784TIP3   OH214357   4.535   0.499   3.851  0.0014  0.2949 -0.0796
 4784TIP3    H114358   4.554   0.557   3.777 -0.8128  1.2457  0.4378
 4784TIP3    H214359   4.450   0.528   3.883 -0.2072 -0.8882  0.4964
 4785TIP3   OH214360   2.071   1.835   4.386  0.3216 -1.0700 -0.7101
 4785TIP3    H114361   2.128   1.822   4.310  0.9022 -1.4743 -0.2187
 4785TIP3    H214362   2.130   1.834   4.461 -0.0988  0.5161 -0.3189
 4786TIP3   OH214363   1.523   4.238   2.836 -0.3535  1.0260  0.8254
 4786TIP3    H114364   1.439   4.271   2.804 -1.6964 -2.3081  0.5500
 4786TIP3    H214365   1.574   4.222   2.757 -0.3476  0.8418  0.8677
 4787TIP3   OH214366   2.449   0.990   2.503 -0.4576  0.0981  0.2438
 4787TIP3    H114367   2.507   0.996   2.428 -1.8439  1.7527 -0.7555
 4787TIP3    H214368   2.426   0.897   2.508 -1.4113  0.1253 -2.2575
 4788TIP3   OH214369   4.846   4.449   0.296  0.2599 -0.5396  0.2655
 4788TIP3    H114370   4.800   4.444   0.380  0.4782 -2.2770  0.3084
 4788TIP3    H214371   4.776   4.442   0.230  0.1414  0.2974  0.2918
 4789TIP3   OH214372   2.246   5.510   2.739 -0.2417 -1.0241  0.7369
 4789TIP3    H114373   2.181   5.480   2.675  0.8315 -2.1928  0.1482
 4789TIP3    H214374   2.203   5.583   2.784 -0.3795  1.1617 -2.5837
 4790TIP3   OH214375   2.998   0.859   4.644  0.0466 -0.1223 -0.7311
 4790TIP3    H114376   2.952   0.816   4.572 -2.2520 -0.5721  0.8841
 4790TIP3    H214377   2.993   0.953   4.624 -2.3690 -0.0840 -0.2921
 4791TIP3   OH214378   2.616   3.040   5.080  0.1456 -0.2305 -0.1835
 4791TIP3    H114379   2.577   3.121   5.047 -0.2793 -0.2587  0.2455
 4791TIP3    H214380   2.708   3.062   5.094 -0.3121  0.7297  1.6452
 4792TIP3   OH214381   3.648   5.001   0.480  0.0729 -0.2225 -0.3510
 4792TIP3    H114382   3.607   5.013   0.566 -1.8521  0.3653 -1.3017
 4792TIP3    H214383   3.733   5.045   0.487  0.4939 -1.2382  1.5972
 4793TIP3   OH214384   3.503   1.291   1.308 -0.0542 -0.0036  0.2589
 4793TIP3    H114385   3.577   1.325   1.257 -0.9406  0.9125 -0.4640
 4793TIP3    H214386   3.543   1.231   1.371  1.3155  0.5583 -0.0290
 4794TIP3   OH214387   4.631   0.507   1.461 -0.7036 -0.1442  0.1265
 4794TIP3    H114388   4.598   0.491   1.550 -2.1598 -0.7591 -0.4971
 4794TIP3    H214389   4.677   0.426   1.438 -1.4839 -0.5115 -0.1689
 4795TIP3   OH214390   3.930   2.741   3.856 -0.1685  0.2905  0.2386
 4795TIP3    H114391   4.020   2.731   3.826  0.8838  0.8794  2.8740
 4795TIP3    H214392   3.876   2.716   3.781  2.1673 -0.6927 -1.2224
 4796TIP3   OH214393   3.772   4.039   1.328 -0.6884 -0.1384  0.5688
 4796TIP3    H114394   3.864   4.016   1.316 -1.3724 -2.6707 -0.4566
 4796TIP3    H214395   3.764   4.127   1.289  1.1612 -0.1469  0.0961
 4797TIP3   OH214396   4.647   4.468   2.231 -0.4368 -0.1498  0.4666
 4797TIP3    H114397   4.594   4.409   2.178 -0.4308 -1.5229  1.9078
 4797TIP3    H214398   4.737   4.440   2.215 -0.4025 -0.2286  0.7913
 4798TIP3   OH214399   5.842   2.824   2.560  0.0303  0.1445 -0.2463
 4798TIP3    H114400   5.851   2.919   2.571 -0.4127  0.2436 -0.7198
 4798TIP3    H214401   5.892   2.805   2.480 -0.9842  0.1859 -0.9149
 4799TIP3   OH214402   1.318   2.710   2.724 -0.2663 -0.0927  0.1838
 4799TIP3    H114403   1.387   2.647   2.741 -0.6960 -0.5541  0.2461
 4799TIP3    H214404   1.320   2.722   2.629  2.4656  2.8704  0.4557
 4800TIP3   OH214405   1.256   2.975   4.041 -0.5232 -0.7709 -0.4082
 4800TIP3    H114406   1.330   2.985   4.100 -0.1801 -0.5197 -0.8799
 4800TIP3    H214407   1.192   2.924   4.091 -0.5220  0.0317  0.4352
 4801TIP3   OH214408   4.943   3.549   4.751  0.1402 -0.4298  0.2081
 4801TIP3    H114409   4.894   3.605   4.691  0.3145 -2.4000 -1.9384
 4801TIP3    H214410   5.035   3.562   4.727  0.2039 -1.3308 -0.0801
 4802TIP3   OH214411   4.024   3.064   0.750  0.6649  0.1571 -0.1618
 4802TIP3    H114412   3.971   3.107   0.682 -0.0718  0.4436  0.5754
 4802TIP3    H214413   4.104   3.036   0.704 -0.0922 -0.2363 -1.2852
 4803TIP3   OH214414   5.399   5.159   3.518 -0.0007  0.5389  0.2522
 4803TIP3    H114415   5.412   5.247   3.481  0.6136  0.3472  0.0007
 4803TIP3    H214416   5.410   5.171   3.613  2.8290  0.2903  0.0342
 4804TIP3   OH214417   2.304   2.925   1.713  0.2943  0.0895 -0.4781
 4804TIP3    H114418   2.326   2.991   1.647  0.3914  2.0173  1.4000
 4804TIP3    H214419   2.388   2.899   1.750  0.0835  2.9465  2.4447
 4805TIP3   OH214420   5.284   0.868   1.830  0.1869  0.1299  0.0384
 4805TIP3    H114421   5.200   0.914   1.828 -0.3662 -0.9013 -1.0240
 4805TIP3    H214422   5.344   0.926   1.783 -0.2455  0.2638 -0.3533
 4806TIP3   OH214423   2.782   1.736   1.274  0.4572 -0.0035 -0.1272
 4806TIP3    H114424   2.859   1.751   1.220  0.4015 -1.3447 -0.6159
 4806TIP3    H214425   2.767   1.642   1.269  0.5625 -0.2182  2.4143
 4807TIP3   OH214426   0.621   5.718   1.912  0.6951 -0.3010 -0.5617
 4807TIP3    H114427   0.676   5.750   1.983  1.0133 -2.6489  0.3067
 4807TIP3    H214428   0.615   5.624   1.925 -2.4886 -0.3418 -1.3620
 4808TIP3   OH214429   4.644   3.414   3.950  0.0660  0.1359 -0.3684
 4808TIP3    H114430   4.550   3.394   3.951 -0.2488  1.3884 -1.3668
 4808TIP3    H214431   4.657   3.471   4.026  0.4167 -1.5511  0.8715
 4809TIP3   OH214432   5.732   1.133   3.337  0.4000 -0.7941  0.0424
 4809TIP3    H114433   5.811   1.102   3.381  1.7244  0.3060 -1.4357
 4809TIP3    H214434   5.729   1.083   3.255 -1.1282 -1.6639  0.5810
 4810TIP3   OH214435   6.280   0.923   4.274  0.5429 -0.0139  0.4328
 4810TIP3    H114436   6.198   0.891   4.235  0.1006 -1.3371  2.3091
 4810TIP3    H214437   6.280   1.017   4.255 -1.0538 -0.1073 -0.2096
 4811TIP3   OH214438   3.412   1.190   2.565  0.0906  0.1990  0.1684
 4811TIP3    H114439   3.370   1.136   2.632 -2.0566  1.1228 -0.3519
 4811TIP3    H214440   3.339   1.235   2.521  1.1853 -1.4373 -3.7824
 4812TIP3   OH214441   5.545   0.193   0.227  0.2893 -0.4911 -0.3170
 4812TIP3    H114442   5.585   0.270   0.187 -1.3092 -0.1533 -1.3769
 4812TIP3    H214443   5.473   0.170   0.167 -0.4024 -1.6883  0.9273
 4813TIP3   OH214444   5.926   1.863   1.707  0.2467  0.5188 -0.6339
 4813TIP3    H114445   5.890   1.945   1.675 -1.5427 -0.6402 -1.7637
 4813TIP3    H214446   5.890   1.796   1.648  1.0180 -1.1595  0.7042
 4814TIP3   OH214447   0.496   3.608   4.724  0.1499 -0.3878 -0.0930
 4814TIP3    H114448   0.401   3.610   4.723  0.1426 -0.6322 -0.1720
 4814TIP3    H214449   0.523   3.695   4.751 -0.1258 -0.8175  1.6466
 4815TIP3   OH214450   5.635   1.375   1.054  0.2016  0.0741 -0.3427
 4815TIP3    H114451   5.613   1.363   1.147  0.2118 -1.6657 -0.5399
 4815TIP3    H214452   5.603   1.463   1.033 -0.7975  0.0667  1.0236
 4816TIP3   OH214453   2.935   4.347   4.672 -0.5616  0.2730  0.4834
 4816TIP3    H114454   3.024   4.315   4.683 -0.0827  1.3134 -0.1917
 4816TIP3    H214455   2.920   4.403   4.748 -0.5221  0.3409  0.4418
 4817TIP3   OH214456   4.479   5.174   0.697 -0.5739 -0.0170 -0.0935
 4817TIP3    H114457   4.512   5.201   0.783  0.3798 -0.5541 -0.2651
 4817TIP3    H214458   4.512   5.240   0.636  0.4036 -0.6513 -0.2910
 4818TIP3   OH214459   0.603   5.093   2.096  0.4412  0.7714 -0.5793
 4818TIP3    H114460   0.634   5.002   2.101  2.4076  1.4392  1.8026
 4818TIP3    H214461   0.558   5.107   2.180 -1.0779  1.6362 -1.4989
 4819TIP3   OH214462   1.437   3.565   1.904 -0.2572 -0.5905 -0.4855
 4819TIP3    H114463   1.510   3.583   1.963 -0.6183  1.8529 -0.6981
 4819TIP3    H214464   1.451   3.622   1.829 -1.5605 -1.2276 -1.2554
 4820TIP3   OH214465   1.520   1.379   1.697  0.0831  0.5036  0.3604
 4820TIP3    H114466   1.470   1.314   1.748  1.0739 -0.7611 -0.2149
 4820TIP3    H214467   1.529   1.454   1.756 -0.1312 -0.3261  1.4883
 4821TIP3   OH214468   2.314   4.144   2.992  0.4494  0.1239 -0.2539
 4821TIP3    H114469   2.368   4.195   2.932 -2.7476  2.2082 -1.6510
 4821TIP3    H214470   2.260   4.209   3.037 -0.7555 -1.7560  1.1813
 4822TIP3   OH214471   2.238   5.384   4.607 -0.0195 -0.3962  0.1996
 4822TIP3    H114472   2.144   5.384   4.589 -0.1012  0.3550  0.5623
 4822TIP3    H214473   2.279   5.408   4.524 -0.2807  1.2194  0.5021
 4823TIP3   OH214474   4.958   4.378   3.397  0.2104 -0.1357  0.2445
 4823TIP3    H114475   4.932   4.319   3.327  0.4077  0.7817 -0.6382
 4823TIP3    H214476   4.893   4.449   3.394 -0.1621 -0.4068  1.4278
 4824TIP3   OH214477   6.166   1.602   0.709  0.1863  0.4884  0.2080
 4824TIP3    H114478   6.109   1.536   0.670  0.0563  1.1289 -0.7435
 4824TIP3    H214479   6.197   1.653   0.634  1.5280  0.5248  0.7727
 4825TIP3   OH214480   3.669   5.136   4.957  0.5591 -0.0843 -0.6039
 4825TIP3    H114481   3.577   5.158   4.973  0.3994 -1.3757  0.4190
 4825TIP3    H214482   3.710   5.220   4.935 -0.7170  0.6201 -0.4123
 4826TIP3   OH214483   4.109   3.730   3.608 -0.6455  0.0073  0.2010
 4826TIP3    H114484   4.186   3.708   3.660  0.4763  0.2725 -1.2989
 4826TIP3    H214485   4.051   3.654   3.618 -0.3282 -0.0899  1.5420
 4827TIP3   OH214486   4.233   4.387   0.214  0.1585 -0.0404 -0.3605
 4827TIP3    H114487   4.144   4.411   0.238  0.2247 -0.4267  0.2878
 4827TIP3    H214488   4.283   4.469   0.220 -0.1953  0.2231 -0.9617
 4828TIP3   OH214489   5.608   2.238   0.924  0.1953  0.3542  0.6117
 4828TIP3    H114490   5.681   2.293   0.951  1.5708 -1.5452  1.0217
 4828TIP3    H214491   5.531   2.278   0.964  1.0755  2.0773  0.6756
 4829TIP3   OH214492   2.430   1.705   2.658  0.1047 -0.0756 -0.1163
 4829TIP3    H114493   2.408   1.681   2.568 -1.7832  1.2320 -0.0622
 4829TIP3    H214494   2.523   1.685   2.666 -0.1350 -2.1722 -1.6871
 4830TIP3   OH214495   0.581   4.597   4.360  0.3825 -0.1878  0.0285
 4830TIP3    H114496   0.606   4.663   4.296  1.1915  0.0279  0.5500
 4830TIP3    H214497   0.488   4.579   4.342  0.5202  0.0710 -1.0067
 4831TIP3   OH214498   1.217   0.916   4.874  0.0043 -0.5485 -0.3547
 4831TIP3    H114499   1.234   1.007   4.852 -0.2132 -0.5115 -0.3739
 4831TIP3    H214500   1.129   0.917   4.913  0.3976 -0.6002  0.5630
 4832TIP3   OH214501   4.122   2.361   2.855  1.0205 -0.3124  0.3219
 4832TIP3    H114502   4.109   2.412   2.935  1.0349 -0.1297  0.2082
 4832TIP3    H214503   4.071   2.281   2.869  1.3078 -0.4370  0.6576
 4833TIP3   OH214504   6.112   3.664   1.931  0.7871  0.4215  0.4734
 4833TIP3    H114505   6.189   3.718   1.914  0.4896  0.4278 -1.0609
 4833TIP3    H214506   6.046   3.725   1.962  1.1822  0.5266  1.1265
 4834TIP3   OH214507   3.291   3.931   1.547  0.5276 -0.5292  0.0038
 4834TIP3    H114508   3.203   3.940   1.585 -0.9301  1.5542 -3.3761
 4834TIP3    H214509   3.343   3.999   1.591 -0.9113  1.3953 -1.1174
 4835TIP3   OH214510   2.644   4.041   3.594  0.0950 -0.0185 -0.0756
 4835TIP3    H114511   2.617   4.079   3.678 -0.2468  2.1115 -1.0745
 4835TIP3    H214512   2.710   4.102   3.560  1.2714 -1.5906 -0.7499
 4836TIP3   OH214513   2.562   1.910   3.996 -0.0342 -0.0112 -0.6034
 4836TIP3    H114514   2.524   1.842   3.941  0.9945 -1.8336  0.8214
 4836TIP3    H214515   2.495   1.926   4.063  0.0571 -0.2448 -0.4544
 4837TIP3   OH214516   3.156   4.758   2.677  0.5641 -0.6779  0.2236
 4837TIP3    H114517   3.132   4.797   2.761  0.4849 -0.7494  0.2345
 4837TIP3    H214518   3.242   4.795   2.657 -0.7494  1.8757 -1.2149
 4838TIP3   OH214519   5.594   2.474   0.741  0.4077  0.0073 -0.1215
 4838TIP3    H114520   5.688   2.491   0.735  0.8354 -1.7950  0.5919
 4838TIP3    H214521   5.584   2.424   0.822 -1.5848  2.4524  1.2634
 4839TIP3   OH214522   4.797   5.265   2.048  0.5156  0.2741  0.1744
 4839TIP3    H114523   4.865   5.280   1.982  1.2226  0.6256  0.9685
 4839TIP3    H214524   4.736   5.204   2.006  1.2070  0.1142 -0.6269
 4840TIP3   OH214525   4.071   5.079   0.959  0.1180 -0.6021 -0.5142
 4840TIP3    H114526   4.022   5.034   1.028  0.9045 -1.7171 -0.6492
 4840TIP3    H214527   4.123   5.010   0.918 -0.2751  0.0284 -2.1846
 4841TIP3   OH214528   1.312   3.962   2.458  0.1112  0.1436 -0.2411
 4841TIP3    H114529   1.218   3.977   2.445 -0.1245  1.2969  2.1977
 4841TIP3    H214530   1.354   4.034   2.411 -0.1247 -0.7763 -1.9499
 4842TIP3   OH214531   0.656   2.768   4.780  0.3351  0.3125 -0.2218
 4842TIP3    H114532   0.720   2.776   4.850  0.8357 -0.5098 -0.5624
 4842TIP3    H214533   0.700   2.714   4.714  0.0356  1.4035 -1.3567
 4843TIP3   OH214534   5.320   4.528   2.766  0.1191  0.2193  0.5341
 4843TIP3    H114535   5.342   4.540   2.858  1.4441 -1.1673  0.4431
 4843TIP3    H214536   5.261   4.601   2.745  1.4574  1.7839  1.9110
 4844TIP3   OH214537   1.370   0.235   2.520  0.3053 -0.6768  0.2996
 4844TIP3    H114538   1.276   0.219   2.531  0.4103 -0.9992  0.7490
 4844TIP3    H214539   1.408   0.149   2.508  0.4644 -0.4947 -0.5823
 4845TIP3   OH214540   1.037   3.556   5.024 -0.3956  0.1857  0.1825
 4845TIP3    H114541   0.973   3.608   4.976  1.4147  1.4610 -0.9732
 4845TIP3    H214542   1.033   3.589   5.113  0.8220  2.5188 -0.5564
 4846TIP3   OH214543   1.930   3.286   0.359 -0.0588 -0.0546  0.1192
 4846TIP3    H114544   2.026   3.278   0.355  0.1962  1.9708  0.8272
 4846TIP3    H214545   1.916   3.372   0.399 -2.1890 -0.2450 -0.1565
 4847TIP3   OH214546   1.862   3.869   2.770 -0.8104  0.5380 -0.0773
 4847TIP3    H114547   1.913   3.940   2.808  0.6015  0.6940 -2.0890
 4847TIP3    H214548   1.792   3.853   2.833  1.1022  1.0314  2.2992
 4848TIP3   OH214549   2.133   2.762   2.768 -0.0683 -0.2509 -0.2589
 4848TIP3    H114550   2.104   2.701   2.836 -1.4285  1.3214  0.6518
 4848TIP3    H214551   2.057   2.773   2.711  0.0953  0.6880 -0.3189
 4849TIP3   OH214552   5.134   3.086   2.797 -0.1461 -0.1747 -0.2244
 4849TIP3    H114553   5.083   3.167   2.791  0.5323  0.4316  1.5605
 4849TIP3    H214554   5.086   3.033   2.861  0.7011 -0.1657  0.4356
 4850TIP3   OH214555   2.373   2.066   2.063 -0.1092 -0.2599  0.2944
 4850TIP3    H114556   2.328   1.986   2.036 -1.6408  0.0933  1.6464
 4850TIP3    H214557   2.328   2.093   2.143  1.1466  1.3162  0.5195
 4851TIP3   OH214558   5.190   3.284   3.956  0.0814 -0.2161 -0.0304
 4851TIP3    H114559   5.225   3.307   3.870 -2.8986  0.8144 -1.0990
 4851TIP3    H214560   5.141   3.203   3.941 -1.5176  0.6356  0.3224
 4852TIP3   OH214561   4.208   3.558   4.516  0.0239 -0.0511 -0.1639
 4852TIP3    H114562   4.144   3.556   4.445 -0.0482  1.9594 -0.2051
 4852TIP3    H214563   4.161   3.524   4.592 -0.8577  0.6520 -0.3840
 4853TIP3   OH214564   3.574   2.345   3.004 -0.1313  0.0489 -0.3362
 4853TIP3    H114565   3.580   2.250   3.010 -1.3539 -0.0211  0.0418
 4853TIP3    H214566   3.658   2.372   2.966  0.1379 -1.1864 -0.6657
 4854TIP3   OH214567   3.395   5.918   3.980 -0.5084 -0.4881  0.3678
 4854TIP3    H114568   3.402   5.853   4.050 -0.5101 -0.8463  0.0386
 4854TIP3    H214569   3.467   5.979   3.996 -1.0764 -0.0079  1.2450
 4855TIP3   OH214570   0.745   1.801   3.603 -0.0705 -0.2762 -0.2492
 4855TIP3    H114571   0.741   1.853   3.683 -1.0322 -1.0243  0.2181
 4855TIP3    H214572   0.829   1.755   3.608 -0.0073 -0.1158  0.2003
 4856TIP3   OH214573   0.394   4.260   1.622  0.4661  0.0841  0.4372
 4856TIP3    H114574   0.477   4.219   1.597 -0.5956 -0.9248 -1.7147
 4856TIP3    H214575   0.340   4.253   1.543 -1.3018  1.6904  1.4426
 4857TIP3   OH214576   1.241   0.925  -0.002 -0.0211 -0.5003 -0.0013
 4857TIP3    H114577   1.327   0.891  -0.024  0.0415 -0.6372  0.4482
 4857TIP3    H214578   1.258   0.993   0.063  0.1185  2.2732 -2.7033
 4858TIP3   OH214579   0.319   0.689   2.208  0.1053  0.0267  0.0810
 4858TIP3    H114580   0.244   0.644   2.246  0.7766 -0.3708  0.9412
 4858TIP3    H214581   0.378   0.620   2.179  0.2015  0.3384 -0.4970
 4859TIP3   OH214582   0.920   4.076   1.456  0.3631 -0.1336  0.0706
 4859TIP3    H114583   0.989   4.116   1.509 -0.8485  2.0761  0.1339
 4859TIP3    H214584   0.965   4.014   1.399  1.9618 -1.1168  2.2675
 4860TIP3   OH214585   1.401   5.579   0.716 -0.1557  0.1241  0.5326
 4860TIP3    H114586   1.324   5.623   0.751  2.4632  3.5416  2.6462
 4860TIP3    H214587   1.417   5.622   0.632 -1.5509 -2.0051 -0.9087
 4861TIP3   OH214588   0.507   3.262   4.552 -0.1526 -0.2672 -0.1958
 4861TIP3    H114589   0.587   3.211   4.540  1.9720  1.8304  3.4277
 4861TIP3    H214590   0.462   3.219   4.625 -2.5583 -1.4439 -2.2047
 4862TIP3   OH214591   6.145   1.035   0.137 -0.1560  0.1770 -0.1294
 4862TIP3    H114592   6.100   1.102   0.190 -0.4609 -0.0235 -0.1363
 4862TIP3    H214593   6.075   0.980   0.103  0.1658 -0.9756  0.9841
 4863TIP3   OH214594   3.164   2.378   3.097  0.1347  0.2802 -0.1445
 4863TIP3    H114595   3.075   2.411   3.085  0.7816  1.7331 -1.3555
 4863TIP3    H214596   3.165   2.293   3.053 -0.4693  0.5918 -0.7785
 4864TIP3   OH214597   2.785   5.746   0.693  0.8930  0.3982  0.2812
 4864TIP3    H114598   2.767   5.784   0.607 -2.6287  1.0714  1.1400
 4864TIP3    H214599   2.747   5.658   0.689 -0.7233  0.9787  1.5047
 4865TIP3   OH214600   1.459   5.480   4.792 -1.0538  0.2064 -0.3493
 4865TIP3    H114601   1.437   5.391   4.767  0.1437  0.0391 -0.8567
 4865TIP3    H214602   1.445   5.532   4.713  1.0505 -0.0415 -0.9548
 4866TIP3   OH214603   1.096   5.749   0.119  0.1569 -0.1384  0.2811
 4866TIP3    H114604   1.086   5.760   0.213  2.2701  3.2107  0.2635
 4866TIP3    H214605   1.170   5.689   0.109  0.5696  0.2711  0.8058
 4867TIP3   OH214606   4.352   0.952   3.113  0.6533 -0.3802  0.5413
 4867TIP3    H114607   4.393   0.949   3.027  1.5846  1.3541  0.8596
 4867TIP3    H214608   4.366   0.865   3.150  2.6961 -0.3257  0.0042
 4868TIP3   OH214609   2.055   0.508   3.140  0.0662 -0.1748  0.5077
 4868TIP3    H114610   2.130   0.526   3.084 -0.0307  0.3904  0.5504
 4868TIP3    H214611   2.044   0.588   3.192 -1.1437  0.1304 -0.1810
 4869TIP3   OH214612   3.531   3.635   1.992 -0.3047  0.2561 -0.1411
 4869TIP3    H114613   3.552   3.555   1.944  0.8679  1.2369 -1.3387
 4869TIP3    H214614   3.613   3.661   2.034 -0.2595  1.5901 -0.9772
 4870TIP3   OH214615   4.813   3.033   4.945 -0.1039  0.1652 -0.0639
 4870TIP3    H114616   4.850   2.956   4.903 -1.1045  0.5024 -1.6744
 4870TIP3    H214617   4.815   3.101   4.877 -2.2877  0.5797  0.1973
 4871TIP3   OH214618   1.428   0.396   1.931  0.0079  0.2963 -0.2982
 4871TIP3    H114619   1.483   0.452   1.986  0.1253  0.9517 -1.0725
 4871TIP3    H214620   1.394   0.330   1.991 -0.3985  1.3836  0.7018
 4872TIP3   OH214621   1.322   5.480   4.253  0.3609  0.2488 -0.0911
 4872TIP3    H114622   1.352   5.545   4.190 -0.3720 -1.0300 -1.8489
 4872TIP3    H214623   1.398   5.426   4.271  0.3107 -0.0488 -0.7574
 4873TIP3   OH214624   5.977   0.904   3.249  0.5442 -0.2279 -0.0453
 4873TIP3    H114625   6.050   0.966   3.249  0.1443  0.3480  2.0105
 4873TIP3    H214626   5.935   0.917   3.335 -1.3038 -1.3171 -0.7143
 4874TIP3   OH214627   6.314   0.815   3.093  0.0583 -0.5970  0.2233
 4874TIP3    H114628   6.252   0.750   3.125 -0.0356  0.0293  1.3619
 4874TIP3    H214629   6.382   0.764   3.048 -1.3187 -1.2834 -1.1748
 4875TIP3   OH214630   1.823   3.876   3.646  0.1952 -0.4008 -0.2942
 4875TIP3    H114631   1.814   3.969   3.626 -3.0172 -0.6187 -0.4539
 4875TIP3    H214632   1.879   3.873   3.723  1.2637  1.5461 -0.9229
 4876TIP3   OH214633   6.212   1.558   4.906 -0.6190  0.3027 -0.0227
 4876TIP3    H114634   6.209   1.639   4.957  0.0918 -0.9661  2.1911
 4876TIP3    H214635   6.126   1.552   4.865 -1.1265  1.5553  0.8082
 4877TIP3   OH214636   5.701   4.359   3.894 -0.1765 -0.6939  0.4030
 4877TIP3    H114637   5.635   4.308   3.942 -2.0029  2.1091  1.1115
 4877TIP3    H214638   5.783   4.342   3.941 -0.9112 -2.0556  1.2679
 4878TIP3   OH214639   5.637   0.519   2.964 -0.2688  0.5007 -0.3020
 4878TIP3    H114640   5.602   0.539   3.051  2.7472  0.0955  1.1677
 4878TIP3    H214641   5.590   0.440   2.937  0.3607 -0.8495  2.1653
 4879TIP3   OH214642   1.269   3.976   3.958 -0.3142  0.3343  0.6386
 4879TIP3    H114643   1.258   4.042   4.026  0.4012  1.5881 -0.4186
 4879TIP3    H214644   1.258   4.024   3.876  0.4264 -0.8221 -0.1616
 4880TIP3   OH214645   1.774   3.263   2.752  0.4066  0.4540 -0.1021
 4880TIP3    H114646   1.768   3.357   2.736  1.9529  0.8730  1.4137
 4880TIP3    H214647   1.852   3.236   2.703  0.5244  0.1769  0.2344
 4881TIP3   OH214648   0.554   2.035   1.353 -0.0767 -0.3267  0.0400
 4881TIP3    H114649   0.593   1.948   1.351 -0.2852 -0.4430  0.7670
 4881TIP3    H214650   0.483   2.032   1.289 -0.6742 -0.9784  0.7195
 4882TIP3   OH214651   3.777   0.184   0.048  0.7632  0.3659  0.1798
 4882TIP3    H114652   3.723   0.221   0.118  0.6156 -0.3100  0.4346
 4882TIP3    H214653   3.732   0.103   0.024 -0.5631  1.7615 -2.4226
 4883TIP3   OH214654   5.990   0.691   3.853 -0.4403 -0.1968 -0.2342
 4883TIP3    H114655   5.942   0.609   3.860  2.2182 -1.8127  0.1030
 4883TIP3    H214656   6.034   0.686   3.768  1.0576  0.0916  0.5001
 4884TIP3   OH214657   2.267   3.705   1.565  0.3574 -0.1049 -0.3798
 4884TIP3    H114658   2.324   3.675   1.494 -1.7341 -1.9388 -1.4035
 4884TIP3    H214659   2.227   3.786   1.532 -0.9804 -1.2036 -1.6038
 4885TIP3   OH214660   3.815   3.751   3.524  0.0805  0.2237 -0.6067
 4885TIP3    H114661   3.772   3.831   3.494 -0.1599  0.2740 -0.1360
 4885TIP3    H214662   3.908   3.765   3.504  0.0262  0.5778 -0.6195
 4886TIP3   OH214663   5.897   1.738   4.919  0.2259 -0.2842  0.2141
 4886TIP3    H114664   5.816   1.707   4.960  0.9062  0.4376  2.2094
 4886TIP3    H214665   5.967   1.690   4.964  1.1843  2.4952  1.9776
 4887TIP3   OH214666   1.176   0.569   1.101  0.0324 -0.0832  0.1129
 4887TIP3    H114667   1.188   0.647   1.048  0.9287 -0.9646 -1.0085
 4887TIP3    H214668   1.262   0.526   1.103 -0.3886 -0.9482  0.8619
 4888TIP3   OH214669   5.592   1.697   3.639 -0.3231 -0.4812  0.0783
 4888TIP3    H114670   5.505   1.659   3.628 -0.8600  0.8038 -0.2365
 4888TIP3    H214671   5.623   1.663   3.723 -1.2533 -0.6833  0.3457
 4889TIP3   OH214672   6.035   4.344   0.097  0.0212 -0.0388 -0.6842
 4889TIP3    H114673   6.054   4.324   0.189  0.4298 -0.9917 -0.9505
 4889TIP3    H214674   6.101   4.293   0.049 -0.4367  0.1415 -1.5104
 4890TIP3   OH214675   2.964   5.181   3.603  0.0821 -0.2668 -0.2755
 4890TIP3    H114676   3.042   5.237   3.604  0.1434 -0.3262  1.6899
 4890TIP3    H214677   2.930   5.189   3.514  2.0776  0.1133 -1.0572
 4891TIP3   OH214678   2.156   5.097   4.710  0.3784  0.6435  0.0246
 4891TIP3    H114679   2.154   5.112   4.805  1.2668  2.1505 -0.1594
 4891TIP3    H214680   2.106   5.170   4.673 -1.8274 -1.0893 -0.6076
 4892TIP3   OH214681   0.398   1.451   0.348  0.4602  0.4625 -0.8574
 4892TIP3    H114682   0.343   1.387   0.303  0.8673  0.1128 -0.8630
 4892TIP3    H214683   0.485   1.412   0.348  1.1649  1.8559 -2.6182
 4893TIP3   OH214684   5.418   0.922   2.083  0.9335 -0.2911 -0.3571
 4893TIP3    H114685   5.361   0.902   2.157  0.0617  2.5899 -0.1196
 4893TIP3    H214686   5.369   0.894   2.006 -0.8380  1.8734 -0.1341
 4894TIP3   OH214687   4.750   2.520   4.056 -0.1508  0.3950 -0.0640
 4894TIP3    H114688   4.707   2.556   3.978 -0.7473  1.7664  0.8557
 4894TIP3    H214689   4.690   2.452   4.088 -0.0831  0.0891 -0.5802
 4895TIP3   OH214690   4.889   4.529   2.890  0.0946 -0.1377  0.2166
 4895TIP3    H114691   4.941   4.586   2.834  0.1127  0.5365  0.8944
 4895TIP3    H214692   4.952   4.464   2.923 -0.0627 -0.9678 -1.0787
 4896TIP3   OH214693   1.426   5.766   4.207  0.2853 -0.0156 -0.2628
 4896TIP3    H114694   1.379   5.841   4.246 -0.8556 -1.5205  1.4264
 4896TIP3    H214695   1.492   5.743   4.272  1.4775  0.2492 -1.3389
 4897TIP3   OH214696   2.585   4.438   2.912 -1.1600 -0.3457 -0.7341
 4897TIP3    H114697   2.644   4.486   2.970 -1.5829 -0.0060 -0.5798
 4897TIP3    H214698   2.623   4.350   2.906 -0.7371 -0.1816 -0.4968
 4898TIP3   OH214699   1.278   3.459   3.804 -0.1918  0.1273 -0.4262
 4898TIP3    H114700   1.281   3.492   3.894 -0.5838 -2.9346  0.8442
 4898TIP3    H214701   1.186   3.463   3.780 -0.5969 -1.9950  0.6005
 4899TIP3   OH214702   4.756   4.213   4.515  0.5551 -0.4443  0.0916
 4899TIP3    H114703   4.788   4.143   4.459 -1.9730 -1.5809 -0.0410
 4899TIP3    H214704   4.835   4.249   4.556  2.3644 -0.4038 -3.1417
 4900TIP3   OH214705   4.419   0.424   2.067 -0.6439  0.0525 -0.6684
 4900TIP3    H114706   4.488   0.472   2.019 -0.6673  0.9069  0.1186
 4900TIP3    H214707   4.447   0.333   2.064 -0.5261  0.1094 -2.1022
 4901TIP3   OH214708   4.234   3.769   1.796  0.1998  0.5370  0.1416
 4901TIP3    H114709   4.180   3.776   1.874 -1.1220  0.6652 -0.7466
 4901TIP3    H214710   4.237   3.676   1.776  0.9740  0.4545  0.6364
 4902TIP3   OH214711   0.418   5.724   1.373  0.1036  0.3546 -0.1134
 4902TIP3    H114712   0.380   5.647   1.416  0.3705  0.6361  0.6465
 4902TIP3    H214713   0.414   5.793   1.440  1.8450  0.4210 -0.0291
 4903TIP3   OH214714   1.390   0.089   3.340  0.3068  0.3739 -0.4330
 4903TIP3    H114715   1.449   0.104   3.265  0.9848 -0.9928 -0.2035
 4903TIP3    H214716   1.448   0.095   3.416 -0.0917  0.2678 -0.1241
 4904TIP3   OH214717   1.000   1.999   0.028 -1.0514 -0.1412  0.0176
 4904TIP3    H114718   1.080   2.021  -0.021 -0.5639 -1.1355  0.3453
 4904TIP3    H214719   0.963   2.084   0.051 -0.0401  0.3477 -0.0658
 4905TIP3   OH214720   3.445   3.229   1.472 -0.1014 -0.5357  0.6029
 4905TIP3    H114721   3.440   3.298   1.538  3.7883  1.2433 -0.6973
 4905TIP3    H214722   3.433   3.273   1.388  1.0131 -1.6377 -0.1856
 4906TIP3   OH214723   5.126   2.523   4.381 -0.2267 -0.1766  1.4236
 4906TIP3    H114724   5.081   2.574   4.314 -0.2714 -0.9624  0.8412
 4906TIP3    H214725   5.192   2.583   4.416  0.8565 -0.2194 -0.4134
 4907TIP3   OH214726   5.909   1.970   4.801 -0.2804  0.8176  0.0864
 4907TIP3    H114727   5.907   1.878   4.827  2.2136  1.1238  1.8085
 4907TIP3    H214728   6.003   1.990   4.793 -0.7362  2.2654 -4.1318
 4908TIP3   OH214729   0.420   1.717   3.060  0.2109 -0.4628  0.1167
 4908TIP3    H114730   0.453   1.795   3.014  0.7314 -1.3513 -1.0747
 4908TIP3    H214731   0.495   1.657   3.061 -0.1792 -0.9505  1.0346
 4909TIP3   OH214732   0.299   2.525   3.890  0.4928  0.8012 -0.6479
 4909TIP3    H114733   0.311   2.433   3.913  0.5084  1.0464  0.3741
 4909TIP3    H214734   0.233   2.557   3.951 -1.4748  0.8429 -2.6944
 4910TIP3   OH214735   6.136   1.677   2.746 -0.4598  0.5422  0.0313
 4910TIP3    H114736   6.063   1.693   2.687 -0.5743  1.2562  0.3586
 4910TIP3    H214737   6.112   1.720   2.828  0.1193  0.3840  0.2966
 4911TIP3   OH214738   0.400   2.064   2.352  0.5776  0.1906 -0.6584
 4911TIP3    H114739   0.305   2.065   2.359  0.5713  0.7350 -0.8085
 4911TIP3    H214740   0.417   2.027   2.265  0.5295 -0.7924 -0.2605
 4912TIP3   OH214741   2.186   3.040   2.829  0.4008 -0.1516  0.0703
 4912TIP3    H114742   2.198   2.945   2.826  0.1934 -0.1563 -0.7748
 4912TIP3    H214743   2.237   3.068   2.905 -0.8700 -1.1366  1.3378
 4913TIP3   OH214744   2.410   4.391   4.531 -0.6962  0.3257 -0.0687
 4913TIP3    H114745   2.374   4.307   4.559 -1.0205  0.3369 -0.4487
 4913TIP3    H214746   2.497   4.370   4.496 -0.6288  0.2006  0.1753
 4914TIP3   OH214747   2.714   3.843   0.592  0.3160  0.3969  0.1482
 4914TIP3    H114748   2.790   3.883   0.549  0.1894  0.6973  0.2029
 4914TIP3    H214749   2.753   3.780   0.654  0.4863 -0.5797 -0.9060
 4915TIP3   OH214750   5.520   5.090   4.268  0.0924 -0.9672  0.4362
 4915TIP3    H114751   5.447   5.125   4.217  0.4413  0.2343  0.7268
 4915TIP3    H214752   5.559   5.167   4.309  0.6674 -1.7591  1.4073
 4916TIP3   OH214753   2.925   2.849   2.430  0.5209 -0.1564 -0.1066
 4916TIP3    H114754   2.910   2.841   2.336 -0.3520 -2.1829  0.1680
 4916TIP3    H214755   2.983   2.776   2.452  1.3842  0.7707  0.8199
 4917TIP3   OH214756   3.495   1.769   3.789 -0.1192 -0.2088  0.2271
 4917TIP3    H114757   3.407   1.774   3.827 -0.6835 -1.0578 -0.8990
 4917TIP3    H214758   3.521   1.678   3.803  0.6708  0.0807  0.7097
 4918TIP3   OH214759   0.560   5.705   3.931  0.2692  0.8642 -1.2267
 4918TIP3    H114760   0.471   5.739   3.927 -0.0350  0.2799  0.0025
 4918TIP3    H214761   0.614   5.781   3.954 -0.2475  0.7895  0.3545
 4919TIP3   OH214762   4.391   4.047   4.162  0.3417 -0.8037 -0.3300
 4919TIP3    H114763   4.451   4.049   4.237  0.7243  0.5816 -0.6520
 4919TIP3    H214764   4.303   4.047   4.201  0.4740 -3.5599  0.1628
 4920TIP3   OH214765   5.949   4.971   4.228  0.2045 -0.5000 -0.2805
 4920TIP3    H114766   5.928   5.052   4.183 -0.4871  0.0210  0.9200
 4920TIP3    H214767   5.883   4.908   4.198 -1.7006  0.4562  1.6176
 4921TIP3   OH214768   5.863   2.697   3.858  0.1013  0.7135 -0.3089
 4921TIP3    H114769   5.808   2.715   3.782 -1.2302 -1.5714  0.0352
 4921TIP3    H214770   5.923   2.628   3.829 -0.4546 -0.2163  0.6998
 4922TIP3   OH214771   5.990   4.218   0.863  0.1415  0.1473  0.5776
 4922TIP3    H114772   5.911   4.273   0.866  0.0151 -0.0803  1.4646
 4922TIP3    H214773   6.040   4.253   0.789 -0.8866  0.1613 -0.1313
 4923TIP3   OH214774   3.429   1.738   0.680  0.3530  0.7983  0.0757
 4923TIP3    H114775   3.376   1.817   0.687  1.9258  2.0849 -1.5616
 4923TIP3    H214776   3.403   1.699   0.596 -1.7179 -1.5169  1.6753
 4924TIP3   OH214777   0.583   4.150   4.459 -0.3873  0.0794  0.0584
 4924TIP3    H114778   0.516   4.099   4.413  0.0654 -1.4842  1.0239
 4924TIP3    H214779   0.651   4.164   4.394 -0.7715 -0.0899 -0.3847
 4925TIP3   OH214780   5.116   4.274   0.587  0.6364 -0.3525 -0.0632
 4925TIP3    H114781   5.037   4.221   0.593  1.2880 -1.2029  1.8081
 4925TIP3    H214782   5.148   4.280   0.677  2.6049  0.0994 -0.7351
 4926TIP3   OH214783   5.893   1.011   1.503 -0.3463  0.2160  0.0705
 4926TIP3    H114784   5.857   1.000   1.415 -1.7096 -0.1593  0.6370
 4926TIP3    H214785   5.986   0.994   1.494 -0.4031  0.5989 -1.3686
 4927TIP3   OH214786   5.158   4.162   3.656  0.6080 -0.3031 -0.4066
 4927TIP3    H114787   5.218   4.114   3.713 -1.9281 -0.8566  1.9930
 4927TIP3    H214788   5.107   4.094   3.613 -0.6966  0.1605  0.3700
 4928TIP3   OH214789   3.874   3.427   2.581 -0.2014 -0.3297 -0.2369
 4928TIP3    H114790   3.780   3.409   2.587 -0.1785 -0.2132  0.6584
 4928TIP3    H214791   3.914   3.363   2.641 -0.0655  2.2848  2.6892
 4929TIP3   OH214792   4.788   4.560   1.042 -0.2946  0.1239  0.1404
 4929TIP3    H114793   4.832   4.523   0.966  1.5258 -0.6334  1.4709
 4929TIP3    H214794   4.841   4.635   1.067 -1.2651  0.7854  0.2631
 4930TIP3   OH214795   1.343   5.091   1.461  0.0510 -0.2757 -0.1833
 4930TIP3    H114796   1.288   5.162   1.427  0.3031  0.1360  0.2596
 4930TIP3    H214797   1.333   5.096   1.556  0.6988 -0.3245 -0.1083
 4931TIP3   OH214798   5.885   3.785   3.251 -0.8871  0.2764  0.1348
 4931TIP3    H114799   5.809   3.806   3.197 -1.3787 -2.1993 -0.2502
 4931TIP3    H214800   5.866   3.826   3.335 -0.8600  2.8337 -1.0208
 4932TIP3   OH214801   3.229   0.290   1.059  0.6825 -0.1816  0.1512
 4932TIP3    H114802   3.214   0.378   1.094  0.6906 -0.1571  0.0925
 4932TIP3    H214803   3.323   0.288   1.040  1.4429 -1.3485  3.3866
 4933TIP3   OH214804   3.872   0.389   3.375  0.6745 -0.1814 -0.0715
 4933TIP3    H114805   3.925   0.468   3.373  2.7250 -1.5109 -1.4184
 4933TIP3    H214806   3.819   0.394   3.295  0.5020  0.0118  0.0531
 4934TIP3   OH214807   5.708   1.485   1.664  0.2886  0.0952  0.1663
 4934TIP3    H114808   5.751   1.411   1.621  1.2407  1.7542 -1.9235
 4934TIP3    H214809   5.747   1.562   1.623 -1.6953  1.7423  1.2170
 4935TIP3   OH214810   3.671   5.018   2.964 -0.6099 -0.6006  0.4953
 4935TIP3    H114811   3.726   4.960   2.912 -0.5424 -0.9938  0.9970
 4935TIP3    H214812   3.715   5.024   3.048 -0.2465  0.7522  0.2319
 4936TIP3   OH214813   3.751   1.076   1.207 -0.2122 -0.2231 -0.2819
 4936TIP3    H114814   3.744   1.030   1.291 -0.1459 -0.0357 -0.1746
 4936TIP3    H214815   3.718   1.013   1.143  1.0167 -0.8978 -0.2892
 4937TIP3   OH214816   5.592   2.407   1.324 -0.0836  0.0537 -0.0865
 4937TIP3    H114817   5.646   2.329   1.321 -1.0273 -0.6418  0.4408
 4937TIP3    H214818   5.542   2.404   1.242  1.4764  1.3224 -1.1417
 4938TIP3   OH214819   0.054   4.437   2.200  0.7649  0.6070  0.1215
 4938TIP3    H114820   0.071   4.421   2.107 -2.2985 -1.3207 -0.2532
 4938TIP3    H214821   0.068   4.531   2.211  2.6347  0.6431 -1.8791
 4939TIP3   OH214822   3.003   1.173   2.354 -0.3982 -0.5564  0.3536
 4939TIP3    H114823   2.914   1.204   2.372 -1.1224 -0.7964 -2.3452
 4939TIP3    H214824   2.996   1.078   2.353  0.0741 -0.6016  0.8566
 4940TIP3   OH214825   1.657   0.696   0.879 -0.4773 -1.0959  0.6791
 4940TIP3    H114826   1.619   0.784   0.884  0.3997 -0.7712  1.9376
 4940TIP3    H214827   1.686   0.678   0.968  0.0894 -2.3408  0.2512
 4941TIP3   OH214828   3.470   0.480   4.668 -0.4747  0.0695  0.5429
 4941TIP3    H114829   3.546   0.430   4.699 -0.5838  0.5094  1.5775
 4941TIP3    H214830   3.439   0.526   4.746 -1.7754 -0.0599  0.1171
 4942TIP3   OH214831   2.165   0.019   1.042 -0.2153  0.3943 -0.3301
 4942TIP3    H114832   2.129   0.085   0.981  1.5879  1.1072 -0.6824
 4942TIP3    H214833   2.259   0.037   1.044  0.0946 -1.1592  0.8457
 4943TIP3   OH214834   1.701   2.197   2.673 -0.1975  0.4563  0.1455
 4943TIP3    H114835   1.785   2.194   2.627 -0.5910  0.9492 -0.6134
 4943TIP3    H214836   1.685   2.291   2.687  0.2562  0.3131  1.9476
 4944TIP3   OH214837   1.054   0.409   0.633  0.2444  0.0633  0.6848
 4944TIP3    H114838   1.087   0.376   0.717 -1.2836  1.1519  1.7495
 4944TIP3    H214839   1.037   0.329   0.582  2.7964 -0.5873  0.7003
 4945TIP3   OH214840   3.981   2.131   2.909 -0.2240  0.1307 -0.0800
 4945TIP3    H114841   3.920   2.123   2.836  0.0902  0.2656 -0.3585
 4945TIP3    H214842   4.018   2.044   2.920  1.2444  0.5501 -1.4097
 4946TIP3   OH214843   5.732   1.153   4.184  0.3432 -0.3874  0.4530
 4946TIP3    H114844   5.701   1.065   4.162 -0.1558  0.3029 -1.9462
 4946TIP3    H214845   5.791   1.140   4.258 -0.6134 -2.5706  0.9208
 4947TIP3   OH214846   5.604   4.017   0.157 -0.1408 -0.0796 -0.5632
 4947TIP3    H114847   5.647   4.091   0.114 -2.0417  0.5108 -1.5636
 4947TIP3    H214848   5.636   3.940   0.110 -0.8928  0.4260 -1.9383
 4948TIP3   OH214849   3.156   5.398   4.474  0.4989 -0.5857 -0.0407
 4948TIP3    H114850   3.091   5.452   4.428 -0.1113 -1.0439  0.2664
 4948TIP3    H214851   3.117   5.382   4.560  0.7144 -1.4323 -0.0950
 4949TIP3   OH214852   1.877   4.708   4.298 -0.4241 -0.0116 -0.0201
 4949TIP3    H114853   1.836   4.683   4.381 -0.7835 -1.1142 -0.5136
 4949TIP3    H214854   1.831   4.788   4.272  0.0124  0.6074  1.0692
 4950TIP3   OH214855   5.102   1.497   4.194  0.1978  0.0970  0.6664
 4950TIP3    H114856   5.051   1.576   4.208 -0.9855 -0.0759 -2.0884
 4950TIP3    H214857   5.182   1.528   4.152 -0.2403 -0.1482 -0.3595
 4951TIP3   OH214858   5.985   3.310   2.775 -0.5034 -0.2362  0.2596
 4951TIP3    H114859   6.034   3.359   2.842 -0.5436  0.3432 -0.1273
 4951TIP3    H214860   5.926   3.254   2.825 -1.4015  1.0732  0.7128
 4952TIP3   OH214861   4.072   1.559   1.410  0.7315  0.4467 -0.0977
 4952TIP3    H114862   4.020   1.494   1.457  0.8558  0.0552 -0.4951
 4952TIP3    H214863   4.155   1.563   1.458  0.3121  1.1459  0.5960
 4953TIP3   OH214864   1.883   0.689   3.324  0.9448  1.1479  0.4095
 4953TIP3    H114865   1.845   0.777   3.330  0.4785  0.9775  0.0252
 4953TIP3    H214866   1.808   0.630   3.333  1.0980  0.8104 -0.4050
 4954TIP3   OH214867   4.953   0.546   4.162  0.0533 -0.3338 -0.4076
 4954TIP3    H114868   4.863   0.516   4.172  0.0272  0.2776  1.8851
 4954TIP3    H214869   4.952   0.635   4.199  1.8634 -0.8878  1.1306
 4955TIP3   OH214870   0.594   1.787   2.649  0.0089 -0.0598 -0.4082
 4955TIP3    H114871   0.568   1.801   2.558  1.0591  1.7678 -0.4789
 4955TIP3    H214872   0.529   1.725   2.683 -0.0547 -1.2705 -2.5359
 4956TIP3   OH214873   6.300   1.313   2.061 -0.4194 -0.0700 -0.1917
 4956TIP3    H114874   6.253   1.369   2.000  0.8011  0.3192 -0.8002
 4956TIP3    H214875   6.233   1.254   2.096 -0.8336 -1.8233 -3.5267
 4957TIP3   OH214876   5.421   5.850   1.952  0.0884 -0.1841 -0.3890
 4957TIP3    H114877   5.509   5.819   1.931  0.6750  0.4034  1.0853
 4957TIP3    H214878   5.363   5.790   1.906  1.2254 -1.7031  0.0844
 4958TIP3   OH214879   2.950   0.044   0.745 -0.4478  0.1004  0.1028
 4958TIP3    H114880   2.945  -0.032   0.803  1.7737 -1.2914 -1.3872
 4958TIP3    H214881   2.927   0.010   0.658 -0.3630  1.3424 -0.4259
 4959TIP3   OH214882   3.247   3.750   4.238 -0.1759 -0.2101  0.2322
 4959TIP3    H114883   3.192   3.685   4.281 -1.1796  0.6594  0.3053
 4959TIP3    H214884   3.322   3.761   4.296 -0.2706 -0.8805  0.4908
 4960TIP3   OH214885   5.768   1.398   2.321 -0.3990 -0.2145 -0.4238
 4960TIP3    H114886   5.719   1.416   2.241 -0.1651  2.7578 -0.0154
 4960TIP3    H214887   5.706   1.415   2.392  1.2082  4.9208  0.1597
 4961TIP3   OH214888   1.744   3.903   1.198  0.5540 -0.2886  0.2813
 4961TIP3    H114889   1.701   3.852   1.267  1.7356 -0.2926  1.0554
 4961TIP3    H214890   1.747   3.845   1.123 -2.1088  0.2200 -0.3345
 4962TIP3   OH214891   2.551   2.054   2.322  0.4262 -0.3710  0.3047
 4962TIP3    H114892   2.617   1.985   2.321 -1.1653 -2.0912  2.6322
 4962TIP3    H214893   2.468   2.007   2.311 -0.5605  1.4985 -0.6384
 4963TIP3   OH214894   0.762   3.528   0.574  0.1655  0.0089  0.0910
 4963TIP3    H114895   0.831   3.532   0.508  0.7399 -0.2108  0.6643
 4963TIP3    H214896   0.698   3.594   0.546  0.0207 -0.6202 -1.0870
 4964TIP3   OH214897   0.257   3.122   0.495 -0.7548 -0.0346  0.4154
 4964TIP3    H114898   0.191   3.167   0.443  0.6835  0.8078 -0.7846
 4964TIP3    H214899   0.339   3.167   0.473  0.2438 -1.1334  1.7157
 4965TIP3   OH214900   2.451   0.043   1.020 -0.4273  0.2204 -0.1271
 4965TIP3    H114901   2.479   0.036   0.928 -0.8476 -1.0516 -0.1809
 4965TIP3    H214902   2.484  -0.037   1.061 -0.8050  0.4694  0.6800
 4966TIP3   OH214903   3.565   2.006   1.090  0.2329  0.5917  0.1003
 4966TIP3    H114904   3.637   1.952   1.123  1.5528  0.6761 -2.4176
 4966TIP3    H214905   3.587   2.095   1.119 -0.7184  0.1854  2.2432
 4967TIP3   OH214906   1.818   1.540   4.348  0.3523  0.5600 -0.3866
 4967TIP3    H114907   1.727   1.527   4.323  0.9183 -3.2759 -1.1366
 4967TIP3    H214908   1.817   1.548   4.443 -0.7074 -1.1303 -0.2254
 4968TIP3   OH214909   5.224   4.365   3.451  0.9073  0.0777  0.0919
 4968TIP3    H114910   5.134   4.381   3.423  1.6884  1.2685 -1.9474
 4968TIP3    H214911   5.216   4.297   3.518 -1.5162  0.3766  0.2010
 4969TIP3   OH214912   5.141   4.969   2.172  0.1628  0.6146 -0.0519
 4969TIP3    H114913   5.142   5.003   2.083 -0.4751 -0.9970 -0.7053
 4969TIP3    H214914   5.074   5.021   2.217  0.3579  1.3062 -0.5399
 4970TIP3   OH214915   3.950   3.468   0.421  0.2197  0.2409 -0.1103
 4970TIP3    H114916   3.934   3.377   0.448  0.1971  0.4841  0.7208
 4970TIP3    H214917   3.978   3.461   0.330 -0.1215 -0.5733 -0.1645
 4971TIP3   OH214918   4.992   1.860   1.401 -0.2608  0.0329  0.5323
 4971TIP3    H114919   5.061   1.863   1.467  1.4507  0.0850 -1.1414
 4971TIP3    H214920   4.996   1.772   1.365 -1.0013  0.0696  0.3404
 4972TIP3   OH214921   3.485   5.670   0.065 -0.1614 -0.1941  0.5573
 4972TIP3    H114922   3.496   5.638  -0.025  0.9704 -0.3951  0.7520
 4972TIP3    H214923   3.392   5.691   0.072 -0.7508 -2.4091  0.0818
 4973TIP3   OH214924   3.985   0.727   1.583  0.2273  0.1530  0.5030
 4973TIP3    H114925   4.024   0.777   1.511 -1.4758  1.3484  0.3452
 4973TIP3    H214926   3.942   0.653   1.541 -2.4769  1.9038 -0.0603
 4974TIP3   OH214927   5.364   4.908   3.454 -0.6718 -0.3666 -0.0441
 4974TIP3    H114928   5.401   4.996   3.450 -1.1572 -0.1994 -1.8475
 4974TIP3    H214929   5.274   4.920   3.482 -1.1293 -0.1217 -1.5453
 4975TIP3   OH214930   2.712   4.038   0.947  0.7377  0.6440  0.0345
 4975TIP3    H114931   2.624   4.060   0.978 -0.1609 -0.5932 -1.4863
 4975TIP3    H214932   2.721   4.087   0.865  0.9487 -0.1937 -0.4592
 4976TIP3   OH214933   5.060   4.313   2.032 -0.1688 -0.4796 -0.1282
 4976TIP3    H114934   5.009   4.394   2.036 -1.5553 -1.2911 -0.7221
 4976TIP3    H214935   5.045   4.279   1.944 -0.0609 -1.6609  0.2905
 4977TIP3   OH214936   0.625   2.146   4.754 -0.1954 -0.0180 -1.0392
 4977TIP3    H114937   0.714   2.124   4.784 -0.6365 -0.5587 -0.0928
 4977TIP3    H214938   0.610   2.235   4.786 -1.0747 -0.9702  1.4334
 4978TIP3   OH214939   5.426   0.663   0.821 -0.5319 -0.2090 -0.0830
 4978TIP3    H114940   5.362   0.733   0.808  0.1538  0.4068 -0.2234
 4978TIP3    H214941   5.459   0.645   0.733 -2.6611 -2.6587 -0.4901
 4979TIP3   OH214942   1.031   1.835   4.924 -0.1710  0.4438  0.1207
 4979TIP3    H114943   1.064   1.766   4.981  2.5886 -1.0249 -2.8970
 4979TIP3    H214944   1.109   1.872   4.884 -1.8356  2.6701 -1.2934
 4980TIP3   OH214945   1.754   3.644   4.031 -0.5051 -0.7361 -0.1541
 4980TIP3    H114946   1.764   3.586   3.956  0.9684 -2.4113  1.2495
 4980TIP3    H214947   1.693   3.711   4.001 -0.6880 -1.8523 -2.5227
 4981TIP3   OH214948   6.110   3.457   1.731 -0.6382  0.0757 -0.3932
 4981TIP3    H114949   6.096   3.504   1.813  3.3127  1.2943 -0.2061
 4981TIP3    H214950   6.154   3.375   1.757 -0.7543 -0.2564 -1.2059
 4982TIP3   OH214951   3.632   0.065   1.052 -0.2764 -0.1983 -0.0480
 4982TIP3    H114952   3.537   0.065   1.058 -0.2197 -0.7061  1.1824
 4982TIP3    H214953   3.662   0.105   1.134  0.5654  0.5439 -0.6983
 4983TIP3   OH214954   6.201   2.263   4.021 -0.4646  0.7347  0.1178
 4983TIP3    H114955   6.212   2.185   4.074  2.1070  0.1858 -1.0903
 4983TIP3    H214956   6.137   2.238   3.954 -0.8517  0.2184  0.6706
 4984TIP3   OH214957   5.868   5.916   1.219 -0.2975  0.0947  0.1581
 4984TIP3    H114958   5.904   5.829   1.207  0.0579  0.2436  0.1526
 4984TIP3    H214959   5.843   5.944   1.131  1.6108  0.8815 -0.1639
 4985TIP3   OH214960   0.838   0.519   1.934  0.1142 -0.3275 -0.3918
 4985TIP3    H114961   0.784   0.568   1.995  0.9866  0.4023 -0.1904
 4985TIP3    H214962   0.779   0.496   1.862 -1.1771 -2.0375  1.1312
 4986TIP3   OH214963   4.522   4.121   3.612 -0.3568  0.3032  0.2152
 4986TIP3    H114964   4.605   4.107   3.657 -0.7066  0.2046  0.8508
 4986TIP3    H214965   4.532   4.205   3.568  0.0445  0.3295  0.3533
 4987TIP3   OH214966   0.256   0.962   1.325 -0.2541 -0.2057  0.3962
 4987TIP3    H114967   0.273   0.939   1.417  0.3202 -0.3047  0.2752
 4987TIP3    H214968   0.324   1.027   1.304  0.6016 -1.3082 -0.3882
 4988TIP3   OH214969   4.803   4.090   3.226  0.2600 -0.0054 -0.3664
 4988TIP3    H114970   4.890   4.124   3.208  1.2917 -1.4836  1.4656
 4988TIP3    H214971   4.788   4.025   3.157  1.0278 -0.4011 -0.1748
 4989TIP3   OH214972   4.419   3.852   3.989 -0.0480  0.3882 -0.0466
 4989TIP3    H114973   4.514   3.865   3.996  0.0568  0.5967 -1.4934
 4989TIP3    H214974   4.382   3.913   4.052  0.7504  1.0578 -0.2091
 4990TIP3   OH214975   1.095   0.537   2.470  0.3761  0.2643 -0.5911
 4990TIP3    H114976   1.057   0.597   2.405  1.9766  2.5247  0.4143
 4990TIP3    H214977   1.181   0.515   2.435  0.3379 -0.3686 -0.2978
 4991TIP3   OH214978   3.795   4.738   3.340 -0.0011 -0.3212  0.2823
 4991TIP3    H114979   3.763   4.670   3.399  1.1530 -0.2718  1.0017
 4991TIP3    H214980   3.847   4.690   3.275 -0.0924 -0.2278  0.1392
 4992TIP3   OH214981   1.609   5.106   0.497  0.4974  0.4766  0.3252
 4992TIP3    H114982   1.577   5.017   0.483 -0.3557  0.7931  0.2430
 4992TIP3    H214983   1.531   5.161   0.493  0.5525  0.9489  3.3227
 4993TIP3   OH214984   0.234   4.228   2.967  0.5734 -0.4897  0.2558
 4993TIP3    H114985   0.206   4.191   2.883 -0.5041 -1.1220  0.8659
 4993TIP3    H214986   0.295   4.164   3.002  1.1377 -0.1545 -0.1028
 4994TIP3   OH214987   5.075   4.031   0.864  0.0531 -0.1259  0.8384
 4994TIP3    H114988   5.109   4.120   0.869 -2.4464  0.9883 -0.3064
 4994TIP3    H214989   5.134   3.985   0.804  2.0687  0.3303  2.3642
 4995TIP3   OH214990   2.248   3.846   0.035  0.0370  0.5614  0.0706
 4995TIP3    H114991   2.208   3.759   0.037  1.1909  0.0143  0.0649
 4995TIP3    H214992   2.174   3.906   0.034 -0.7869 -0.4074  0.6011
 4996TIP3   OH214993   4.206   1.659   4.793 -0.1167 -0.1007  0.6263
 4996TIP3    H114994   4.213   1.663   4.698  1.5440 -0.5935  0.6930
 4996TIP3    H214995   4.113   1.648   4.810 -0.3357 -1.0117 -0.9749
 4997TIP3   OH214996   2.231   2.812   0.285 -0.6475 -0.4896 -0.1595
 4997TIP3    H114997   2.280   2.875   0.232  0.8876  0.7894  2.5844
 4997TIP3    H214998   2.183   2.759   0.221 -0.0423  1.8319 -2.7076
 4998TIP3   OH214999   4.291   1.293   2.106 -0.8566  0.0542  0.5303
 4998TIP3    H115000   4.280   1.199   2.120 -1.1282 -0.0736 -0.4566
 4998TIP3    H215001   4.328   1.326   2.188  0.3264 -1.1106  0.5010
 4999TIP3   OH215002   5.556   4.409   4.258  0.0678  0.0596 -0.1802
 4999TIP3    H115003   5.651   4.414   4.265  0.0845 -0.0004 -0.3769
 4999TIP3    H215004   5.539   4.326   4.213 -0.1167 -0.4443  0.7748
 5000TIP3   OH215005   1.742   2.239   1.756 -0.3326 -0.3296 -0.1989
 5000TIP3    H115006   1.802   2.238   1.681 -0.8181 -0.0162 -0.6056
 5000TIP3    H215007   1.776   2.308   1.813  0.3886 -0.9846  0.1647
 5001TIP3   OH215008   2.910   4.378   4.361  0.0362  0.0294  0.1483
 5001TIP3    H115009   2.946   4.466   4.365 -1.9097  0.8372  0.8927
 5001TIP3    H215010   2.941   4.335   4.441 -1.3151  1.0195  1.2484
 5002TIP3   OH215011   0.539   5.351   0.234 -0.0141 -0.2448  0.5533
 5002TIP3    H115012   0.548   5.274   0.290  3.0113  0.0369  0.6436
 5002TIP3    H215013   0.596   5.417   0.274 -0.0715  0.9620 -1.2373
 5003TIP3   OH215014   3.023   4.352   2.828 -0.9048 -0.3995 -0.2239
 5003TIP3    H115015   3.067   4.268   2.815  0.5009  0.3206 -0.4504
 5003TIP3    H215016   3.092   4.409   2.862 -1.7345  0.7426 -0.3973
 5004TIP3   OH215017   0.619   5.021   1.167  0.0750 -0.4305 -0.4059
 5004TIP3    H115018   0.655   5.021   1.256  0.6257 -1.2717 -0.6195
 5004TIP3    H215019   0.678   4.965   1.117 -0.4058 -0.2107 -1.2345
 5005TIP3   OH215020   1.189   1.432   1.889  0.2103  0.2268  0.4801
 5005TIP3    H115021   1.242   1.358   1.918  1.0584  1.2002  1.4811
 5005TIP3    H215022   1.243   1.509   1.904 -0.4934  1.0464 -0.9306
 5006TIP3   OH215023   5.172   4.541   0.478  0.3273  0.3012  0.7873
 5006TIP3    H115024   5.248   4.496   0.516 -0.2492  0.1940  1.8571
 5006TIP3    H215025   5.098   4.482   0.494 -0.3601  1.3837  1.7854
 5007TIP3   OH215026   3.293   1.558   2.354  0.4404 -0.1917 -0.0001
 5007TIP3    H115027   3.226   1.497   2.385  0.5015  0.3575  1.2617
 5007TIP3    H215028   3.340   1.510   2.285  0.0208 -1.2931  0.4712
 5008TIP3   OH215029   4.458   2.365   4.439  0.7442 -0.3870 -0.5068
 5008TIP3    H115030   4.494   2.305   4.373  1.4336 -1.1734  0.5567
 5008TIP3    H215031   4.480   2.324   4.522  3.1502  2.3910  0.3720
 5009TIP3   OH215032   0.847   2.486   2.465 -0.4248 -0.2790 -0.4769
 5009TIP3    H115033   0.766   2.462   2.510  0.1269 -2.6715 -0.6306
 5009TIP3    H215034   0.890   2.549   2.524 -1.0979 -1.1055  0.9348
 5010TIP3   OH215035   5.876   0.308   3.035  0.5091  0.9293 -0.1384
 5010TIP3    H115036   5.856   0.236   2.975 -1.2121  0.2640  1.1836
 5010TIP3    H215037   5.804   0.370   3.024  1.4146  1.9532 -0.4663
 5011TIP3   OH215038   6.366   1.912   0.674  0.2340 -0.5210 -0.0746
 5011TIP3    H115039   6.337   1.849   0.608 -1.1827  0.8065 -0.8062
 5011TIP3    H215040   6.288   1.966   0.690  0.9911  0.1291  1.5865
 5012TIP3   OH215041   1.653   3.755   1.426 -0.2158  0.3371  0.1752
 5012TIP3    H115042   1.643   3.801   1.509 -1.6769 -2.0287  1.4333
 5012TIP3    H215043   1.745   3.727   1.425 -0.1374  0.5429  0.9399
 5013TIP3   OH215044   1.675   2.825   0.874 -0.3701  0.7390  0.3181
 5013TIP3    H115045   1.751   2.843   0.819 -0.1925 -1.3490 -0.1677
 5013TIP3    H215046   1.679   2.892   0.943  1.6867  0.8882  0.0958
 5014TIP3   OH215047   0.385   0.787   4.723  0.1340 -0.3371 -0.1833
 5014TIP3    H115048   0.388   0.696   4.691  0.8002 -0.7558  1.0278
 5014TIP3    H215049   0.412   0.839   4.647  2.0291 -1.3303 -0.2482
 5015TIP3   OH215050   5.163   5.373   1.562  0.2406 -0.1695 -0.0029
 5015TIP3    H115051   5.251   5.369   1.523  0.2622 -2.7982  0.1885
 5015TIP3    H215052   5.106   5.331   1.497 -0.4816 -0.5558  0.8652
 5016TIP3   OH215053   5.632   1.428   2.564 -0.1125 -0.7204 -0.0813
 5016TIP3    H115054   5.606   1.340   2.593 -0.2162 -0.6184  0.1392
 5016TIP3    H215055   5.598   1.486   2.632  2.0938 -0.7062  1.0775
 5017TIP3   OH215056   5.844   3.725   0.361  0.5272  0.2706  0.4020
 5017TIP3    H115057   5.781   3.654   0.347 -0.0386  0.7865  0.3296
 5017TIP3    H215058   5.791   3.801   0.382  1.1506  0.5936  0.8533
 5018TIP3   OH215059   3.357   1.238   1.649 -0.9042 -0.5210  0.3259
 5018TIP3    H115060   3.450   1.245   1.630 -1.1703  1.9455 -0.4013
 5018TIP3    H215061   3.353   1.230   1.745  0.0408  1.1203  0.5431
 5019TIP3   OH215062   3.045   0.396   2.901 -0.4641  0.6406  0.3034
 5019TIP3    H115063   3.071   0.473   2.953  0.0920  0.3690  0.4384
 5019TIP3    H215064   3.060   0.423   2.810 -1.9306  1.2992  0.2386
 5020TIP3   OH215065   0.865   2.902   0.849  0.1808  0.0483  0.4620
 5020TIP3    H115066   0.829   2.977   0.801  2.5053  0.2100 -1.2030
 5020TIP3    H215067   0.789   2.862   0.891 -1.1857  3.2673  1.4143
 5021TIP3   OH215068   4.651   3.691   3.554 -0.5479 -0.2445  0.0816
 5021TIP3    H115069   4.598   3.745   3.613 -1.3651 -1.2722  0.3196
 5021TIP3    H215070   4.680   3.751   3.486 -2.3830  0.2783 -0.2890
 5022TIP3   OH215071   1.047   4.254   3.671  0.8964 -0.8646 -0.0320
 5022TIP3    H115072   0.982   4.235   3.739 -0.5265  0.4870 -0.9455
 5022TIP3    H215073   1.028   4.191   3.601 -0.2625  0.2347 -0.7753
 5023TIP3   OH215074   4.170   2.128   5.065 -0.1998  0.1492  0.1314
 5023TIP3    H115075   4.233   2.182   5.113 -0.9889  0.3214  1.0040
 5023TIP3    H215076   4.181   2.040   5.101  0.1256  0.0023 -0.3175
 5024TIP3   OH215077   5.374   3.052   3.859 -0.3389 -0.2195 -0.0463
 5024TIP3    H115078   5.381   2.970   3.909 -0.2457  0.8567  1.8150
 5024TIP3    H215079   5.463   3.087   3.858 -0.8525  1.3733  2.0106
 5025TIP3   OH215080   4.678   1.732   3.528  0.2358  0.2774 -0.4543
 5025TIP3    H115081   4.678   1.823   3.557  0.4072 -0.3741  1.7333
 5025TIP3    H215082   4.632   1.684   3.597 -0.0713 -1.2751 -1.6759
 5026TIP3   OH215083   6.042   3.037   3.438 -0.6082 -0.0198 -0.2742
 5026TIP3    H115084   6.031   2.944   3.452 -1.3547  0.1100  0.0052
 5026TIP3    H215085   6.016   3.078   3.520  1.4510  0.3410  0.2592
 5027TIP3   OH215086   5.506   4.830   0.880  0.5196 -0.4325  0.0189
 5027TIP3    H115087   5.482   4.797   0.794 -1.5743  0.7899  0.0617
 5027TIP3    H215088   5.567   4.902   0.863 -0.1669  0.0354 -0.4661
 5028TIP3   OH215089   2.687   3.458   2.794  0.2183  0.1356 -0.5974
 5028TIP3    H115090   2.620   3.511   2.838 -2.3845 -1.7767 -1.9993
 5028TIP3    H215091   2.761   3.458   2.855 -1.8239  0.6203  2.0773
 5029TIP3   OH215092   1.720   0.317   0.811  0.5029 -0.6407  0.1218
 5029TIP3    H115093   1.702   0.295   0.720 -1.2560 -1.3596  0.6038
 5029TIP3    H215094   1.750   0.408   0.809  0.4612 -0.6439 -1.1550
 5030TIP3   OH215095   5.562   3.185   0.627  0.5333  0.9647 -0.3928
 5030TIP3    H115096   5.569   3.209   0.534  2.6965 -0.8711 -0.7812
 5030TIP3    H215097   5.578   3.091   0.629 -0.0285  0.8586  1.8162
 5031TIP3   OH215098   0.877   4.956   4.079 -0.0833 -0.0309 -0.2635
 5031TIP3    H115099   0.953   4.900   4.097  1.5710  2.3937  0.8370
 5031TIP3    H215100   0.912   5.029   4.029 -2.0121  0.4776 -0.9560
 5032TIP3   OH215101   6.163   4.979   1.200 -0.2250 -0.1822  0.3550
 5032TIP3    H115102   6.073   4.983   1.171 -0.0553  0.5210 -0.1155
 5032TIP3    H215103   6.165   4.908   1.264 -0.6211 -1.7302 -1.2616
 5033TIP3   OH215104   0.281   1.310   1.573 -0.9304 -0.6962 -0.5338
 5033TIP3    H115105   0.254   1.359   1.651  2.5287  0.1839  0.3122
 5033TIP3    H215106   0.299   1.378   1.508  0.1056 -1.1019 -0.6849
 5034TIP3   OH215107   1.319   1.181   4.405  0.2920 -0.2331  0.7527
 5034TIP3    H115108   1.258   1.222   4.467  0.2076  1.4428 -0.3806
 5034TIP3    H215109   1.402   1.176   4.452  1.1865  4.1406  0.0763
 5035TIP3   OH215110   4.846   3.515   3.123 -0.2620  0.3582  0.3582
 5035TIP3    H115111   4.903   3.518   3.045 -1.8237  1.3149 -0.8005
 5035TIP3    H215112   4.820   3.606   3.137  0.0756  0.2177  2.1055
 5036TIP3   OH215113   2.510   5.314   2.124 -0.0785  0.4766 -0.0634
 5036TIP3    H115114   2.602   5.310   2.150 -0.2479  1.0393  0.6528
 5036TIP3    H215115   2.472   5.232   2.156  0.5923 -0.6957 -2.1194
 5037TIP3   OH215116   4.944   2.234   4.116  0.0598  1.0404 -0.8289
 5037TIP3    H115117   4.860   2.277   4.132 -0.8948  0.1664 -3.0781
 5037TIP3    H215118   4.922   2.150   4.077  1.9329 -1.0054  2.1326
 5038TIP3   OH215119   3.417   5.839   4.401 -0.2136  0.3170 -0.3636
 5038TIP3    H115120   3.359   5.805   4.470 -0.5669 -0.1320 -0.8702
 5038TIP3    H215121   3.497   5.864   4.447 -0.0140 -1.0073  0.0732
 5039TIP3   OH215122   2.810   2.510   2.324  0.6317 -0.3852 -0.1118
 5039TIP3    H115123   2.767   2.432   2.289  2.3035 -2.1694  1.6346
 5039TIP3    H215124   2.778   2.581   2.268 -0.9880 -2.2714 -1.7428
 5040TIP3   OH215125   1.778   5.010   3.321  0.1076  0.0753  0.1962
 5040TIP3    H115126   1.729   5.039   3.244  0.4637  0.4761  0.1213
 5040TIP3    H215127   1.869   5.030   3.300  0.1392  0.7790  0.9937
 5041TIP3   OH215128   1.742   5.787   2.624  0.5804 -0.4175 -0.2822
 5041TIP3    H115129   1.771   5.812   2.711  2.5753 -2.0783 -0.3863
 5041TIP3    H215130   1.673   5.849   2.602  0.0622  0.0804  2.4367
 5042TIP3   OH215131   5.531   1.594   0.154 -0.1997  0.5273 -0.0790
 5042TIP3    H115132   5.603   1.656   0.143  2.3168 -1.6490  2.5439
 5042TIP3    H215133   5.467   1.640   0.209 -0.1511  1.9437 -1.1417
 5043TIP3   OH215134   4.073   5.081   0.681 -0.4831 -0.2832 -0.3625
 5043TIP3    H115135   4.044   4.998   0.642  0.5433 -0.2237 -1.3031
 5043TIP3    H215136   4.059   5.070   0.775  0.5054 -1.8939 -0.3727
 5044TIP3   OH215137   2.935   5.267   2.641 -0.6867  0.1025 -0.6884
 5044TIP3    H115138   2.920   5.338   2.578 -1.4640  0.7661  0.2226
 5044TIP3    H215139   2.875   5.198   2.614 -0.7197  0.2256 -0.9325
 5045TIP3   OH215140   4.180   4.678   3.738 -0.1033  0.2111  0.4945
 5045TIP3    H115141   4.196   4.772   3.742  0.3840  0.2958 -1.8782
 5045TIP3    H215142   4.242   4.640   3.801  0.9640  1.3784  0.1926
 5046TIP3   OH215143   5.266   2.020   4.782  0.5171  0.0754  0.5261
 5046TIP3    H115144   5.221   1.996   4.864  0.9997  0.4019  0.8943
 5046TIP3    H215145   5.195   2.050   4.725  0.0062 -1.4211  0.3311
 5047TIP3   OH215146   2.863   2.688   3.192  0.5198  0.2651 -0.2741
 5047TIP3    H115147   2.930   2.755   3.202 -0.0177  1.0426 -1.6572
 5047TIP3    H215148   2.901   2.624   3.131  0.6423 -0.1879  0.2641
 5048TIP3   OH215149   2.596   2.144   3.647 -0.2353  0.1444 -0.1797
 5048TIP3    H115150   2.579   2.237   3.629  0.7275  0.0419 -1.7651
 5048TIP3    H215151   2.527   2.098   3.598  0.1538 -0.0135 -0.5857
 5049TIP3   OH215152   1.089   2.790   4.785 -0.3455  0.2360 -0.1904
 5049TIP3    H115153   1.052   2.753   4.704  1.7693  2.3855 -2.3022
 5049TIP3    H215154   1.068   2.884   4.779  1.5643  0.7556  0.7254
 5050TIP3   OH215155   5.583   1.215   1.571 -0.2961  0.1469  0.3648
 5050TIP3    H115156   5.532   1.293   1.590  1.8122  1.6458  0.1952
 5050TIP3    H215157   5.674   1.244   1.574  0.5218 -1.9698 -1.2028
 5051TIP3   OH215158   3.996   5.711   2.803  0.2277 -0.6317  0.3966
 5051TIP3    H115159   3.975   5.706   2.897 -0.6909 -1.3381  0.1656
 5051TIP3    H215160   3.930   5.657   2.761 -0.3424  0.9518 -0.8207
 5052TIP3   OH215161   4.782   3.866   0.615  0.1528  0.4962  0.2663
 5052TIP3    H115162   4.776   3.856   0.520  1.2039 -0.0897  0.2489
 5052TIP3    H215163   4.723   3.799   0.650 -0.3561  0.8156  0.0368
 5053TIP3   OH215164   2.391   0.197   5.113  0.2133  0.0613 -0.3262
 5053TIP3    H115165   2.375   0.141   5.036  2.0058 -0.8702 -0.0647
 5053TIP3    H215166   2.325   0.169   5.176 -1.5710  1.1259 -1.6141
 5054TIP3   OH215167   2.122   1.200   0.843  0.1348  0.2117  0.0160
 5054TIP3    H115168   2.046   1.166   0.795  0.4127  0.4277 -0.5826
 5054TIP3    H215169   2.152   1.275   0.791 -1.0615  2.0314  1.8034
 5055TIP3   OH215170   0.227   4.049   1.743  0.2863 -0.4948 -0.0041
 5055TIP3    H115171   0.254   4.138   1.719 -0.9093  0.5881  2.4292
 5055TIP3    H215172   0.138   4.059   1.777 -0.4456 -2.8812 -1.0198
 5056TIP3   OH215173   1.885   0.389   3.358  0.5794 -0.2302  0.3194
 5056TIP3    H115174   1.863   0.345   3.276  0.7196 -0.3490  0.3447
 5056TIP3    H215175   1.941   0.462   3.332 -2.6257  2.2965 -0.1670
 5057TIP3   OH215176   4.759   3.018   2.836 -0.2179 -0.2874  0.6545
 5057TIP3    H115177   4.789   3.062   2.756  0.4050  0.2053  1.1471
 5057TIP3    H215178   4.790   3.074   2.907 -0.9782 -0.5935  1.2396
 5058TIP3   OH215179   3.125   2.708   4.170 -0.3633 -0.1178 -0.2052
 5058TIP3    H115180   3.139   2.616   4.149  0.4070 -0.7343  2.5693
 5058TIP3    H215181   3.057   2.706   4.238  1.3136  1.0901  1.6070
 5059TIP3   OH215182   2.152   4.414   5.144 -0.3769  0.3868  0.1832
 5059TIP3    H115183   2.074   4.395   5.091 -1.0679 -1.9234  1.8453
 5059TIP3    H215184   2.222   4.363   5.103  0.2235  2.1860 -1.1039
 5060TIP3   OH215185   4.116   0.825   3.679  0.2817  0.1884 -0.9435
 5060TIP3    H115186   4.068   0.896   3.635  1.2155  1.5710  0.1854
 5060TIP3    H215187   4.200   0.864   3.702  0.2623 -0.8369  1.0502
 5061TIP3   OH215188   0.500   0.829   3.109  0.2895  0.2163 -0.3958
 5061TIP3    H115189   0.407   0.810   3.102  0.1084  1.4579 -2.0107
 5061TIP3    H215190   0.521   0.814   3.201 -1.8782  1.4978  0.3793
 5062TIP3   OH215191   4.739   0.421   4.079  0.0274  0.3620  0.7164
 5062TIP3    H115192   4.796   0.394   4.006 -0.0568 -1.4623  1.2661
 5062TIP3    H215193   4.661   0.457   4.036  0.7271  0.9991 -0.0612
 5063TIP3   OH215194   0.411   4.107   4.782  0.2833  0.2656 -0.0887
 5063TIP3    H115195   0.412   4.160   4.862  0.4601 -0.8619  0.6823
 5063TIP3    H215196   0.429   4.170   4.712 -0.0608  1.3144  0.7259
 5064TIP3   OH215197   3.402   2.419   2.079  0.1195  0.1527  0.0843
 5064TIP3    H115198   3.420   2.510   2.099 -1.5048  0.7312 -0.8288
 5064TIP3    H215199   3.372   2.420   1.988 -0.9014 -1.1153  0.3652
 5065TIP3   OH215200   1.267   4.237   4.692 -0.2215  0.4546 -0.3032
 5065TIP3    H115201   1.225   4.323   4.703 -0.8577 -0.0700  1.5960
 5065TIP3    H215202   1.278   4.204   4.780  1.4262 -0.7911 -0.9348
 5066TIP3   OH215203   6.018   0.377   4.856  0.3006 -0.4472  0.2845
 5066TIP3    H115204   5.974   0.399   4.937 -0.2829 -0.4628 -0.0208
 5066TIP3    H215205   6.110   0.368   4.880  0.5255  1.9111  0.5005
 5067TIP3   OH215206   1.150   1.612   0.162 -0.7892 -0.0171  0.4940
 5067TIP3    H115207   1.124   1.525   0.131 -2.0872  0.3562  0.4856
 5067TIP3    H215208   1.246   1.612   0.156 -0.7724 -1.4189  0.4392
 5068TIP3   OH215209   1.869   2.826   2.660 -0.3565  0.0344 -0.4663
 5068TIP3    H115210   1.822   2.853   2.739  1.1658 -0.1119  0.5298
 5068TIP3    H215211   1.850   2.895   2.596 -0.1041  1.1622  0.6362
 5069TIP3   OH215212   4.332   2.721   3.107 -0.1359 -0.1478  0.5524
 5069TIP3    H115213   4.337   2.681   3.021  1.2113  0.0432  0.5192
 5069TIP3    H215214   4.380   2.804   3.098  1.6050 -0.9415  1.9122
 5070TIP3   OH215215   3.603   4.584   0.451  0.2381 -0.3267  0.0444
 5070TIP3    H115216   3.633   4.560   0.363  0.1586  0.3880 -0.1877
 5070TIP3    H215217   3.664   4.540   0.510  0.9608  0.0516 -0.3987
 5071TIP3   OH215218   1.833   1.535   1.987 -0.7285  0.3060 -0.1336
 5071TIP3    H115219   1.908   1.550   2.046 -0.4438  0.7859 -0.6037
 5071TIP3    H215220   1.806   1.445   2.005  1.4465 -0.7164 -1.5883
 5072TIP3   OH215221   6.285   1.635   1.862 -0.0171 -0.9151  0.2208
 5072TIP3    H115222   6.234   1.561   1.831  0.7486 -0.9488 -1.0149
 5072TIP3    H215223   6.301   1.616   1.955 -0.9984 -1.5970  0.2617
 5073TIP3   OH215224   4.464   0.702   1.819  0.2457  0.0711  0.1184
 5073TIP3    H115225   4.381   0.714   1.773 -0.4398  0.7059  1.4579
 5073TIP3    H215226   4.503   0.625   1.778 -0.1947  0.7501 -1.6749
 5074TIP3   OH215227   0.736   3.331   5.073  0.1494 -0.2904  0.1359
 5074TIP3    H115228   0.702   3.378   5.149 -1.1836 -0.5795 -0.2462
 5074TIP3    H215229   0.722   3.391   5.000  0.0081 -0.6028 -0.0978
 5075TIP3   OH215230   0.617   5.639   2.972  0.5606 -0.4778  0.6190
 5075TIP3    H115231   0.579   5.725   2.989  1.8165 -0.1662  2.0060
 5075TIP3    H215232   0.549   5.577   2.995 -0.5298  0.1260 -0.8428
 5076TIP3   OH215233   2.869   3.474   4.129 -0.3042 -0.0656  0.2443
 5076TIP3    H115234   2.892   3.562   4.100 -1.9680  1.2574  2.5678
 5076TIP3    H215235   2.775   3.479   4.147  0.0122 -1.5583  2.7509
 5077TIP3   OH215236   5.521   4.200   2.621 -0.5708 -0.5042 -0.3964
 5077TIP3    H115237   5.490   4.285   2.590 -1.7784 -0.3386  1.1606
 5077TIP3    H215238   5.616   4.207   2.620 -0.6498  0.6363 -0.9049
 5078TIP3   OH215239   0.772   4.073   5.055 -0.0482 -0.4227 -0.7247
 5078TIP3    H115240   0.703   4.007   5.066  1.0471 -1.4975 -0.0123
 5078TIP3    H215241   0.781   4.111   5.143  0.9485 -1.0061 -0.5667
 5079TIP3   OH215242   2.047   4.332   3.396  0.0224  0.4172 -0.0287
 5079TIP3    H115243   2.136   4.343   3.430  0.3543 -0.0362 -0.7175
 5079TIP3    H215244   2.004   4.415   3.415 -0.0602 -0.0636  2.1748
 5080TIP3   OH215245   6.275   3.671   4.187  0.1002  0.4046  0.0854
 5080TIP3    H115246   6.311   3.587   4.160  1.9389  0.8680  0.9694
 5080TIP3    H215247   6.258   3.662   4.281 -1.5414  0.4272 -0.1711
 5081TIP3   OH215248   5.811   4.522   4.871  0.1231 -0.6536  0.0308
 5081TIP3    H115249   5.864   4.592   4.835 -0.0180 -0.5999 -0.0747
 5081TIP3    H215250   5.808   4.456   4.802 -0.5232 -0.3541 -0.2335
 5082TIP3   OH215251   6.266   0.982   2.854  0.6935  0.0310  0.0910
 5082TIP3    H115252   6.267   1.070   2.892  0.1885  0.4287 -0.7750
 5082TIP3    H215253   6.233   0.926   2.925 -0.0552  0.7191  0.3040
 5083TIP3   OH215254   5.393   3.297   1.676 -0.2268  0.2502 -0.4246
 5083TIP3    H115255   5.438   3.381   1.670  0.5218 -0.2191 -1.9543
 5083TIP3    H215256   5.369   3.289   1.768 -0.7056  2.3189 -0.3330
 5084TIP3   OH215257   6.303   1.257   2.653 -0.1465  0.6373  0.4352
 5084TIP3    H115258   6.310   1.232   2.745  0.1221  0.0014  0.2466
 5084TIP3    H215259   6.237   1.198   2.617 -1.1044  1.6467  0.4756
 5085TIP3   OH215260   1.663   4.164   0.817 -0.1432 -0.1625  0.1708
 5085TIP3    H115261   1.687   4.082   0.859  2.9393  0.2455 -0.4871
 5085TIP3    H215262   1.694   4.154   0.727  0.0697  1.5917  0.0137
 5086TIP3   OH215263   1.770   0.325   3.111 -0.1258  0.1078  0.3775
 5086TIP3    H115264   1.839   0.270   3.074  2.0852  0.5162  3.4579
 5086TIP3    H215265   1.764   0.399   3.050  0.5126 -1.0508 -1.1545
 5087TIP3   OH215266   4.934   0.715   3.031 -0.0470  0.1835 -0.2844
 5087TIP3    H115267   4.905   0.796   2.989  1.3083  0.3120 -1.0499
 5087TIP3    H215268   4.938   0.735   3.124 -0.6329  0.6911 -0.3653
 5088TIP3   OH215269   3.893   2.846   2.342  0.0381 -0.0239  0.0704
 5088TIP3    H115270   3.831   2.792   2.293 -0.3057  0.6253 -0.2280
 5088TIP3    H215271   3.842   2.882   2.415 -0.0948  0.9394 -0.4783
 5089TIP3   OH215272   3.779   1.683   2.564  0.0907  0.3450  0.5252
 5089TIP3    H115273   3.827   1.606   2.593  0.9079  0.4278 -0.5612
 5089TIP3    H215274   3.744   1.659   2.478  1.2522  1.5277 -0.3116
 5090TIP3   OH215275   0.940   0.897   0.527  0.0834  0.0856 -0.6558
 5090TIP3    H115276   1.003   0.828   0.544 -0.4058 -0.4071 -0.8180
 5090TIP3    H215277   0.860   0.851   0.500 -1.1393  0.5339  1.8513
 5091TIP3   OH215278   4.980   1.936   2.109  0.4680  0.4199  0.0868
 5091TIP3    H115279   5.061   1.886   2.099  0.1953 -0.0496  0.1632
 5091TIP3    H215280   4.991   1.983   2.192  0.6934  0.4191  0.0583
 5092TIP3   OH215281   6.069   4.384   5.088  0.2270  0.4397 -1.1073
 5092TIP3    H115282   6.119   4.318   5.040  0.3412  0.2107 -0.6699
 5092TIP3    H215283   6.084   4.465   5.038 -1.2955 -0.1548 -2.6470
 5093TIP3   OH215284   4.880   4.896   3.097  0.4608  0.1997 -0.2108
 5093TIP3    H115285   4.958   4.951   3.088  1.1429 -1.0020 -2.3861
 5093TIP3    H215286   4.825   4.921   3.023 -0.8221  0.3609  0.7679
 5094TIP3   OH215287   3.916   4.111   3.364  0.8390 -0.0808 -0.0609
 5094TIP3    H115288   3.868   4.173   3.419  0.2982  1.7289 -2.4037
 5094TIP3    H215289   3.849   4.052   3.330  0.7826  0.3472 -0.6989
 5095TIP3   OH215290   6.211   1.543   1.165 -0.2296  0.4586 -0.1152
 5095TIP3    H115291   6.284   1.573   1.220  0.1132  0.1871 -0.4200
 5095TIP3    H215292   6.177   1.465   1.210  0.9676 -0.6241 -1.0111
 5096TIP3   OH215293   3.633   3.518   4.164  0.1196  0.2289  0.4166
 5096TIP3    H115294   3.610   3.494   4.253 -1.4730  0.7628  0.1768
 5096TIP3    H215295   3.625   3.613   4.161 -0.6019  0.1571 -0.4707
 5097TIP3   OH215296   3.509   3.784   2.301 -0.1117 -0.8095  0.6925
 5097TIP3    H115297   3.468   3.769   2.386 -1.0182  0.5355  0.5220
 5097TIP3    H215298   3.595   3.743   2.308 -0.6041 -1.6991  1.8605
 5098TIP3   OH215299   4.247   0.849   0.134  0.0129  0.4920 -0.7818
 5098TIP3    H115300   4.209   0.769   0.172 -0.7190  0.8441 -0.7446
 5098TIP3    H215301   4.194   0.920   0.171  0.2732  0.9475 -1.2776
 5099TIP3   OH215302   3.650   1.353   0.738  0.3049 -0.0652 -0.2050
 5099TIP3    H115303   3.674   1.441   0.708 -1.2154  0.0620 -1.1244
 5099TIP3    H215304   3.688   1.348   0.826 -0.6072  1.9936  0.3814
 5100TIP3   OH215305   2.395   4.113   2.498  0.8176  0.2895  0.6619
 5100TIP3    H115306   2.360   4.199   2.521 -0.7835 -0.4626  1.1565
 5100TIP3    H215307   2.398   4.066   2.581  0.4649 -0.5461  0.2090
 5101TIP3   OH215308   2.567   1.188   4.715  0.5846  0.3625 -0.5389
 5101TIP3    H115309   2.504   1.220   4.780  0.4521 -0.2061 -0.3799
 5101TIP3    H215310   2.565   1.254   4.646  1.3609  1.4222  0.4137
 5102TIP3   OH215311   6.037   5.840   4.272  0.1243 -0.3465  0.0326
 5102TIP3    H115312   6.069   5.889   4.348 -0.1416 -0.5103  0.2564
 5102TIP3    H215313   6.116   5.804   4.231  0.3063  0.1633 -0.0599
 5103TIP3   OH215314   2.066   1.048   1.076  0.2249  0.7074  0.5180
 5103TIP3    H115315   2.085   1.111   1.006 -1.4850  0.4234 -0.2325
 5103TIP3    H215316   1.980   1.074   1.109 -1.0195 -1.8385 -0.5195
 5104TIP3   OH215317   0.592   3.920   0.122  0.4573 -0.1224  0.6788
 5104TIP3    H115318   0.589   4.015   0.116 -0.1843 -0.0715  1.6397
 5104TIP3    H215319   0.686   3.900   0.131  0.6570  0.3527 -0.1925
 5105TIP3   OH215320   4.746   1.768   2.106 -0.4464  0.3644 -0.0814
 5105TIP3    H115321   4.685   1.827   2.151  1.2307  1.2607  1.1106
 5105TIP3    H215322   4.829   1.816   2.104  0.6528 -1.4570 -0.1890
 5106TIP3   OH215323   2.065   4.802   1.274  0.4428  0.6440 -0.5061
 5106TIP3    H115324   2.039   4.773   1.187 -1.7866  1.7524 -0.2894
 5106TIP3    H215325   2.081   4.722   1.323  2.6667 -0.0027 -2.1071
 5107TIP3   OH215326   4.090   4.687   4.344 -0.1176  0.2633  0.3984
 5107TIP3    H115327   3.998   4.663   4.338 -0.9710  3.0645  0.6945
 5107TIP3    H215328   4.108   4.692   4.438  0.4314 -0.4879  0.3442
 5108TIP3   OH215329   5.661   4.310   0.676  0.0502 -0.6218  0.2221
 5108TIP3    H115330   5.692   4.306   0.585 -1.6029  3.0271 -0.7023
 5108TIP3    H215331   5.592   4.244   0.681 -0.2050 -0.5100 -1.3678
 5109TIP3   OH215332   0.458   5.506   4.613 -0.3237 -0.5159  0.0216
 5109TIP3    H115333   0.399   5.576   4.640  1.8308  1.0047  1.0700
 5109TIP3    H215334   0.415   5.426   4.642 -1.9455  0.4976  0.5455
 5110TIP3   OH215335   5.784   4.993   1.708  0.3094  0.3465  0.2493
 5110TIP3    H115336   5.854   4.927   1.718  0.6083  0.6209 -0.0014
 5110TIP3    H215337   5.708   4.954   1.750 -0.1926 -1.2165 -1.8953
 5111TIP3   OH215338   0.042   0.288   2.019 -0.5803  0.1698  0.5114
 5111TIP3    H115339   0.117   0.342   1.994 -1.3352  0.1176 -2.2274
 5111TIP3    H215340   0.076   0.198   2.015 -0.7574  0.1407 -0.8057
 5112TIP3   OH215341   0.570   3.865   4.790  0.2741 -0.4821 -0.1983
 5112TIP3    H115342   0.663   3.887   4.787  0.2613  1.3924  4.4042
 5112TIP3    H215343   0.525   3.949   4.779 -0.6331 -0.7724  1.0140
 5113TIP3   OH215344   0.995   2.509   0.628 -0.2642 -0.1230 -0.3057
 5113TIP3    H115345   1.075   2.456   0.625 -1.0177 -1.2707 -1.8616
 5113TIP3    H215346   0.975   2.528   0.536 -0.9427  1.4684  0.1411
 5114TIP3   OH215347   3.625   1.239   2.375  0.4856  0.1027 -0.4725
 5114TIP3    H115348   3.558   1.231   2.307 -0.2284  0.9167  0.1075
 5114TIP3    H215349   3.588   1.192   2.450  0.1418  1.3001  0.1372
 5115TIP3   OH215350   5.814   1.981   3.562 -0.0774 -0.1035  0.2778
 5115TIP3    H115351   5.850   1.894   3.549 -0.7119 -0.4565  0.8337
 5115TIP3    H215352   5.844   2.008   3.648  1.0858  0.7249 -0.3595
 5116TIP3   OH215353   3.784   2.851   1.354  0.2286 -0.4080  0.6520
 5116TIP3    H115354   3.867   2.832   1.311  0.0523 -2.4489  1.0980
 5116TIP3    H215355   3.807   2.865   1.446  0.2486  0.7837  0.4809
 5117TIP3   OH215356   0.673   4.804   4.203  0.4042 -0.2917 -0.1915
 5117TIP3    H115357   0.760   4.843   4.200  0.1715  0.4308  1.3529
 5117TIP3    H215358   0.614   4.879   4.207 -0.3819 -0.7458 -2.1904
 5118TIP3   OH215359   1.261   5.687   3.662  0.2445 -0.7828 -0.1478
 5118TIP3    H115360   1.282   5.756   3.725 -0.4619 -0.1790 -0.5651
 5118TIP3    H215361   1.168   5.698   3.644  0.5876 -0.4623 -1.8632
 5119TIP3   OH215362   3.797   5.615   2.455 -0.1501  0.0940  0.8740
 5119TIP3    H115363   3.804   5.574   2.541  1.2315  0.6101  1.0377
 5119TIP3    H215364   3.825   5.705   2.469  0.3874  0.1042 -0.1634
 5120TIP3   OH215365   0.523   1.792   4.616 -0.0158 -0.2034  0.0159
 5120TIP3    H115366   0.602   1.820   4.662  0.3199  1.4183 -1.4410
 5120TIP3    H215367   0.471   1.872   4.606 -0.7566 -0.8009 -1.0675
 5121TIP3   OH215368   3.427   0.462   2.068 -0.3427  0.4214  0.2091
 5121TIP3    H115369   3.391   0.477   1.981  0.4056 -1.9449 -0.5910
 5121TIP3    H215370   3.393   0.534   2.121  0.3986  2.8016 -2.3235
 5122TIP3   OH215371   5.649   5.721   1.838  0.3581 -0.0374 -0.0524
 5122TIP3    H115372   5.576   5.705   1.779  0.7780  1.2748 -0.9586
 5122TIP3    H215373   5.720   5.752   1.782  1.1990 -0.0291  0.9709
 5123TIP3   OH215374   6.086   1.216   0.926  0.0363 -0.7432 -0.1097
 5123TIP3    H115375   6.017   1.225   0.992 -1.2137 -2.1111 -1.1650
 5123TIP3    H215376   6.140   1.144   0.957  0.2020 -0.5618  0.0303
 5124TIP3   OH215377   3.329   2.782   4.535  0.2781 -0.6192  0.3135
 5124TIP3    H115378   3.417   2.802   4.567  0.1381  0.2365  0.1866
 5124TIP3    H215379   3.286   2.737   4.608  0.5437 -0.2960  0.6690
 5125TIP3   OH215380   5.099   1.236   0.790 -0.1795 -0.0839 -0.6151
 5125TIP3    H115381   5.060   1.317   0.822 -1.2315 -0.6358 -0.4256
 5125TIP3    H215382   5.076   1.171   0.856  1.1254 -0.4319 -0.4886
 5126TIP3   OH215383   5.337   5.344   5.089  0.1155 -0.0293  0.0285
 5126TIP3    H115384   5.373   5.317   5.174 -0.0058 -0.7039 -0.1260
 5126TIP3    H215385   5.407   5.393   5.047 -0.0828  0.9663  0.8243
 5127TIP3   OH215386   1.389   0.119   3.705  0.0996 -0.0704  0.6576
 5127TIP3    H115387   1.392   0.068   3.785  1.2752 -0.6964  0.2276
 5127TIP3    H215388   1.296   0.140   3.694 -0.1935 -0.7644  1.6690
 5128TIP3   OH215389   1.011   3.736   4.109  0.0179 -0.0666  0.4160
 5128TIP3    H115390   0.960   3.660   4.082  2.6740 -0.9661 -2.6357
 5128TIP3    H215391   1.087   3.700   4.155  0.7369  0.8195 -0.0417
 5129TIP3   OH215392   3.454   1.361   4.372 -0.1914  0.4951 -0.2625
 5129TIP3    H115393   3.375   1.414   4.362 -0.6682 -0.0075  0.7054
 5129TIP3    H215394   3.476   1.334   4.283 -0.6924  1.2274 -0.6220
 5130TIP3   OH215395   0.798   4.662   0.487 -0.0681  0.6159 -0.0662
 5130TIP3    H115396   0.706   4.661   0.459  0.0719  0.7906 -0.5434
 5130TIP3    H215397   0.841   4.718   0.423  0.6465 -0.6257 -0.7134
 5131TIP3   OH215398   5.438   5.884   4.606  0.2180 -0.3890  0.3577
 5131TIP3    H115399   5.355   5.927   4.627 -0.9208 -2.3482  0.0752
 5131TIP3    H215400   5.455   5.826   4.680  1.0205 -0.4733  0.1171
 5132TIP3   OH215401   1.312   5.016   4.432 -0.1236 -0.8604  0.1019
 5132TIP3    H115402   1.220   5.038   4.444  0.4100  1.4290  0.4609
 5132TIP3    H215403   1.341   4.988   4.519 -0.1365 -0.0983  0.3595
 5133TIP3   OH215404   3.495   3.720   1.498  0.0212 -0.0520 -0.3821
 5133TIP3    H115405   3.428   3.787   1.507  0.3360  0.1552  0.5154
 5133TIP3    H215406   3.455   3.653   1.442 -0.6421  0.4320 -0.4922
 5134TIP3   OH215407   6.142   2.024   1.668 -0.3965 -0.0467 -0.1168
 5134TIP3    H115408   6.082   1.953   1.690  0.2285 -0.9746 -1.2656
 5134TIP3    H215409   6.226   1.997   1.705 -0.4154  0.6870  0.4811
 5135TIP3   OH215410   2.113   1.274   1.270 -0.3541 -0.0678  0.2591
 5135TIP3    H115411   2.026   1.255   1.235 -0.2117 -0.7876  0.2663
 5135TIP3    H215412   2.109   1.245   1.361 -0.9033  2.3412  1.0734
 5136TIP3   OH215413   3.586   0.968   4.773 -0.2778 -0.3623 -0.4155
 5136TIP3    H115414   3.634   1.015   4.841 -2.1513  0.6516  0.2677
 5136TIP3    H215415   3.501   0.948   4.813 -1.4784  0.3490 -2.4853
 5137TIP3   OH215416   0.350   0.479   0.382  0.0772 -0.0044 -0.3703
 5137TIP3    H115417   0.379   0.436   0.463 -0.3674  0.2058 -0.0947
 5137TIP3    H215418   0.260   0.508   0.402 -0.6584 -1.4019 -1.4737
 5138TIP3   OH215419   5.652   3.633   4.259 -0.2145  0.5982 -0.1297
 5138TIP3    H115420   5.574   3.643   4.205 -0.6328  1.7109  0.6268
 5138TIP3    H215421   5.693   3.719   4.257  0.2218  0.4143  0.6188
 5139TIP3   OH215422   3.920   0.719   3.843  0.4626 -0.0721  0.2354
 5139TIP3    H115423   3.997   0.771   3.819  0.5828 -1.4657 -2.8909
 5139TIP3    H215424   3.847   0.781   3.840  1.0046  0.5500 -0.3294
 5140TIP3   OH215425   0.048   0.058   1.271  0.3167 -0.2622  0.5559
 5140TIP3    H115426   0.110   0.087   1.338 -1.2011  1.0707  1.4704
 5140TIP3    H215427   0.021  -0.029   1.300  1.0662 -0.4718  0.6398
 5141TIP3   OH215428   1.616   1.446   2.683  0.3886 -1.0083 -0.0427
 5141TIP3    H115429   1.556   1.517   2.706  1.9270  1.1673 -2.2302
 5141TIP3    H215430   1.624   1.395   2.763 -2.0387  0.3152  1.1698
 5142TIP3   OH215431   0.416   3.739   2.945 -0.0814 -0.4061 -0.5326
 5142TIP3    H115432   0.386   3.676   3.010  0.0329 -1.2285 -1.2660
 5142TIP3    H215433   0.502   3.767   2.977 -0.8504  0.6751  0.6762
 5143TIP3   OH215434   3.585   3.464   3.235 -0.4155 -0.0186 -0.2585
 5143TIP3    H115435   3.625   3.379   3.220  0.1214  0.2865 -0.5887
 5143TIP3    H215436   3.493   3.453   3.208 -0.3403 -0.4741 -0.3345
 5144TIP3   OH215437   0.031   3.115   3.629  0.6025  0.4662 -0.1002
 5144TIP3    H115438  -0.050   3.082   3.590  0.8421 -0.3701  0.0943
 5144TIP3    H215439   0.045   3.060   3.706  0.3272  1.8641  0.9868
 5145TIP3   OH215440   0.093   2.975   3.849 -0.4348  0.2517 -0.6596
 5145TIP3    H115441   0.160   2.908   3.843 -0.3862  0.3870 -1.9432
 5145TIP3    H215442   0.110   3.020   3.932  0.2939 -0.5075 -0.3941
 5146TIP3   OH215443   2.197   2.072   0.552 -0.2476 -0.2939  0.1355
 5146TIP3    H115444   2.237   2.153   0.520  0.9588 -1.3456 -1.1373
 5146TIP3    H215445   2.263   2.033   0.609 -0.9833 -0.2234  1.0693
 5147TIP3   OH215446   3.714   1.588   4.078 -0.4268  0.3640 -0.3754
 5147TIP3    H115447   3.622   1.601   4.056 -0.6067  0.1394  0.2232
 5147TIP3    H215448   3.734   1.658   4.139 -0.9408 -1.0982  1.5523
 5148TIP3   OH215449   0.165   5.698   4.017  0.2004  0.0526  0.0079
 5148TIP3    H115450   0.164   5.664   3.927 -0.6924 -0.7527  0.3020
 5148TIP3    H215451   0.210   5.782   4.010 -0.0412  0.1110 -1.2349
 5149TIP3   OH215452   5.783   4.881   0.593 -0.0102  0.4592 -0.2541
 5149TIP3    H115453   5.704   4.900   0.543  0.5343  0.9683 -0.9237
 5149TIP3    H215454   5.853   4.929   0.549  0.8087 -0.5462 -0.0879
 5150TIP3   OH215455   5.445   2.140   0.727  0.2710  0.5610  0.2741
 5150TIP3    H115456   5.495   2.170   0.651 -1.8954  1.7063 -0.8105
 5150TIP3    H215457   5.505   2.150   0.801  2.1492  0.2898 -1.1384
 5151TIP3   OH215458   4.960   4.326   4.688 -0.2404 -0.3382  0.0940
 5151TIP3    H115459   4.890   4.328   4.754  0.7027  1.0100  1.1160
 5151TIP3    H215460   4.977   4.418   4.669 -0.9417 -0.6822 -2.6150
 5152TIP3   OH215461   5.592   2.204   0.494 -1.2283 -0.1405 -0.8982
 5152TIP3    H115462   5.682   2.231   0.480 -1.3384  0.3571 -0.6638
 5152TIP3    H215463   5.583   2.123   0.443 -0.2433 -0.9768  0.1966
 5153TIP3   OH215464   5.134   1.750   1.111  0.4325 -0.3472 -0.3419
 5153TIP3    H115465   5.103   1.718   1.027  1.2315  0.0264 -0.7900
 5153TIP3    H215466   5.109   1.683   1.174 -0.6009 -0.4025 -0.7992
 5154TIP3   OH215467   3.911   0.800   2.731 -0.1331  0.2644  0.1705
 5154TIP3    H115468   3.988   0.827   2.782 -0.0250 -0.9247  0.6621
 5154TIP3    H215469   3.850   0.873   2.739  0.6902  0.9534  0.3037
 5155TIP3   OH215470   4.026   2.344   3.485 -0.2008 -0.4059 -0.5101
 5155TIP3    H115471   3.992   2.256   3.501 -1.2938 -0.3699 -2.3534
 5155TIP3    H215472   3.961   2.386   3.429 -0.0034  1.8254  0.7735
 5156TIP3   OH215473   1.621   3.670   3.760  0.0547  0.5414  0.3340
 5156TIP3    H115474   1.665   3.597   3.717  0.0683  1.0987 -0.6253
 5156TIP3    H215475   1.682   3.743   3.751 -0.9557  1.2864 -0.8772
 5157TIP3   OH215476   4.953   1.772   3.574 -0.3980  0.3557  0.8286
 5157TIP3    H115477   4.862   1.744   3.581  0.1727 -1.5596  1.4740
 5157TIP3    H215478   4.980   1.743   3.486 -0.4600  1.1555  0.5347
 5158TIP3   OH215479   2.237   3.041   4.500  0.6458 -0.2709  0.1199
 5158TIP3    H115480   2.239   3.036   4.404  1.0238 -1.0274  0.1599
 5158TIP3    H215481   2.153   3.084   4.520 -0.1606 -1.4885 -0.5075
 5159TIP3   OH215482   2.547   2.899   4.861  0.2502 -0.2241 -0.3835
 5159TIP3    H115483   2.584   2.938   4.941  1.2655  1.7197 -1.7051
 5159TIP3    H215484   2.622   2.890   4.802 -0.5683 -1.0656 -1.3397
 5160TIP3   OH215485   0.297   1.745   3.327  0.5273 -0.2386  0.0529
 5160TIP3    H115486   0.278   1.837   3.309 -0.9161 -0.7704 -1.4134
 5160TIP3    H215487   0.351   1.717   3.253 -1.2700 -1.2055 -0.9459
 5161TIP3   OH215488   4.496   2.206   3.306 -0.0311  0.1536 -0.0617
 5161TIP3    H115489   4.502   2.281   3.248  0.7058  0.3324  0.2286
 5161TIP3    H215490   4.402   2.190   3.316 -0.1935  1.0580 -0.0899
 5162TIP3   OH215491   0.583   4.462   3.609  0.2531 -0.2305  0.8063
 5162TIP3    H115492   0.641   4.531   3.643  0.7728 -1.4870  2.6423
 5162TIP3    H215493   0.643   4.400   3.567  0.0872 -0.7195  1.2730
 5163TIP3   OH215494   0.429   4.400   3.832  0.6690 -0.0611 -0.0265
 5163TIP3    H115495   0.502   4.451   3.795  0.6371  0.4570  0.6031
 5163TIP3    H215496   0.358   4.464   3.840  1.2997  0.4043  2.8443
 5164TIP3   OH215497   4.276   0.346   0.771  0.1070  0.7852  0.9813
 5164TIP3    H115498   4.316   0.426   0.736  0.8633 -1.2741 -3.5853
 5164TIP3    H215499   4.350   0.293   0.801 -0.0296  0.3297  0.5156
 5165TIP3   OH215500   3.335   5.051   1.456  0.1904  0.1255 -0.3172
 5165TIP3    H115501   3.357   4.985   1.391 -1.6310  0.3185 -1.2075
 5165TIP3    H215502   3.245   5.076   1.435  0.0593  1.2694  1.3826
 5166TIP3   OH215503   3.131   3.534   1.895 -0.5406  0.2008 -0.0575
 5166TIP3    H115504   3.151   3.574   1.980 -0.0220 -1.3792  0.5923
 5166TIP3    H215505   3.185   3.583   1.832  1.6382 -0.7458  0.9884
 5167TIP3   OH215506   1.583   2.928   3.596 -0.4812  0.5057 -0.4098
 5167TIP3    H115507   1.663   2.935   3.647 -0.5329 -0.6899 -0.1514
 5167TIP3    H215508   1.513   2.947   3.659 -0.5625 -1.2397  0.0621
 5168TIP3   OH215509   2.873   0.367   0.093  0.1932 -0.4171 -0.1842
 5168TIP3    H115510   2.917   0.298   0.044 -1.0222 -1.4329  0.1020
 5168TIP3    H215511   2.888   0.446   0.041  2.7527 -0.5980  0.1769
 5169TIP3   OH215512   1.980   3.263   3.424  0.0103 -0.1001  0.1511
 5169TIP3    H115513   2.024   3.215   3.354  2.4780  1.9380  0.1253
 5169TIP3    H215514   1.937   3.336   3.380 -1.0623 -0.5097  0.4913
 5170TIP3   OH215515   6.264   4.094   4.433  0.4884  0.2148  0.0789
 5170TIP3    H115516   6.225   4.125   4.351  1.1290 -1.9752 -1.1433
 5170TIP3    H215517   6.190   4.066   4.486  0.0765  1.5125  0.2231
 5171TIP3   OH215518   4.336   2.250   2.720 -0.1845  0.0569 -0.1345
 5171TIP3    H115519   4.255   2.199   2.715 -0.4246  0.5305 -1.3129
 5171TIP3    H215520   4.306   2.341   2.717  0.2439  0.2985  1.8311
 5172TIP3   OH215521   2.081   3.754   3.142  0.2708  0.3138 -0.0077
 5172TIP3    H115522   2.052   3.664   3.128  0.4425  0.1152  0.8370
 5172TIP3    H215523   2.105   3.786   3.055  0.1778 -0.4447 -0.3172
 5173TIP3   OH215524   1.954   4.574   3.483  0.5447  0.0572 -0.6574
 5173TIP3    H115525   1.864   4.602   3.502  1.1388  2.1034 -0.6129
 5173TIP3    H215526   1.990   4.552   3.569  0.1534 -0.6107 -0.6563
 5174TIP3   OH215527   4.511   5.946   3.165 -1.1744  0.4653 -0.5815
 5174TIP3    H115528   4.517   6.036   3.198  1.5080  0.0624  0.2534
 5174TIP3    H215529   4.454   5.901   3.227  2.2832  0.1959  2.7388
 5175TIP3   OH215530   4.893   0.303   2.077  0.6016 -0.2011  0.0519
 5175TIP3    H115531   4.878   0.340   1.990 -0.5205 -1.3488 -0.2702
 5175TIP3    H215532   4.823   0.340   2.131  0.9862  0.1027  0.3496
 5176TIP3   OH215533   5.950   2.887   0.939  0.3173  0.5558 -0.4716
 5176TIP3    H115534   5.969   2.965   0.991  1.0519 -0.3946  0.7260
 5176TIP3    H215535   6.016   2.887   0.870  0.6731  0.6876 -0.1336
 5177TIP3   OH215536   3.944   4.710   1.711  0.3608  0.2680  0.4887
 5177TIP3    H115537   3.983   4.673   1.789 -0.6207 -1.3326  0.2632
 5177TIP3    H215538   3.851   4.716   1.731  0.2132  0.6043 -0.2619
 5178TIP3   OH215539   2.720   0.470   3.074  0.2436  0.2439 -0.0601
 5178TIP3    H115540   2.668   0.477   2.994  0.0004 -0.2681  0.0446
 5178TIP3    H215541   2.755   0.557   3.089  1.3078  0.0671 -1.4125
 5179TIP3   OH215542   4.232   0.828   2.278 -0.6031  0.0980  0.3322
 5179TIP3    H115543   4.140   0.817   2.303 -0.2321 -1.0125  1.3549
 5179TIP3    H215544   4.242   0.771   2.202 -0.2864 -1.5913  1.5601
 5180TIP3   OH215545   1.601   5.881   2.966  0.1154  0.4569 -0.0204
 5180TIP3    H115546   1.678   5.936   2.980  0.6801 -0.0438 -1.0793
 5180TIP3    H215547   1.527   5.943   2.969  0.7386  1.2874 -1.2146
 5181TIP3   OH215548   4.454   4.903   5.026  0.2491 -0.2774  0.4015
 5181TIP3    H115549   4.360   4.885   5.035  0.1041 -1.2258 -2.0092
 5181TIP3    H215550   4.496   4.838   5.082 -0.5182  0.0735  1.4118
 5182TIP3   OH215551   1.967   0.922   5.152  0.8557  0.0334 -0.2782
 5182TIP3    H115552   1.919   0.967   5.083 -1.5726 -1.9737 -0.0618
 5182TIP3    H215553   2.009   0.991   5.202 -1.7638  1.9610 -0.5854
 5183TIP3   OH215554   2.771   4.924   4.438  0.2547 -0.2962  0.9055
 5183TIP3    H115555   2.702   4.857   4.448  0.5255 -1.1555 -2.0480
 5183TIP3    H215556   2.849   4.874   4.414  1.3183  0.8775  1.8018
 5184TIP3   OH215557   6.040   1.540   1.521  0.3237  0.3781 -0.2060
 5184TIP3    H115558   6.084   1.543   1.606 -1.3214  0.3064  0.7006
 5184TIP3    H215559   6.088   1.473   1.472  2.3954  1.6317 -0.0344
 5185TIP3   OH215560   6.063   4.951   0.746  0.2191  0.2282 -0.1375
 5185TIP3    H115561   6.040   4.859   0.756  0.3399  0.2239  0.1159
 5185TIP3    H215562   6.047   4.970   0.653 -0.0194  0.0127 -0.1430
 5186TIP3   OH215563   0.413   0.195   3.294  0.0774 -0.0142 -0.2963
 5186TIP3    H115564   0.362   0.250   3.353 -1.8105 -0.8607 -1.0414
 5186TIP3    H215565   0.393   0.228   3.206  1.2851 -0.0164 -0.5862
 5187TIP3   OH215566   5.028   3.112   4.617 -0.4231  0.7130 -0.1672
 5187TIP3    H115567   4.972   3.133   4.691  0.1211 -1.3654  0.9156
 5187TIP3    H215568   4.968   3.088   4.547 -0.9169  1.1216  0.1152
 5188TIP3   OH215569   3.079   1.044   4.072 -0.3744 -0.1020  0.0351
 5188TIP3    H115570   3.162   1.091   4.071 -1.1503  1.3090 -0.8004
 5188TIP3    H215571   3.102   0.955   4.100  1.3897  0.2802 -0.1036
 5189TIP3   OH215572   5.025   3.467   4.108  0.2467  0.2178  0.2992
 5189TIP3    H115573   5.065   3.422   4.034 -0.3153  2.4711 -1.4982
 5189TIP3    H215574   4.934   3.438   4.107  0.5147 -0.6604  0.8725
 5190TIP3   OH215575   2.762   2.162   4.249  1.3327 -0.0478  0.0444
 5190TIP3    H115576   2.699   2.199   4.188 -0.2661 -1.2877  0.8482
 5190TIP3    H215577   2.719   2.168   4.334  1.8617 -1.8200  0.4794
 5191TIP3   OH215578   5.823   5.030   0.967  0.0771  0.5676  0.1286
 5191TIP3    H115579   5.770   5.005   1.042 -2.2226  0.1005 -1.5568
 5191TIP3    H215580   5.859   4.947   0.934  0.0383  0.6117 -0.0258
 5192TIP3   OH215581   0.536   1.681   0.387 -0.0900 -0.1968 -0.2016
 5192TIP3    H115582   0.492   1.607   0.346 -0.4703  0.0805 -0.2891
 5192TIP3    H215583   0.467   1.746   0.403  0.2530  0.1721 -0.1955
 5193TIP3   OH215584   2.015   2.886   3.864 -0.3693 -0.7296 -0.5777
 5193TIP3    H115585   2.054   2.960   3.912 -0.1913 -0.1731 -1.5497
 5193TIP3    H215586   2.027   2.909   3.772 -1.8752 -1.1576 -0.9005
 5194TIP3   OH215587   0.287   3.499   3.944 -0.2212 -0.1788  0.3898
 5194TIP3    H115588   0.352   3.429   3.935 -0.8249 -0.6657 -0.2408
 5194TIP3    H215589   0.263   3.521   3.854  0.3526  1.2158  0.5576
 5195TIP3   OH215590   2.859   4.383   3.994  0.2290 -0.1766 -0.2364
 5195TIP3    H115591   2.819   4.455   3.945  0.0500  0.7387  1.1736
 5195TIP3    H215592   2.927   4.425   4.046  3.7431 -1.7695 -3.1365
 5196TIP3   OH215593   0.763   3.243   1.569  0.4515  0.6882 -0.5911
 5196TIP3    H115594   0.823   3.302   1.614  0.9322 -0.2495  0.0281
 5196TIP3    H215595   0.771   3.266   1.476  0.7404  1.4773 -0.3791
 5197TIP3   OH215596   5.889   3.182   1.333 -0.3388  0.1215  0.2791
 5197TIP3    H115597   5.837   3.196   1.254 -0.3207  0.3646  0.3098
 5197TIP3    H215598   5.948   3.110   1.310  2.1130  2.4086 -1.1610
 5198TIP3   OH215599   3.310   4.436   1.204  0.5579 -0.1426 -0.5029
 5198TIP3    H115600   3.403   4.414   1.206  0.7311  0.5892  0.2642
 5198TIP3    H215601   3.266   4.355   1.179  1.5081 -0.1280 -2.4065
 5199TIP3   OH215602   1.157   3.484   1.596  0.3426 -0.4336  0.0652
 5199TIP3    H115603   1.217   3.428   1.645 -0.7909  0.0443  2.0974
 5199TIP3    H215604   1.163   3.569   1.639 -1.8029 -0.3869  0.3702
 5200TIP3   OH215605   5.150   2.256   3.811 -0.2375  0.4724 -0.3070
 5200TIP3    H115606   5.085   2.325   3.819 -1.1720 -0.3212 -0.8550
 5200TIP3    H215607   5.101   2.175   3.827  0.8191 -0.0763  0.2616
 5201TIP3   OH215608   4.781   2.685   2.064 -0.3690 -0.5113  0.3746
 5201TIP3    H115609   4.867   2.647   2.083  0.2509  0.6911  0.1284
 5201TIP3    H215610   4.751   2.717   2.149 -0.0294  0.1031  0.2717
 5202TIP3   OH215611   4.145   5.164   2.752 -0.4718  0.7050  0.3997
 5202TIP3    H115612   4.162   5.229   2.684 -0.3577 -0.3780 -0.6462
 5202TIP3    H215613   4.051   5.148   2.747 -0.2105 -0.6837 -0.7786
 5203TIP3   OH215614   3.216   5.752   0.043 -0.6896 -0.0106  0.3483
 5203TIP3    H115615   3.155   5.759   0.116  0.5965 -1.1143  1.6087
 5203TIP3    H215616   3.181   5.681  -0.011  0.0369 -1.4819  1.7149
 5204TIP3   OH215617   5.343   5.227   0.317  0.0076 -0.3856 -0.5533
 5204TIP3    H115618   5.283   5.215   0.391  1.4720  0.7763  0.9230
 5204TIP3    H215619   5.369   5.138   0.293 -1.6456 -0.8639 -0.7014
 5205TIP3   OH215620   2.772   0.365   2.772 -0.0224  0.1891 -0.0281
 5205TIP3    H115621   2.836   0.396   2.837  0.2561  0.0911 -0.2518
 5205TIP3    H215622   2.805   0.399   2.688  0.0244 -0.3013 -0.2109
 5206TIP3   OH215623   0.620   4.453   0.825 -0.3206 -0.5820  0.1372
 5206TIP3    H115624   0.646   4.367   0.857  0.0274  0.5101  3.1187
 5206TIP3    H215625   0.532   4.467   0.861  0.1273  0.7545  0.8082
 5207TIP3   OH215626   4.945   5.007   1.764 -0.2105  0.2413 -0.0264
 5207TIP3    H115627   4.869   5.061   1.740 -0.5984 -0.3387 -0.1329
 5207TIP3    H215628   4.992   4.995   1.681 -1.1002 -1.0622 -0.3917
 5208TIP3   OH215629   2.449   0.483   5.162  0.0288 -0.1016 -0.2444
 5208TIP3    H115630   2.541   0.493   5.136  0.6781  0.5367  2.0546
 5208TIP3    H215631   2.431   0.390   5.155  1.2979 -0.4254  0.5823
 5209TIP3   OH215632   4.296   5.830   4.867 -0.2879  0.5007  0.3601
 5209TIP3    H115633   4.274   5.737   4.856 -0.7777  0.5136  1.1610
 5209TIP3    H215634   4.285   5.867   4.779 -1.5938  0.0993  0.3227
 5210TIP3   OH215635   5.913   4.254   3.167 -0.2043  0.2522 -0.0324
 5210TIP3    H115636   5.971   4.195   3.214  0.4095 -0.2005 -1.3161
 5210TIP3    H215637   5.833   4.203   3.154  0.3797 -0.3817 -1.2723
 5211TIP3   OH215638   5.702   1.463   4.385  0.6940 -0.0539 -0.1226
 5211TIP3    H115639   5.741   1.395   4.439 -1.1295 -1.1609 -0.1155
 5211TIP3    H215640   5.661   1.523   4.447 -0.0559 -0.4651 -0.2169
 5212TIP3   OH215641   1.862   3.413   4.893  0.0983 -0.3702  0.3883
 5212TIP3    H115642   1.872   3.470   4.969  0.8189  0.8790 -0.6042
 5212TIP3    H215643   1.946   3.418   4.847 -0.1775 -1.4246 -0.2754
 5213TIP3   OH215644   4.914   1.177   3.697 -0.0438  0.0221 -0.3926
 5213TIP3    H115645   4.872   1.142   3.776  4.4809 -2.2880  1.3587
 5213TIP3    H215646   4.864   1.139   3.624 -2.7574  0.0655  1.3063
 5214TIP3   OH215647   6.041   2.653   1.885 -0.2824  0.3864  0.2380
 5214TIP3    H115648   6.006   2.602   1.812 -0.2740 -1.4591  1.4445
 5214TIP3    H215649   6.126   2.613   1.904  0.3016  1.6740  0.4612
 5215TIP3   OH215650   4.336   0.417   3.611  0.2557  0.4475  0.4960
 5215TIP3    H115651   4.405   0.381   3.667  0.7793  0.0863 -0.3645
 5215TIP3    H215652   4.305   0.494   3.659  1.3733  0.7171  0.8189
 5216TIP3   OH215653   3.955   3.755   0.390  0.1761  0.1808 -0.3461
 5216TIP3    H115654   3.950   3.804   0.472  0.8535  0.8306 -0.6892
 5216TIP3    H215655   3.972   3.665   0.417  2.7141  0.7521  0.1893
 5217TIP3   OH215656   0.041   5.630   0.010  0.6140  0.2955 -0.1145
 5217TIP3    H115657   0.084   5.545  -0.003  0.0972 -0.0214  0.2403
 5217TIP3    H215658   0.050   5.648   0.103  0.8314  0.7013 -0.2067
 5218TIP3   OH215659   5.897   4.111   4.810 -0.5204 -0.0067 -0.5094
 5218TIP3    H115660   5.930   4.109   4.900 -0.0365 -0.7271 -0.6925
 5218TIP3    H215661   5.912   4.201   4.781 -2.7958  0.8849  0.8797
 5219TIP3   OH215662   5.597   1.145   2.167  0.4695 -0.2044 -0.2913
 5219TIP3    H115663   5.550   1.085   2.109  1.2555  0.5615 -1.7698
 5219TIP3    H215664   5.528   1.198   2.209 -0.1030 -0.7250 -0.5672
 5220TIP3   OH215665   0.132   4.178   0.366 -0.7606 -0.0573 -0.0651
 5220TIP3    H115666   0.160   4.152   0.278 -1.8655 -1.2713 -0.0816
 5220TIP3    H215667   0.130   4.097   0.417 -0.0467  0.6418  1.1255
 5221TIP3   OH215668   4.971   3.586   4.431  0.4889 -0.2223  0.3846
 5221TIP3    H115669   4.952   3.496   4.405  0.3705 -0.0893 -0.0051
 5221TIP3    H215670   5.023   3.621   4.359  1.2736 -0.2390  0.9321
 5222TIP3   OH215671   6.105   1.472   0.291  0.3617  0.1943 -0.0602
 5222TIP3    H115672   6.035   1.511   0.343  0.1829  0.2504 -0.3440
 5222TIP3    H215673   6.063   1.402   0.241  0.5553  0.0632 -0.0410
 5223TIP3   OH215674   6.212   5.587   1.552  0.3090  0.4290 -0.5882
 5223TIP3    H115675   6.161   5.507   1.546 -0.1561  0.7454 -0.9147
 5223TIP3    H215676   6.273   5.571   1.624 -0.8169  0.3458  0.3834
 5224TIP3   OH215677   1.652   0.271   2.711 -0.0171 -0.2230  0.7009
 5224TIP3    H115678   1.623   0.180   2.715 -1.6967  0.2067 -0.6060
 5224TIP3    H215679   1.733   0.268   2.659 -0.7554 -0.8435 -0.4513
 5225TIP3   OH215680   3.940   5.168   0.409  0.2187 -0.0788 -0.0286
 5225TIP3    H115681   4.005   5.207   0.468 -0.5487 -1.0983  1.5575
 5225TIP3    H215682   3.858   5.213   0.432 -0.3623 -1.4579  0.7219
 5226TIP3   OH215683   5.305   3.796   4.569  0.4068 -0.1890  0.4293
 5226TIP3    H115684   5.286   3.887   4.594 -1.2598 -0.7410  1.2925
 5226TIP3    H215685   5.400   3.794   4.559  0.5997  1.3640  1.5422
 5227TIP3   OH215686   5.510   1.900   3.928  0.2077 -0.1980  0.1949
 5227TIP3    H115687   5.593   1.909   3.975  0.6917 -1.0951 -0.4689
 5227TIP3    H215688   5.535   1.870   3.841 -0.8720 -1.4674  0.2969
 5228TIP3   OH215689   5.025   5.127   4.633 -0.5780  0.7500 -0.0889
 5228TIP3    H115690   4.932   5.141   4.614 -0.6982 -0.4201 -0.4338
 5228TIP3    H215691   5.031   5.139   4.728 -1.3962 -0.7056  0.1721
 5229TIP3   OH215692   5.482   3.597   2.689  0.1932 -0.3991  0.0653
 5229TIP3    H115693   5.454   3.610   2.598  0.8294 -0.0580 -0.0935
 5229TIP3    H215694   5.425   3.528   2.722  0.9873 -1.6536 -1.0837
 5230TIP3   OH215695   0.800   3.503   4.143 -0.4555 -0.3768 -0.8526
 5230TIP3    H115696   0.746   3.546   4.076 -0.4231  0.2368 -0.4966
 5230TIP3    H215697   0.770   3.543   4.225  0.3167 -0.2700 -0.6194
 5231TIP3   OH215698   4.941   0.374   3.859 -0.2711 -0.1420 -0.2759
 5231TIP3    H115699   5.019   0.425   3.838 -0.0066 -0.6825 -0.6144
 5231TIP3    H215700   4.915   0.334   3.776 -1.5068  0.8421 -0.3922
 5232TIP3   OH215701   4.249   1.072   3.944  0.2007 -0.0819  0.4851
 5232TIP3    H115702   4.244   1.164   3.972  0.0479 -0.9411  3.6274
 5232TIP3    H215703   4.159   1.042   3.944  0.0602  0.0980 -2.1636
 5233TIP3   OH215704   5.532   0.371   4.249  0.0768 -0.1073  0.6996
 5233TIP3    H115705   5.547   0.306   4.319  0.9487  0.7798  1.3542
 5233TIP3    H215706   5.456   0.421   4.279 -0.2003 -0.4047  0.5002
 5234TIP3   OH215707   5.437   0.425   1.431  0.0635 -0.2673  0.3371
 5234TIP3    H115708   5.404   0.427   1.342  1.2257  1.1030 -0.0969
 5234TIP3    H215709   5.529   0.450   1.424  0.7895 -2.2780  1.6811
 5235TIP3   OH215710   0.498   3.617   2.690  0.3845 -0.1328 -0.2108
 5235TIP3    H115711   0.416   3.610   2.641 -0.2308 -0.7264  0.8802
 5235TIP3    H215712   0.471   3.641   2.779  1.4768  0.8554 -0.1260
 5236TIP3   OH215713   4.503   4.232   3.172  0.0969  0.1636 -0.1988
 5236TIP3    H115714   4.559   4.271   3.239  0.7610 -0.2952 -0.4798
 5236TIP3    H215715   4.542   4.147   3.154 -0.9825 -0.3819 -0.0442
 5237TIP3   OH215716   0.962   0.934   4.945  0.3008 -0.1750 -0.5183
 5237TIP3    H115717   0.909   0.937   4.866 -0.6350  0.5611  0.1136
 5237TIP3    H215718   0.951   1.021   4.985  1.2217 -0.3333  0.1238
 5238TIP3   OH215719   0.482   2.109   2.734  0.3426 -0.1319  0.5846
 5238TIP3    H115720   0.411   2.174   2.733  0.4852  0.0395  1.1900
 5238TIP3    H215721   0.443   2.032   2.693 -0.1509  0.0134  0.7613
 5239TIP3   OH215722   6.304   0.322   1.244 -0.0100 -0.2908  0.1902
 5239TIP3    H115723   6.324   0.311   1.151  0.7256  0.1314  0.2891
 5239TIP3    H215724   6.303   0.233   1.279 -1.2554 -0.5231 -0.4048
 5240TIP3   OH215725   2.256   4.463   2.409 -0.1475 -0.0837 -0.1141
 5240TIP3    H115726   2.238   4.466   2.502 -0.8553  0.7158 -0.2700
 5240TIP3    H215727   2.306   4.543   2.391  0.3346 -0.4319 -0.3568
 5241TIP3   OH215728   0.310   0.269   5.152  0.5812  0.1611  0.2125
 5241TIP3    H115729   0.282   0.182   5.125 -0.9065  0.9255 -0.8742
 5241TIP3    H215730   0.401   0.275   5.123  0.3055 -0.5723 -0.8720
 5242TIP3   OH215731   6.211   0.630   4.514 -0.2510 -0.4228  0.1445
 5242TIP3    H115732   6.237   0.701   4.572  1.6913  0.4039 -1.6073
 5242TIP3    H215733   6.123   0.607   4.543 -0.0029  1.0176  2.3275
 5243TIP3   OH215734   0.921   0.701   5.051  0.0709 -0.0625 -0.4007
 5243TIP3    H115735   0.940   0.790   5.022  0.3610  1.0474  2.8853
 5243TIP3    H215736   0.826   0.697   5.056  0.0640  0.0771 -0.4168
 5244TIP3   OH215737   6.138   1.728   0.063 -0.0591 -0.3067  0.0925
 5244TIP3    H115738   6.089   1.797   0.108  0.5008  1.2159 -1.4987
 5244TIP3    H215739   6.070   1.666   0.035 -0.6975  0.1065  0.6838
 5245TIP3   OH215740   5.907   5.798   2.724  0.3872 -0.1245 -0.4355
 5245TIP3    H115741   5.978   5.801   2.660  0.3314 -0.2381 -0.5026
 5245TIP3    H215742   5.911   5.709   2.760  0.9289  0.1880  0.2968
 5246TIP3   OH215743   2.905   1.037   1.441 -0.4261 -0.3190 -0.3586
 5246TIP3    H115744   2.919   1.032   1.347 -0.2213  1.6388 -0.4661
 5246TIP3    H215745   2.971   1.098   1.473 -0.1370 -1.3564  1.1522
 5247TIP3   OH215746   1.021   3.361   1.125  0.3688 -0.6410 -0.1547
 5247TIP3    H115747   0.972   3.293   1.079 -0.2212 -0.5218  0.2819
 5247TIP3    H215748   1.103   3.318   1.151  0.9093 -0.5931 -1.6558
 5248TIP3   OH215749   1.090   5.711   1.082  0.3809  0.1900  0.8103
 5248TIP3    H115750   1.140   5.792   1.073  1.5049 -0.5701 -0.1505
 5248TIP3    H215751   1.061   5.710   1.173  0.3686  1.6478  0.8406
 5249TIP3   OH215752   6.041   4.147   2.473 -0.3730  0.2424  0.0192
 5249TIP3    H115753   6.077   4.232   2.447  1.3553 -0.6452 -0.6444
 5249TIP3    H215754   6.108   4.110   2.530 -0.3141 -1.3703 -1.0519
 5250TIP3   OH215755   1.283   2.012   0.946 -0.0077 -0.4832 -0.0641
 5250TIP3    H115756   1.191   2.026   0.922  0.1249  1.7834  0.5260
 5250TIP3    H215757   1.325   1.980   0.866 -0.6608  1.6551 -1.3346
 5251TIP3   OH215758   3.382   0.965   1.549  0.1501 -0.1852 -0.2885
 5251TIP3    H115759   3.442   0.941   1.619  1.2980  0.4653 -1.0206
 5251TIP3    H215760   3.351   1.052   1.573  1.7400  0.7119 -1.3091
 5252TIP3   OH215761   2.365   2.611   4.581 -0.0396 -0.3105 -0.7423
 5252TIP3    H115762   2.416   2.555   4.639 -2.4597 -2.5270 -0.6081
 5252TIP3    H215763   2.367   2.697   4.623  1.2083 -1.0092  0.7025
 5253TIP3   OH215764   4.816   0.476   4.991 -0.4911  0.3468  0.4241
 5253TIP3    H115765   4.858   0.392   4.972  0.2087  1.1487 -1.9293
 5253TIP3    H215766   4.739   0.453   5.044 -0.1796 -1.7402  0.0576
 5254TIP3   OH215767   1.348   5.084   0.081  0.0052  0.5766 -0.7480
 5254TIP3    H115768   1.304   5.128   0.008 -1.6574 -0.6514 -0.5647
 5254TIP3    H215769   1.406   5.020   0.039 -3.8691 -3.0447 -1.3058
 5255TIP3   OH215770   0.084   0.999   3.266 -0.0361 -1.3784  0.0205
 5255TIP3    H115771   0.012   1.046   3.307 -0.6195  0.9949 -3.3162
 5255TIP3    H215772   0.041   0.935   3.208  0.3385  0.3119 -2.2919
 5256TIP3   OH215773   0.511   2.973   2.279  0.3772  0.1691 -0.1628
 5256TIP3    H115774   0.476   2.915   2.211  0.7972  1.3207 -1.4093
 5256TIP3    H215775   0.605   2.958   2.279  0.1671 -1.7201  2.0419
 5257TIP3   OH215776   3.250   3.029   1.564  0.2990  0.0243  0.1916
 5257TIP3    H115777   3.184   3.004   1.500  0.1368 -0.5071  0.5613
 5257TIP3    H215778   3.313   3.081   1.515 -0.2480  0.2992 -0.2227
 5258TIP3   OH215779   1.354   3.615   5.166  0.3516  0.1451 -0.1944
 5258TIP3    H115780   1.345   3.710   5.164  1.6503  0.3525  1.2766
 5258TIP3    H215781   1.303   3.584   5.092  0.0879  2.0031 -0.8416
 5259TIP3   OH215782   0.242   3.601   0.955  0.1157 -0.4873 -0.1431
 5259TIP3    H115783   0.178   3.578   0.888 -0.2404  1.9898 -0.7727
 5259TIP3    H215784   0.284   3.519   0.978  0.5809 -1.4217 -3.7341
 5260TIP3   OH215785   2.481   5.682   1.883  0.6881 -0.5006 -0.4875
 5260TIP3    H115786   2.538   5.744   1.836  0.1618  0.5532  0.2137
 5260TIP3    H215787   2.393   5.719   1.875  0.3065 -1.3525 -0.3425
 5261TIP3   OH215788   0.094   5.582   3.090 -0.1014  0.7010 -0.0730
 5261TIP3    H115789   0.003   5.607   3.100 -0.2895 -0.4842  1.5761
 5261TIP3    H215790   0.103   5.501   3.140  1.9562  1.0457  0.2400
 5262TIP3   OH215791   2.709   0.134   5.146 -0.7502 -0.1258  0.0311
 5262TIP3    H115792   2.620   0.168   5.155 -0.0770  1.7721 -0.0805
 5262TIP3    H215793   2.762   0.191   5.200  0.1936 -2.4330  1.7147
 5263TIP3   OH215794   4.403   4.112   2.827 -0.1701 -0.1370  0.4955
 5263TIP3    H115795   4.394   4.027   2.869  0.6081 -0.7349 -0.4916
 5263TIP3    H215796   4.410   4.092   2.733  0.3024  0.9869  0.2660
 5264TIP3   OH215797   2.102   4.996   2.505  0.4312 -0.0990 -0.1067
 5264TIP3    H115798   2.048   5.053   2.450  0.3647  1.0633  1.1287
 5264TIP3    H215799   2.066   4.908   2.490 -2.0479  0.6614  0.8851
 5265TIP3   OH215800   5.395   3.419   0.449 -0.3481  0.2667 -0.4410
 5265TIP3    H115801   5.361   3.330   0.441 -0.5290  0.4107 -1.3975
 5265TIP3    H215802   5.340   3.471   0.391 -0.4715  1.0773  0.3866
 5266TIP3   OH215803   2.473   1.161   1.395  0.3224  0.7342 -0.1455
 5266TIP3    H115804   2.420   1.109   1.335  0.6018  0.6918 -0.3559
 5266TIP3    H215805   2.469   1.250   1.359 -0.1087  0.8504  0.1821
 5267TIP3   OH215806   1.169   1.467   5.150  0.2141 -0.3291 -0.6263
 5267TIP3    H115807   1.109   1.469   5.076 -0.5200  2.5373 -0.0699
 5267TIP3    H215808   1.113   1.480   5.227  1.2567 -0.4014  0.1753
 5268TIP3   OH215809   1.624   2.861   0.429  0.8664 -0.0362 -0.3920
 5268TIP3    H115810   1.678   2.839   0.506 -0.3903 -0.7562  0.3158
 5268TIP3    H215811   1.551   2.799   0.433 -1.3937  2.4887  0.1529
 5269TIP3   OH215812   2.176   1.387   2.111 -0.0157 -0.1582 -0.1111
 5269TIP3    H115813   2.129   1.461   2.147  1.9128 -0.3719  3.1838
 5269TIP3    H215814   2.178   1.322   2.181  2.4074 -1.4059 -1.1910
 5270TIP3   OH215815   4.124   2.450   0.603  0.6114 -0.1046 -0.0139
 5270TIP3    H115816   4.173   2.453   0.521 -0.5824 -2.0784 -0.8741
 5270TIP3    H215817   4.032   2.443   0.575  0.1744 -0.6438  1.4905
 5271TIP3   OH215818   3.999   4.232   0.835 -0.2907  0.0577  0.1422
 5271TIP3    H115819   3.989   4.313   0.886  0.8381  1.2225 -1.3697
 5271TIP3    H215820   3.910   4.208   0.810 -0.7131  0.3639  1.2849
 5272TIP3   OH215821   2.464   2.558   3.363 -0.5309 -0.0058  0.2100
 5272TIP3    H115822   2.385   2.588   3.408 -0.4076 -0.0692  0.4718
 5272TIP3    H215823   2.439   2.474   3.323 -0.8037  0.3220 -0.3149
 5273TIP3   OH215824   5.959   1.799   4.386 -0.1031  0.0616  0.1551
 5273TIP3    H115825   5.912   1.753   4.457  1.6605 -2.2378 -0.0358
 5273TIP3    H215826   6.038   1.833   4.428  0.0439  0.3243 -0.3309
 5274TIP3   OH215827   1.695   1.775   2.011 -0.0337  0.1922 -0.4698
 5274TIP3    H115828   1.715   1.824   1.931  0.3220 -0.3475 -0.7189
 5274TIP3    H215829   1.749   1.696   2.005 -1.8255 -1.0751 -0.8949
 5275TIP3   OH215830   1.118   3.025   3.326  0.1936  0.1254 -0.4627
 5275TIP3    H115831   1.181   2.952   3.319 -0.4417 -0.6243  1.1182
 5275TIP3    H215832   1.034   2.986   3.300  0.2173  0.9370 -1.8632
 5276TIP3   OH215833   4.626   5.898   3.512 -0.0859  0.6292 -0.2828
 5276TIP3    H115834   4.617   5.858   3.426  1.5369 -0.8665  0.1834
 5276TIP3    H215835   4.588   5.834   3.572  1.2298  0.3818  0.3334
 5277TIP3   OH215836   2.771   3.870   2.909 -0.2129 -0.0582 -0.5183
 5277TIP3    H115837   2.679   3.892   2.921 -0.2160 -0.0537 -0.5487
 5277TIP3    H215838   2.814   3.901   2.989  0.1170  2.0176 -1.4330
 5278TIP3   OH215839   4.571   0.792   4.479  0.4243 -0.1402 -0.0702
 5278TIP3    H115840   4.610   0.856   4.418  2.2245 -0.3343  0.8122
 5278TIP3    H215841   4.646   0.755   4.526 -0.7250 -1.7285  0.5965
 5279TIP3   OH215842   4.075   2.965   1.012 -0.3414 -0.5718  0.0149
 5279TIP3    H115843   4.118   3.047   1.037  0.5469 -1.3108  0.9558
 5279TIP3    H215844   4.062   2.973   0.917  0.7337  0.1988 -0.0815
 5280TIP3   OH215845   3.635   4.542   2.932  0.5948 -0.0087 -0.1154
 5280TIP3    H115846   3.668   4.453   2.920 -1.7178 -0.6815 -2.4856
 5280TIP3    H215847   3.561   4.533   2.992  0.6475  0.3922  0.0132
 5281TIP3   OH215848   3.556   3.392   1.836  0.4492  0.3102  0.2690
 5281TIP3    H115849   3.642   3.349   1.830  0.2415 -0.0507 -0.2282
 5281TIP3    H215850   3.520   3.361   1.919  0.7761  0.4155  0.4501
 5282TIP3   OH215851   5.570   4.930   4.988  0.5019  0.2634 -0.2782
 5282TIP3    H115852   5.619   5.012   4.982  1.1037 -0.0474  0.2634
 5282TIP3    H215853   5.585   4.900   5.078 -0.2893 -0.0814 -0.2565
 5283TIP3   OH215854   1.166   3.760   2.802 -0.7509 -0.0421 -0.2258
 5283TIP3    H115855   1.158   3.684   2.860  1.6105 -0.6188 -0.5473
 5283TIP3    H215856   1.191   3.723   2.718 -2.0906  0.9487 -1.1016
 5284TIP3   OH215857   0.229   4.120   0.979  0.7427  0.1203  0.4555
 5284TIP3    H115858   0.225   4.029   0.951 -0.4029  0.6080 -1.0830
 5284TIP3    H215859   0.297   4.121   1.046  0.5913 -1.9018  0.6972
 5285TIP3   OH215860   0.676   5.278   3.974  0.7419 -0.3656  0.3021
 5285TIP3    H115861   0.720   5.355   4.011  0.7770 -0.3073  0.1439
 5285TIP3    H215862   0.667   5.299   3.881 -1.1417  0.3570  0.5981
 5286TIP3   OH215863   1.476   5.366   0.162 -0.3396  0.0364  0.4790
 5286TIP3    H115864   1.427   5.293   0.125 -0.9610  0.9685 -0.6304
 5286TIP3    H215865   1.567   5.337   0.163 -0.4522 -0.4251 -0.8333
 5287TIP3   OH215866   5.802   5.467   0.823  0.1417  0.5366 -0.1563
 5287TIP3    H115867   5.821   5.389   0.772 -0.4121 -0.0665  0.5333
 5287TIP3    H215868   5.876   5.476   0.883  0.6317  1.0527 -0.8383
 5288TIP3   OH215869   1.415   2.507   4.655 -0.1328  0.1321 -0.0258
 5288TIP3    H115870   1.498   2.491   4.699  0.4753  0.2168 -1.0960
 5288TIP3    H215871   1.417   2.599   4.632 -0.5232  0.1333 -0.0627
 5289TIP3   OH215872   2.663   0.635   3.542  0.1323 -0.7761 -0.3164
 5289TIP3    H115873   2.675   0.542   3.523  0.0107 -0.6293 -1.1491
 5289TIP3    H215874   2.569   0.649   3.536  0.1555 -0.5890 -0.2472
 5290TIP3   OH215875   6.226   4.551   3.185 -0.1833 -0.5888 -0.1455
 5290TIP3    H115876   6.318   4.576   3.184  0.3034 -1.6165  3.5564
 5290TIP3    H215877   6.228   4.455   3.175 -0.8949 -0.5803 -0.4148
 5291TIP3   OH215878   1.385   0.376   1.148 -0.4219  0.6755 -0.3831
 5291TIP3    H115879   1.406   0.322   1.225 -0.4409  0.3235 -0.6189
 5291TIP3    H215880   1.427   0.330   1.075 -0.9161  0.6684 -0.6683
 5292TIP3   OH215881   3.716   0.332   3.606 -0.5270  0.0472 -0.4650
 5292TIP3    H115882   3.778   0.347   3.535  0.3871 -0.4086  0.2214
 5292TIP3    H215883   3.762   0.360   3.685 -1.3845  0.1787  0.0055
 5293TIP3   OH215884   0.576   0.979   4.849  0.0489 -0.2128  0.2113
 5293TIP3    H115885   0.600   0.968   4.942  0.7345 -0.1569  0.0485
 5293TIP3    H215886   0.521   0.903   4.830 -1.3910  0.5729  1.0672
 5294TIP3   OH215887   1.784   5.588   3.526  0.6163  0.0880  0.0006
 5294TIP3    H115888   1.796   5.633   3.443 -0.6936  0.1475 -0.1761
 5294TIP3    H215889   1.777   5.495   3.503 -0.9930  0.2108 -0.1227
 5295TIP3   OH215890   1.758   0.101   0.242  0.0713 -0.2899  0.4130
 5295TIP3    H115891   1.810   0.099   0.161 -0.8583  0.6781 -0.2395
 5295TIP3    H215892   1.721   0.014   0.250 -0.3621 -0.1993 -0.5713
 5296TIP3   OH215893   2.955   5.981   3.790 -0.4023 -0.1845 -0.1404
 5296TIP3    H115894   3.037   6.017   3.755 -0.6719 -0.6670 -1.3186
 5296TIP3    H215895   2.983   5.909   3.847 -0.0060 -1.2679 -1.6250
 5297TIP3   OH215896   2.515   1.809   1.336  0.8004  0.0830  0.8404
 5297TIP3    H115897   2.599   1.825   1.379  2.0662 -0.8117 -1.1350
 5297TIP3    H215898   2.535   1.742   1.270 -1.8472 -1.4544  1.4488
 5298TIP3   OH215899   4.310   2.219   3.933  0.2212  0.5503 -0.2355
 5298TIP3    H115900   4.306   2.197   4.026  1.7982 -0.1850 -0.3084
 5298TIP3    H215901   4.224   2.255   3.913 -0.1596  0.6733  1.4924
 5299TIP3   OH215902   3.673   5.223   2.734 -0.2259 -0.0186  0.1091
 5299TIP3    H115903   3.758   5.222   2.691 -0.7743 -0.3461 -1.0209
 5299TIP3    H215904   3.689   5.184   2.820  0.9223  0.7637  0.2688
 5300TIP3   OH215905   3.595   0.214   2.394 -0.1193  0.0466 -0.3136
 5300TIP3    H115906   3.615   0.137   2.448 -1.1720 -1.1254 -1.5224
 5300TIP3    H215907   3.600   0.288   2.455  1.6332 -0.8641  0.7336
 5301TIP3   OH215908   4.090   2.465   0.881 -0.4992 -0.9559  0.3360
 5301TIP3    H115909   4.158   2.524   0.916 -1.1251 -0.1405  0.2167
 5301TIP3    H215910   4.131   2.424   0.806 -0.2144 -0.2622  0.0997
 5302TIP3   OH215911   2.011   4.177   2.488 -0.3838 -0.2162 -0.1130
 5302TIP3    H115912   2.079   4.197   2.424 -0.4357  0.1059 -0.0654
 5302TIP3    H215913   1.977   4.262   2.516  1.0186 -0.2464  1.8379
 5303TIP3   OH215914   0.535   5.155   1.730  0.1945  0.1483  0.3572
 5303TIP3    H115915   0.510   5.237   1.687  0.7840 -0.1605 -0.5983
 5303TIP3    H215916   0.453   5.107   1.738  0.1405  0.0103 -0.8796
 5304TIP3   OH215917   5.098   1.265   3.356  0.0157 -0.2063 -0.6666
 5304TIP3    H115918   5.098   1.333   3.288 -0.6785 -0.2699 -0.7350
 5304TIP3    H215919   5.083   1.314   3.437  0.6572 -0.1527 -0.5727
 5305TIP3   OH215920   0.887   0.150   3.329 -0.1560 -0.2684 -0.2117
 5305TIP3    H115921   0.792   0.148   3.316 -0.3273  0.2518  0.8892
 5305TIP3    H215922   0.917   0.066   3.293 -1.3917 -1.7700  2.0176
 5306TIP3   OH215923   5.235   3.607   3.298  0.7335  0.0954  0.1649
 5306TIP3    H115924   5.327   3.627   3.288  0.5777  0.0143 -2.0073
 5306TIP3    H215925   5.233   3.520   3.338  1.7021 -0.8262 -1.6592
 5307TIP3   OH215926   5.779   4.378   5.084 -0.4426  0.2374  0.1076
 5307TIP3    H115927   5.867   4.353   5.112 -0.7971 -0.2657  0.8266
 5307TIP3    H215928   5.792   4.447   5.020  0.4333  1.0177  1.0957
 5308TIP3   OH215929   1.618   0.700   3.264 -0.8614  0.2967 -0.6885
 5308TIP3    H115930   1.558   0.766   3.297  0.6881  1.0297  0.8590
 5308TIP3    H215931   1.576   0.617   3.284 -0.6735  0.7474  1.9274
 5309TIP3   OH215932   0.669   5.659   4.269  0.0285  0.2530 -0.2258
 5309TIP3    H115933   0.613   5.736   4.275 -1.0755 -0.6118  0.9945
 5309TIP3    H215934   0.615   5.587   4.300  0.5461 -1.3226 -2.6783
 5310TIP3   OH215935   5.050   0.585   0.319 -0.4266 -0.3815 -0.3883
 5310TIP3    H115936   5.007   0.510   0.361 -2.1733 -0.3914 -2.0357
 5310TIP3    H215937   5.130   0.549   0.281 -1.7733 -1.7761 -2.1242
 5311TIP3   OH215938   0.567  -0.005   1.991 -0.1983 -0.3743 -0.2697
 5311TIP3    H115939   0.661   0.014   1.994  0.1005 -1.5818 -1.2641
 5311TIP3    H215940   0.539   0.029   1.906 -0.4937 -0.7003 -0.3041
 5312TIP3   OH215941   4.415   4.188   1.848 -0.3209 -0.1196  0.2944
 5312TIP3    H115942   4.335   4.200   1.798  0.9522 -1.6822 -2.3525
 5312TIP3    H215943   4.417   4.094   1.869  0.7120 -0.0569  0.5305
 5313TIP3   OH215944   0.906   2.743   3.655 -0.2606  0.0199 -0.0424
 5313TIP3    H115945   0.838   2.697   3.703  0.2164 -1.4171 -0.6787
 5313TIP3    H215946   0.974   2.761   3.721 -0.6645  0.2624  0.3113
 5314TIP3   OH215947   5.722   0.574   0.483  0.2184 -0.2123  0.6834
 5314TIP3    H115948   5.638   0.614   0.461  1.0369  1.1151 -0.1678
 5314TIP3    H215949   5.768   0.640   0.535  1.7275  0.1697 -1.0270
 5315TIP3   OH215950   0.807   1.553   3.280 -0.5694  0.0404  0.2438
 5315TIP3    H115951   0.855   1.617   3.228 -2.9154  0.0163 -2.1736
 5315TIP3    H215952   0.867   1.479   3.289  0.6096  0.8399 -0.7494
 5316TIP3   OH215953   5.031   2.064   2.367 -0.2406  0.0334 -0.0390
 5316TIP3    H115954   5.069   1.977   2.383 -0.1619 -0.0638 -0.7008
 5316TIP3    H215955   4.975   2.080   2.442  1.0131  0.1259  0.9115
 5317TIP3   OH215956   0.399   3.350   2.824 -0.1765  0.1115  0.1006
 5317TIP3    H115957   0.309   3.382   2.819  0.0302  1.3093  2.3631
 5317TIP3    H215958   0.400   3.272   2.769 -2.1818  0.9199 -1.1954
 5318TIP3   OH215959   2.122   1.209   3.544  0.6096  0.1597 -0.6897
 5318TIP3    H115960   2.207   1.198   3.587 -0.4227 -0.5928  1.3036
 5318TIP3    H215961   2.089   1.292   3.578 -0.5963 -0.8609  0.7247
 5319TIP3   OH215962   0.308   2.802   3.831 -0.4204  0.0238  0.5863
 5319TIP3    H115963   0.326   2.714   3.864 -1.6946 -0.7879 -0.6936
 5319TIP3    H215964   0.386   2.826   3.781 -0.2528 -0.6114  0.5337
 5320TIP3   OH215965   5.086   5.815   2.442 -0.3458  0.0907  0.3759
 5320TIP3    H115966   5.112   5.830   2.533 -0.2277  0.4223  0.2896
 5320TIP3    H215967   4.992   5.794   2.448 -0.0869 -1.0172  0.6733
 5321TIP3   OH215968   0.132   1.767   1.052 -0.5470  0.0253 -0.0444
 5321TIP3    H115969   0.134   1.727   1.138 -2.3260  1.5231  0.7877
 5321TIP3    H215970   0.121   1.694   0.991  2.4837 -1.2272  0.7592
 5322TIP3   OH215971   4.339   1.597   1.975 -0.0060 -0.0329 -0.1467
 5322TIP3    H115972   4.360   1.686   2.002  0.5035 -1.0665  3.4543
 5322TIP3    H215973   4.418   1.546   1.995 -0.7413 -1.5083 -0.8196
 5323TIP3   OH215974   0.962   2.617   4.289  0.3649 -0.1563 -0.1222
 5323TIP3    H115975   0.882   2.564   4.294 -0.4524  1.0941  0.6759
 5323TIP3    H215976   0.987   2.614   4.196 -1.3374  0.4518 -0.6417
 5324TIP3   OH215977   2.456   3.895   2.310  0.3245  0.3991  0.3795
 5324TIP3    H115978   2.551   3.899   2.301  0.2862 -0.5045 -0.6388
 5324TIP3    H215979   2.431   3.982   2.342  1.2440  1.5749 -1.9091
 5325TIP3   OH215980   3.194   0.039   5.147  0.4665 -0.3516 -0.3141
 5325TIP3    H115981   3.199  -0.035   5.087  0.1810  0.9547 -2.0426
 5325TIP3    H215982   3.285   0.059   5.169  0.5094 -1.8636  1.0921
 5326TIP3   OH215983   4.182   0.191   2.358  0.0431 -0.1816 -0.0450
 5326TIP3    H115984   4.147   0.163   2.273  1.3356 -1.7909 -0.1120
 5326TIP3    H215985   4.105   0.209   2.411 -0.8126  1.9650 -1.8529
 5327TIP3   OH215986   5.800   0.131   1.762  0.2073 -0.3683  0.2506
 5327TIP3    H115987   5.845   0.051   1.735 -1.0948 -0.9388 -0.3363
 5327TIP3    H215988   5.808   0.133   1.857  1.0718 -0.6785  0.1923
 5328TIP3   OH215989   5.469   5.743   4.868  0.1593 -0.2432 -0.1460
 5328TIP3    H115990   5.528   5.815   4.889 -1.8976  0.8615  2.4641
 5328TIP3    H215991   5.521   5.664   4.885  1.4946  0.6342  0.0264
 5329TIP3   OH215992   0.522   3.209   2.117 -0.0357  0.1299 -0.3290
 5329TIP3    H115993   0.492   3.164   2.196 -0.1934 -0.3322 -0.6496
 5329TIP3    H215994   0.481   3.161   2.045  0.2473  0.4401 -0.7003
 5330TIP3   OH215995   5.983   4.902   2.731  0.1176  0.3652 -0.0600
 5330TIP3    H115996   6.070   4.862   2.733 -0.3944 -0.7718  1.0532
 5330TIP3    H215997   5.982   4.960   2.807 -0.0966  0.3502 -0.0513
 5331TIP3   OH215998   2.035   0.788   0.974 -0.0121 -0.1769  0.4307
 5331TIP3    H115999   2.024   0.877   1.006  0.9476 -0.4606  1.6034
 5331TIP3    H216000   2.015   0.732   1.049 -2.4122 -1.0728 -0.7443
 5332TIP3   OH216001   0.154   3.809   1.638  0.1057  0.0726 -0.5217
 5332TIP3    H116002   0.208   3.752   1.583 -0.0338 -1.4488  0.8608
 5332TIP3    H216003   0.216   3.871   1.676  0.7640 -1.0084  0.2326
 5333TIP3   OH216004   5.388   0.006   3.417  0.1701  0.0282  0.1195
 5333TIP3    H116005   5.296   0.027   3.405 -0.0616 -0.9656  0.0877
 5333TIP3    H216006   5.394  -0.025   3.508  0.3985 -0.2459  0.0136
 5334TIP3   OH216007   2.485   5.342   5.110  0.1025 -0.3766 -0.5774
 5334TIP3    H116008   2.406   5.373   5.154  1.1930  2.8367 -0.6315
 5334TIP3    H216009   2.453   5.300   5.030 -1.5724  0.9451 -0.6659
 5335TIP3   OH216010   3.121   0.806   4.235  0.1418  0.0099 -0.4358
 5335TIP3    H116011   3.194   0.768   4.283  0.9249  0.6832 -1.0829
 5335TIP3    H216012   3.044   0.782   4.286  0.7224 -1.4193 -0.1869
 5336TIP3   OH216013   0.157   3.517   1.285  0.1798 -1.0865  0.1224
 5336TIP3    H116014   0.129   3.447   1.226  0.1803 -1.7690  0.9205
 5336TIP3    H216015   0.096   3.589   1.268  0.5876 -1.0224 -1.1847
 5337TIP3   OH216016   2.022   5.359   1.760 -0.1452  0.5298  0.1651
 5337TIP3    H116017   1.956   5.299   1.725  0.3043  0.1195  0.0164
 5337TIP3    H216018   1.977   5.403   1.832 -0.3399 -0.3350  0.5934
 5338TIP3   OH216019   1.891   4.205   4.646 -0.4921 -0.3549  0.5955
 5338TIP3    H116020   1.904   4.282   4.590  1.6837 -0.3068  1.0749
 5338TIP3    H216021   1.865   4.135   4.586  1.9389 -0.3475 -0.5553
 5339TIP3   OH216022   2.776   3.780   1.018  0.3253  0.0686  1.0818
 5339TIP3    H116023   2.832   3.814   1.087  0.5303  0.1521  0.8758
 5339TIP3    H216024   2.756   3.855   0.963  0.9128 -0.1677  0.5324
 5340TIP3   OH216025   4.555   3.255   2.743  0.5245  0.1637  0.1738
 5340TIP3    H116026   4.521   3.267   2.831 -1.1412  0.6644 -0.5021
 5340TIP3    H216027   4.604   3.335   2.725  2.8204 -0.8774  1.4318
 5341TIP3   OH216028   2.333   5.383   2.443  0.2038  0.4186 -0.4818
 5341TIP3    H116029   2.291   5.382   2.357  0.4690  1.1987 -0.6247
 5341TIP3    H216030   2.343   5.476   2.464  1.3222  0.2383 -0.1821
 5342TIP3   OH216031   2.447   3.113   3.758  0.0481  0.1296 -0.3565
 5342TIP3    H116032   2.466   3.165   3.680  0.4896 -1.4677 -1.3748
 5342TIP3    H216033   2.465   3.023   3.731 -0.2825 -0.5190  1.4527
 5343TIP3   OH216034   5.178   1.660   4.901 -0.0157 -0.1612  0.5205
 5343TIP3    H116035   5.133   1.693   4.824 -0.4778  0.4990  1.0536
 5343TIP3    H216036   5.119   1.682   4.974  0.1982 -1.1610  1.0154
 5344TIP3   OH216037   2.089   1.270   1.874  0.1821  0.0648  0.1871
 5344TIP3    H116038   2.138   1.331   1.930  1.1612 -0.7153  0.1965
 5344TIP3    H216039   2.128   1.282   1.787 -1.9229  1.9326 -0.6089
 5345TIP3   OH216040   4.411   0.687   3.174  0.2556 -0.1204 -0.0208
 5345TIP3    H116041   4.363   0.606   3.192  2.0930 -1.2912 -0.2060
 5345TIP3    H216042   4.471   0.665   3.103  0.5678  1.5055 -0.3069
 5346TIP3   OH216043   1.283   2.415   2.608  0.2419  0.0648 -0.2198
 5346TIP3    H116044   1.334   2.453   2.679 -0.3448 -1.4267  1.0731
 5346TIP3    H216045   1.340   2.347   2.570 -0.3848 -0.9449  0.5954
 5347TIP3   OH216046   0.322   0.159   2.698 -0.0468  0.5600 -0.0877
 5347TIP3    H116047   0.396   0.161   2.758 -0.4975  0.7153  0.4641
 5347TIP3    H216048   0.248   0.129   2.751 -0.3268  0.1317 -0.6995
 5348TIP3   OH216049   1.432   4.471   0.604  0.0265  0.2213 -0.4807
 5348TIP3    H116050   1.485   4.544   0.636  1.0321 -0.0147 -1.5088
 5348TIP3    H216051   1.425   4.411   0.678  0.2154  0.8023  0.0115
 5349TIP3   OH216052   2.288   1.995   4.527  0.4405  0.9319 -0.3492
 5349TIP3    H116053   2.368   2.025   4.570  0.8460  1.2821 -1.3242
 5349TIP3    H216054   2.318   1.941   4.454 -0.1535  1.9509 -1.3826
 5350TIP3   OH216055   0.862   1.767   2.627 -0.2505 -0.5662 -0.1399
 5350TIP3    H116056   0.767   1.779   2.616 -0.4411 -0.1999  1.6312
 5350TIP3    H216057   0.883   1.690   2.575 -1.4890 -0.5550 -0.6904
 5351TIP3   OH216058   0.540   0.104   1.223 -0.0907 -0.2885  0.1695
 5351TIP3    H116059   0.564   0.149   1.142  0.5124 -0.3022  0.3375
 5351TIP3    H216060   0.623   0.088   1.267 -0.2506 -1.8612 -0.0344
 5352TIP3   OH216061   4.557   2.088   1.355  0.2110  0.0528 -0.0800
 5352TIP3    H116062   4.543   2.017   1.292  0.7586 -0.4538  0.3529
 5352TIP3    H216063   4.517   2.055   1.436 -0.1597  0.5443 -0.0548
 5353TIP3   OH216064   0.973   2.634   1.630  0.1576  0.0595 -0.2115
 5353TIP3    H116065   1.035   2.581   1.680 -0.6080  1.2032  2.1358
 5353TIP3    H216066   0.888   2.612   1.667 -0.3129  1.8536 -0.0976
 5354TIP3   OH216067   3.224   5.818   0.745  0.1958 -0.0505 -0.0141
 5354TIP3    H116068   3.307   5.793   0.786  1.7850  1.8984 -1.7896
 5354TIP3    H216069   3.193   5.738   0.703  1.4150 -0.7336  0.3503
 5355TIP3   OH216070   5.158   5.493   0.255 -0.9932 -0.2282  0.8144
 5355TIP3    H116071   5.085   5.448   0.211  0.0057 -1.3868  0.2641
 5355TIP3    H216072   5.233   5.476   0.198 -0.2417  0.7293  1.5002
 5356TIP3   OH216073   0.050   5.293   2.803 -0.3784  0.4220  0.3913
 5356TIP3    H116074   0.052   5.386   2.778  2.1869  0.1552 -0.6564
 5356TIP3    H216075   0.141   5.271   2.821 -1.0596 -1.6846  1.6079
 5357TIP3   OH216076   2.469   5.212   3.771  0.1365 -0.0087 -0.1870
 5357TIP3    H116077   2.517   5.172   3.699 -0.0118  0.6387 -0.6473
 5357TIP3    H216078   2.377   5.193   3.753  0.1984 -1.3739  0.7699
 5358TIP3   OH216079   4.191   2.686   1.783 -0.1493 -0.1821  0.0788
 5358TIP3    H116080   4.130   2.760   1.778 -0.9185 -0.7804  0.4636
 5358TIP3    H216081   4.226   2.678   1.694 -0.2751  0.4694 -0.0311
 5359TIP3   OH216082   5.146   1.966   4.360 -0.1110 -0.0147  0.2346
 5359TIP3    H116083   5.210   1.895   4.362  1.2024  1.0973 -0.3599
 5359TIP3    H216084   5.188   2.034   4.307 -0.8989  1.5847  1.5565
 5360TIP3   OH216085   0.722   3.055   0.291  0.4999 -0.4064  0.2613
 5360TIP3    H116086   0.678   3.007   0.361 -0.8051 -1.4687 -1.2315
 5360TIP3    H216087   0.804   3.007   0.277  0.5696 -0.4371  0.7596
 5361TIP3   OH216088   0.206   5.159   0.567  0.4871 -0.3574  0.1461
 5361TIP3    H116089   0.281   5.132   0.620  0.1835 -1.0905  0.2205
 5361TIP3    H216090   0.130   5.130   0.617  0.1426  0.5270  0.1477
 5362TIP3   OH216091   0.045   2.799   3.180 -0.1561 -0.3173 -0.5724
 5362TIP3    H116092   0.122   2.835   3.137  0.2266  0.2285  0.5490
 5362TIP3    H216093  -0.021   2.868   3.172 -0.1064 -0.2435 -0.3625
 5363TIP3   OH216094   1.648   2.154   2.265  0.0800 -0.0300 -0.4451
 5363TIP3    H116095   1.662   2.153   2.170 -0.1916 -1.2721 -0.4804
 5363TIP3    H216096   1.578   2.091   2.280  1.5487 -1.4596  0.7944
 5364TIP3   OH216097   2.573   0.468   1.841  0.6329  0.2621 -0.4104
 5364TIP3    H116098   2.582   0.562   1.856 -1.4497  0.6507 -1.1613
 5364TIP3    H216099   2.511   0.438   1.908 -0.0235 -0.2062 -1.1930
 5365TIP3   OH216100   3.756   5.811   0.854 -0.1965  0.0384  0.2691
 5365TIP3    H116101   3.725   5.819   0.764  0.3376 -2.0454 -0.1426
 5365TIP3    H216102   3.712   5.733   0.887  1.1016 -0.3416  1.1651
 5366TIP3   OH216103   1.553   1.123   1.201 -0.0150  0.6870  0.1681
 5366TIP3    H116104   1.546   1.029   1.186  4.5732  0.4102 -1.6777
 5366TIP3    H216105   1.521   1.163   1.120  1.2213  0.5051 -0.4210
 5367TIP3   OH216106   2.984   5.205   2.927 -0.3897 -0.1231 -0.0054
 5367TIP3    H116107   2.975   5.186   2.834  0.8317  0.0553 -0.1724
 5367TIP3    H216108   3.005   5.299   2.930  1.6934 -0.5572  0.2934
 5368TIP3   OH216109   0.859   5.842   0.022 -0.7596  0.4694  0.3295
 5368TIP3    H116110   0.812   5.771  -0.022 -1.6604  0.4749  1.2307
 5368TIP3    H216111   0.949   5.810   0.031 -0.9102 -0.1196 -0.1969
 5369TIP3   OH216112   4.012   3.300   4.957  0.4009  0.7718 -0.0642
 5369TIP3    H116113   3.947   3.230   4.952  0.0175  1.1898 -1.1459
 5369TIP3    H216114   4.049   3.291   5.045  1.0830 -1.4135 -0.4978
 5370TIP3   OH216115   1.808   1.874   4.266 -0.0835 -0.4891 -0.2569
 5370TIP3    H116116   1.850   1.789   4.260  1.7989  0.3227  0.5598
 5370TIP3    H216117   1.856   1.919   4.336 -0.5568  1.4847 -1.1359
 5371TIP3   OH216118   1.717   3.908   3.190 -0.1785 -0.2527 -0.7007
 5371TIP3    H116119   1.705   3.927   3.097 -0.8568  0.1032 -0.5470
 5371TIP3    H216120   1.629   3.891   3.223 -0.0470  0.4042  0.0399
 5372TIP3   OH216121   4.163   5.815   3.202 -0.0050  0.2392 -0.6958
 5372TIP3    H116122   4.104   5.890   3.202  0.5942  0.7279 -1.0818
 5372TIP3    H216123   4.106   5.738   3.209 -0.5318  0.7689  2.0689
 5373TIP3   OH216124   2.095   1.747   0.144 -0.0069 -0.1628  0.4022
 5373TIP3    H116125   2.114   1.814   0.210  0.2835  0.2946 -0.1365
 5373TIP3    H216126   2.177   1.737   0.096 -1.0367  1.8980 -2.0227
 5374TIP3   OH216127   1.340   4.687   4.932 -0.4109  0.3353 -0.0861
 5374TIP3    H116128   1.434   4.704   4.942 -0.4568  0.0645  1.0125
 5374TIP3    H216129   1.313   4.743   4.860  1.0104 -1.1798 -1.9164
 5375TIP3   OH216130   2.183   4.888   4.021  0.0775  0.3190 -0.2790
 5375TIP3    H116131   2.167   4.799   3.989 -1.2008 -0.0467  1.2528
 5375TIP3    H216132   2.156   4.886   4.112  0.1059  2.2766 -0.1832
 5376TIP3   OH216133   3.115   4.966   0.398  0.6365  0.4151 -0.2675
 5376TIP3    H116134   3.093   5.041   0.343  2.6083 -0.3099 -2.1848
 5376TIP3    H216135   3.210   4.958   0.392  0.6076 -1.4560  0.9268
 5377TIP3   OH216136   3.367   4.052   4.639  0.2408  0.2419  0.3318
 5377TIP3    H116137   3.369   4.124   4.576  0.4443  0.3818  0.4971
 5377TIP3    H216138   3.451   4.059   4.685 -0.5543  1.1083  1.7073
 5378TIP3   OH216139   5.043   4.563   4.537  0.3892 -0.1358 -0.0496
 5378TIP3    H116140   5.130   4.535   4.565  0.5113  0.2341 -0.0511
 5378TIP3    H216141   5.006   4.608   4.613  0.9806  1.4594 -0.6542
 5379TIP3   OH216142   4.854   2.610   2.704  0.2667 -0.2608  0.6711
 5379TIP3    H116143   4.815   2.666   2.637 -2.5517 -2.0512  0.6795
 5379TIP3    H216144   4.948   2.629   2.698  0.0032  0.6951 -2.8086
 5380TIP3   OH216145   1.601   5.341   2.489  0.1407 -0.4104  0.1135
 5380TIP3    H116146   1.593   5.431   2.521  1.0948  0.4939 -1.9641
 5380TIP3    H216147   1.588   5.287   2.566 -1.1401  1.4749  1.3192
 5381TIP3   OH216148   4.282   2.428   4.956  0.0904 -0.0609 -0.5572
 5381TIP3    H116149   4.320   2.350   4.996  1.2175 -0.0206 -1.4921
 5381TIP3    H216150   4.350   2.495   4.967 -0.3055  0.4153 -0.9797
 5382TIP3   OH216151   3.390   4.826   4.501  0.0812  0.3055  0.1324
 5382TIP3    H116152   3.358   4.903   4.547  0.2072  2.1307 -2.6194
 5382TIP3    H216153   3.330   4.756   4.526 -0.7826  1.5773  1.7593
 5383TIP3   OH216154   5.275   0.814   2.283  0.0128  0.5308  0.3915
 5383TIP3    H116155   5.280   0.727   2.324  0.3210  0.6623  0.6344
 5383TIP3    H216156   5.296   0.875   2.354  0.4883  0.7671  0.0504
 5384TIP3   OH216157   2.801   3.838   1.707 -0.0756  0.0357  0.4220
 5384TIP3    H116158   2.748   3.883   1.772 -2.6650  0.6166 -1.8709
 5384TIP3    H216159   2.742   3.772   1.670  1.6324 -0.9873 -0.5930
 5385TIP3   OH216160   6.124   1.894   3.762  0.0287  0.0811 -0.1236
 5385TIP3    H116161   6.186   1.843   3.711  1.8052  0.9044  1.1163
 5385TIP3    H216162   6.088   1.832   3.825 -0.1197 -0.2978 -0.5721
 5386TIP3   OH216163   0.579   4.136   3.437 -0.2912  0.2418  1.2317
 5386TIP3    H116164   0.568   4.057   3.384 -0.6225  0.0478  1.5932
 5386TIP3    H216165   0.502   4.189   3.417  0.6288  1.1579 -0.1605
 5387TIP3   OH216166   1.621   4.563   4.407 -0.4512 -0.0316 -0.7253
 5387TIP3    H116167   1.629   4.646   4.453 -1.8191 -0.6233  0.6754
 5387TIP3    H216168   1.597   4.500   4.475 -0.6633 -1.3284 -1.9547
 5388TIP3   OH216169   0.549   2.722   2.091 -0.7016 -0.3502  0.2351
 5388TIP3    H116170   0.494   2.651   2.122 -1.2838  0.2999  0.6934
 5388TIP3    H216171   0.603   2.682   2.023 -2.8324 -0.6583 -1.3831
 5389TIP3   OH216172   4.533   2.941   3.069  0.4645 -0.1266 -0.6701
 5389TIP3    H116173   4.578   2.905   3.145  0.0771 -1.9073 -1.2352
 5389TIP3    H216174   4.603   2.961   3.006  0.5649 -2.6638 -1.4579
 5390TIP3   OH216175   5.993   4.376   1.306 -0.0766  0.0521 -0.0042
 5390TIP3    H116176   6.037   4.393   1.389  0.3115  0.6502 -0.3265
 5390TIP3    H216177   5.901   4.368   1.329 -0.0683  0.9718  0.3931
 5391TIP3   OH216178   5.679   3.810   1.172  0.2200  0.6009  0.0507
 5391TIP3    H116179   5.607   3.781   1.226  0.6548 -2.5026 -0.8179
 5391TIP3    H216180   5.755   3.812   1.231  0.2819 -0.6562  0.0262
 5392TIP3   OH216181   5.326   2.099   2.366 -0.2624  0.2343  0.2352
 5392TIP3    H116182   5.344   2.096   2.272  1.6120  0.5876  0.5447
 5392TIP3    H216183   5.246   2.152   2.373 -0.5075  0.0983 -1.1498
 5393TIP3   OH216184   5.353   1.229   1.162  0.3680  0.0952 -0.0382
 5393TIP3    H116185   5.281   1.166   1.152  0.9891 -0.7675  0.7422
 5393TIP3    H216186   5.312   1.314   1.146 -0.6977 -0.4258 -0.2010
 5394TIP3   OH216187   4.301   2.931   1.506  0.2345  0.1034 -0.3548
 5394TIP3    H116188   4.235   2.990   1.471  1.6790  0.7803 -2.1350
 5394TIP3    H216189   4.337   2.976   1.582  2.1332  2.2101 -2.3542
 5395TIP3   OH216190   4.662   1.599   4.890  0.0972  0.1399 -0.2127
 5395TIP3    H116191   4.615   1.645   4.820 -0.4782  1.8120  1.2091
 5395TIP3    H216192   4.597   1.541   4.928 -0.4630  1.3621  0.7781
 5396TIP3   OH216193   0.743   1.392   1.600 -0.5926  0.4803 -0.5688
 5396TIP3    H116194   0.711   1.368   1.513 -0.1044  1.0516 -0.9065
 5396TIP3    H216195   0.783   1.311   1.634 -1.9356 -0.1083 -0.3359
 5397TIP3   OH216196   0.303   0.809   4.155  0.2195 -0.1242 -0.5250
 5397TIP3    H116197   0.360   0.879   4.185  0.6363 -0.5170 -0.3827
 5397TIP3    H216198   0.239   0.799   4.226 -0.2999  0.6088 -0.8789
 5398TIP3   OH216199   2.873   5.588   2.756  0.1716  0.1555  0.4531
 5398TIP3    H116200   2.929   5.606   2.831  1.5747  1.9784 -0.9517
 5398TIP3    H216201   2.866   5.671   2.710  0.9056 -1.2491 -2.4344
 5399TIP3   OH216202   1.142   5.532   3.373 -0.2160 -0.0586 -0.2913
 5399TIP3    H116203   1.184   5.464   3.425  0.4339  0.2331 -0.4251
 5399TIP3    H216204   1.204   5.605   3.375 -0.9581  0.5773 -0.0447
 5400TIP3   OH216205   3.469   4.954   1.044  0.3921 -0.1703  0.4379
 5400TIP3    H116206   3.414   4.991   0.976 -0.7689 -0.5240  1.1588
 5400TIP3    H216207   3.458   4.859   1.035  1.0756 -0.2550  0.4389
 5401TIP3   OH216208   5.305   0.539   0.165  0.2403  0.5524  0.3125
 5401TIP3    H116209   5.398   0.519   0.152 -0.5014 -2.0322 -1.8479
 5401TIP3    H216210   5.299   0.634   0.151  2.2589  0.4627 -1.7535
 5402TIP3   OH216211   4.715   1.995   4.752 -0.0383  0.0083 -0.1027
 5402TIP3    H116212   4.736   1.946   4.832  1.6286  0.7045 -0.0687
 5402TIP3    H216213   4.765   2.077   4.760  0.7126 -0.1878 -2.1513
 5403TIP3   OH216214   2.281   1.005   4.262  0.4365 -0.4107  0.2139
 5403TIP3    H116215   2.349   1.039   4.320 -2.9814  2.3182  3.1611
 5403TIP3    H216216   2.270   0.914   4.289  2.2111 -0.6336  0.3106
 5404TIP3   OH216217   4.790   1.898   5.010  0.1951 -0.7207  0.1430
 5404TIP3    H116218   4.824   1.916   5.098  0.9229  0.1606 -0.3154
 5404TIP3    H216219   4.698   1.875   5.025 -0.1562  1.0961  0.9863
 5405TIP3   OH216220   5.911   2.221   2.293  0.4780 -0.3111 -0.2402
 5405TIP3    H116221   5.852   2.172   2.350  1.4974  2.6033  3.7852
 5405TIP3    H216222   5.968   2.154   2.254 -1.1226 -2.6449  1.1718
 5406TIP3   OH216223   3.968   4.895   1.484 -0.3479 -0.3904  0.1392
 5406TIP3    H116224   3.906   4.945   1.537  0.0345  0.0242  0.2017
 5406TIP3    H216225   3.929   4.893   1.397 -0.2933  0.1590  0.0980
 5407TIP3   OH216226   1.935   0.712   2.150 -0.3685 -0.5319 -0.4008
 5407TIP3    H116227   1.927   0.797   2.106  1.5106  0.3761  0.9192
 5407TIP3    H216228   1.909   0.649   2.083 -1.7208  1.0347 -1.4554
 5408TIP3   OH216229   3.478   4.192   0.386  0.7091 -0.2326  0.4446
 5408TIP3    H116230   3.451   4.265   0.330 -0.1706  0.1815  1.3772
 5408TIP3    H216231   3.515   4.128   0.326 -1.2590 -0.3015 -0.7807
 5409TIP3   OH216232   3.438   5.754   0.909  0.0838  0.6490 -0.4707
 5409TIP3    H116233   3.461   5.662   0.897 -0.6891  0.2539  0.8167
 5409TIP3    H216234   3.483   5.779   0.990  0.7812  1.5875 -1.1344
 5410TIP3   OH216235   5.562   5.726   1.211 -0.1725  0.2908 -0.8329
 5410TIP3    H116236   5.574   5.742   1.117 -0.8420  0.2607 -0.9258
 5410TIP3    H216237   5.467   5.721   1.223 -0.0724 -0.3919 -0.2680
 5411TIP3   OH216238   5.475   3.932   4.117  0.0401 -0.5641 -0.7952
 5411TIP3    H116239   5.381   3.927   4.098  0.0161 -0.4225 -0.7192
 5411TIP3    H216240   5.517   3.931   4.032 -0.1309  1.6802 -0.9836
 5412TIP3   OH216241   4.536   4.017   0.784 -0.1835 -0.0068  0.0959
 5412TIP3    H116242   4.568   4.016   0.694 -2.1624  0.0034 -0.6477
 5412TIP3    H216243   4.499   4.104   0.795 -3.9778 -1.3644 -0.6478
 5413TIP3   OH216244   4.908   5.278   1.781  0.1769  0.1932  0.3221
 5413TIP3    H116245   4.840   5.277   1.713  1.5942 -0.3516 -1.1372
 5413TIP3    H216246   4.960   5.356   1.762  0.4610  0.1572  0.9204
 5414TIP3   OH216247   4.699   2.413   5.000  0.2197 -0.4093 -0.3161
 5414TIP3    H116248   4.690   2.320   4.981 -1.1220 -0.2307 -0.6857
 5414TIP3    H216249   4.791   2.425   5.024 -0.0320 -2.2231  1.8831
 5415TIP3   OH216250   1.854   0.066   4.053 -0.4977  0.3706 -0.1230
 5415TIP3    H116251   1.791  -0.003   4.034  0.4112  0.0277 -2.1238
 5415TIP3    H216252   1.828   0.140   3.999 -0.7996  1.2378  1.1592
 5416TIP3   OH216253   3.121   1.858   5.139  0.4838 -0.1837  0.0026
 5416TIP3    H116254   3.199   1.900   5.176 -1.2854  1.9535  1.5691
 5416TIP3    H216255   3.152   1.819   5.057  2.9318  1.6843 -0.0895
 5417TIP3   OH216256   1.098   3.146   2.292  0.0185  0.4364  0.1292
 5417TIP3    H116257   1.146   3.083   2.345  1.0252  0.5162 -0.6549
 5417TIP3    H216258   1.144   3.147   2.208 -1.8211 -0.0396 -0.9419
 5418TIP3   OH216259   5.083   3.206   3.508  0.6393  0.0395  0.6066
 5418TIP3    H116260   5.168   3.249   3.504  1.6884 -1.9660 -0.1314
 5418TIP3    H216261   5.091   3.146   3.582 -1.1373  1.6962  2.2603
 5419TIP3   OH216262   1.144   0.529   0.037  0.1383 -0.7224  0.2015
 5419TIP3    H116263   1.068   0.474   0.017 -0.8541  0.8626 -0.5980
 5419TIP3    H216264   1.108   0.618   0.043  1.9161  0.0475 -0.0432
 5420TIP3   OH216265   0.396   2.656   4.682 -0.0221  0.1173 -0.1867
 5420TIP3    H116266   0.329   2.680   4.745  0.4060 -0.0149  0.3251
 5420TIP3    H216267   0.477   2.695   4.716  0.4072 -0.7994 -0.1046
 5421TIP3   OH216268   2.889   3.957   3.455 -0.7813 -0.2662 -0.2959
 5421TIP3    H116269   2.947   3.891   3.491  0.8509  1.3057  0.0640
 5421TIP3    H216270   2.807   3.946   3.503  0.3983 -0.1332  1.8644
 5422TIP3   OH216271   3.951   5.929   3.291  0.1867  0.1601  0.0992
 5422TIP3    H116272   3.982   5.846   3.327 -0.0493 -0.0112 -0.0880
 5422TIP3    H216273   3.863   5.939   3.327  0.6426  0.8908  1.0319
 5423TIP3   OH216274   3.912   4.883   0.345 -0.5685 -0.3951 -0.0604
 5423TIP3    H116275   3.913   4.977   0.325 -0.3438 -0.7148 -1.6945
 5423TIP3    H216276   3.837   4.872   0.403 -0.0305  0.9246  0.9475
 5424TIP3   OH216277   3.017   2.490   0.490  0.0881 -0.4293  0.3084
 5424TIP3    H116278   3.102   2.483   0.533  0.5025 -2.5563 -0.7402
 5424TIP3    H216279   3.037   2.490   0.396 -1.0225  0.2010  0.0467
 5425TIP3   OH216280   2.457   1.196   0.702 -0.2226 -0.1588  0.2158
 5425TIP3    H116281   2.547   1.226   0.688 -0.0475 -0.8686 -0.1941
 5425TIP3    H216282   2.452   1.111   0.658 -0.6938 -0.7814  1.4226
 5426TIP3   OH216283   2.518   0.100   1.772 -0.4818  0.0834  0.3719
 5426TIP3    H116284   2.521   0.194   1.758  1.8512  0.0006 -0.1827
 5426TIP3    H216285   2.467   0.089   1.853 -1.5087  1.7174 -0.0012
 5427TIP3   OH216286   5.414   2.632   0.599 -0.0829 -0.2127 -0.5678
 5427TIP3    H116287   5.455   2.688   0.533  2.5805  0.4067  1.4466
 5427TIP3    H216288   5.487   2.597   0.650 -1.9684 -1.0078  1.7940
 5428TIP3   OH216289   2.653   1.857   0.479 -0.2676  0.6486 -0.2378
 5428TIP3    H116290   2.647   1.835   0.386 -0.7866 -0.8628  0.1122
 5428TIP3    H216291   2.698   1.782   0.518  0.5353  1.5682  0.6416
 5429TIP3   OH216292   4.775   1.664   1.098 -0.1751 -0.0389  0.2139
 5429TIP3    H116293   4.742   1.744   1.140 -0.7063 -0.1412  0.0089
 5429TIP3    H216294   4.837   1.628   1.161  0.7442  0.9881 -0.0579
 5430TIP3   OH216295   4.480   4.598   0.450  0.2166 -0.1445  0.0488
 5430TIP3    H116296   4.474   4.584   0.356  0.3881  1.0719 -0.1610
 5430TIP3    H216297   4.547   4.536   0.479 -0.2975 -0.9778 -0.5162
 5431TIP3   OH216298   5.664   1.606   0.879 -0.0737  0.2677  0.0796
 5431TIP3    H116299   5.608   1.668   0.832  2.0204  1.0821 -1.4894
 5431TIP3    H216300   5.666   1.528   0.824 -1.3778 -0.6267  1.2368
 5432TIP3   OH216301   5.923   3.366   3.881  0.7067 -0.1700 -0.4661
 5432TIP3    H116302   5.906   3.435   3.816 -0.3578 -0.4165 -0.4708
 5432TIP3    H216303   5.847   3.368   3.939  1.5247 -0.1126  0.6544
 5433TIP3   OH216304   2.644   5.633   1.023 -0.0148  0.4021 -0.3209
 5433TIP3    H116305   2.583   5.672   0.960 -0.7448  1.4672  0.9741
 5433TIP3    H216306   2.616   5.542   1.031 -0.9306  0.6687 -0.3528
 5434TIP3   OH216307   2.373   0.429   1.594 -0.0085 -0.1689  0.8440
 5434TIP3    H116308   2.323   0.507   1.575  0.5965  0.1478  0.5113
 5434TIP3    H216309   2.452   0.461   1.638  2.0943 -0.1436 -2.5965
 5435TIP3   OH216310   0.499   5.098   4.773 -0.4378 -0.1179  0.1682
 5435TIP3    H116311   0.573   5.063   4.822  0.6272  1.5888 -0.1419
 5435TIP3    H216312   0.518   5.078   4.682  0.7542  2.0648 -0.1441
 5436TIP3   OH216313   5.794   2.264   4.017 -0.3030  0.0104  0.2128
 5436TIP3    H116314   5.874   2.256   4.070  0.6400  0.9118 -1.0128
 5436TIP3    H216315   5.740   2.328   4.064  0.3385  0.4945  0.3034
 5437TIP3   OH216316   2.380   4.251   0.159  0.1122  0.0386 -0.2299
 5437TIP3    H116317   2.291   4.284   0.146 -0.5428 -1.9979 -1.5191
 5437TIP3    H216318   2.374   4.197   0.238  1.3553  3.2995  2.3313
 5438TIP3   OH216319   1.812   3.642   2.981  1.0093 -0.4599 -0.2745
 5438TIP3    H116320   1.890   3.597   3.016  1.4985  0.9522  0.5152
 5438TIP3    H216321   1.760   3.662   3.059  0.3338 -0.4968 -0.7121
 5439TIP3   OH216322   0.637   5.686   0.900 -0.4543  0.4945  0.0910
 5439TIP3    H116323   0.655   5.592   0.903 -0.6627  0.4207 -0.7608
 5439TIP3    H216324   0.556   5.697   0.950 -0.8100  0.1233 -0.3950
 5440TIP3   OH216325   3.461   3.759   3.779  0.4671 -0.0017 -0.6667
 5440TIP3    H116326   3.447   3.726   3.690  0.7204  1.0330 -1.1109
 5440TIP3    H216327   3.399   3.710   3.833 -0.7600  0.3993 -1.6637
 5441TIP3   OH216328   1.936   0.297   2.402 -0.2865  0.7544 -0.2769
 5441TIP3    H116329   1.870   0.237   2.369 -0.0575  1.2505 -1.7023
 5441TIP3    H216330   1.995   0.310   2.328  1.7786 -0.1422  1.1087
 5442TIP3   OH216331   5.370   1.376   0.505 -0.2265  0.3251 -0.0059
 5442TIP3    H116332   5.296   1.347   0.452  0.4481  0.1665 -0.8956
 5442TIP3    H216333   5.446   1.368   0.446  0.8163 -1.4549  1.4743
 5443TIP3   OH216334   1.951   3.940   0.841 -0.0988 -0.8262  0.0247
 5443TIP3    H116335   1.960   3.927   0.747 -0.2960 -0.5482 -0.0328
 5443TIP3    H216336   1.857   3.946   0.856 -0.0361  0.6473  0.0261
 5444TIP3   OH216337   1.020   1.848   4.052 -0.0056  0.3549  0.0554
 5444TIP3    H116338   0.989   1.878   3.966 -0.4070  0.5567  0.2726
 5444TIP3    H216339   1.065   1.924   4.089  3.2680 -0.6529 -1.4009
 5445TIP3   OH216340   4.770   1.034   4.985 -1.2288 -0.5397 -0.5430
 5445TIP3    H116341   4.682   1.038   5.021 -1.2701 -1.7460 -0.4695
 5445TIP3    H216342   4.780   0.943   4.955 -0.4882 -0.0794 -1.7688
 5446TIP3   OH216343   2.881   4.082   4.848  0.2913 -0.1163 -0.0470
 5446TIP3    H116344   2.926   4.118   4.771  1.2123  0.6936  0.8461
 5446TIP3    H216345   2.796   4.054   4.814  0.5951  0.4103 -1.3259
 5447TIP3   OH216346   2.662   5.864   0.443 -0.6699  0.1777  0.0075
 5447TIP3    H116347   2.580   5.876   0.395  0.0756  0.7656 -1.1626
 5447TIP3    H216348   2.727   5.913   0.393  0.1179  1.0221  1.7561
 5448TIP3   OH216349   2.146   0.016   2.987 -0.4956 -0.4515  0.2791
 5448TIP3    H116350   2.064  -0.026   2.963 -0.7626 -0.4668  1.1851
 5448TIP3    H216351   2.152   0.092   2.928 -0.6774 -0.9890 -0.4419
 5449TIP3   OH216352   4.080   3.117   1.472  1.0890  0.6608  0.3709
 5449TIP3    H116353   4.006   3.109   1.531  1.8629  2.3794  1.6362
 5449TIP3    H216354   4.042   3.145   1.388  0.3849  2.5221  1.2773
 5450TIP3   OH216355   1.875   0.160   4.332  0.1104  0.2718  0.2233
 5450TIP3    H116356   1.883   0.255   4.325 -0.6103  0.3121 -0.1303
 5450TIP3    H216357   1.837   0.133   4.248  1.0538 -0.4157  0.0013
 5451TIP3   OH216358   4.013   2.269   1.067  0.1296 -0.5573 -0.4827
 5451TIP3    H116359   4.009   2.317   0.984  0.9322 -1.5316 -1.1024
 5451TIP3    H216360   4.064   2.325   1.125 -0.3607  0.0926 -0.6627
 5452TIP3   OH216361   5.866   2.334   0.465 -0.7385 -0.6838 -0.3521
 5452TIP3    H116362   5.901   2.359   0.380 -1.3443 -1.5408 -0.8683
 5452TIP3    H216363   5.846   2.417   0.509  0.0780 -0.2268 -0.8198
 5453TIP3   OH216364   1.132   1.433   4.281  0.3239  0.4356 -0.2241
 5453TIP3    H116365   1.175   1.518   4.267  2.5247 -0.7728 -1.4445
 5453TIP3    H216366   1.182   1.372   4.226 -1.5041 -1.5777  0.2078
 5454TIP3   OH216367   5.296   5.065   1.317 -0.6159  0.2312  0.4093
 5454TIP3    H116368   5.306   4.972   1.336 -0.3452  0.1063 -0.3207
 5454TIP3    H216369   5.202   5.078   1.307 -0.7277  0.2018  1.2817
 5455TIP3   OH216370   1.678   5.223   5.163  0.2489  0.1933 -0.4538
 5455TIP3    H116371   1.601   5.222   5.107 -0.7448  0.0625  0.8735
 5455TIP3    H216372   1.745   5.176   5.112  0.3574  2.6434 -2.7983
 5456TIP3   OH216373   1.504   2.946   2.538 -0.1062  0.5743  0.2222
 5456TIP3    H116374   1.563   2.955   2.613  1.1716 -0.5648 -0.6052
 5456TIP3    H216375   1.551   2.986   2.465 -0.0747 -0.8717 -0.5804
 5457TIP3   OH216376   0.560   2.993   1.280 -0.2321 -0.3280 -0.1885
 5457TIP3    H116377   0.655   2.982   1.276 -0.1437  0.3887 -0.1632
 5457TIP3    H216378   0.525   2.916   1.236  0.4100  0.3726 -1.9893
 5458TIP3   OH216379   0.272   3.385   1.937 -0.4440  0.1126 -0.4084
 5458TIP3    H116380   0.299   3.307   1.888  2.5202  1.3528 -0.9781
 5458TIP3    H216381   0.271   3.455   1.871  2.6513  1.6256  0.9577
 5459TIP3   OH216382   6.215   2.072   2.798 -0.0546  0.3108  0.4418
 5459TIP3    H116383   6.183   2.123   2.723  2.0175  1.0830  0.0153
 5459TIP3    H216384   6.271   2.005   2.759 -1.4102 -1.2740  1.1272
 5460TIP3   OH216385   2.365   3.300   4.576  0.0561  0.1878  0.0070
 5460TIP3    H116386   2.331   3.226   4.526 -0.2747  0.9102 -0.8734
 5460TIP3    H216387   2.305   3.307   4.651 -0.9911  0.6402 -0.8380
 5461TIP3   OH216388   4.995   4.252   1.774  0.0906 -0.2513 -0.4729
 5461TIP3    H116389   4.928   4.314   1.745 -0.2378  1.0947  2.7406
 5461TIP3    H216390   4.965   4.167   1.742 -0.9707  0.8462 -2.5666
 5462TIP3   OH216391   1.513   5.157   1.198 -0.7101 -0.3188  0.4005
 5462TIP3    H116392   1.469   5.139   1.281 -0.9898  1.8129  0.7607
 5462TIP3    H216393   1.507   5.252   1.188 -0.3409 -0.4917 -1.8758
 5463TIP3   OH216394   4.606   2.290   0.918 -0.0549 -0.3461 -0.1446
 5463TIP3    H116395   4.669   2.331   0.976 -0.7788 -0.5759  0.8301
 5463TIP3    H216396   4.652   2.215   0.881  0.4548 -0.1189  0.0189
 5464TIP3   OH216397   4.988   0.336   1.604 -0.4638 -0.4492 -0.7887
 5464TIP3    H116398   5.065   0.290   1.636 -0.4607  0.6408  0.8819
 5464TIP3    H216399   5.017   0.380   1.524  0.1988 -1.2926 -1.0206
 5465TIP3   OH216400   5.552   5.228   1.689 -0.3705 -0.0701 -0.6539
 5465TIP3    H116401   5.485   5.280   1.645  0.4486 -0.0076 -1.8726
 5465TIP3    H216402   5.632   5.278   1.679  0.0577 -0.6410 -0.1455
 5466TIP3   OH216403   0.432   0.851   0.625 -0.0246  0.3819 -0.0156
 5466TIP3    H116404   0.514   0.846   0.577 -1.4063  0.3521 -2.5356
 5466TIP3    H216405   0.403   0.942   0.614 -0.7673  0.1596  0.0442
 5467TIP3   OH216406   2.670   2.554   2.920  0.0656 -0.3884 -0.0182
 5467TIP3    H116407   2.688   2.546   2.827  2.0985 -0.9924  0.3737
 5467TIP3    H216408   2.726   2.625   2.950 -0.2186 -0.5022  0.8288
 5468TIP3   OH216409   3.284   1.411   0.478 -0.3339 -1.2074  0.3897
 5468TIP3    H116410   3.192   1.392   0.458 -0.3534 -0.5796 -0.1275
 5468TIP3    H216411   3.293   1.505   0.466  0.8317 -1.5139 -1.4227
 5469TIP3   OH216412   2.296   4.751   2.037 -0.1609  0.1282  0.5563
 5469TIP3    H116413   2.246   4.830   2.014  2.7424  2.3315  1.1350
 5469TIP3    H216414   2.359   4.742   1.966 -0.0305 -1.3279  0.8370
 5470TIP3   OH216415   5.156   0.069   4.400  0.3264  0.2819 -0.2431
 5470TIP3    H116416   5.101   0.127   4.347  0.7235  1.9832  1.1174
 5470TIP3    H216417   5.232   0.052   4.346 -0.3305  0.0627 -1.1211
 5471TIP3   OH216418   0.803   5.292   2.808 -0.9955  0.2270  0.3476
 5471TIP3    H116419   0.762   5.260   2.888 -1.2706  0.6292  0.3696
 5471TIP3    H216420   0.787   5.223   2.743 -0.5126 -0.2385  0.7077
 5472TIP3   OH216421   3.292   0.410   3.597 -0.0120 -0.0353  0.1642
 5472TIP3    H116422   3.343   0.474   3.646  4.6378 -2.3617 -1.0313
 5472TIP3    H216423   3.282   0.449   3.510  0.7366 -0.0084  0.0896
 5473TIP3   OH216424   3.161   3.135   3.262  0.3824 -0.0114 -0.3816
 5473TIP3    H116425   3.083   3.160   3.311 -0.4267 -3.1499  0.0936
 5473TIP3    H216426   3.134   3.139   3.170  0.7961  2.2588 -0.4678
 5474TIP3   OH216427   1.462   2.765   4.617 -0.6536 -0.0597 -0.0546
 5474TIP3    H116428   1.418   2.830   4.562  1.6385  2.6922  1.1108
 5474TIP3    H216429   1.436   2.788   4.707  2.8111  1.7247  0.7017
 5475TIP3   OH216430   2.249   1.275   3.895 -0.0094 -0.5875  0.2756
 5475TIP3    H116431   2.162   1.301   3.866  0.9746  1.8374 -0.8524
 5475TIP3    H216432   2.273   1.342   3.959  1.8325  0.1918 -1.1148
 5476TIP3   OH216433   0.381   3.706   4.087  0.6067  0.1569  0.0186
 5476TIP3    H116434   0.341   3.692   4.173  0.9721 -1.5126 -0.0380
 5476TIP3    H216435   0.349   3.633   4.034  2.0152 -0.0215 -0.6413
 5477TIP3   OH216436   5.958   5.862   3.883  0.0747  0.5105  0.3987
 5477TIP3    H116437   5.994   5.909   3.808 -0.8739  2.6592  1.2188
 5477TIP3    H216438   6.021   5.792   3.899  1.3390  1.2262 -1.1567
 5478TIP3   OH216439   2.738   1.234   2.359 -0.5897  0.3013 -0.0740
 5478TIP3    H116440   2.745   1.296   2.287 -0.4026  1.1379  0.6413
 5478TIP3    H216441   2.646   1.242   2.387 -1.3708 -1.8603 -1.7901
 5479TIP3   OH216442   5.404   5.376   1.156  0.2193  0.0985 -0.0283
 5479TIP3    H116443   5.466   5.302   1.157  0.0431 -0.0710 -0.7227
 5479TIP3    H216444   5.460   5.453   1.151  0.4001  0.0040  0.4736
 5480TIP3   OH216445   0.802   0.359   4.345  0.0062  0.6333 -0.2428
 5480TIP3    H116446   0.842   0.445   4.360 -0.2181  0.3807  2.3863
 5480TIP3    H216447   0.731   0.376   4.283  0.9260  2.0331 -0.9721
 5481TIP3   OH216448   0.917   2.775   0.428 -0.0080 -0.0016 -0.7485
 5481TIP3    H116449   1.006   2.806   0.414  0.2441 -0.5946 -0.4854
 5481TIP3    H216450   0.926   2.681   0.443 -0.2107  0.4528  3.3608
 5482TIP3   OH216451   5.038   1.288   0.112 -0.5885  0.3891  0.4325
 5482TIP3    H116452   4.943   1.288   0.126 -0.7002  2.0062 -0.0501
 5482TIP3    H216453   5.061   1.381   0.108  0.9364  0.0162  0.0024
 5483TIP3   OH216454   5.018   0.965   1.788  0.0484 -0.3591  0.7045
 5483TIP3    H116455   4.966   0.958   1.868 -0.4439 -2.5637  0.2620
 5483TIP3    H216456   4.974   0.907   1.726  1.6475 -0.3638 -0.4809
 5484TIP3   OH216457   6.310   2.523   4.953 -0.2926 -0.0344 -0.4367
 5484TIP3    H116458   6.330   2.517   4.859 -1.0929  0.9821 -0.6961
 5484TIP3    H216459   6.306   2.617   4.970  2.2997 -0.1370  1.1924
 5485TIP3   OH216460   3.505   0.700   3.978 -0.5582  0.5103  0.1661
 5485TIP3    H116461   3.443   0.688   3.906 -2.7129  0.4762  1.8791
 5485TIP3    H216462   3.540   0.788   3.967 -2.4450  1.3117  0.1615
 5486TIP3   OH216463   3.962   4.382   2.482 -0.5123 -0.0485  0.1310
 5486TIP3    H116464   3.975   4.302   2.532 -1.5141 -1.3675 -1.6075
 5486TIP3    H216465   4.028   4.377   2.412 -1.4123 -0.0081 -0.7327
 5487TIP3   OH216466   5.582   3.034   0.058 -0.3591  0.5939  0.0173
 5487TIP3    H116467   5.649   3.022  -0.010  1.6470  0.1314  1.9776
 5487TIP3    H216468   5.574   3.129   0.066  0.2203  0.6547 -0.0812
 5488TIP3   OH216469   1.918   2.316   4.704  0.2077  0.0159 -0.1627
 5488TIP3    H116470   1.833   2.350   4.730 -0.6442  1.0196 -3.6469
 5488TIP3    H216471   1.967   2.394   4.676  2.3064 -0.5494  1.7093
 5489TIP3   OH216472   4.464   5.854   2.646  0.5472 -0.5594 -0.0323
 5489TIP3    H116473   4.542   5.849   2.701 -0.0558 -4.6026  0.7543
 5489TIP3    H216474   4.488   5.809   2.565 -0.2235  0.4828 -0.8670
 5490TIP3   OH216475   0.189   5.590   2.828  0.3055 -0.2963  0.0610
 5490TIP3    H116476   0.177   5.605   2.921 -0.3888  0.4697 -0.1357
 5490TIP3    H216477   0.280   5.562   2.819  1.0009  1.5562  0.7526
 5491TIP3   OH216478   0.410   0.963   1.825 -0.1730 -0.2501 -0.3473
 5491TIP3    H116479   0.425   1.003   1.739 -0.9197  0.8646  0.0118
 5491TIP3    H216480   0.315   0.969   1.838 -0.2269 -1.6046  0.0040
 5492TIP3   OH216481   0.209   2.027   4.250 -0.0081 -0.2232 -0.5409
 5492TIP3    H116482   0.268   2.088   4.295  1.2634 -1.6613 -0.1579
 5492TIP3    H216483   0.267   1.956   4.219 -1.3691 -1.0625 -1.2742
 5493TIP3   OH216484   1.736   1.158   4.214 -0.5897  0.2600 -0.2990
 5493TIP3    H116485   1.829   1.177   4.201 -0.9242  3.0027  0.6291
 5493TIP3    H216486   1.692   1.204   4.143 -1.2854 -0.7989 -0.5783
 5494TIP3   OH216487   4.260   5.825   3.609  0.5557 -0.2713 -0.1721
 5494TIP3    H116488   4.252   5.775   3.689  2.7275 -0.8911 -0.3001
 5494TIP3    H216489   4.271   5.916   3.638  1.8848 -0.5610  0.2850
 5495TIP3   OH216490   2.145   0.676   4.649 -0.0130 -0.1228  0.1641
 5495TIP3    H116491   2.121   0.721   4.730  3.2967  0.5301  0.9178
 5495TIP3    H216492   2.111   0.733   4.580  1.4928  2.1061  1.1290
 5496TIP3   OH216493   0.020   2.538   0.630 -0.2484 -0.0419 -0.1302
 5496TIP3    H116494  -0.063   2.499   0.659  0.5913 -1.5665  0.3353
 5496TIP3    H216495   0.053   2.584   0.707  0.4706 -1.4657  0.4505
 5497TIP3   OH216496   3.727   1.363   4.447  0.3264 -0.1482  0.4064
 5497TIP3    H116497   3.657   1.386   4.387 -0.0349 -1.5762  0.2422
 5497TIP3    H216498   3.682   1.323   4.522  0.8695  0.2146  0.9304
 5498TIP3   OH216499   1.150   1.353   0.182 -0.9331 -0.4160  0.1545
 5498TIP3    H116500   1.103   1.317   0.106 -0.2136  0.9194 -0.9675
 5498TIP3    H216501   1.238   1.316   0.175 -0.5599  0.5270 -0.2842
 5499TIP3   OH216502   0.829   3.029   3.829  0.2353 -0.0050 -0.8511
 5499TIP3    H116503   0.784   3.091   3.886  1.3008 -0.7331  0.8818
 5499TIP3    H216504   0.845   3.077   3.748  0.5412  1.8037  0.2268
 5500TIP3   OH216505   3.697   3.938   2.890 -0.1507 -0.2726 -0.7833
 5500TIP3    H116506   3.724   4.027   2.914 -0.3628 -0.6134  0.8134
 5500TIP3    H216507   3.767   3.882   2.925 -1.0345 -0.8765  0.0431
 5501TIP3   OH216508   3.908   1.566   4.416  0.2756 -0.7350 -0.3616
 5501TIP3    H116509   3.823   1.523   4.427 -0.5134  0.3685 -1.7936
 5501TIP3    H216510   3.940   1.534   4.331  0.8785 -0.4470 -0.2499
 5502TIP3   OH216511   3.537   4.813   3.422  0.3701 -0.2914  0.1787
 5502TIP3    H116512   3.597   4.746   3.390  2.5558 -0.0407  3.3500
 5502TIP3    H216513   3.469   4.763   3.469  0.6045 -0.3836  0.4195
 5503TIP3   OH216514   2.706   1.280   0.670  0.1858  0.1303  0.2053
 5503TIP3    H116515   2.728   1.193   0.635  0.0649  0.6077 -1.0726
 5503TIP3    H216516   2.731   1.275   0.762  0.7140 -1.0771  0.0121
 5504TIP3   OH216517   6.228   3.169   4.848  0.1200  0.6324  0.2846
 5504TIP3    H116518   6.256   3.192   4.759  1.6825 -0.4278  0.4417
 5504TIP3    H216519   6.229   3.073   4.849 -2.2113  0.5592  0.7856
 5505TIP3   OH216520   3.529   1.737   4.344 -0.0983  0.2452 -0.4111
 5505TIP3    H116521   3.618   1.753   4.315 -0.4460  1.4279 -0.8967
 5505TIP3    H216522   3.479   1.812   4.310 -1.3472 -0.5959 -0.4907
 5506TIP3   OH216523   0.120   1.605   2.712 -0.7108  0.5959  0.3771
 5506TIP3    H116524   0.033   1.643   2.704 -0.1277  1.6079 -1.9049
 5506TIP3    H216525   0.115   1.521   2.668 -0.5460  0.6704  0.2110
 5507TIP3   OH216526   1.852   2.962   4.541 -0.6515  0.2608 -0.4981
 5507TIP3    H116527   1.905   3.042   4.544 -1.2775  0.6578  2.6933
 5507TIP3    H216528   1.916   2.892   4.530  0.1609  0.9939 -0.6031
 5508TIP3   OH216529   3.366   0.676   2.720  0.0299  0.3012 -0.0499
 5508TIP3    H116530   3.312   0.670   2.641  0.0571 -0.3285 -0.0265
 5508TIP3    H216531   3.446   0.719   2.690 -0.3853  1.0448 -0.1303
 5509TIP3   OH216532   1.048   4.708   0.998 -0.2760  0.4036 -0.3543
 5509TIP3    H116533   0.997   4.655   0.937 -0.0324 -0.0293 -0.1878
 5509TIP3    H216534   1.047   4.658   1.080  1.1179 -0.0454 -0.5839
 5510TIP3   OH216535   2.575   5.111   1.796  0.8191  0.5261  0.1400
 5510TIP3    H116536   2.559   5.078   1.884  0.3586 -1.1702 -0.5411
 5510TIP3    H216537   2.526   5.193   1.792 -1.0713 -0.5100  0.7447
 5511TIP3   OH216538   1.636   2.419   2.423  0.0503 -0.0819 -0.1294
 5511TIP3    H116539   1.595   2.355   2.365 -0.5385  0.1403  0.0441
 5511TIP3    H216540   1.726   2.427   2.390 -0.2632 -0.0000 -0.9779
 5512TIP3   OH216541   0.281   5.455   1.390 -0.1890 -0.0497 -0.5844
 5512TIP3    H116542   0.211   5.493   1.337 -0.6069 -1.3890 -1.0368
 5512TIP3    H216543   0.285   5.363   1.362  0.6090 -0.4060  0.6286
 5513TIP3   OH216544   2.706   4.258   1.368 -0.1564 -0.2231 -0.5661
 5513TIP3    H116545   2.781   4.306   1.403 -0.7164 -0.8335  1.5936
 5513TIP3    H216546   2.667   4.319   1.304  0.9603  0.9202 -0.2076
 5514TIP3   OH216547   0.119   0.826   1.877 -0.4213 -0.3372 -0.2560
 5514TIP3    H116548   0.085   0.784   1.956  1.3918  0.7216  1.1713
 5514TIP3    H216549   0.065   0.904   1.866 -2.0008 -1.5106 -1.3145
 5515TIP3   OH216550   3.111   5.534   4.819 -0.8822 -0.2542  0.1224
 5515TIP3    H116551   3.077   5.495   4.739 -0.0931 -0.0715 -0.3167
 5515TIP3    H216552   3.054   5.610   4.836 -0.3491  0.3975 -0.9254
 5516TIP3   OH216553   1.104   0.573   3.733 -0.5910  0.2603 -0.1287
 5516TIP3    H116554   1.191   0.559   3.769 -1.1459 -1.6334  0.6022
 5516TIP3    H216555   1.118   0.580   3.639  0.2589 -1.5210 -0.1929
 5517TIP3   OH216556   4.231   1.743   4.288  0.0525  0.3004 -0.1283
 5517TIP3    H116557   4.207   1.754   4.196 -1.4268 -0.7649  0.1026
 5517TIP3    H216558   4.187   1.815   4.334 -1.4380 -0.6886  0.0671
 5518TIP3   OH216559   0.403   1.021   3.577 -0.4595  0.4670 -0.0412
 5518TIP3    H116560   0.385   0.982   3.663  0.6644 -0.5773 -0.2459
 5518TIP3    H216561   0.362   0.960   3.515  1.0708 -0.2810 -0.3536
 5519TIP3   OH216562   5.744   0.468   2.335  0.0133  0.3379  0.5417
 5519TIP3    H116563   5.673   0.437   2.391 -0.0711  0.0552  0.2801
 5519TIP3    H216564   5.706   0.474   2.248  0.5339 -0.6846  0.2243
 5520TIP3   OH216565   6.189   4.746   4.098 -0.1500  0.1326  0.1763
 5520TIP3    H116566   6.097   4.748   4.071  0.1140 -0.9031 -0.9189
 5520TIP3    H216567   6.199   4.820   4.157 -0.9720  2.0940 -2.0103
 5521TIP3   OH216568   4.680   1.552   2.317 -0.2870 -0.2486  0.1301
 5521TIP3    H116569   4.587   1.575   2.323 -0.5902 -1.0434 -1.1404
 5521TIP3    H216570   4.696   1.545   2.223  0.2907 -3.0688  0.3780
 5522TIP3   OH216571   2.272   4.454   3.520 -0.1794 -0.2868  0.6594
 5522TIP3    H116572   2.318   4.531   3.485 -1.0153  0.4347  1.1192
 5522TIP3    H216573   2.323   4.380   3.488 -0.6546  0.3406 -1.7452
 5523TIP3   OH216574   1.222   1.779   3.720  0.2375  0.2622  0.0522
 5523TIP3    H116575   1.249   1.699   3.765 -0.4635 -0.8672 -1.4447
 5523TIP3    H216576   1.250   1.850   3.778  2.1795 -0.9964  0.7487
 5524TIP3   OH216577   6.172   5.389   1.320 -0.1403  0.5696 -0.0924
 5524TIP3    H116578   6.107   5.333   1.362 -0.8710  1.0604 -0.5451
 5524TIP3    H216579   6.125   5.470   1.301  0.2825  0.5241 -1.4558
 5525TIP3   OH216580   1.458   2.020   3.523  0.1886  0.2205  0.3516
 5525TIP3    H116581   1.541   1.991   3.485 -0.0654  1.1462 -0.9906
 5525TIP3    H216582   1.475   2.025   3.617  1.2908 -0.7428  0.2309
 5526TIP3   OH216583   4.231   2.172   3.162 -0.4158 -0.0649 -0.6309
 5526TIP3    H116584   4.297   2.111   3.128 -0.2761 -0.7636  0.8161
 5526TIP3    H216585   4.148   2.129   3.142 -0.3571 -0.2149 -0.5562
 5527TIP3   OH216586   0.188   4.384   0.847  0.0716  0.1550  1.0709
 5527TIP3    H116587   0.184   4.296   0.810  0.4906  0.4762  0.2390
 5527TIP3    H216588   0.128   4.435   0.793  0.0506  0.4517  1.3721
 5528TIP3   OH216589   5.348   1.594   5.133 -0.0127  0.7333 -0.4018
 5528TIP3    H116590   5.404   1.669   5.153 -0.2402  0.9528 -0.5874
 5528TIP3    H216591   5.317   1.609   5.044  0.3915  0.1320 -0.6565
 5529TIP3   OH216592   0.051   4.466   2.801  0.1375  0.4794  0.4960
 5529TIP3    H116593  -0.008   4.391   2.813  0.2353 -0.2104 -2.4868
 5529TIP3    H216594   0.103   4.469   2.881 -0.4991 -2.0803  1.0967
 5530TIP3   OH216595   1.245   1.066   0.693 -0.0560  0.6243 -1.0076
 5530TIP3    H116596   1.225   1.108   0.777 -0.2219  0.9009 -1.1813
 5530TIP3    H216597   1.166   1.080   0.640  0.5533  1.6727 -1.6889
 5531TIP3   OH216598   3.436   5.097   3.116 -0.1885 -0.2524 -0.3546
 5531TIP3    H116599   3.501   5.053   3.062 -0.0446 -0.0858 -0.3176
 5531TIP3    H216600   3.443   5.190   3.092 -0.7315 -0.2898 -0.6873
 5532TIP3   OH216601   3.044   4.229   0.799 -0.3455  0.0756  0.2260
 5532TIP3    H116602   3.134   4.230   0.833 -0.2323  2.4272  0.0422
 5532TIP3    H216603   3.053   4.209   0.706  0.1338  1.4758 -0.0463
 5533TIP3   OH216604   4.934   4.005   2.504 -0.3082  0.1169 -0.3317
 5533TIP3    H116605   4.867   3.973   2.444 -0.1293  0.5593 -0.7660
 5533TIP3    H216606   5.013   3.957   2.479 -0.2924  0.1164 -0.2812
 5534TIP3   OH216607   1.799   3.965   4.289 -0.1552 -0.2655  0.0369
 5534TIP3    H116608   1.858   3.994   4.220  0.5888  1.0345  1.1807
 5534TIP3    H216609   1.715   3.952   4.244 -0.5329  3.4678 -0.7264
 5535TIP3   OH216610   1.676   2.270   3.637 -0.2053  0.2435  0.4244
 5535TIP3    H116611   1.713   2.182   3.637 -0.6475  0.0199  2.3552
 5535TIP3    H216612   1.752   2.328   3.634  0.1371 -0.2047  0.3058
 5536TIP3   OH216613   5.496   5.179   2.523 -0.3086 -0.5730  0.6925
 5536TIP3    H116614   5.412   5.181   2.477  0.3929  1.1132 -0.6005
 5536TIP3    H216615   5.525   5.270   2.525  1.6569 -1.1548  0.8278
 5537TIP3   OH216616   5.956   1.807   1.294 -0.1835  0.0336  0.0874
 5537TIP3    H116617   6.047   1.834   1.280 -0.2489  0.8458  1.0921
 5537TIP3    H216618   5.938   1.745   1.224  1.9729 -2.2120  1.3710
 5538TIP3   OH216619   0.627   1.995   5.044 -0.1092 -0.2345  0.0853
 5538TIP3    H116620   0.602   2.060   5.109  1.7082 -0.4000  1.0235
 5538TIP3    H216621   0.681   2.043   4.981 -1.1727 -0.2525 -0.8690
 5539TIP3   OH216622   0.713   2.181   1.778 -0.7607  0.3328  0.1869
 5539TIP3    H116623   0.644   2.136   1.729 -1.6796  1.7175  0.1657
 5539TIP3    H216624   0.791   2.174   1.723 -1.2423 -0.0021 -0.4622
 5540TIP3   OH216625   5.865   0.333   1.392 -0.3372  0.7670  0.4414
 5540TIP3    H116626   5.862   0.353   1.485  1.3258 -1.5625  1.0760
 5540TIP3    H216627   5.839   0.241   1.386  0.3715  0.6422 -1.2877
 5541TIP3   OH216628   3.603   2.481   1.197 -0.0649  0.4380  0.4280
 5541TIP3    H116629   3.545   2.532   1.140  1.3444  1.1961 -0.4220
 5541TIP3    H216630   3.564   2.488   1.284  1.3408  5.3909  1.0048
 5542TIP3   OH216631   2.611   5.183   4.570 -0.0811 -0.2715  0.0340
 5542TIP3    H116632   2.664   5.245   4.519 -1.1473 -0.2642 -1.1390
 5542TIP3    H216633   2.639   5.097   4.539  0.3852 -0.3353  0.6150
 5543TIP3   OH216634   3.028   3.167   1.100 -0.4840  0.3504  0.3198
 5543TIP3    H116635   3.012   3.223   1.176  1.2080  1.9567 -0.4491
 5543TIP3    H216636   3.055   3.227   1.031  1.6690 -1.4205 -0.4669
 5544TIP3   OH216637   0.109   3.925   4.571 -0.6796  0.4284  0.1851
 5544TIP3    H116638   0.031   3.945   4.519 -0.1184  0.7584 -0.5664
 5544TIP3    H216639   0.172   3.892   4.507 -0.4878 -0.6756  0.9202
 5545TIP3   OH216640   0.154   4.110   3.872 -0.2642 -0.5992 -0.2727
 5545TIP3    H116641   0.213   4.156   3.812 -0.3411  0.3156  0.3419
 5545TIP3    H216642   0.198   4.026   3.889  0.8579  0.0516  0.1460
 5546TIP3   OH216643   5.853   5.276   1.687  0.7031  0.0645  0.2807
 5546TIP3    H116644   5.839   5.186   1.717  3.4514 -0.6420 -0.3228
 5546TIP3    H216645   5.841   5.272   1.592 -0.4975  0.6804  0.3801
 5547TIP3   OH216646   4.317   0.506   3.356 -0.0310 -0.0259  0.7412
 5547TIP3    H116647   4.281   0.430   3.311  1.5851 -0.1817 -0.3503
 5547TIP3    H216648   4.361   0.469   3.433 -0.2119 -0.0683  0.8257
 5548TIP3   OH216649   3.312   4.847   3.229  0.1316  0.1001  0.1533
 5548TIP3    H116650   3.398   4.844   3.271  0.3925 -1.7410 -0.3915
 5548TIP3    H216651   3.313   4.928   3.179  1.5178  0.1619  0.2235
 5549TIP3   OH216652   3.547   4.706   1.355  0.0805  0.1621 -0.2970
 5549TIP3    H116653   3.631   4.666   1.333 -0.0520  0.0734 -0.6450
 5549TIP3    H216654   3.561   4.800   1.338 -0.0244  0.0930 -0.7765
 5550TIP3   OH216655   4.869   0.379   3.258  0.0252 -0.3387 -0.3317
 5550TIP3    H116656   4.862   0.287   3.284 -0.9099 -0.3154 -0.4671
 5550TIP3    H216657   4.962   0.400   3.270  0.2826 -1.3397 -0.4552
 5551TIP3   OH216658   4.314   4.951   2.114 -0.0023  0.5652  0.4543
 5551TIP3    H116659   4.354   5.033   2.084  0.6313 -0.0270 -0.3434
 5551TIP3    H216660   4.349   4.939   2.202  1.5407  0.1204 -0.1766
 5552TIP3   OH216661   0.683   1.223   0.669  0.3349  0.0509 -0.9592
 5552TIP3    H116662   0.647   1.311   0.674 -1.2531 -0.6025 -0.3301
 5552TIP3    H216663   0.608   1.166   0.654  1.4163 -1.1399 -2.1985
 5553TIP3   OH216664   1.031   3.131   0.481  0.2864 -0.3175 -0.6258
 5553TIP3    H116665   1.027   3.162   0.391 -0.0611  0.8570 -0.2236
 5553TIP3    H216666   1.107   3.073   0.483  0.1423 -0.5542 -1.7286
 5554TIP3   OH216667   2.803   2.382   4.815  0.0623 -0.0874 -0.0209
 5554TIP3    H116668   2.810   2.466   4.860  1.0834  0.1796 -0.6336
 5554TIP3    H216669   2.808   2.317   4.885 -1.2862  0.3522  0.5125
 5555TIP3   OH216670   5.708   2.955   5.168  0.1665  0.0396 -0.0636
 5555TIP3    H116671   5.719   2.870   5.128  0.1520 -0.5928  1.2120
 5555TIP3    H216672   5.624   2.987   5.135 -0.1931 -0.7825  0.0427
 5556TIP3   OH216673   0.311   2.424   4.574  0.4067 -0.2103 -0.1460
 5556TIP3    H116674   0.228   2.434   4.622 -0.3813  1.2709 -1.7110
 5556TIP3    H216675   0.366   2.496   4.606  1.2887 -1.3978  1.1521
 5557TIP3   OH216676   5.182   3.796   1.681  0.1939  0.3983  0.5758
 5557TIP3    H116677   5.222   3.758   1.603  0.3228  0.6150  0.5348
 5557TIP3    H216678   5.135   3.723   1.723  0.4032  0.2068  0.4764
 5558TIP3   OH216679   1.562   4.193   2.404 -0.5582 -0.2037 -0.5083
 5558TIP3    H116680   1.590   4.158   2.319  2.5878  1.4056 -0.2904
 5558TIP3    H216681   1.613   4.143   2.468 -1.4785 -0.1060  0.3251
 5559TIP3   OH216682   5.296   3.620   3.829  0.3593  0.1040 -0.7266
 5559TIP3    H116683   5.240   3.681   3.877 -0.8206  0.9731 -3.0297
 5559TIP3    H216684   5.309   3.661   3.744  0.8055 -2.1485 -1.8366
 5560TIP3   OH216685   0.872   0.955   2.224 -0.1982  0.5289  0.0319
 5560TIP3    H116686   0.816   0.903   2.281  1.4200 -0.3069  0.9454
 5560TIP3    H216687   0.869   1.044   2.260 -1.0103  0.5248 -0.0156
 5561TIP3   OH216688   2.333   1.754   3.130  0.2659  0.3550  0.3108
 5561TIP3    H116689   2.426   1.763   3.112  0.1805  0.4396 -0.0952
 5561TIP3    H216690   2.301   1.844   3.136 -0.4125  0.4163 -2.8284
 5562TIP3   OH216691   3.530   0.169   3.885 -0.3875 -0.3586 -0.4244
 5562TIP3    H116692   3.581   0.239   3.926  0.1551 -0.5117 -0.8357
 5562TIP3    H216693   3.519   0.198   3.794  0.7692 -1.3105 -0.8853
 5563TIP3   OH216694   3.258   3.385   4.404  0.5801  0.3682 -0.3529
 5563TIP3    H116695   3.212   3.452   4.353  2.5371  2.4421  0.4985
 5563TIP3    H216696   3.283   3.319   4.339 -0.4703  0.9478 -1.3832
 5564TIP3   OH216697   1.988   2.539   5.025  0.2301 -0.4469 -0.1505
 5564TIP3    H116698   2.062   2.521   4.968  0.5973 -0.4129  0.3076
 5564TIP3    H216699   2.027   2.564   5.109 -0.2521  2.3551 -0.6772
 5565TIP3   OH216700   0.468   1.955   3.411 -0.1795 -0.3041  0.5378
 5565TIP3    H116701   0.441   1.977   3.322 -1.6535 -0.6756  0.8744
 5565TIP3    H216702   0.530   2.024   3.435  1.5322 -1.0881 -1.3463
 5566TIP3   OH216703   0.516   4.933   5.086 -0.9026 -0.3422 -0.6441
 5566TIP3    H116704   0.578   4.981   5.032 -1.4686  2.7666  1.2101
 5566TIP3    H216705   0.554   4.935   5.174 -3.2312  1.1752  0.4296
 5567TIP3   OH216706   2.242   5.301   3.494 -0.1858 -0.1733  0.2596
 5567TIP3    H116707   2.184   5.341   3.429  1.0693 -0.9476 -1.4189
 5567TIP3    H216708   2.254   5.369   3.560  1.4032  2.1338 -2.2024
 5568TIP3   OH216709   3.849   2.085   2.250  0.1617  0.3954  0.0227
 5568TIP3    H116710   3.817   2.040   2.328 -0.6177  0.9962  0.0603
 5568TIP3    H216711   3.770   2.108   2.202  0.6508 -0.5022 -1.2631
 5569TIP3   OH216712   2.788   3.245   2.322  1.0433 -0.1661 -0.5132
 5569TIP3    H116713   2.800   3.337   2.347  0.7946 -0.0857 -0.6798
 5569TIP3    H216714   2.813   3.241   2.229  1.7134 -0.4095 -0.3253
 5570TIP3   OH216715   5.822   2.587   0.263 -0.8006 -0.5196  0.1107
 5570TIP3    H116716   5.817   2.504   0.216 -2.8349 -0.8940  0.9269
 5570TIP3    H216717   5.769   2.648   0.211 -1.3138 -0.3793  0.7854
 5571TIP3   OH216718   3.177   4.870   4.889 -0.0937  0.1155 -1.2164
 5571TIP3    H116719   3.165   4.833   4.976  1.4151  0.8866 -0.6493
 5571TIP3    H216720   3.111   4.940   4.883 -0.4645 -0.1999 -0.8592
 5572TIP3   OH216721   4.737   3.886   0.998  0.1715 -0.2193  0.2970
 5572TIP3    H116722   4.715   3.887   0.904 -0.3882  2.7529  0.3407
 5572TIP3    H216723   4.673   3.945   1.038  0.3838 -1.4460  2.6112
 5573TIP3   OH216724   5.564   2.772   2.931 -0.1155  0.2543 -0.2024
 5573TIP3    H116725   5.537   2.862   2.944  0.7135  0.3910  0.6729
 5573TIP3    H216726   5.503   2.737   2.866 -0.4109  1.4489 -0.5786
 5574TIP3   OH216727   4.761   1.075   3.112 -0.3306  0.5182  0.0085
 5574TIP3    H116728   4.706   1.141   3.155  0.5802  0.1344  1.8768
 5574TIP3    H216729   4.850   1.109   3.121  0.2576 -1.2768  1.7572
 5575TIP3   OH216730   2.717   1.531   0.558 -0.5486  0.0896 -0.3246
 5575TIP3    H116731   2.687   1.505   0.471 -0.0974  1.2885 -0.8539
 5575TIP3    H216732   2.714   1.450   0.609  0.0527 -0.8352 -1.6902
 5576TIP3   OH216733   5.179   4.444   1.113  0.0020  0.2792 -0.0556
 5576TIP3    H116734   5.153   4.506   1.180 -0.5814  0.4257 -0.4133
 5576TIP3    H216735   5.252   4.486   1.067 -0.1663  0.5528 -0.0729
 5577TIP3   OH216736   2.364   1.257   2.556  0.4586 -0.4737 -0.9026
 5577TIP3    H116737   2.394   1.167   2.574 -0.9510 -0.7544  0.2423
 5577TIP3    H216738   2.330   1.287   2.640 -2.8187 -0.3523 -2.1490
 5578TIP3   OH216739   4.853   3.199   3.368 -0.1739  0.4980 -0.2309
 5578TIP3    H116740   4.809   3.120   3.400  0.0572 -0.3516 -1.8889
 5578TIP3    H216741   4.923   3.215   3.431 -2.2006  1.3361  1.9523
 5579TIP3   OH216742   0.199   1.304   2.249 -0.1149  0.0378  0.4656
 5579TIP3    H116743   0.216   1.211   2.257 -0.6885 -0.1863 -0.8017
 5579TIP3    H216744   0.135   1.312   2.178 -0.5838  1.3387  0.9837
 5580TIP3   OH216745   1.637   3.929   4.006  0.0459 -0.4889  0.1447
 5580TIP3    H116746   1.596   4.012   3.979  0.3397  0.3470  2.0924
 5580TIP3    H216747   1.567   3.881   4.050  0.2071 -0.7034  0.1666
 5581TIP3   OH216748   2.125   2.086   4.229  0.2035  0.4419  0.2634
 5581TIP3    H116749   2.114   2.075   4.324 -2.5283 -0.8766 -0.0745
 5581TIP3    H216750   2.195   2.026   4.206 -0.0831 -0.3223  1.2941
 5582TIP3   OH216751   1.136   3.110   2.028 -0.0666  0.5103 -0.5584
 5582TIP3    H116752   1.137   3.170   1.953 -0.7616  0.9565 -0.2213
 5582TIP3    H216753   1.074   3.041   2.003  1.7499 -0.8505 -1.5172
 5583TIP3   OH216754   0.320   1.760   4.244 -0.1300  0.1632  0.0284
 5583TIP3    H116755   0.358   1.705   4.313  0.0307 -1.0194 -0.9517
 5583TIP3    H216756   0.376   1.744   4.168 -0.2446  1.5055 -0.3678
 5584TIP3   OH216757   0.159   3.893   2.972 -0.0363 -0.1457  0.4349
 5584TIP3    H116758   0.253   3.875   2.982 -0.5474 -2.5953  1.5244
 5584TIP3    H216759   0.125   3.816   2.927 -1.5605  0.6928  0.1102
 5585TIP3   OH216760   3.112   2.521   1.022 -0.6136 -0.2478 -1.0334
 5585TIP3    H116761   3.044   2.586   1.005  0.2760  0.9981  0.0070
 5585TIP3    H216762   3.180   2.540   0.958  0.4073  1.0234  0.3583
 5586TIP3   OH216763   4.518   1.726   4.097 -0.2218 -0.0269 -0.2445
 5586TIP3    H116764   4.469   1.750   4.176 -1.1532  0.9903 -1.0976
 5586TIP3    H216765   4.599   1.777   4.103  0.4532 -1.1480  0.7983
 5587TIP3   OH216766   6.267   3.217   0.486  0.3423 -0.0457 -0.9433
 5587TIP3    H116767   6.223   3.221   0.571  2.8645 -0.6299  0.4794
 5587TIP3    H216768   6.270   3.123   0.465 -0.0179  0.0726 -1.5541
 5588TIP3   OH216769   4.286   0.288   1.391  0.9078 -0.5395 -0.4958
 5588TIP3    H116770   4.348   0.222   1.422 -0.0098 -1.1919  0.0082
 5588TIP3    H216771   4.201   0.257   1.423  0.1423 -0.3340 -2.2261
 5589TIP3   OH216772   2.868   0.245   0.343  0.2805 -0.0757 -0.0659
 5589TIP3    H116773   2.785   0.200   0.360 -0.8879  2.2860  0.9209
 5589TIP3    H216774   2.860   0.278   0.254  0.4838 -0.4253 -0.2193
 5590TIP3   OH216775   5.143   2.589   3.554 -0.4082 -0.1562 -0.1234
 5590TIP3    H116776   5.140   2.591   3.459 -1.6171  0.9631 -0.0851
 5590TIP3    H216777   5.081   2.520   3.578  1.2938 -1.7908 -0.1432
 5591TIP3   OH216778   0.904   0.204   0.501  0.2451 -0.4270 -0.2009
 5591TIP3    H116779   0.861   0.178   0.420 -2.0976 -0.6215  1.0174
 5591TIP3    H216780   0.844   0.267   0.541 -0.7173 -3.2330  3.2401
 5592TIP3   OH216781   3.503   5.828   2.529  0.1349 -0.0665  0.4456
 5592TIP3    H116782   3.511   5.813   2.435 -0.3299  0.3494  0.3349
 5592TIP3    H216783   3.593   5.842   2.559  0.4208 -1.4034  0.2776
 5593TIP3   OH216784   1.829   2.311   0.111 -0.4777  0.2522  0.0492
 5593TIP3    H116785   1.895   2.258   0.066  0.0640  2.8446 -2.4725
 5593TIP3    H216786   1.749   2.299   0.060 -0.8980  0.2709  0.6877
 5594TIP3   OH216787   0.619   3.841   3.752  0.2796 -0.2686 -0.4560
 5594TIP3    H116788   0.548   3.870   3.695 -0.4869 -1.3080 -0.0629
 5594TIP3    H216789   0.690   3.818   3.692 -0.0675 -0.1492 -0.9129
 5595TIP3   OH216790   2.535   5.604   2.871 -0.4625 -0.6883  0.0081
 5595TIP3    H116791   2.575   5.517   2.862  0.9626  0.1048 -2.1354
 5595TIP3    H216792   2.441   5.587   2.869 -0.2186 -2.1455 -1.0423
 5596TIP3   OH216793   5.249   4.011   2.826  0.0448 -0.4130 -0.1096
 5596TIP3    H116794   5.210   3.940   2.775 -1.7041 -1.4247  2.4387
 5596TIP3    H216795   5.188   4.084   2.817  1.0366  0.2895 -1.4452
 5597TIP3   OH216796   4.315   2.633   2.868 -0.4255  0.0080 -0.3170
 5597TIP3    H116797   4.311   2.539   2.884  2.1600 -0.1295 -0.0148
 5597TIP3    H216798   4.346   2.640   2.777 -0.3371  0.5465 -0.2494
 5598TIP3   OH216799   3.661   5.912   5.111 -0.0932  0.4964  0.4297
 5598TIP3    H116800   3.717   5.887   5.184  1.0591 -0.9998 -0.8776
 5598TIP3    H216801   3.719   5.908   5.034 -1.4059  1.3565 -0.6500
 5599TIP3   OH216802   5.465   5.330   4.413 -0.4294  0.1126 -0.3484
 5599TIP3    H116803   5.394   5.334   4.478 -0.6646  0.2614 -0.6116
 5599TIP3    H216804   5.484   5.422   4.393 -0.0682  0.0761 -0.1800
 5600TIP3   OH216805   3.995   1.304   0.156 -0.1528  1.0058  0.6395
 5600TIP3    H116806   3.973   1.353   0.077  0.0512 -1.5960 -1.1583
 5600TIP3    H216807   4.088   1.284   0.148 -0.3994 -0.3705  0.8384
 5601TIP3   OH216808   1.815   2.396   1.121  0.4868 -0.2650 -0.4114
 5601TIP3    H116809   1.778   2.405   1.208  1.5111 -0.8126  0.0937
 5601TIP3    H216810   1.766   2.324   1.081 -0.8749  0.8076 -0.8097
 5602TIP3   OH216811   4.014   0.198   1.456  0.3383 -0.7583  0.5552
 5602TIP3    H116812   3.975   0.226   1.538  0.0361  0.4023  0.0412
 5602TIP3    H216813   3.941   0.161   1.406 -0.0912  1.1713 -0.3026
 5603TIP3   OH216814   6.223   3.941   1.389  0.4810 -0.1944 -0.5542
 5603TIP3    H116815   6.251   3.872   1.329 -0.8805 -0.4236 -0.9750
 5603TIP3    H216816   6.127   3.935   1.388  0.4064  0.3411  1.0116
 5604TIP3   OH216817   2.087   4.590   3.763  0.2010 -0.2281 -0.0852
 5604TIP3    H116818   2.007   4.538   3.754  0.9006 -0.9975 -3.1717
 5604TIP3    H216819   2.154   4.538   3.718  1.4952  2.2197 -1.1916
 5605TIP3   OH216820   0.085   5.573   5.166 -0.0662 -0.7011 -0.4480
 5605TIP3    H116821   0.028   5.524   5.107 -0.3925  0.2242 -0.9316
 5605TIP3    H216822   0.028   5.598   5.238 -0.1491 -0.2166 -0.6781
 5606TIP3   OH216823   3.647   0.380   1.409  0.2533  0.2226  0.5278
 5606TIP3    H116824   3.621   0.337   1.490 -2.1365 -1.1249 -0.8242
 5606TIP3    H216825   3.651   0.473   1.430 -1.9631  0.0666  1.8331
 5607TIP3   OH216826   0.839   3.421   1.927 -0.8828  0.0452  0.2292
 5607TIP3    H116827   0.845   3.469   1.844 -0.6218 -1.5644 -0.7253
 5607TIP3    H216828   0.747   3.428   1.952 -0.6777  1.8242  0.6301
 5608TIP3   OH216829   5.257   5.384   4.050 -0.2352 -0.1341 -0.3735
 5608TIP3    H116830   5.324   5.443   4.085  1.2365 -1.5747 -0.6408
 5608TIP3    H216831   5.188   5.383   4.117 -0.7869  2.5883 -0.8008
 5609TIP3   OH216832   5.027   0.311   4.276 -0.3148 -0.0506  0.1860
 5609TIP3    H116833   4.942   0.279   4.305 -0.5422  1.1200  0.8769
 5609TIP3    H216834   5.009   0.360   4.196 -0.0552 -1.0723 -0.5207
 5610TIP3   OH216835   3.796   1.049   2.690 -0.2934 -0.6743 -0.0872
 5610TIP3    H116836   3.723   1.103   2.721  1.8608  1.8926  0.9580
 5610TIP3    H216837   3.818   1.085   2.604  0.8586 -0.1353  0.4076
 5611TIP3   OH216838   3.719   3.630   3.771  0.8301  0.9727  0.4864
 5611TIP3    H116839   3.647   3.689   3.794 -1.4404 -0.5512 -2.0671
 5611TIP3    H216840   3.765   3.675   3.700 -0.6550  0.0095 -1.1815
 5612TIP3   OH216841   3.993   1.236   3.024  0.5100 -0.2130  0.3104
 5612TIP3    H116842   3.995   1.153   3.072  2.4104  0.4020  1.3929
 5612TIP3    H216843   4.056   1.292   3.070 -1.8353  2.3954  0.5661
 5613TIP3   OH216844   4.172   5.132   4.100 -0.0576 -0.0664 -0.4486
 5613TIP3    H116845   4.188   5.063   4.165 -2.4914  0.7260  1.1297
 5613TIP3    H216846   4.258   5.173   4.086  1.1021 -2.2271 -0.1047
 5614TIP3   OH216847   4.334   4.518   4.532 -0.3961  0.0298 -0.2336
 5614TIP3    H116848   4.334   4.494   4.625  0.4151  1.4232  0.1495
 5614TIP3    H216849   4.412   4.474   4.497 -0.5703 -0.3034 -0.2104
 5615TIP3   OH216850   1.482   1.712   4.990 -0.1008 -0.0336 -0.4104
 5615TIP3    H116851   1.563   1.700   4.940 -0.8126 -1.2438 -1.3093
 5615TIP3    H216852   1.417   1.737   4.925 -0.4866  0.8984  0.3057
 5616TIP3   OH216853   4.687   0.595   4.722 -0.3513  0.0794  0.2436
 5616TIP3    H116854   4.686   0.520   4.782  1.0957  0.9106  1.3645
 5616TIP3    H216855   4.727   0.562   4.642  2.3302  0.1070  1.4685
 5617TIP3   OH216856   5.246   3.472   0.836  0.3918 -0.8492 -1.2501
 5617TIP3    H116857   5.213   3.383   0.849 -0.1891 -0.4269  0.5041
 5617TIP3    H216858   5.181   3.513   0.779 -1.5943 -0.4178  1.1231
 5618TIP3   OH216859   0.113   2.148   2.053 -0.6240  0.4779  0.5737
 5618TIP3    H116860   0.105   2.171   2.145 -0.4326  0.5408  0.5752
 5618TIP3    H216861   0.080   2.058   2.048  0.5906 -0.0093  0.9399
 5619TIP3   OH216862   6.093   0.172   4.629  0.1821 -0.2317  0.0124
 5619TIP3    H116863   6.081   0.230   4.704  0.1747 -0.0446 -0.1318
 5619TIP3    H216864   6.180   0.134   4.642 -0.4494 -1.4316  0.9516
 5620TIP3   OH216865   5.531   4.851   3.792 -0.2436  0.1114 -0.0112
 5620TIP3    H116866   5.591   4.857   3.718  0.6675 -1.4939  0.5686
 5620TIP3    H216867   5.497   4.940   3.802  0.5510  0.6239 -1.5709
 5621TIP3   OH216868   5.653   4.841   4.167  0.8173 -0.0172 -0.3345
 5621TIP3    H116869   5.588   4.776   4.191  0.1295  0.8392  0.1671
 5621TIP3    H216870   5.613   4.925   4.188  1.3441  0.6305 -1.7411
 5622TIP3   OH216871   3.593   0.426   4.983  0.5003 -0.6469  0.7577
 5622TIP3    H116872   3.516   0.478   4.964  0.8532 -0.3509  0.1091
 5622TIP3    H216873   3.622   0.456   5.069  1.2451  0.9190 -0.0133
 5623TIP3   OH216874   1.572   2.917   1.506  0.1479  0.0489  0.0022
 5623TIP3    H116875   1.557   2.858   1.432 -0.2922  1.1659 -0.8266
 5623TIP3    H216876   1.486   2.954   1.524  0.5675  1.0652 -0.0425
 5624TIP3   OH216877   5.272   1.749   2.281  0.2405  0.2194  0.1902
 5624TIP3    H116878   5.185   1.721   2.310 -0.2525  0.1033 -1.3182
 5624TIP3    H216879   5.263   1.762   2.187  2.1195 -0.8721 -0.2077
 5625TIP3   OH216880   0.986   3.408   3.838 -0.1966 -0.0661 -0.0495
 5625TIP3    H116881   0.964   3.462   3.914 -1.9565 -0.8461  0.0439
 5625TIP3    H216882   0.921   3.433   3.772  1.1172  0.3807 -1.2318
 5626TIP3   OH216883   6.124   5.346   1.622  0.7439 -0.3854 -0.1846
 5626TIP3    H116884   6.165   5.298   1.694 -0.1853  0.0179  0.6354
 5626TIP3    H216885   6.030   5.337   1.638  0.5284  1.5536 -0.0729
 5627TIP3   OH216886   1.315   1.490   4.779  0.1309  0.7057 -0.1673
 5627TIP3    H116887   1.377   1.562   4.767 -0.0088  0.5430 -2.3165
 5627TIP3    H216888   1.242   1.512   4.720 -1.3261  0.2867  1.3974
 5628TIP3   OH216889   3.102   5.747   4.347  0.0382  0.0614 -0.4586
 5628TIP3    H116890   3.148   5.828   4.370 -0.8853  0.8389 -1.2787
 5628TIP3    H216891   3.059   5.720   4.429 -0.7478  1.1546 -0.4853
 5629TIP3   OH216892   3.448   1.841   0.074 -0.0456  0.0259 -0.5017
 5629TIP3    H116893   3.371   1.785   0.072  0.1687 -0.2545 -1.3328
 5629TIP3    H216894   3.417   1.923   0.113 -0.7716 -0.0720 -0.8574
 5630TIP3   OH216895   5.084   1.206   1.682  0.0671  0.2655  0.5226
 5630TIP3    H116896   5.059   1.123   1.723 -0.9999  1.3072  2.1144
 5630TIP3    H216897   5.165   1.231   1.725  1.0523 -0.5133 -0.8287
 5631TIP3   OH216898   2.278   3.679   5.103  0.0695  0.1011 -0.2862
 5631TIP3    H116899   2.202   3.734   5.121 -0.8432 -1.1486 -0.2357
 5631TIP3    H216900   2.347   3.742   5.080 -1.1251  1.2293 -0.9481
 5632TIP3   OH216901   0.354   2.997   4.960 -0.4628  0.1316  0.4883
 5632TIP3    H116902   0.422   3.054   4.925 -1.1965  1.9003  1.7718
 5632TIP3    H216903   0.401   2.924   5.000  0.6358  0.9942  0.8019
 5633TIP3   OH216904   1.045   2.661   4.012 -0.0321 -0.6531  0.2872
 5633TIP3    H116905   0.950   2.668   4.027 -0.1079 -1.4922  0.2069
 5633TIP3    H216906   1.063   2.728   3.946 -0.6429 -0.7792 -0.0137
 5634TIP3   OH216907   3.056   0.659   3.624 -0.2097  0.0389  0.0293
 5634TIP3    H116908   3.088   0.736   3.669 -1.3348  0.8787 -0.5666
 5634TIP3    H216909   3.124   0.639   3.559  1.2268 -0.9484  1.7383
 5635TIP3   OH216910   5.410   4.205   3.325  0.7919 -0.1111 -0.1679
 5635TIP3    H116911   5.488   4.250   3.294  0.2206  0.0050 -1.4900
 5635TIP3    H216912   5.345   4.274   3.338 -0.0906 -0.4832 -2.2114
 5636TIP3   OH216913   4.289   2.645   1.528 -0.2797  0.1268 -0.7172
 5636TIP3    H116914   4.280   2.736   1.499  0.9049  0.6609  0.4729
 5636TIP3    H216915   4.365   2.612   1.479 -0.9482 -0.3708 -1.4435
 5637TIP3   OH216916   2.660   5.114   4.261 -0.6424 -0.1004  0.1893
 5637TIP3    H116917   2.567   5.105   4.283 -0.9297  0.0940 -0.8738
 5637TIP3    H216918   2.699   5.030   4.285 -0.6519  0.4796  2.5483
 5638TIP3   OH216919   2.663   5.344   3.927  0.1848  0.0219 -0.5132
 5638TIP3    H116920   2.639   5.435   3.945  0.5030  0.0664 -0.2971
 5638TIP3    H216921   2.604   5.317   3.857 -0.8880 -0.0646  0.4035
 5639TIP3   OH216922   1.305   3.050   0.213 -0.6288  0.5281  0.1548
 5639TIP3    H116923   1.360   3.073   0.288 -0.3983  0.0831  0.1298
 5639TIP3    H216924   1.348   3.092   0.138 -0.0727 -0.1585  0.0725
 5640TIP3   OH216925   2.453   5.613   0.802  0.3911 -0.0234 -0.2507
 5640TIP3    H116926   2.407   5.695   0.818  0.0447  0.0468 -1.5622
 5640TIP3    H216927   2.394   5.545   0.835  0.8419  0.2364  1.1936
 5641TIP3   OH216928   4.351   1.315   4.240  0.4743  0.1555 -0.1385
 5641TIP3    H116929   4.383   1.365   4.165 -1.0784  0.5471 -0.5766
 5641TIP3    H216930   4.412   1.335   4.310  0.8534  1.3293 -0.7717
 5642TIP3   OH216931   4.077   2.232   2.328  0.5372 -0.0669  0.3135
 5642TIP3    H116932   3.990   2.191   2.324  0.6231 -0.5027  2.0208
 5642TIP3    H216933   4.112   2.222   2.240 -0.3214 -1.7314  0.1105
 5643TIP3   OH216934   3.929   5.663   4.236 -0.0332  0.3785 -0.0761
 5643TIP3    H116935   3.865   5.604   4.274  1.1180 -0.2683  0.9310
 5643TIP3    H216936   3.995   5.606   4.197  0.8560  0.9809  0.4937
 5644TIP3   OH216937   3.233   5.856   3.761  0.0528 -0.3234  0.4003
 5644TIP3    H116938   3.294   5.843   3.835  2.0054 -2.3658 -1.4028
 5644TIP3    H216939   3.167   5.788   3.773  0.2877 -0.5607  0.3617
 5645TIP3   OH216940   5.595   4.186   4.961 -0.0049  0.0704 -0.5160
 5645TIP3    H116941   5.656   4.247   5.003 -2.0945  1.1604  1.1727
 5645TIP3    H216942   5.599   4.209   4.868  0.8519  1.3079 -0.2108
 5646TIP3   OH216943   2.808   0.158   2.104 -0.2242 -0.7151  0.5636
 5646TIP3    H116944   2.762   0.237   2.077 -1.5365 -1.4848  0.4454
 5646TIP3    H216945   2.824   0.111   2.022  0.2500 -0.7322  0.6653
 5647TIP3   OH216946   1.531   2.547   1.098 -0.8318 -0.4463 -0.9815
 5647TIP3    H116947   1.500   2.538   1.008  0.5472  0.4242 -1.5787
 5647TIP3    H216948   1.618   2.587   1.090 -0.8134 -0.0379  0.7541
 5648TIP3   OH216949   3.537   0.139   0.622 -0.7059 -0.1795  0.1513
 5648TIP3    H116950   3.464   0.086   0.654 -2.2572  1.4534 -0.5272
 5648TIP3    H216951   3.584   0.165   0.702 -1.1341 -0.8359  0.6297
 5649TIP3   OH216952   3.401   5.392   3.160 -0.0872 -0.3430  0.1762
 5649TIP3    H116953   3.306   5.398   3.148 -0.3083 -1.2622  1.3099
 5649TIP3    H216954   3.419   5.446   3.237  0.4322  0.4347 -0.4727
 5650TIP3   OH216955   2.209   2.467   4.834  0.2077  0.3350 -0.1725
 5650TIP3    H116956   2.191   2.527   4.762  0.0624 -3.8786 -4.1001
 5650TIP3    H216957   2.303   2.450   4.830  0.3124  0.4905  1.0945
 5651TIP3   OH216958   3.709   0.834   2.185  0.1286  0.0768  0.3395
 5651TIP3    H116959   3.634   0.864   2.135  1.1085  1.1607 -0.5628
 5651TIP3    H216960   3.767   0.911   2.189  1.6702 -1.0174  0.0346
 5652TIP3   OH216961   0.891   0.445   4.029  0.2427 -0.2257 -0.1193
 5652TIP3    H116962   0.799   0.457   4.052  0.1697  0.9048 -0.9488
 5652TIP3    H216963   0.939   0.474   4.106 -0.0874 -1.6123  0.6424
 5653TIP3   OH216964   0.221   5.034   2.578 -0.0421 -0.1046 -0.1763
 5653TIP3    H116965   0.192   5.117   2.542 -0.1778  0.2911  0.8231
 5653TIP3    H216966   0.162   4.969   2.540 -0.8535  0.4305  0.1563
 5654TIP3   OH216967   2.265   5.019   3.729  0.5446 -0.0270 -0.3144
 5654TIP3    H116968   2.358   5.015   3.752  0.5724 -0.2867 -0.4700
 5654TIP3    H216969   2.219   5.001   3.811  0.6491 -1.3314 -0.5153
 5655TIP3   OH216970   2.922   2.367   4.291  0.1837  0.0009  0.1642
 5655TIP3    H116971   2.892   2.292   4.240 -2.1963  0.8887  0.1244
 5655TIP3    H216972   2.908   2.341   4.382 -0.9750  0.4826  0.1403
 5656TIP3   OH216973   2.404   4.585   4.320 -0.1721 -0.1813  0.0473
 5656TIP3    H116974   2.490   4.555   4.291  0.3200  0.2877  0.9899
 5656TIP3    H216975   2.370   4.512   4.373 -1.3667 -1.3307 -2.1637
 5657TIP3   OH216976   3.164   3.834   3.167  0.0864  0.0305 -0.1113
 5657TIP3    H116977   3.135   3.906   3.223  1.7521 -0.2050  1.1263
 5657TIP3    H216978   3.143   3.862   3.078  0.1004  1.7520  0.4062
 5658TIP3   OH216979   4.877   1.974   4.378  0.5451  0.3881  0.0375
 5658TIP3    H116980   4.835   1.972   4.291  0.2305  0.6647  0.1808
 5658TIP3    H216981   4.970   1.982   4.359  0.3534  2.8379 -0.2822
 5659TIP3   OH216982   1.365   5.791   3.098 -0.1163 -0.2980 -0.0431
 5659TIP3    H116983   1.354   5.878   3.136 -0.8476 -0.8194  0.9813
 5659TIP3    H216984   1.442   5.754   3.141 -1.1504 -1.0266  1.2798
 5660TIP3   OH216985   6.179   0.749   5.117 -0.0918 -0.3631  0.5547
 5660TIP3    H116986   6.203   0.821   5.174  1.0188  0.7234 -1.1861
 5660TIP3    H216987   6.084   0.747   5.119 -0.0937  0.0736  1.8788
 5661TIP3   OH216988   5.444   1.310   4.587 -0.5156  0.5513 -0.3347
 5661TIP3    H116989   5.502   1.238   4.564 -2.4210 -2.3321  2.8542
 5661TIP3    H216990   5.396   1.329   4.507  1.7513  0.0719 -1.9081
 5662TIP3   OH216991   1.826   4.240   1.917  0.3089 -0.1378 -0.0160
 5662TIP3    H116992   1.751   4.186   1.891  0.0103  0.2155  0.0884
 5662TIP3    H216993   1.839   4.219   2.010 -0.2499  0.4670  0.2116
 5663TIP3   OH216994   2.971   3.882   0.487  0.6620 -0.1129 -0.0789
 5663TIP3    H116995   3.008   3.831   0.558  1.3032 -0.6265 -0.7618
 5663TIP3    H216996   2.971   3.822   0.412  0.3035  0.5123 -0.5914
 5664TIP3   OH216997   5.018   3.019   3.085  0.5737 -0.4872 -0.0886
 5664TIP3    H116998   4.947   2.962   3.056 -1.2513  1.1367  0.9622
 5664TIP3    H216999   5.046   2.981   3.169  1.8096 -1.7763 -1.0236
 5665TIP3   OH217000   3.342   2.368   4.859 -0.5350  0.3445  0.1710
 5665TIP3    H117001   3.253   2.333   4.855 -0.3477 -0.1634  0.3694
 5665TIP3    H217002   3.398   2.290   4.857 -0.1292  0.5923  1.4918
 5666TIP3   OH217003   4.405   2.959   3.338 -0.0634 -0.0235  0.7764
 5666TIP3    H117004   4.344   2.890   3.365  0.1682 -1.3900 -1.9432
 5666TIP3    H217005   4.492   2.923   3.355  0.0478 -0.0819  0.1029
 5667TIP3   OH217006   2.732   1.943   1.456  1.0028 -0.5096  0.7341
 5667TIP3    H117007   2.741   1.898   1.540  1.5962  0.3870  1.1717
 5667TIP3    H217008   2.758   1.879   1.391  1.6040 -0.8740  1.3232
 5668TIP3   OH217009   2.078   4.582   3.115  0.0988 -0.1553  0.1636
 5668TIP3    H117010   2.153   4.624   3.157  0.2338 -1.4828  1.3068
 5668TIP3    H217011   2.111   4.497   3.087  0.1398  0.8110 -3.1213
 5669TIP3   OH217012   1.116   4.704   2.024 -0.5983 -0.5443 -0.6150
 5669TIP3    H117013   1.206   4.686   1.999 -0.0888  0.6020  0.2987
 5669TIP3    H217014   1.109   4.669   2.113 -0.6417  0.5487 -0.1744
 5670TIP3   OH217015   4.266   2.417   0.360  0.1840  0.0279  0.4875
 5670TIP3    H117016   4.312   2.486   0.312 -0.0380 -0.7464 -0.8972
 5670TIP3    H217017   4.256   2.346   0.296 -4.0434  0.5738  0.1909
 5671TIP3   OH217018   1.775   1.467   3.244  0.2310  0.3393 -0.4285
 5671TIP3    H117019   1.801   1.472   3.152 -0.1294  0.9600 -0.5058
 5671TIP3    H217020   1.857   1.480   3.292  0.1652  1.8683 -0.6719
 5672TIP3   OH217021   0.550   1.053   0.067 -0.1408  0.0933 -0.0551
 5672TIP3    H117022   0.630   1.059   0.016 -0.4934  0.4672 -0.5855
 5672TIP3    H217023   0.579   1.048   0.157  0.4743  1.5161 -0.1379
 5673TIP3   OH217024   1.403   0.930   4.287  0.1304 -0.1322  0.0941
 5673TIP3    H117025   1.359   1.014   4.298 -0.7310 -0.5197 -0.2973
 5673TIP3    H217026   1.412   0.896   4.376  0.8338  0.5322  0.2927
 5674TIP3   OH217027   3.742   4.989   3.549 -0.1138 -0.3206 -0.0143
 5674TIP3    H117028   3.715   4.987   3.641 -0.4997  0.2407 -0.1144
 5674TIP3    H217029   3.668   4.952   3.501  0.7343 -2.2109  0.0351
 5675TIP3   OH217030   2.384   1.874   1.760 -0.9389 -0.5789 -0.2515
 5675TIP3    H117031   2.312   1.900   1.817 -1.2419 -0.9153 -0.4803
 5675TIP3    H217032   2.342   1.843   1.680 -0.4974  0.4698 -0.9128
 5676TIP3   OH217033   0.824   5.705   2.483 -0.6854  0.0164 -0.0043
 5676TIP3    H117034   0.878   5.761   2.538  0.7845 -1.1981 -0.1547
 5676TIP3    H217035   0.789   5.639   2.543  0.9310 -1.3176 -0.4368
 5677TIP3   OH217036   6.167   4.344   4.592  0.1165  0.1341  0.1207
 5677TIP3    H117037   6.225   4.270   4.572  0.7471  0.2489  1.4111
 5677TIP3    H217038   6.226   4.415   4.617 -0.5012  0.9925 -0.8124
 5678TIP3   OH217039   0.136   2.094   2.395  0.0496  0.5856  0.9825
 5678TIP3    H117040   0.103   2.005   2.383  0.8591  0.3405  0.4870
 5678TIP3    H217041   0.057   2.148   2.403 -0.4997  0.1446 -0.9984
 5679TIP3   OH217042   4.751   5.852   4.701 -0.5660  0.1607  0.0444
 5679TIP3    H117043   4.732   5.943   4.678 -0.9101  0.2722  0.7382
 5679TIP3    H217044   4.690   5.800   4.650 -1.9998  0.4565  1.3911
 5680TIP3   OH217045   5.056   3.975   3.462 -0.0968  0.0802 -0.3735
 5680TIP3    H117046   5.103   3.985   3.380 -1.6016  0.6925 -1.2051
 5680TIP3    H217047   5.020   3.886   3.459  0.8830 -0.3566  0.2225
 5681TIP3   OH217048   2.030   3.026   2.080 -0.3235 -0.7657  0.4356
 5681TIP3    H117049   1.956   3.087   2.088  1.5634  1.8277 -0.6382
 5681TIP3    H217050   2.106   3.082   2.068  1.7884 -3.3533  0.8763
 5682TIP3   OH217051   3.056   2.118   4.366  0.0686  0.0853 -0.1086
 5682TIP3    H117052   2.994   2.117   4.293 -0.1432  0.7175  0.0515
 5682TIP3    H217053   3.019   2.181   4.428  1.4376  1.3464 -0.5163
 5683TIP3   OH217054   5.964   3.962   0.042  0.1623 -0.0981 -0.6197
 5683TIP3    H117055   5.989   3.918  -0.039  1.1999 -0.2713 -0.2133
 5683TIP3    H217056   6.045   3.972   0.091 -0.6373 -1.3575  1.0702
 5684TIP3   OH217057   3.912   2.874   4.591 -0.1244  0.2661 -0.1894
 5684TIP3    H117058   3.941   2.966   4.597 -0.7639  0.4294  0.5411
 5684TIP3    H217059   3.948   2.844   4.507  1.5095  0.6761  0.3204
 5685TIP3   OH217060   0.262   0.360   3.469 -0.0424 -0.0542 -0.2461
 5685TIP3    H117061   0.230   0.399   3.387  1.1399 -0.5135 -0.9582
 5685TIP3    H217062   0.291   0.436   3.521  0.7784  0.1436 -0.9701
 5686TIP3   OH217063   1.604   1.008   4.666  0.1420  0.0337 -0.1403
 5686TIP3    H117064   1.619   1.075   4.599  0.7802 -1.1553 -1.2276
 5686TIP3    H217065   1.522   1.034   4.708 -0.1896  0.9027 -1.2762
 5687TIP3   OH217066   1.428   3.061   0.780  0.2425  0.1441  0.0449
 5687TIP3    H117067   1.446   3.103   0.864  1.3221 -1.9170  0.9217
 5687TIP3    H217068   1.510   3.070   0.731 -0.3806  1.3283 -0.8104
 5688TIP3   OH217069   5.028   3.840   1.043 -0.0691 -0.4632  0.3741
 5688TIP3    H117070   4.933   3.838   1.045 -0.2477 -3.2843 -2.6102
 5688TIP3    H217071   5.049   3.908   0.979 -0.2018 -1.0823 -0.3417
 5689TIP3   OH217072   0.530   4.418   4.987 -0.3674  0.1996  0.7850
 5689TIP3    H117073   0.484   4.339   5.015 -1.1979  0.6338  0.6916
 5689TIP3    H217074   0.586   4.441   5.061 -0.5883 -0.1264  1.0559
 5690TIP3   OH217075   1.751   3.562   2.725 -0.2140 -0.1337  0.4422
 5690TIP3    H117076   1.778   3.587   2.813  1.0099  0.4755 -0.0664
 5690TIP3    H217077   1.784   3.633   2.669 -1.8418  0.0059 -0.4063
 5691TIP3   OH217078   5.587   5.477   2.728 -0.2117  1.0342 -0.3435
 5691TIP3    H117079   5.511   5.452   2.675  0.3906 -0.9709 -0.3196
 5691TIP3    H217080   5.569   5.568   2.753 -1.5620  1.3042 -2.1161
 5692TIP3   OH217081   4.894   1.450   3.582  0.1286 -0.2047  0.0935
 5692TIP3    H117082   4.940   1.502   3.648  1.3817 -1.3826  0.2012
 5692TIP3    H217083   4.898   1.361   3.616 -2.0453 -0.3993 -0.0484
 5693TIP3   OH217084   0.331   1.697   3.783  0.5934 -0.1172 -0.2908
 5693TIP3    H117085   0.243   1.664   3.805  0.7192 -1.6343 -1.8407
 5693TIP3    H217086   0.390   1.650   3.842  0.4217  0.5750  0.4484
 5694TIP3   OH217087   2.478   0.132   4.367  0.1377  0.2129  0.1709
 5694TIP3    H117088   2.450   0.150   4.457  1.4160  0.4231  0.5478
 5694TIP3    H217089   2.535   0.205   4.345  1.1801 -0.6917 -0.1916
 5695TIP3   OH217090   5.920   2.944   4.932  0.0308  0.3990 -0.2389
 5695TIP3    H117091   5.885   2.922   4.846 -0.3104  0.0490 -0.0154
 5695TIP3    H217092   5.911   3.039   4.938 -1.0996  0.2951 -0.0972
 5696TIP3   OH217093   4.737   4.236   1.058 -0.4218  0.2849  0.1444
 5696TIP3    H117094   4.829   4.221   1.080 -0.9791 -1.7098  1.4533
 5696TIP3    H217095   4.710   4.310   1.113 -0.0340 -0.2976  1.1463
 5697TIP3   OH217096   1.421   0.053   3.958 -0.3333 -0.1928 -0.1935
 5697TIP3    H117097   1.482   0.009   4.017 -0.6200 -0.7015 -0.2725
 5697TIP3    H217098   1.334   0.026   3.989 -0.7365  2.9003  1.8806
 5698TIP3   OH217099   3.250   5.613   1.163  0.1186 -0.5721 -0.1486
 5698TIP3    H117100   3.222   5.552   1.094  0.3179 -1.6394  0.6888
 5698TIP3    H217101   3.314   5.564   1.213  1.2821  0.8166 -0.2358
 5699TIP3   OH217102   0.117   3.372   2.869 -0.5307  0.3931  0.3990
 5699TIP3    H117103   0.089   3.296   2.920 -1.5426  0.5498  0.0942
 5699TIP3    H217104   0.045   3.388   2.808  0.4515  0.5003 -0.7555
 5700TIP3   OH217105   0.747   3.393   2.278  0.0560 -0.3465  0.2196
 5700TIP3    H117106   0.699   3.396   2.195 -0.2195 -0.3814  0.3759
 5700TIP3    H217107   0.692   3.340   2.335 -0.8400  1.4095  1.0842
 5701TIP3   OH217108   4.304   2.190   0.146  0.1561 -0.2662  0.3527
 5701TIP3    H117109   4.399   2.197   0.149  0.1220  0.2103  0.4343
 5701TIP3    H217110   4.283   2.175   0.054  0.1561  2.3036 -0.1420
 5702TIP3   OH217111   4.768   1.252   1.644 -0.1541  0.4423  0.7560
 5702TIP3    H117112   4.861   1.230   1.639 -0.3528 -0.1122 -1.7201
 5702TIP3    H217113   4.767   1.345   1.667  0.9804  0.3504  1.2776
 5703TIP3   OH217114   3.120   0.410   2.644  0.0756  0.0432  0.1522
 5703TIP3    H117115   3.170   0.331   2.624  0.7839  0.2597  0.9712
 5703TIP3    H217116   3.120   0.460   2.563 -0.5935 -0.9087 -0.4457
 5704TIP3   OH217117   1.255   4.339   0.970  0.3888 -0.4982  0.0446
 5704TIP3    H117118   1.178   4.348   0.915 -1.2428  0.7857  2.3781
 5704TIP3    H217119   1.328   4.359   0.912 -1.1352 -0.1671 -1.8636
 5705TIP3   OH217120   1.375   1.509   2.068  0.8949 -0.7854  0.4121
 5705TIP3    H117121   1.290   1.534   2.104 -0.6582 -0.6929 -2.8875
 5705TIP3    H217122   1.411   1.447   2.131 -1.4666 -0.5663  2.0920
 5706TIP3   OH217123   4.538   1.973   0.195  0.0788  0.1308 -0.3421
 5706TIP3    H117124   4.539   1.878   0.210 -1.3547  0.2495  0.6654
 5706TIP3    H217125   4.507   1.982   0.105  0.2083 -0.3635 -0.4388
 5707TIP3   OH217126   1.162   0.505   5.143 -0.0244 -0.4765  0.2254
 5707TIP3    H117127   1.145   0.441   5.212 -1.7947  0.4491  0.7048
 5707TIP3    H217128   1.247   0.544   5.167 -0.6736 -0.0582  2.0176
 5708TIP3   OH217129   1.596   3.995   4.753  0.0101  0.3814 -0.0021
 5708TIP3    H117130   1.631   4.049   4.824  0.9018 -1.6731  1.2132
 5708TIP3    H217131   1.669   3.989   4.691 -0.0977  0.5934 -0.1490
 5709TIP3   OH217132   0.786   3.649   3.587 -0.3760 -0.5989  0.4506
 5709TIP3    H117133   0.839   3.606   3.521  0.3955 -1.0727  1.3559
 5709TIP3    H217134   0.742   3.578   3.633 -1.3289 -0.2447  0.1179
 5710TIP3   OH217135   4.224   4.723   2.003 -0.4244  0.0103 -0.0502
 5710TIP3    H117136   4.251   4.653   2.063  1.8430  0.8226 -0.0278
 5710TIP3    H217137   4.257   4.803   2.044 -4.1227  1.3754  0.6040
 5711TIP3   OH217138   3.724   4.188   0.846 -0.0376 -0.1477 -0.2382
 5711TIP3    H117139   3.695   4.109   0.801  0.1016 -0.8965  0.9395
 5711TIP3    H217140   3.648   4.246   0.845 -1.4111 -1.7149  2.0028
 5712TIP3   OH217141   1.704   4.494   4.885  0.4337  0.2242 -0.1073
 5712TIP3    H117142   1.707   4.474   4.791  0.4151 -2.3357  0.3581
 5712TIP3    H217143   1.637   4.562   4.893  1.9222  2.0532 -2.1328
 5713TIP3   OH217144   0.296   1.852   0.456  0.4058  1.0849  0.3776
 5713TIP3    H117145   0.283   1.906   0.378  0.9747  0.9181  0.1658
 5713TIP3    H217146   0.255   1.902   0.526 -1.9062  0.3298 -0.3427
 5714TIP3   OH217147   2.937   3.383   1.803 -0.5437  0.0351  0.1980
 5714TIP3    H117148   3.016   3.435   1.815 -1.5279  1.4432  0.7633
 5714TIP3    H217149   2.869   3.432   1.849 -2.2365  0.0605 -2.2053
 5715TIP3   OH217150   0.853   2.309   2.263 -0.1206 -0.0307  0.0848
 5715TIP3    H117151   0.781   2.252   2.288  0.2834 -0.1534  1.0379
 5715TIP3    H217152   0.851   2.380   2.327  2.0945 -1.3248  1.7554
 5716TIP3   OH217153   3.477   4.332   0.129 -0.1554  0.3249  0.2996
 5716TIP3    H117154   3.533   4.332   0.051 -0.2266  0.0488  0.2478
 5716TIP3    H217155   3.391   4.357   0.096 -0.5037 -1.1188  0.0527
 5717TIP3   OH217156   3.382   5.652   3.563  0.3364 -0.4482 -0.1280
 5717TIP3    H117157   3.288   5.669   3.562  0.7672  2.3796  0.0364
 5717TIP3    H217158   3.408   5.667   3.653  1.2603  1.0783 -0.6184
 5718TIP3   OH217159   1.366   3.238   5.121  0.0583 -0.5249 -0.3507
 5718TIP3    H117160   1.347   3.290   5.042 -1.3625  0.0490  0.3159
 5718TIP3    H217161   1.338   3.149   5.099  0.2609 -0.5024 -0.7021
 5719TIP3   OH217162   3.803   2.758   2.680 -0.0563 -0.1237 -0.6720
 5719TIP3    H117163   3.728   2.719   2.724 -0.6293  2.1352  0.5218
 5719TIP3    H217164   3.879   2.728   2.730 -0.3860 -0.4373 -0.3523
 5720TIP3   OH217165   4.409   3.092   2.061 -0.0124  0.5812  0.4575
 5720TIP3    H117166   4.363   3.163   2.107 -1.2042  0.4935 -0.5406
 5720TIP3    H217167   4.350   3.017   2.067 -0.8678  0.9090 -2.2729
 5721TIP3   OH217168   5.947   4.481   0.600  0.0567  0.1727 -0.0346
 5721TIP3    H117169   5.902   4.525   0.673  0.9654  1.2234 -0.1012
 5721TIP3    H217170   5.898   4.508   0.522  0.9253  1.5219 -0.1358
 5722TIP3   OH217171   3.489   5.145   4.297 -0.5353  0.2500  0.4773
 5722TIP3    H117172   3.567   5.197   4.314 -1.5637  1.2092  2.8142
 5722TIP3    H217173   3.521   5.067   4.253  1.6977  0.7375  1.0879
 5723TIP3   OH217174   4.838   2.109   1.156  0.5955  0.4038  0.1667
 5723TIP3    H117175   4.932   2.099   1.140  0.8897 -0.0841  2.0456
 5723TIP3    H217176   4.822   2.203   1.146  1.3057  0.5064 -0.0486
 5724TIP3   OH217177   3.877   3.875   4.311 -0.4078 -0.4298 -0.3572
 5724TIP3    H117178   3.971   3.861   4.296 -0.2192  0.5363 -0.1283
 5724TIP3    H217179   3.867   3.871   4.406 -0.0789  2.3320 -0.1238
 5725TIP3   OH217180   2.058   4.621   4.649  0.2983  0.1517  0.2736
 5725TIP3    H117181   2.052   4.705   4.694 -0.9798 -0.4578  1.2962
 5725TIP3    H217182   2.095   4.561   4.714 -1.4436 -0.7108  0.5424
 5726TIP3   OH217183   4.661   1.039   3.957  0.0408 -0.1633 -0.0729
 5726TIP3    H117184   4.641   0.948   3.978 -0.5078 -0.0999 -0.3194
 5726TIP3    H217185   4.707   1.072   4.035 -0.2218 -0.5015  0.2261
 5727TIP3   OH217186   2.029   0.701   4.366  0.3882  0.8822  0.5119
 5727TIP3    H117187   2.125   0.695   4.368  0.3842 -0.0444 -0.9056
 5727TIP3    H217188   2.009   0.777   4.421  2.0701  2.5216 -1.0017
 5728TIP3   OH217189   0.796   4.251   0.209  0.6570  0.6720 -0.0778
 5728TIP3    H117190   0.753   4.225   0.128  0.5292 -0.7780  0.4244
 5728TIP3    H217191   0.830   4.338   0.191  0.3791  0.4992 -1.5869
 5729TIP3   OH217192   0.193   4.988   4.768 -0.2937  0.0551  0.0807
 5729TIP3    H117193   0.208   4.894   4.777  1.4107  0.3183  0.3146
 5729TIP3    H217194   0.247   5.014   4.693  0.7412  1.1312  1.1530
 5730TIP3   OH217195   1.311   0.453   4.640  0.6086  0.0604 -0.0791
 5730TIP3    H117196   1.226   0.447   4.596  0.1890 -1.7003  0.8753
 5730TIP3    H217197   1.369   0.397   4.588  0.9551  0.5175 -0.1928
 5731TIP3   OH217198   0.783   3.620   1.420 -0.1192 -0.0443 -0.2771
 5731TIP3    H117199   0.772   3.689   1.486  0.5455  3.3678 -3.3606
 5731TIP3    H217200   0.873   3.590   1.432 -0.0942  0.3068  0.5006
 5732TIP3   OH217201   5.700   2.427   2.788 -0.7115  0.2040 -0.8623
 5732TIP3    H117202   5.649   2.371   2.729 -2.3343  1.3975 -0.6544
 5732TIP3    H217203   5.749   2.485   2.730 -2.7776  1.7956 -1.1290
 5733TIP3   OH217204   5.841   5.906   2.431 -0.3026  0.2959  0.3847
 5733TIP3    H117205   5.922   5.902   2.482  0.5210 -1.4057 -0.9243
 5733TIP3    H217206   5.830   5.817   2.397 -2.9725  0.3622  0.8355
 5734TIP3   OH217207   1.990   5.244   2.993 -0.7209 -0.3408  0.3249
 5734TIP3    H117208   1.932   5.303   3.041  0.5129  0.9837  0.2696
 5734TIP3    H217209   1.958   5.246   2.903 -0.3388  0.7328  0.2041
 5735TIP3   OH217210   0.755   1.888   2.245 -0.3434 -0.1349  0.6296
 5735TIP3    H117211   0.771   1.939   2.166 -0.7001  1.6049  1.6414
 5735TIP3    H217212   0.819   1.921   2.308 -0.1999 -1.3515  1.1475
 5736TIP3   OH217213   0.673   0.475   4.833  0.3807 -0.1056 -0.4702
 5736TIP3    H117214   0.618   0.533   4.885 -1.6504 -1.2276 -1.2380
 5736TIP3    H217215   0.625   0.391   4.832  2.3037 -1.2640 -0.8829
 5737TIP3   OH217216   0.615   4.276   4.031 -0.3542  0.3558 -0.4343
 5737TIP3    H117217   0.560   4.336   3.979  1.1517  0.7672 -1.6486
 5737TIP3    H217218   0.648   4.213   3.967  1.0030  0.4506  0.1460
 5738TIP3   OH217219   4.687   1.443   2.035 -0.2909  0.5246  0.2576
 5738TIP3    H117220   4.765   1.456   1.981  0.3304 -0.1074  0.9822
 5738TIP3    H217221   4.618   1.418   1.973  0.9168 -2.2829 -0.0838
 5739TIP3   OH217222   5.768   3.511   1.080 -0.1294 -0.0800 -0.0020
 5739TIP3    H117223   5.731   3.543   1.162 -0.9363 -0.5193 -0.1845
 5739TIP3    H217224   5.696   3.518   1.017 -0.1649 -1.6769 -0.1861
 5740TIP3   OH217225   2.015   2.277   4.064  0.0098  0.2945 -0.2150
 5740TIP3    H117226   1.948   2.322   4.116 -1.2951 -2.1097  0.2931
 5740TIP3    H217227   2.046   2.206   4.120  0.5908 -0.6535 -1.6770
 5741TIP3   OH217228   0.956   0.693   3.172  0.0937  0.2265  0.1710
 5741TIP3    H117229   1.028   0.733   3.124  0.5927  0.3759  1.0297
 5741TIP3    H217230   0.983   0.603   3.187 -0.1794  0.1035 -0.0571
 5742TIP3   OH217231   3.042   5.580   4.099 -0.3792 -0.1646  0.1566
 5742TIP3    H117232   3.055   5.489   4.123  0.3475  0.0858  0.7466
 5742TIP3    H217233   3.103   5.629   4.154  3.1306  0.2826 -3.6088
 5743TIP3   OH217234   3.499   0.634   0.653  0.5245  0.1334 -0.1657
 5743TIP3    H117235   3.405   0.624   0.640  0.7322  0.0074 -1.9542
 5743TIP3    H217236   3.509   0.657   0.745 -1.4077  2.0196 -0.3506
 5744TIP3   OH217237   4.004   5.731   0.950 -0.0315  0.3664 -0.2536
 5744TIP3    H117238   4.071   5.800   0.949  2.1171 -1.6083 -1.0146
 5744TIP3    H217239   3.927   5.772   0.911  0.9175  2.5424  0.0155
 5745TIP3   OH217240   4.144   4.187   4.680  0.0553 -0.1680  0.0226
 5745TIP3    H117241   4.231   4.214   4.650 -0.4665  1.8239  0.2028
 5745TIP3    H217242   4.104   4.267   4.714 -1.6610 -1.1577  0.4431
 5746TIP3   OH217243   0.711   0.833   0.928 -0.9224 -0.3592  0.0570
 5746TIP3    H117244   0.780   0.892   0.957 -1.3127  0.9814 -1.5662
 5746TIP3    H217245   0.740   0.805   0.841 -2.4427  0.3208 -0.6979
 5747TIP3   OH217246   1.337   3.526   4.067  0.3030 -0.0235 -0.4224
 5747TIP3    H117247   1.354   3.610   4.110 -0.5330 -0.4299  0.7492
 5747TIP3    H217248   1.343   3.462   4.138 -1.9263 -0.6359 -0.7132
 5748TIP3   OH217249   4.048   3.035   5.207 -0.6932  0.2919 -0.1925
 5748TIP3    H117250   4.063   2.951   5.163 -0.0209  0.3285 -0.0454
 5748TIP3    H217251   4.090   3.100   5.151  0.2474  0.3292  0.5377
 5749TIP3   OH217252   5.792   2.105   1.597 -0.4910  0.3659 -0.0457
 5749TIP3    H117253   5.867   2.162   1.617 -0.3450  0.3808 -0.6061
 5749TIP3    H217254   5.724   2.132   1.659 -0.1670  0.6307  0.1974
 5750TIP3   OH217255   5.722   0.884   3.725 -0.5791 -0.0356 -0.4360
 5750TIP3    H117256   5.736   0.800   3.680  1.8162  0.9789 -1.7754
 5750TIP3    H217257   5.722   0.949   3.655  2.0753  1.4906  0.8190
 5751TIP3   OH217258   4.480   0.090   1.802 -0.5773 -0.4449 -0.2061
 5751TIP3    H117259   4.411   0.037   1.841  0.0325  0.2326  1.9664
 5751TIP3    H217260   4.550   0.028   1.781 -0.8803 -0.8283 -0.0881
 5752TIP3   OH217261   5.188   1.715   4.533  0.0715  0.2007 -0.3085
 5752TIP3    H117262   5.123   1.766   4.582 -1.1498 -0.4171 -1.2182
 5752TIP3    H217263   5.270   1.764   4.543 -1.0185  2.3297 -1.0777
 5753TIP3   OH217264   3.221   4.683   3.451  0.2170  0.0509  0.3272
 5753TIP3    H117265   3.129   4.659   3.445  0.0203  0.9286 -0.3551
 5753TIP3    H217266   3.246   4.704   3.361  1.6634 -2.2199  0.0890
 5754TIP3   OH217267   3.935   4.512   3.623  0.5045  0.3792 -0.0790
 5754TIP3    H117268   3.900   4.424   3.638 -1.8473  0.8912 -1.8874
 5754TIP3    H217269   3.978   4.505   3.538  0.3958  0.9413 -0.1814
 5755TIP3   OH217270   3.180   5.325   1.376 -0.3921 -0.3457 -0.2557
 5755TIP3    H117271   3.153   5.250   1.324  0.6484 -1.2514  0.4661
 5755TIP3    H217272   3.101   5.354   1.420 -0.4972 -2.1229  0.8102
 5756TIP3   OH217273   4.174   1.457   3.527 -0.3964 -0.0563  0.2655
 5756TIP3    H117274   4.261   1.480   3.493 -0.2595  0.9608  1.2294
 5756TIP3    H217275   4.186   1.372   3.569  0.2769  0.3113  0.8454
 5757TIP3   OH217276   3.752   1.826   1.247 -0.0867  0.1446 -0.4421
 5757TIP3    H117277   3.834   1.779   1.262  0.1310  1.0511  1.3623
 5757TIP3    H217278   3.684   1.764   1.275  0.0676  0.0582 -0.2575
 5758TIP3   OH217279   5.855   5.710   3.005 -0.8045  0.1673  0.5393
 5758TIP3    H117280   5.869   5.790   2.953  0.4381  1.1519  2.2939
 5758TIP3    H217281   5.896   5.641   2.953  1.4578  1.3165  0.6585
 5759TIP3   OH217282   0.976   5.473   2.011  0.3780 -0.7070  0.8276
 5759TIP3    H117283   0.937   5.393   2.047 -0.8379 -0.4803  0.0623
 5759TIP3    H217284   0.911   5.506   1.949  1.3052  0.3274  0.3677
 5760TIP3   OH217285   2.384   3.356   0.222 -0.6588  0.1103  0.6644
 5760TIP3    H117286   2.470   3.325   0.253 -0.3379  1.7184  1.4855
 5760TIP3    H217287   2.388   3.346   0.127 -0.3349 -1.6806  0.8237
 5761TIP3   OH217288   6.036   0.338   2.698 -0.1651  0.2374 -0.4883
 5761TIP3    H117289   6.077   0.266   2.746  2.7077  1.0541 -1.5090
 5761TIP3    H217290   6.022   0.303   2.610  1.0097  0.7767 -0.9172
 5762TIP3   OH217291   4.040   1.607   0.402  0.7282 -0.3260 -0.3685
 5762TIP3    H117292   4.041   1.658   0.483 -1.7079 -1.8250  0.7560
 5762TIP3    H217293   3.977   1.652   0.346 -2.4704 -2.5316  1.1401
 5763TIP3   OH217294   5.849   1.660   1.063  0.0499  0.0530 -0.0612
 5763TIP3    H117295   5.937   1.653   1.026 -0.5229 -0.4959 -1.3676
 5763TIP3    H217296   5.791   1.647   0.989 -1.1423  0.1717  0.8325
 5764TIP3   OH217297   2.877   1.717   2.038 -0.1043  0.2552 -0.1588
 5764TIP3    H117298   2.832   1.752   1.961  1.3819  1.4647 -0.4969
 5764TIP3    H217299   2.872   1.787   2.103 -2.6117 -1.2485  1.4677
 5765TIP3   OH217300   0.932   0.648   2.271 -0.2256  0.3266 -0.6331
 5765TIP3    H117301   0.839   0.653   2.249 -0.3666  1.1396  0.0909
 5765TIP3    H217302   0.973   0.718   2.219 -0.1462  0.4924 -0.3501
 5766TIP3   OH217303   5.850   5.638   4.389  0.4601 -0.0412  0.4736
 5766TIP3    H117304   5.897   5.702   4.335 -1.4118  1.5401  0.6171
 5766TIP3    H217305   5.919   5.593   4.439  2.0661 -0.1611 -1.7174
 5767TIP3   OH217306   2.461   5.723   4.542 -0.1469  0.5756 -0.0497
 5767TIP3    H117307   2.510   5.657   4.590 -2.0210  1.3999  3.2844
 5767TIP3    H217308   2.529   5.774   4.496  1.8080 -0.3772  1.6160
 5768TIP3   OH217309   6.308   1.494   3.088  0.4926  0.0241 -0.8793
 5768TIP3    H117310   6.360   1.569   3.058 -1.5261  0.6616 -3.0624
 5768TIP3    H217311   6.217   1.518   3.068 -0.5874 -1.5767  1.5927
 5769TIP3   OH217312   1.072   3.268   0.734 -0.0367  0.3662  0.3099
 5769TIP3    H117313   0.988   3.313   0.729  0.8742  2.0552 -0.2374
 5769TIP3    H217314   1.077   3.216   0.653  0.5534  2.3328 -0.9784
 5770TIP3   OH217315   4.065   0.995   3.130  0.4721  0.1372 -0.1010
 5770TIP3    H117316   4.160   0.986   3.122  0.4657 -0.7332  0.6128
 5770TIP3    H217317   4.031   0.920   3.081  0.1854 -0.0985  0.4617
 5771TIP3   OH217318   2.924   5.220   3.332  0.5197 -0.5730  0.7018
 5771TIP3    H117319   2.856   5.168   3.289 -0.1320 -0.5135  1.6316
 5771TIP3    H217320   3.005   5.196   3.287 -0.1464 -0.4176 -0.6327
 5772TIP3   OH217321   0.738   0.558   0.337 -0.0692  0.5602  0.6120
 5772TIP3    H117322   0.739   0.505   0.417 -0.6490 -1.1334 -0.4446
 5772TIP3    H217323   0.689   0.505   0.274  1.6918  1.1251 -1.3439
 5773TIP3   OH217324   1.745   3.276   0.173  0.1469  0.4837  0.7231
 5773TIP3    H117325   1.808   3.258   0.244 -0.0969 -1.1026  0.5705
 5773TIP3    H217326   1.787   3.345   0.122  1.1839  0.3472  1.3478
 5774TIP3   OH217327   4.734   5.399   2.739  0.7440  0.3576 -0.1309
 5774TIP3    H117328   4.715   5.383   2.832  2.7870  3.6045  1.0360
 5774TIP3    H217329   4.654   5.437   2.704  0.2599 -0.0252  0.5356
 5775TIP3   OH217330   2.511   3.553   3.859 -0.0106  0.1777 -0.0947
 5775TIP3    H117331   2.599   3.582   3.834  0.4865 -1.8963 -1.0356
 5775TIP3    H217332   2.452   3.616   3.817  0.9947  1.9004  0.9714
 5776TIP3   OH217333   1.498   1.450   1.065  0.3376 -0.4738  0.8905
 5776TIP3    H117334   1.508   1.537   1.025 -0.6084 -0.5492  0.4654
 5776TIP3    H217335   1.451   1.467   1.147  1.8884 -0.3722  1.8065
 5777TIP3   OH217336   5.149   5.379   2.861 -0.4527 -0.4388 -0.5957
 5777TIP3    H117337   5.113   5.459   2.824 -2.0319 -0.6251  0.4467
 5777TIP3    H217338   5.076   5.338   2.906  0.3636 -2.3943 -0.9405
 5778TIP3   OH217339   5.402   2.088   4.317  0.1982 -0.0310  0.2419
 5778TIP3    H117340   5.496   2.083   4.300  0.3798  0.7699  0.9300
 5778TIP3    H217341   5.393   2.058   4.408 -0.3169 -0.8692 -0.0752
 5779TIP3   OH217342   0.781   4.285   1.326  0.9059 -0.0128  0.0686
 5779TIP3    H117343   0.822   4.270   1.241  1.0051 -1.3693  0.3358
 5779TIP3    H217344   0.798   4.205   1.375  1.0043  0.8199  1.4385
 5780TIP3   OH217345   4.688   4.773   0.176  0.3597  0.8667  0.2156
 5780TIP3    H117346   4.686   4.860   0.134  3.0151  1.4274  1.0440
 5780TIP3    H217347   4.780   4.760   0.198  0.0554 -2.2539  0.0357
 5781TIP3   OH217348   3.683   3.224   2.688 -0.1902  0.3577 -0.6843
 5781TIP3    H117349   3.695   3.189   2.776 -0.1038  2.3661  0.1623
 5781TIP3    H217350   3.689   3.148   2.630  0.6630 -0.8815  0.9643
 5782TIP3   OH217351   0.468   1.531   2.299  0.2358 -0.4243 -0.2187
 5782TIP3    H117352   0.417   1.492   2.371  0.5390 -1.2447 -0.4336
 5782TIP3    H217353   0.503   1.455   2.252 -0.7101  0.0593 -1.7903
 5783TIP3   OH217354   2.840   0.296   0.743  0.3308 -0.1137  0.2027
 5783TIP3    H117355   2.854   0.339   0.828 -1.0557 -0.1302  0.4594
 5783TIP3    H217356   2.874   0.208   0.756  1.7283  0.3940  0.1749
 5784TIP3   OH217357   2.876   1.229   0.358  0.2185 -0.1054 -0.5524
 5784TIP3    H117358   2.926   1.170   0.301  1.9990  1.8553 -1.1577
 5784TIP3    H217359   2.853   1.176   0.434  0.1681 -2.0461 -1.8657
 5785TIP3   OH217360   2.780   1.465   1.367 -0.1382  0.0862 -0.2860
 5785TIP3    H117361   2.764   1.375   1.395  0.4798 -0.6336 -2.0837
 5785TIP3    H217362   2.839   1.501   1.432 -0.4560 -0.7822  0.4949
 5786TIP3   OH217363   3.040   3.187   2.083  0.0699 -0.5443  0.3895
 5786TIP3    H117364   3.102   3.115   2.093 -0.1821 -1.0173 -1.1286
 5786TIP3    H217365   3.094   3.264   2.066  0.3842 -0.1542  2.8206
 5787TIP3   OH217366   5.443   1.217   3.024 -0.3066  0.3504 -0.8858
 5787TIP3    H117367   5.395   1.268   2.958  0.2132  0.9825 -0.7797
 5787TIP3    H217368   5.431   1.265   3.105  0.8189  0.7386 -0.9277
 5788TIP3   OH217369   3.951   3.118   0.180  0.0806 -0.4468  0.2043
 5788TIP3    H117370   3.969   3.115   0.274 -0.0479  0.5825  0.2717
 5788TIP3    H217371   3.908   3.202   0.167 -0.2466 -0.7493 -0.7253
 5789TIP3   OH217372   5.192   3.562   4.653  0.6267 -0.2377 -0.1482
 5789TIP3    H117373   5.223   3.644   4.615 -0.4602 -0.2943 -1.2084
 5789TIP3    H217374   5.179   3.504   4.578  0.5645 -1.0956  0.5134
 5790TIP3   OH217375   2.887   0.486   3.745 -0.0739  0.0208  0.4816
 5790TIP3    H117376   2.935   0.548   3.690 -0.7108 -0.2550 -0.4130
 5790TIP3    H217377   2.883   0.527   3.831  0.1806  0.8642  0.0999
 5791TIP3   OH217378   0.611   3.277   2.954  0.5884  0.1729  0.0284
 5791TIP3    H117379   0.626   3.186   2.926  1.0683  0.3446 -0.2896
 5791TIP3    H217380   0.535   3.305   2.904  1.3367  0.4208 -0.9894
 5792TIP3   OH217381   1.266   1.992   1.253  0.2827 -0.7395 -0.0277
 5792TIP3    H117382   1.266   2.027   1.165  0.3428 -0.4578  0.0837
 5792TIP3    H217383   1.236   2.064   1.308  0.7695 -0.7414  0.2470
 5793TIP3   OH217384   3.075   2.187   1.195 -0.1675 -0.8464 -0.3278
 5793TIP3    H117385   3.081   2.188   1.100 -2.6715 -0.3461 -0.5474
 5793TIP3    H217386   3.162   2.216   1.225  0.5120 -0.5519 -2.4450
 5794TIP3   OH217387   2.259   1.584   4.372  0.6010  0.5126  0.0052
 5794TIP3    H117388   2.291   1.660   4.324 -0.6845  0.0861 -1.6307
 5794TIP3    H217389   2.297   1.509   4.326  0.2137  0.1055  0.3408
 5795TIP3   OH217390   4.737   3.193   0.314  0.0822 -0.2740 -0.0774
 5795TIP3    H117391   4.658   3.242   0.338  0.6713  0.5240  0.2779
 5795TIP3    H217392   4.704   3.112   0.275 -0.9225  0.6919 -1.2927
 5796TIP3   OH217393   5.709   3.495   2.794 -0.1415 -0.2182 -0.1716
 5796TIP3    H117394   5.666   3.420   2.835 -1.0682  1.7613  2.8483
 5796TIP3    H217395   5.640   3.538   2.745 -0.3061  0.0974  0.3283
 5797TIP3   OH217396   3.731   0.878   4.151  0.1017  0.6073 -0.5786
 5797TIP3    H117397   3.654   0.928   4.123  0.1067  1.4790  0.8773
 5797TIP3    H217398   3.698   0.815   4.215  0.4066  0.0647 -0.9467
 5798TIP3   OH217399   1.395   5.333   0.815 -0.1249 -1.0815 -0.5424
 5798TIP3    H117400   1.417   5.422   0.788 -0.6998  0.0480  2.3075
 5798TIP3    H217401   1.477   5.297   0.850 -0.4286 -0.6512  0.6823
 5799TIP3   OH217402   4.800   0.573   0.873 -0.1002  0.0794  1.0588
 5799TIP3    H117403   4.791   0.641   0.940 -1.4533  1.7590 -0.6925
 5799TIP3    H217404   4.877   0.598   0.823  0.0933 -0.3682  1.1278
 5800TIP3   OH217405   4.608   3.682   0.735 -0.1992  0.1909  0.3289
 5800TIP3    H117406   4.598   3.702   0.829  1.0453 -0.5158  0.6251
 5800TIP3    H217407   4.664   3.605   0.733  0.7229  0.8708 -1.0443
 5801TIP3   OH217408   1.553   0.414   3.246 -0.3974 -0.0069  0.1913
 5801TIP3    H117409   1.616   0.361   3.198  0.0041  1.5868 -1.1530
 5801TIP3    H217410   1.476   0.419   3.189 -0.0620  1.5964 -0.1806
 5802TIP3   OH217411   5.712   1.711   3.379  0.1981  0.4770 -0.1984
 5802TIP3    H117412   5.737   1.619   3.384  0.4164  0.5728  0.9922
 5802TIP3    H217413   5.686   1.733   3.469 -0.1783  1.4825 -0.5427
 5803TIP3   OH217414   3.347   4.996   0.171 -0.4011  0.0356  0.6464
 5803TIP3    H117415   3.365   4.971   0.262 -1.2344  0.6165  0.9933
 5803TIP3    H217416   3.348   4.914   0.122  0.9178 -0.1892  1.0188
 5804TIP3   OH217417   3.201   1.716   1.579  0.5290  0.3989  0.4790
 5804TIP3    H117418   3.278   1.666   1.605  0.4628  0.2735  0.4323
 5804TIP3    H217419   3.234   1.805   1.568  0.3481  0.7020  2.1002
 5805TIP3   OH217420   2.675   3.512   1.139  0.2300 -0.2065  0.5013
 5805TIP3    H117421   2.730   3.585   1.110 -0.7812  0.1737 -0.5427
 5805TIP3    H217422   2.699   3.499   1.231  1.8672  0.1077  0.1483
 5806TIP3   OH217423   0.886   0.224   2.901 -0.7239  1.1679  0.1210
 5806TIP3    H117424   0.846   0.170   2.832 -0.0104  1.3208 -0.4172
 5806TIP3    H217425   0.898   0.163   2.974 -0.9698  0.8675 -0.0837
 5807TIP3   OH217426   0.336   3.299   5.032  0.4419  0.2623 -0.1649
 5807TIP3    H117427   0.368   3.209   5.038  3.7133  1.2859 -0.4172
 5807TIP3    H217428   0.337   3.318   4.938  0.5697  0.8016 -0.0581
 5808TIP3   OH217429   1.388   3.953   0.181  0.5605 -0.0852  0.4816
 5808TIP3    H117430   1.391   3.872   0.232 -0.3385 -0.2080  0.3583
 5808TIP3    H217431   1.311   4.000   0.214 -0.6789 -0.6556 -1.4347
 5809TIP3   OH217432   4.123   2.730   0.461 -0.2483 -0.1524  0.0087
 5809TIP3    H117433   4.198   2.710   0.517 -0.2800 -0.8940 -0.2117
 5809TIP3    H217434   4.047   2.715   0.516 -0.2658 -0.4842 -0.1018
 5810TIP3   OH217435   4.016   0.851   1.086 -0.6183  0.5954 -0.0110
 5810TIP3    H117436   3.969   0.793   1.146  0.0756 -0.2333 -0.2417
 5810TIP3    H217437   3.973   0.838   1.002  1.0994 -1.5964 -0.6604
 5811TIP3   OH217438   4.634   0.397   0.119  0.2923  0.2186  0.1027
 5811TIP3    H117439   4.553   0.437   0.150  1.2193  2.2225  0.1323
 5811TIP3    H217440   4.620   0.386   0.025  0.5433  2.1509 -0.2082
 5812TIP3   OH217441   3.053   1.358   4.365 -0.0857 -0.4901 -0.2793
 5812TIP3    H117442   2.995   1.434   4.367 -0.7651 -0.9910 -0.6166
 5812TIP3    H217443   3.136   1.393   4.333 -0.8584 -0.1845 -2.0984
 5813TIP3   OH217444   5.862   2.647   2.096  0.1110 -0.8794  0.2896
 5813TIP3    H117445   5.882   2.716   2.160 -1.2464  1.9079 -2.0677
 5813TIP3    H217446   5.931   2.655   2.031 -0.5691 -1.0871 -0.4730
 5814TIP3   OH217447   3.999   0.469   1.436  0.5422 -0.0560 -0.0359
 5814TIP3    H117448   4.031   0.380   1.428  0.3832 -0.3390  1.9083
 5814TIP3    H217449   4.064   0.514   1.490 -0.0347  0.6254  0.1211
 5815TIP3   OH217450   5.611   4.958   2.601  0.4157  0.0252  0.0963
 5815TIP3    H117451   5.652   4.939   2.517  2.0552 -0.4932  0.9625
 5815TIP3    H217452   5.558   5.036   2.586  2.4717  1.2884 -0.8834
 5816TIP3   OH217453   2.309   1.913   2.310 -0.0252  0.0236  0.7067
 5816TIP3    H117454   2.339   1.864   2.234  0.6869  0.9381  0.3829
 5816TIP3    H217455   2.216   1.891   2.318 -0.7431  1.7472 -1.8839
 5817TIP3   OH217456   0.806   3.099   0.659 -0.0896 -0.5677  0.4690
 5817TIP3    H117457   0.886   3.111   0.607 -0.9491 -0.9874 -1.0126
 5817TIP3    H217458   0.810   3.168   0.725  0.9043  0.2005 -0.3560
 5818TIP3   OH217459   2.082   2.195   4.515  0.0822 -0.1405  0.4376
 5818TIP3    H117460   2.044   2.210   4.601  0.9954  0.6388  0.7257
 5818TIP3    H217461   2.132   2.114   4.525  0.4407  0.1147  0.7324
 5819TIP3   OH217462   0.248   5.066   5.099 -0.3285  0.2929 -0.8632
 5819TIP3    H117463   0.186   5.063   5.026 -1.4585 -0.6741  0.0992
 5819TIP3    H217464   0.329   5.030   5.063 -1.6281 -2.7816 -1.0045
 5820TIP3   OH217465   4.255   3.805   1.466 -0.4312  0.1299 -0.5519
 5820TIP3    H117466   4.162   3.808   1.486 -0.4638 -2.2386 -0.1591
 5820TIP3    H217467   4.280   3.897   1.459 -2.3999  0.8778  1.1018
 5821TIP3   OH217468   4.784   1.545   3.037 -0.0864 -0.4552 -0.2299
 5821TIP3    H117469   4.830   1.629   3.039 -1.3719  0.3250 -1.4335
 5821TIP3    H217470   4.773   1.522   3.129  0.4539  0.5997  0.1214
 5822TIP3   OH217471   3.257   4.809   0.684  0.0538  0.1967 -1.0920
 5822TIP3    H117472   3.332   4.783   0.739  0.5926 -1.4755 -2.5071
 5822TIP3    H217473   3.185   4.821   0.745  0.5556 -1.8931 -0.0022
 5823TIP3   OH217474   4.385   5.927   0.539  0.2272  0.2901  0.4909
 5823TIP3    H117475   4.289   5.931   0.539  0.2022  2.8894 -1.9615
 5823TIP3    H217476   4.412   5.975   0.617 -0.4736  0.5741  0.5639
 5824TIP3   OH217477   2.716   2.724   2.139  0.1007  0.1915 -0.3105
 5824TIP3    H117478   2.642   2.782   2.119  0.2796  0.3563 -0.4990
 5824TIP3    H217479   2.793   2.778   2.124  0.2671 -0.0771 -0.4152
 5825TIP3   OH217480   0.345   5.926   3.916  0.1124 -0.1170  0.0622
 5825TIP3    H117481   0.436   5.925   3.887 -0.0384 -3.1868 -0.6582
 5825TIP3    H217482   0.308   6.004   3.875  1.9163  0.0872 -1.3054
 5826TIP3   OH217483   0.342   5.349   0.846 -0.0448  0.1336 -0.3110
 5826TIP3    H117484   0.249   5.370   0.843 -0.0005  0.7350  1.5304
 5826TIP3    H217485   0.349   5.279   0.911  0.8149  0.3073 -0.2005
 5827TIP3   OH217486   2.128   5.861   1.409 -0.1072  0.5647 -0.0628
 5827TIP3    H117487   2.209   5.909   1.422 -0.4767  1.3638 -0.6261
 5827TIP3    H217488   2.154   5.769   1.407  0.8828  0.8532 -0.9797
 5828TIP3   OH217489   4.665   2.685   1.824 -0.3299 -0.0634  0.0442
 5828TIP3    H117490   4.705   2.723   1.902 -2.3425  0.6282  0.8149
 5828TIP3    H217491   4.678   2.591   1.834  0.2453  0.0801  0.7489
 5829TIP3   OH217492   2.369   0.281   1.343 -0.1685  0.0472 -0.2066
 5829TIP3    H117493   2.378   0.321   1.430 -0.0045  1.2582 -0.7693
 5829TIP3    H217494   2.311   0.206   1.358 -2.2380  1.6720  0.5201
 5830TIP3   OH217495   2.863   4.502   2.147 -0.2810 -1.1197 -0.0539
 5830TIP3    H117496   2.949   4.464   2.165  0.9315 -0.0651 -3.1269
 5830TIP3    H217497   2.867   4.590   2.185  0.4753 -0.6563 -1.1501
 5831TIP3   OH217498   5.781   5.579   1.332 -0.3654 -0.3451 -0.3417
 5831TIP3    H117499   5.708   5.627   1.294 -1.4943 -1.3366  0.4837
 5831TIP3    H217500   5.858   5.609   1.283 -1.0127  2.1668  0.0650
 5832TIP3   OH217501   1.843   2.297   3.278 -0.4627  0.0643 -0.8967
 5832TIP3    H117502   1.751   2.271   3.275 -0.6432  0.6284 -0.4877
 5832TIP3    H217503   1.844   2.388   3.249 -0.2772  0.6302  0.7751
 5833TIP3   OH217504   3.281   2.733   2.262 -0.3663  0.0332  0.0728
 5833TIP3    H117505   3.337   2.685   2.323  0.2887  0.6419 -0.0328
 5833TIP3    H217506   3.281   2.679   2.182 -0.1117 -0.0859  0.1502
 5834TIP3   OH217507   2.738   2.130   3.020  0.1293  0.1494 -0.7107
 5834TIP3    H117508   2.662   2.159   2.969  0.4675  1.9607 -0.2545
 5834TIP3    H217509   2.812   2.142   2.961  0.4452  1.6741 -0.0629
 5835TIP3   OH217510   1.857   2.585   0.137 -0.6488 -0.2911  0.6306
 5835TIP3    H117511   1.851   2.489   0.142  0.3264 -0.4467 -0.4443
 5835TIP3    H217512   1.883   2.612   0.224  0.3569 -1.1513  0.6226
 5836TIP3   OH217513   0.394   1.012   2.848 -0.0605  0.3880  0.2694
 5836TIP3    H117514   0.366   1.060   2.926 -0.2467 -0.4599  0.7255
 5836TIP3    H217515   0.366   1.068   2.775  0.6003  1.4575  0.7929
 5837TIP3   OH217516   6.187   1.028   1.482  0.6873 -0.3670  0.5670
 5837TIP3    H117517   6.205   0.939   1.453  3.2921  0.4380 -0.6110
 5837TIP3    H217518   6.272   1.061   1.513  0.0553  2.0167 -0.0220
 5838TIP3   OH217519   5.604   1.129   3.585  0.9511 -0.2577 -0.3092
 5838TIP3    H117520   5.555   1.066   3.532  1.1233  0.4920 -1.4012
 5838TIP3    H217521   5.675   1.158   3.527  2.0324 -0.5087  0.8539
 5839TIP3   OH217522   3.128   1.399   3.128  0.8703  0.0187 -0.6676
 5839TIP3    H117523   3.108   1.417   3.220 -1.4348 -0.8988 -0.9051
 5839TIP3    H217524   3.064   1.451   3.080  0.4466 -1.3331 -1.6311
 5840TIP3   OH217525   6.276   4.398   0.302  0.3789 -0.0771  0.0647
 5840TIP3    H117526   6.189   4.367   0.328  0.4484 -0.5424 -0.2380
 5840TIP3    H217527   6.336   4.343   0.353  0.5213 -1.1226 -1.1909
 5841TIP3   OH217528   2.457   4.181   0.486  0.0611  0.1415 -0.4738
 5841TIP3    H117529   2.376   4.168   0.535 -0.0280 -0.6150 -0.8012
 5841TIP3    H217530   2.451   4.119   0.413  1.4516 -0.7579  0.1429
 5842TIP3   OH217531   0.377   1.501   1.143 -0.0741  0.7668  0.8457
 5842TIP3    H117532   0.282   1.499   1.131 -0.1097  0.8199  1.1115
 5842TIP3    H217533   0.411   1.531   1.060 -0.2458  0.0064  0.4899
 5843TIP3   OH217534   0.964   2.246   0.448  0.1209  0.0063 -0.1591
 5843TIP3    H117535   0.901   2.196   0.394 -0.7793  1.5160 -0.5637
 5843TIP3    H217536   0.941   2.224   0.538 -2.4066  2.0446 -0.1996
 5844TIP3   OH217537   0.115   1.489   1.036  0.4250  0.3955 -0.6729
 5844TIP3    H117538   0.028   1.469   1.069  0.1174  2.9265  0.2762
 5844TIP3    H217539   0.109   1.472   0.942 -0.8270 -0.2254 -0.5060
 5845TIP3   OH217540   6.068   2.883   5.161 -0.5967 -0.1016 -0.0259
 5845TIP3    H117541   6.094   2.974   5.179  1.1705 -0.3876 -0.9676
 5845TIP3    H217542   6.017   2.889   5.081 -0.9382  0.1105  0.2029
 5846TIP3   OH217543   1.034   2.584   2.629 -0.1381  0.7108  0.3721
 5846TIP3    H117544   1.040   2.548   2.718  0.2683 -0.4196 -0.0894
 5846TIP3    H217545   1.112   2.639   2.621  1.2099 -1.1504 -0.0932
 5847TIP3   OH217546   0.321   5.803   4.699  0.1285 -0.5068 -0.2277
 5847TIP3    H117547   0.409   5.820   4.731 -0.5262  1.4618  0.6762
 5847TIP3    H217548   0.314   5.855   4.619 -0.2981 -0.4483 -0.1570
 5848TIP3   OH217549   2.535   4.429   0.379  0.1353  0.1286  0.2157
 5848TIP3    H117550   2.629   4.429   0.357 -0.1979  0.8317 -1.3184
 5848TIP3    H217551   2.517   4.340   0.409  1.3447  0.0669  0.8369
 5849TIP3   OH217552   6.193   5.065   3.976 -0.1419 -0.0294  0.1583
 5849TIP3    H117553   6.247   5.110   3.911  1.5997 -1.5501  0.4547
 5849TIP3    H217554   6.201   5.118   4.055 -0.3770  0.6109 -0.2493
 5850TIP3   OH217555   3.368   1.463   2.089  0.3222  0.5988  0.6093
 5850TIP3    H117556   3.370   1.486   1.996  1.4935 -1.4865  0.0471
 5850TIP3    H217557   3.278   1.436   2.106  0.4821 -0.6820 -0.4140
 5851TIP3   OH217558   4.733   2.116   0.777  0.0879 -0.2410 -0.1202
 5851TIP3    H117559   4.740   2.020   0.770  0.6937 -0.1978 -0.1668
 5851TIP3    H217560   4.737   2.146   0.686 -1.5716 -0.2537 -0.2175
 5852TIP3   OH217561   2.746   4.211   2.871 -0.0327  0.0709 -0.7967
 5852TIP3    H117562   2.833   4.250   2.860 -0.9749  2.6232  0.1926
 5852TIP3    H217563   2.756   4.122   2.838  2.7060  0.5797 -1.5968
 5853TIP3   OH217564   2.075   3.378   1.838  0.3830  0.0813  0.5750
 5853TIP3    H117565   2.099   3.470   1.845  1.5121 -0.1723  0.1416
 5853TIP3    H217566   2.158   3.331   1.841  0.0600 -0.7697 -1.7921
 5854TIP3   OH217567   0.443   1.659   0.931  0.2477 -0.0704 -0.0696
 5854TIP3    H117568   0.374   1.700   0.878  0.3527 -0.9477 -0.9242
 5854TIP3    H217569   0.488   1.600   0.870  1.5641  0.2535  0.5536
 5855TIP3   OH217570   4.908   4.247   2.899 -0.6883 -0.0549  0.5671
 5855TIP3    H117571   4.952   4.225   2.816 -0.5799 -1.0834  0.8857
 5855TIP3    H217572   4.818   4.265   2.874 -0.6723 -0.4266  0.2370
 5856TIP3   OH217573   1.318   5.256   4.061 -0.2370  0.9248 -0.1119
 5856TIP3    H117574   1.314   5.163   4.084  1.4637  0.5325 -1.2530
 5856TIP3    H217575   1.361   5.298   4.136  0.2175  0.5708 -0.1750
 5857TIP3   OH217576   5.317   0.093   0.100  0.1097 -0.3920  1.0547
 5857TIP3    H117577   5.256   0.165   0.090  2.2167  1.5861  1.5632
 5857TIP3    H217578   5.271   0.029   0.153 -1.7675  0.6375  0.7467
 5858TIP3   OH217579   4.844   5.236   0.685 -0.3438  0.2890  0.0615
 5858TIP3    H117580   4.788   5.165   0.651 -2.7159  1.7166  0.7511
 5858TIP3    H217581   4.888   5.270   0.607 -0.4702 -0.8427 -0.5361
 5859TIP3   OH217582   2.075   3.702   3.565 -0.4854  0.3707 -0.2133
 5859TIP3    H117583   1.989   3.744   3.572 -0.1273  1.0947 -0.0511
 5859TIP3    H217584   2.057   3.608   3.572 -1.2468  0.5252 -0.0501
 5860TIP3   OH217585   2.878   0.089   1.843  0.1995 -0.1178  1.0006
 5860TIP3    H117586   2.810   0.146   1.808  2.4614  1.4082 -1.2248
 5860TIP3    H217587   2.872   0.009   1.791  0.6437  0.3734  0.1743
 5861TIP3   OH217588   1.081   5.405   4.406 -0.3519  0.1164 -0.3445
 5861TIP3    H117589   1.116   5.428   4.320 -0.1946  1.9357  0.1761
 5861TIP3    H217590   1.045   5.317   4.394  0.0548  0.1582 -2.1517
 5862TIP3   OH217591   0.045   0.825   1.150  0.4200 -0.0336 -0.1371
 5862TIP3    H117592   0.126   0.840   1.198  0.1437  0.6637  0.1334
 5862TIP3    H217593  -0.012   0.780   1.213  0.2247  0.4486  0.0342
 5863TIP3   OH217594   5.500   2.425   3.029 -0.2049 -0.5752  0.4445
 5863TIP3    H117595   5.453   2.375   3.095  1.0035 -0.1573  1.6715
 5863TIP3    H217596   5.433   2.452   2.967 -1.1769 -2.0408  0.8153
 5864TIP3   OH217597   5.925   0.904   0.061  0.0232  0.1033 -0.2876
 5864TIP3    H117598   5.838   0.941   0.045 -1.0082 -2.1680 -0.3294
 5864TIP3    H217599   5.956   0.880  -0.026  1.5495  2.4674 -0.5071
 5865TIP3   OH217600   4.594   5.572   3.503 -0.8032 -0.3381 -0.0173
 5865TIP3    H117601   4.600   5.606   3.593 -0.0922 -0.3143 -0.0666
 5865TIP3    H217602   4.500   5.566   3.486 -0.9432  0.0760  0.5703
 5866TIP3   OH217603   2.532   5.587   3.863 -0.5631 -0.4382  0.5069
 5866TIP3    H117604   2.487   5.564   3.782 -0.6126  0.7337  0.1789
 5866TIP3    H217605   2.472   5.647   3.908  0.4986  0.9156  0.1948
 5867TIP3   OH217606   5.654   3.685   3.771  0.1528 -0.6191  0.1330
 5867TIP3    H117607   5.617   3.636   3.845  0.1476 -1.6217 -0.5293
 5867TIP3    H217608   5.627   3.776   3.788 -0.3352 -0.9205  1.0648
 5868TIP3   OH217609   2.511   3.197   0.579 -0.1869  0.3653 -0.2261
 5868TIP3    H117610   2.519   3.247   0.661  1.8574 -0.0076 -0.1456
 5868TIP3    H217611   2.420   3.209   0.553 -0.0608  3.3441  0.2990
 5869TIP3   OH217612   6.086   5.947   3.105  0.5320  0.5938  0.4055
 5869TIP3    H117613   6.046   5.995   3.032  0.2870  1.9898  1.4089
 5869TIP3    H217614   6.014   5.930   3.165  0.5159 -1.5435 -0.1221
 5870TIP3   OH217615   1.999   2.137   3.455  0.0896 -0.2635 -0.4879
 5870TIP3    H117616   1.955   2.207   3.407 -1.6476 -0.1359  1.1718
 5870TIP3    H217617   1.954   2.134   3.540  2.0357 -1.4564  0.5874
 5871TIP3   OH217618   3.027   1.174   3.025 -0.3900 -0.1159  0.2059
 5871TIP3    H117619   3.051   1.104   3.085  2.0206 -1.3810 -2.0383
 5871TIP3    H217620   3.056   1.254   3.068  0.6231 -0.8971  1.0222
 5872TIP3   OH217621   2.053   1.947   0.755 -0.7185 -0.4486 -0.2211
 5872TIP3    H117622   2.078   1.867   0.802 -3.2853 -1.3783 -0.2765
 5872TIP3    H217623   2.086   1.933   0.666  0.4364 -0.6005  0.2139
 5873TIP3   OH217624   1.187   1.025   3.856  0.1862 -0.4268 -0.0562
 5873TIP3    H117625   1.259   0.971   3.888 -0.4598  0.0637  2.5259
 5873TIP3    H217626   1.120   0.962   3.829  0.9796 -0.8817 -1.0044
 5874TIP3   OH217627   5.992   0.777   2.019  0.2687 -0.2822 -0.5296
 5874TIP3    H117628   5.980   0.688   1.986  2.1504 -0.2783 -1.3666
 5874TIP3    H217629   5.973   0.771   2.113 -0.9747 -1.2324 -0.8093
 5875TIP3   OH217630   3.695   0.588  -0.013 -0.2279 -0.0889 -0.1680
 5875TIP3    H117631   3.678   0.606   0.079 -0.2868  1.3945 -0.4395
 5875TIP3    H217632   3.775   0.536  -0.013  0.8624  1.4921  0.6663
 5876TIP3   OH217633   5.479   0.676   5.049  0.7673 -0.1398 -0.6694
 5876TIP3    H117634   5.427   0.632   4.981  0.2785 -0.3600 -0.1598
 5876TIP3    H217635   5.421   0.746   5.081  1.5142  0.8526 -1.4321
 5877TIP3   OH217636   4.306   5.700   3.869  0.0323 -0.0022  0.2913
 5877TIP3    H117637   4.296   5.720   3.962 -1.3284  0.8203 -0.0112
 5877TIP3    H217638   4.323   5.606   3.866  0.8933  0.0919  1.4000
 5878TIP3   OH217639   0.104   2.459   1.904 -0.2433 -0.1324 -0.2088
 5878TIP3    H117640   0.198   2.440   1.907 -0.4152 -0.8857  1.5830
 5878TIP3    H217641   0.082   2.453   1.811  1.3261 -0.7242 -0.5864
 5879TIP3   OH217642   1.430   3.688   3.040  0.3882 -0.2792  0.1115
 5879TIP3    H117643   1.488   3.673   3.115 -0.0879 -0.2161  0.4957
 5879TIP3    H217644   1.398   3.777   3.052  0.1059 -0.3625 -0.0282
 5880TIP3   OH217645   4.485   0.929   1.988  0.2840  0.1177  0.4018
 5880TIP3    H117646   4.490   0.858   1.924  0.0317  0.6601 -0.2220
 5880TIP3    H217647   4.534   1.001   1.949 -1.1105  0.9538  0.1509
 5881TIP3   OH217648   1.672   2.414   3.878 -0.4210 -0.7794  0.0092
 5881TIP3    H117649   1.764   2.404   3.901 -0.2578  1.3192  0.4951
 5881TIP3    H217650   1.664   2.368   3.794  1.7418  1.1106 -1.3787
 5882TIP3   OH217651   4.568   0.307   2.580  0.5781  0.3044  0.7635
 5882TIP3    H117652   4.627   0.367   2.626 -0.0732  0.9917  0.7229
 5882TIP3    H217653   4.619   0.277   2.505  0.8884  0.8921  0.7270
 5883TIP3   OH217654   1.377   0.287   1.687 -0.0020 -0.5942 -0.1563
 5883TIP3    H117655   1.399   0.321   1.774  0.7760 -1.7893  0.1305
 5883TIP3    H217656   1.385   0.192   1.695  3.2079 -0.6635 -2.3076
 5884TIP3   OH217657   6.335   4.572   3.964 -0.3135 -0.1191 -0.3864
 5884TIP3    H117658   6.388   4.525   4.029 -1.4241 -2.3050 -0.9908
 5884TIP3    H217659   6.288   4.638   4.016 -0.0061 -0.7781  0.7805
 5885TIP3   OH217660   2.997   2.367   1.988  0.3835  0.3759  0.1608
 5885TIP3    H117661   3.026   2.325   1.908  0.8399  1.0222 -0.0207
 5885TIP3    H217662   3.003   2.298   2.055 -1.0830 -0.4896 -0.5511
 5886TIP3   OH217663   4.938   2.458   3.885 -0.0689 -0.6986  0.1284
 5886TIP3    H117664   4.879   2.414   3.824 -0.1032  0.0437 -0.3874
 5886TIP3    H217665   4.887   2.467   3.966  0.4340 -2.9055  0.7546
 5887TIP3   OH217666   6.010   5.664   1.175  0.4146 -0.8336  0.0077
 5887TIP3    H117667   6.000   5.654   1.081 -0.0541  1.2582 -0.2120
 5887TIP3    H217668   6.072   5.737   1.185 -0.6804 -0.0245  1.2780
 5888TIP3   OH217669   4.803   2.515   1.338 -0.1624 -0.5442 -0.5713
 5888TIP3    H117670   4.753   2.584   1.383 -0.0880 -2.0228  1.9463
 5888TIP3    H217671   4.894   2.532   1.362 -0.0746 -1.1477 -0.4658
 5889TIP3   OH217672   6.123   0.609   0.691 -0.2043  0.2287  0.0046
 5889TIP3    H117673   6.120   0.574   0.780  0.2107 -0.1806 -0.1393
 5889TIP3    H217674   6.115   0.532   0.635  2.3818  0.1244 -0.3393
 5890TIP3   OH217675   4.664   4.903   4.016  0.4826 -0.0008 -0.3860
 5890TIP3    H117676   4.601   4.945   3.957  1.3148 -1.0189 -2.0365
 5890TIP3    H217677   4.627   4.816   4.033  0.9047 -0.1969 -0.4669
 5891TIP3   OH217678   5.478   1.709   1.424 -0.5287 -0.2100 -0.8240
 5891TIP3    H117679   5.408   1.673   1.370  0.5127 -0.3390 -2.1400
 5891TIP3    H217680   5.514   1.781   1.371  1.3099 -1.1105 -0.8663
 5892TIP3   OH217681   0.320   1.907   2.590  0.0754  0.4001 -0.6587
 5892TIP3    H117682   0.337   1.813   2.583  1.2875  0.6903 -2.2567
 5892TIP3    H217683   0.367   1.945   2.516 -1.9869  2.0802 -1.1974
 5893TIP3   OH217684   0.423   2.339   0.703 -0.0092  0.3993  0.3642
 5893TIP3    H117685   0.360   2.270   0.681 -0.0564 -0.2215  2.2898
 5893TIP3    H217686   0.374   2.400   0.758  0.6347  0.7952  0.5095
 5894TIP3   OH217687   2.375   3.959   1.679 -0.4474 -0.4765  0.5140
 5894TIP3    H117688   2.452   4.003   1.644 -1.8912  2.5830  0.8061
 5894TIP3    H217689   2.339   3.910   1.605  0.1183  0.5265 -0.4539
 5895TIP3   OH217690   3.645   5.263   1.384  0.4161 -0.1473  0.1003
 5895TIP3    H117691   3.600   5.181   1.401 -2.2651  1.1622 -0.1766
 5895TIP3    H217692   3.696   5.246   1.305  0.1557 -1.6157  0.2143
 5896TIP3   OH217693   1.831   1.649   0.596  0.0381 -0.0910 -0.2729
 5896TIP3    H117694   1.887   1.624   0.523 -0.0010 -0.8377 -0.0539
 5896TIP3    H217695   1.797   1.566   0.630 -0.0038  0.2532  0.5426
 5897TIP3   OH217696   3.396   3.580   4.538 -0.4575 -0.1871  0.4748
 5897TIP3    H117697   3.398   3.543   4.626  1.6637 -1.0042  0.1459
 5897TIP3    H217698   3.335   3.524   4.490  0.0577 -1.1177  0.8853
 5898TIP3   OH217699   0.638   0.409   4.138  0.3867  0.4953  0.0522
 5898TIP3    H117700   0.591   0.387   4.058  2.1498  1.5848 -1.3553
 5898TIP3    H217701   0.593   0.486   4.172 -0.7605 -0.3455  0.5079
 5899TIP3   OH217702   5.684   3.305   1.483  0.4185 -0.1262 -0.0791
 5899TIP3    H117703   5.631   3.241   1.436  0.3861 -0.7707  0.7992
 5899TIP3    H217704   5.766   3.311   1.434  0.5465 -1.0930  0.0055
 5900TIP3   OH217705   5.974   4.695   1.915 -0.5500  0.8578 -0.6623
 5900TIP3    H117706   5.890   4.659   1.886 -0.5665  1.0991 -0.9193
 5900TIP3    H217707   6.006   4.744   1.840 -0.8924  2.0274 -0.0686
 5901TIP3   OH217708   4.896   1.838   0.833 -0.4967  0.4460 -0.2757
 5901TIP3    H117709   4.811   1.820   0.874  0.4905 -0.2873  1.5575
 5901TIP3    H217710   4.938   1.900   0.892  1.9489 -2.4621  1.3079
 5902TIP3   OH217711   0.769   2.610   4.576  0.1669  0.0166 -0.2732
 5902TIP3    H117712   0.854   2.635   4.540  0.4738  0.4843  0.7323
 5902TIP3    H217713   0.723   2.570   4.502  1.1047  0.1123 -0.9371
 5903TIP3   OH217714   2.714   3.022   2.483  0.1068 -0.0690  1.2096
 5903TIP3    H117715   2.788   2.963   2.470 -0.1526 -0.6591  2.3334
 5903TIP3    H217716   2.739   3.101   2.435  1.6213 -0.1285  1.8209
 5904TIP3   OH217717   1.884   1.600   1.593  0.2065  0.1235 -0.5543
 5904TIP3    H117718   1.920   1.617   1.506 -0.4527 -0.0991 -0.8796
 5904TIP3    H217719   1.792   1.581   1.577  0.3447 -1.1640  0.0643
 5905TIP3   OH217720   3.284   4.383   4.712 -0.0198 -0.7542 -0.1036
 5905TIP3    H117721   3.365   4.338   4.735  0.0015 -1.0537 -0.7397
 5905TIP3    H217722   3.266   4.356   4.622 -1.5383 -1.7621  0.4657
 5906TIP3   OH217723   0.361   5.733   3.117 -0.3151  0.0994  0.2288
 5906TIP3    H117724   0.287   5.673   3.103  1.1382 -1.9748  0.9359
 5906TIP3    H217725   0.353   5.760   3.208  0.1523 -0.6760  0.5083
 5907TIP3   OH217726   1.896   3.311   2.229  0.1906  0.4878 -0.0319
 5907TIP3    H117727   1.816   3.308   2.282  0.2573 -2.6204  0.0738
 5907TIP3    H217728   1.959   3.359   2.283 -0.6466  0.0878  1.3482
 5908TIP3   OH217729   1.277   0.264  -0.002 -0.2571 -0.2368  0.2874
 5908TIP3    H117730   1.334   0.215   0.057 -1.3695  0.0039  1.6066
 5908TIP3    H217731   1.262   0.347   0.042 -1.5295 -0.2566 -0.0684
 5909TIP3   OH217732   3.124   2.689   2.539  0.4500 -0.4925 -0.2848
 5909TIP3    H117733   3.184   2.625   2.500  2.5832  0.0518  1.8854
 5909TIP3    H217734   3.163   2.774   2.521  0.7364 -0.1519  1.6687
 5910TIP3   OH217735   1.654   4.527   1.937 -0.1457  0.7844  0.0007
 5910TIP3    H117736   1.643   4.446   1.987 -0.4897  0.4270 -0.6488
 5910TIP3    H217737   1.731   4.568   1.976 -1.2536  1.2585  1.8375
 5911TIP3   OH217738   0.017   3.898   3.623  0.1244  0.2023  0.1584
 5911TIP3    H117739  -0.016   3.869   3.539  1.5054 -0.8441 -0.0713
 5911TIP3    H217740   0.030   3.993   3.613 -0.7034  0.2563 -0.4439
 5912TIP3   OH217741   0.997   0.055   4.521 -0.0113  0.1906 -0.1735
 5912TIP3    H117742   1.052   0.107   4.462 -1.8642  0.6372 -1.6178
 5912TIP3    H217743   0.984  -0.028   4.475 -0.7606  0.1988  0.0082
 5913TIP3   OH217744   6.119   5.391   3.844 -0.3580 -0.1000 -0.3588
 5913TIP3    H117745   6.156   5.391   3.932 -0.7088  1.9232 -0.1606
 5913TIP3    H217746   6.085   5.303   3.832  1.5777 -1.0525  0.6972
 5914TIP3   OH217747   3.445   1.141   3.661 -0.0086 -0.5179 -0.5078
 5914TIP3    H117748   3.412   1.058   3.626 -0.6182 -0.7937  0.6722
 5914TIP3    H217749   3.445   1.200   3.586  0.8647 -1.6910 -1.4794
 5915TIP3   OH217750   4.513   4.589   3.316 -0.4698  0.5380  0.7828
 5915TIP3    H117751   4.427   4.612   3.280 -0.4089  0.0720  0.3210
 5915TIP3    H217752   4.575   4.629   3.255 -0.3441  1.5069  1.5257
 5916TIP3   OH217753   2.970   5.758   0.508 -0.0896  0.4989  0.2125
 5916TIP3    H117754   2.952   5.835   0.562  0.4615  1.3872 -0.8227
 5916TIP3    H217755   3.005   5.694   0.569 -0.7935  0.9796  1.1433
 5917TIP3   OH217756   1.236   5.098   0.342  0.3109  0.0071 -0.5352
 5917TIP3    H117757   1.284   5.113   0.261  0.3416 -1.2089 -0.7721
 5917TIP3    H217758   1.292   5.132   0.411 -0.1888  2.0435 -1.0851
 5918TIP3   OH217759   3.751   3.364   1.182 -0.2288 -0.7913  0.5013
 5918TIP3    H117760   3.813   3.291   1.194 -0.2424 -1.1078 -1.1493
 5918TIP3    H217761   3.772   3.425   1.253  0.6298 -1.8227  1.1643
 5919TIP3   OH217762   3.337   5.519   1.949  0.0151  0.8411  1.0597
 5919TIP3    H117763   3.367   5.592   2.004 -0.2484  1.8324 -0.0734
 5919TIP3    H217764   3.309   5.453   2.012  0.7451  1.4964  2.1273
 5920TIP3   OH217765   1.871   1.532   2.506 -0.0207  0.1047 -0.2283
 5920TIP3    H117766   1.928   1.606   2.525 -0.4289  0.0650  1.2211
 5920TIP3    H217767   1.847   1.497   2.592  0.3640 -1.8621 -0.8743
 5921TIP3   OH217768   2.656   0.384   3.324 -0.4764 -0.0095 -0.3025
 5921TIP3    H117769   2.684   0.298   3.294  0.1990  0.6627 -1.7255
 5921TIP3    H217770   2.667   0.440   3.247 -1.4344  1.2296  0.4306
 5922TIP3   OH217771   2.405   0.773   0.072  0.2065  0.0149  0.1348
 5922TIP3    H117772   2.419   0.814   0.157 -0.1971  1.3755 -0.4298
 5922TIP3    H217773   2.380   0.845   0.014  1.0601 -0.7922 -1.2877
 5923TIP3   OH217774   5.995   5.583   3.262 -0.0615 -0.3250  0.3978
 5923TIP3    H117775   5.919   5.635   3.237  0.4905 -0.8138 -2.7071
 5923TIP3    H217776   5.974   5.494   3.233  1.7173 -0.4308 -0.7441
 5924TIP3   OH217777   1.932   3.993   1.416 -0.2330  0.5052 -0.1515
 5924TIP3    H117778   1.870   3.980   1.488  0.7687 -1.5381  0.4215
 5924TIP3    H217779   1.884   3.967   1.337 -0.3203 -0.4337  0.2058
 5925TIP3   OH217780   4.154   3.779   2.233  0.4253  0.2002  0.5609
 5925TIP3    H117781   4.119   3.732   2.157  0.5336 -0.4584  0.9117
 5925TIP3    H217782   4.128   3.727   2.308  0.2239  0.9081  0.9967
 5926TIP3   OH217783   6.232   3.930   4.785  0.1207 -0.0436  0.1749
 5926TIP3    H117784   6.192   3.948   4.700 -1.2151 -2.8283  0.0999
 5926TIP3    H217785   6.181   3.981   4.847  0.4757  1.2457 -0.5480
 5927TIP3   OH217786   4.770   4.918   4.917  0.0297  0.1875 -0.0635
 5927TIP3    H117787   4.690   4.932   4.969 -0.7597  3.5820 -1.9351
 5927TIP3    H217788   4.833   4.980   4.954  0.5952  0.1396 -0.9396
 5928TIP3   OH217789   2.448   0.261   3.495  0.0217 -0.4890 -0.6123
 5928TIP3    H117790   2.529   0.304   3.468 -0.8603  2.7319  1.3938
 5928TIP3    H217791   2.379   0.320   3.467 -1.3951 -1.3351  0.9143
 5929TIP3   OH217792   0.462   0.121   4.327  0.1092  0.0027 -0.3809
 5929TIP3    H117793   0.546   0.077   4.313 -0.3868 -0.7781 -1.0103
 5929TIP3    H217794   0.414   0.108   4.245 -0.0185  1.8399 -0.6383
 5930TIP3   OH217795   5.155   2.532   0.216  0.1826  0.1428  0.3848
 5930TIP3    H117796   5.215   2.606   0.230 -0.1065  0.1352  1.8582
 5930TIP3    H217797   5.212   2.457   0.201  0.4970  0.4841 -0.1681
 5931TIP3   OH217798   2.646   3.296   1.701 -0.4662 -0.2999 -0.2088
 5931TIP3    H117799   2.631   3.311   1.608 -0.7258 -3.9997 -0.9150
 5931TIP3    H217800   2.740   3.310   1.713 -0.2450 -0.7496 -1.2859
 5932TIP3   OH217801   0.329   2.198   0.257  0.0840  0.1549  0.2757
 5932TIP3    H117802   0.360   2.110   0.240 -0.3816  0.6666 -4.6323
 5932TIP3    H217803   0.402   2.255   0.232 -1.0597  1.1635 -0.9325
 5933TIP3   OH217804   6.280   1.721   3.601 -0.1693  0.0461 -0.2242
 5933TIP3    H117805   6.332   1.652   3.559 -1.8643 -1.1697 -0.4270
 5933TIP3    H217806   6.205   1.733   3.543 -0.3830  1.3973  0.3075
 5934TIP3   OH217807   4.276   5.768   2.943 -0.7682  0.2350  0.0659
 5934TIP3    H117808   4.251   5.685   2.902  0.2487  0.8675 -1.9625
 5934TIP3    H217809   4.212   5.780   3.013 -0.0447 -2.9795  1.4870
 5935TIP3   OH217810   4.236   3.283   2.167  0.0814 -0.7511 -0.3259
 5935TIP3    H117811   4.292   3.345   2.215  0.7971 -0.6435 -1.2674
 5935TIP3    H217812   4.147   3.313   2.184  0.4142  0.5160 -0.6837
 5936TIP3   OH217813   0.556   5.888   4.468  0.6849 -0.5880 -0.1322
 5936TIP3    H117814   0.494   5.961   4.462  1.0485 -0.3936 -2.0919
 5936TIP3    H217815   0.559   5.868   4.562 -1.1865  0.3654  0.1922
 5937TIP3   OH217816   6.187   2.056   5.077  0.0202 -0.6560  0.5761
 5937TIP3    H117817   6.243   2.116   5.028 -0.1974 -1.4898 -0.7426
 5937TIP3    H217818   6.206   2.075   5.168  1.0367  0.3960  0.1743
 5938TIP3   OH217819   5.019   3.080   4.081  0.6519  0.0291  0.0107
 5938TIP3    H117820   4.974   3.107   4.001 -1.1056 -0.6292  0.7211
 5938TIP3    H217821   4.966   3.009   4.115  1.3984  0.2587  1.7434
 5939TIP3   OH217822   0.178   0.069   3.880  0.6023  0.0914 -0.1603
 5939TIP3    H117823   0.084   0.066   3.902  0.3368  0.5767 -1.1839
 5939TIP3    H217824   0.180   0.094   3.788  1.7094 -1.4118 -0.5674
 5940TIP3   OH217825   0.923   2.403   3.863  0.7175  0.2148  0.2957
 5940TIP3    H117826   0.931   2.414   3.768 -0.3958  0.6763  0.2364
 5940TIP3    H217827   0.903   2.491   3.896  0.3110 -0.0779  0.8504
 5941TIP3   OH217828   0.474   5.899   5.010  0.5121  0.3362 -0.1091
 5941TIP3    H117829   0.404   5.863   5.065 -0.0359 -0.0014 -0.9961
 5941TIP3    H217830   0.515   5.966   5.064  0.3339 -0.3347  0.8990
 5942TIP3   OH217831   5.343   1.352   1.511  0.2764  0.6486 -0.1999
 5942TIP3    H117832   5.340   1.403   1.430 -1.2536  0.6853 -0.1480
 5942TIP3    H217833   5.274   1.287   1.502  2.1697 -1.4811 -0.2516
 5943TIP3   OH217834   5.850   4.100   4.250 -0.2494 -0.1917  0.3935
 5943TIP3    H117835   5.830   4.008   4.264  0.5962 -0.4028  0.2500
 5943TIP3    H217836   5.932   4.100   4.200  0.5304  0.6587  1.6180
 5944TIP3   OH217837   5.338   0.671   3.762 -0.3427 -0.1033  0.2413
 5944TIP3    H117838   5.421   0.640   3.798 -1.0239 -0.7343  1.3183
 5944TIP3    H217839   5.336   0.764   3.784  2.4588  1.3828 -4.4188
 5945TIP3   OH217840   4.862   0.098   3.299 -0.1934 -0.4304  0.7549
 5945TIP3    H117841   4.853   0.044   3.220  0.3096  0.6835 -0.0944
 5945TIP3    H217842   4.811   0.051   3.365 -1.6155 -0.8180 -0.5300
 5946TIP3   OH217843   0.714   1.600   1.373  0.2656  0.1847  0.2350
 5946TIP3    H117844   0.704   1.510   1.342  0.2460  0.3369 -0.2165
 5946TIP3    H217845   0.630   1.622   1.412  0.0895  0.1882 -0.1426
 5947TIP3   OH217846   6.249   3.932   2.091  0.3839 -0.0578 -0.1389
 5947TIP3    H117847   6.275   3.885   2.012  0.2199 -1.5308  0.6611
 5947TIP3    H217848   6.161   3.966   2.071  0.5451  0.0030 -0.7556
 5948TIP3   OH217849   3.535   1.364   0.488 -0.4005  0.3276  0.3015
 5948TIP3    H117850   3.556   1.355   0.581 -0.9856 -1.0717  0.3264
 5948TIP3    H217851   3.440   1.376   0.485 -0.2895  1.1870 -0.0857
 5949TIP3   OH217852   3.732   2.223   1.150  0.2202 -0.4612 -0.1220
 5949TIP3    H117853   3.827   2.230   1.140  0.6986 -1.2816  2.9581
 5949TIP3    H217854   3.706   2.304   1.194  0.3167 -2.0516  3.1698
 5950TIP3   OH217855   2.456   5.404   1.866 -0.2523 -0.5728 -0.2857
 5950TIP3    H117856   2.501   5.389   1.949  0.5278  0.9346 -0.3932
 5950TIP3    H217857   2.426   5.495   1.871  0.6612 -0.1265 -2.0089
 5951TIP3   OH217858   0.103   4.162   4.748  0.6220 -0.2183  0.3837
 5951TIP3    H117859   0.186   4.163   4.795 -0.2720 -1.6056  2.1509
 5951TIP3    H217860   0.110   4.089   4.687  1.0954  0.3897 -0.3024
 5952TIP3   OH217861  -0.023   4.682   0.971  0.2456  0.2947  0.4111
 5952TIP3    H117862   0.069   4.708   0.969  0.0300  1.1925  1.2588
 5952TIP3    H217863  -0.037   4.648   1.059 -0.2220  0.0871  0.2634
 5953TIP3   OH217864   4.902   4.756   5.146  0.1280 -0.1112  0.0040
 5953TIP3    H117865   4.899   4.839   5.195  3.1065  0.0487  0.0806
 5953TIP3    H217866   4.944   4.779   5.063 -0.3146 -1.2955 -0.5622
 5954TIP3   OH217867   4.745   0.008   1.439 -0.1505 -0.5580  0.2672
 5954TIP3    H117868   4.760  -0.061   1.374  0.3794 -0.4239  0.2400
 5954TIP3    H217869   4.797   0.082   1.406  0.0905 -0.4767  0.8226
 5955TIP3   OH217870   1.984   5.364   0.783 -0.1468  0.1218  0.3391
 5955TIP3    H117871   2.061   5.349   0.729 -0.0550 -1.7074  0.9051
 5955TIP3    H217872   2.006   5.325   0.868 -0.8101  1.6944  1.2792
 5956TIP3   OH217873   3.864   4.426   1.361  0.3314  0.2649 -0.1693
 5956TIP3    H117874   3.843   4.377   1.282  0.8075  2.0883 -1.5068
 5956TIP3    H217875   3.821   4.511   1.349  1.0658  0.8652  1.1526
 5957TIP3   OH217876   3.387   3.472   2.408 -0.3788  0.2675 -0.5464
 5957TIP3    H117877   3.402   3.439   2.496 -0.6389  1.7517  0.0858
 5957TIP3    H217878   3.469   3.455   2.362  0.1488  0.4436  0.3017
 5958TIP3   OH217879   0.234   4.832   0.976 -0.0117  0.1685 -0.3442
 5958TIP3    H117880   0.297   4.814   1.046 -0.2600  5.3648  1.6452
 5958TIP3    H217881   0.277   4.896   0.920 -1.4926 -0.5929 -2.4962
 5959TIP3   OH217882   2.075   1.495   5.009  0.0657  0.6610  0.4117
 5959TIP3    H117883   2.022   1.516   4.932 -0.0196  0.8218  0.5133
 5959TIP3    H217884   2.013   1.491   5.081  0.0177 -0.3896  0.3247
 5960TIP3   OH217885   3.042   0.017   4.528 -0.3148  0.0529 -0.1636
 5960TIP3    H117886   3.046   0.102   4.483 -1.0945  0.0700 -0.2178
 5960TIP3    H217887   2.999  -0.041   4.465 -0.3371 -0.2296  0.1105
 5961TIP3   OH217888   1.416   5.239   4.680  0.1204  0.3556 -0.0309
 5961TIP3    H117889   1.448   5.258   4.592  0.2519  2.1240  0.3651
 5961TIP3    H217890   1.321   5.228   4.669  0.3411 -1.1869 -0.6294
 5962TIP3   OH217891   2.646   2.828   0.913  0.3847 -0.2540 -0.5488
 5962TIP3    H117892   2.586   2.799   0.845 -0.3974 -1.0048  0.4345
 5962TIP3    H217893   2.679   2.912   0.882 -1.3481  0.2837 -0.9990
 5963TIP3   OH217894   2.471   5.821   3.986  0.7725  0.3699  0.4554
 5963TIP3    H117895   2.509   5.890   3.931  0.4662 -0.4933 -0.8774
 5963TIP3    H217896   2.385   5.855   4.012 -0.2380 -0.2538 -1.8306
 5964TIP3   OH217897   2.550   0.866   4.382  0.4735 -0.4079 -0.2196
 5964TIP3    H117898   2.607   0.818   4.442  1.4755 -0.1812 -0.9740
 5964TIP3    H217899   2.580   0.957   4.387 -0.3349 -0.1425 -0.0415
 5965TIP3   OH217900   0.995   2.147   1.957  0.4368 -0.2252 -0.7634
 5965TIP3    H117901   1.061   2.119   2.020 -0.4227 -1.2505 -0.2921
 5965TIP3    H217902   0.916   2.098   1.981 -0.4825  0.9179 -1.3572
 5966TIP3   OH217903   3.886   0.116   3.364 -0.0835  0.4502  0.6909
 5966TIP3    H117904   3.798   0.099   3.398 -0.1966  0.7118  0.5316
 5966TIP3    H217905   3.900   0.210   3.379 -1.5876  1.4964 -3.2360
 5967TIP3   OH217906   1.518   2.338   0.814 -0.2430  0.1218  0.0661
 5967TIP3    H117907   1.525   2.430   0.789 -2.2697 -0.2250 -2.2270
 5967TIP3    H217908   1.582   2.293   0.758  1.1637  0.1200  1.5917
 5968TIP3   OH217909   1.745   0.062   0.639  0.2141  0.1060  0.4125
 5968TIP3    H117910   1.756   0.136   0.580  0.0046 -0.7981 -0.8130
 5968TIP3    H217911   1.672   0.012   0.602  0.2676 -0.6412  1.2729
 5969TIP3   OH217912   3.073   2.511   2.749 -0.0877 -0.1770 -0.3969
 5969TIP3    H117913   3.089   2.575   2.819  1.7003 -1.1488  0.1599
 5969TIP3    H217914   3.070   2.563   2.669 -1.5363  0.8906  0.2835
 5970TIP3   OH217915   2.935   1.799   4.905 -0.1766  0.3515 -0.8103
 5970TIP3    H117916   2.973   1.870   4.853  2.9877 -1.8149 -1.7667
 5970TIP3    H217917   2.960   1.820   4.995 -0.4432  1.0772 -0.8942
 5971TIP3   OH217918   2.934   2.122   0.448  0.3618  0.1560  0.2557
 5971TIP3    H117919   2.994   2.151   0.380  0.0183  0.2824  0.0013
 5971TIP3    H217920   2.848   2.120   0.405  0.3644 -1.2174  0.2661
 5972TIP3   OH217921   2.586   5.029   2.636 -0.6788  0.0850 -0.2009
 5972TIP3    H117922   2.601   5.115   2.598  1.9697 -0.4813 -0.6356
 5972TIP3    H217923   2.568   5.046   2.728  0.1185  1.0907 -0.2179
 5973TIP3   OH217924   4.162   3.054   2.354  0.8966 -0.2375 -0.3180
 5973TIP3    H117925   4.105   2.980   2.329 -1.4052  1.9267 -2.0528
 5973TIP3    H217926   4.182   3.097   2.271  2.4115  0.9502  0.6196
 5974TIP3   OH217927   1.301   3.085   0.519 -0.4644  0.0650 -0.3267
 5974TIP3    H117928   1.328   3.073   0.610 -2.1138  0.0351  0.1930
 5974TIP3    H217929   1.334   3.171   0.495 -3.2851  1.8558  1.6241
 5975TIP3   OH217930   3.046   0.497   4.182 -0.3399  0.5287  0.2489
 5975TIP3    H117931   3.103   0.421   4.169 -0.8126  0.3686 -1.0763
 5975TIP3    H217932   3.087   0.546   4.254  0.8595 -0.1341  0.0495
 5976TIP3   OH217933   4.041   2.595   5.022  0.3279 -0.4193  0.3260
 5976TIP3    H117934   4.093   2.608   5.100 -0.1533 -1.6501  0.8725
 5976TIP3    H217935   3.969   2.657   5.031  1.0549  0.4736  0.1255
 5977TIP3   OH217936   0.147   2.884   4.202 -0.1814 -0.3032 -0.1349
 5977TIP3    H117937   0.159   2.906   4.294 -0.0506  0.4288 -0.3193
 5977TIP3    H217938   0.186   2.958   4.154 -0.9265 -0.2969 -0.7682
 5978TIP3   OH217939   5.657   5.955   1.394  0.4890 -0.1900  0.0460
 5978TIP3    H117940   5.737   5.950   1.343  0.4493 -0.3588 -0.0009
 5978TIP3    H217941   5.603   5.882   1.361  0.3809 -0.1726  0.1839
 5979TIP3   OH217942   3.978   4.209   0.021  0.9358 -0.3071 -0.5406
 5979TIP3    H117943   3.961   4.302   0.033  0.1393 -0.3179 -1.4442
 5979TIP3    H217944   4.043   4.187   0.088  1.7575  1.0771 -0.8425
 5980TIP3   OH217945   6.030   5.121   4.940 -0.2090 -0.0918  0.1146
 5980TIP3    H117946   6.110   5.090   4.897 -0.1106  0.5101 -0.1458
 5980TIP3    H217947   6.057   5.137   5.031  0.5079  2.0368 -0.4174
 5981TIP3   OH217948   0.515   0.830   2.044 -0.0985 -0.1929 -0.8555
 5981TIP3    H117949   0.458   0.873   1.980 -1.9185 -0.6692  0.3700
 5981TIP3    H217950   0.455   0.794   2.109  1.6344 -0.4275  0.6963
 5982TIP3   OH217951   0.562   0.811   3.371  0.1043 -0.1841  0.2565
 5982TIP3    H117952   0.471   0.839   3.384  0.1954  1.1055 -1.5080
 5982TIP3    H217953   0.591   0.782   3.458 -1.9630 -0.5799  0.8512
 5983TIP3   OH217954   3.582   4.365   1.274  0.0110 -0.1574 -0.1672
 5983TIP3    H117955   3.578   4.304   1.348 -0.2678 -0.1256 -0.1560
 5983TIP3    H217956   3.576   4.452   1.315 -1.7844 -0.1726 -0.3395
 5984TIP3   OH217957   1.570   5.024   4.661 -0.6959 -0.2690  0.0078
 5984TIP3    H117958   1.634   5.032   4.731 -1.4196 -0.6131  0.7193
 5984TIP3    H217959   1.499   5.083   4.687 -0.9664 -0.3916 -0.4483
 5985TIP3   OH217960   2.441   2.522   3.756 -0.3676 -0.0187  0.2324
 5985TIP3    H117961   2.400   2.607   3.744 -1.5258 -0.4737  0.7433
 5985TIP3    H217962   2.463   2.519   3.849  0.9145  0.2476 -0.0539
 5986TIP3   OH217963   2.857   0.720   1.391  0.0692  0.3462 -0.2404
 5986TIP3    H117964   2.774   0.704   1.436  0.0150  1.3996  0.0624
 5986TIP3    H217965   2.848   0.809   1.355  1.5734  1.0231  0.9797
 5987TIP3   OH217966   6.303   2.488   1.674  0.1869 -0.2571 -0.2777
 5987TIP3    H117967   6.230   2.453   1.621 -0.6714 -0.6209  1.0834
 5987TIP3    H217968   6.286   2.582   1.679 -1.3936 -0.5885  1.7132
 5988TIP3   OH217969   5.916   5.034   3.384  0.0389  0.2392 -0.1291
 5988TIP3    H117970   5.915   5.024   3.289 -0.9402  0.5227 -0.1567
 5988TIP3    H217971   5.825   5.050   3.408  0.0114 -1.3614  1.0231
 5989TIP3   OH217972   1.338   1.615   2.422  0.0438  0.2368  0.4702
 5989TIP3    H117973   1.257   1.620   2.371  0.3390  1.4550  0.0770
 5989TIP3    H217974   1.402   1.579   2.361  0.4978  2.0815 -0.2055
 5990TIP3   OH217975   3.159   5.483   3.780  0.1972  0.6017  0.1899
 5990TIP3    H117976   3.084   5.429   3.805 -1.6465  2.1780 -1.5298
 5990TIP3    H217977   3.131   5.573   3.797  1.0022  1.3420 -1.9660
 5991TIP3   OH217978   0.193   4.408   1.135 -0.6719 -0.3846  0.3328
 5991TIP3    H117979   0.158   4.323   1.161  0.4391 -1.5780 -1.7796
 5991TIP3    H217980   0.184   4.410   1.040  1.3022  0.9119  0.1074
 5992TIP3   OH217981   1.919   2.715   0.377 -0.2819  0.1234  0.3764
 5992TIP3    H117982   1.944   2.806   0.370  1.7550 -0.4748 -1.0075
 5992TIP3    H217983   1.874   2.708   0.461 -0.3307  2.3291  0.5783
 5993TIP3   OH217984   0.830   2.944   3.198  0.2970 -0.3342 -0.4891
 5993TIP3    H117985   0.806   2.889   3.273 -0.1734 -0.7396 -0.9330
 5993TIP3    H217986   0.782   3.025   3.212  0.7057 -0.1594 -0.0274
 5994TIP3   OH217987   1.132   5.911   4.861  0.3817 -0.1834  0.1987
 5994TIP3    H117988   1.218   5.875   4.839  0.5112 -0.4120  1.0144
 5994TIP3    H217989   1.139   6.004   4.842  1.1315 -0.0304  1.1065
 5995TIP3   OH217990   1.174   0.079   3.150  0.9173  0.4961 -0.3268
 5995TIP3    H117991   1.106   0.034   3.200  1.2390 -0.0942 -0.4055
 5995TIP3    H217992   1.255   0.058   3.197  1.4406 -1.3809 -1.9153
 5996TIP3   OH217993   1.016   3.908   0.647 -0.7139  0.0714  0.1423
 5996TIP3    H117994   0.953   3.881   0.713  0.1771 -0.9600  0.6035
 5996TIP3    H217995   1.022   3.834   0.587  0.3676 -0.0351  0.3536
 5997TIP3   OH217996   1.407   3.053   3.408  0.3335 -0.0728 -0.0543
 5997TIP3    H117997   1.387   2.980   3.349 -0.7940 -0.8097  1.1870
 5997TIP3    H217998   1.473   3.017   3.468 -2.2433 -1.1266  2.3643
 5998TIP3   OH217999   4.973   3.596   0.932  0.0933 -0.5962 -0.2400
 5998TIP3    H118000   4.998   3.672   0.985 -1.8782  0.6980 -1.0825
 5998TIP3    H218001   4.966   3.525   0.996 -2.3331  0.9419  1.3508
 5999TIP3   OH218002   0.609   0.209   0.980  0.2294  0.3478 -0.2917
 5999TIP3    H118003   0.677   0.273   0.958 -0.0413  0.1425 -1.8674
 5999TIP3    H218004   0.621   0.139   0.916 -0.9935 -0.0395 -0.1242
 6000TIP3   OH218005   2.341   3.683   2.104  0.0302 -0.1837  0.0901
 6000TIP3    H118006   2.382   3.768   2.091 -0.2462  0.0148  0.4744
 6000TIP3    H218007   2.252   3.704   2.133 -0.3488 -0.6095 -0.7391
 6001TIP3   OH218008   5.761   2.314   3.124 -0.1436  0.0161 -0.1954
 6001TIP3    H118009   5.693   2.256   3.157 -0.1808 -0.9713 -1.8944
 6001TIP3    H218010   5.827   2.316   3.193  1.2023 -4.3077 -1.0882
 6002TIP3   OH218011   3.373   2.599   4.354 -0.1905  0.0617 -0.0398
 6002TIP3    H118012   3.330   2.519   4.382  1.9539 -0.4749  1.9758
 6002TIP3    H218013   3.350   2.664   4.420 -1.3861  0.9851 -1.3116
 6003TIP3   OH218014   4.786  -0.009   3.738 -0.1321  0.4173 -0.4599
 6003TIP3    H118015   4.754   0.081   3.739 -0.3832  0.3245  0.1054
 6003TIP3    H218016   4.867  -0.007   3.789 -1.2213 -0.0592  1.3710
 6004TIP3   OH218017   4.745   0.796   1.003 -0.3425  0.3734  0.3722
 6004TIP3    H118018   4.732   0.842   0.921  0.9939  0.8032  0.3813
 6004TIP3    H218019   4.709   0.855   1.070 -0.5346  0.4633  0.1903
 6005TIP3   OH218020   0.836   3.922   4.809 -0.0372 -0.5157 -0.2342
 6005TIP3    H118021   0.843   3.983   4.882  2.6882 -1.3004  0.2603
 6005TIP3    H218022   0.889   3.962   4.739 -1.1294 -0.6510 -1.1781
 6006TIP3   OH218023   3.162   0.858   0.148  0.4499  0.1351 -0.0015
 6006TIP3    H118024   3.142   0.921   0.078  0.6933  0.3638  0.1346
 6006TIP3    H218025   3.158   0.772   0.105  0.9567  0.2996 -0.3741
 6007TIP3   OH218026   3.844   3.596   1.985  0.1455  0.0543  0.1933
 6007TIP3    H118027   3.810   3.657   1.920  1.7148  1.0712  0.3024
 6007TIP3    H218028   3.863   3.516   1.935 -2.0979 -0.4799  0.0900
 6008TIP3   OH218029   5.920   3.559   3.415  0.8087  0.0312 -0.4755
 6008TIP3    H118030   5.904   3.504   3.338  1.3938 -0.8234 -0.0170
 6008TIP3    H218031   5.899   3.647   3.387 -1.5411 -0.5878 -0.8299
 6009TIP3   OH218032   0.377   0.507   4.689 -0.2710 -0.0684 -0.0484
 6009TIP3    H118033   0.287   0.486   4.665  0.0236  1.6582 -3.1739
 6009TIP3    H218034   0.430   0.474   4.617  0.9362  3.6811 -1.1286
 6010TIP3   OH218035   1.147   5.710   0.778 -0.5177  0.3363 -1.0396
 6010TIP3    H118036   1.157   5.735   0.870  0.4406 -1.6001 -0.5483
 6010TIP3    H218037   1.069   5.654   0.777  0.1630 -0.6425 -1.1392
 6011TIP3   OH218038   1.212   2.840   0.433  0.6990 -0.3351 -0.0224
 6011TIP3    H118039   1.180   2.809   0.517 -0.0768 -0.6043 -0.4119
 6011TIP3    H218040   1.254   2.924   0.452  1.4592 -0.8894  0.7932
 6012TIP3   OH218041   2.192   1.585   1.240  0.3085 -0.2954 -0.0224
 6012TIP3    H118042   2.153   1.512   1.288 -0.9109 -0.1663 -0.7782
 6012TIP3    H218043   2.121   1.648   1.232  1.0119  0.4502 -0.4415
 6013TIP3   OH218044   2.108   4.284   4.295  0.0712 -0.2725  0.2866
 6013TIP3    H118045   2.112   4.339   4.217 -1.2536  0.2783  0.5802
 6013TIP3    H218046   2.189   4.234   4.293  0.4899  0.4092 -0.9398
 6014TIP3   OH218047   0.769   1.820   4.792  0.4305 -0.0523  0.3135
 6014TIP3    H118048   0.837   1.847   4.853  0.5441  0.2028  0.0789
 6014TIP3    H218049   0.738   1.736   4.825  0.6371 -0.0164  0.6003
 6015TIP3   OH218050   2.735   3.073   1.392 -0.5830  0.0641  0.5033
 6015TIP3    H118051   2.768   2.985   1.374 -2.3658 -0.5161 -0.2145
 6015TIP3    H218052   2.708   3.069   1.483 -0.4657 -0.0744  0.5335
 6016TIP3   OH218053   4.079   4.986   1.941  0.0552 -0.8443 -0.2029
 6016TIP3    H118054   4.165   4.953   1.965  1.0229  1.1782 -0.6905
 6016TIP3    H218055   4.018   4.935   1.994  1.6388 -1.2655  1.2884
 6017TIP3   OH218056   1.528   2.261   4.968  0.3339 -0.1668  0.2534
 6017TIP3    H118057   1.527   2.297   5.057  0.0184 -0.7777  0.5048
 6017TIP3    H218058   1.544   2.167   4.980  0.5535 -0.2110 -0.3530
 6018TIP3   OH218059   1.219   5.055   3.311 -0.5397 -0.0714  1.3293
 6018TIP3    H118060   1.124   5.059   3.301 -0.3591  0.8046 -0.2605
 6018TIP3    H218061   1.251   5.134   3.269  0.9642 -0.8389  0.9659
 6019TIP3   OH218062   3.304   5.157   4.850 -0.5340  0.3233 -0.0292
 6019TIP3    H118063   3.371   5.210   4.808 -0.1289  0.3795  0.6839
 6019TIP3    H218064   3.250   5.124   4.777  2.0093 -2.2328 -0.9532
 6020TIP3   OH218065   1.401   0.879   3.265 -0.2101 -0.3402  0.5337
 6020TIP3    H118066   1.337   0.863   3.196 -1.1269  0.0697  1.2568
 6020TIP3    H218067   1.469   0.932   3.224 -0.5853 -0.3636 -0.1307
 6021TIP3   OH218068   3.488   0.315   0.953  0.5480  0.9559 -0.1882
 6021TIP3    H118069   3.534   0.333   1.035  3.4915  0.4813 -1.6387
 6021TIP3    H218070   3.541   0.248   0.909 -1.6122  0.2756 -1.9695
 6022TIP3   OH218071   2.649   1.192   2.781  0.0962 -0.0382  0.4273
 6022TIP3    H118072   2.716   1.124   2.774 -1.9690 -2.1781  0.1793
 6022TIP3    H218073   2.678   1.261   2.720  1.3119 -1.5729 -0.8195
 6023TIP3   OH218074   1.141   2.918   2.705  0.2730  0.4147  0.0353
 6023TIP3    H118075   1.217   2.863   2.723 -0.5613 -0.3043  1.5786
 6023TIP3    H218076   1.113   2.950   2.791 -0.2098  1.9958 -0.6702
 6024TIP3   OH218077   4.641   5.659   1.391  0.7993  0.1250  0.5779
 6024TIP3    H118078   4.575   5.597   1.362  2.0406 -2.0707  2.1688
 6024TIP3    H218079   4.652   5.719   1.317 -0.3437 -1.6210 -1.0791
 6025TIP3   OH218080   3.844   2.155   3.192  0.0447 -0.0269 -0.4748
 6025TIP3    H118081   3.910   2.109   3.140  0.1520 -0.5142  0.0805
 6025TIP3    H218082   3.816   2.091   3.257  0.2447  0.7129  0.3580
 6026TIP3   OH218083   0.392   5.707   1.042  0.1037 -0.5879 -0.5849
 6026TIP3    H118084   0.297   5.693   1.047  0.3085 -1.8055  0.4044
 6026TIP3    H218085   0.420   5.711   1.133  1.1781 -1.5608 -0.8569
 6027TIP3   OH218086   6.294   2.847   2.371  0.1599  0.0951 -0.5134
 6027TIP3    H118087   6.379   2.817   2.402 -0.3115 -0.7388  0.0245
 6027TIP3    H218088   6.246   2.766   2.353 -1.4136  0.4414  1.6805
 6028TIP3   OH218089   1.077   0.065   0.039 -0.2573  0.7606 -0.0663
 6028TIP3    H118090   1.098   0.014  -0.039  0.5442 -2.4469  2.0435
 6028TIP3    H218091   1.141   0.136   0.039 -0.2889  0.8500 -2.3059
 6029TIP3   OH218092   4.499   4.465   1.757  0.7700  0.2830 -0.6837
 6029TIP3    H118093   4.512   4.499   1.845  0.4984  1.6366 -1.1373
 6029TIP3    H218094   4.483   4.372   1.769 -0.2972  0.6218  0.7987
 6030TIP3   OH218095   3.040   4.048   4.555 -0.0469 -0.3245  0.7565
 6030TIP3    H118096   3.077   3.997   4.483 -1.1942 -0.4345  0.2108
 6030TIP3    H218097   3.059   3.996   4.633 -0.4680 -1.1997  0.3033
 6031TIP3   OH218098   2.994   1.648   2.281 -0.2566 -0.2473  0.4268
 6031TIP3    H118099   2.978   1.560   2.248  0.4482 -0.4352  0.5776
 6031TIP3    H218100   2.974   1.706   2.207  0.5462 -0.6156 -0.0859
 6032TIP3   OH218101   4.507   5.515   2.910 -0.1825 -0.2565 -0.1925
 6032TIP3    H118102   4.442   5.577   2.943 -0.2776  0.7998 -2.1962
 6032TIP3    H218103   4.515   5.449   2.979 -1.3972  1.0287  1.2395
 6033TIP3   OH218104   0.262   1.541   1.743  0.8789 -0.1365  0.1628
 6033TIP3    H118105   0.355   1.520   1.750  0.9126 -0.2462 -0.5640
 6033TIP3    H218106   0.228   1.526   1.831  1.7805  1.1368  0.7564
 6034TIP3   OH218107   4.952   3.560   2.846  0.0158  0.2102 -0.0918
 6034TIP3    H118108   5.000   3.640   2.866  2.1459 -0.8784 -0.6330
 6034TIP3    H218109   4.939   3.561   2.751  1.5634 -0.8468 -0.3467
 6035TIP3   OH218110   0.280   4.923   4.410  0.6290 -0.2513 -0.2446
 6035TIP3    H118111   0.370   4.953   4.422  0.8810 -0.2076 -2.0406
 6035TIP3    H218112   0.276   4.893   4.320 -0.7540 -1.7482  0.2667
 6036TIP3   OH218113   2.826   1.920   4.117 -0.2487  0.2319 -0.1462
 6036TIP3    H118114   2.758   1.914   4.050  0.5793  0.1268 -1.0046
 6036TIP3    H218115   2.809   2.004   4.160 -0.0029  0.9686 -1.4115
 6037TIP3   OH218116   0.261   4.263   1.403  0.3663 -0.4434  0.3346
 6037TIP3    H118117   0.172   4.233   1.383 -0.7570  1.0384  2.5693
 6037TIP3    H218118   0.267   4.349   1.362  0.9038 -0.6932 -0.1102
 6038TIP3   OH218119   3.609   3.417   3.635  0.4500 -0.0550  0.6354
 6038TIP3    H118120   3.613   3.493   3.694 -2.7697  0.0288  0.9501
 6038TIP3    H218121   3.629   3.453   3.549 -0.7040  1.1239  0.8322
 6039TIP3   OH218122   1.639   3.982   2.937 -0.4532 -0.4524 -0.2148
 6039TIP3    H118123   1.654   4.075   2.917  0.6331 -0.7861 -1.0199
 6039TIP3    H218124   1.575   3.954   2.872 -0.4748 -0.3683 -0.2305
 6040TIP3   OH218125   1.543   4.220   3.929  0.5453 -0.0380  0.7694
 6040TIP3    H118126   1.525   4.296   3.873 -2.4761 -1.8910 -1.0495
 6040TIP3    H218127   1.479   4.226   4.000  0.8542 -0.4598  1.0914
 6041TIP3   OH218128   4.787   5.523   0.760  0.8174  0.1079 -0.0333
 6041TIP3    H118129   4.828   5.438   0.747 -1.2138 -0.6813 -1.9284
 6041TIP3    H218130   4.820   5.576   0.687 -0.2637 -0.0491 -0.6540
 6042TIP3   OH218131   4.988   4.530   1.507  0.4680 -0.2755 -0.3966
 6042TIP3    H118132   4.988   4.435   1.491 -1.9687 -0.0339 -2.6128
 6042TIP3    H218133   5.043   4.566   1.439  0.0363 -0.0080 -0.6079
 6043TIP3   OH218134   5.856   5.831   3.245 -0.4065  0.5980  0.8010
 6043TIP3    H118135   5.770   5.871   3.260 -1.0110 -0.8473  1.4262
 6043TIP3    H218136   5.844   5.776   3.168  0.0406  0.6129  0.7203
 6044TIP3   OH218137   2.232   0.274   1.773  0.2956  0.0662  0.3002
 6044TIP3    H118138   2.270   0.320   1.699 -0.6196  0.9528  0.3567
 6044TIP3    H218139   2.306   0.257   1.832  0.7557  0.8597 -0.0380
 6045TIP3   OH218140   3.818   2.499   0.895  0.3027  0.2967 -0.1091
 6045TIP3    H118141   3.798   2.548   0.975 -0.2969  1.1382 -0.7519
 6045TIP3    H218142   3.908   2.469   0.907 -1.1058 -3.6312  2.8972
 6046TIP3   OH218143   4.170   1.587   4.514  0.3218  0.4905  0.4385
 6046TIP3    H118144   4.077   1.592   4.492  0.3502  0.0593  0.2030
 6046TIP3    H218145   4.212   1.648   4.454  0.0372  1.7613  1.5024
 6047TIP3   OH218146   4.795   2.835   2.575  0.4313  0.8688 -0.0108
 6047TIP3    H118147   4.809   2.802   2.486  2.3478 -0.0333  0.5679
 6047TIP3    H218148   4.759   2.923   2.563 -1.2230  0.0433 -1.6365
 6048TIP3   OH218149   4.708   4.111   1.700  0.5761 -0.1293 -0.3492
 6048TIP3    H118150   4.712   4.195   1.654 -0.4423 -0.7958 -1.7165
 6048TIP3    H218151   4.621   4.077   1.680  0.1921 -0.6199  1.8425
 6049TIP3   OH218152   1.935   1.582   4.738  0.2439 -0.2017  0.0850
 6049TIP3    H118153   2.012   1.530   4.717 -0.7632 -1.9923  0.6453
 6049TIP3    H218154   1.921   1.637   4.660  0.9632 -1.2377 -0.7980
 6050TIP3   OH218155   0.982   5.131   3.895 -0.7079 -0.4595  0.6885
 6050TIP3    H118156   0.965   5.099   3.806 -0.1202  2.3632 -0.5617
 6050TIP3    H218157   1.056   5.191   3.885  1.8845 -2.8024  3.8046
 6051TIP3   OH218158   1.007   3.039   3.577  0.5512  0.7672 -0.1979
 6051TIP3    H118159   1.062   3.025   3.500  0.5001  0.1512 -0.1279
 6051TIP3    H218160   0.992   2.951   3.612  0.7263  1.0484  0.6159
 6052TIP3   OH218161   3.362   1.974   1.531 -0.1897 -0.1995 -0.5456
 6052TIP3    H118162   3.436   1.982   1.591  1.4690 -1.5277 -2.3042
 6052TIP3    H218163   3.338   2.064   1.510  1.6355  0.2822 -0.7197
 6053TIP3   OH218164   3.407   4.144   1.657  0.2898 -0.6425  0.5401
 6053TIP3    H118165   3.325   4.194   1.652 -0.2223 -1.4087  0.9480
 6053TIP3    H218166   3.476   4.210   1.656 -0.3355  0.0219  0.2200
 6054TIP3   OH218167   5.917   2.079   2.046  0.2200 -0.4880 -0.7638
 6054TIP3    H118168   5.826   2.055   2.062  0.0676  0.4737 -0.0828
 6054TIP3    H218169   5.951   2.009   1.990 -0.3298 -2.0249  0.7345
 6055TIP3   OH218170   4.215   4.218   1.654  0.4281  0.1799 -0.1301
 6055TIP3    H118171   4.165   4.144   1.688 -0.8094  0.0976 -1.9882
 6055TIP3    H218172   4.170   4.242   1.573  0.7764  2.9706  0.3960
 6056TIP3   OH218173   2.291   1.589   1.855 -0.3792  0.3173 -0.5240
 6056TIP3    H118174   2.375   1.583   1.810 -0.1789 -1.5798  0.0004
 6056TIP3    H218175   2.226   1.597   1.785  0.1197  0.0746 -1.0210
 6057TIP3   OH218176   1.215   5.653   0.418  0.4949 -0.8801  0.0011
 6057TIP3    H118177   1.289   5.703   0.454  1.0153 -0.3461 -1.6934
 6057TIP3    H218178   1.141   5.713   0.422  1.1869  0.3021 -2.3334
 6058TIP3   OH218179   4.730   0.925   0.749 -0.2991 -0.5916  0.5246
 6058TIP3    H118180   4.744   0.902   0.658  1.6159  0.7321  0.4266
 6058TIP3    H218181   4.635   0.938   0.756 -0.4256 -0.1697 -1.4065
 6059TIP3   OH218182   5.139   1.306   5.005  0.1584 -0.1461  0.0813
 6059TIP3    H118183   5.087   1.381   4.977  0.5994 -0.0742 -0.5454
 6059TIP3    H218184   5.230   1.334   4.998  0.3031 -0.3176  1.0503
 6060TIP3   OH218185   3.835   1.630   2.271 -0.0596 -0.1007  0.1238
 6060TIP3    H118186   3.915   1.679   2.250  0.5167 -0.7137  0.7947
 6060TIP3    H218187   3.859   1.538   2.257  1.0206 -0.8271  4.7972
 6061TIP3   OH218188   2.012   4.063   4.113  0.8260 -0.1133  0.1970
 6061TIP3    H118189   2.065   4.079   4.191 -0.2800 -0.1699  0.9892
 6061TIP3    H218190   1.973   4.148   4.092  2.1665  0.2188 -1.1372
 6062TIP3   OH218191   4.296   3.142   0.125 -0.4823  0.1689 -0.0819
 6062TIP3    H118192   4.271   3.202   0.055 -1.4496 -0.5702 -0.4048
 6062TIP3    H218193   4.219   3.140   0.183 -1.0044 -1.6922 -0.7612
 6063TIP3   OH218194   2.723   3.098   0.834  0.2055  0.2213 -0.6816
 6063TIP3    H118195   2.804   3.136   0.868 -0.0403 -0.3251  0.5538
 6063TIP3    H218196   2.661   3.172   0.831  0.0931  0.1894  0.5228
 6064TIP3   OH218197   4.227   1.714   2.521  0.4762 -0.5665  0.0193
 6064TIP3    H118198   4.139   1.716   2.557  0.0948  0.3689 -0.9025
 6064TIP3    H218199   4.275   1.780   2.570  0.2527 -0.0469 -0.4536
 6065TIP3   OH218200   2.667   0.350   1.554 -0.2330  0.1936 -0.5164
 6065TIP3    H118201   2.659   0.308   1.468 -2.1530  2.0625 -1.3565
 6065TIP3    H218202   2.641   0.441   1.539  1.8987  1.2528  1.5789
 6066TIP3   OH218203   3.527   4.276   4.177 -0.0212 -0.1923 -0.0805
 6066TIP3    H118204   3.453   4.336   4.188 -0.2746 -0.4130 -0.5069
 6066TIP3    H218205   3.515   4.241   4.088  0.6576 -0.1474 -0.1924
 6067TIP3   OH218206   5.062   1.461   4.584 -0.7573 -0.1128 -0.0329
 6067TIP3    H118207   5.080   1.554   4.573  0.1004 -0.3945 -1.2481
 6067TIP3    H218208   5.030   1.453   4.674  0.5649  1.1408  0.6011
 6068TIP3   OH218209   2.865   4.575   1.879 -0.1528 -0.5149  0.1830
 6068TIP3    H118210   2.900   4.663   1.880 -0.5821 -0.3410  1.2971
 6068TIP3    H218211   2.851   4.553   1.971 -0.5127 -1.5544 -0.1012
 6069TIP3   OH218212   0.793   2.279   1.001  0.0365 -0.3005 -0.2276
 6069TIP3    H118213   0.710   2.273   0.954  0.1857 -1.1528 -0.4015
 6069TIP3    H218214   0.831   2.362   0.971 -0.3695 -0.3028 -0.7763
 6070TIP3   OH218215   2.091   3.658   1.797  0.6550  0.6786 -0.1874
 6070TIP3    H118216   2.034   3.732   1.776 -1.5258 -0.7667  0.2979
 6070TIP3    H218217   2.162   3.664   1.733 -1.1295  1.4358 -2.2437
 6071TIP3   OH218218   3.944   1.839   4.033 -0.6893  0.2709  0.7292
 6071TIP3    H118219   3.969   1.759   3.986  0.4845  1.5777 -1.0268
 6071TIP3    H218220   3.894   1.889   3.969  0.8972  2.0966  0.8362
 6072TIP3   OH218221   4.106   1.613   2.196 -0.4175  0.3382  0.0461
 6072TIP3    H118222   4.144   1.695   2.228 -0.2018 -0.1597  1.1363
 6072TIP3    H218223   4.144   1.600   2.109 -0.7660  1.5886 -0.3019
 6073TIP3   OH218224   2.916   3.676   0.299 -0.5393  0.5770  0.0272
 6073TIP3    H118225   2.864   3.635   0.230  2.0696  0.7165 -2.1900
 6073TIP3    H218226   2.936   3.604   0.359 -2.6203  0.3864  0.5376
 6074TIP3   OH218227   1.464   5.935   1.484 -0.7649 -0.2015  0.0151
 6074TIP3    H118228   1.494   5.855   1.441 -0.0099  0.4142 -0.6285
 6074TIP3    H218229   1.385   5.909   1.531  0.1760 -1.6389  0.8882
 6075TIP3   OH218230   3.646   4.831   0.044  0.0966 -0.6232  0.1932
 6075TIP3    H118231   3.568   4.794   0.086 -1.2567  1.3936 -0.3908
 6075TIP3    H218232   3.634   4.812  -0.049  0.0371  0.1016  0.0459
 6076TIP3   OH218233   1.819   2.710   1.145 -0.0357 -0.0758 -0.1801
 6076TIP3    H118234   1.867   2.639   1.102 -2.2335 -1.7397 -0.0544
 6076TIP3    H218235   1.879   2.742   1.213  1.5169 -0.8874 -1.1261
 6077TIP3   OH218236   0.512   3.267   0.730  0.0025  0.1280  0.0513
 6077TIP3    H118237   0.555   3.186   0.702  0.2278  0.3307 -0.1955
 6077TIP3    H218238   0.443   3.239   0.790 -0.1233 -0.2682 -0.2790
 6078TIP3   OH218239   4.806   1.426   0.100  0.4687 -0.0676 -0.7274
 6078TIP3    H118240   4.818   1.519   0.082 -0.4401  0.5865  1.6436
 6078TIP3    H218241   4.730   1.423   0.158 -0.6482 -2.4802 -2.1450
 6079TIP3   OH218242   1.133   5.126   4.710  0.6860 -0.6204 -0.1209
 6079TIP3    H118243   1.041   5.146   4.696  1.2900  4.6121  1.4644
 6079TIP3    H218244   1.139   5.104   4.803  1.1977  1.2220  0.3220
 6080TIP3   OH218245   0.831   2.994   2.780  0.0922 -0.4793  0.2968
 6080TIP3    H118246   0.869   3.061   2.837 -1.6699 -0.2298  1.2601
 6080TIP3    H218247   0.866   3.014   2.693 -0.6530  1.9377  0.4867
 6081TIP3   OH218248   2.886   0.424   4.985 -0.1549 -0.0425  0.1422
 6081TIP3    H118249   2.968   0.404   5.030 -0.5266  0.5180  1.1054
 6081TIP3    H218250   2.899   0.511   4.948 -0.4157  0.1787  0.5621
 6082TIP3   OH218251   3.225   1.983   2.357 -0.1935 -0.2144 -0.6191
 6082TIP3    H118252   3.262   1.906   2.313 -1.3729  0.1561 -2.3742
 6082TIP3    H218253   3.295   2.049   2.353  0.1994 -0.6324 -0.6997
 6083TIP3   OH218254   1.130   1.420   3.913  0.0889  0.3712 -0.1534
 6083TIP3    H118255   1.100   1.385   3.829 -0.3051  0.9607 -0.2624
 6083TIP3    H218256   1.059   1.477   3.943 -0.2220 -0.6038  1.0763
 6084TIP3   OH218257   0.664   5.353   2.365  0.7415 -0.2242  0.4111
 6084TIP3    H118258   0.675   5.406   2.445  0.6465 -0.8645  0.8534
 6084TIP3    H218259   0.593   5.292   2.386  1.6307 -1.3110  0.3269
 6085TIP3   OH218260   3.044   3.692   1.450 -0.7898 -0.1163  0.6265
 6085TIP3    H118261   3.089   3.741   1.519 -1.9502  1.4183  0.3626
 6085TIP3    H218262   3.080   3.604   1.455  2.7866  1.1126 -0.0401
 6086TIP3   OH218263   6.099   0.123   2.359  0.0305  0.2198  0.1220
 6086TIP3    H118264   6.067   0.211   2.376  0.3201  0.2590  0.4688
 6086TIP3    H218265   6.165   0.135   2.290 -1.3372  0.0264 -1.2704
 6087TIP3   OH218266   3.324   0.124   1.845 -0.1630 -0.5302  0.1284
 6087TIP3    H118267   3.271   0.181   1.901  0.8945 -0.0987  0.7286
 6087TIP3    H218268   3.412   0.128   1.883  0.1727 -1.7321 -0.4511
 6088TIP3   OH218269   3.112   3.517   0.431 -0.3394  0.1431  0.1715
 6088TIP3    H118270   3.190   3.466   0.454 -0.0131  1.1281  1.3769
 6088TIP3    H218271   3.147   3.599   0.395 -0.7831  0.9411  1.4976
 6089TIP3   OH218272   5.974   3.910   2.014 -0.0754 -0.0012 -0.3087
 6089TIP3    H118273   5.895   3.925   1.962  0.2579  0.4465 -0.7013
 6089TIP3    H218274   5.946   3.925   2.104 -0.4821 -0.0326 -0.4264
 6090TIP3   OH218275   0.486   0.193   4.577  0.7077 -0.5115 -0.2741
 6090TIP3    H118276   0.501   0.287   4.564 -0.3053 -0.3916 -0.6322
 6090TIP3    H218277   0.478   0.157   4.489  2.3342 -1.1768 -0.1976
 6091TIP3   OH218278   0.096   0.287   0.392  0.2743 -0.0684 -0.2178
 6091TIP3    H118279   0.073   0.380   0.393 -1.7319 -0.5052  0.9847
 6091TIP3    H218280   0.168   0.280   0.454  2.6343  1.0797 -2.6386
 6092TIP3   OH218281   4.716   2.528   0.522 -0.7888 -0.5835  0.4629
 6092TIP3    H118282   4.740   2.465   0.589 -0.7101  0.8378  1.8331
 6092TIP3    H218283   4.800   2.567   0.496 -0.8907 -0.6447  0.0441
 6093TIP3   OH218284   0.986   5.887   2.913  0.8236 -0.2660 -0.1256
 6093TIP3    H118285   1.020   5.977   2.908 -1.5449  0.8373  1.6504
 6093TIP3    H218286   0.981   5.869   3.007  0.1460 -1.8180 -0.4383
 6094TIP3   OH218287   4.085   1.062   0.832  0.2015 -0.0381 -0.0243
 6094TIP3    H118288   4.136   1.142   0.845 -0.2351  0.2548 -0.0864
 6094TIP3    H218289   3.998   1.083   0.866 -0.4144  0.0852 -1.5920
 6095TIP3   OH218290   5.087   1.349   2.683 -0.4871 -0.1826 -0.2632
 6095TIP3    H118291   5.056   1.375   2.597 -0.5190  0.6895 -0.0031
 6095TIP3    H218292   5.007   1.335   2.734 -0.4875  1.4607  0.2333
 6096TIP3   OH218293   3.297   0.546   1.852 -0.2230 -0.1603  0.8791
 6096TIP3    H118294   3.207   0.577   1.866 -0.5453  0.4102 -1.8208
 6096TIP3    H218295   3.317   0.572   1.762  2.1766 -1.4785  0.9554
 6097TIP3   OH218296   5.815   4.984   4.791 -0.7157  0.0931  0.4248
 6097TIP3    H118297   5.779   5.046   4.727 -1.1768 -0.2875  0.3034
 6097TIP3    H218298   5.870   5.037   4.848  0.3243  0.3142 -0.7476
 6098TIP3   OH218299   0.028   5.221   3.815 -0.3908  0.2942  0.5862
 6098TIP3    H118300  -0.020   5.236   3.734 -0.2439  1.8695  0.7672
 6098TIP3    H218301   0.120   5.216   3.789 -0.2466  1.7805  0.7415
 6099TIP3   OH218302   0.913   4.746   4.623 -0.1304  0.3376  0.5450
 6099TIP3    H118303   0.917   4.757   4.718  0.6260  0.0322  0.5555
 6099TIP3    H218304   0.861   4.667   4.610 -1.0559  0.9078  0.6585
 6100TIP3   OH218305   0.023   2.237   4.958 -0.7781 -0.1163 -0.4215
 6100TIP3    H118306   0.032   2.213   4.865 -0.3925  0.4992 -0.5470
 6100TIP3    H218307   0.008   2.332   4.957 -0.0193  0.0186  0.1835
 6101TIP3   OH218308   5.130   5.778   1.764  0.3270  0.2404  0.3643
 6101TIP3    H118309   5.139   5.751   1.855 -0.8574 -0.5759  0.2748
 6101TIP3    H218310   5.046   5.741   1.737  1.0166 -0.1952 -1.2928
 6102TIP3   OH218311   6.062   1.162   1.720  0.6377 -0.1220  0.4432
 6102TIP3    H118312   5.996   1.103   1.757 -1.1134  1.3006 -0.2712
 6102TIP3    H218313   6.109   1.108   1.656  0.2410 -1.1839  1.0121
 6103TIP3   OH218314   5.107   5.060   3.088  0.4355 -0.2903  0.1641
 6103TIP3    H118315   5.187   5.090   3.133 -0.3922  0.2098  1.3489
 6103TIP3    H218316   5.064   5.140   3.059 -0.7441 -0.3871  1.5202
 6104TIP3   OH218317   5.205   4.278   0.328  0.0096  0.2313 -0.1939
 6104TIP3    H118318   5.171   4.265   0.416  0.0663 -0.5938 -0.2884
 6104TIP3    H218319   5.300   4.272   0.337 -0.0010 -0.2966 -0.3707
 6105TIP3   OH218320   2.296   3.865   1.116 -0.2194 -0.6515 -0.6845
 6105TIP3    H118321   2.370   3.923   1.097 -0.7500  0.6612  1.0246
 6105TIP3    H218322   2.246   3.862   1.035  0.0301  0.9915 -0.9197
 6106TIP3   OH218323   2.251   5.913   3.700 -0.2652  0.0483 -0.3694
 6106TIP3    H118324   2.321   5.872   3.649  0.1441  0.6465 -0.3016
 6106TIP3    H218325   2.210   5.974   3.640  0.8339  1.4633  0.2379
 6107TIP3   OH218326   0.489   3.309   3.990  0.2303 -0.0169 -0.3134
 6107TIP3    H118327   0.515   3.323   4.081  0.5958  0.5478 -0.4987
 6107TIP3    H218328   0.538   3.232   3.962  1.2494  0.6714 -0.4698
 6108TIP3   OH218329   5.075   3.361   1.547  0.1594  0.0671 -0.2266
 6108TIP3    H118330   5.116   3.294   1.492  0.0812 -1.4289  1.4431
 6108TIP3    H218331   5.037   3.312   1.620 -1.9973  1.7026 -0.1461
 6109TIP3   OH218332   3.082   1.452   4.074  0.1057  0.1646 -0.1501
 6109TIP3    H118333   3.128   1.493   4.148  1.1004 -1.0359 -0.0598
 6109TIP3    H218334   3.031   1.522   4.035 -0.5287  0.8123  1.7443
 6110TIP3   OH218335   2.601   5.848   2.734 -1.2587  0.2300 -0.1426
 6110TIP3    H118336   2.671   5.813   2.679 -0.9038  0.6821  0.0179
 6110TIP3    H218337   2.574   5.774   2.788 -0.8639  0.0695 -0.1649
 6111TIP3   OH218338   2.958   0.272   1.018  0.3306  0.6570 -0.2224
 6111TIP3    H118339   3.047   0.283   0.984 -1.0411  2.3977 -3.7758
 6111TIP3    H218340   2.948   0.342   1.082  0.7415  2.2919 -1.8448
 6112TIP3   OH218341   3.314   3.228   4.216  0.3231  0.3138  0.1248
 6112TIP3    H118342   3.374   3.253   4.147  0.2048 -0.0072 -0.0979
 6112TIP3    H218343   3.295   3.136   4.199  2.0519 -0.4498  1.8609
 6113TIP3   OH218344   3.016   5.590   2.095 -0.1336 -0.1671 -0.0786
 6113TIP3    H118345   3.070   5.570   2.019  1.5688  0.9268  0.7757
 6113TIP3    H218346   2.996   5.683   2.086  2.1184  0.6179  1.9213
 6114TIP3   OH218347   5.038   0.670   2.188 -0.6613  0.1068 -0.0675
 6114TIP3    H118348   4.958   0.707   2.225 -0.4737  0.1834  0.2648
 6114TIP3    H218349   5.109   0.722   2.226 -0.4255 -0.2777  0.0218
 6115TIP3   OH218350   3.177   4.272   4.497 -0.3550  0.5402 -0.1113
 6115TIP3    H118351   3.172   4.289   4.403 -1.0200  1.6728  0.1166
 6115TIP3    H218352   3.135   4.186   4.507  0.9689 -0.2506 -0.9929
 6116TIP3   OH218353   4.288   5.011   4.440  0.0895  0.6646  0.1127
 6116TIP3    H118354   4.342   5.089   4.425 -0.1508  0.2866 -3.5462
 6116TIP3    H218355   4.198   5.041   4.428 -0.3207  0.4775  2.3072
 6117TIP3   OH218356   1.279   4.410   1.733  0.3202 -0.0083  0.2298
 6117TIP3    H118357   1.344   4.406   1.664 -0.8620  0.1964 -0.9310
 6117TIP3    H218358   1.282   4.501   1.764  0.5935 -0.0088  0.2053
 6118TIP3   OH218359   2.562   3.229   2.907  0.0517 -0.1002 -0.5109
 6118TIP3    H118360   2.628   3.170   2.871 -0.7553 -1.0484 -0.4875
 6118TIP3    H218361   2.588   3.316   2.876  1.1690 -0.4760 -0.6845
 6119TIP3   OH218362   4.512   0.983   2.847  0.2311 -0.2200  0.2362
 6119TIP3    H118363   4.442   0.977   2.783 -0.5021 -2.2104  1.1507
 6119TIP3    H218364   4.587   0.940   2.806  0.1614 -0.3189  0.2135
 6120TIP3   OH218365   1.358   4.125   3.493 -0.2654 -0.3841 -0.1371
 6120TIP3    H118366   1.452   4.140   3.482 -0.4078 -0.0444 -0.9829
 6120TIP3    H218367   1.319   4.211   3.476 -0.8048 -0.7864 -0.9610
 6121TIP3   OH218368   2.005   1.153   4.212 -0.2882  0.6664  0.5496
 6121TIP3    H118369   2.020   1.199   4.129 -1.8209 -0.3005 -0.3328
 6121TIP3    H218370   2.066   1.079   4.210 -0.3369  0.6310  0.2538
 6122TIP3   OH218371   1.685   2.200   0.341 -0.1647  0.7140 -0.0042
 6122TIP3    H118372   1.671   2.240   0.255 -1.0009 -0.1317 -0.2795
 6122TIP3    H218373   1.742   2.125   0.324  1.0034  1.4855  0.4355
 6123TIP3   OH218374   3.699   2.778   0.538  0.3784 -0.0563 -0.7060
 6123TIP3    H118375   3.763   2.804   0.471  2.4314 -1.1163  0.7080
 6123TIP3    H218376   3.732   2.819   0.618 -0.2753 -1.2593  0.2062
 6124TIP3   OH218377   2.343   3.708   2.463 -0.2767  0.2344 -0.4826
 6124TIP3    H118378   2.394   3.775   2.416  2.5833 -1.3365  0.1176
 6124TIP3    H218379   2.256   3.711   2.423  0.1877  3.1973 -1.5125
 6125TIP3   OH218380   1.725   2.846   0.160  0.1256 -0.2252 -0.0873
 6125TIP3    H118381   1.714   2.856   0.255  0.0953 -1.2803  0.0224
 6125TIP3    H218382   1.729   2.752   0.145  0.4361 -0.0662 -1.1065
 6126TIP3   OH218383   3.827   5.907   4.340 -0.3947  0.0193 -0.3212
 6126TIP3    H118384   3.869   5.828   4.306  0.1773  0.9575 -1.9284
 6126TIP3    H218385   3.884   5.978   4.311 -2.0512  1.1951 -0.8223
 6127TIP3   OH218386   3.627   1.271   1.750 -0.5694  0.2381 -0.2791
 6127TIP3    H118387   3.588   1.241   1.832  1.1426 -0.2516  0.3903
 6127TIP3    H218388   3.680   1.347   1.774 -1.0648  0.8872 -1.1652
 6128TIP3   OH218389   0.997   5.091   1.978  0.2607  0.1274 -0.2239
 6128TIP3    H118390   0.949   5.113   2.058  2.2015  2.3096  0.4544
 6128TIP3    H218391   0.929   5.078   1.912 -1.3250  1.2058  1.1095
 6129TIP3   OH218392   3.133   0.153   0.416  0.0700  0.1980 -0.3684
 6129TIP3    H118393   3.202   0.219   0.424 -0.3486  0.5020  1.0298
 6129TIP3    H218394   3.061   0.199   0.374 -0.1826  0.6289  0.5079
 6130TIP3   OH218395   0.371   2.833   1.619  0.3893 -0.0791 -0.1700
 6130TIP3    H118396   0.422   2.764   1.662  2.2090  0.9021 -0.6554
 6130TIP3    H218397   0.436   2.898   1.593 -1.3307  2.2549  1.0262
 6131TIP3   OH218398   4.377   1.390   4.862  0.6101 -0.0880  0.3146
 6131TIP3    H118399   4.392   1.311   4.810 -2.2066  0.3968 -1.4513
 6131TIP3    H218400   4.395   1.462   4.802 -0.9749  0.5040  0.4930
 6132TIP3   OH218401   2.028   2.357   2.748 -0.3420  0.1038 -0.3942
 6132TIP3    H118402   2.056   2.394   2.664 -0.8372 -2.8224 -1.9699
 6132TIP3    H218403   1.932   2.364   2.746 -0.7295 -3.6149 -2.0938
 6133TIP3   OH218404   1.848   1.185   1.182  0.5649  0.0080 -0.4078
 6133TIP3    H118405   1.760   1.150   1.189  0.7879 -0.2652  2.0652
 6133TIP3    H218406   1.843   1.270   1.227  1.8337 -0.6843  1.1562
 6134TIP3   OH218407   4.515   2.691   3.501  0.1741 -0.0804 -0.2680
 6134TIP3    H118408   4.590   2.677   3.559 -1.3334 -2.0905  1.3106
 6134TIP3    H218409   4.459   2.752   3.549  0.3940  0.8525 -1.1352
 6135TIP3   OH218410   0.160   3.715   0.063  0.0511 -0.0090  0.7427
 6135TIP3    H118411   0.224   3.768   0.111  1.5920 -0.3832 -0.7974
 6135TIP3    H218412   0.194   3.712  -0.027 -3.1817  1.4375 -0.6816
 6136TIP3   OH218413   6.158   1.854   3.386 -0.2801 -0.3095  0.0663
 6136TIP3    H118414   6.200   1.825   3.305 -1.3002 -1.1096 -0.1926
 6136TIP3    H218415   6.206   1.934   3.410  0.0401 -0.0548 -1.3076
 6137TIP3   OH218416   2.407   0.712   3.622 -0.3007  0.0544 -0.2758
 6137TIP3    H118417   2.436   0.779   3.684 -2.4865  0.9460 -0.1201
 6137TIP3    H218418   2.350   0.655   3.674  1.1581 -1.7205 -0.5204
 6138TIP3   OH218419   2.391   3.420   3.607  0.5447  0.1496  0.5924
 6138TIP3    H118420   2.478   3.411   3.569  0.1121 -0.8499 -0.2180
 6138TIP3    H218421   2.377   3.514   3.616  1.5527  0.3236  0.3946
 6139TIP3   OH218422   1.165   1.124   3.010 -0.0917  0.0665 -0.2505
 6139TIP3    H118423   1.076   1.142   2.979  0.3127 -0.0269 -1.5109
 6139TIP3    H218424   1.157   1.122   3.106 -1.9707 -2.6393 -0.3682
 6140TIP3   OH218425   1.579   1.952   4.756  0.7745  0.1403 -0.2785
 6140TIP3    H118426   1.597   2.015   4.686  0.6758  0.9682  0.4338
 6140TIP3    H218427   1.599   1.999   4.837 -2.8807  0.5585  0.5214
 6141TIP3   OH218428   3.923   1.472   1.632 -0.7283  0.1573 -0.1879
 6141TIP3    H118429   3.940   1.392   1.682  0.3888 -0.0478 -0.8521
 6141TIP3    H218430   3.850   1.449   1.575 -0.9833 -0.1087  0.2394
 6142TIP3   OH218431   5.045   1.632   0.745 -0.6132 -0.2380  0.1355
 6142TIP3    H118432   5.013   1.706   0.797 -0.0667 -0.2506  0.5006
 6142TIP3    H218433   4.982   1.623   0.674 -0.7178  0.5434  0.1228
 6143TIP3   OH218434   1.380   0.363   2.972 -0.1779  0.6557 -0.1105
 6143TIP3    H118435   1.412   0.425   2.906 -0.8511  1.0604 -0.0608
 6143TIP3    H218436   1.286   0.359   2.958 -0.1944 -0.0357  0.1694
 6144TIP3   OH218437   0.029   2.063   3.368  0.3930 -0.0475 -0.1110
 6144TIP3    H118438   0.063   2.010   3.296 -0.4861 -0.2845 -0.3620
 6144TIP3    H218439   0.066   2.023   3.447  0.9048 -0.1311 -0.3881
 6145TIP3   OH218440   3.740   0.081   4.504  0.2245  0.6522 -0.4236
 6145TIP3    H118441   3.831   0.052   4.493 -0.1592 -0.3382 -1.1798
 6145TIP3    H218442   3.718   0.059   4.594  0.6262  0.5503 -0.3490
 6146TIP3   OH218443   6.314   5.116   0.725 -0.0556  0.5579 -0.3772
 6146TIP3    H118444   6.345   5.093   0.812 -0.4935 -0.6400 -0.5148
 6146TIP3    H218445   6.218   5.113   0.732 -0.0946  0.5153 -0.8842
 6147TIP3   OH218446   1.450   3.443   3.432 -0.0095  0.2850 -0.6140
 6147TIP3    H118447   1.383   3.509   3.448  0.0637  0.1331  0.3855
 6147TIP3    H218448   1.432   3.375   3.497 -0.0547 -0.6628 -1.5995
 6148TIP3   OH218449   3.913   0.048   3.059 -0.1885 -0.1442  0.0545
 6148TIP3    H118450   3.922   0.024   3.151 -0.4974 -0.3247  0.0397
 6148TIP3    H218451   3.910   0.144   3.059 -1.6668 -0.1586  0.3902
 6149TIP3   OH218452   2.285   2.986   5.007 -0.1084  0.1092 -0.0243
 6149TIP3    H118453   2.298   2.957   4.917  1.2129 -0.8954  0.4523
 6149TIP3    H218454   2.352   2.939   5.057 -1.0287  0.3857  1.5338
 6150TIP3   OH218455   3.487   4.066   3.838  0.3676 -0.4670  0.0181
 6150TIP3    H118456   3.580   4.053   3.822  0.5102  0.8811 -0.3179
 6150TIP3    H218457   3.456   3.981   3.869  2.1905 -0.3315  2.4565
 6151TIP3   OH218458   1.574   4.761   1.006 -0.2895 -0.0531 -0.4629
 6151TIP3    H118459   1.598   4.777   1.098  0.0954 -1.9434 -0.1907
 6151TIP3    H218460   1.647   4.711   0.970 -1.7219 -1.9782 -0.9036
 6152TIP3   OH218461   0.090   5.288   1.703 -0.3480 -0.0304  0.7380
 6152TIP3    H118462   0.014   5.230   1.716 -0.6023 -0.3590 -1.8290
 6152TIP3    H218463   0.166   5.233   1.722 -0.6754 -0.3080  1.2654
 6153TIP3   OH218464   0.864   5.266   0.663 -0.1927  0.0105 -0.4239
 6153TIP3    H118465   0.827   5.210   0.731 -1.0066  0.1133 -0.7773
 6153TIP3    H218466   0.958   5.244   0.663 -0.4393 -1.1055 -0.3283
 6154TIP3   OH218467   5.931   2.859   2.268 -0.0291  0.6215  0.1233
 6154TIP3    H118468   5.991   2.928   2.241 -1.3402  0.7997 -2.6937
 6154TIP3    H218469   5.851   2.906   2.293  0.1775  0.2686  1.5018
 6155TIP3   OH218470   4.738   5.340   1.362 -0.7316 -0.2694  0.5579
 6155TIP3    H118471   4.743   5.281   1.287  0.0598  0.6152 -0.1007
 6155TIP3    H218472   4.652   5.381   1.355  0.0476  1.2096 -0.9755
 6156TIP3   OH218473   2.287   5.829   0.858 -0.3363 -0.1723 -0.0177
 6156TIP3    H118474   2.343   5.903   0.884 -1.5741  0.6832  0.3331
 6156TIP3    H218475   2.198   5.859   0.878 -0.9355 -1.4298 -0.7046
 6157TIP3   OH218476   4.771   3.606   0.389  0.2704  0.5539 -0.0142
 6157TIP3    H118477   4.848   3.550   0.396  1.2734  1.8309 -0.5912
 6157TIP3    H218478   4.702   3.548   0.357  0.9503 -0.6258  0.6036
 6158TIP3   OH218479   2.670   0.948   4.766  0.2957 -0.2643  0.0434
 6158TIP3    H118480   2.613   1.009   4.720  0.8018 -0.5072 -0.9308
 6158TIP3    H218481   2.736   1.003   4.809  1.3811 -0.1505 -1.6980
 6159TIP3   OH218482   4.682   0.898   3.329  0.4991  0.2148  0.1574
 6159TIP3    H118483   4.605   0.844   3.312 -0.6733  1.7129  0.3919
 6159TIP3    H218484   4.689   0.955   3.252  1.7779 -0.3223 -0.1481
 6160TIP3   OH218485   2.326   0.754   2.467 -0.1070  0.8559 -0.2646
 6160TIP3    H118486   2.230   0.759   2.460 -0.3019  0.0200  1.2615
 6160TIP3    H218487   2.357   0.746   2.377 -1.5674 -0.1929 -0.7030
 6161TIP3   OH218488   2.100   4.612   2.210  0.1526 -0.1878 -0.1532
 6161TIP3    H118489   2.151   4.557   2.270  1.1912  0.2833 -0.5650
 6161TIP3    H218490   2.166   4.651   2.153 -0.7109  0.2900 -0.8445
 6162TIP3   OH218491   0.950   0.326   2.575  0.2329 -0.1295 -0.6279
 6162TIP3    H118492   0.974   0.278   2.496 -2.3739  1.4801 -2.5454
 6162TIP3    H218493   1.000   0.407   2.571  1.5915 -0.8547  0.5098
 6163TIP3   OH218494   1.374   3.186   4.456  0.4532  0.2487 -0.4731
 6163TIP3    H118495   1.407   3.238   4.383  1.6839  1.1793  0.6991
 6163TIP3    H218496   1.292   3.228   4.480  1.1973  1.4151  0.1512
 6164TIP3   OH218497   4.427   0.818   0.456  0.3071 -0.1410  0.1117
 6164TIP3    H118498   4.490   0.782   0.394 -0.5524 -0.1425 -0.7839
 6164TIP3    H218499   4.346   0.769   0.440  0.1775 -0.4553  1.5520
 6165TIP3   OH218500   3.368   1.947   0.367 -0.1575  0.2478  0.0806
 6165TIP3    H118501   3.274   1.943   0.351 -0.2933  1.0005  0.6391
 6165TIP3    H218502   3.377   2.002   0.444  0.7940  0.7922 -0.4037
 6166TIP3   OH218503   5.254   4.097   4.871  0.1633  0.3193  0.6622
 6166TIP3    H118504   5.298   4.018   4.901  0.6787  0.2225 -0.3076
 6166TIP3    H218505   5.232   4.079   4.780  0.7125  1.4578  0.2815
 6167TIP3   OH218506   3.112   0.344   3.781 -0.4224 -0.2516  0.3955
 6167TIP3    H118507   3.163   0.383   3.709 -1.1747 -1.2524 -0.7172
 6167TIP3    H218508   3.022   0.369   3.763 -0.4018  1.3534  2.2597
 6168TIP3   OH218509   4.901   4.524   3.912 -0.2261  0.0397 -0.6503
 6168TIP3    H118510   4.934   4.466   3.844  1.3799 -0.5732  0.5788
 6168TIP3    H218511   4.978   4.574   3.940 -0.8599  0.3138  0.6599
 6169TIP3   OH218512   5.834   0.069   2.899  0.0862 -0.2060  0.2814
 6169TIP3    H118513   5.833   0.010   2.974 -0.8002  0.2986  0.6772
 6169TIP3    H218514   5.808   0.014   2.825 -0.0830 -0.4605  0.5287
 6170TIP3   OH218515   4.834   5.722   3.348  0.2072  0.4407 -0.2767
 6170TIP3    H118516   4.869   5.733   3.437  0.1642 -0.7679 -0.0954
 6170TIP3    H218517   4.756   5.668   3.360  1.9649 -2.5705 -1.3106
 6171TIP3   OH218518   2.195   2.531   0.387  0.2431 -0.6689  0.1555
 6171TIP3    H118519   2.104   2.514   0.410 -0.0327  0.0953 -0.3305
 6171TIP3    H218520   2.201   2.626   0.382  0.9441 -0.7279 -0.3113
 6172TIP3   OH218521   4.604   5.590   4.061  0.2929  0.1265  0.6593
 6172TIP3    H118522   4.635   5.511   4.105 -1.2533 -1.5680 -1.0702
 6172TIP3    H218523   4.517   5.606   4.098  0.7086  1.2181  1.1972
 6173TIP3   OH218524   2.273   2.849   2.412  0.1556  0.6771  0.0874
 6173TIP3    H118525   2.200   2.787   2.411 -1.1595  2.1495  1.2540
 6173TIP3    H218526   2.348   2.797   2.382 -1.0547 -1.2419  0.1992
 6174TIP3   OH218527   1.633   4.435   0.236  0.6802 -0.1532  0.6580
 6174TIP3    H118528   1.586   4.517   0.227  1.0750 -0.1235 -1.6771
 6174TIP3    H218529   1.658   4.411   0.147  1.6247 -2.1973  1.3993
 6175TIP3   OH218530   4.779   2.847   4.008 -0.1968  0.1224 -0.1012
 6175TIP3    H118531   4.766   2.827   4.100  0.1178  0.5143  0.0324
 6175TIP3    H218532   4.696   2.886   3.979 -0.7232 -1.1013 -0.3003
 6176TIP3   OH218533   2.512   1.126   2.071 -0.0425 -0.2379  0.2183
 6176TIP3    H118534   2.481   1.215   2.053  0.4348 -0.5613 -2.7041
 6176TIP3    H218535   2.605   1.129   2.049  0.0108 -1.4449  0.2520
 6177TIP3   OH218536   3.144   1.248   5.077 -0.2482  0.0202  0.1442
 6177TIP3    H118537   3.160   1.228   5.169  0.5670  1.1409  0.2729
 6177TIP3    H218538   3.080   1.319   5.079  1.2696  1.4570 -0.0414
 6178TIP3   OH218539   0.290   5.515   2.078 -0.2594  0.5963 -0.3745
 6178TIP3    H118540   0.320   5.485   1.992 -0.0640 -0.4125  0.0370
 6178TIP3    H218541   0.369   5.514   2.132 -0.4861  0.7128 -0.0408
 6179TIP3   OH218542   1.705   0.985   0.127 -0.1569 -0.4576  0.1494
 6179TIP3    H118543   1.665   1.054   0.074  1.3020  0.6763  0.4339
 6179TIP3    H218544   1.652   0.983   0.207 -0.2428  0.3408  0.1230
 6180TIP3   OH218545   2.014   2.876   0.841 -0.3709 -0.7342 -0.4279
 6180TIP3    H118546   2.068   2.845   0.914  1.3295  0.6530 -1.0124
 6180TIP3    H218547   2.033   2.815   0.770  1.3937  0.3633 -0.9681
 6181TIP3   OH218548   1.665   3.510   4.247  0.0287 -0.2465  0.2280
 6181TIP3    H118549   1.697   3.555   4.169 -1.1582 -0.6348 -0.4919
 6181TIP3    H218550   1.609   3.574   4.291 -0.7680 -0.6280 -0.2118
 6182TIP3   OH218551   0.493   4.257   0.175  0.3799 -0.4678  0.4739
 6182TIP3    H118552   0.557   4.328   0.181  1.5699 -1.5313  0.8225
 6182TIP3    H218553   0.408   4.301   0.180  1.0756  0.9389  0.5145
 6183TIP3   OH218554   0.368   4.586   0.864  0.3160  0.1123  0.0803
 6183TIP3    H118555   0.319   4.506   0.880  1.4617 -0.1449  2.7995
 6183TIP3    H218556   0.302   4.655   0.865 -0.3627 -0.5300  0.3431
 6184TIP3   OH218557   2.318   0.326   4.841 -0.1008  0.0948 -0.1918
 6184TIP3    H118558   2.242   0.384   4.841  0.3642  0.9038 -3.7763
 6184TIP3    H218559   2.391   0.383   4.863 -0.1746 -0.1801  0.8401
 6185TIP3   OH218560   1.574   5.716   2.230  0.1364  0.2014 -0.5291
 6185TIP3    H118561   1.491   5.669   2.240 -0.2576  1.1330  1.0374
 6185TIP3    H218562   1.548   5.802   2.195  0.4292  0.5061 -0.0058
 6186TIP3   OH218563   3.391   5.640   4.838 -0.5235 -0.1488 -0.0280
 6186TIP3    H118564   3.297   5.628   4.852 -0.8680  2.4203  0.3250
 6186TIP3    H218565   3.425   5.657   4.926  0.2287 -0.6761 -0.2118
 6187TIP3   OH218566   5.299   3.398   2.772 -0.0144 -0.5020 -0.3154
 6187TIP3    H118567   5.270   3.445   2.850 -0.3111 -0.2332 -0.5879
 6187TIP3    H218568   5.244   3.431   2.701  0.7892 -0.1639 -0.7974
 6188TIP3   OH218569   1.845   3.456   3.808  0.2835  0.0064  0.5690
 6188TIP3    H118570   1.792   3.416   3.739  0.4208 -0.3176  0.6458
 6188TIP3    H218571   1.915   3.500   3.762  1.0808 -1.2416  0.5291
 6189TIP3   OH218572   1.347   2.535   4.186  0.6353 -0.0840 -0.1260
 6189TIP3    H118573   1.414   2.600   4.165  1.1772 -0.9424 -1.1853
 6189TIP3    H218574   1.271   2.560   4.133  0.8959 -0.3884 -0.6515
 6190TIP3   OH218575   3.731   5.299   0.522 -0.2753 -0.3269 -0.3268
 6190TIP3    H118576   3.717   5.354   0.599 -0.8449 -2.0233  0.8350
 6190TIP3    H218577   3.643   5.274   0.495 -0.0385 -0.3485 -1.1062
 6191TIP3   OH218578   2.357   2.504   1.101 -0.3005  0.4972 -0.1666
 6191TIP3    H118579   2.452   2.501   1.087 -0.3102  1.5436 -0.5884
 6191TIP3    H218580   2.324   2.423   1.062  0.3249  0.5818 -0.8969
 6192TIP3   OH218581   2.201   1.497   4.612 -0.3862  0.5230 -0.8813
 6192TIP3    H118582   2.220   1.512   4.520  2.5573 -0.7793 -0.6067
 6192TIP3    H218583   2.241   1.570   4.658  0.7583 -0.3046 -0.5068
 6193TIP3   OH218584   4.492   0.152   0.792  0.4117 -0.3808  0.0727
 6193TIP3    H118585   4.470   0.145   0.699  0.3650 -0.7474  0.1118
 6193TIP3    H218586   4.575   0.104   0.800  0.2760 -0.5783  0.2725
 6194TIP3   OH218587   5.372   4.365   5.031  0.3373 -0.1076  0.3097
 6194TIP3    H118588   5.465   4.346   5.021  0.5122  0.5976  0.5244
 6194TIP3    H218589   5.334   4.350   4.944  1.1956  2.5113 -0.6317
 6195TIP3   OH218590   2.963   5.105   4.855  0.3002 -0.5874  0.3364
 6195TIP3    H118591   2.925   5.018   4.846 -0.6743 -0.2355  0.9713
 6195TIP3    H218592   2.923   5.142   4.933  0.3795  0.5958 -0.1505
 6196TIP3   OH218593   4.904   5.742   3.936 -0.1783 -0.0500 -0.4342
 6196TIP3    H118594   4.812   5.724   3.914  0.2369 -0.4410 -1.9702
 6196TIP3    H218595   4.907   5.836   3.951 -0.7658  0.0214 -0.7221
 6197TIP3   OH218596   3.675   5.612   1.151 -0.6700  0.0497  0.1740
 6197TIP3    H118597   3.629   5.535   1.184 -2.5518  1.6430  1.4770
 6197TIP3    H218598   3.665   5.606   1.056  0.0641 -1.7730  0.1680
 6198TIP3   OH218599   2.444   3.602   1.006 -1.0709 -0.0947 -0.0944
 6198TIP3    H118600   2.525   3.571   1.048 -0.1488  0.3278 -1.4788
 6198TIP3    H218601   2.431   3.690   1.042 -0.7707 -0.0629 -0.0577
 6199TIP3   OH218602   1.430   1.336   0.245  0.4259  0.0723 -0.4922
 6199TIP3    H118603   1.489   1.302   0.312  0.3555 -1.6271 -1.2537
 6199TIP3    H218604   1.392   1.414   0.285  1.1636 -0.3135  1.0459
 6200TIP3   OH218605   2.820   3.645   4.746  0.0690 -0.3094 -0.3891
 6200TIP3    H118606   2.727   3.661   4.729 -0.6002 -1.2096  1.9773
 6200TIP3    H218607   2.833   3.673   4.836  1.6944 -1.6991 -0.1267
 6201TIP3   OH218608   3.148   0.968   2.691 -0.2113 -0.6682 -0.3089
 6201TIP3    H118609   3.187   0.925   2.767 -0.3502 -1.4797 -0.6774
 6201TIP3    H218610   3.141   1.060   2.716  1.2711 -0.6165  0.0309
 6202TIP3   OH218611   4.913   0.404   0.490  0.0127  0.0634 -0.0218
 6202TIP3    H118612   4.868   0.325   0.458  0.9788 -1.3415  1.8727
 6202TIP3    H218613   4.882   0.413   0.580  1.2270  0.8522  0.3225
 6203TIP3   OH218614   0.887   4.525   2.520 -0.4420 -0.0235  0.0284
 6203TIP3    H118615   0.814   4.464   2.518  0.1171 -0.6698 -0.7289
 6203TIP3    H218616   0.964   4.472   2.504  0.1441  0.7431  0.2436
 6204TIP3   OH218617   3.479   0.281   0.084 -0.0837 -0.0357 -0.5026
 6204TIP3    H118618   3.386   0.269   0.100 -0.2855 -0.1856 -1.7277
 6204TIP3    H218619   3.485   0.316  -0.005  1.0238 -0.0488 -0.4582
 6205TIP3   OH218620   0.813   5.480   1.556 -0.2523 -0.1208 -0.2426
 6205TIP3    H118621   0.813   5.566   1.598 -2.1451  1.0983 -2.5063
 6205TIP3    H218622   0.820   5.418   1.629  1.5879  1.8861  1.4506
 6206TIP3   OH218623   1.056   4.823   2.836 -0.8498 -1.1516  0.1056
 6206TIP3    H118624   0.998   4.838   2.911 -0.9840 -0.6859 -0.0866
 6206TIP3    H218625   1.119   4.895   2.840 -0.2185 -1.7121  0.3725
 6207TIP3   OH218626   1.468   0.792   0.405 -0.3300  0.6775 -0.1640
 6207TIP3    H118627   1.517   0.873   0.416  0.6105 -0.1608  2.7933
 6207TIP3    H218628   1.528   0.734   0.358 -0.0248  0.9292 -0.0889
 6208TIP3   OH218629   5.393   5.944   4.090 -0.3019  0.7969  0.7550
 6208TIP3    H118630   5.333   5.897   4.032 -1.3536  1.1117  1.5613
 6208TIP3    H218631   5.352   6.030   4.101 -0.4897  0.5007  2.5326
 6209TIP3   OH218632   3.109   2.490   5.027 -0.4975 -0.5973  0.6945
 6209TIP3    H118633   3.052   2.448   4.963 -0.2616 -1.5956  1.1230
 6209TIP3    H218634   3.161   2.418   5.064  0.3412  0.1548  1.0128
 6210TIP3   OH218635   1.965   0.239   2.929 -0.6183  0.1084  0.2098
 6210TIP3    H118636   1.938   0.210   2.842  0.9384  0.2564 -0.3533
 6210TIP3    H218637   2.005   0.325   2.915 -0.3075  0.1160  1.0572
 6211TIP3   OH218638   5.587   5.488   4.910  0.5291  0.0901 -0.6738
 6211TIP3    H118639   5.538   5.447   4.839 -0.4815 -2.1020  1.1699
 6211TIP3    H218640   5.670   5.441   4.913  0.3214 -0.2376 -0.0201
 6212TIP3   OH218641   4.299   0.389   1.749 -0.4053 -0.3467  0.3743
 6212TIP3    H118642   4.284   0.295   1.740 -1.6819 -0.1720  0.4880
 6212TIP3    H218643   4.235   0.418   1.814  0.1306  0.5658  0.5152
 6213TIP3   OH218644   2.303   2.243   4.009  0.4184 -0.4503  0.2428
 6213TIP3    H118645   2.320   2.337   4.019  0.8989 -0.5485  0.3751
 6213TIP3    H218646   2.243   2.222   4.081  1.3395 -0.5044  1.0205
 6214TIP3   OH218647   4.929   2.304   0.297  0.5764 -0.0279  0.1523
 6214TIP3    H118648   4.858   2.284   0.235  0.0504  1.1419  0.3469
 6214TIP3    H218649   5.009   2.278   0.251  0.1154 -0.1323 -0.6117
 6215TIP3   OH218650   5.811   1.779   0.017 -0.6996 -0.4753  0.2790
 6215TIP3    H118651   5.772   1.779   0.105  0.1032  0.4311  0.6567
 6215TIP3    H218652   5.843   1.690   0.005 -1.6554 -0.8575  0.5203
 6216TIP3   OH218653   4.600   4.608   0.753 -0.3725 -0.1005 -0.7562
 6216TIP3    H118654   4.560   4.634   0.836  1.0441  0.8386 -0.3437
 6216TIP3    H218655   4.646   4.526   0.773 -2.3239 -1.4192 -1.3327
 6217TIP3   OH218656   2.203   3.463   0.360 -0.5573  0.6909  0.3943
 6217TIP3    H118657   2.286   3.465   0.314  0.0718  0.1892  1.4641
 6217TIP3    H218658   2.220   3.409   0.438 -1.3998  1.9929  1.5375
 6218TIP3   OH218659   5.866   2.558   3.551  0.9894  0.2980 -0.0603
 6218TIP3    H118660   5.825   2.477   3.582  2.5756 -0.2321  0.7680
 6218TIP3    H218661   5.802   2.596   3.491 -0.1986 -1.0708  0.2883
 6219TIP3   OH218662   3.089   1.686   0.817  0.2993  0.1783  0.2173
 6219TIP3    H118663   3.106   1.690   0.911 -0.2690  0.7055  0.3077
 6219TIP3    H218664   3.081   1.593   0.797  1.1927  0.0193  0.5401
 6220TIP3   OH218665   4.946   1.482   1.880  0.0653 -0.2794 -0.2380
 6220TIP3    H118666   5.038   1.472   1.857  0.3840  3.0628 -0.8810
 6220TIP3    H218667   4.905   1.518   1.801 -1.4444 -0.0913  0.5938
 6221TIP3   OH218668   5.869   2.883   1.292 -0.4786  0.2309  0.0292
 6221TIP3    H118669   5.903   2.917   1.209  0.5506 -1.3387 -0.2331
 6221TIP3    H218670   5.775   2.873   1.278 -0.5397  1.3414 -0.4385
 6222TIP3   OH218671   1.105   2.157   2.876  0.3122 -0.1258 -0.3332
 6222TIP3    H118672   1.045   2.171   2.803 -1.4971 -0.2328  1.0524
 6222TIP3    H218673   1.101   2.063   2.892  0.6259 -0.0911 -0.0451
 6223TIP3   OH218674   0.906   1.994   4.572  1.1085  0.1298  0.7007
 6223TIP3    H118675   0.887   1.971   4.663 -1.7024 -3.2800 -0.5453
 6223TIP3    H218676   0.941   1.914   4.533  1.5829  1.2946 -1.4239
 6224TIP3   OH218677   1.598   3.745   4.513  0.2736  0.0282  0.4231
 6224TIP3    H118678   1.692   3.730   4.519  0.5766  1.0723 -0.9556
 6224TIP3    H218679   1.586   3.835   4.544 -0.4784 -0.5387  1.8561
 6225TIP3   OH218680   3.977   3.979   0.927  0.5467  0.0609  0.1800
 6225TIP3    H118681   3.988   4.068   0.894  0.3087  0.4453  1.1093
 6225TIP3    H218682   4.065   3.943   0.931  0.9661  1.1910  2.3060
 6226TIP3   OH218683   6.097   3.557   3.630  0.4709 -0.0949 -0.0167
 6226TIP3    H118684   6.046   3.558   3.549  0.9363 -0.8438 -0.3243
 6226TIP3    H218685   6.101   3.649   3.657 -0.1796  0.0859 -0.5290
 6227TIP3   OH218686   1.063   5.351   2.762  0.7059 -0.6736 -0.2609
 6227TIP3    H118687   1.065   5.442   2.734  1.4089  0.6239  3.3656
 6227TIP3    H218688   0.970   5.330   2.767  0.5444 -0.4299 -1.7344
 6228TIP3   OH218689   5.079   1.367   2.387  0.2228 -0.3432 -0.5471
 6228TIP3    H118690   5.169   1.376   2.418 -0.2743  0.8028  0.6581
 6228TIP3    H218691   5.088   1.323   2.302  1.9197 -0.1717 -0.5073
 6229TIP3   OH218692   3.160   5.101   1.074 -0.0728  0.0005  0.7400
 6229TIP3    H118693   3.065   5.095   1.084 -0.2730  1.9217  0.4188
 6229TIP3    H218694   3.193   5.109   1.163 -0.1575 -1.1433  0.8820
 6230TIP3   OH218695   5.530   0.300   2.824  0.1773 -0.2080 -0.4000
 6230TIP3    H118696   5.537   0.208   2.798  1.4654 -0.2593  0.0582
 6230TIP3    H218697   5.534   0.349   2.742  0.4644 -0.5246 -0.5760
 6231TIP3   OH218698   0.108   0.491   0.761 -0.2290  0.2753 -0.0742
 6231TIP3    H118699   0.186   0.534   0.725  1.3630 -2.2981  0.0916
 6231TIP3    H218700   0.125   0.487   0.855 -0.4904 -0.4125 -0.0538
 6232TIP3   OH218701   3.617   3.776   4.223  0.0609 -0.3560 -0.0162
 6232TIP3    H118702   3.677   3.820   4.283 -1.0194 -0.4444  1.1717
 6232TIP3    H218703   3.530   3.810   4.247 -0.5088 -1.1703 -0.8512
 6233TIP3   OH218704   1.230   3.007   2.466  0.4114 -0.0092  0.2819
 6233TIP3    H118705   1.176   2.986   2.542 -0.1796  0.5146  0.0210
 6233TIP3    H218706   1.320   2.996   2.496  0.2370  1.3945  1.4488
 6234TIP3   OH218707   1.282   4.315   2.007 -0.1005 -0.3593  0.2358
 6234TIP3    H118708   1.272   4.346   1.917  1.1998 -1.8662 -0.4794
 6234TIP3    H218709   1.193   4.295   2.035 -0.5331  0.1952 -0.6874
 6235TIP3   OH218710   3.368   2.621   4.884  0.2566 -0.1283 -0.3804
 6235TIP3    H118711   3.398   2.615   4.974 -0.6160 -0.3462 -0.1000
 6235TIP3    H218712   3.346   2.532   4.859  1.9973 -0.3413 -1.3614
 6236TIP3   OH218713   4.362   3.622   1.222 -0.2368  0.3626 -0.9722
 6236TIP3    H118714   4.278   3.611   1.178 -1.7850 -0.9776  1.9738
 6236TIP3    H218715   4.339   3.665   1.305  1.8483 -0.6490  0.2084
 6237TIP3   OH218716   2.967   4.605   2.573  0.2963 -0.2862 -0.1138
 6237TIP3    H118717   3.027   4.658   2.625  0.4825 -0.7337  0.1239
 6237TIP3    H218718   2.887   4.658   2.569  1.1754  1.0343 -1.7417
 6238TIP3   OH218719   5.365   4.301   4.443  0.6143 -0.0549  0.0632
 6238TIP3    H118720   5.377   4.210   4.418  1.7623  0.5133 -1.7056
 6238TIP3    H218721   5.421   4.350   4.382 -0.2524  1.8568  0.7115
 6239TIP3   OH218722   1.899   5.418   3.189 -0.0686 -0.2141  1.0051
 6239TIP3    H118723   1.857   5.501   3.211 -1.1100 -0.8758  1.5734
 6239TIP3    H218724   1.828   5.354   3.187  0.8333 -1.2802  1.4986
 6240TIP3   OH218725   1.202   0.807   3.066  0.1054  0.4090 -0.5261
 6240TIP3    H118726   1.242   0.761   2.992 -2.5799  0.4587 -2.1371
 6240TIP3    H218727   1.153   0.879   3.026  0.1927  1.6878  1.5192
 6241TIP3   OH218728   0.280   3.164   1.126 -0.0654  0.3608 -0.6340
 6241TIP3    H118729   0.255   3.082   1.082  1.8600 -1.1615  0.9444
 6241TIP3    H218730   0.373   3.173   1.108  0.0601  1.4525  0.4526
 6242TIP3   OH218731   4.994   0.580   5.183 -0.0970  0.8410  0.1841
 6242TIP3    H118732   5.084   0.591   5.154 -0.2048  1.9525  0.1995
 6242TIP3    H218733   4.946   0.554   5.105  0.4984 -1.5294  0.5216
 6243TIP3   OH218734   3.211   0.207   0.102  0.1213  0.1214 -0.4699
 6243TIP3    H118735   3.180   0.268   0.169  1.1093  1.9154 -1.5568
 6243TIP3    H218736   3.132   0.165   0.070 -0.4728 -0.0217  1.0883
 6244TIP3   OH218737   6.049   5.677   0.904  0.2742  0.1201  0.3264
 6244TIP3    H118738   6.077   5.769   0.903  0.2213  0.1400 -0.9242
 6244TIP3    H218739   6.049   5.651   0.812 -2.1976 -0.3478  0.3693
 6245TIP3   OH218740   5.560   5.328   0.859 -0.2891 -0.0672 -0.1971
 6245TIP3    H118741   5.516   5.409   0.886 -0.7247  0.1239 -1.4182
 6245TIP3    H218742   5.641   5.326   0.910 -1.0212  0.3288  1.0055
 6246TIP3   OH218743   2.866   1.002   2.744 -0.0134 -0.2473 -0.6490
 6246TIP3    H118744   2.788   0.947   2.745 -0.2000 -0.1734  3.4273
 6246TIP3    H218745   2.939   0.940   2.736 -0.3332 -0.9452  1.3213
 6247TIP3   OH218746   0.156   2.724   2.047  0.1384 -0.2910  0.7982
 6247TIP3    H118747   0.230   2.695   2.101  0.4756  0.1210  0.5511
 6247TIP3    H218748   0.142   2.652   1.986  1.2439  0.2171 -0.0876
 6248TIP3   OH218749   1.811   1.606   3.605  0.1685 -0.2351 -0.1004
 6248TIP3    H118750   1.897   1.631   3.571 -0.4349  0.1795 -1.3607
 6248TIP3    H218751   1.757   1.683   3.593 -0.3280 -0.3943  0.9718
 6249TIP3   OH218752   1.408   4.405   3.170  0.0665  0.5100  0.6732
 6249TIP3    H118753   1.476   4.447   3.223 -0.4547  0.2967  1.5497
 6249TIP3    H218754   1.367   4.476   3.122  1.2274  0.5806 -0.2672
 6250TIP3   OH218755   2.439   4.310   1.766  0.3258 -0.3693  0.3212
 6250TIP3    H118756   2.462   4.378   1.702 -0.6108  0.1206  0.4871
 6250TIP3    H218757   2.356   4.275   1.735 -0.5671  0.4400  1.6854
 6251TIP3   OH218758   5.151   0.057   2.540  0.0314  0.2057 -0.1921
 6251TIP3    H118759   5.147   0.152   2.542  0.4016  0.2089  1.2275
 6251TIP3    H218760   5.244   0.036   2.550 -0.2347 -0.3128  1.4394
 6252TIP3   OH218761   0.321   5.393   0.070  0.7472 -0.0828 -0.1607
 6252TIP3    H118762   0.399   5.366   0.118  1.0461  2.2273  0.8131
 6252TIP3    H218763   0.352   5.408  -0.020  1.0030 -0.9678 -0.2211
 6253TIP3   OH218764   1.732   1.715   1.138 -0.2311  0.5107  0.2385
 6253TIP3    H118765   1.702   1.751   1.222 -1.6999  0.2283 -0.1315
 6253TIP3    H218766   1.656   1.724   1.081  0.8472  0.9761 -1.1667
 6254TIP3   OH218767   5.486   5.497   1.652 -0.6410 -0.6737  0.0917
 6254TIP3    H118768   5.446   5.580   1.678 -1.1219 -1.1239  0.8251
 6254TIP3    H218769   5.464   5.488   1.559  0.6383  0.6939 -0.3945
 6255TIP3   OH218770   2.512   4.728   1.877  0.1190 -0.3134  0.6768
 6255TIP3    H118771   2.577   4.659   1.888  0.1613 -0.2667  0.7162
 6255TIP3    H218772   2.529   4.763   1.789  0.1618 -0.2854  0.6966
 6256TIP3   OH218773   5.053   0.836   5.057  0.2180 -0.7093  0.0410
 6256TIP3    H118774   4.968   0.834   5.014 -0.0769 -0.5344  0.6135
 6256TIP3    H218775   5.112   0.872   4.990 -0.3992  0.3807  0.0496
 6257TIP3   OH218776   3.509   3.980   0.212 -0.3961  0.1700  0.2359
 6257TIP3    H118777   3.529   3.962   0.120  0.2296 -1.6329  0.6868
 6257TIP3    H218778   3.414   3.987   0.215 -0.5318 -1.2133 -0.3235
 6258TIP3   OH218779   3.314   0.350   4.510 -0.3339 -0.0857  0.8130
 6258TIP3    H118780   3.354   0.420   4.561  0.5364  0.6345 -0.7628
 6258TIP3    H218781   3.377   0.278   4.516  0.1525  0.2734  0.1421
 6259TIP3   OH218782   4.068   4.640   1.365 -0.0004 -0.1176 -0.8927
 6259TIP3    H118783   4.116   4.633   1.282 -0.9542  1.1368 -1.5993
 6259TIP3    H218784   4.013   4.561   1.368  0.9987 -0.8216 -0.7953
 6260TIP3   OH218785   2.376   0.484   4.333 -0.1179  0.1123  0.2769
 6260TIP3    H118786   2.446   0.424   4.359  0.3002  0.3300 -0.3185
 6260TIP3    H218787   2.319   0.431   4.277 -0.3324 -0.0156  0.6142
 6261TIP3   OH218788   3.181   1.854   0.066  0.1186 -0.0506  0.3504
 6261TIP3    H118789   3.109   1.866   0.005 -0.8557 -0.0397  1.4510
 6261TIP3    H218790   3.140   1.815   0.144  1.2811  0.0442  1.0402
 6262TIP3   OH218791   5.720   3.563   2.440  0.4403  0.3886  0.4982
 6262TIP3    H118792   5.802   3.514   2.439  1.2276  1.6540  0.1694
 6262TIP3    H218793   5.706   3.584   2.533  0.5442  0.2549  0.5449
 6263TIP3   OH218794   1.477   4.904   2.826  0.0334 -0.8055  0.0511
 6263TIP3    H118795   1.396   4.950   2.801 -1.3664 -3.1346  0.0342
 6263TIP3    H218796   1.479   4.826   2.771  1.2327 -1.8231  1.4487
 6264TIP3   OH218797   3.892   5.500   0.380  0.0460 -0.5921  0.0860
 6264TIP3    H118798   3.970   5.502   0.435  0.3811  0.1018 -0.3912
 6264TIP3    H218799   3.827   5.453   0.431 -0.5212  2.2535  2.2167
 6265TIP3   OH218800   5.343   1.257   2.151  0.8078 -0.4059  0.4446
 6265TIP3    H118801   5.322   1.250   2.244  0.2663  0.2181  0.3790
 6265TIP3    H218802   5.258   1.265   2.107  0.9979 -1.6802 -0.2148
 6266TIP3   OH218803   5.278   3.222   3.054  0.0870 -0.5115 -0.1422
 6266TIP3    H118804   5.206   3.264   3.101  0.1806 -1.2418  0.6638
 6266TIP3    H218805   5.243   3.207   2.966 -0.5583 -0.3674  0.0846
 6267TIP3   OH218806   1.214   2.519   2.360 -0.0414  0.0837 -0.1855
 6267TIP3    H118807   1.245   2.606   2.386  1.7980 -0.4106 -0.5437
 6267TIP3    H218808   1.216   2.468   2.440 -0.5096  0.2049 -0.0959
 6268TIP3   OH218809   4.537   2.887   0.431 -0.3925  0.0338 -0.2003
 6268TIP3    H118810   4.517   2.978   0.412  2.1268  0.3382 -1.8266
 6268TIP3    H218811   4.580   2.889   0.517 -0.1291  0.4129 -0.3418
 6269TIP3   OH218812   5.969   4.323   2.883  0.0814  0.2321 -0.5899
 6269TIP3    H118813   5.946   4.409   2.847  1.9929  1.0748  0.0586
 6269TIP3    H218814   5.931   4.323   2.971  0.9267  0.8381 -0.2172
 6270TIP3   OH218815   3.499   4.337   1.896 -0.2305  0.7108 -0.5793
 6270TIP3    H118816   3.487   4.431   1.883  0.9399  0.7834 -1.2866
 6270TIP3    H218817   3.571   4.331   1.959 -0.1564  0.2936 -0.7001
 6271TIP3   OH218818   5.287   1.431   4.390 -0.0809 -0.7162 -0.0411
 6271TIP3    H118819   5.235   1.470   4.461  1.7220  1.8946 -0.0145
 6271TIP3    H218820   5.257   1.476   4.311  0.6641 -0.7067 -0.3270
 6272TIP3   OH218821   2.994   0.515   2.002 -0.4711 -0.1475  0.0181
 6272TIP3    H118822   2.971   0.535   1.911 -2.8554 -0.2189  0.5280
 6272TIP3    H218823   2.913   0.531   2.051  0.4691 -1.0719  1.9865
 6273TIP3   OH218824   3.612   1.761   2.082  0.6296  0.2751 -0.1412
 6273TIP3    H118825   3.686   1.767   2.143  0.9524 -1.9168 -0.2630
 6273TIP3    H218826   3.641   1.699   2.015 -1.1463 -0.2767 -0.4398
 6274TIP3   OH218827   0.770   3.504   2.880 -0.1685 -0.1666 -0.3005
 6274TIP3    H118828   0.780   3.512   2.785 -1.9140  2.3234 -0.3833
 6274TIP3    H218829   0.713   3.427   2.891  0.5265 -0.8378 -1.1989
 6275TIP3   OH218830   5.474   3.269   4.366  0.2875 -0.3776 -0.7924
 6275TIP3    H118831   5.501   3.360   4.380 -0.0937 -0.3484 -0.1775
 6275TIP3    H218832   5.437   3.269   4.278 -3.0544  0.9464  0.4390
 6276TIP3   OH218833   4.987   0.015   1.777 -0.1939  0.7248 -0.1105
 6276TIP3    H118834   5.010  -0.032   1.696 -0.3503  1.3160 -0.5010
 6276TIP3    H218835   5.058   0.077   1.791  1.0478 -0.9528  1.5051
 6277TIP3   OH218836   0.493   3.670   0.077 -0.0807 -0.3451  0.1001
 6277TIP3    H118837   0.538   3.619   0.010 -1.0637 -0.8787 -0.1829
 6277TIP3    H218838   0.536   3.755   0.077 -0.7774  0.0706 -2.0267
 6278TIP3   OH218839   3.787   3.491   3.413  0.0514  0.3963 -0.0135
 6278TIP3    H118840   3.730   3.492   3.336 -0.0370  1.2501  0.0536
 6278TIP3    H218841   3.805   3.583   3.431  1.1715  0.1551  0.1857
 6279TIP3   OH218842   1.447   4.312   1.569 -0.4864  0.5059 -0.5282
 6279TIP3    H118843   1.457   4.255   1.493 -0.9088  0.1229 -0.3080
 6279TIP3    H218844   1.476   4.258   1.643  2.5698  1.7552 -0.6625
 6280TIP3   OH218845   5.495   3.855   3.600 -0.7496 -0.8889 -0.2607
 6280TIP3    H118846   5.422   3.794   3.598 -0.4038 -1.2793 -1.0091
 6280TIP3    H218847   5.504   3.887   3.510 -0.9986  0.3611  0.1316
 6281TIP3   OH218848   4.821   4.651   3.482  0.1628 -0.3616 -0.0068
 6281TIP3    H118849   4.770   4.642   3.562 -0.3368  0.4026 -0.2303
 6281TIP3    H218850   4.790   4.733   3.443 -0.7689 -1.5143 -1.7996
 6282TIP3   OH218851   0.732   5.112   2.595 -0.4168 -0.3446 -0.3938
 6282TIP3    H118852   0.649   5.065   2.605  0.2403 -1.3945  0.3954
 6282TIP3    H218853   0.775   5.068   2.521 -0.5534  0.2040 -0.8076
 6283TIP3   OH218854   3.368   1.030   1.240 -0.7352  0.1544  0.3138
 6283TIP3    H118855   3.441   1.092   1.232 -0.6047  0.0868  0.9349
 6283TIP3    H218856   3.365   1.008   1.333 -1.7662  0.4137  0.3516
 6284TIP3   OH218857   5.802   0.357   0.339  0.1510  0.3989 -0.0983
 6284TIP3    H118858   5.765   0.366   0.251 -1.0378  0.5299  0.3925
 6284TIP3    H218859   5.769   0.433   0.387 -0.5804 -0.5254  0.9089
 6285TIP3   OH218860   4.055   5.347   0.208 -0.4719 -0.1392  0.3626
 6285TIP3    H118861   4.098   5.275   0.255 -1.6284 -0.2206  1.3509
 6285TIP3    H218862   4.026   5.406   0.277  0.9792  1.6369 -0.4620
 6286TIP3   OH218863   2.375   2.047   3.516  0.2672 -0.8683  0.4442
 6286TIP3    H118864   2.329   2.101   3.580  0.1198 -0.7443  0.2356
 6286TIP3    H218865   2.315   1.975   3.498  0.8502 -1.6228  1.4289
 6287TIP3   OH218866   4.633   1.913   2.851 -0.2138  0.4149  0.7552
 6287TIP3    H118867   4.594   1.854   2.916 -0.1498  0.1521  0.5603
 6287TIP3    H218868   4.724   1.923   2.879 -0.0668 -0.0557  0.4645
 6288TIP3   OH218869   6.264   0.806   4.703 -0.3484  0.0488 -0.0596
 6288TIP3    H118870   6.206   0.880   4.723 -1.2014 -0.5854 -0.0879
 6288TIP3    H218871   6.350   0.833   4.733 -1.0472  0.2261  1.9256
 6289TIP3   OH218872   2.731   0.444   2.127  0.1742 -0.8004 -0.7716
 6289TIP3    H118873   2.712   0.537   2.123  0.8536 -0.7043 -3.0619
 6289TIP3    H218874   2.655   0.405   2.170 -1.0925  0.5714 -1.6831
 6290TIP3   OH218875   4.741   1.404   4.067  0.1338 -0.0026 -0.8112
 6290TIP3    H118876   4.659   1.396   4.018  0.1671  0.4748 -0.9513
 6290TIP3    H218877   4.772   1.493   4.047  0.6275 -0.1410 -0.6735
 6291TIP3   OH218878   1.273   1.287   4.971 -0.3140 -0.3788 -0.1317
 6291TIP3    H118879   1.223   1.314   5.048  1.3151 -0.0924  0.8513
 6291TIP3    H218880   1.281   1.366   4.918  0.1142 -0.1421  0.2869
 6292TIP3   OH218881   4.083   3.615   1.243  0.2998  0.0031  0.1034
 6292TIP3    H118882   4.000   3.579   1.274  0.6819  0.6099  1.9703
 6292TIP3    H218883   4.066   3.708   1.229 -0.1248 -0.3961 -2.6579
 6293TIP3   OH218884   4.955   4.641   4.295  0.8987  0.1653 -0.1461
 6293TIP3    H118885   4.991   4.619   4.381  1.7289  0.7837 -0.3199
 6293TIP3    H218886   4.916   4.728   4.307  0.6591  0.0792 -0.2973
 6294TIP3   OH218887   0.156   5.801   1.818 -0.6463 -0.3178  0.3166
 6294TIP3    H118888   0.165   5.720   1.766 -2.0043 -0.9715  1.0323
 6294TIP3    H218889   0.216   5.789   1.891  0.3957  0.0813 -0.4519
 6295TIP3   OH218890   3.712   5.821   2.692  0.0677 -0.3319  0.2560
 6295TIP3    H118891   3.785   5.851   2.639 -0.1907 -1.9144 -1.0626
 6295TIP3    H218892   3.730   5.728   2.708 -1.1984 -0.5263  0.6807
 6296TIP3   OH218893   1.675   4.113   3.708  0.5889  0.0431  0.6101
 6296TIP3    H118894   1.644   4.138   3.621  0.4895 -1.5241  0.1825
 6296TIP3    H218895   1.608   4.148   3.768 -0.0553 -0.0566 -0.0397
 6297TIP3   OH218896   1.126   4.398   1.279  0.1305 -0.3192  0.0434
 6297TIP3    H118897   1.086   4.373   1.362 -0.2077  1.0471  0.3149
 6297TIP3    H218898   1.116   4.493   1.275 -0.5948 -0.4278 -1.9405
 6298TIP3   OH218899   0.863   5.668   1.736 -0.5519 -0.4414  0.0812
 6298TIP3    H118900   0.780   5.715   1.732  0.6856  1.7492 -3.0598
 6298TIP3    H218901   0.909   5.708   1.810 -0.0985  2.4565 -1.6505
 6299TIP3   OH218902   5.468   4.650   3.509 -0.6815  0.2121 -0.1247
 6299TIP3    H118903   5.554   4.676   3.541 -0.8345  0.1082  0.3735
 6299TIP3    H218904   5.420   4.732   3.498 -1.1435  0.1783  1.3881
 6300TIP3   OH218905   2.876   0.717   2.846 -0.1771 -0.0305 -0.5902
 6300TIP3    H118906   2.954   0.690   2.894 -0.9149 -1.2897 -0.0477
 6300TIP3    H218907   2.816   0.750   2.914 -0.5426 -0.1325 -0.8571
 6301TIP3   OH218908   4.780   4.967   2.856 -0.5431  0.6569 -0.3330
 6301TIP3    H118909   4.815   5.056   2.848 -0.6322  0.7488  0.2858
 6301TIP3    H218910   4.768   4.939   2.765  0.6861  0.7874 -0.5500
 6302TIP3   OH218911   3.199   3.288   0.130  0.3396  0.3808 -0.2980
 6302TIP3    H118912   3.104   3.299   0.126  0.2875 -0.1811 -1.0608
 6302TIP3    H218913   3.215   3.208   0.078  1.3486  1.2654 -1.4047
 6303TIP3   OH218914   3.725   5.573   3.309  0.0137  0.0077 -0.0312
 6303TIP3    H118915   3.655   5.518   3.343  0.1839 -0.3089 -0.1865
 6303TIP3    H218916   3.698   5.595   3.220 -0.8665  1.5839  0.5915
 6304TIP3   OH218917   4.724   0.493   2.239 -0.6296 -0.2783  0.1488
 6304TIP3    H118918   4.695   0.497   2.148  0.9515  0.4154 -0.3793
 6304TIP3    H218919   4.687   0.571   2.280  0.3149  0.5411 -0.4847
 6305TIP3   OH218920   2.872   3.346   3.784 -0.4132 -0.1868 -0.3967
 6305TIP3    H118921   2.953   3.341   3.834 -0.6999  0.3967  0.1422
 6305TIP3    H218922   2.804   3.320   3.845 -1.2196  3.8591  0.7173
 6306TIP3   OH218923   2.805   1.328   1.760 -0.4646  0.2752  0.1330
 6306TIP3    H118924   2.748   1.277   1.702  0.0060  0.2507 -0.3110
 6306TIP3    H218925   2.884   1.345   1.708  0.6726 -1.1599  1.3098
 6307TIP3   OH218926   3.831   4.442   4.103 -0.0532 -0.9193  0.0017
 6307TIP3    H118927   3.815   4.362   4.152 -0.0079 -1.1211 -0.3134
 6307TIP3    H218928   3.913   4.426   4.057 -0.0731 -0.7142 -0.1075
 6308TIP3   OH218929   4.033   1.947   0.813  0.3215  0.2946 -0.1909
 6308TIP3    H118930   4.060   2.038   0.800 -1.5456  0.9563  0.2318
 6308TIP3    H218931   4.022   1.939   0.908  0.8991 -0.5273 -0.1793
 6309TIP3   OH218932   2.040   0.865   0.547  0.2078 -0.3208 -0.6178
 6309TIP3    H118933   2.132   0.859   0.524  0.3437  1.0693 -0.5141
 6309TIP3    H218934   2.026   0.791   0.607  0.5703 -2.1380 -2.6732
 6310TIP3   OH218935   5.858   3.778   0.717 -0.0714  0.2671  0.3033
 6310TIP3    H118936   5.891   3.730   0.793 -0.0935 -0.4070 -0.0991
 6310TIP3    H218937   5.936   3.819   0.679  0.1843 -0.5783 -0.1242
 6311TIP3   OH218938   1.350   1.710   4.284  0.3540 -0.3739 -0.7413
 6311TIP3    H118939   1.423   1.731   4.342  1.0397  0.0477 -1.7384
 6311TIP3    H218940   1.383   1.727   4.196 -0.2130 -2.2806 -1.3784
 6312TIP3   OH218941   0.753   0.856   2.448 -0.5706  0.1618  0.0951
 6312TIP3    H118942   0.817   0.876   2.516 -1.4010  0.9482  0.6736
 6312TIP3    H218943   0.669   0.857   2.493 -1.1765  1.0191 -0.9860
 6313TIP3   OH218944   0.163   3.335   4.326 -0.0720  0.5348 -0.1289
 6313TIP3    H118945   0.181   3.421   4.364 -0.9204  0.2519  0.9533
 6313TIP3    H218946   0.102   3.353   4.254 -1.3940  0.7249  0.9997
 6314TIP3   OH218947   0.392   5.521   3.332 -0.7163 -0.3441 -0.6488
 6314TIP3    H118948   0.466   5.562   3.378 -0.8257  1.3960 -1.9039
 6314TIP3    H218949   0.425   5.505   3.244 -1.9034  0.8421 -1.3546
 6315TIP3   OH218950   0.535   4.001   0.905 -0.0712 -0.1951  0.4333
 6315TIP3    H118951   0.555   3.970   0.993 -0.5780 -1.2495  0.1905
 6315TIP3    H218952   0.454   3.956   0.881 -0.0921  0.2908 -0.4726
 6316TIP3   OH218953   1.483   1.839   2.490  0.6589  0.3793  0.2265
 6316TIP3    H118954   1.429   1.762   2.475  1.2415 -0.1592  0.7956
 6316TIP3    H218955   1.465   1.863   2.580 -0.2596  1.5182 -0.2442
 6317TIP3   OH218956   0.566   5.961   4.757  0.4884 -0.0390  0.0201
 6317TIP3    H118957   0.646   5.990   4.802  0.1922  0.2490  0.3651
 6317TIP3    H218958   0.504   5.942   4.827 -0.6868  2.4297 -0.2545
 6318TIP3   OH218959   1.528   3.316   3.015  0.0425 -0.0152 -0.1414
 6318TIP3    H118960   1.545   3.393   2.962  1.6926  0.4616  1.0051
 6318TIP3    H218961   1.514   3.245   2.952 -2.9542  1.4095 -1.2468
 6319TIP3   OH218962   5.398   3.241   4.114 -0.3573 -0.2244 -0.5357
 6319TIP3    H118963   5.318   3.268   4.069 -0.7500 -1.7894 -0.8443
 6319TIP3    H218964   5.400   3.146   4.104  0.0542 -0.5475  1.9304
 6320TIP3   OH218965   0.972   2.427   1.898 -1.1572 -0.3198 -0.0760
 6320TIP3    H118966   1.046   2.438   1.838 -3.0479  0.3341 -2.4434
 6320TIP3    H218967   0.964   2.332   1.909 -0.7631 -0.4456 -0.8228
 6321TIP3   OH218968   4.626   3.317   4.965  0.2104  0.5069  0.2893
 6321TIP3    H118969   4.705   3.268   4.942  0.2235  0.8725 -0.4906
 6321TIP3    H218970   4.563   3.250   4.991  0.3317  0.0900 -0.4542
 6322TIP3   OH218971   1.334   5.593   0.057  0.2609 -0.2320  0.3802
 6322TIP3    H118972   1.376   5.528   0.113  2.2850  1.0251  0.3978
 6322TIP3    H218973   1.406   5.637   0.012 -1.1730  0.5298 -1.3046
 6323TIP3   OH218974   0.228   1.589   0.504  0.2930 -0.4992 -0.8921
 6323TIP3    H118975   0.252   1.680   0.484  0.2986  0.0345  1.2766
 6323TIP3    H218976   0.308   1.539   0.485  0.8720  0.2299 -0.4409
 6324TIP3   OH218977   1.206   1.262   2.285  0.0035 -0.4092 -0.2774
 6324TIP3    H118978   1.287   1.311   2.272 -0.4959  0.3232 -0.7298
 6324TIP3    H218979   1.231   1.171   2.273  0.9258 -0.2608  0.4391
 6325TIP3   OH218980   0.367   5.857   4.220  0.1730  0.0057 -0.3460
 6325TIP3    H118981   0.389   5.887   4.131 -0.2456 -0.8748 -0.7585
 6325TIP3    H218982   0.369   5.937   4.273 -1.1380  0.8360 -1.4638
 6326TIP3   OH218983   1.950   2.112   2.619  0.0933  0.5091  0.8310
 6326TIP3    H118984   2.014   2.168   2.663  0.6558 -1.1647  2.2917
 6326TIP3    H218985   1.963   2.025   2.659 -1.5020 -0.4087 -0.5082
 6327TIP3   OH218986   0.297   5.151   4.104  0.9199  0.0470 -0.2981
 6327TIP3    H118987   0.302   5.234   4.057  0.8834 -0.2943 -0.9219
 6327TIP3    H218988   0.214   5.156   4.152  1.6532  0.9978  0.9200
 6328TIP3   OH218989   3.682   3.617   2.945  0.0732  0.6719  0.0804
 6328TIP3    H118990   3.684   3.614   3.041 -2.2006  1.0933  0.1867
 6328TIP3    H218991   3.770   3.645   2.921  0.7847  0.2906  2.0225
 6329TIP3   OH218992   5.763   3.660   4.909  0.2402  0.4528  0.0934
 6329TIP3    H118993   5.833   3.725   4.914  0.8142 -0.1357 -0.0243
 6329TIP3    H218994   5.778   3.602   4.984  0.9675 -0.7050 -0.8949
 6330TIP3   OH218995   4.688   5.343   3.380  1.2076 -0.7170 -0.0084
 6330TIP3    H118996   4.742   5.296   3.444  0.4236 -2.8131 -0.8009
 6330TIP3    H218997   4.650   5.416   3.429  0.5194 -2.3330  1.9859
 6331TIP3   OH218998   5.434   4.075   4.342 -0.1670 -0.0664 -0.2903
 6331TIP3    H118999   5.519   4.062   4.382  0.4190  0.8374 -1.1894
 6331TIP3    H219000   5.425   4.003   4.280 -0.2426 -0.3906  0.0934
 6332TIP3   OH219001   2.847   2.361   1.588  0.6475 -0.5900  0.4548
 6332TIP3    H119002   2.767   2.329   1.547 -0.1531  2.1770 -0.3664
 6332TIP3    H219003   2.817   2.407   1.666  1.4289  0.3848  0.1975
 6333TIP3   OH219004   3.946   3.553   4.365  0.7643 -0.9225 -0.1231
 6333TIP3    H119005   3.953   3.631   4.421 -1.3906 -2.1230  2.0122
 6333TIP3    H219006   3.853   3.535   4.361  1.1722 -3.1112 -0.9705
 6334TIP3   OH219007   6.158   4.244   3.589  0.1582 -0.0444 -0.1143
 6334TIP3    H119008   6.102   4.236   3.511  0.1548 -0.8198 -0.0406
 6334TIP3    H219009   6.245   4.218   3.558 -0.0050 -1.1526  0.3228
 6335TIP3   OH219010   3.790   3.598   1.332 -0.1923  0.7417  0.2623
 6335TIP3    H119011   3.766   3.685   1.300 -1.3824  0.2814 -0.1187
 6335TIP3    H219012   3.737   3.585   1.410  0.8219  0.8027  0.9904
 6336TIP3   OH219013   5.766   1.001   3.089 -0.4199  0.2610  0.2060
 6336TIP3    H119014   5.839   0.954   3.130  0.1419  0.7925 -0.1778
 6336TIP3    H219015   5.713   0.932   3.050  0.2230 -0.0882 -0.0745
 6337TIP3   OH219016   3.661   2.085   4.546 -0.8189 -0.1635  0.0156
 6337TIP3    H119017   3.751   2.110   4.569 -0.2632 -1.4369 -0.7041
 6337TIP3    H219018   3.629   2.159   4.495  0.3718 -0.3321 -1.0264
 6338TIP3   OH219019   5.973   3.408   2.206 -0.6468  0.0016  0.0256
 6338TIP3    H119020   5.980   3.497   2.242 -0.8287  0.3886 -0.8824
 6338TIP3    H219021   6.002   3.351   2.278  2.2879  0.9417 -0.2697
 6339TIP3   OH219022   1.897   0.045   3.705 -0.0132 -0.0630  0.2722
 6339TIP3    H119023   1.920  -0.042   3.675  3.7080  0.3647  1.3779
 6339TIP3    H219024   1.914   0.102   3.630  2.3405  0.1779  0.9124
 6340TIP3   OH219025   1.344   4.673   1.401  0.3914 -0.2306 -0.4041
 6340TIP3    H119026   1.298   4.690   1.483  0.1461 -0.8518 -0.4089
 6340TIP3    H219027   1.409   4.743   1.395 -0.1205  0.2862 -0.0774
 6341TIP3   OH219028   3.287   4.301   3.397 -0.0912 -0.6509  0.1942
 6341TIP3    H119029   3.246   4.241   3.336  0.4657 -0.1981 -0.6572
 6341TIP3    H219030   3.228   4.305   3.472 -1.7389  0.2036 -1.0990
 6342TIP3   OH219031   4.521   1.951   2.605  0.1844 -0.2362 -0.2410
 6342TIP3    H119032   4.541   1.902   2.685  0.1041  1.7098  1.0424
 6342TIP3    H219033   4.550   2.040   2.624 -2.0694  0.8285 -1.4549
 6343TIP3   OH219034   5.832   0.861   0.978 -0.4575  0.0171  0.0358
 6343TIP3    H119035   5.915   0.876   1.024 -0.0452  0.3540 -0.7949
 6343TIP3    H219036   5.832   0.925   0.906 -0.7473 -0.9659 -0.8705
 6344TIP3   OH219037   5.137   5.307   3.470  0.3055 -0.0064  0.3594
 6344TIP3    H119038   5.170   5.217   3.481  1.6351  0.4061  0.0135
 6344TIP3    H219039   5.215   5.358   3.448 -0.6032  1.0453 -0.5428
 6345TIP3   OH219040   5.895   1.648   4.606  0.3822  0.0708  0.2260
 6345TIP3    H119041   5.844   1.643   4.687  1.4257  0.0783  0.8955
 6345TIP3    H219042   5.962   1.580   4.615  0.7015  0.2848 -0.4900
 6346TIP3   OH219043   2.926   5.575   4.558  0.2411 -0.3659 -0.3931
 6346TIP3    H119044   2.930   5.595   4.651  0.2311 -0.1762 -0.4322
 6346TIP3    H219045   2.841   5.531   4.546 -1.0048  1.9571 -0.7457
 6347TIP3   OH219046   3.505   5.707   3.802  0.2543 -0.0117  0.5034
 6347TIP3    H119047   3.561   5.692   3.878  0.0177 -0.1397  0.6527
 6347TIP3    H219048   3.496   5.802   3.797  0.4755  0.0089  0.4852
 6348TIP3   OH219049   2.843   0.897   1.941 -0.5291  0.1104 -1.1014
 6348TIP3    H119050   2.774   0.924   1.880 -1.3993 -0.6228 -0.4842
 6348TIP3    H219051   2.919   0.880   1.886 -0.9720  0.5202 -1.8592
 6349TIP3   OH219052   3.703   3.979   0.664  0.0787 -0.1343 -0.2973
 6349TIP3    H119053   3.697   3.980   0.568 -0.6297 -3.4173 -0.4054
 6349TIP3    H219054   3.793   3.952   0.682  0.1001  0.1075 -0.0331
 6350TIP3   OH219055   2.678   1.266   4.960  0.4562 -0.3209 -0.4747
 6350TIP3    H119056   2.654   1.247   4.869 -1.0075 -1.7284  0.1741
 6350TIP3    H219057   2.682   1.362   4.964  0.9084 -0.2375 -2.0914
 6351TIP3   OH219058   0.662   3.253   0.085 -0.0679  0.0639 -0.4051
 6351TIP3    H119059   0.679   3.186   0.151 -1.4947 -0.1093 -0.1974
 6351TIP3    H219060   0.664   3.336   0.134 -0.5129 -0.0154 -0.2472
 6352TIP3   OH219061   4.424   4.943   2.365 -0.1653 -0.3532  0.0557
 6352TIP3    H119062   4.452   5.033   2.383 -2.2801  0.8323 -2.0322
 6352TIP3    H219063   4.355   4.926   2.428  0.2105 -0.4927  0.4286
 6353TIP3   OH219064   1.752   2.672   3.411  0.3204 -0.2023 -0.1604
 6353TIP3    H119065   1.694   2.603   3.444  0.9846 -0.8101 -0.2209
 6353TIP3    H219066   1.812   2.626   3.352  0.0118  0.6417 -1.1481
 6354TIP3   OH219067   4.303   1.513   1.225  0.2917 -0.1453 -0.4948
 6354TIP3    H119068   4.233   1.499   1.290 -1.1134  0.2614 -1.8541
 6354TIP3    H219069   4.299   1.606   1.205  2.8517  0.4037  1.0853
 6355TIP3   OH219070   4.192   5.330   1.965  0.1929  0.2795  0.2239
 6355TIP3    H119071   4.166   5.399   2.026  0.0258 -0.8143  1.4400
 6355TIP3    H219072   4.152   5.251   2.001  3.1128 -1.0628  0.8046
 6356TIP3   OH219073   2.011   0.152   4.579  0.1999  0.6119 -0.4512
 6356TIP3    H119074   2.028   0.246   4.571 -1.5613  0.8547 -2.5543
 6356TIP3    H219075   1.953   0.132   4.505  0.8719 -2.2401 -0.3317
 6357TIP3   OH219076   0.350   4.409   2.723 -0.1192  0.6734 -0.1285
 6357TIP3    H119077   0.339   4.429   2.815  1.3681  0.8535  0.0373
 6357TIP3    H219078   0.320   4.318   2.714  0.5865  0.3416  0.7270
 6358TIP3   OH219079   0.370   1.080   2.562  0.4531 -0.2004  0.1574
 6358TIP3    H119080   0.342   1.163   2.599  1.0438  0.5976 -1.1294
 6358TIP3    H219081   0.336   1.080   2.473 -0.1372 -1.6652  0.3476
 6359TIP3   OH219082   0.127   1.923   0.248  0.1557  0.4949  0.0953
 6359TIP3    H119083   0.083   1.839   0.236 -0.0620  0.8076 -1.5727
 6359TIP3    H219084   0.066   1.974   0.302 -0.9748  0.4756 -1.0968
 6360TIP3   OH219085   1.697   2.968   2.832  0.3175 -0.2333  0.8168
 6360TIP3    H119086   1.729   2.972   2.922 -0.7281  1.5560  1.1624
 6360TIP3    H219087   1.744   3.038   2.787 -0.2353 -0.1421  0.3665
 6361TIP3   OH219088   4.036   4.283   3.181 -0.0159 -0.0207  0.0687
 6361TIP3    H119089   4.024   4.209   3.241 -0.2785  0.1927  0.2816
 6361TIP3    H219090   4.113   4.259   3.129  0.0148 -0.3581  0.2651
 6362TIP3   OH219091   0.365   4.837   3.251  0.1322  0.3610  0.6979
 6362TIP3    H119092   0.446   4.888   3.238  1.6129 -1.6912  1.2961
 6362TIP3    H219093   0.381   4.787   3.331 -2.2461  0.7194  1.4687
 6363TIP3   OH219094   1.288   0.264   0.765 -0.2454 -0.4335 -0.1013
 6363TIP3    H119095   1.326   0.284   0.679 -1.3167 -0.0772 -0.5149
 6363TIP3    H219096   1.362   0.239   0.819  0.6015  0.4178 -0.8233
 6364TIP3   OH219097   0.688   1.318   2.275 -0.5855 -0.2283 -0.4324
 6364TIP3    H119098   0.717   1.328   2.184 -1.2905 -2.6184 -0.9875
 6364TIP3    H219099   0.749   1.255   2.313 -0.2483  0.8090  0.8155
 6365TIP3   OH219100   0.223   1.011   2.300  0.4583 -0.8665  0.1350
 6365TIP3    H119101   0.287   0.945   2.325 -0.9346 -1.3303  2.7978
 6365TIP3    H219102   0.139   0.973   2.323 -0.3920  1.8561  2.0541
 6366TIP3   OH219103   5.937   5.231   4.138 -0.0932  0.0480 -0.0022
 6366TIP3    H119104   5.984   5.307   4.103  0.8959 -0.1809  0.8022
 6366TIP3    H219105   5.861   5.269   4.183  1.1188  0.6947  1.5863
 6367TIP3   OH219106   0.868   2.760   4.959 -0.0825 -0.4045 -0.2019
 6367TIP3    H119107   0.943   2.772   4.901 -1.1044  0.4600 -1.3876
 6367TIP3    H219108   0.882   2.674   4.998  2.4800  0.4532  1.0610
 6368TIP3   OH219109   1.206   0.292   2.172 -0.5893  0.5244  0.1640
 6368TIP3    H119110   1.208   0.198   2.154  0.7870  0.4828  0.4446
 6368TIP3    H219111   1.113   0.313   2.181 -1.0169 -0.5176 -1.4020
 6369TIP3   OH219112   5.186   2.290   4.217  0.7908  0.8349 -0.0577
 6369TIP3    H119113   5.117   2.287   4.151  0.3748  0.1009  0.3925
 6369TIP3    H219114   5.155   2.356   4.280 -0.2485 -0.5250  0.9152
 6370TIP3   OH219115   3.694   2.723   3.657  0.0548  0.0329  0.7357
 6370TIP3    H119116   3.663   2.647   3.707  1.8559 -0.0000  1.9317
 6370TIP3    H219117   3.615   2.764   3.624 -1.0773 -1.3814  1.5423
 6371TIP3   OH219118   4.031   0.120   2.097  0.0872  0.2759 -0.3536
 6371TIP3    H119119   4.035   0.192   2.033  0.1324 -0.4425 -1.1744
 6371TIP3    H219120   4.112   0.072   2.084 -0.2780 -0.3515 -0.3209
 6372TIP3   OH219121   1.443   3.087   2.064  0.7924 -0.0714  0.2246
 6372TIP3    H119122   1.430   3.172   2.107  0.9412  0.5764 -0.9582
 6372TIP3    H219123   1.355   3.049   2.058  0.7507 -0.0963  0.9379
 6373TIP3   OH219124   1.657   4.383   1.302 -0.1203  0.1395 -0.0960
 6373TIP3    H119125   1.695   4.363   1.217 -1.7865 -0.3041 -0.7906
 6373TIP3    H219126   1.621   4.299   1.333 -2.3106  0.8594 -0.4704
 6374TIP3   OH219127   6.166   5.355   4.733  0.2938 -0.4885  0.2004
 6374TIP3    H119128   6.082   5.322   4.766  1.6586 -2.5849  1.8592
 6374TIP3    H219129   6.150   5.448   4.716 -2.6116 -1.0218 -0.5129
 6375TIP3   OH219130   0.510   2.653   0.175 -0.1341 -0.2949  0.1522
 6375TIP3    H119131   0.459   2.732   0.190 -0.1506 -0.3367  0.3143
 6375TIP3    H219132   0.513   2.610   0.260  2.9770  1.3398  1.0029
 6376TIP3   OH219133   4.812   3.898   3.021 -0.1538  0.6048  0.1807
 6376TIP3    H119134   4.826   3.930   2.932 -0.8488  1.6075  0.4186
 6376TIP3    H219135   4.746   3.829   3.011  0.1566  0.3415 -0.1294
 6377TIP3   OH219136   5.115   0.982   3.317 -0.0853 -0.6747  0.4566
 6377TIP3    H119137   5.194   0.976   3.264 -1.3011 -1.9315 -1.3191
 6377TIP3    H219138   5.101   1.076   3.329 -0.0242 -0.3134 -1.9104
 6378TIP3   OH219139   3.436   2.869   0.625 -0.0251  0.2897  0.3436
 6378TIP3    H119140   3.462   2.942   0.681  0.9768  1.3316 -1.3762
 6378TIP3    H219141   3.519   2.837   0.587 -0.5272 -1.2477  0.4654
 6379TIP3   OH219142   0.454   1.946   0.794  0.3539 -0.3065 -0.0190
 6379TIP3    H119143   0.364   1.946   0.762  0.0365  0.7009  0.8260
 6379TIP3    H219144   0.494   1.870   0.752 -0.2321  0.4909 -2.1995
 6380TIP3   OH219145   0.447   4.896   2.414  0.2683  0.0588  0.3409
 6380TIP3    H119146   0.492   4.875   2.497  1.6902 -1.9346 -0.8462
 6380TIP3    H219147   0.511   4.872   2.346 -0.7586  1.8834 -1.3604
 6381TIP3   OH219148   0.952   5.527   2.275 -0.3328  0.0891 -0.1405
 6381TIP3    H119149   0.971   5.559   2.187 -0.6236 -2.9165 -1.4171
 6381TIP3    H219150   0.926   5.605   2.324 -0.1989  1.8567 -2.6955
 6382TIP3   OH219151   3.717   5.295   3.935  0.2841 -0.0693 -0.0935
 6382TIP3    H119152   3.734   5.372   3.881  0.0786  0.6844  0.8692
 6382TIP3    H219153   3.705   5.331   4.024  1.4460 -1.3356  0.6100
 6383TIP3   OH219154   1.831   4.462   0.690  0.6082 -0.3307 -0.4815
 6383TIP3    H119155   1.751   4.415   0.712  0.1193  0.7978  0.2611
 6383TIP3    H219156   1.902   4.409   0.727  0.0507 -0.3606  0.5743
 6384TIP3   OH219157   6.157   1.348   1.352  0.2121 -0.2158  0.0255
 6384TIP3    H119158   6.095   1.286   1.316 -0.9813  1.2324 -0.5156
 6384TIP3    H219159   6.239   1.298   1.361 -1.0286 -2.2112  0.9147
 6385TIP3   OH219160   5.897   3.072   2.639  0.0242  0.1479 -0.2041
 6385TIP3    H119161   5.894   3.132   2.714  2.7877  0.4049 -0.2113
 6385TIP3    H219162   5.981   3.089   2.598 -0.1021 -2.1662 -1.5808
 6386TIP3   OH219163   1.444   3.319   4.240 -0.4924 -0.0977 -0.1541
 6386TIP3    H119164   1.532   3.354   4.227  0.5906 -1.9453  1.5950
 6386TIP3    H219165   1.436   3.250   4.175 -0.9546  0.5083 -0.7601
 6387TIP3   OH219166   5.969   1.930   2.354 -0.3864  0.0828 -0.0060
 6387TIP3    H119167   5.910   1.856   2.341  0.7591 -0.9729  0.5258
 6387TIP3    H219168   6.052   1.901   2.316 -0.5413  2.1141 -2.1034
 6388TIP3   OH219169   3.885   1.590   3.620 -0.3797 -0.0314  0.5114
 6388TIP3    H119170   3.880   1.527   3.548  0.8329 -0.6436  0.9105
 6388TIP3    H219171   3.830   1.663   3.593 -0.2573 -0.4129 -0.8543
 6389TIP3   OH219172   2.145   2.171   4.890 -0.0401  0.0315  0.1594
 6389TIP3    H119173   2.134   2.254   4.845 -0.0360  1.4760  2.6424
 6389TIP3    H219174   2.102   2.183   4.975  2.6395 -1.3709  1.8552
 6390TIP3   OH219175   6.339  -0.021   4.154  0.6951  0.5717 -0.4234
 6390TIP3    H119176   6.248  -0.028   4.126  0.4956  1.3382 -0.0008
 6390TIP3    H219177   6.361   0.071   4.143  1.7929  0.1978 -1.5999
 6391TIP3   OH219178   4.186   0.634   0.680  0.0903 -0.0272 -0.6784
 6391TIP3    H119179   4.220   0.604   0.596 -0.7034 -0.2122 -0.9400
 6391TIP3    H219180   4.094   0.610   0.679  0.2635 -0.9116  0.6324
 6392TIP3   OH219181   6.006   4.852   3.901  0.2172 -0.3228  0.3335
 6392TIP3    H119182   6.074   4.919   3.908 -1.0353  0.8397  2.3085
 6392TIP3    H219183   5.978   4.855   3.810  2.6361 -0.6976 -0.4677
 6393TIP3   OH219184   1.034   1.764   4.643 -0.8619  0.1605  0.3746
 6393TIP3    H119185   1.042   1.804   4.730 -3.4816  0.7443  0.4205
 6393TIP3    H219186   0.942   1.739   4.637 -0.6245 -0.2975 -2.0635
 6394TIP3   OH219187   3.546   3.100   3.970  0.3108 -0.1188 -0.1428
 6394TIP3    H119188   3.571   3.101   4.063  0.7153 -3.2042 -0.0899
 6394TIP3    H219189   3.506   3.185   3.954  2.3398  1.4159  2.2421
 6395TIP3   OH219190   3.953   2.991   3.099 -0.3344  0.9381 -0.2115
 6395TIP3    H119191   4.004   3.044   3.159  0.6542  0.8271 -0.9215
 6395TIP3    H219192   4.008   2.984   3.021 -2.0857  2.1216 -1.6364
 6396TIP3   OH219193   0.200   4.136   2.699  0.1619  0.2668 -0.4645
 6396TIP3    H119194   0.219   4.046   2.671  0.9947 -0.2302  1.4884
 6396TIP3    H219195   0.153   4.175   2.626 -0.6100 -1.9066 -1.2081
 6397TIP3   OH219196   2.648   2.041   2.013 -0.1192  0.0063 -0.2136
 6397TIP3    H119197   2.561   2.060   2.048 -0.4493  2.4224 -2.0357
 6397TIP3    H219198   2.674   2.123   1.970  3.1951 -0.5368  0.4998
 6398TIP3   OH219199   4.383   5.244   3.526 -0.0556 -0.0047 -0.0254
 6398TIP3    H119200   4.438   5.176   3.489  0.8706  1.3072 -1.1737
 6398TIP3    H219201   4.434   5.280   3.599 -0.6387 -0.6737  0.7220
 6399TIP3   OH219202   4.492   3.520   2.568 -0.3545  0.0806  0.1978
 6399TIP3    H119203   4.495   3.468   2.488 -0.3735  1.1995 -0.5633
 6399TIP3    H219204   4.403   3.511   2.599 -1.0248  1.4016 -1.1769
 6400TIP3   OH219205   6.155   3.482   2.954  0.1680  0.4883 -0.0846
 6400TIP3    H119206   6.155   3.425   3.031 -2.2941 -0.8826 -0.9932
 6400TIP3    H219207   6.091   3.551   2.975 -1.0870 -0.3153 -1.1254
 6401TIP3   OH219208   1.100   4.904   1.437 -0.1252  0.4618  0.2134
 6401TIP3    H119209   1.176   4.961   1.427 -0.4361  1.3256  2.2048
 6401TIP3    H219210   1.115   4.859   1.520 -2.0080  1.0626  0.9292
 6402TIP3   OH219211   5.598   3.213   3.698  0.4390  0.0105 -0.2133
 6402TIP3    H119212   5.564   3.161   3.625 -1.7735  0.9238  0.0642
 6402TIP3    H219213   5.668   3.266   3.660 -0.4549  0.2370 -1.6195
 6403TIP3   OH219214   0.277   5.231   4.472  0.2556  0.1894  0.3926
 6403TIP3    H119215   0.260   5.282   4.551 -2.1698 -0.4474  0.3708
 6403TIP3    H219216   0.364   5.193   4.485 -0.3417 -0.4625  3.0792
 6404TIP3   OH219217   3.765   1.502   2.830  0.4599  0.3857 -0.8038
 6404TIP3    H119218   3.699   1.476   2.767 -1.1464 -0.9701  1.2936
 6404TIP3    H219219   3.835   1.438   2.819 -0.4372 -0.7144 -0.3168
 6405TIP3   OH219220   5.275   1.620   2.573  0.1551  0.2306 -0.3685
 6405TIP3    H119221   5.366   1.597   2.593 -0.0768 -0.4259 -0.0716
 6405TIP3    H219222   5.283   1.688   2.505  0.8448 -0.3477 -0.8823
 6406TIP3   OH219223   1.129   1.151   4.793 -0.1801  0.4830  0.0386
 6406TIP3    H119224   1.181   1.201   4.855 -0.4197  0.6758  0.0847
 6406TIP3    H219225   1.125   1.206   4.715  1.9950 -0.6913 -0.9808
 6407TIP3   OH219226   4.746   0.388   3.028  0.1140 -0.5425 -0.5602
 6407TIP3    H119227   4.711   0.300   3.037  1.3308 -0.9365  0.8807
 6407TIP3    H219228   4.785   0.407   3.114 -0.7128  1.6728 -0.5982
 6408TIP3   OH219229   4.207   4.942   1.266 -0.1608  0.2864 -0.1370
 6408TIP3    H119230   4.118   4.913   1.284 -0.5279  0.0847 -2.0904
 6408TIP3    H219231   4.199   5.037   1.252 -0.6142 -0.0840 -2.9969
 6409TIP3   OH219232   2.861   0.630   2.580 -0.4392  0.0489  0.3014
 6409TIP3    H119233   2.770   0.634   2.549 -0.3376  1.3211  0.1070
 6409TIP3    H219234   2.857   0.667   2.668  0.0703  1.3237 -0.1901
 6410TIP3   OH219235   0.094   1.002   1.638 -0.0821  0.0259  0.3663
 6410TIP3    H119236   0.157   0.931   1.627 -1.1114 -0.6726 -1.5494
 6410TIP3    H219237   0.134   1.059   1.703  1.8086 -1.1677  0.3468
 6411TIP3   OH219238   4.811   3.390   2.016  0.2075  0.2185 -0.1976
 6411TIP3    H119239   4.776   3.303   1.996 -0.3734  0.2273  0.7623
 6411TIP3    H219240   4.853   3.418   1.934  0.8608 -1.1810 -0.3651
 6412TIP3   OH219241   5.394   4.443   2.497 -0.2252  0.5271  0.2162
 6412TIP3    H119242   5.355   4.498   2.566 -1.6131 -0.1250 -0.0062
 6412TIP3    H219243   5.332   4.370   2.487  1.1874 -0.7015 -0.0110
 6413TIP3   OH219244   3.163   3.025   0.885  0.1970 -0.6676  0.4038
 6413TIP3    H119245   3.096   3.053   0.947  0.8970 -1.7209  1.6779
 6413TIP3    H219246   3.117   2.965   0.826 -0.7005  1.0927 -0.7621
 6414TIP3   OH219247   6.077   2.995   1.144  0.2840 -0.8400  0.0431
 6414TIP3    H119248   6.158   2.956   1.111  1.0869 -0.1191  1.0700
 6414TIP3    H219249   6.104   3.082   1.174 -0.9448 -0.4743  0.1236
 6415TIP3   OH219250   1.053   4.529   2.221  0.1295 -0.0667  0.4288
 6415TIP3    H119251   0.988   4.553   2.287  0.4957  1.5912  0.2464
 6415TIP3    H219252   1.137   4.536   2.266  0.5220  2.7211 -0.5430
 6416TIP3   OH219253   5.056   3.127   5.142 -0.1908 -0.1105 -0.2834
 6416TIP3    H119254   4.985   3.140   5.079 -0.3356 -0.7601 -0.2632
 6416TIP3    H219255   5.058   3.033   5.157  0.2966 -0.0362  0.1630
 6417TIP3   OH219256   2.272   1.009   3.986 -0.1530 -0.6087 -0.1788
 6417TIP3    H119257   2.263   1.030   4.079  0.5284 -0.1789 -0.2068
 6417TIP3    H219258   2.280   1.094   3.942  0.3555 -0.8374 -0.5380
 6418TIP3   OH219259   3.840   1.161   0.953 -0.0864  0.2904 -0.4804
 6418TIP3    H119260   3.794   1.082   0.925  1.2091 -0.3653 -0.8531
 6418TIP3    H219261   3.836   1.159   1.048 -0.4967  0.0569 -0.5006
 6419TIP3   OH219262   1.882   3.436   1.656  0.2820  0.1826  0.6832
 6419TIP3    H119263   1.880   3.346   1.624  1.4739  0.4514 -0.1840
 6419TIP3    H219264   1.941   3.433   1.731  2.2264  0.6378 -0.7503
 6420TIP3   OH219265   3.055   3.285   4.002 -0.1600 -0.7090 -0.2967
 6420TIP3    H119266   3.062   3.195   4.034  0.4839 -0.0036  1.7112
 6420TIP3    H219267   2.996   3.328   4.063  0.9693  0.6680 -0.1127
 6421TIP3   OH219268   0.031   5.058   1.011  0.1460 -0.1929  0.2502
 6421TIP3    H119269  -0.042   5.030   1.067  1.6452 -0.2363  2.2953
 6421TIP3    H219270   0.099   4.992   1.026  1.3017  0.8757 -0.1483
 6422TIP3   OH219271   3.862   1.317   2.234  0.2054 -0.3526 -0.4264
 6422TIP3    H119272   3.792   1.293   2.295  0.3618  1.1751  0.4218
 6422TIP3    H219273   3.820   1.316   2.148 -0.5772 -0.5509 -0.0537
 6423TIP3   OH219274   4.602   0.625   2.980 -0.0709 -0.1532 -0.1446
 6423TIP3    H119275   4.663   0.552   2.989 -1.5956 -1.5621 -0.8454
 6423TIP3    H219276   4.625   0.665   2.896  0.8763  0.3397  0.3198
 6424TIP3   OH219277   4.953   1.086   2.653 -0.3092 -0.2152  0.2651
 6424TIP3    H119278   4.982   1.012   2.600 -0.3301  0.0046 -0.0506
 6424TIP3    H219279   4.924   1.152   2.590  1.4666  0.8188  0.4860
 6425TIP3   OH219280   1.390   2.080   0.501 -0.3056  0.3951  0.0143
 6425TIP3    H119281   1.458   2.040   0.445 -1.5869 -2.2831  0.1955
 6425TIP3    H219282   1.319   2.101   0.441 -0.1075  1.3473  0.1008
 6426TIP3   OH219283   4.556   3.877   1.267 -0.1282 -0.2980 -0.9826
 6426TIP3    H119284   4.517   3.949   1.217 -0.4587 -0.7721 -1.4169
 6426TIP3    H219285   4.580   3.813   1.201  0.2584 -0.5466 -0.6037
 6427TIP3   OH219286   1.179   1.223   4.113 -0.2718  0.1787 -0.4041
 6427TIP3    H119287   1.262   1.175   4.112 -0.5809 -0.3545 -0.7998
 6427TIP3    H219288   1.166   1.250   4.022 -0.5100  0.3021 -0.3331
 6428TIP3   OH219289   1.958   5.444   2.374  0.1300  0.0358  0.2713
 6428TIP3    H119290   2.005   5.455   2.291  0.1665  0.1759  0.3094
 6428TIP3    H219291   1.894   5.516   2.374 -0.5543 -0.5563 -0.0949
 6429TIP3   OH219292   4.866   3.425   3.783  0.2708 -0.2686  0.3202
 6429TIP3    H119293   4.931   3.486   3.816 -0.4882  0.0248  1.3170
 6429TIP3    H219294   4.784   3.451   3.826 -0.0837 -1.9224  0.7035
 6430TIP3   OH219295   4.999   1.412   1.037 -0.3500 -0.1556 -0.0309
 6430TIP3    H119296   4.943   1.334   1.037  2.1105 -2.0316  0.8254
 6430TIP3    H219297   4.958   1.470   1.101 -1.6242 -1.2002  0.1434
 6431TIP3   OH219298   1.348   3.344   1.803 -0.3753 -0.3047  0.0493
 6431TIP3    H119299   1.424   3.288   1.789 -0.5000 -0.6745  0.7958
 6431TIP3    H219300   1.383   3.422   1.845 -0.0228  0.7398 -2.0774
 6432TIP3   OH219301   3.818   4.111   2.567 -0.0957  0.0161  0.1173
 6432TIP3    H119302   3.877   4.092   2.495  0.0355  1.7280 -0.2680
 6432TIP3    H219303   3.832   4.039   2.629  1.2484 -0.4258 -0.6590
 6433TIP3   OH219304   1.241   1.583   4.517  0.3409  0.5179 -0.0221
 6433TIP3    H119305   1.171   1.644   4.539 -0.2441 -0.1530 -0.0059
 6433TIP3    H219306   1.285   1.623   4.442 -0.4288  0.6610 -0.3991
 6434TIP3   OH219307   0.678   5.592   4.777 -0.0968  0.2938 -0.3147
 6434TIP3    H119308   0.606   5.569   4.718 -0.2099 -0.7249  0.2130
 6434TIP3    H219309   0.662   5.541   4.856  0.9383  0.4343  0.0010
 6435TIP3   OH219310   5.682   2.897   0.838 -0.2230 -0.1351  0.0157
 6435TIP3    H119311   5.631   2.926   0.914 -1.0073 -2.1522  0.3233
 6435TIP3    H219312   5.773   2.904   0.865 -0.4663  0.1527  0.7673
 6436TIP3   OH219313   3.707   2.263   4.860 -0.0047 -0.4397 -0.1925
 6436TIP3    H119314   3.775   2.287   4.923 -1.3477 -0.6474  1.4072
 6436TIP3    H219315   3.683   2.346   4.819 -0.4281  0.0267  0.9589
 6437TIP3   OH219316   0.872   5.810   0.925  0.5387 -0.0673 -0.4293
 6437TIP3    H119317   0.932   5.752   0.972 -1.3327 -0.2504  1.9573
 6437TIP3    H219318   0.793   5.757   0.911 -0.7102  1.4234  0.5733
 6438TIP3   OH219319   3.504   4.362   0.848 -0.2198 -0.1047 -0.6990
 6438TIP3    H119320   3.437   4.327   0.906 -0.0690  2.0037  0.8694
 6438TIP3    H219321   3.462   4.434   0.801  0.8524  1.1637  0.2103
 6439TIP3   OH219322   5.795   1.211   2.006  0.1485  0.3962 -0.0361
 6439TIP3    H119323   5.833   1.131   1.969  1.2703  0.5815  0.6731
 6439TIP3    H219324   5.724   1.181   2.062  0.9339 -0.1528  0.6757
 6440TIP3   OH219325   6.334   2.710   4.455  0.0600  0.3332  0.0136
 6440TIP3    H119326   6.312   2.768   4.382  2.0633  1.1453  0.0111
 6440TIP3    H219327   6.364   2.629   4.413 -2.6375 -0.7962  0.0181
 6441TIP3   OH219328   2.876   5.730   4.850 -0.5394  0.0018  0.3368
 6441TIP3    H119329   2.820   5.688   4.916  0.5307 -0.2049  1.1344
 6441TIP3    H219330   2.831   5.812   4.829 -1.2175 -0.2340  0.8424
 6442TIP3   OH219331   5.762   5.039   2.312 -0.0009 -0.5114 -0.1136
 6442TIP3    H119332   5.771   5.129   2.346 -0.5744 -0.8931  1.1042
 6442TIP3    H219333   5.823   5.035   2.238  1.0267  0.4790  0.6426
 6443TIP3   OH219334   4.694   2.305   1.468  0.1346 -0.3460  0.4550
 6443TIP3    H119335   4.665   2.233   1.412  0.4397 -0.5488  0.5546
 6443TIP3    H219336   4.743   2.362   1.409 -1.0679  0.3759  0.1249
 6444TIP3   OH219337   3.837   4.909   2.080  0.5825 -0.5235  0.2161
 6444TIP3    H119338   3.788   4.990   2.072 -1.4312 -1.3492  2.7118
 6444TIP3    H219339   3.779   4.842   2.044  0.4961 -1.3423  1.8166
 6445TIP3   OH219340   0.393   3.964   3.632 -0.4909  0.0707  0.2583
 6445TIP3    H119341   0.368   3.956   3.724 -0.9244  0.7150  0.2059
 6445TIP3    H219342   0.396   4.059   3.616  2.6155  0.0948  0.4277
 6446TIP3   OH219343   0.885   5.589   2.974 -0.2923 -0.2909 -0.1433
 6446TIP3    H119344   0.791   5.601   2.988 -0.1651 -0.1546  0.6433
 6446TIP3    H219345   0.900   5.619   2.885 -0.9237  0.1019 -0.1228
 6447TIP3   OH219346   3.657  -0.015   3.584 -0.0820  0.2804  0.0031
 6447TIP3    H119347   3.706  -0.006   3.665 -3.0730 -1.9422  2.2912
 6447TIP3    H219348   3.577   0.035   3.598 -0.3304  0.5385 -1.9709
 6448TIP3   OH219349   2.277   4.648   4.082 -0.1324 -0.4186  0.4297
 6448TIP3    H119350   2.212   4.580   4.068 -0.9009  0.5075 -0.7117
 6448TIP3    H219351   2.305   4.637   4.173 -0.3689 -2.1183  0.3171
 6449TIP3   OH219352   5.383   2.557   5.013 -0.4359 -0.2735  0.2715
 6449TIP3    H119353   5.435   2.590   5.087 -1.9063  0.9513  0.8174
 6449TIP3    H219354   5.447   2.513   4.957  1.7063  3.1928 -0.3300
 6450TIP3   OH219355   1.396   1.321   0.653 -0.1382  0.2546  0.4305
 6450TIP3    H119356   1.414   1.227   0.651 -0.1315  0.1985  2.1851
 6450TIP3    H219357   1.319   1.332   0.598 -0.3407 -0.8268  0.4826
 6451TIP3   OH219358   3.168   3.458   1.476  0.2263  0.0361 -0.0289
 6451TIP3    H119359   3.143   3.375   1.437  1.5651  0.2969 -1.5169
 6451TIP3    H219360   3.237   3.436   1.539  1.2060  0.0888 -1.0594
 6452TIP3   OH219361   2.164   0.529   2.318 -0.5571  0.5163  0.2200
 6452TIP3    H119362   2.169   0.592   2.390  0.8407 -0.4057  0.9896
 6452TIP3    H219363   2.124   0.578   2.246 -1.0103  1.7826  1.2844
 6453TIP3   OH219364   0.974   1.732   3.166  0.4121 -0.2884  0.2833
 6453TIP3    H119365   1.037   1.699   3.231  0.8592  1.1171  0.5911
 6453TIP3    H219366   1.010   1.704   3.082  2.4503  1.8948  0.3008
 6454TIP3   OH219367   2.212   2.170   2.253  0.5941  0.1165  0.1976
 6454TIP3    H119368   2.120   2.168   2.280  0.5519 -2.9029  0.1852
 6454TIP3    H219369   2.250   2.090   2.291  2.5741 -0.0461 -1.8855
 6455TIP3   OH219370   0.961   1.960   1.106 -0.4625 -0.4672  0.0796
 6455TIP3    H119371   1.004   2.023   1.048  1.1525 -1.1317  0.5021
 6455TIP3    H219372   0.903   1.910   1.049  2.7075 -2.6149 -1.5606
 6456TIP3   OH219373   5.324   4.842   4.037  0.4742 -0.4510  0.3869
 6456TIP3    H119374   5.304   4.929   4.071  0.9585  0.0327 -0.5142
 6456TIP3    H219375   5.370   4.798   4.108  1.1222  0.3928  0.5045
 6457TIP3   OH219376   1.447   5.605   2.551 -0.1181  0.2103  0.1764
 6457TIP3    H119377   1.401   5.537   2.599 -2.5024  1.4757 -0.1749
 6457TIP3    H219378   1.466   5.672   2.617  2.0630 -0.6109  0.4849
 6458TIP3   OH219379   1.649   2.019   5.046 -0.1714 -0.1254  0.3231
 6458TIP3    H119380   1.743   2.017   5.029 -0.3304 -0.3748 -0.5730
 6458TIP3    H219381   1.639   1.976   5.131  0.4563 -0.7476  0.0945
 6459TIP3   OH219382   1.808   4.939   3.662  0.1114  1.0623  1.0527
 6459TIP3    H119383   1.753   5.017   3.667  1.0887  2.0219 -1.6547
 6459TIP3    H219384   1.895   4.971   3.636  0.9476 -0.7848  1.3356
 6460TIP3   OH219385   5.135   0.883   3.600 -0.1427  0.2173 -0.2673
 6460TIP3    H119386   5.115   0.908   3.510  1.0456  1.3969 -0.2348
 6460TIP3    H219387   5.136   0.966   3.648  0.5539 -0.2577  0.5632
 6461TIP3   OH219388   3.146   0.188   4.316 -0.1077 -0.1948 -0.4106
 6461TIP3    H119389   3.178   0.118   4.258  0.8026  0.2026 -0.3874
 6461TIP3    H219390   3.224   0.234   4.345 -0.6023  0.0202  0.6398
 6462TIP3   OH219391   1.056   4.220   3.120  0.5131  0.3132  0.3745
 6462TIP3    H119392   0.982   4.230   3.059  0.2103 -2.0413  0.2651
 6462TIP3    H219393   1.084   4.129   3.108  1.8646  0.4559  2.1838
 6463TIP3   OH219394   6.242   4.875   3.567  0.2632 -0.1671 -0.1012
 6463TIP3    H119395   6.329   4.877   3.527  0.3044  1.7502 -0.0263
 6463TIP3    H219396   6.259   4.852   3.659  0.6800 -0.0875 -0.1559
 6464TIP3   OH219397   5.204   2.966   3.337 -0.2915 -0.2811 -0.5500
 6464TIP3    H119398   5.137   2.906   3.371  1.7756 -2.0605  0.7255
 6464TIP3    H219399   5.203   3.039   3.398 -0.8328 -0.4559 -0.3388
 6465TIP3   OH219400   2.029   1.848   2.352  0.3138  0.2723  0.0199
 6465TIP3    H119401   1.938   1.876   2.347  0.5244  1.1385  0.8307
 6465TIP3    H219402   2.042   1.822   2.443  0.5978 -0.8700 -0.3314
 6466TIP3   OH219403   2.161   1.963   1.886  0.0647 -0.2895 -0.5944
 6466TIP3    H119404   2.093   2.016   1.927 -0.2283 -0.0593 -1.3619
 6466TIP3    H219405   2.118   1.880   1.865  0.3877 -0.6471  0.1528
 6467TIP3   OH219406   2.197   2.712   1.814  0.1451  0.3814 -0.2978
 6467TIP3    H119407   2.108   2.729   1.784  0.2819  1.6013 -0.0561
 6467TIP3    H219408   2.245   2.792   1.792  0.9521  0.1174  0.4650
 6468TIP3   OH219409   1.359   5.638   1.846  0.3485 -0.4205 -0.3005
 6468TIP3    H119410   1.427   5.607   1.905 -0.3027  0.6905  1.0845
 6468TIP3    H219411   1.290   5.671   1.903 -0.7469 -0.2072 -1.6778
 6469TIP3   OH219412   4.643   0.452   3.379 -0.0650  0.2603  0.1176
 6469TIP3    H119413   4.720   0.426   3.329  0.3872 -1.2587  1.5118
 6469TIP3    H219414   4.572   0.397   3.344  0.1038 -0.3115  0.6513
 6470TIP3   OH219415   5.371   4.232   1.446  0.1300 -0.3241  0.4387
 6470TIP3    H119416   5.400   4.322   1.459  1.9471 -0.9290  0.7416
 6470TIP3    H219417   5.387   4.214   1.354 -0.7664 -0.1769  0.2417
 6471TIP3   OH219418   5.224   3.749   3.595 -0.1176  0.0315 -0.0300
 6471TIP3    H119419   5.140   3.771   3.636  0.8556  2.6230  0.7512
 6471TIP3    H219420   5.199   3.707   3.513 -2.3272  3.1884 -1.1959
 6472TIP3   OH219421   4.396   2.812   4.387 -0.9931  0.6249 -0.2524
 6472TIP3    H119422   4.363   2.902   4.384 -0.3442  1.0280  2.6337
 6472TIP3    H219423   4.407   2.793   4.480  0.3732 -1.9184 -0.8481
 6473TIP3   OH219424   6.082   5.810   2.515  0.4636  0.2932  0.0110
 6473TIP3    H119425   6.117   5.769   2.435  2.6984  3.7201 -0.9676
 6473TIP3    H219426   6.141   5.781   2.584  1.0019  0.4843 -0.3569
 6474TIP3   OH219427   4.182   2.107   4.427 -0.3274  0.2786 -0.6165
 6474TIP3    H119428   4.105   2.099   4.483  0.4771  3.2991  1.1021
 6474TIP3    H219429   4.255   2.078   4.482 -0.0556 -2.4046 -2.1766
 6475TIP3   OH219430   5.495   0.343   0.493 -0.0415  0.0062 -0.2467
 6475TIP3    H119431   5.551   0.306   0.425 -1.0810 -1.3425 -0.3991
 6475TIP3    H219432   5.406   0.332   0.461 -0.5139  0.1850  0.9302
 6476TIP3   OH219433   5.497   5.421   3.017 -0.4401 -0.3961  0.3781
 6476TIP3    H119434   5.546   5.452   2.941 -0.0731  1.7619  1.4129
 6476TIP3    H219435   5.560   5.372   3.069 -0.1657 -0.1930  0.2371
 6477TIP3   OH219436   5.401   2.444   2.272 -0.4930 -0.0586  0.1190
 6477TIP3    H119437   5.325   2.411   2.320 -1.3596  0.1893 -1.0203
 6477TIP3    H219438   5.367   2.521   2.225  0.8129  0.8874  0.6570
 6478TIP3   OH219439   0.446   4.190   2.524 -0.1385 -0.3227  0.7388
 6478TIP3    H119440   0.536   4.222   2.533 -0.1549 -0.5698  1.9462
 6478TIP3    H219441   0.430   4.141   2.604 -1.2664 -0.5004  0.4195
 6479TIP3   OH219442   3.462   3.343   4.016 -0.3288 -0.0344 -0.0765
 6479TIP3    H119443   3.509   3.410   4.066 -0.2943  1.0473 -1.4798
 6479TIP3    H219444   3.407   3.394   3.955 -1.4592 -1.2874 -0.1488
 6480TIP3   OH219445   5.131   5.453   0.963 -0.0978  0.0716  0.3197
 6480TIP3    H119446   5.075   5.376   0.966  0.1672 -0.1685 -0.6642
 6480TIP3    H219447   5.125   5.485   0.873 -0.8700  1.7157  0.9085
 6481TIP3   OH219448   0.174   3.860   3.270  0.3128 -0.6042  0.0763
 6481TIP3    H119449   0.257   3.861   3.319 -1.1021 -0.3329  2.6502
 6481TIP3    H219450   0.183   3.786   3.210  3.6455  1.3216 -2.1812
 6482TIP3   OH219451   2.898   1.230   4.110  0.0381 -0.1887  0.0711
 6482TIP3    H119452   2.966   1.170   4.080  0.2124 -0.4467  0.9754
 6482TIP3    H219453   2.942   1.315   4.115 -0.6986  0.5274 -3.2191
 6483TIP3   OH219454   0.995   5.461   0.180  0.3040 -0.8459 -0.8896
 6483TIP3    H119455   1.054   5.442   0.253 -0.8426  0.3173  0.3880
 6483TIP3    H219456   0.986   5.556   0.179  0.3680 -0.8125 -2.6503
 6484TIP3   OH219457   3.459   4.641   1.828  0.0626  0.3713 -0.4318
 6484TIP3    H119458   3.406   4.626   1.750 -2.0847  1.1584  0.7766
 6484TIP3    H219459   3.402   4.617   1.901  1.4001  1.1979  0.9629
 6485TIP3   OH219460   3.310   1.627   4.789 -0.4278  0.2184 -0.4126
 6485TIP3    H119461   3.364   1.549   4.778 -0.3532  0.1339  0.4705
 6485TIP3    H219462   3.225   1.593   4.818 -1.2640  0.2852 -2.6019
 6486TIP3   OH219463   1.347   4.805   3.249 -0.1121 -0.0347 -0.1211
 6486TIP3    H119464   1.335   4.899   3.263  0.8551  0.0705  0.0568
 6486TIP3    H219465   1.381   4.773   3.332 -0.6383 -0.5852 -0.1123
 6487TIP3   OH219466   3.209   4.967   3.540  0.8119  0.0269  0.2555
 6487TIP3    H119467   3.222   4.910   3.464 -0.7361  1.2926 -1.0672
 6487TIP3    H219468   3.239   5.053   3.510  0.0870  0.5634  1.0168
 6488TIP3   OH219469   0.190   1.604   4.644  0.8062  0.2266  0.4840
 6488TIP3    H119470   0.122   1.540   4.665  0.0257  0.9257  0.1131
 6488TIP3    H219471   0.176   1.675   4.706 -0.2917  1.4261 -1.0747
 6489TIP3   OH219472   0.215   1.189   0.419 -0.0398 -0.0796  0.6011
 6489TIP3    H119473   0.158   1.256   0.455 -2.5755 -1.0894 -1.2597
 6489TIP3    H219474   0.165   1.108   0.425  1.0982 -0.9967 -1.2457
 6490TIP3   OH219475   3.626   1.631   1.470  0.1064  0.5421  0.0077
 6490TIP3    H119476   3.677   1.551   1.457 -0.3502  0.4967 -1.8214
 6490TIP3    H219477   3.551   1.603   1.522  0.1897 -0.1261 -0.2223
 6491TIP3   OH219478   1.494   1.135   3.970 -0.1699 -0.1699 -0.9980
 6491TIP3    H119479   1.487   1.157   3.877  0.6159 -0.4038 -1.1272
 6491TIP3    H219480   1.481   1.040   3.973 -0.4892 -0.1211 -0.8322
 6492TIP3   OH219481   3.988   1.812   1.404  0.2371 -0.2966 -0.0267
 6492TIP3    H119482   4.003   1.717   1.400  1.8754 -0.0322 -0.9663
 6492TIP3    H219483   4.068   1.850   1.369  0.4978  1.5151  2.3493
 6493TIP3   OH219484   2.728   3.464   0.665  0.2754 -0.2785 -0.2491
 6493TIP3    H119485   2.776   3.530   0.715 -0.5607 -0.5141  0.9066
 6493TIP3    H219486   2.795   3.419   0.614  1.0984  0.2870  0.3107
 6494TIP3   OH219487   0.553   1.043   1.034  0.2907  0.2442  0.0841
 6494TIP3    H119488   0.474   1.039   0.980  0.3674 -0.4408  0.0203
 6494TIP3    H219489   0.611   0.976   0.998 -0.0543 -0.9573  1.6169
 6495TIP3   OH219490   0.075   1.115   3.580  0.0624 -0.3651  0.3833
 6495TIP3    H119491   0.106   1.204   3.596  1.3208 -0.7507  0.2197
 6495TIP3    H219492   0.129   1.061   3.638 -1.8807 -0.8903  1.8342
 6496TIP3   OH219493   5.179   4.250   2.357  0.2451  0.4008  0.1937
 6496TIP3    H119494   5.154   4.163   2.326  3.1584 -0.1029 -1.0033
 6496TIP3    H219495   5.100   4.282   2.401 -1.9513 -1.5503 -1.9750
 6497TIP3   OH219496   6.188   3.673   5.042 -0.1709 -0.4785 -0.4842
 6497TIP3    H119497   6.268   3.723   5.026 -0.4658  0.0351 -0.3503
 6497TIP3    H219498   6.210   3.584   5.015  0.1140 -0.1248 -1.4648
 6498TIP3   OH219499   1.816   4.195   3.116  0.3943 -0.5324  0.0148
 6498TIP3    H119500   1.814   4.291   3.121 -0.2646 -0.6107  1.8161
 6498TIP3    H219501   1.728   4.168   3.143 -0.0274 -1.6223 -2.2539
 6499TIP3   OH219502   0.231   1.752   2.267  0.0623  0.2947 -0.2386
 6499TIP3    H119503   0.139   1.766   2.290 -0.7413 -1.3274 -2.1044
 6499TIP3    H219504   0.267   1.701   2.339 -1.1386 -0.9132 -0.4639
 6500TIP3   OH219505   2.729   1.414   2.179  0.2213  0.2431  0.0863
 6500TIP3    H119506   2.713   1.352   2.107  0.0548 -1.4064  1.4652
 6500TIP3    H219507   2.692   1.497   2.148  1.0091 -0.1587 -2.0843
 6501TIP3   OH219508   3.700   2.013   2.028  0.0553 -0.2491 -0.2399
 6501TIP3    H119509   3.783   1.972   2.054  0.0180  0.6058  1.3123
 6501TIP3    H219510   3.636   1.943   2.031  0.5406 -0.7144 -0.5581
 6502TIP3   OH219511   5.644   3.410   0.842  0.6982  0.0775 -0.8934
 6502TIP3    H119512   5.705   3.477   0.811  0.5618 -0.6321 -2.8526
 6502TIP3    H219513   5.656   3.337   0.781 -0.0979 -1.1851  0.3864
 6503TIP3   OH219514   1.915   1.993   5.060  0.2851 -0.0525  0.5206
 6503TIP3    H119515   1.955   1.929   5.119  0.7062  0.9081  1.2967
 6503TIP3    H219516   1.980   2.063   5.053 -0.6430  0.8359  0.6095
 6504TIP3   OH219517   3.924   1.283   2.760 -0.8255  0.6714 -0.4341
 6504TIP3    H119518   3.894   1.192   2.756 -2.4945  1.1596  0.2167
 6504TIP3    H219519   3.985   1.285   2.834 -1.8603  0.3465  0.4512
 6505TIP3   OH219520   4.883   3.237   1.715  0.6955 -0.8557 -0.0005
 6505TIP3    H119521   4.789   3.218   1.715  0.2642  1.0463  0.7767
 6505TIP3    H219522   4.924   3.155   1.740 -0.7789 -1.6243  0.0418
 6506TIP3   OH219523   5.048   4.802   0.818  0.3237  0.3668  0.1220
 6506TIP3    H119524   5.105   4.769   0.749  1.5503 -0.6376  1.5248
 6506TIP3    H219525   4.997   4.872   0.777  2.0430  0.8027 -1.4033
 6507TIP3   OH219526   3.983   0.630   4.085  0.5720 -0.0666 -0.4877
 6507TIP3    H119527   3.900   0.597   4.119  1.3110 -1.2263  0.2481
 6507TIP3    H219528   3.964   0.651   3.994 -0.5958 -0.0759 -0.2615
 6508TIP3   OH219529   4.751   2.441   1.714  0.5720  0.2905  0.5293
 6508TIP3    H119530   4.735   2.389   1.635 -1.2300  1.9212 -0.2752
 6508TIP3    H219531   4.692   2.402   1.779  1.7957 -0.8274  1.0076
 6509TIP3   OH219532   4.936   1.438   4.835  0.0358  0.1317  0.1371
 6509TIP3    H119533   4.883   1.509   4.871 -0.1168 -0.8598  1.9906
 6509TIP3    H219534   4.872   1.368   4.817  0.3204  0.0671 -0.6463
 6510TIP3   OH219535   3.130   4.802   2.964 -0.1342 -0.3308  0.2402
 6510TIP3    H119536   3.194   4.833   3.028 -0.1699 -0.9348  0.5783
 6510TIP3    H219537   3.123   4.708   2.981 -0.6177 -0.3853 -0.2342
 6511TIP3   OH219538   2.076   2.740   4.781 -0.1518  0.4738  0.0516
 6511TIP3    H119539   2.152   2.790   4.753  1.1837 -1.8493 -0.7307
 6511TIP3    H219540   2.067   2.671   4.716 -1.3637 -0.8252  1.5149
 6512TIP3   OH219541   2.430   2.113   1.625 -0.4258  0.5584 -0.1235
 6512TIP3    H119542   2.408   2.030   1.666  1.2517 -0.0229 -0.3536
 6512TIP3    H219543   2.417   2.178   1.694  0.8336 -0.2202  0.8832
 6513TIP3   OH219544   5.401   1.942   4.553 -0.1011  0.5205 -0.4408
 6513TIP3    H119545   5.341   1.941   4.628  1.2108  0.2508  0.6335
 6513TIP3    H219546   5.488   1.946   4.591  0.5689  2.1640 -1.9837
 6514TIP3   OH219547   3.051   4.230   3.801  0.4002  0.3794  0.6729
 6514TIP3    H119548   2.986   4.169   3.838  0.4750 -0.0813  0.0468
 6514TIP3    H219549   3.009   4.316   3.810 -0.9676 -0.0478 -1.0720
 6515TIP3   OH219550   0.381   1.188   2.034 -0.1704 -0.3549 -0.3237
 6515TIP3    H119551   0.354   1.265   2.084 -0.2673 -1.8767  2.0877
 6515TIP3    H219552   0.300   1.145   2.009 -0.1410 -1.3992  1.2298
 6516TIP3   OH219553   6.118   0.967   2.485 -0.1724 -0.1619 -0.2247
 6516TIP3    H119554   6.031   1.006   2.496 -0.3413 -0.6615  0.2800
 6516TIP3    H219555   6.122   0.899   2.553 -0.8883 -2.8272 -2.6289
 6517TIP3   OH219556   3.264   2.974   0.429  0.0532 -0.0593 -0.0329
 6517TIP3    H119557   3.316   2.946   0.504 -1.4773  0.7266  1.3830
 6517TIP3    H219558   3.329   3.002   0.364  1.4118 -0.8694  0.9281
 6518TIP3   OH219559   5.075   4.474   0.192  0.4087  0.4806  0.2029
 6518TIP3    H119560   5.123   4.413   0.247 -0.3397 -1.1545 -0.8759
 6518TIP3    H219561   4.983   4.465   0.219  0.0946  0.0087 -0.9472
 6519TIP3   OH219562   5.422   2.858   1.466  0.2677 -0.5938 -0.5869
 6519TIP3    H119563   5.501   2.912   1.466 -0.0764 -0.0670 -1.4878
 6519TIP3    H219564   5.415   2.827   1.375 -0.8534 -0.1793 -0.6492
 6520TIP3   OH219565   3.445   3.795   2.564  0.2869  0.1368  0.6027
 6520TIP3    H119566   3.384   3.732   2.603 -0.1117  0.9766  1.3752
 6520TIP3    H219567   3.454   3.863   2.630  1.8178  0.1999  0.3689
 6521TIP3   OH219568   6.288   4.737   0.475  0.2354 -0.1788  0.1102
 6521TIP3    H119569   6.194   4.722   0.467  0.3929 -1.3465  0.2481
 6521TIP3    H219570   6.304   4.816   0.424 -0.4938 -1.1750 -1.7801
 6522TIP3   OH219571   3.271   5.421   1.699  0.7698 -0.4478 -0.2329
 6522TIP3    H119572   3.218   5.489   1.657  0.5477 -1.5692 -1.8859
 6522TIP3    H219573   3.293   5.456   1.785  0.1843  1.4531 -0.8224
 6523TIP3   OH219574   0.820   0.499   3.698  0.5063  0.1900  0.0419
 6523TIP3    H119575   0.912   0.522   3.711  0.6250  1.1280 -2.0148
 6523TIP3    H219576   0.823   0.433   3.629 -0.3636  0.3518 -0.1529
 6524TIP3   OH219577   0.279   1.496   5.154 -0.5076  0.2693 -0.6494
 6524TIP3    H119578   0.273   1.470   5.062 -2.1710  0.2465 -0.5643
 6524TIP3    H219579   0.280   1.413   5.203 -3.1588  0.2213 -0.5164
 6525TIP3   OH219580   1.660   5.768   1.327  0.0491  0.8598  0.2348
 6525TIP3    H119581   1.714   5.819   1.387 -0.9667  1.9015  0.3069
 6525TIP3    H219582   1.711   5.689   1.309  1.4259  1.6486  0.5557
 6526TIP3   OH219583   5.449   1.759   2.950  0.3014  0.0506  0.3675
 6526TIP3    H119584   5.476   1.770   3.041 -0.0213 -0.2595  0.5053
 6526TIP3    H219585   5.512   1.810   2.899  0.4837  0.2229  0.7647
 6527TIP3   OH219586   0.415   4.718   1.165 -0.5166 -0.1732 -0.0125
 6527TIP3    H119587   0.383   4.628   1.167  0.2600 -0.5175 -1.6027
 6527TIP3    H219588   0.507   4.711   1.190 -0.7021  0.3391  0.8814
 6528TIP3   OH219589   1.536   2.267   3.387 -0.0567  0.2325  0.5221
 6528TIP3    H119590   1.579   2.289   3.470 -1.1326  0.4224  1.0488
 6528TIP3    H219591   1.501   2.179   3.400  0.4686 -0.0587 -0.0228
 6529TIP3   OH219592   2.038   0.004   0.500 -0.2169 -0.2634 -0.6829
 6529TIP3    H119593   2.079   0.022   0.416  1.1241  0.6765  0.1429
 6529TIP3    H219594   1.996   0.086   0.525  2.0933  0.5080  0.9976
 6530TIP3   OH219595   0.697   3.096   3.502  0.1291  0.2458  0.5368
 6530TIP3    H119596   0.701   3.003   3.481 -1.5382  0.1629  0.4482
 6530TIP3    H219597   0.762   3.137   3.444 -0.0350 -0.7034 -0.3439
 6531TIP3   OH219598   0.113   3.395   4.607 -0.0296 -0.3203  0.0580
 6531TIP3    H119599   0.054   3.325   4.578 -2.1442  0.6961  1.5755
 6531TIP3    H219600   0.114   3.457   4.534 -1.4343 -0.0540  0.2239
 6532TIP3   OH219601   2.090   4.209   0.217  0.0475  0.1045 -0.1358
 6532TIP3    H119602   2.040   4.266   0.159 -1.6654 -1.6032 -0.4304
 6532TIP3    H219603   2.066   4.238   0.305 -0.2367  0.2878 -0.2730
 6533TIP3   OH219604   1.239   1.296   2.783 -0.0323  0.4885  0.1355
 6533TIP3    H119605   1.297   1.251   2.722  1.2870  2.5071 -0.1954
 6533TIP3    H219606   1.241   1.242   2.863  1.1588 -0.2260 -0.3509
 6534TIP3   OH219607   4.110   0.102   4.386 -0.3084  0.3331 -0.4941
 6534TIP3    H119608   4.060   0.037   4.436 -0.5643 -0.6643 -1.9565
 6534TIP3    H219609   4.198   0.063   4.378 -0.0455  0.8558 -0.1341
 6535TIP3   OH219610   4.887   1.226   0.504 -0.5327 -0.0230 -0.4925
 6535TIP3    H119611   4.800   1.260   0.486 -0.3321  0.6958 -0.1282
 6535TIP3    H219612   4.928   1.292   0.559  0.8766  0.4992 -2.0809
 6536TIP3   OH219613   1.306   4.459   4.032 -0.0175  0.9024 -0.3413
 6536TIP3    H119614   1.385   4.495   4.072 -0.3708  0.0212  1.2024
 6536TIP3    H219615   1.234   4.511   4.069 -0.6130 -1.6638  2.5030
 6537TIP3   OH219616   1.962   0.639   1.200 -0.9383 -0.2926 -0.7344
 6537TIP3    H119617   1.869   0.621   1.185 -1.1227  0.3583 -0.4185
 6537TIP3    H219618   1.981   0.596   1.284 -1.0619 -0.0841 -0.5976
 6538TIP3   OH219619   3.975   1.201   1.711  0.1533 -0.7667 -0.1694
 6538TIP3    H119620   3.912   1.170   1.776 -1.1305 -0.3027 -1.1495
 6538TIP3    H219621   4.060   1.196   1.756 -0.7984  0.7683  2.0019
 6539TIP3   OH219622   6.232   3.684   1.604 -0.4242 -0.0464  0.1006
 6539TIP3    H119623   6.220   3.608   1.661  0.4594 -0.7477 -0.6185
 6539TIP3    H219624   6.324   3.709   1.617  0.0581 -0.7816 -1.6589
 6540TIP3   OH219625   5.332   5.038   0.635 -0.1036  0.3130 -0.6751
 6540TIP3    H119626   5.317   5.075   0.723 -0.3247  2.1369 -1.4286
 6540TIP3    H219627   5.263   5.076   0.581  0.5561 -0.0850 -1.8371
 6541TIP3   OH219628   0.796   1.343   0.037  0.5059  0.5283 -0.4743
 6541TIP3    H119629   0.888   1.347   0.012 -0.0981  0.4843 -2.9807
 6541TIP3    H219630   0.768   1.255   0.013 -0.5831  1.1001 -1.3839
 6542TIP3   OH219631   1.765   3.361   0.888 -0.3232 -0.6290 -0.4049
 6542TIP3    H119632   1.744   3.369   0.982 -0.3471  2.8255 -0.5562
 6542TIP3    H219633   1.860   3.361   0.885 -0.3112  0.2561 -0.3762
 6543TIP3   OH219634   2.935   2.638   3.598 -0.5427  0.3201  0.2974
 6543TIP3    H119635   2.940   2.734   3.607 -0.3762  0.2732  0.7652
 6543TIP3    H219636   2.849   2.623   3.558 -0.4172  0.6830 -0.1210
 6544TIP3   OH219637   5.288   0.447   4.352 -0.2487  0.7182 -0.0030
 6544TIP3    H119638   5.295   0.444   4.447  0.8978  1.6648 -0.0468
 6544TIP3    H219639   5.207   0.399   4.333 -1.0919  1.4741  1.5153
 6545TIP3   OH219640   2.418   5.392   1.593 -0.2509  0.5522 -0.4246
 6545TIP3    H119641   2.474   5.460   1.556  0.5910  0.8227  1.2218
 6545TIP3    H219642   2.432   5.399   1.688 -0.9762 -1.2034 -0.1457
 6546TIP3   OH219643   5.333   0.959   4.580  0.4085 -0.2527 -0.5744
 6546TIP3    H119644   5.302   1.000   4.499 -2.3182 -1.9483 -0.4722
 6546TIP3    H219645   5.298   1.015   4.650  2.3177  0.9034 -0.4460
 6547TIP3   OH219646   4.230   0.149   3.538 -0.2300 -0.0959 -0.0547
 6547TIP3    H119647   4.142   0.155   3.575 -0.5367  0.3204 -0.8224
 6547TIP3    H219648   4.269   0.234   3.555 -1.2224  1.0185 -2.6882
 6548TIP3   OH219649   2.605   2.039   5.202  0.5333 -0.0710 -0.1930
 6548TIP3    H119650   2.683   2.082   5.166  0.0571 -0.4467 -1.7370
 6548TIP3    H219651   2.540   2.045   5.132 -0.5282 -0.5977  0.7202
 6549TIP3   OH219652   5.975   4.729   4.775 -0.4595  0.9187  0.2223
 6549TIP3    H119653   6.045   4.776   4.730 -0.2972 -0.9269 -1.6344
 6549TIP3    H219654   5.913   4.797   4.801  0.7692  2.3368 -0.4307
 6550TIP3   OH219655   5.894   4.947   1.285  0.2470 -0.3447  0.4379
 6550TIP3    H119656   5.930   4.884   1.347  1.6029  2.4502  2.7182
 6550TIP3    H219657   5.812   4.977   1.327  1.7998  2.4962  1.7456
 6551TIP3   OH219658   0.352   3.495   1.711 -0.2735 -0.0734 -0.1399
 6551TIP3    H119659   0.426   3.491   1.650  0.2415  0.6347  0.4118
 6551TIP3    H219660   0.280   3.452   1.665 -0.0903  1.0118 -1.5007
 6552TIP3   OH219661   3.710   3.105   1.012 -0.0180 -0.0816 -0.1306
 6552TIP3    H119662   3.688   3.021   1.052  0.6437 -0.7292 -1.1007
 6552TIP3    H219663   3.679   3.170   1.076  0.1871 -1.0542  1.0070
 6553TIP3   OH219664   5.199   0.055   3.046  0.1408 -0.4166 -0.6639
 6553TIP3    H119665   5.106   0.052   3.020  0.4749  0.2383 -2.0234
 6553TIP3    H219666   5.197   0.048   3.141 -1.3214 -0.2272 -0.6499
 6554TIP3   OH219667   0.493   3.536   4.404 -0.4879 -0.4854 -0.3637
 6554TIP3    H119668   0.507   3.463   4.466 -1.0963 -0.9370 -0.7402
 6554TIP3    H219669   0.579   3.576   4.394 -0.5279  0.1443  1.4465
 6555TIP3   OH219670   3.977   4.579   1.953 -0.2735  0.1889  0.5651
 6555TIP3    H119671   4.064   4.619   1.964  0.1080  0.2035 -1.8702
 6555TIP3    H219672   3.953   4.549   2.040  2.2037  0.1715  1.3201
 6556TIP3   OH219673   0.918   2.006   1.376 -0.0844 -0.1843  0.4753
 6556TIP3    H119674   0.854   1.935   1.368 -0.7905  0.5643 -0.9760
 6556TIP3    H219675   0.963   2.008   1.291  1.2127 -0.0840  1.1521
 6557TIP3   OH219676   3.880   5.377   2.903  0.3503 -0.0400  0.1391
 6557TIP3    H119677   3.960   5.378   2.851  0.5708 -1.5408  0.4174
 6557TIP3    H219678   3.901   5.324   2.980 -0.7239  0.0641  0.5274
 6558TIP3   OH219679   6.168   3.297   3.173  0.1668 -0.2005  0.2859
 6558TIP3    H119680   6.225   3.226   3.142  0.8904 -0.0690  1.2518
 6558TIP3    H219681   6.091   3.253   3.208  1.0434 -0.6306  1.8000
 6559TIP3   OH219682   2.288   4.064   3.264 -0.6018  0.1711 -0.3153
 6559TIP3    H119683   2.197   4.033   3.273 -0.5957 -0.5262 -2.2846
 6559TIP3    H219684   2.295   4.094   3.173  1.7827 -2.0539 -0.9809
 6560TIP3   OH219685   0.350   0.564   3.871 -0.0605 -0.4862  0.1842
 6560TIP3    H119686   0.425   0.506   3.857  0.9981  0.5843  1.1582
 6560TIP3    H219687   0.293   0.514   3.930 -1.0576 -2.0446 -1.9795
 6561TIP3   OH219688   1.847   1.343   3.651 -0.2688 -0.1672 -0.5541
 6561TIP3    H119689   1.860   1.299   3.567  1.2991 -0.2984 -0.2796
 6561TIP3    H219690   1.832   1.435   3.628  1.9351  0.1542 -0.9769
 6562TIP3   OH219691   4.359   4.474   1.529 -0.4051 -0.5887  0.0159
 6562TIP3    H119692   4.422   4.492   1.598  0.6895  0.3252 -1.1759
 6562TIP3    H219693   4.274   4.479   1.573  0.1907  1.1782  1.0872
 6563TIP3   OH219694   5.131   5.548   5.067 -0.2295  0.1247  0.4543
 6563TIP3    H119695   5.135   5.584   4.978  1.0938  0.9306  0.8320
 6563TIP3    H219696   5.208   5.492   5.074 -0.6783 -0.4564  0.8901
 6564TIP3   OH219697   2.923   4.411   3.338 -0.8631 -0.1461 -0.3721
 6564TIP3    H119698   2.942   4.497   3.303  0.4913 -0.2839 -0.0343
 6564TIP3    H219699   2.869   4.368   3.271 -0.4983  0.5124 -1.0860
 6565TIP3   OH219700   2.483   2.516   2.506 -0.7230  0.2610  0.0677
 6565TIP3    H119701   2.464   2.558   2.422 -1.4774 -0.6372 -0.2358
 6565TIP3    H219702   2.467   2.423   2.490 -1.7105  0.1682  1.4266
 6566TIP3   OH219703   2.125   0.849   4.882  0.1669 -0.5419  0.1784
 6566TIP3    H119704   2.159   0.825   4.968  0.6992  0.7928  0.3625
 6566TIP3    H219705   2.135   0.944   4.877 -0.8652 -0.4570 -0.9309
 6567TIP3   OH219706   1.854   0.788   3.061 -0.6651  0.3665 -0.0020
 6567TIP3    H119707   1.774   0.805   3.011  0.2345  0.8315 -1.3471
 6567TIP3    H219708   1.834   0.711   3.113 -2.7597  1.8006  1.4487
 6568TIP3   OH219709   4.465   4.707   3.754 -0.1112  0.5373  0.4856
 6568TIP3    H119710   4.560   4.701   3.763  0.0729  0.2369 -1.2798
 6568TIP3    H219711   4.431   4.635   3.807  0.6897  0.2358  0.6003
 6569TIP3   OH219712   5.541   2.180   3.201 -0.5784  0.8457  0.1195
 6569TIP3    H119713   5.534   2.100   3.252  2.5427 -0.2859 -0.9889
 6569TIP3    H219714   5.493   2.246   3.252 -1.7295 -1.2829  1.9505
 6570TIP3   OH219715   5.832   4.074   3.573  0.0320  0.6162 -0.7976
 6570TIP3    H119716   5.848   4.165   3.548 -2.0635  0.8460 -1.5029
 6570TIP3    H219717   5.888   4.060   3.648  0.5263  2.4569 -0.7667
 6571TIP3   OH219718   1.584   4.579   1.692 -0.2282 -0.4142  0.1723
 6571TIP3    H119719   1.604   4.511   1.627  2.2304  0.1005  0.2822
 6571TIP3    H219720   1.651   4.569   1.759 -0.1036  1.7750  0.4586
 6572TIP3   OH219721   5.127   0.322   2.520 -0.7625 -0.5508 -0.0332
 6572TIP3    H119722   5.167   0.381   2.583  0.8359  0.2033 -1.6450
 6572TIP3    H219723   5.056   0.373   2.482 -0.4080 -0.2352 -0.2839
 6573TIP3   OH219724   5.583   0.621   4.111 -0.2392  1.1131 -0.1946
 6573TIP3    H119725   5.595   0.566   4.189 -0.9750  0.5451 -0.4770
 6573TIP3    H219726   5.492   0.649   4.115 -0.3186  0.9742 -0.9200
 6574TIP3   OH219727   5.477   2.349   4.835 -0.0904  0.1466  0.5238
 6574TIP3    H119728   5.469   2.334   4.740 -0.5430  0.8286  0.4428
 6574TIP3    H219729   5.569   2.372   4.848  0.0332 -0.1984  0.2898
 6575TIP3   OH219730   5.870   2.545   0.724 -0.0266 -0.0470 -0.1607
 6575TIP3    H119731   5.915   2.571   0.805  2.2871 -0.4697 -1.2192
 6575TIP3    H219732   5.864   2.626   0.673 -0.8783  0.0832  0.1213
 6576TIP3   OH219733   3.033   5.171   0.208  0.7224  0.2692 -0.5845
 6576TIP3    H119734   3.065   5.255   0.239  2.8282 -0.8264  0.4881
 6576TIP3    H219735   3.052   5.170   0.114  1.6726  0.5975 -0.4004
 6577TIP3   OH219736   5.342   3.723   0.991 -0.5091  0.5589 -0.1370
 6577TIP3    H119737   5.250   3.747   1.000 -0.2162  1.5387  0.3731
 6577TIP3    H219738   5.390   3.806   0.999  0.3965  0.1258 -0.8426
 6578TIP3   OH219739   5.438   5.309   4.740 -0.4912  0.3922  0.3943
 6578TIP3    H119740   5.410   5.227   4.780 -2.6382  2.2699  3.1708
 6578TIP3    H219741   5.369   5.329   4.676  0.7615 -0.5536 -1.3308
 6579TIP3   OH219742   1.175   5.083   2.845 -0.2159  0.3426 -0.2386
 6579TIP3    H119743   1.186   5.113   2.935 -0.9574  0.3775 -0.1584
 6579TIP3    H219744   1.138   5.158   2.799  0.3539  0.3934 -0.6228
 6580TIP3   OH219745   3.380   5.184   2.734  0.1218 -0.0853  0.5284
 6580TIP3    H119746   3.373   5.088   2.733 -0.2659 -0.0604 -0.3657
 6580TIP3    H219747   3.472   5.202   2.719  0.1325 -0.3158  0.3110
 6581TIP3   OH219748   3.839   5.830   1.959  0.2414 -0.2540 -0.1938
 6581TIP3    H119749   3.855   5.775   2.036 -0.0224 -0.8919 -0.5929
 6581TIP3    H219750   3.909   5.895   1.962  0.5919 -0.6418  0.2470
 6582TIP3   OH219751   0.014   3.072   0.065 -0.1043 -0.1952 -0.4181
 6582TIP3    H119752   0.070   3.001   0.097 -1.9785 -0.2059  3.4117
 6582TIP3    H219753  -0.071   3.030   0.049 -0.7124  0.8240  0.0344
 6583TIP3   OH219754   2.832   2.640   4.916 -0.1249  0.6708  0.6286
 6583TIP3    H119755   2.815   2.705   4.849 -1.2281 -0.8839 -0.6805
 6583TIP3    H219756   2.863   2.691   4.992  1.8190  2.4083 -1.2128
 6584TIP3   OH219757   5.564   3.524   4.482 -0.5477 -0.4152 -0.0809
 6584TIP3    H119758   5.604   3.590   4.538 -1.2141  0.4407 -0.5872
 6584TIP3    H219759   5.592   3.547   4.393 -0.6334 -0.9259 -0.2452
 6585TIP3   OH219760   0.068   5.293   0.094 -0.0700  0.8568  0.2249
 6585TIP3    H119761   0.160   5.313   0.079 -0.2940  1.2613 -0.7113
 6585TIP3    H219762   0.062   5.274   0.187  0.9876  0.6612  0.2645
 6586TIP3   OH219763  -0.035   4.599   1.587  0.1240 -0.3026 -0.4605
 6586TIP3    H119764   0.013   4.610   1.669 -0.9411 -2.7049  0.5798
 6586TIP3    H219765   0.026   4.627   1.519  1.4378  0.6900  1.0611
 6587TIP3   OH219766   1.613   1.336   0.435 -0.2543 -0.0498 -0.0877
 6587TIP3    H119767   1.599   1.424   0.469 -2.2365 -0.4286  0.1765
 6587TIP3    H219768   1.639   1.284   0.511  0.3856  0.1793 -0.1445
 6588TIP3   OH219769   2.442   2.498   1.603 -0.1903  0.1082 -0.2198
 6588TIP3    H119770   2.482   2.555   1.537 -0.7744  1.0696  0.2304
 6588TIP3    H219771   2.404   2.426   1.553  0.2408  0.3027 -0.8400
 6589TIP3   OH219772   0.317   5.267   2.877 -0.0601  0.0464  0.0949
 6589TIP3    H119773   0.332   5.240   2.968 -1.6166 -1.0673  0.0455
 6589TIP3    H219774   0.392   5.233   2.829  0.8182  0.7113  0.9610
 6590TIP3   OH219775   2.369   1.618   4.016 -0.1095 -0.8833 -0.4527
 6590TIP3    H119776   2.403   1.553   4.077 -0.4831 -2.1738 -1.5881
 6590TIP3    H219777   2.365   1.699   4.068  0.3845 -1.7368  0.9785
 6591TIP3   OH219778   3.557   2.947   2.165  0.5558  0.3495  0.0186
 6591TIP3    H119779   3.650   2.950   2.141  0.9948  0.2643  1.6168
 6591TIP3    H219780   3.515   3.005   2.101  1.4135 -0.9988 -1.8564
 6592TIP3   OH219781   4.241   3.903   0.577  0.1622 -0.3563 -0.1537
 6592TIP3    H119782   4.286   3.983   0.607 -2.0103  0.7070  0.4608
 6592TIP3    H219783   4.224   3.918   0.484 -0.8046  0.1976  0.1041
 6593TIP3   OH219784   0.548   1.386   4.990 -0.0176 -0.4551  0.0767
 6593TIP3    H119785   0.540   1.435   4.908  2.5869  0.1677  0.0952
 6593TIP3    H219786   0.497   1.306   4.976  0.7585 -0.5971 -2.3455
 6594TIP3   OH219787   1.150   4.640   5.110 -0.4181  0.6023 -0.4266
 6594TIP3    H119788   1.197   4.584   5.171  0.3464  1.2198 -0.4316
 6594TIP3    H219789   1.218   4.678   5.054 -1.1338 -0.2247 -1.9149
 6595TIP3   OH219790   5.549   0.277   1.950  0.0092 -0.3610  0.0339
 6595TIP3    H119791   5.538   0.194   1.996  1.0135 -0.6571 -0.2196
 6595TIP3    H219792   5.514   0.261   1.862 -0.8746 -0.1445  0.3411
 6596TIP3   OH219793   5.034   4.210   2.674 -0.2845  0.0305 -0.4361
 6596TIP3    H119794   4.979   4.147   2.627  0.6392 -0.8627 -0.3382
 6596TIP3    H219795   5.024   4.291   2.624 -1.7952 -0.0611 -0.3374
 6597TIP3   OH219796   4.193   4.772   0.519 -0.1194  0.3852 -0.1473
 6597TIP3    H119797   4.227   4.827   0.449  1.6906 -1.4356 -0.7839
 6597TIP3    H219798   4.246   4.794   0.596  0.5502 -0.3572 -0.3815
 6598TIP3   OH219799   3.348   3.614   0.675 -0.0229  0.4587  0.1263
 6598TIP3    H119800   3.385   3.613   0.587  0.5257  1.5730  0.3305
 6598TIP3    H219801   3.413   3.659   0.729 -1.8587  2.9830  0.3995
 6599TIP3   OH219802   5.598   1.500   3.849 -0.2924 -0.3893 -0.2060
 6599TIP3    H119803   5.642   1.497   3.934  0.5112 -1.1775 -0.6332
 6599TIP3    H219804   5.510   1.468   3.867 -0.9983  1.8874  0.8054
 6600TIP3   OH219805   6.223   5.519   2.506 -0.1584  0.0306  0.9591
 6600TIP3    H119806   6.158   5.449   2.496  0.3639 -0.2671 -0.6238
 6600TIP3    H219807   6.214   5.572   2.428  1.8011 -0.2982  0.4384
 6601TIP3   OH219808   1.541   4.606   4.103 -0.2770  0.5705  0.3409
 6601TIP3    H119809   1.585   4.691   4.104  1.2192 -0.1524  1.5447
 6601TIP3    H219810   1.596   4.551   4.159 -1.7494 -0.9181  0.3881
 6602TIP3   OH219811   0.091   5.023   3.404 -0.3001 -0.1149 -0.6724
 6602TIP3    H119812   0.155   5.063   3.463 -0.2462 -1.0141 -0.0999
 6602TIP3    H219813   0.116   4.931   3.400 -0.1193 -0.0260 -2.3627
 6603TIP3   OH219814   0.210   5.093   3.123  0.5672 -0.2180  0.0611
 6603TIP3    H119815   0.241   5.023   3.179 -2.4800  0.5038  2.9532
 6603TIP3    H219816   0.156   5.049   3.057 -0.3933 -0.7517  1.1620
 6604TIP3   OH219817   1.865   2.151   0.814 -0.0463 -0.1992  0.3084
 6604TIP3    H119818   1.798   2.163   0.746  0.4277  1.2210  0.0655
 6604TIP3    H219819   1.931   2.094   0.772  0.3360  0.8161 -0.5208
 6605TIP3   OH219820   0.981   0.547   4.252  0.2699 -0.1985 -0.4216
 6605TIP3    H119821   1.069   0.579   4.269  0.3610  1.3941 -3.2853
 6605TIP3    H219822   0.927   0.626   4.248 -0.7064 -0.8862 -1.5776
 6606TIP3   OH219823   1.574   3.106   0.308 -0.8208 -0.4123 -0.6250
 6606TIP3    H119824   1.614   3.034   0.356 -0.5923  0.6771  0.8755
 6606TIP3    H219825   1.647   3.155   0.272 -0.5456  2.1051  2.8751
 6607TIP3   OH219826   4.708   3.465   3.393  0.0233 -0.2501 -0.1879
 6607TIP3    H119827   4.720   3.370   3.383  0.0763 -0.9162  4.0323
 6607TIP3    H219828   4.794   3.497   3.420 -0.3005  0.7545 -0.3122
 6608TIP3   OH219829   0.240   1.192   1.084  0.1700  0.4511  0.1681
 6608TIP3    H119830   0.151   1.213   1.110 -0.5342  0.7619 -2.2789
 6608TIP3    H219831   0.240   1.097   1.073  0.0324  0.4931 -0.1973
 6609TIP3   OH219832   5.721   5.708   5.149  0.2015 -0.3100  0.2213
 6609TIP3    H119833   5.732   5.751   5.064  0.2665 -0.4010  0.1833
 6609TIP3    H219834   5.749   5.773   5.213 -0.2090 -0.1020  0.1964
 6610TIP3   OH219835   4.779   5.041   1.482  0.1382  0.0392 -0.5062
 6610TIP3    H119836   4.721   5.020   1.556 -0.0410 -1.1687 -0.9658
 6610TIP3    H219837   4.723   5.087   1.420  0.0584  0.2425 -0.2835
 6611TIP3   OH219838   3.428   5.184   3.518  0.0999 -0.1319 -0.0739
 6611TIP3    H119839   3.412   5.181   3.612  0.7821 -0.0442  0.0497
 6611TIP3    H219840   3.355   5.236   3.483 -0.1618 -0.1759  0.3981
 6612TIP3   OH219841   3.661   3.505   0.796  0.2419 -0.5220  0.2512
 6612TIP3    H119842   3.701   3.544   0.719 -1.7948  1.4985  0.1081
 6612TIP3    H219843   3.663   3.411   0.779  1.0557 -0.2076 -1.6283
 6613TIP3   OH219844   4.922   3.310   2.780 -0.6464 -0.0899 -0.0308
 6613TIP3    H119845   4.852   3.284   2.841 -0.1322  0.3294  0.7574
 6613TIP3    H219846   4.951   3.395   2.812 -0.2711  0.0724 -0.7954
 6614TIP3   OH219847   1.624   1.591   2.377  0.0583 -0.2093 -0.1348
 6614TIP3    H119848   1.590   1.577   2.466  1.7375 -0.5647  0.4773
 6614TIP3    H219849   1.715   1.562   2.381  0.4581  0.7075 -1.7261
 6615TIP3   OH219850   3.611   0.746   2.598 -0.2175  0.2043 -0.1915
 6615TIP3    H119851   3.655   0.723   2.517 -2.0936  0.8810 -1.4753
 6615TIP3    H219852   3.682   0.764   2.660  1.2561 -0.2454 -1.6818
 6616TIP3   OH219853   1.615   5.786   3.990  0.4080 -0.3629 -0.0073
 6616TIP3    H119854   1.540   5.789   4.050  0.8368 -0.2578  0.5357
 6616TIP3    H219855   1.640   5.694   3.988  0.8368 -0.2596  0.5389
 6617TIP3   OH219856   0.645   0.976   5.123 -0.5612 -0.0369  0.7471
 6617TIP3    H119857   0.633   0.883   5.143 -2.4055 -0.2418 -0.9393
 6617TIP3    H219858   0.563   1.017   5.151 -0.3121  0.8424  0.2347
 6618TIP3   OH219859   4.973   4.451   5.043 -0.6062 -0.6850 -0.4114
 6618TIP3    H119860   4.913   4.447   5.118  0.4721 -0.5206  0.4805
 6618TIP3    H219861   4.963   4.366   5.001 -0.4765 -1.1850  0.5272
 6619TIP3   OH219862   6.090   2.230   3.145  0.0468 -0.7792  0.0125
 6619TIP3    H119863   6.018   2.239   3.083  0.1473 -1.5933 -0.2332
 6619TIP3    H219864   6.124   2.142   3.130  1.2697 -0.3125 -0.0683
 6620TIP3   OH219865   4.901   2.738   3.333  0.1381 -0.5580  0.3100
 6620TIP3    H119866   4.992   2.718   3.311  0.5984  1.1657  0.4925
 6620TIP3    H219867   4.901   2.750   3.428 -0.4824 -1.4095  0.4359
 6621TIP3   OH219868   3.771   1.815   4.274 -0.2117 -0.3068 -0.0417
 6621TIP3    H119869   3.786   1.909   4.289  0.1313 -0.3988  0.2045
 6621TIP3    H219870   3.854   1.784   4.238 -0.6711 -0.3058 -1.1345
 6622TIP3   OH219871   0.139   0.344   1.607 -0.3749  0.3155  0.4612
 6622TIP3    H119872   0.110   0.423   1.652 -0.9825  0.3148  0.0667
 6622TIP3    H219873   0.233   0.357   1.594 -0.7600  1.7764 -1.2082
 6623TIP3   OH219874   2.982   1.494   0.473  0.0143 -0.3494  0.4182
 6623TIP3    H119875   2.931   1.419   0.442  0.5014 -0.3445 -0.4255
 6623TIP3    H219876   2.923   1.539   0.533 -0.9823 -0.3678 -0.5094
 6624TIP3   OH219877   6.146   4.644   5.011 -0.3259 -0.9894  0.2071
 6624TIP3    H119878   6.060   4.677   4.983 -0.0687  0.1370  0.6956
 6624TIP3    H219879   6.201   4.722   5.017  0.6607 -1.6654  0.1849
 6625TIP3   OH219880   2.349   3.095   1.495 -0.6525 -0.2292 -0.7530
 6625TIP3    H119881   2.316   3.183   1.514 -2.1062 -0.0275 -3.6287
 6625TIP3    H219882   2.415   3.108   1.427  0.5467 -1.2544  0.1668
 6626TIP3   OH219883   3.004   0.219   3.416 -0.2308  0.1483 -0.6207
 6626TIP3    H119884   2.974   0.310   3.407  2.2390  1.1101  0.0800
 6626TIP3    H219885   2.980   0.195   3.506  0.1747  0.5395 -0.4064
 6627TIP3   OH219886   5.178   2.421   0.635 -0.1135  0.1401 -0.4946
 6627TIP3    H119887   5.174   2.516   0.635  1.5936  0.2520  1.1021
 6627TIP3    H219888   5.240   2.399   0.566  1.7991  0.3760  1.0863
 6628TIP3   OH219889   0.391   4.045   1.198  0.2970 -0.6687  0.2461
 6628TIP3    H119890   0.447   3.972   1.171  0.5794 -0.7103  0.9277
 6628TIP3    H219891   0.319   4.004   1.247  0.5839 -0.4813  0.8403
 6629TIP3   OH219892   5.751   4.391   1.871  0.2609 -0.1456  0.3711
 6629TIP3    H119893   5.747   4.364   1.963  0.8252  0.7678  0.6813
 6629TIP3    H219894   5.727   4.484   1.872  2.3905  0.4796 -0.0735
 6630TIP3   OH219895   1.187   3.486   2.097 -0.3733 -0.0418 -0.5398
 6630TIP3    H119896   1.111   3.463   2.152 -0.4444  1.7331  0.2113
 6630TIP3    H219897   1.150   3.502   2.010 -0.2466 -2.9840 -1.2196
 6631TIP3   OH219898   4.484   1.929   1.609 -0.1626  0.2110  0.4855
 6631TIP3    H119899   4.562   1.879   1.585  0.6041  0.5875  2.0196
 6631TIP3    H219900   4.420   1.862   1.632 -0.1048 -0.0978 -0.2257
 6632TIP3   OH219901   4.852   3.110   0.982  0.1122  0.0077  0.2174
 6632TIP3    H119902   4.790   3.134   1.051  0.3541  0.0196  0.4331
 6632TIP3    H219903   4.827   3.022   0.956 -1.1158  0.6660 -0.9438
 6633TIP3   OH219904   4.379   1.798   1.329  0.3108 -0.1010  0.3089
 6633TIP3    H119905   4.316   1.845   1.383  0.7885  0.1150  0.6854
 6633TIP3    H219906   4.369   1.837   1.242 -1.1866 -1.1538 -0.0232
 6634TIP3   OH219907   0.097   5.715   0.975  0.3156  0.1141  0.5046
 6634TIP3    H119908   0.067   5.805   0.988  1.1356  0.4750 -0.0315
 6634TIP3    H219909   0.050   5.685   0.898 -0.0882  0.0263  0.7858
 6635TIP3   OH219910   0.265   1.632   0.123  0.9132 -0.5202  0.2096
 6635TIP3    H119911   0.212   1.562   0.162  0.3023 -1.2177 -1.7515
 6635TIP3    H219912   0.261   1.704   0.186 -1.8328 -0.7896  0.4434
 6636TIP3   OH219913   0.174   0.118   3.610  0.0903 -0.2237 -0.0067
 6636TIP3    H119914   0.196   0.203   3.571 -1.1738 -0.4796 -1.4058
 6636TIP3    H219915   0.246   0.061   3.585  0.2752  0.1138 -0.2628
 6637TIP3   OH219916   0.050   3.202   2.421  0.6839  0.5051 -0.2754
 6637TIP3    H119917   0.057   3.117   2.378 -0.0639 -0.6955  1.8332
 6637TIP3    H219918   0.138   3.220   2.454  1.0448  0.9908 -1.4746
 6638TIP3   OH219919   1.499   5.228   1.972  0.3203 -0.3818 -0.4915
 6638TIP3    H119920   1.412   5.212   2.008  0.7183 -0.7286  0.3542
 6638TIP3    H219921   1.552   5.250   2.049  0.7668  0.7715 -1.1089
 6639TIP3   OH219922   5.363   4.785   1.250  0.1861 -0.0912 -0.2768
 6639TIP3    H119923   5.327   4.816   1.167  0.8045 -0.3470 -0.6470
 6639TIP3    H219924   5.457   4.796   1.241  0.2329  0.2560  0.5547
 6640TIP3   OH219925   0.370   2.511   0.894 -0.1297  0.4619 -0.6174
 6640TIP3    H119926   0.432   2.558   0.950 -0.3109  0.9419 -0.8114
 6640TIP3    H219927   0.304   2.477   0.954 -0.2968  0.9313 -0.5296
 6641TIP3   OH219928   3.762   5.860   4.860  0.2774  0.3406  0.0773
 6641TIP3    H119929   3.775   5.789   4.796  0.4355  0.2500  0.2104
 6641TIP3    H219930   3.834   5.921   4.844  0.3356  0.3019  0.1888
 6642TIP3   OH219931   1.134   3.856   4.501 -0.4309  0.0666 -0.6270
 6642TIP3    H119932   1.091   3.935   4.534  2.1170  0.6820  1.6056
 6642TIP3    H219933   1.227   3.872   4.514  0.3901 -2.1506 -2.9361
 6643TIP3   OH219934   0.896   3.572   1.687 -0.3530 -0.5983 -0.8185
 6643TIP3    H119935   0.981   3.538   1.659 -0.5309 -0.5360 -1.4337
 6643TIP3    H219936   0.910   3.666   1.696  0.5448 -0.8916  2.2743
 6644TIP3   OH219937   1.444   1.378   3.146  0.7232  0.0837 -0.6326
 6644TIP3    H119938   1.362   1.426   3.150  1.2884  0.9924  0.8660
 6644TIP3    H219939   1.498   1.416   3.215  1.3434 -2.4741  0.4099
 6645TIP3   OH219940   4.309   2.030   2.470  0.3242  0.5058 -0.0979
 6645TIP3    H119941   4.381   1.990   2.518 -0.6983 -1.1859  0.0960
 6645TIP3    H219942   4.252   2.067   2.538 -0.0597 -0.0380 -0.1190
   6.33983   5.97725   5.17645   0.00000   0.00000  -2.11329   0.00000  -2.11329  -2.98862
