Title t= 340.00000 step= 170000
46055
    1GLY      N    1   3.170   3.242   0.854
    1GLY    HT1    2   3.133   3.242   0.757
    1GLY    HT2    3   3.199   3.145   0.880
    1GLY    HT3    4   3.253   3.304   0.845
    1GLY     CA    5   3.079   3.294   0.958
    1GLY    HA1    6   3.020   3.208   0.986
    1GLY    HA2    7   3.014   3.370   0.917
    1GLY      C    8   3.145   3.353   1.077
    1GLY      O    9   3.261   3.310   1.102
    2PRO      N   10   3.088   3.441   1.165
    2PRO     CD   11   2.947   3.497   1.149
    2PRO    HD1   12   2.870   3.419   1.164
    2PRO    HD2   13   2.931   3.543   1.049
    2PRO     CA   14   3.145   3.491   1.293
    2PRO     HA   15   3.213   3.571   1.267
    2PRO     CB   16   3.022   3.540   1.371
    2PRO    HB1   17   3.048   3.621   1.443
    2PRO    HB2   18   2.970   3.449   1.409
    2PRO     CG   19   2.934   3.599   1.260
    2PRO    HG1   20   2.832   3.631   1.290
    2PRO    HG2   21   2.985   3.688   1.218
    2PRO      C   22   3.221   3.389   1.381
    2PRO      O   23   3.172   3.275   1.399
    3GLY      N   24   3.329   3.433   1.455
    3GLY     HN   25   3.354   3.528   1.441
    3GLY     CA   26   3.387   3.367   1.564
    3GLY    HA1   27   3.473   3.423   1.597
    3GLY    HA2   28   3.412   3.264   1.542
    3GLY      C   29   3.303   3.353   1.691
    3GLY      O   30   3.284   3.450   1.760
    4ALA      N   31   3.258   3.228   1.712
    4ALA     HN   32   3.287   3.153   1.653
    4ALA     CA   33   3.164   3.199   1.817
    4ALA     HA   34   3.079   3.262   1.797
    4ALA     CB   35   3.121   3.057   1.808
    4ALA    HB1   36   3.197   2.983   1.841
    4ALA    HB2   37   3.083   3.032   1.706
    4ALA    HB3   38   3.037   3.043   1.880
    4ALA      C   39   3.205   3.223   1.968
    4ALA      O   40   3.325   3.204   2.003
    5PRO      N   41   3.110   3.262   2.060
    5PRO     CD   42   2.979   3.311   2.027
    5PRO    HD1   43   2.931   3.247   1.950
    5PRO    HD2   44   2.984   3.418   1.996
    5PRO     CA   45   3.133   3.264   2.202
    5PRO     HA   46   3.203   3.342   2.226
    5PRO     CB   47   2.998   3.315   2.255
    5PRO    HB1   48   3.004   3.425   2.274
    5PRO    HB2   49   2.981   3.273   2.357
    5PRO     CG   50   2.897   3.285   2.155
    5PRO    HG1   51   2.878   3.176   2.153
    5PRO    HG2   52   2.801   3.339   2.165
    5PRO      C   53   3.178   3.137   2.262
    5PRO      O   54   3.117   3.036   2.235
    6GLY      N   55   3.284   3.150   2.343
    6GLY     HN   56   3.336   3.234   2.338
    6GLY     CA   57   3.336   3.049   2.432
    6GLY    HA1   58   3.434   3.086   2.457
    6GLY    HA2   59   3.339   2.959   2.373
    6GLY      C   60   3.251   3.008   2.546
    6GLY      O   61   3.129   3.029   2.543
    7PRO      N   62   3.299   2.950   2.654
    7PRO     CD   63   3.432   2.891   2.668
    7PRO    HD1   64   3.502   2.956   2.611
    7PRO    HD2   65   3.436   2.786   2.630
    7PRO     CA   66   3.237   2.962   2.785
    7PRO     HA   67   3.141   2.915   2.776
    7PRO     CB   68   3.328   2.879   2.880
    7PRO    HB1   69   3.305   2.773   2.858
    7PRO    HB2   70   3.336   2.901   2.989
    7PRO     CG   71   3.465   2.893   2.813
    7PRO    HG1   72   3.514   2.987   2.843
    7PRO    HG2   73   3.538   2.815   2.842
    7PRO      C   74   3.204   3.103   2.832
    7PRO      O   75   3.283   3.197   2.818
    8GLY      N   76   3.089   3.125   2.897
    8GLY     HN   77   3.026   3.048   2.906
    8GLY     CA   78   3.047   3.258   2.940
    8GLY    HA1   79   2.940   3.262   2.923
    8GLY    HA2   80   3.095   3.332   2.878
    8GLY      C   81   3.074   3.291   3.091
    8GLY      O   82   3.085   3.203   3.175
    9ALA      N   83   3.085   3.422   3.122
    9ALA     HN   84   3.071   3.488   3.048
    9ALA     CA   85   3.106   3.494   3.244
    9ALA     HA   86   3.177   3.435   3.300
    9ALA     CB   87   3.162   3.634   3.237
    9ALA    HB1   88   3.261   3.625   3.188
    9ALA    HB2   89   3.192   3.674   3.336
    9ALA    HB3   90   3.102   3.707   3.179
    9ALA      C   91   2.975   3.508   3.323
    9ALA      O   92   2.874   3.536   3.267
   10PRO      N   93   2.968   3.485   3.456
   10PRO     CD   94   3.075   3.419   3.535
   10PRO    HD1   95   3.176   3.465   3.541
   10PRO    HD2   96   3.085   3.315   3.497
   10PRO     CA   97   2.857   3.520   3.541
   10PRO     HA   98   2.793   3.440   3.507
   10PRO     CB   99   2.915   3.499   3.685
   10PRO    HB1  100   2.829   3.471   3.750
   10PRO    HB2  101   2.963   3.587   3.731
   10PRO     CG  102   3.015   3.392   3.675
   10PRO    HG1  103   3.086   3.379   3.759
   10PRO    HG2  104   2.956   3.298   3.664
   10PRO      C  105   2.781   3.654   3.530
   10PRO      O  106   2.848   3.756   3.489
   11GLY      N  107   2.652   3.654   3.561
   11GLY     HN  108   2.615   3.570   3.600
   11GLY     CA  109   2.567   3.774   3.550
   11GLY    HA1  110   2.469   3.744   3.582
   11GLY    HA2  111   2.576   3.812   3.450
   11GLY      C  112   2.595   3.881   3.649
   11GLY      O  113   2.674   3.855   3.743
   12PRO      N  114   2.533   3.995   3.642
   12PRO     CD  115   2.438   4.032   3.544
   12PRO    HD1  116   2.338   3.985   3.557
   12PRO    HD2  117   2.478   3.998   3.446
   12PRO     CA  118   2.537   4.090   3.758
   12PRO     HA  119   2.642   4.112   3.770
   12PRO     CB  120   2.447   4.201   3.711
   12PRO    HB1  121   2.477   4.303   3.742
   12PRO    HB2  122   2.346   4.176   3.752
   12PRO     CG  123   2.440   4.185   3.559
   12PRO    HG1  124   2.357   4.236   3.506
   12PRO    HG2  125   2.537   4.217   3.514
   12PRO      C  126   2.486   4.030   3.891
   12PRO      O  127   2.384   3.963   3.895
   13GLY      N  128   2.565   4.048   3.994
   13GLY     HN  129   2.648   4.104   3.992
   13GLY     CA  130   2.541   3.995   4.131
   13GLY    HA1  131   2.636   3.997   4.182
   13GLY    HA2  132   2.523   3.888   4.122
   13GLY      C  133   2.438   4.064   4.221
   13GLY      O  134   2.350   4.130   4.175
   14ALA      N  135   2.459   4.040   4.357
   14ALA     HN  136   2.532   3.980   4.390
   14ALA     CA  137   2.394   4.113   4.463
   14ALA     HA  138   2.329   4.043   4.514
   14ALA     CB  139   2.498   4.140   4.566
   14ALA    HB1  140   2.475   4.209   4.650
   14ALA    HB2  141   2.581   4.170   4.498
   14ALA    HB3  142   2.529   4.043   4.610
   14ALA      C  143   2.335   4.255   4.432
   14ALA      O  144   2.410   4.346   4.410
   15PRO      N  145   2.207   4.268   4.424
   15PRO     CD  146   2.110   4.153   4.432
   15PRO    HD1  147   2.142   4.089   4.517
   15PRO    HD2  148   2.126   4.102   4.335
   15PRO     CA  149   2.131   4.395   4.394
   15PRO     HA  150   2.155   4.419   4.292
   15PRO     CB  151   1.982   4.352   4.387
   15PRO    HB1  152   1.958   4.332   4.281
   15PRO    HB2  153   1.922   4.443   4.411
   15PRO     CG  154   1.974   4.218   4.467
   15PRO    HG1  155   1.955   4.235   4.575
   15PRO    HG2  156   1.890   4.157   4.426
   15PRO      C  157   2.158   4.517   4.483
   15PRO    OT1  158   2.138   4.505   4.609
   15PRO    OT2  159   2.210   4.623   4.447
   16LIT    LIT  160   5.426   4.142   2.402
   17LIT    LIT  161   1.864   5.373   3.734
   18LIT    LIT  162   2.757   1.941   1.476
   19LIT    LIT  163   4.603   5.416   2.404
   20LIT    LIT  164   2.394   5.354   3.492
   21LIT    LIT  165   1.974   5.575   1.147
   22LIT    LIT  166   1.948   1.544   6.449
   23LIT    LIT  167   6.812   4.742   2.614
   24LIT    LIT  168   3.239   4.376   4.190
   25LIT    LIT  169   5.513   1.243   5.305
   26LIT    LIT  170   7.044   2.847   4.788
   27LIT    LIT  171   0.674   4.920   3.474
   28LIT    LIT  172   0.403   6.299   5.362
   29LIT    LIT  173   3.531   2.315   1.266
   30LIT    LIT  174   3.569   6.158   3.714
   31LIT    LIT  175   0.710   2.481   5.120
   32LIT    LIT  176   0.656   4.724   6.459
   33LIT    LIT  177   5.658   7.356   0.914
   34LIT    LIT  178   7.756   7.493   0.950
   35LIT    LIT  179   5.005   7.175   3.696
   36LIT    LIT  180   6.183   7.442   2.970
   37LIT    LIT  181   3.789   5.793   1.658
   38LIT    LIT  182   0.737   3.410   0.198
   39LIT    LIT  183   2.528   1.895   4.886
   40LIT    LIT  184   7.978   6.763   4.803
   41LIT    LIT  185   5.156   5.473   0.084
   42LIT    LIT  186   6.573   4.605   1.364
   43LIT    LIT  187   3.474   0.646   0.005
   44LIT    LIT  188   8.009   0.135   1.347
   45LIT    LIT  189   0.963   7.902   1.651
   46LIT    LIT  190   2.065   3.920   4.750
   47LIT    LIT  191   1.018   0.070   1.792
   48LIT    LIT  192   4.066   0.274   2.048
   49LIT    LIT  193   6.815   0.632   5.586
   50LIT    LIT  194   4.535   4.466   1.523
   51LIT    LIT  195   3.354   7.264   0.917
   52LIT    LIT  196   6.737   1.253   5.046
   53LIT    LIT  197   3.705   7.385   6.601
   54LIT    LIT  198   5.687   1.946   6.765
   55LIT    LIT  199   1.439   2.284   3.895
   56LIT    LIT  200   6.836   5.235   4.044
   57LIT    LIT  201   3.645   4.708   0.228
   58LIT    LIT  202   2.200   4.685   4.629
   59CLA    CLA  203   3.589   6.427   3.354
   60CLA    CLA  204   3.451   6.076   3.893
   61CLA    CLA  205   3.542   1.872   6.537
   62CLA    CLA  206   1.505   7.742   3.387
   63CLA    CLA  207   1.708   6.258   2.481
   64CLA    CLA  208   3.400   6.478   4.696
   65CLA    CLA  209   2.936   1.846   6.143
   66CLA    CLA  210   8.130   5.277   0.942
   67CLA    CLA  211   0.894   3.652   3.119
   68CLA    CLA  212   7.453   6.059   3.346
   69CLA    CLA  213   6.258   6.229   2.775
   70CLA    CLA  214   5.204   0.237   0.121
   71CLA    CLA  215   2.148   2.496   1.956
   72CLA    CLA  216   7.036   5.316   4.121
   73CLA    CLA  217   1.416   6.101   5.525
   74CLA    CLA  218   5.625   7.867   0.938
   75CLA    CLA  219   5.941   7.772   6.069
   76CLA    CLA  220   1.795   3.433   0.239
   77CLA    CLA  221   3.445   0.803   6.024
   78CLA    CLA  222   6.867   1.486   5.717
   79CLA    CLA  223   5.821   3.102   2.300
   80CLA    CLA  224   6.621   7.338   0.379
   81CLA    CLA  225   2.010   2.844   0.487
   82CLA    CLA  226   3.423   4.435   1.743
   83CLA    CLA  227   7.481   6.491   4.616
   84CLA    CLA  228   0.470   6.860   1.574
   85CLA    CLA  229   0.756   4.870   0.735
   86CLA    CLA  230   7.760   2.974   5.312
   87CLA    CLA  231   2.883   3.924   0.032
   88CLA    CLA  232   7.654   3.806   3.029
   89CLA    CLA  233   3.199   2.922   1.030
   90CLA    CLA  234   0.493   2.976   6.666
   91CLA    CLA  235   5.687   6.823   0.556
   92CLA    CLA  236   6.192   4.307   1.306
   93CLA    CLA  237   1.948   0.877   6.274
   94CLA    CLA  238   4.978   7.171   3.916
   95CLA    CLA  239   3.026   1.338   1.487
   96CLA    CLA  240   6.124   2.058   4.142
   97CLA    CLA  241   3.102   1.957   5.118
   98CLA    CLA  242   7.420   2.773   5.665
   99CLA    CLA  243   2.556   5.015   3.272
  100CLA    CLA  244   6.278   1.243   5.078
  101CLA    CLA  245   0.060   0.273   3.471
  102TIP3   OH2  246   3.700   2.885   0.790
  102TIP3    H1  247   3.739   2.835   0.718
  102TIP3    H2  248   3.674   2.968   0.750
  103TIP3   OH2  249   1.229   3.872   3.258
  103TIP3    H1  250   1.270   3.804   3.312
  103TIP3    H2  251   1.198   3.826   3.180
  104TIP3   OH2  252   3.395   0.683   3.873
  104TIP3    H1  253   3.339   0.758   3.852
  104TIP3    H2  254   3.339   0.626   3.927
  105TIP3   OH2  255   2.753   2.924   5.277
  105TIP3    H1  256   2.759   2.870   5.198
  105TIP3    H2  257   2.780   3.011   5.249
  106TIP3   OH2  258   2.616   5.831   2.049
  106TIP3    H1  259   2.543   5.837   2.110
  106TIP3    H2  260   2.694   5.843   2.102
  107TIP3   OH2  261   5.414   6.381   5.042
  107TIP3    H1  262   5.455   6.408   5.124
  107TIP3    H2  263   5.342   6.442   5.029
  108TIP3   OH2  264   1.292   2.226   6.124
  108TIP3    H1  265   1.256   2.310   6.094
  108TIP3    H2  266   1.345   2.195   6.051
  109TIP3   OH2  267   8.127   6.085   4.556
  109TIP3    H1  268   8.109   6.175   4.531
  109TIP3    H2  269   8.057   6.062   4.617
  110TIP3   OH2  270   3.603   2.580   2.253
  110TIP3    H1  271   3.623   2.673   2.259
  110TIP3    H2  272   3.557   2.560   2.335
  111TIP3   OH2  273   4.572   4.189   0.726
  111TIP3    H1  274   4.508   4.175   0.655
  111TIP3    H2  275   4.635   4.251   0.689
  112TIP3   OH2  276   3.041   7.593   1.049
  112TIP3    H1  277   3.090   7.669   1.081
  112TIP3    H2  278   3.000   7.557   1.127
  113TIP3   OH2  279   0.213   7.527   1.955
  113TIP3    H1  280   0.259   7.444   1.938
  113TIP3    H2  281   0.274   7.595   1.926
  114TIP3   OH2  282   2.556   2.700   2.724
  114TIP3    H1  283   2.495   2.774   2.721
  114TIP3    H2  284   2.589   2.700   2.814
  115TIP3   OH2  285   3.035   5.677   1.269
  115TIP3    H1  286   2.952   5.713   1.301
  115TIP3    H2  287   3.075   5.637   1.347
  116TIP3   OH2  288   3.950   5.652   0.275
  116TIP3    H1  289   3.885   5.660   0.205
  116TIP3    H2  290   3.981   5.561   0.269
  117TIP3   OH2  291   2.528   1.287   2.299
  117TIP3    H1  292   2.467   1.359   2.313
  117TIP3    H2  293   2.525   1.237   2.380
  118TIP3   OH2  294   5.738   4.173   1.587
  118TIP3    H1  295   5.807   4.132   1.640
  118TIP3    H2  296   5.776   4.178   1.499
  119TIP3   OH2  297   7.140   3.267   5.943
  119TIP3    H1  298   7.209   3.309   5.994
  119TIP3    H2  299   7.176   3.183   5.916
  120TIP3   OH2  300   7.893   1.914   3.235
  120TIP3    H1  301   7.817   1.876   3.190
  120TIP3    H2  302   7.855   1.975   3.298
  121TIP3   OH2  303   2.081   6.946   3.762
  121TIP3    H1  304   2.165   6.954   3.716
  121TIP3    H2  305   2.104   6.912   3.848
  122TIP3   OH2  306   2.287   2.918   2.935
  122TIP3    H1  307   2.340   2.862   2.992
  122TIP3    H2  308   2.303   3.007   2.968
  123TIP3   OH2  309   4.142   6.397   0.619
  123TIP3    H1  310   4.114   6.390   0.711
  123TIP3    H2  311   4.081   6.341   0.571
  124TIP3   OH2  312   5.318   6.344   1.954
  124TIP3    H1  313   5.267   6.284   1.899
  124TIP3    H2  314   5.257   6.414   1.976
  125TIP3   OH2  315   1.880   5.325   6.338
  125TIP3    H1  316   1.933   5.313   6.417
  125TIP3    H2  317   1.858   5.418   6.337
  126TIP3   OH2  318   4.868   7.353   6.392
  126TIP3    H1  319   4.806   7.313   6.453
  126TIP3    H2  320   4.880   7.286   6.324
  127TIP3   OH2  321   6.318   5.141   3.261
  127TIP3    H1  322   6.323   5.229   3.297
  127TIP3    H2  323   6.260   5.094   3.321
  128TIP3   OH2  324   6.536   3.064   2.115
  128TIP3    H1  325   6.499   3.030   2.034
  128TIP3    H2  326   6.464   3.061   2.178
  129TIP3   OH2  327   0.307   0.722   1.419
  129TIP3    H1  328   0.285   0.712   1.327
  129TIP3    H2  329   0.381   0.782   1.420
  130TIP3   OH2  330   7.892   6.999   1.074
  130TIP3    H1  331   7.848   6.925   1.116
  130TIP3    H2  332   7.896   7.066   1.142
  131TIP3   OH2  333   7.245   2.459   5.678
  131TIP3    H1  334   7.285   2.399   5.616
  131TIP3    H2  335   7.288   2.543   5.660
  132TIP3   OH2  336   1.450   0.813   4.772
  132TIP3    H1  337   1.364   0.833   4.808
  132TIP3    H2  338   1.471   0.727   4.807
  133TIP3   OH2  339   1.850   7.114   3.359
  133TIP3    H1  340   1.939   7.132   3.389
  133TIP3    H2  341   1.842   7.018   3.363
  134TIP3   OH2  342   6.661   6.203   2.138
  134TIP3    H1  343   6.734   6.262   2.157
  134TIP3    H2  344   6.703   6.119   2.116
  135TIP3   OH2  345   7.873   6.614   5.166
  135TIP3    H1  346   7.779   6.595   5.163
  135TIP3    H2  347   7.881   6.689   5.224
  136TIP3   OH2  348   6.549   0.127   2.181
  136TIP3    H1  349   6.489   0.076   2.127
  136TIP3    H2  350   6.589   0.190   2.120
  137TIP3   OH2  351   7.108   2.324   2.424
  137TIP3    H1  352   7.202   2.304   2.430
  137TIP3    H2  353   7.089   2.318   2.331
  138TIP3   OH2  354   7.299   2.228   6.711
  138TIP3    H1  355   7.303   2.276   6.794
  138TIP3    H2  356   7.228   2.271   6.662
  139TIP3   OH2  357   2.514   4.607   0.540
  139TIP3    H1  358   2.526   4.530   0.485
  139TIP3    H2  359   2.481   4.572   0.623
  140TIP3   OH2  360   5.838   1.139   5.944
  140TIP3    H1  361   5.779   1.068   5.969
  140TIP3    H2  362   5.922   1.115   5.984
  141TIP3   OH2  363   6.477   7.065   0.374
  141TIP3    H1  364   6.398   7.107   0.408
  141TIP3    H2  365   6.537   7.138   0.358
  142TIP3   OH2  366   3.180   0.879   4.643
  142TIP3    H1  367   3.256   0.827   4.614
  142TIP3    H2  368   3.205   0.969   4.626
  143TIP3   OH2  369   5.272   3.847   6.600
  143TIP3    H1  370   5.325   3.922   6.627
  143TIP3    H2  371   5.278   3.786   6.674
  144TIP3   OH2  372   6.072   4.120   1.517
  144TIP3    H1  373   6.098   4.178   1.445
  144TIP3    H2  374   6.068   4.178   1.594
  145TIP3   OH2  375   1.378   5.880   4.461
  145TIP3    H1  376   1.308   5.828   4.501
  145TIP3    H2  377   1.434   5.906   4.534
  146TIP3   OH2  378   8.021   5.473   2.754
  146TIP3    H1  379   7.969   5.401   2.721
  146TIP3    H2  380   8.050   5.520   2.676
  147TIP3   OH2  381   4.683   3.297   1.225
  147TIP3    H1  382   4.759   3.248   1.256
  147TIP3    H2  383   4.613   3.233   1.219
  148TIP3   OH2  384   7.381   4.692   4.269
  148TIP3    H1  385   7.432   4.682   4.189
  148TIP3    H2  386   7.316   4.759   4.247
  149TIP3   OH2  387   3.084   3.319   4.342
  149TIP3    H1  388   3.131   3.236   4.330
  149TIP3    H2  389   3.146   3.374   4.391
  150TIP3   OH2  390   5.213   5.094   4.580
  150TIP3    H1  391   5.288   5.129   4.531
  150TIP3    H2  392   5.148   5.073   4.513
  151TIP3   OH2  393   1.525   3.941   1.720
  151TIP3    H1  394   1.483   3.994   1.788
  151TIP3    H2  395   1.515   3.851   1.751
  152TIP3   OH2  396   7.827   4.085   2.053
  152TIP3    H1  397   7.757   4.026   2.082
  152TIP3    H2  398   7.875   4.035   1.987
  153TIP3   OH2  399   6.629   3.661   1.275
  153TIP3    H1  400   6.658   3.577   1.311
  153TIP3    H2  401   6.672   3.727   1.330
  154TIP3   OH2  402   5.031   2.323   5.687
  154TIP3    H1  403   5.015   2.411   5.720
  154TIP3    H2  404   4.991   2.265   5.751
  155TIP3   OH2  405   2.411   1.350   5.831
  155TIP3    H1  406   2.418   1.423   5.892
  155TIP3    H2  407   2.401   1.273   5.887
  156TIP3   OH2  408   7.496   4.722   3.961
  156TIP3    H1  409   7.529   4.648   4.012
  156TIP3    H2  410   7.551   4.796   3.988
  157TIP3   OH2  411   4.397   7.535   1.334
  157TIP3    H1  412   4.308   7.499   1.341
  157TIP3    H2  413   4.416   7.535   1.240
  158TIP3   OH2  414   0.866   3.387   3.672
  158TIP3    H1  415   0.900   3.453   3.733
  158TIP3    H2  416   0.792   3.347   3.718
  159TIP3   OH2  417   3.019   7.027   4.668
  159TIP3    H1  418   2.949   7.059   4.725
  159TIP3    H2  419   2.976   6.967   4.608
  160TIP3   OH2  420   0.180   0.090   5.673
  160TIP3    H1  421   0.100   0.051   5.637
  160TIP3    H2  422   0.161   0.184   5.674
  161TIP3   OH2  423   3.411   3.099   0.778
  161TIP3    H1  424   3.361   3.034   0.729
  161TIP3    H2  425   3.446   3.158   0.710
  162TIP3   OH2  426   1.845   1.615   3.728
  162TIP3    H1  427   1.787   1.593   3.800
  162TIP3    H2  428   1.862   1.531   3.684
  163TIP3   OH2  429   4.399   5.628   0.261
  163TIP3    H1  430   4.441   5.693   0.206
  163TIP3    H2  431   4.343   5.579   0.202
  164TIP3   OH2  432   5.805   2.262   6.374
  164TIP3    H1  433   5.733   2.241   6.434
  164TIP3    H2  434   5.883   2.258   6.429
  165TIP3   OH2  435   8.174   2.717   2.582
  165TIP3    H1  436   8.095   2.771   2.591
  165TIP3    H2  437   8.149   2.632   2.617
  166TIP3   OH2  438   5.927   4.315   6.242
  166TIP3    H1  439   5.996   4.251   6.259
  166TIP3    H2  440   5.847   4.274   6.276
  167TIP3   OH2  441   4.726   3.288   2.418
  167TIP3    H1  442   4.805   3.327   2.380
  167TIP3    H2  443   4.726   3.319   2.509
  168TIP3   OH2  444   3.704   4.235   0.222
  168TIP3    H1  445   3.791   4.208   0.251
  168TIP3    H2  446   3.700   4.211   0.130
  169TIP3   OH2  447   0.577   6.419   2.956
  169TIP3    H1  448   0.610   6.442   2.869
  169TIP3    H2  449   0.496   6.372   2.939
  170TIP3   OH2  450   4.107   4.710   3.992
  170TIP3    H1  451   4.133   4.756   3.913
  170TIP3    H2  452   4.096   4.619   3.965
  171TIP3   OH2  453   6.477   5.268   5.517
  171TIP3    H1  454   6.457   5.342   5.460
  171TIP3    H2  455   6.569   5.279   5.541
  172TIP3   OH2  456   7.401   3.457  -0.017
  172TIP3    H1  457   7.431   3.496   0.065
  172TIP3    H2  458   7.307   3.442  -0.003
  173TIP3   OH2  459   0.407   6.086   4.337
  173TIP3    H1  460   0.416   6.170   4.290
  173TIP3    H2  461   0.335   6.041   4.293
  174TIP3   OH2  462   0.699   3.235   6.362
  174TIP3    H1  463   0.759   3.255   6.290
  174TIP3    H2  464   0.745   3.171   6.415
  175TIP3   OH2  465   2.449   5.819   6.536
  175TIP3    H1  466   2.501   5.900   6.531
  175TIP3    H2  467   2.500   5.761   6.592
  176TIP3   OH2  468   0.780   2.243   0.885
  176TIP3    H1  469   0.701   2.292   0.860
  176TIP3    H2  470   0.774   2.236   0.980
  177TIP3   OH2  471   2.902   1.511   2.618
  177TIP3    H1  472   2.939   1.465   2.693
  177TIP3    H2  473   2.967   1.578   2.596
  178TIP3   OH2  474   3.697   7.743   5.795
  178TIP3    H1  475   3.661   7.670   5.845
  178TIP3    H2  476   3.674   7.821   5.846
  179TIP3   OH2  477   5.358   2.620   0.788
  179TIP3    H1  478   5.407   2.542   0.814
  179TIP3    H2  479   5.276   2.616   0.838
  180TIP3   OH2  480   7.021   7.464   6.863
  180TIP3    H1  481   6.983   7.461   6.775
  180TIP3    H2  482   7.103   7.415   6.855
  181TIP3   OH2  483   5.702   3.432   5.395
  181TIP3    H1  484   5.790   3.417   5.428
  181TIP3    H2  485   5.654   3.466   5.470
  182TIP3   OH2  486   1.258   4.233   4.823
  182TIP3    H1  487   1.334   4.249   4.878
  182TIP3    H2  488   1.185   4.274   4.870
  183TIP3   OH2  489   2.629   6.793   2.012
  183TIP3    H1  490   2.559   6.772   1.950
  183TIP3    H2  491   2.602   6.751   2.094
  184TIP3   OH2  492   3.528   5.790   6.613
  184TIP3    H1  493   3.546   5.754   6.700
  184TIP3    H2  494   3.440   5.826   6.619
  185TIP3   OH2  495   3.859   0.002   4.511
  185TIP3    H1  496   3.855   0.043   4.425
  185TIP3    H2  497   3.924   0.053   4.559
  186TIP3   OH2  498   2.007   2.756   2.051
  186TIP3    H1  499   2.066   2.681   2.042
  186TIP3    H2  500   2.015   2.803   1.968
  187TIP3   OH2  501   7.818   2.967   2.094
  187TIP3    H1  502   7.749   2.901   2.096
  187TIP3    H2  503   7.863   2.958   2.178
  188TIP3   OH2  504   0.530   7.290   0.265
  188TIP3    H1  505   0.597   7.357   0.252
  188TIP3    H2  506   0.501   7.303   0.356
  189TIP3   OH2  507   2.660   3.059   4.943
  189TIP3    H1  508   2.586   3.099   4.989
  189TIP3    H2  509   2.629   3.047   4.853
  190TIP3   OH2  510   8.195   1.619   3.614
  190TIP3    H1  511   8.243   1.543   3.581
  190TIP3    H2  512   8.169   1.667   3.535
  191TIP3   OH2  513   1.180   4.082   4.034
  191TIP3    H1  514   1.241   4.009   4.044
  191TIP3    H2  515   1.231   4.160   4.059
  192TIP3   OH2  516   2.683   3.826   5.614
  192TIP3    H1  517   2.640   3.825   5.528
  192TIP3    H2  518   2.764   3.778   5.601
  193TIP3   OH2  519   6.076   0.920   6.788
  193TIP3    H1  520   6.000   0.910   6.845
  193TIP3    H2  521   6.056   0.996   6.734
  194TIP3   OH2  522   0.439   2.272   3.119
  194TIP3    H1  523   0.424   2.235   3.206
  194TIP3    H2  524   0.527   2.245   3.096
  195TIP3   OH2  525   1.554   7.247   5.266
  195TIP3    H1  526   1.525   7.274   5.179
  195TIP3    H2  527   1.481   7.195   5.300
  196TIP3   OH2  528   0.235   2.774   6.764
  196TIP3    H1  529   0.329   2.792   6.764
  196TIP3    H2  530   0.225   2.697   6.821
  197TIP3   OH2  531   2.329   1.928   1.799
  197TIP3    H1  532   2.288   1.850   1.834
  197TIP3    H2  533   2.423   1.911   1.806
  198TIP3   OH2  534   4.139   2.597   0.453
  198TIP3    H1  535   4.109   2.566   0.539
  198TIP3    H2  536   4.063   2.585   0.396
  199TIP3   OH2  537   0.895   4.630   4.197
  199TIP3    H1  538   0.822   4.585   4.240
  199TIP3    H2  539   0.955   4.560   4.171
  200TIP3   OH2  540   0.874   6.675   3.669
  200TIP3    H1  541   0.815   6.743   3.701
  200TIP3    H2  542   0.960   6.718   3.662
  201TIP3   OH2  543   3.511   7.822   3.267
  201TIP3    H1  544   3.591   7.859   3.304
  201TIP3    H2  545   3.518   7.837   3.173
  202TIP3   OH2  546   1.149   0.156   4.957
  202TIP3    H1  547   1.071   0.140   4.905
  202TIP3    H2  548   1.202   0.077   4.946
  203TIP3   OH2  549   6.818   0.556   2.749
  203TIP3    H1  550   6.860   0.490   2.805
  203TIP3    H2  551   6.826   0.638   2.798
  204TIP3   OH2  552   4.043   2.170   5.140
  204TIP3    H1  553   3.994   2.177   5.221
  204TIP3    H2  554   4.008   2.092   5.097
  205TIP3   OH2  555   6.562   4.005   5.413
  205TIP3    H1  556   6.655   3.991   5.427
  205TIP3    H2  557   6.521   3.965   5.490
  206TIP3   OH2  558   8.230   2.179   3.127
  206TIP3    H1  559   8.163   2.247   3.116
  206TIP3    H2  560   8.264   2.165   3.038
  207TIP3   OH2  561   3.286   1.279   3.174
  207TIP3    H1  562   3.354   1.277   3.240
  207TIP3    H2  563   3.275   1.373   3.154
  208TIP3   OH2  564   0.874   1.064   1.134
  208TIP3    H1  565   0.824   1.144   1.150
  208TIP3    H2  566   0.965   1.089   1.152
  209TIP3   OH2  567   4.472   3.046   1.209
  209TIP3    H1  568   4.561   3.053   1.175
  209TIP3    H2  569   4.477   2.976   1.275
  210TIP3   OH2  570   2.229   7.155   5.887
  210TIP3    H1  571   2.228   7.250   5.900
  210TIP3    H2  572   2.142   7.135   5.853
  211TIP3   OH2  573   5.277   6.454   4.109
  211TIP3    H1  574   5.312   6.442   4.020
  211TIP3    H2  575   5.210   6.386   4.117
  212TIP3   OH2  576   2.650   6.214   1.521
  212TIP3    H1  577   2.665   6.178   1.433
  212TIP3    H2  578   2.671   6.307   1.513
  213TIP3   OH2  579   4.310   2.215   1.237
  213TIP3    H1  580   4.405   2.200   1.239
  213TIP3    H2  581   4.284   2.188   1.149
  214TIP3   OH2  582   2.402   6.710   3.304
  214TIP3    H1  583   2.315   6.701   3.342
  214TIP3    H2  584   2.397   6.666   3.219
  215TIP3   OH2  585   0.807   5.155   2.548
  215TIP3    H1  586   0.725   5.184   2.588
  215TIP3    H2  587   0.858   5.235   2.537
  216TIP3   OH2  588   4.816   6.397   5.296
  216TIP3    H1  589   4.781   6.326   5.242
  216TIP3    H2  590   4.749   6.465   5.292
  217TIP3   OH2  591   4.473   5.028   2.041
  217TIP3    H1  592   4.517   4.999   1.961
  217TIP3    H2  593   4.389   5.063   2.011
  218TIP3   OH2  594   6.560   3.969   5.855
  218TIP3    H1  595   6.626   3.907   5.887
  218TIP3    H2  596   6.489   3.964   5.919
  219TIP3   OH2  597   6.328   4.052   4.791
  219TIP3    H1  598   6.306   3.976   4.846
  219TIP3    H2  599   6.245   4.098   4.780
  220TIP3   OH2  600   7.013   0.819   6.139
  220TIP3    H1  601   6.974   0.890   6.191
  220TIP3    H2  602   7.077   0.863   6.083
  221TIP3   OH2  603   0.808   7.741   6.667
  221TIP3    H1  604   0.818   7.793   6.746
  221TIP3    H2  605   0.886   7.760   6.614
  222TIP3   OH2  606   6.963   0.656   3.620
  222TIP3    H1  607   7.029   0.645   3.688
  222TIP3    H2  608   7.011   0.655   3.538
  223TIP3   OH2  609   4.396   4.890   6.198
  223TIP3    H1  610   4.485   4.870   6.228
  223TIP3    H2  611   4.340   4.864   6.271
  224TIP3   OH2  612   8.321   4.053   1.631
  224TIP3    H1  613   8.254   4.105   1.676
  224TIP3    H2  614   8.403   4.101   1.647
  225TIP3   OH2  615   3.968   1.588   6.111
  225TIP3    H1  616   4.057   1.620   6.097
  225TIP3    H2  617   3.912   1.664   6.097
  226TIP3   OH2  618   1.365   7.470   1.872
  226TIP3    H1  619   1.298   7.479   1.805
  226TIP3    H2  620   1.377   7.375   1.881
  227TIP3   OH2  621   2.173   2.485   6.803
  227TIP3    H1  622   2.158   2.402   6.848
  227TIP3    H2  623   2.123   2.549   6.854
  228TIP3   OH2  624   0.906   7.708   0.906
  228TIP3    H1  625   0.936   7.749   0.825
  228TIP3    H2  626   0.857   7.776   0.952
  229TIP3   OH2  627   0.314   4.450   6.071
  229TIP3    H1  628   0.314   4.454   6.166
  229TIP3    H2  629   0.246   4.512   6.044
  230TIP3   OH2  630   5.742   4.185   1.322
  230TIP3    H1  631   5.726   4.274   1.351
  230TIP3    H2  632   5.818   4.192   1.264
  231TIP3   OH2  633   7.246   3.204   5.367
  231TIP3    H1  634   7.203   3.185   5.451
  231TIP3    H2  635   7.227   3.128   5.312
  232TIP3   OH2  636   3.578   0.527   5.882
  232TIP3    H1  637   3.547   0.616   5.899
  232TIP3    H2  638   3.502   0.472   5.895
  233TIP3   OH2  639   7.577   5.766   0.514
  233TIP3    H1  640   7.661   5.750   0.557
  233TIP3    H2  641   7.597   5.827   0.444
  234TIP3   OH2  642   0.033   7.098   1.899
  234TIP3    H1  643  -0.025   7.040   1.848
  234TIP3    H2  644   0.023   7.069   1.989
  235TIP3   OH2  645   3.306   7.307   2.161
  235TIP3    H1  646   3.269   7.268   2.081
  235TIP3    H2  647   3.317   7.399   2.140
  236TIP3   OH2  648   4.885   1.928   3.473
  236TIP3    H1  649   4.899   1.851   3.528
  236TIP3    H2  650   4.875   1.892   3.385
  237TIP3   OH2  651   3.409   3.295   3.346
  237TIP3    H1  652   3.385   3.269   3.435
  237TIP3    H2  653   3.361   3.234   3.289
  238TIP3   OH2  654   4.565   1.503   1.147
  238TIP3    H1  655   4.595   1.414   1.160
  238TIP3    H2  656   4.542   1.507   1.054
  239TIP3   OH2  657   3.968   0.126   1.980
  239TIP3    H1  658   4.014   0.043   1.971
  239TIP3    H2  659   3.875   0.102   1.984
  240TIP3   OH2  660   6.848   7.000   1.492
  240TIP3    H1  661   6.912   7.027   1.557
  240TIP3    H2  662   6.839   7.075   1.434
  241TIP3   OH2  663   4.339   0.619   2.259
  241TIP3    H1  664   4.279   0.685   2.225
  241TIP3    H2  665   4.304   0.598   2.346
  242TIP3   OH2  666   6.658   4.811   1.718
  242TIP3    H1  667   6.738   4.760   1.713
  242TIP3    H2  668   6.678   4.893   1.672
  243TIP3   OH2  669   8.061   3.243   4.944
  243TIP3    H1  670   8.105   3.277   5.022
  243TIP3    H2  671   8.027   3.321   4.900
  244TIP3   OH2  672   3.956   5.298   0.721
  244TIP3    H1  673   4.044   5.286   0.758
  244TIP3    H2  674   3.912   5.214   0.734
  245TIP3   OH2  675   1.573   2.900   5.310
  245TIP3    H1  676   1.637   2.919   5.378
  245TIP3    H2  677   1.489   2.927   5.348
  246TIP3   OH2  678   8.351   0.343   0.039
  246TIP3    H1  679   8.377   0.296   0.118
  246TIP3    H2  680   8.384   0.290  -0.033
  247TIP3   OH2  681   3.775   2.885   2.055
  247TIP3    H1  682   3.864   2.917   2.070
  247TIP3    H2  683   3.748   2.851   2.140
  248TIP3   OH2  684   2.312   4.991   3.916
  248TIP3    H1  685   2.234   4.938   3.933
  248TIP3    H2  686   2.371   4.933   3.868
  249TIP3   OH2  687   5.233   1.778   5.526
  249TIP3    H1  688   5.256   1.700   5.578
  249TIP3    H2  689   5.138   1.775   5.520
  250TIP3   OH2  690   6.471   3.943   6.773
  250TIP3    H1  691   6.469   3.975   6.683
  250TIP3    H2  692   6.379   3.932   6.798
  251TIP3   OH2  693   3.559   5.577   4.278
  251TIP3    H1  694   3.544   5.644   4.345
  251TIP3    H2  695   3.495   5.509   4.297
  252TIP3   OH2  696   3.911   4.695   4.191
  252TIP3    H1  697   3.850   4.754   4.148
  252TIP3    H2  698   3.992   4.702   4.139
  253TIP3   OH2  699   5.917   4.026   6.704
  253TIP3    H1  700   5.908   3.959   6.636
  253TIP3    H2  701   5.845   4.087   6.687
  254TIP3   OH2  702   4.746   2.970   5.027
  254TIP3    H1  703   4.780   3.059   5.018
  254TIP3    H2  704   4.651   2.980   5.026
  255TIP3   OH2  705   5.187   1.772   3.555
  255TIP3    H1  706   5.180   1.816   3.471
  255TIP3    H2  707   5.200   1.842   3.618
  256TIP3   OH2  708   6.854   1.060   0.337
  256TIP3    H1  709   6.908   1.132   0.370
  256TIP3    H2  710   6.898   1.031   0.257
  257TIP3   OH2  711   7.689   1.123   5.904
  257TIP3    H1  712   7.727   1.179   5.836
  257TIP3    H2  713   7.722   1.036   5.884
  258TIP3   OH2  714   4.837   2.906   1.837
  258TIP3    H1  715   4.926   2.925   1.867
  258TIP3    H2  716   4.781   2.957   1.895
  259TIP3   OH2  717   4.830   6.822   3.517
  259TIP3    H1  718   4.845   6.772   3.437
  259TIP3    H2  719   4.762   6.772   3.563
  260TIP3   OH2  720   4.567   5.641   1.243
  260TIP3    H1  721   4.587   5.728   1.279
  260TIP3    H2  722   4.599   5.644   1.153
  261TIP3   OH2  723   4.789   2.199   5.470
  261TIP3    H1  724   4.750   2.285   5.487
  261TIP3    H2  725   4.880   2.208   5.497
  262TIP3   OH2  726   6.495   1.510   3.153
  262TIP3    H1  727   6.549   1.480   3.080
  262TIP3    H2  728   6.549   1.495   3.230
  263TIP3   OH2  729   4.155   7.299   3.952
  263TIP3    H1  730   4.179   7.217   3.911
  263TIP3    H2  731   4.069   7.283   3.992
  264TIP3   OH2  732   3.141   2.974   0.670
  264TIP3    H1  733   3.113   2.953   0.581
  264TIP3    H2  734   3.131   2.893   0.719
  265TIP3   OH2  735   3.203   4.600   2.637
  265TIP3    H1  736   3.189   4.510   2.611
  265TIP3    H2  737   3.295   4.603   2.664
  266TIP3   OH2  738   0.530   2.835   1.569
  266TIP3    H1  739   0.608   2.795   1.531
  266TIP3    H2  740   0.552   2.928   1.577
  267TIP3   OH2  741   3.091   2.420   4.047
  267TIP3    H1  742   3.150   2.350   4.076
  267TIP3    H2  743   3.005   2.377   4.041
  268TIP3   OH2  744   1.701   7.712   5.269
  268TIP3    H1  745   1.607   7.705   5.280
  268TIP3    H2  746   1.736   7.631   5.305
  269TIP3   OH2  747   0.922   3.584   6.240
  269TIP3    H1  748   0.920   3.645   6.313
  269TIP3    H2  749   0.973   3.629   6.172
  270TIP3   OH2  750   6.794   6.212   4.431
  270TIP3    H1  751   6.799   6.306   4.411
  270TIP3    H2  752   6.729   6.178   4.370
  271TIP3   OH2  753   3.065   0.963   1.999
  271TIP3    H1  754   3.140   0.912   2.030
  271TIP3    H2  755   3.016   0.983   2.079
  272TIP3   OH2  756   1.479   3.249   6.404
  272TIP3    H1  757   1.484   3.157   6.431
  272TIP3    H2  758   1.445   3.247   6.315
  273TIP3   OH2  759   3.347   6.755   2.687
  273TIP3    H1  760   3.292   6.721   2.617
  273TIP3    H2  761   3.350   6.849   2.672
  274TIP3   OH2  762   4.950   3.182   6.563
  274TIP3    H1  763   4.883   3.168   6.630
  274TIP3    H2  764   4.900   3.191   6.482
  275TIP3   OH2  765   7.027   6.316   2.788
  275TIP3    H1  766   7.075   6.256   2.846
  275TIP3    H2  767   7.049   6.403   2.820
  276TIP3   OH2  768   2.477   7.580   3.705
  276TIP3    H1  769   2.394   7.627   3.702
  276TIP3    H2  770   2.468   7.512   3.637
  277TIP3   OH2  771   8.059   5.161   3.524
  277TIP3    H1  772   8.082   5.203   3.441
  277TIP3    H2  773   8.005   5.086   3.499
  278TIP3   OH2  774   0.126   6.119   5.043
  278TIP3    H1  775   0.092   6.101   5.131
  278TIP3    H2  776   0.221   6.124   5.055
  279TIP3   OH2  777   1.028   7.698   6.051
  279TIP3    H1  778   0.988   7.776   6.012
  279TIP3    H2  779   0.957   7.657   6.101
  280TIP3   OH2  780   7.921   3.197   2.268
  280TIP3    H1  781   8.014   3.190   2.289
  280TIP3    H2  782   7.907   3.135   2.197
  281TIP3   OH2  783   0.656   4.560   3.792
  281TIP3    H1  784   0.661   4.586   3.700
  281TIP3    H2  785   0.577   4.603   3.825
  282TIP3   OH2  786   6.486   1.705   3.984
  282TIP3    H1  787   6.402   1.729   4.022
  282TIP3    H2  788   6.542   1.685   4.059
  283TIP3   OH2  789   7.710   5.932   3.219
  283TIP3    H1  790   7.631   5.954   3.268
  283TIP3    H2  791   7.684   5.859   3.163
  284TIP3   OH2  792   6.147   5.902   2.751
  284TIP3    H1  793   6.181   5.985   2.785
  284TIP3    H2  794   6.061   5.892   2.794
  285TIP3   OH2  795   0.925   5.661   3.890
  285TIP3    H1  796   0.915   5.648   3.796
  285TIP3    H2  797   0.843   5.632   3.928
  286TIP3   OH2  798   2.421   4.741   6.492
  286TIP3    H1  799   2.500   4.768   6.538
  286TIP3    H2  800   2.452   4.712   6.406
  287TIP3   OH2  801   2.934   3.489   0.193
  287TIP3    H1  802   2.872   3.422   0.221
  287TIP3    H2  803   3.018   3.443   0.187
  288TIP3   OH2  804   0.438   4.355   2.440
  288TIP3    H1  805   0.522   4.334   2.481
  288TIP3    H2  806   0.380   4.285   2.467
  289TIP3   OH2  807   3.700   0.738   5.132
  289TIP3    H1  808   3.747   0.750   5.214
  289TIP3    H2  809   3.717   0.818   5.082
  290TIP3   OH2  810   4.007   4.175   0.739
  290TIP3    H1  811   3.956   4.219   0.807
  290TIP3    H2  812   4.093   4.164   0.778
  291TIP3   OH2  813   5.906   5.597   2.371
  291TIP3    H1  814   5.826   5.568   2.327
  291TIP3    H2  815   5.962   5.628   2.300
  292TIP3   OH2  816   1.542   6.814   6.015
  292TIP3    H1  817   1.508   6.803   6.104
  292TIP3    H2  818   1.497   6.891   5.981
  293TIP3   OH2  819   5.387   0.641   2.209
  293TIP3    H1  820   5.330   0.713   2.182
  293TIP3    H2  821   5.382   0.640   2.304
  294TIP3   OH2  822   3.842   5.813   4.583
  294TIP3    H1  823   3.805   5.840   4.500
  294TIP3    H2  824   3.831   5.889   4.640
  295TIP3   OH2  825   5.350   0.554   1.431
  295TIP3    H1  826   5.312   0.639   1.456
  295TIP3    H2  827   5.275   0.498   1.414
  296TIP3   OH2  828   0.668   4.133   0.099
  296TIP3    H1  829   0.739   4.075   0.073
  296TIP3    H2  830   0.608   4.133   0.024
  297TIP3   OH2  831   0.578   1.652   4.581
  297TIP3    H1  832   0.623   1.662   4.665
  297TIP3    H2  833   0.489   1.628   4.603
  298TIP3   OH2  834   3.936   0.266   0.461
  298TIP3    H1  835   3.956   0.204   0.390
  298TIP3    H2  836   4.017   0.315   0.474
  299TIP3   OH2  837   6.055   1.339   4.900
  299TIP3    H1  838   6.121   1.297   4.955
  299TIP3    H2  839   6.050   1.285   4.822
  300TIP3   OH2  840   7.967   2.454   6.422
  300TIP3    H1  841   8.012   2.373   6.400
  300TIP3    H2  842   8.011   2.521   6.370
  301TIP3   OH2  843   5.386   5.632   3.750
  301TIP3    H1  844   5.334   5.606   3.826
  301TIP3    H2  845   5.357   5.573   3.681
  302TIP3   OH2  846   1.193   3.429   0.591
  302TIP3    H1  847   1.139   3.355   0.616
  302TIP3    H2  848   1.249   3.446   0.667
  303TIP3   OH2  849   5.832   0.329   4.797
  303TIP3    H1  850   5.875   0.260   4.746
  303TIP3    H2  851   5.748   0.343   4.753
  304TIP3   OH2  852   2.128   6.825   3.259
  304TIP3    H1  853   2.173   6.800   3.178
  304TIP3    H2  854   2.185   6.891   3.298
  305TIP3   OH2  855   2.342   4.408   0.108
  305TIP3    H1  856   2.273   4.363   0.058
  305TIP3    H2  857   2.392   4.457   0.043
  306TIP3   OH2  858   0.706   6.935   0.707
  306TIP3    H1  859   0.630   6.918   0.653
  306TIP3    H2  860   0.670   6.962   0.792
  307TIP3   OH2  861   0.217   6.617   3.994
  307TIP3    H1  862   0.165   6.630   3.914
  307TIP3    H2  863   0.191   6.690   4.051
  308TIP3   OH2  864   5.035   6.240   4.944
  308TIP3    H1  865   4.978   6.302   4.898
  308TIP3    H2  866   5.019   6.257   5.037
  309TIP3   OH2  867   5.706   1.309   2.154
  309TIP3    H1  868   5.761   1.388   2.153
  309TIP3    H2  869   5.767   1.237   2.137
  310TIP3   OH2  870   5.355   6.885   2.025
  310TIP3    H1  871   5.404   6.965   2.007
  310TIP3    H2  872   5.263   6.912   2.028
  311TIP3   OH2  873   7.694   5.597   5.944
  311TIP3    H1  874   7.633   5.570   5.875
  311TIP3    H2  875   7.724   5.514   5.982
  312TIP3   OH2  876   6.494   0.632   2.199
  312TIP3    H1  877   6.489   0.536   2.205
  312TIP3    H2  878   6.423   0.663   2.256
  313TIP3   OH2  879   6.490   3.240   3.512
  313TIP3    H1  880   6.464   3.208   3.598
  313TIP3    H2  881   6.439   3.187   3.450
  314TIP3   OH2  882   6.398   0.675   5.327
  314TIP3    H1  883   6.450   0.744   5.286
  314TIP3    H2  884   6.360   0.716   5.405
  315TIP3   OH2  885   5.493   6.075   5.729
  315TIP3    H1  886   5.556   6.102   5.662
  315TIP3    H2  887   5.546   6.032   5.796
  316TIP3   OH2  888   3.064   7.074   0.830
  316TIP3    H1  889   2.985   7.072   0.777
  316TIP3    H2  890   3.036   7.107   0.915
  317TIP3   OH2  891   7.014   7.115   6.565
  317TIP3    H1  892   6.991   7.208   6.569
  317TIP3    H2  893   7.097   7.108   6.612
  318TIP3   OH2  894   6.204   6.839   4.532
  318TIP3    H1  895   6.183   6.932   4.528
  318TIP3    H2  896   6.242   6.819   4.446
  319TIP3   OH2  897   6.934   3.503   6.751
  319TIP3    H1  898   6.956   3.431   6.810
  319TIP3    H2  899   6.883   3.563   6.805
  320TIP3   OH2  900   2.453   2.032   5.228
  320TIP3    H1  901   2.439   2.051   5.321
  320TIP3    H2  902   2.418   2.109   5.183
  321TIP3   OH2  903   4.764   6.130   5.578
  321TIP3    H1  904   4.796   6.220   5.585
  321TIP3    H2  905   4.701   6.122   5.650
  322TIP3   OH2  906   5.197   5.761   1.426
  322TIP3    H1  907   5.166   5.744   1.515
  322TIP3    H2  908   5.203   5.675   1.385
  323TIP3   OH2  909   7.163   5.390   1.686
  323TIP3    H1  910   7.227   5.389   1.615
  323TIP3    H2  911   7.215   5.390   1.766
  324TIP3   OH2  912   3.910   3.439   4.013
  324TIP3    H1  913   3.873   3.372   4.070
  324TIP3    H2  914   3.907   3.519   4.065
  325TIP3   OH2  915   1.000   3.395   1.087
  325TIP3    H1  916   1.083   3.372   1.045
  325TIP3    H2  917   0.943   3.421   1.015
  326TIP3   OH2  918   1.728   5.094   0.335
  326TIP3    H1  919   1.796   5.077   0.270
  326TIP3    H2  920   1.730   5.016   0.392
  327TIP3   OH2  921   1.438   7.846   0.204
  327TIP3    H1  922   1.397   7.760   0.189
  327TIP3    H2  923   1.498   7.831   0.276
  328TIP3   OH2  924   7.484   7.582   0.390
  328TIP3    H1  925   7.529   7.635   0.323
  328TIP3    H2  926   7.550   7.568   0.457
  329TIP3   OH2  927   3.628   4.980   4.314
  329TIP3    H1  928   3.672   4.910   4.363
  329TIP3    H2  929   3.694   5.009   4.250
  330TIP3   OH2  930   4.490   0.881   1.993
  330TIP3    H1  931   4.429   0.890   2.066
  330TIP3    H2  932   4.459   0.944   1.928
  331TIP3   OH2  933   0.258   6.402   0.236
  331TIP3    H1  934   0.175   6.386   0.191
  331TIP3    H2  935   0.264   6.497   0.243
  332TIP3   OH2  936   8.314   5.517   0.679
  332TIP3    H1  937   8.246   5.581   0.697
  332TIP3    H2  938   8.395   5.560   0.705
  333TIP3   OH2  939   3.662   6.510   4.526
  333TIP3    H1  940   3.602   6.506   4.600
  333TIP3    H2  941   3.610   6.545   4.454
  334TIP3   OH2  942   8.175   4.879   1.393
  334TIP3    H1  943   8.130   4.844   1.470
  334TIP3    H2  944   8.261   4.836   1.394
  335TIP3   OH2  945   2.890   6.152   1.302
  335TIP3    H1  946   2.969   6.166   1.354
  335TIP3    H2  947   2.907   6.198   1.220
  336TIP3   OH2  948   5.770   5.118   2.867
  336TIP3    H1  949   5.856   5.158   2.882
  336TIP3    H2  950   5.708   5.190   2.873
  337TIP3   OH2  951   7.819   2.590   4.593
  337TIP3    H1  952   7.914   2.580   4.592
  337TIP3    H2  953   7.793   2.565   4.682
  338TIP3   OH2  954   5.977   2.614   1.214
  338TIP3    H1  955   6.019   2.697   1.188
  338TIP3    H2  956   5.888   2.640   1.239
  339TIP3   OH2  957   5.426   5.078   3.143
  339TIP3    H1  958   5.340   5.108   3.114
  339TIP3    H2  959   5.407   5.012   3.210
  340TIP3   OH2  960   5.851   4.572   4.621
  340TIP3    H1  961   5.926   4.574   4.561
  340TIP3    H2  962   5.830   4.479   4.630
  341TIP3   OH2  963   3.523   3.035   6.059
  341TIP3    H1  964   3.506   2.946   6.091
  341TIP3    H2  965   3.494   3.092   6.131
  342TIP3   OH2  966   4.798   6.022   0.826
  342TIP3    H1  967   4.870   5.963   0.847
  342TIP3    H2  968   4.825   6.106   0.863
  343TIP3   OH2  969   6.962   3.552   0.208
  343TIP3    H1  970   7.042   3.604   0.221
  343TIP3    H2  971   6.972   3.477   0.267
  344TIP3   OH2  972   4.611   0.016   2.102
  344TIP3    H1  973   4.602   0.105   2.137
  344TIP3    H2  974   4.653   0.028   2.017
  345TIP3   OH2  975   7.630   5.691   4.404
  345TIP3    H1  976   7.723   5.680   4.384
  345TIP3    H2  977   7.585   5.657   4.326
  346TIP3   OH2  978   6.824   4.773   6.417
  346TIP3    H1  979   6.849   4.754   6.327
  346TIP3    H2  980   6.891   4.731   6.471
  347TIP3   OH2  981   6.936   4.415   2.337
  347TIP3    H1  982   6.892   4.348   2.285
  347TIP3    H2  983   6.946   4.490   2.278
  348TIP3   OH2  984   7.131   1.982   0.753
  348TIP3    H1  985   7.137   2.039   0.676
  348TIP3    H2  986   7.174   1.901   0.727
  349TIP3   OH2  987   2.834   7.583   0.846
  349TIP3    H1  988   2.901   7.598   0.913
  349TIP3    H2  989   2.837   7.662   0.792
  350TIP3   OH2  990   1.862   3.569   0.827
  350TIP3    H1  991   1.908   3.497   0.870
  350TIP3    H2  992   1.877   3.554   0.733
  351TIP3   OH2  993   8.174   6.166   2.928
  351TIP3    H1  994   8.232   6.096   2.898
  351TIP3    H2  995   8.104   6.120   2.975
  352TIP3   OH2  996   3.754   6.606   4.161
  352TIP3    H1  997   3.814   6.656   4.216
  352TIP3    H2  998   3.776   6.514   4.179
  353TIP3   OH2  999   2.225   0.129   4.258
  353TIP3    H1 1000   2.286   0.177   4.312
  353TIP3    H2 1001   2.191   0.059   4.315
  354TIP3   OH2 1002   6.084   2.444   3.732
  354TIP3    H1 1003   6.072   2.410   3.643
  354TIP3    H2 1004   6.139   2.379   3.776
  355TIP3   OH2 1005   3.555   0.620   5.512
  355TIP3    H1 1006   3.525   0.659   5.595
  355TIP3    H2 1007   3.477   0.578   5.476
  356TIP3   OH2 1008   8.103   7.427   0.144
  356TIP3    H1 1009   8.099   7.332   0.154
  356TIP3    H2 1010   8.183   7.453   0.189
  357TIP3   OH2 1011   4.561   4.440   1.719
  357TIP3    H1 1012   4.504   4.388   1.775
  357TIP3    H2 1013   4.643   4.448   1.768
  358TIP3   OH2 1014   4.066   0.195   1.076
  358TIP3    H1 1015   4.095   0.274   1.029
  358TIP3    H2 1016   4.071   0.219   1.168
  359TIP3   OH2 1017   5.599   3.007   0.688
  359TIP3    H1 1018   5.518   2.959   0.670
  359TIP3    H2 1019   5.669   2.951   0.654
  360TIP3   OH2 1020   2.159   1.396   1.870
  360TIP3    H1 1021   2.113   1.313   1.869
  360TIP3    H2 1022   2.090   1.462   1.859
  361TIP3   OH2 1023   3.518   1.515   3.346
  361TIP3    H1 1024   3.594   1.572   3.337
  361TIP3    H2 1025   3.443   1.572   3.329
  362TIP3   OH2 1026   3.282   7.107   1.679
  362TIP3    H1 1027   3.285   7.177   1.744
  362TIP3    H2 1028   3.189   7.087   1.669
  363TIP3   OH2 1029   8.236   0.124   2.949
  363TIP3    H1 1030   8.156   0.174   2.932
  363TIP3    H2 1031   8.208   0.051   3.004
  364TIP3   OH2 1032   2.716   3.856   5.275
  364TIP3    H1 1033   2.626   3.886   5.290
  364TIP3    H2 1034   2.707   3.766   5.245
  365TIP3   OH2 1035   3.385   1.340   5.979
  365TIP3    H1 1036   3.325   1.329   6.053
  365TIP3    H2 1037   3.451   1.271   5.992
  366TIP3   OH2 1038   4.550   0.192   0.208
  366TIP3    H1 1039   4.470   0.174   0.158
  366TIP3    H2 1040   4.618   0.201   0.141
  367TIP3   OH2 1041   1.563   7.069   1.238
  367TIP3    H1 1042   1.545   7.011   1.313
  367TIP3    H2 1043   1.481   7.074   1.190
  368TIP3   OH2 1044   4.095   0.008   2.994
  368TIP3    H1 1045   4.051   0.078   2.947
  368TIP3    H2 1046   4.083  -0.069   2.939
  369TIP3   OH2 1047   6.192   7.416   0.925
  369TIP3    H1 1048   6.180   7.428   0.831
  369TIP3    H2 1049   6.224   7.326   0.934
  370TIP3   OH2 1050   3.001   5.833   1.882
  370TIP3    H1 1051   2.943   5.857   1.809
  370TIP3    H2 1052   2.949   5.852   1.960
  371TIP3   OH2 1053   1.121   7.833   1.735
  371TIP3    H1 1054   1.149   7.743   1.754
  371TIP3    H2 1055   1.198   7.887   1.750
  372TIP3   OH2 1056   1.092   3.395   2.975
  372TIP3    H1 1057   1.076   3.487   2.999
  372TIP3    H2 1058   1.078   3.393   2.880
  373TIP3   OH2 1059   1.596   1.134   6.210
  373TIP3    H1 1060   1.578   1.087   6.128
  373TIP3    H2 1061   1.691   1.148   6.207
  374TIP3   OH2 1062   0.563   7.879   2.140
  374TIP3    H1 1063   0.589   7.928   2.218
  374TIP3    H2 1064   0.604   7.794   2.150
  375TIP3   OH2 1065   2.361   0.403   1.595
  375TIP3    H1 1066   2.377   0.497   1.585
  375TIP3    H2 1067   2.446   0.367   1.619
  376TIP3   OH2 1068   3.790   6.822   2.079
  376TIP3    H1 1069   3.841   6.890   2.123
  376TIP3    H2 1070   3.855   6.763   2.040
  377TIP3   OH2 1071   7.657   4.625   4.495
  377TIP3    H1 1072   7.684   4.540   4.529
  377TIP3    H2 1073   7.561   4.624   4.499
  378TIP3   OH2 1074   4.107   2.437   2.632
  378TIP3    H1 1075   4.152   2.405   2.711
  378TIP3    H2 1076   4.014   2.417   2.649
  379TIP3   OH2 1077   5.372   0.876   1.728
  379TIP3    H1 1078   5.384   0.905   1.819
  379TIP3    H2 1079   5.360   0.782   1.734
  380TIP3   OH2 1080   0.135   0.799   6.819
  380TIP3    H1 1081   0.181   0.753   6.889
  380TIP3    H2 1082   0.113   0.730   6.756
  381TIP3   OH2 1083   1.410   2.285   6.605
  381TIP3    H1 1084   1.494   2.329   6.594
  381TIP3    H2 1085   1.385   2.305   6.696
  382TIP3   OH2 1086   2.064   4.008   1.281
  382TIP3    H1 1087   2.145   4.020   1.330
  382TIP3    H2 1088   2.018   3.937   1.326
  383TIP3   OH2 1089   0.950   3.630   5.263
  383TIP3    H1 1090   0.952   3.660   5.354
  383TIP3    H2 1091   1.042   3.617   5.240
  384TIP3   OH2 1092   4.941   3.539   5.404
  384TIP3    H1 1093   4.920   3.594   5.328
  384TIP3    H2 1094   4.898   3.456   5.387
  385TIP3   OH2 1095   5.559   3.980   3.273
  385TIP3    H1 1096   5.616   4.057   3.278
  385TIP3    H2 1097   5.488   4.006   3.214
  386TIP3   OH2 1098   0.508   3.217   5.293
  386TIP3    H1 1099   0.524   3.161   5.370
  386TIP3    H2 1100   0.417   3.244   5.303
  387TIP3   OH2 1101   3.650   2.365   1.420
  387TIP3    H1 1102   3.641   2.443   1.474
  387TIP3    H2 1103   3.709   2.308   1.470
  388TIP3   OH2 1104   5.716   1.793   5.998
  388TIP3    H1 1105   5.763   1.836   5.927
  388TIP3    H2 1106   5.782   1.739   6.042
  389TIP3   OH2 1107   3.461   6.578   4.346
  389TIP3    H1 1108   3.453   6.583   4.251
  389TIP3    H2 1109   3.426   6.492   4.369
  390TIP3   OH2 1110   0.582   3.295   1.946
  390TIP3    H1 1111   0.676   3.279   1.944
  390TIP3    H2 1112   0.558   3.310   1.854
  391TIP3   OH2 1113   8.019   2.106   0.881
  391TIP3    H1 1114   7.952   2.122   0.814
  391TIP3    H2 1115   8.044   2.193   0.911
  392TIP3   OH2 1116   2.856   7.207   6.642
  392TIP3    H1 1117   2.789   7.267   6.677
  392TIP3    H2 1118   2.826   7.187   6.553
  393TIP3   OH2 1119   1.642   4.355   4.496
  393TIP3    H1 1120   1.695   4.400   4.430
  393TIP3    H2 1121   1.683   4.268   4.504
  394TIP3   OH2 1122   1.675   5.333   3.670
  394TIP3    H1 1123   1.607   5.382   3.716
  394TIP3    H2 1124   1.644   5.329   3.579
  395TIP3   OH2 1125   6.523   0.476   1.553
  395TIP3    H1 1126   6.609   0.519   1.553
  395TIP3    H2 1127   6.466   0.537   1.599
  396TIP3   OH2 1128   6.353   5.415   6.199
  396TIP3    H1 1129   6.275   5.366   6.173
  396TIP3    H2 1130   6.330   5.454   6.283
  397TIP3   OH2 1131   0.769   4.596   2.314
  397TIP3    H1 1132   0.736   4.590   2.225
  397TIP3    H2 1133   0.709   4.656   2.358
  398TIP3   OH2 1134   3.077   1.445   0.173
  398TIP3    H1 1135   3.027   1.369   0.144
  398TIP3    H2 1136   3.093   1.428   0.266
  399TIP3   OH2 1137   3.266   2.707   4.350
  399TIP3    H1 1138   3.184   2.658   4.343
  399TIP3    H2 1139   3.335   2.641   4.346
  400TIP3   OH2 1140   0.542   5.616   2.477
  400TIP3    H1 1141   0.614   5.643   2.420
  400TIP3    H2 1142   0.549   5.674   2.553
  401TIP3   OH2 1143   7.067   5.083   4.307
  401TIP3    H1 1144   7.004   5.024   4.266
  401TIP3    H2 1145   7.083   5.151   4.241
  402TIP3   OH2 1146   4.769   4.001   2.597
  402TIP3    H1 1147   4.805   3.990   2.685
  402TIP3    H2 1148   4.823   3.944   2.542
  403TIP3   OH2 1149   5.038   0.363   6.521
  403TIP3    H1 1150   5.108   0.315   6.565
  403TIP3    H2 1151   5.028   0.319   6.436
  404TIP3   OH2 1152   8.280   2.154   2.024
  404TIP3    H1 1153   8.330   2.234   2.037
  404TIP3    H2 1154   8.322   2.090   2.082
  405TIP3   OH2 1155   5.934   3.025   6.704
  405TIP3    H1 1156   6.023   3.061   6.704
  405TIP3    H2 1157   5.942   2.942   6.751
  406TIP3   OH2 1158   4.410   4.021   2.834
  406TIP3    H1 1159   4.437   3.984   2.919
  406TIP3    H2 1160   4.445   4.109   2.834
  407TIP3   OH2 1161   3.296   2.037   1.866
  407TIP3    H1 1162   3.236   1.964   1.850
  407TIP3    H2 1163   3.251   2.091   1.932
  408TIP3   OH2 1164   6.433   1.551   3.764
  408TIP3    H1 1165   6.431   1.608   3.687
  408TIP3    H2 1166   6.455   1.610   3.837
  409TIP3   OH2 1167   2.788   4.894   6.007
  409TIP3    H1 1168   2.711   4.864   6.056
  409TIP3    H2 1169   2.838   4.815   5.990
  410TIP3   OH2 1170   2.744   6.538   6.019
  410TIP3    H1 1171   2.665   6.584   5.991
  410TIP3    H2 1172   2.727   6.517   6.111
  411TIP3   OH2 1173   8.116   7.884   1.960
  411TIP3    H1 1174   8.055   7.824   1.919
  411TIP3    H2 1175   8.158   7.929   1.887
  412TIP3   OH2 1176   4.568   2.949   6.378
  412TIP3    H1 1177   4.629   2.925   6.448
  412TIP3    H2 1178   4.619   2.939   6.298
  413TIP3   OH2 1179   7.169   0.636   2.304
  413TIP3    H1 1180   7.157   0.697   2.377
  413TIP3    H2 1181   7.084   0.633   2.261
  414TIP3   OH2 1182   6.438   0.810   2.790
  414TIP3    H1 1183   6.379   0.863   2.843
  414TIP3    H2 1184   6.509   0.786   2.851
  415TIP3   OH2 1185   4.368   5.094   6.531
  415TIP3    H1 1186   4.406   5.177   6.501
  415TIP3    H2 1187   4.379   5.097   6.627
  416TIP3   OH2 1188   2.315   3.384   5.029
  416TIP3    H1 1189   2.409   3.397   5.040
  416TIP3    H2 1190   2.307   3.297   4.990
  417TIP3   OH2 1191   4.165   2.992   6.644
  417TIP3    H1 1192   4.161   2.987   6.548
  417TIP3    H2 1193   4.078   2.961   6.672
  418TIP3   OH2 1194   3.199   1.854   1.065
  418TIP3    H1 1195   3.168   1.928   1.117
  418TIP3    H2 1196   3.291   1.874   1.048
  419TIP3   OH2 1197   5.745   1.263   3.475
  419TIP3    H1 1198   5.721   1.201   3.544
  419TIP3    H2 1199   5.831   1.295   3.500
  420TIP3   OH2 1200   0.649   7.445   1.512
  420TIP3    H1 1201   0.657   7.519   1.451
  420TIP3    H2 1202   0.557   7.420   1.508
  421TIP3   OH2 1203   5.664   7.560   1.224
  421TIP3    H1 1204   5.587   7.617   1.235
  421TIP3    H2 1205   5.724   7.611   1.170
  422TIP3   OH2 1206   0.235   5.941   1.352
  422TIP3    H1 1207   0.232   5.934   1.257
  422TIP3    H2 1208   0.184   5.866   1.383
  423TIP3   OH2 1209   0.865   4.939   5.300
  423TIP3    H1 1210   0.792   5.000   5.293
  423TIP3    H2 1211   0.877   4.927   5.395
  424TIP3   OH2 1212   1.787   7.758   1.175
  424TIP3    H1 1213   1.787   7.807   1.093
  424TIP3    H2 1214   1.851   7.688   1.161
  425TIP3   OH2 1215   7.411   4.304   6.196
  425TIP3    H1 1216   7.488   4.263   6.236
  425TIP3    H2 1217   7.371   4.234   6.145
  426TIP3   OH2 1218   4.422   0.774   0.775
  426TIP3    H1 1219   4.329   0.790   0.793
  426TIP3    H2 1220   4.463   0.860   0.782
  427TIP3   OH2 1221   1.738   6.095   5.577
  427TIP3    H1 1222   1.751   6.071   5.669
  427TIP3    H2 1223   1.650   6.132   5.574
  428TIP3   OH2 1224   0.099   3.519   1.548
  428TIP3    H1 1225   0.182   3.551   1.582
  428TIP3    H2 1226   0.088   3.433   1.588
  429TIP3   OH2 1227   0.755   3.871   6.006
  429TIP3    H1 1228   0.690   3.913   5.949
  429TIP3    H2 1229   0.758   3.928   6.083
  430TIP3   OH2 1230   3.800   7.202   1.259
  430TIP3    H1 1231   3.728   7.202   1.323
  430TIP3    H2 1232   3.813   7.295   1.238
  431TIP3   OH2 1233   7.265   6.063   2.399
  431TIP3    H1 1234   7.275   5.985   2.454
  431TIP3    H2 1235   7.328   6.050   2.328
  432TIP3   OH2 1236   1.423   2.648   3.691
  432TIP3    H1 1237   1.333   2.657   3.660
  432TIP3    H2 1238   1.416   2.640   3.786
  433TIP3   OH2 1239   7.416   1.027   5.801
  433TIP3    H1 1240   7.489   0.983   5.758
  433TIP3    H2 1241   7.457   1.088   5.863
  434TIP3   OH2 1242   3.040   4.718   0.404
  434TIP3    H1 1243   2.949   4.726   0.432
  434TIP3    H2 1244   3.076   4.806   0.412
  435TIP3   OH2 1245   4.295   6.028   3.361
  435TIP3    H1 1246   4.292   5.964   3.290
  435TIP3    H2 1247   4.300   5.974   3.441
  436TIP3   OH2 1248   5.357   7.933   1.377
  436TIP3    H1 1249   5.366   7.850   1.330
  436TIP3    H2 1250   5.362   7.909   1.469
  437TIP3   OH2 1251   2.691   2.406   3.521
  437TIP3    H1 1252   2.660   2.359   3.599
  437TIP3    H2 1253   2.725   2.337   3.464
  438TIP3   OH2 1254   0.969   0.593   6.484
  438TIP3    H1 1255   0.896   0.653   6.500
  438TIP3    H2 1256   1.042   0.631   6.533
  439TIP3   OH2 1257   5.259   1.419   0.724
  439TIP3    H1 1258   5.325   1.488   0.726
  439TIP3    H2 1259   5.182   1.460   0.686
  440TIP3   OH2 1260   0.503   7.260   2.658
  440TIP3    H1 1261   0.456   7.265   2.575
  440TIP3    H2 1262   0.578   7.319   2.648
  441TIP3   OH2 1263   3.324   5.906   4.430
  441TIP3    H1 1264   3.320   5.945   4.517
  441TIP3    H2 1265   3.367   5.822   4.443
  442TIP3   OH2 1266   3.646   3.938   2.615
  442TIP3    H1 1267   3.738   3.913   2.607
  442TIP3    H2 1268   3.630   3.995   2.540
  443TIP3   OH2 1269   4.302   1.222   6.558
  443TIP3    H1 1270   4.264   1.307   6.536
  443TIP3    H2 1271   4.386   1.221   6.513
  444TIP3   OH2 1272   6.414   1.096   3.830
  444TIP3    H1 1273   6.503   1.125   3.809
  444TIP3    H2 1274   6.363   1.120   3.753
  445TIP3   OH2 1275   2.808   2.871   3.205
  445TIP3    H1 1276   2.776   2.925   3.277
  445TIP3    H2 1277   2.794   2.781   3.234
  446TIP3   OH2 1278   5.440   0.961   3.157
  446TIP3    H1 1279   5.525   0.954   3.201
  446TIP3    H2 1280   5.397   1.035   3.200
  447TIP3   OH2 1281   4.315   3.257   4.700
  447TIP3    H1 1282   4.332   3.316   4.627
  447TIP3    H2 1283   4.398   3.254   4.749
  448TIP3   OH2 1284   4.129   4.097   1.475
  448TIP3    H1 1285   4.138   4.014   1.430
  448TIP3    H2 1286   4.153   4.163   1.409
  449TIP3   OH2 1287   4.719   1.033   1.517
  449TIP3    H1 1288   4.785   0.980   1.471
  449TIP3    H2 1289   4.672   0.970   1.572
  450TIP3   OH2 1290   7.437   7.858   3.283
  450TIP3    H1 1291   7.509   7.899   3.330
  450TIP3    H2 1292   7.478   7.785   3.236
  451TIP3   OH2 1293   3.429   3.630   4.133
  451TIP3    H1 1294   3.355   3.623   4.194
  451TIP3    H2 1295   3.394   3.599   4.050
  452TIP3   OH2 1296   2.137   4.693   2.035
  452TIP3    H1 1297   2.230   4.692   2.011
  452TIP3    H2 1298   2.110   4.601   2.029
  453TIP3   OH2 1299   0.517   6.500   6.427
  453TIP3    H1 1300   0.526   6.562   6.355
  453TIP3    H2 1301   0.530   6.553   6.506
  454TIP3   OH2 1302   8.343   0.340   3.773
  454TIP3    H1 1303   8.392   0.301   3.701
  454TIP3    H2 1304   8.342   0.434   3.754
  455TIP3   OH2 1305   7.050   1.598   2.741
  455TIP3    H1 1306   6.962   1.566   2.721
  455TIP3    H2 1307   7.089   1.531   2.796
  456TIP3   OH2 1308   1.563   7.529   0.409
  456TIP3    H1 1309   1.591   7.443   0.441
  456TIP3    H2 1310   1.568   7.586   0.485
  457TIP3   OH2 1311   1.036   3.084   4.408
  457TIP3    H1 1312   1.083   3.001   4.420
  457TIP3    H2 1313   1.019   3.115   4.497
  458TIP3   OH2 1314   8.247   0.383   1.601
  458TIP3    H1 1315   8.275   0.433   1.677
  458TIP3    H2 1316   8.275   0.293   1.618
  459TIP3   OH2 1317   6.976   3.624   3.698
  459TIP3    H1 1318   7.023   3.662   3.772
  459TIP3    H2 1319   6.997   3.531   3.701
  460TIP3   OH2 1320   8.377   0.579   3.436
  460TIP3    H1 1321   8.416   0.491   3.436
  460TIP3    H2 1322   8.305   0.573   3.373
  461TIP3   OH2 1323   4.667   0.223   2.625
  461TIP3    H1 1324   4.725   0.237   2.700
  461TIP3    H2 1325   4.629   0.309   2.608
  462TIP3   OH2 1326   8.076   5.854   1.494
  462TIP3    H1 1327   8.142   5.922   1.491
  462TIP3    H2 1328   8.120   5.775   1.462
  463TIP3   OH2 1329   1.519   1.342   2.149
  463TIP3    H1 1330   1.492   1.417   2.098
  463TIP3    H2 1331   1.554   1.380   2.230
  464TIP3   OH2 1332   2.721   2.097   6.259
  464TIP3    H1 1333   2.764   2.016   6.233
  464TIP3    H2 1334   2.702   2.086   6.352
  465TIP3   OH2 1335   1.091   0.111   0.931
  465TIP3    H1 1336   1.181   0.140   0.944
  465TIP3    H2 1337   1.042   0.151   1.003
  466TIP3   OH2 1338   5.779   1.834   5.003
  466TIP3    H1 1339   5.817   1.748   4.987
  466TIP3    H2 1340   5.688   1.826   4.976
  467TIP3   OH2 1341   3.112   4.570   5.975
  467TIP3    H1 1342   3.173   4.637   6.006
  467TIP3    H2 1343   3.168   4.501   5.941
  468TIP3   OH2 1344   7.859   4.205   2.387
  468TIP3    H1 1345   7.861   4.250   2.302
  468TIP3    H2 1346   7.775   4.232   2.425
  469TIP3   OH2 1347   4.611   3.360   3.231
  469TIP3    H1 1348   4.651   3.356   3.144
  469TIP3    H2 1349   4.670   3.417   3.282
  470TIP3   OH2 1350   7.869   5.703   1.047
  470TIP3    H1 1351   7.823   5.726   0.966
  470TIP3    H2 1352   7.825   5.754   1.115
  471TIP3   OH2 1353   0.447   3.691   2.328
  471TIP3    H1 1354   0.360   3.718   2.357
  471TIP3    H2 1355   0.466   3.614   2.381
  472TIP3   OH2 1356   0.020   7.389   2.497
  472TIP3    H1 1357  -0.014   7.452   2.434
  472TIP3    H2 1358   0.093   7.434   2.540
  473TIP3   OH2 1359   5.479   6.513   0.156
  473TIP3    H1 1360   5.425   6.498   0.079
  473TIP3    H2 1361   5.523   6.429   0.172
  474TIP3   OH2 1362   7.210   3.179   6.825
  474TIP3    H1 1363   7.169   3.168   6.739
  474TIP3    H2 1364   7.301   3.154   6.812
  475TIP3   OH2 1365   4.876   2.114   5.004
  475TIP3    H1 1366   4.835   2.072   5.080
  475TIP3    H2 1367   4.968   2.090   5.010
  476TIP3   OH2 1368   5.202   2.818   3.259
  476TIP3    H1 1369   5.158   2.856   3.183
  476TIP3    H2 1370   5.169   2.868   3.334
  477TIP3   OH2 1371   8.291   6.862   5.065
  477TIP3    H1 1372   8.369   6.913   5.089
  477TIP3    H2 1373   8.278   6.803   5.139
  478TIP3   OH2 1374   7.489   1.169   4.057
  478TIP3    H1 1375   7.481   1.253   4.012
  478TIP3    H2 1376   7.415   1.167   4.118
  479TIP3   OH2 1377   7.361   1.833   2.138
  479TIP3    H1 1378   7.402   1.749   2.163
  479TIP3    H2 1379   7.387   1.846   2.047
  480TIP3   OH2 1380   6.706   6.642   4.145
  480TIP3    H1 1381   6.640   6.697   4.102
  480TIP3    H2 1382   6.789   6.686   4.125
  481TIP3   OH2 1383   1.365   7.452   4.677
  481TIP3    H1 1384   1.359   7.411   4.591
  481TIP3    H2 1385   1.331   7.387   4.738
  482TIP3   OH2 1386   2.634   3.381   0.581
  482TIP3    H1 1387   2.652   3.419   0.495
  482TIP3    H2 1388   2.710   3.326   0.599
  483TIP3   OH2 1389   3.800   6.113   6.062
  483TIP3    H1 1390   3.733   6.070   6.116
  483TIP3    H2 1391   3.796   6.205   6.087
  484TIP3   OH2 1392   2.584   6.311   4.193
  484TIP3    H1 1393   2.490   6.290   4.191
  484TIP3    H2 1394   2.626   6.230   4.222
  485TIP3   OH2 1395   7.160   7.333   1.293
  485TIP3    H1 1396   7.126   7.323   1.382
  485TIP3    H2 1397   7.087   7.309   1.237
  486TIP3   OH2 1398   2.193   6.979   0.541
  486TIP3    H1 1399   2.153   7.040   0.603
  486TIP3    H2 1400   2.179   6.893   0.580
  487TIP3   OH2 1401   8.218   7.827   0.547
  487TIP3    H1 1402   8.124   7.814   0.556
  487TIP3    H2 1403   8.228   7.922   0.535
  488TIP3   OH2 1404   6.119   6.685   1.355
  488TIP3    H1 1405   6.200   6.733   1.371
  488TIP3    H2 1406   6.049   6.745   1.379
  489TIP3   OH2 1407   5.030   1.491   0.540
  489TIP3    H1 1408   5.053   1.412   0.492
  489TIP3    H2 1409   5.048   1.562   0.479
  490TIP3   OH2 1410   0.701   1.884   6.797
  490TIP3    H1 1411   0.639   1.822   6.835
  490TIP3    H2 1412   0.698   1.960   6.856
  491TIP3   OH2 1413   1.748   5.284   5.552
  491TIP3    H1 1414   1.741   5.244   5.465
  491TIP3    H2 1415   1.827   5.339   5.547
  492TIP3   OH2 1416   3.282   1.433   1.003
  492TIP3    H1 1417   3.313   1.376   0.932
  492TIP3    H2 1418   3.337   1.410   1.078
  493TIP3   OH2 1419   2.340   5.654   0.229
  493TIP3    H1 1420   2.415   5.709   0.252
  493TIP3    H2 1421   2.379   5.578   0.185
  494TIP3   OH2 1422   1.992   1.517   5.564
  494TIP3    H1 1423   1.996   1.577   5.490
  494TIP3    H2 1424   2.083   1.507   5.591
  495TIP3   OH2 1425   7.519   1.728   4.325
  495TIP3    H1 1426   7.446   1.785   4.350
  495TIP3    H2 1427   7.478   1.646   4.300
  496TIP3   OH2 1428   3.565   0.693   4.112
  496TIP3    H1 1429   3.538   0.764   4.170
  496TIP3    H2 1430   3.555   0.729   4.024
  497TIP3   OH2 1431   1.979   7.518   6.655
  497TIP3    H1 1432   1.919   7.478   6.718
  497TIP3    H2 1433   1.925   7.534   6.577
  498TIP3   OH2 1434   2.513   0.587   2.581
  498TIP3    H1 1435   2.553   0.656   2.634
  498TIP3    H2 1436   2.434   0.627   2.545
  499TIP3   OH2 1437   4.220   4.055   0.848
  499TIP3    H1 1438   4.284   4.003   0.897
  499TIP3    H2 1439   4.231   4.027   0.757
  500TIP3   OH2 1440   8.156   2.864   5.659
  500TIP3    H1 1441   8.087   2.916   5.618
  500TIP3    H2 1442   8.156   2.891   5.751
  501TIP3   OH2 1443   2.434   4.689   4.360
  501TIP3    H1 1444   2.457   4.759   4.422
  501TIP3    H2 1445   2.356   4.649   4.397
  502TIP3   OH2 1446   4.840   1.977   0.697
  502TIP3    H1 1447   4.819   1.944   0.785
  502TIP3    H2 1448   4.769   2.037   0.677
  503TIP3   OH2 1449   2.967   4.672   4.752
  503TIP3    H1 1450   2.947   4.605   4.687
  503TIP3    H2 1451   3.037   4.725   4.712
  504TIP3   OH2 1452   3.711   0.357   2.882
  504TIP3    H1 1453   3.796   0.321   2.858
  504TIP3    H2 1454   3.706   0.346   2.977
  505TIP3   OH2 1455   6.711   0.583   3.505
  505TIP3    H1 1456   6.623   0.620   3.509
  505TIP3    H2 1457   6.767   0.652   3.543
  506TIP3   OH2 1458   0.062   7.846   5.228
  506TIP3    H1 1459   0.024   7.849   5.141
  506TIP3    H2 1460   0.157   7.847   5.213
  507TIP3   OH2 1461   3.550   2.510   6.412
  507TIP3    H1 1462   3.467   2.549   6.439
  507TIP3    H2 1463   3.577   2.458   6.487
  508TIP3   OH2 1464   2.448   0.653   4.541
  508TIP3    H1 1465   2.468   0.665   4.634
  508TIP3    H2 1466   2.515   0.591   4.511
  509TIP3   OH2 1467   4.154   4.526   0.908
  509TIP3    H1 1468   4.213   4.450   0.905
  509TIP3    H2 1469   4.209   4.600   0.883
  510TIP3   OH2 1470   3.680   0.879   1.872
  510TIP3    H1 1471   3.694   0.883   1.967
  510TIP3    H2 1472   3.756   0.924   1.835
  511TIP3   OH2 1473   0.696   2.148   6.088
  511TIP3    H1 1474   0.712   2.213   6.156
  511TIP3    H2 1475   0.674   2.198   6.010
  512TIP3   OH2 1476   4.849   1.267   1.706
  512TIP3    H1 1477   4.909   1.322   1.656
  512TIP3    H2 1478   4.835   1.190   1.651
  513TIP3   OH2 1479   7.023   5.665   1.669
  513TIP3    H1 1480   7.081   5.590   1.687
  513TIP3    H2 1481   7.027   5.717   1.749
  514TIP3   OH2 1482   1.042   2.599   2.338
  514TIP3    H1 1483   1.018   2.564   2.424
  514TIP3    H2 1484   0.962   2.640   2.306
  515TIP3   OH2 1485   4.415   7.736   6.690
  515TIP3    H1 1486   4.501   7.767   6.662
  515TIP3    H2 1487   4.431   7.692   6.774
  516TIP3   OH2 1488   1.089   0.248   2.986
  516TIP3    H1 1489   1.174   0.244   3.030
  516TIP3    H2 1490   1.085   0.337   2.950
  517TIP3   OH2 1491   0.511   4.666   5.753
  517TIP3    H1 1492   0.593   4.702   5.720
  517TIP3    H2 1493   0.502   4.702   5.841
  518TIP3   OH2 1494   1.734   4.925   1.097
  518TIP3    H1 1495   1.652   4.886   1.125
  518TIP3    H2 1496   1.795   4.907   1.168
  519TIP3   OH2 1497   4.365   3.383   3.722
  519TIP3    H1 1498   4.331   3.299   3.752
  519TIP3    H2 1499   4.345   3.386   3.628
  520TIP3   OH2 1500   4.061   5.478   0.524
  520TIP3    H1 1501   4.041   5.430   0.444
  520TIP3    H2 1502   4.027   5.423   0.595
  521TIP3   OH2 1503   5.414   5.954   6.835
  521TIP3    H1 1504   5.497   6.001   6.833
  521TIP3    H2 1505   5.381   5.960   6.745
  522TIP3   OH2 1506   1.046   4.282   1.581
  522TIP3    H1 1507   0.996   4.349   1.627
  522TIP3    H2 1508   0.992   4.258   1.506
  523TIP3   OH2 1509   6.071   4.262   1.975
  523TIP3    H1 1510   6.059   4.283   1.882
  523TIP3    H2 1511   5.994   4.209   1.997
  524TIP3   OH2 1512   5.748   1.009   2.704
  524TIP3    H1 1513   5.675   0.964   2.661
  524TIP3    H2 1514   5.711   1.042   2.786
  525TIP3   OH2 1515   0.566   7.774   0.921
  525TIP3    H1 1516   0.522   7.760   0.838
  525TIP3    H2 1517   0.593   7.866   0.920
  526TIP3   OH2 1518   7.447   4.245   3.609
  526TIP3    H1 1519   7.494   4.327   3.621
  526TIP3    H2 1520   7.478   4.211   3.525
  527TIP3   OH2 1521   2.104   2.088   2.251
  527TIP3    H1 1522   2.117   2.183   2.246
  527TIP3    H2 1523   2.117   2.058   2.161
  528TIP3   OH2 1524   7.758   5.041   2.979
  528TIP3    H1 1525   7.844   5.018   2.944
  528TIP3    H2 1526   7.775   5.112   3.040
  529TIP3   OH2 1527   0.858   1.687   2.851
  529TIP3    H1 1528   0.945   1.654   2.831
  529TIP3    H2 1529   0.868   1.733   2.934
  530TIP3   OH2 1530   1.091   3.924   2.080
  530TIP3    H1 1531   0.996   3.910   2.086
  530TIP3    H2 1532   1.108   3.937   1.987
  531TIP3   OH2 1533   6.478   3.488   2.167
  531TIP3    H1 1534   6.501   3.435   2.243
  531TIP3    H2 1535   6.406   3.441   2.126
  532TIP3   OH2 1536   7.690   6.797   3.380
  532TIP3    H1 1537   7.671   6.875   3.431
  532TIP3    H2 1538   7.645   6.726   3.426
  533TIP3   OH2 1539   6.714   1.345   5.931
  533TIP3    H1 1540   6.633   1.386   5.901
  533TIP3    H2 1541   6.772   1.348   5.855
  534TIP3   OH2 1542   0.282   3.458   1.990
  534TIP3    H1 1543   0.308   3.370   2.017
  534TIP3    H2 1544   0.186   3.454   1.985
  535TIP3   OH2 1545   3.710   2.918   5.695
  535TIP3    H1 1546   3.740   2.950   5.781
  535TIP3    H2 1547   3.775   2.950   5.634
  536TIP3   OH2 1548   5.879   2.165   5.483
  536TIP3    H1 1549   5.868   2.095   5.419
  536TIP3    H2 1550   5.790   2.194   5.503
  537TIP3   OH2 1551   3.840   7.883   4.089
  537TIP3    H1 1552   3.887   7.817   4.141
  537TIP3    H2 1553   3.858   7.860   3.998
  538TIP3   OH2 1554   4.989   7.700   0.697
  538TIP3    H1 1555   5.040   7.740   0.626
  538TIP3    H2 1556   4.920   7.652   0.651
  539TIP3   OH2 1557   7.480   3.467   0.640
  539TIP3    H1 1558   7.508   3.440   0.727
  539TIP3    H2 1559   7.467   3.386   0.592
  540TIP3   OH2 1560   7.213   5.229   3.577
  540TIP3    H1 1561   7.301   5.260   3.599
  540TIP3    H2 1562   7.155   5.279   3.634
  541TIP3   OH2 1563   5.605   4.376   5.139
  541TIP3    H1 1564   5.693   4.352   5.111
  541TIP3    H2 1565   5.608   4.471   5.150
  542TIP3   OH2 1566   0.696   5.766   1.584
  542TIP3    H1 1567   0.705   5.684   1.632
  542TIP3    H2 1568   0.717   5.743   1.493
  543TIP3   OH2 1569   5.734   6.003   3.321
  543TIP3    H1 1570   5.778   5.961   3.247
  543TIP3    H2 1571   5.644   6.014   3.291
  544TIP3   OH2 1572   7.102   4.867   5.941
  544TIP3    H1 1573   7.180   4.916   5.966
  544TIP3    H2 1574   7.124   4.776   5.960
  545TIP3   OH2 1575   2.557   6.817   0.776
  545TIP3    H1 1576   2.506   6.813   0.857
  545TIP3    H2 1577   2.506   6.874   0.719
  546TIP3   OH2 1578   7.571   3.037   0.196
  546TIP3    H1 1579   7.604   3.022   0.107
  546TIP3    H2 1580   7.485   2.995   0.197
  547TIP3   OH2 1581   1.983   4.001   2.462
  547TIP3    H1 1582   2.014   3.940   2.395
  547TIP3    H2 1583   2.011   3.962   2.545
  548TIP3   OH2 1584   4.436   0.996   6.030
  548TIP3    H1 1585   4.450   0.937   6.104
  548TIP3    H2 1586   4.498   1.067   6.043
  549TIP3   OH2 1587   0.766   4.163   4.248
  549TIP3    H1 1588   0.776   4.244   4.298
  549TIP3    H2 1589   0.856   4.134   4.231
  550TIP3   OH2 1590   2.026   6.606   3.424
  550TIP3    H1 1591   2.070   6.680   3.382
  550TIP3    H2 1592   1.990   6.642   3.505
  551TIP3   OH2 1593   2.149   3.726   5.382
  551TIP3    H1 1594   2.165   3.817   5.408
  551TIP3    H2 1595   2.202   3.713   5.304
  552TIP3   OH2 1596   0.905   3.671   5.842
  552TIP3    H1 1597   0.827   3.631   5.803
  552TIP3    H2 1598   0.871   3.740   5.899
  553TIP3   OH2 1599   2.696   6.782   1.700
  553TIP3    H1 1600   2.760   6.719   1.733
  553TIP3    H2 1601   2.683   6.844   1.772
  554TIP3   OH2 1602   1.494   4.195   3.698
  554TIP3    H1 1603   1.474   4.274   3.748
  554TIP3    H2 1604   1.419   4.183   3.640
  555TIP3   OH2 1605   8.345   2.194   3.771
  555TIP3    H1 1606   8.261   2.199   3.816
  555TIP3    H2 1607   8.338   2.114   3.719
  556TIP3   OH2 1608   7.512   0.416   2.389
  556TIP3    H1 1609   7.471   0.499   2.364
  556TIP3    H2 1610   7.533   0.373   2.307
  557TIP3   OH2 1611   7.776   7.223   3.658
  557TIP3    H1 1612   7.807   7.133   3.671
  557TIP3    H2 1613   7.761   7.229   3.563
  558TIP3   OH2 1614   6.274   6.616   2.613
  558TIP3    H1 1615   6.341   6.579   2.555
  558TIP3    H2 1616   6.267   6.553   2.685
  559TIP3   OH2 1617   3.957   2.057   6.323
  559TIP3    H1 1618   4.019   2.122   6.354
  559TIP3    H2 1619   3.887   2.058   6.388
  560TIP3   OH2 1620   4.777   0.072   1.882
  560TIP3    H1 1621   4.841   0.030   1.825
  560TIP3    H2 1622   4.808   0.162   1.892
  561TIP3   OH2 1623   0.543   1.029   4.006
  561TIP3    H1 1624   0.558   1.116   4.042
  561TIP3    H2 1625   0.630   0.998   3.979
  562TIP3   OH2 1626   4.658   1.451   6.501
  562TIP3    H1 1627   4.659   1.376   6.561
  562TIP3    H2 1628   4.685   1.525   6.554
  563TIP3   OH2 1629   8.051   1.213   4.490
  563TIP3    H1 1630   8.096   1.130   4.475
  563TIP3    H2 1631   7.989   1.220   4.417
  564TIP3   OH2 1632   3.603   7.620   2.628
  564TIP3    H1 1633   3.625   7.705   2.589
  564TIP3    H2 1634   3.636   7.625   2.718
  565TIP3   OH2 1635   1.885   6.924   2.059
  565TIP3    H1 1636   1.880   7.017   2.082
  565TIP3    H2 1637   1.898   6.880   2.143
  566TIP3   OH2 1638   7.342   0.995   6.315
  566TIP3    H1 1639   7.409   0.928   6.302
  566TIP3    H2 1640   7.266   0.948   6.347
  567TIP3   OH2 1641   6.872   2.581   1.520
  567TIP3    H1 1642   6.896   2.608   1.432
  567TIP3    H2 1643   6.938   2.517   1.545
  568TIP3   OH2 1644   1.423   0.371   0.260
  568TIP3    H1 1645   1.384   0.397   0.343
  568TIP3    H2 1646   1.349   0.372   0.198
  569TIP3   OH2 1647   7.650   4.808   6.404
  569TIP3    H1 1648   7.582   4.799   6.471
  569TIP3    H2 1649   7.670   4.718   6.379
  570TIP3   OH2 1650   7.994   6.915   2.541
  570TIP3    H1 1651   7.927   6.908   2.474
  570TIP3    H2 1652   8.033   7.002   2.527
  571TIP3   OH2 1653   0.112   1.791   6.773
  571TIP3    H1 1654   0.161   1.749   6.703
  571TIP3    H2 1655   0.137   1.883   6.768
  572TIP3   OH2 1656   5.801   4.325   0.742
  572TIP3    H1 1657   5.875   4.377   0.710
  572TIP3    H2 1658   5.738   4.326   0.670
  573TIP3   OH2 1659   6.288   1.980   2.958
  573TIP3    H1 1660   6.203   2.021   2.973
  573TIP3    H2 1661   6.300   1.922   3.033
  574TIP3   OH2 1662   4.794   3.732   5.566
  574TIP3    H1 1663   4.849   3.665   5.524
  574TIP3    H2 1664   4.783   3.799   5.500
  575TIP3   OH2 1665   8.027   6.689   0.095
  575TIP3    H1 1666   8.070   6.760   0.047
  575TIP3    H2 1667   7.976   6.643   0.029
  576TIP3   OH2 1668   5.240   4.229   5.949
  576TIP3    H1 1669   5.190   4.223   5.868
  576TIP3    H2 1670   5.277   4.141   5.960
  577TIP3   OH2 1671   6.083   4.550   2.482
  577TIP3    H1 1672   6.169   4.518   2.455
  577TIP3    H2 1673   6.097   4.589   2.568
  578TIP3   OH2 1674   1.850   3.158   4.156
  578TIP3    H1 1675   1.867   3.128   4.067
  578TIP3    H2 1676   1.769   3.208   4.149
  579TIP3   OH2 1677   4.798   1.561   6.719
  579TIP3    H1 1678   4.837   1.647   6.705
  579TIP3    H2 1679   4.765   1.564   6.808
  580TIP3   OH2 1680   3.968   3.441   2.599
  580TIP3    H1 1681   3.971   3.489   2.516
  580TIP3    H2 1682   3.970   3.349   2.574
  581TIP3   OH2 1683   3.786   2.617   3.650
  581TIP3    H1 1684   3.830   2.578   3.726
  581TIP3    H2 1685   3.705   2.567   3.641
  582TIP3   OH2 1686   2.102   5.043   4.266
  582TIP3    H1 1687   2.169   5.073   4.327
  582TIP3    H2 1688   2.105   5.106   4.194
  583TIP3   OH2 1689   0.413   4.295   1.520
  583TIP3    H1 1690   0.326   4.275   1.485
  583TIP3    H2 1691   0.427   4.230   1.589
  584TIP3   OH2 1692   5.401   1.622   0.605
  584TIP3    H1 1693   5.397   1.718   0.600
  584TIP3    H2 1694   5.456   1.596   0.531
  585TIP3   OH2 1695   7.935   5.664   2.981
  585TIP3    H1 1696   7.988   5.649   3.059
  585TIP3    H2 1697   7.967   5.600   2.918
  586TIP3   OH2 1698   2.311   4.995   0.364
  586TIP3    H1 1699   2.308   5.090   0.373
  586TIP3    H2 1700   2.281   4.979   0.274
  587TIP3   OH2 1701   0.846   6.091   5.472
  587TIP3    H1 1702   0.823   5.998   5.475
  587TIP3    H2 1703   0.930   6.093   5.427
  588TIP3   OH2 1704   7.418   0.778   4.149
  588TIP3    H1 1705   7.401   0.707   4.211
  588TIP3    H2 1706   7.445   0.733   4.068
  589TIP3   OH2 1707   1.055   1.694   2.378
  589TIP3    H1 1708   0.968   1.701   2.338
  589TIP3    H2 1709   1.063   1.774   2.430
  590TIP3   OH2 1710   0.026   3.174   2.214
  590TIP3    H1 1711   0.010   3.264   2.183
  590TIP3    H2 1712   0.055   3.184   2.304
  591TIP3   OH2 1713   4.163   2.723   4.536
  591TIP3    H1 1714   4.227   2.794   4.529
  591TIP3    H2 1715   4.205   2.649   4.492
  592TIP3   OH2 1716   1.115   5.386   1.597
  592TIP3    H1 1717   1.034   5.385   1.545
  592TIP3    H2 1718   1.166   5.313   1.564
  593TIP3   OH2 1719   2.219   4.422   2.590
  593TIP3    H1 1720   2.165   4.393   2.664
  593TIP3    H2 1721   2.157   4.460   2.528
  594TIP3   OH2 1722   7.260   6.853   6.237
  594TIP3    H1 1723   7.180   6.801   6.229
  594TIP3    H2 1724   7.298   6.827   6.320
  595TIP3   OH2 1725   2.245   6.495   1.116
  595TIP3    H1 1726   2.335   6.520   1.137
  595TIP3    H2 1727   2.215   6.563   1.055
  596TIP3   OH2 1728   0.955   6.190   0.772
  596TIP3    H1 1729   0.897   6.134   0.719
  596TIP3    H2 1730   0.915   6.190   0.859
  597TIP3   OH2 1731   0.755   0.493   6.840
  597TIP3    H1 1732   0.833   0.447   6.809
  597TIP3    H2 1733   0.682   0.435   6.815
  598TIP3   OH2 1734   2.460   1.160   4.007
  598TIP3    H1 1735   2.434   1.120   4.090
  598TIP3    H2 1736   2.389   1.222   3.987
  599TIP3   OH2 1737   5.296   5.458   5.112
  599TIP3    H1 1738   5.293   5.403   5.033
  599TIP3    H2 1739   5.236   5.415   5.174
  600TIP3   OH2 1740   1.141   3.858   1.119
  600TIP3    H1 1741   1.224   3.841   1.164
  600TIP3    H2 1742   1.166   3.880   1.029
  601TIP3   OH2 1743   6.491   1.428   0.274
  601TIP3    H1 1744   6.573   1.379   0.267
  601TIP3    H2 1745   6.518   1.519   0.284
  602TIP3   OH2 1746   6.623   4.476   6.287
  602TIP3    H1 1747   6.600   4.448   6.199
  602TIP3    H2 1748   6.539   4.500   6.327
  603TIP3   OH2 1749   3.198   4.146   6.420
  603TIP3    H1 1750   3.139   4.075   6.445
  603TIP3    H2 1751   3.273   4.102   6.379
  604TIP3   OH2 1752   4.226   7.240   3.595
  604TIP3    H1 1753   4.134   7.232   3.618
  604TIP3    H2 1754   4.262   7.153   3.608
  605TIP3   OH2 1755   8.010   2.949   4.423
  605TIP3    H1 1756   7.932   2.930   4.475
  605TIP3    H2 1757   8.041   3.033   4.455
  606TIP3   OH2 1758   5.953   3.172   0.127
  606TIP3    H1 1759   5.880   3.231   0.112
  606TIP3    H2 1760   5.965   3.126   0.044
  607TIP3   OH2 1761   5.911   1.334   4.555
  607TIP3    H1 1762   5.849   1.391   4.601
  607TIP3    H2 1763   5.970   1.394   4.510
  608TIP3   OH2 1764   0.127   3.577   6.680
  608TIP3    H1 1765   0.058   3.600   6.618
  608TIP3    H2 1766   0.208   3.588   6.630
  609TIP3   OH2 1767   3.418   0.879   4.963
  609TIP3    H1 1768   3.472   0.927   5.027
  609TIP3    H2 1769   3.370   0.948   4.916
  610TIP3   OH2 1770   5.852   4.277   5.106
  610TIP3    H1 1771   5.875   4.191   5.070
  610TIP3    H2 1772   5.924   4.334   5.077
  611TIP3   OH2 1773   1.001   5.394   3.417
  611TIP3    H1 1774   0.941   5.417   3.347
  611TIP3    H2 1775   1.086   5.382   3.373
  612TIP3   OH2 1776   7.817   5.845   1.263
  612TIP3    H1 1777   7.735   5.882   1.230
  612TIP3    H2 1778   7.806   5.843   1.358
  613TIP3   OH2 1779   7.314   5.173   4.626
  613TIP3    H1 1780   7.332   5.082   4.651
  613TIP3    H2 1781   7.279   5.213   4.706
  614TIP3   OH2 1782   2.656   7.333   6.766
  614TIP3    H1 1783   2.623   7.366   6.849
  614TIP3    H2 1784   2.578   7.319   6.712
  615TIP3   OH2 1785   5.229   7.472   1.600
  615TIP3    H1 1786   5.194   7.509   1.681
  615TIP3    H2 1787   5.215   7.378   1.608
  616TIP3   OH2 1788   3.703   2.648   4.030
  616TIP3    H1 1789   3.737   2.734   4.003
  616TIP3    H2 1790   3.754   2.585   3.980
  617TIP3   OH2 1791   0.679   5.549   3.223
  617TIP3    H1 1792   0.704   5.457   3.219
  617TIP3    H2 1793   0.630   5.564   3.143
  618TIP3   OH2 1794   1.603   6.912   4.488
  618TIP3    H1 1795   1.610   7.005   4.508
  618TIP3    H2 1796   1.530   6.881   4.541
  619TIP3   OH2 1797   6.617   0.889   0.235
  619TIP3    H1 1798   6.670   0.956   0.193
  619TIP3    H2 1799   6.642   0.808   0.190
  620TIP3   OH2 1800   4.558   5.043   3.420
  620TIP3    H1 1801   4.534   5.084   3.337
  620TIP3    H2 1802   4.608   5.110   3.467
  621TIP3   OH2 1803   3.408   5.489   2.502
  621TIP3    H1 1804   3.337   5.445   2.548
  621TIP3    H2 1805   3.423   5.569   2.553
  622TIP3   OH2 1806   6.376   5.358   4.203
  622TIP3    H1 1807   6.329   5.441   4.198
  622TIP3    H2 1808   6.468   5.381   4.189
  623TIP3   OH2 1809   3.700   3.224   4.438
  623TIP3    H1 1810   3.670   3.173   4.363
  623TIP3    H2 1811   3.774   3.174   4.474
  624TIP3   OH2 1812   4.644   4.083   4.369
  624TIP3    H1 1813   4.733   4.066   4.402
  624TIP3    H2 1814   4.600   4.128   4.441
  625TIP3   OH2 1815   0.473   5.867   5.380
  625TIP3    H1 1816   0.380   5.844   5.377
  625TIP3    H2 1817   0.502   5.839   5.467
  626TIP3   OH2 1818   5.968   5.940   4.561
  626TIP3    H1 1819   5.934   5.933   4.650
  626TIP3    H2 1820   6.063   5.938   4.571
  627TIP3   OH2 1821   8.129   4.741   5.070
  627TIP3    H1 1822   8.077   4.735   5.150
  627TIP3    H2 1823   8.157   4.832   5.065
  628TIP3   OH2 1824   2.232   1.668   1.098
  628TIP3    H1 1825   2.315   1.636   1.132
  628TIP3    H2 1826   2.170   1.598   1.117
  629TIP3   OH2 1827   6.126   1.970   0.456
  629TIP3    H1 1828   6.040   2.002   0.429
  629TIP3    H2 1829   6.110   1.932   0.543
  630TIP3   OH2 1830   4.300   1.387   1.258
  630TIP3    H1 1831   4.336   1.300   1.241
  630TIP3    H2 1832   4.354   1.446   1.205
  631TIP3   OH2 1833   1.930   7.749   0.312
  631TIP3    H1 1834   1.854   7.721   0.263
  631TIP3    H2 1835   1.985   7.671   0.320
  632TIP3   OH2 1836   1.915   2.234   5.012
  632TIP3    H1 1837   1.828   2.209   4.981
  632TIP3    H2 1838   1.972   2.165   4.980
  633TIP3   OH2 1839   3.900   5.737   2.212
  633TIP3    H1 1840   3.980   5.739   2.264
  633TIP3    H2 1841   3.907   5.814   2.155
  634TIP3   OH2 1842   6.995   0.296   2.279
  634TIP3    H1 1843   7.010   0.238   2.204
  634TIP3    H2 1844   6.934   0.362   2.246
  635TIP3   OH2 1845   8.346   0.793   2.287
  635TIP3    H1 1846   8.440   0.813   2.293
  635TIP3    H2 1847   8.337   0.709   2.332
  636TIP3   OH2 1848   4.316   4.392   2.256
  636TIP3    H1 1849   4.324   4.487   2.256
  636TIP3    H2 1850   4.249   4.373   2.191
  637TIP3   OH2 1851   3.023   0.925   4.870
  637TIP3    H1 1852   3.086   0.924   4.798
  637TIP3    H2 1853   3.034   1.013   4.909
  638TIP3   OH2 1854   5.068   0.159   0.407
  638TIP3    H1 1855   5.087   0.234   0.463
  638TIP3    H2 1856   5.101   0.183   0.321
  639TIP3   OH2 1857   5.522   2.253   6.135
  639TIP3    H1 1858   5.614   2.244   6.110
  639TIP3    H2 1859   5.473   2.235   6.054
  640TIP3   OH2 1860   0.080   4.020   4.454
  640TIP3    H1 1861  -0.009   4.045   4.427
  640TIP3    H2 1862   0.094   4.067   4.536
  641TIP3   OH2 1863   4.561   1.780   6.326
  641TIP3    H1 1864   4.614   1.801   6.249
  641TIP3    H2 1865   4.474   1.816   6.305
  642TIP3   OH2 1866   4.764   5.847   3.355
  642TIP3    H1 1867   4.684   5.795   3.348
  642TIP3    H2 1868   4.739   5.935   3.327
  643TIP3   OH2 1869   4.472   4.658   4.401
  643TIP3    H1 1870   4.489   4.581   4.347
  643TIP3    H2 1871   4.424   4.718   4.344
  644TIP3   OH2 1872   7.670   7.358   4.116
  644TIP3    H1 1873   7.634   7.431   4.065
  644TIP3    H2 1874   7.660   7.385   4.207
  645TIP3   OH2 1875   3.798   4.764   4.436
  645TIP3    H1 1876   3.877   4.807   4.468
  645TIP3    H2 1877   3.823   4.725   4.353
  646TIP3   OH2 1878   1.248   4.872   3.529
  646TIP3    H1 1879   1.261   4.853   3.622
  646TIP3    H2 1880   1.247   4.786   3.487
  647TIP3   OH2 1881   1.318   5.845   4.197
  647TIP3    H1 1882   1.281   5.759   4.181
  647TIP3    H2 1883   1.337   5.847   4.291
  648TIP3   OH2 1884   2.219   1.241   6.747
  648TIP3    H1 1885   2.138   1.284   6.775
  648TIP3    H2 1886   2.253   1.298   6.678
  649TIP3   OH2 1887   4.592   5.297   5.273
  649TIP3    H1 1888   4.644   5.303   5.193
  649TIP3    H2 1889   4.559   5.386   5.287
  650TIP3   OH2 1890   3.674   2.619   1.539
  650TIP3    H1 1891   3.732   2.641   1.466
  650TIP3    H2 1892   3.623   2.698   1.554
  651TIP3   OH2 1893   5.752   0.352   5.812
  651TIP3    H1 1894   5.751   0.443   5.843
  651TIP3    H2 1895   5.793   0.357   5.725
  652TIP3   OH2 1896   3.350   2.273   5.165
  652TIP3    H1 1897   3.269   2.309   5.199
  652TIP3    H2 1898   3.415   2.341   5.181
  653TIP3   OH2 1899   2.055   1.928   4.002
  653TIP3    H1 1900   2.006   1.904   3.924
  653TIP3    H2 1901   2.020   1.872   4.071
  654TIP3   OH2 1902   4.882   0.216   2.844
  654TIP3    H1 1903   4.898   0.145   2.907
  654TIP3    H2 1904   4.886   0.296   2.896
  655TIP3   OH2 1905   0.120   4.572   3.032
  655TIP3    H1 1906   0.167   4.613   3.105
  655TIP3    H2 1907   0.116   4.641   2.965
  656TIP3   OH2 1908   2.725   7.310   0.822
  656TIP3    H1 1909   2.763   7.266   0.745
  656TIP3    H2 1910   2.769   7.395   0.825
  657TIP3   OH2 1911   2.626   2.777   1.892
  657TIP3    H1 1912   2.583   2.722   1.957
  657TIP3    H2 1913   2.591   2.746   1.808
  658TIP3   OH2 1914   5.885   0.083   3.509
  658TIP3    H1 1915   5.975   0.049   3.508
  658TIP3    H2 1916   5.871   0.117   3.421
  659TIP3   OH2 1917   1.740   0.846   6.487
  659TIP3    H1 1918   1.797   0.869   6.413
  659TIP3    H2 1919   1.680   0.920   6.495
  660TIP3   OH2 1920   4.206   2.455   3.278
  660TIP3    H1 1921   4.111   2.462   3.268
  660TIP3    H2 1922   4.241   2.511   3.209
  661TIP3   OH2 1923   3.353   1.749   6.317
  661TIP3    H1 1924   3.295   1.694   6.370
  661TIP3    H2 1925   3.418   1.782   6.379
  662TIP3   OH2 1926   5.325   0.079   1.758
  662TIP3    H1 1927   5.353   0.067   1.849
  662TIP3    H2 1928   5.300   0.171   1.753
  663TIP3   OH2 1929   1.181   6.944   4.098
  663TIP3    H1 1930   1.244   6.922   4.029
  663TIP3    H2 1931   1.115   6.998   4.054
  664TIP3   OH2 1932   3.519   3.535   2.736
  664TIP3    H1 1933   3.581   3.505   2.803
  664TIP3    H2 1934   3.495   3.624   2.763
  665TIP3   OH2 1935   7.439   4.383   5.163
  665TIP3    H1 1936   7.392   4.299   5.162
  665TIP3    H2 1937   7.385   4.441   5.110
  666TIP3   OH2 1938   5.785   0.722   6.404
  666TIP3    H1 1939   5.805   0.730   6.497
  666TIP3    H2 1940   5.704   0.670   6.401
  667TIP3   OH2 1941   5.576   4.934   4.265
  667TIP3    H1 1942   5.653   4.876   4.259
  667TIP3    H2 1943   5.561   4.944   4.359
  668TIP3   OH2 1944   5.555   0.613   0.031
  668TIP3    H1 1945   5.649   0.603   0.017
  668TIP3    H2 1946   5.524   0.524   0.048
  669TIP3   OH2 1947   7.967   3.792   0.097
  669TIP3    H1 1948   7.886   3.761   0.057
  669TIP3    H2 1949   7.954   3.775   0.191
  670TIP3   OH2 1950   3.370   4.756   1.112
  670TIP3    H1 1951   3.398   4.667   1.133
  670TIP3    H2 1952   3.442   4.812   1.141
  671TIP3   OH2 1953   6.986   7.754   0.768
  671TIP3    H1 1954   7.016   7.825   0.710
  671TIP3    H2 1955   7.008   7.674   0.719
  672TIP3   OH2 1956   7.911   4.924   5.419
  672TIP3    H1 1957   7.889   4.839   5.458
  672TIP3    H2 1958   7.827   4.969   5.409
  673TIP3   OH2 1959   5.216   3.981   1.145
  673TIP3    H1 1960   5.223   4.075   1.157
  673TIP3    H2 1961   5.123   3.965   1.131
  674TIP3   OH2 1962   6.555   7.291   0.942
  674TIP3    H1 1963   6.558   7.373   0.990
  674TIP3    H2 1964   6.534   7.225   1.009
  675TIP3   OH2 1965   4.185   2.658   0.911
  675TIP3    H1 1966   4.264   2.642   0.860
  675TIP3    H2 1967   4.213   2.715   0.982
  676TIP3   OH2 1968   5.661   7.103   1.566
  676TIP3    H1 1969   5.567   7.121   1.560
  676TIP3    H2 1970   5.685   7.073   1.478
  677TIP3   OH2 1971   3.646   1.134   6.878
  677TIP3    H1 1972   3.616   1.108   6.790
  677TIP3    H2 1973   3.727   1.085   6.890
  678TIP3   OH2 1974   3.663   0.250   6.055
  678TIP3    H1 1975   3.722   0.277   6.125
  678TIP3    H2 1976   3.633   0.332   6.015
  679TIP3   OH2 1977   1.126   5.111   6.171
  679TIP3    H1 1978   1.160   5.099   6.260
  679TIP3    H2 1979   1.174   5.187   6.137
  680TIP3   OH2 1980   7.232   7.864   4.339
  680TIP3    H1 1981   7.300   7.858   4.271
  680TIP3    H2 1982   7.177   7.937   4.311
  681TIP3   OH2 1983   7.469   3.556   0.307
  681TIP3    H1 1984   7.477   3.540   0.401
  681TIP3    H2 1985   7.505   3.479   0.265
  682TIP3   OH2 1986   3.824   6.713   3.922
  682TIP3    H1 1987   3.810   6.694   4.015
  682TIP3    H2 1988   3.875   6.638   3.891
  683TIP3   OH2 1989   8.167   0.927   5.858
  683TIP3    H1 1990   8.244   0.876   5.832
  683TIP3    H2 1991   8.102   0.861   5.881
  684TIP3   OH2 1992   0.426   0.209   1.179
  684TIP3    H1 1993   0.425   0.304   1.178
  684TIP3    H2 1994   0.381   0.183   1.098
  685TIP3   OH2 1995   5.937   3.264   4.192
  685TIP3    H1 1996   5.923   3.333   4.257
  685TIP3    H2 1997   5.984   3.308   4.121
  686TIP3   OH2 1998   0.678   1.644   3.311
  686TIP3    H1 1999   0.584   1.663   3.305
  686TIP3    H2 2000   0.703   1.615   3.223
  687TIP3   OH2 2001   1.799   0.205   1.172
  687TIP3    H1 2002   1.893   0.196   1.160
  687TIP3    H2 2003   1.763   0.202   1.084
  688TIP3   OH2 2004   2.891   0.136   1.489
  688TIP3    H1 2005   2.839   0.198   1.438
  688TIP3    H2 2006   2.893   0.173   1.577
  689TIP3   OH2 2007   6.711   6.755   0.316
  689TIP3    H1 2008   6.749   6.713   0.393
  689TIP3    H2 2009   6.780   6.814   0.285
  690TIP3   OH2 2010   2.512   0.306   5.032
  690TIP3    H1 2011   2.599   0.266   5.042
  690TIP3    H2 2012   2.530   0.393   4.995
  691TIP3   OH2 2013   1.565   2.627   6.669
  691TIP3    H1 2014   1.565   2.630   6.764
  691TIP3    H2 2015   1.495   2.688   6.643
  692TIP3   OH2 2016   8.344   1.250   3.636
  692TIP3    H1 2017   8.336   1.220   3.546
  692TIP3    H2 2018   8.437   1.264   3.650
  693TIP3   OH2 2019   7.184   0.898   1.251
  693TIP3    H1 2020   7.232   0.913   1.333
  693TIP3    H2 2021   7.252   0.885   1.185
  694TIP3   OH2 2022   2.930   6.068   5.914
  694TIP3    H1 2023   2.887   5.984   5.925
  694TIP3    H2 2024   3.022   6.046   5.899
  695TIP3   OH2 2025   4.383   0.216   3.514
  695TIP3    H1 2026   4.397   0.309   3.527
  695TIP3    H2 2027   4.344   0.186   3.597
  696TIP3   OH2 2028   3.945   1.992   6.723
  696TIP3    H1 2029   4.015   1.932   6.697
  696TIP3    H2 2030   3.990   2.066   6.764
  697TIP3   OH2 2031   1.040   5.609   2.173
  697TIP3    H1 2032   0.985   5.535   2.197
  697TIP3    H2 2033   1.080   5.637   2.255
  698TIP3   OH2 2034   7.651   7.697   3.424
  698TIP3    H1 2035   7.687   7.611   3.400
  698TIP3    H2 2036   7.700   7.759   3.371
  699TIP3   OH2 2037   8.293   4.069   0.351
  699TIP3    H1 2038   8.211   4.111   0.378
  699TIP3    H2 2039   8.312   4.007   0.422
  700TIP3   OH2 2040   5.565   2.270   2.267
  700TIP3    H1 2041   5.594   2.183   2.294
  700TIP3    H2 2042   5.472   2.258   2.245
  701TIP3   OH2 2043   0.171   0.498   0.302
  701TIP3    H1 2044   0.103   0.565   0.298
  701TIP3    H2 2045   0.233   0.531   0.367
  702TIP3   OH2 2046   5.461   4.722   1.868
  702TIP3    H1 2047   5.435   4.701   1.958
  702TIP3    H2 2048   5.378   4.737   1.822
  703TIP3   OH2 2049   0.680   7.109   2.338
  703TIP3    H1 2050   0.671   7.062   2.256
  703TIP3    H2 2051   0.649   7.048   2.405
  704TIP3   OH2 2052   7.372   5.049   4.391
  704TIP3    H1 2053   7.311   4.983   4.424
  704TIP3    H2 2054   7.338   5.132   4.426
  705TIP3   OH2 2055   8.284   2.913   1.697
  705TIP3    H1 2056   8.200   2.912   1.651
  705TIP3    H2 2057   8.347   2.882   1.631
  706TIP3   OH2 2058   0.688   1.358   4.661
  706TIP3    H1 2059   0.656   1.351   4.571
  706TIP3    H2 2060   0.781   1.378   4.651
  707TIP3   OH2 2061   7.853   2.206   3.542
  707TIP3    H1 2062   7.791   2.249   3.483
  707TIP3    H2 2063   7.802   2.190   3.622
  708TIP3   OH2 2064   3.415   6.814   1.061
  708TIP3    H1 2065   3.322   6.825   1.081
  708TIP3    H2 2066   3.456   6.895   1.091
  709TIP3   OH2 2067   1.301   6.469   6.454
  709TIP3    H1 2068   1.293   6.375   6.469
  709TIP3    H2 2069   1.216   6.495   6.420
  710TIP3   OH2 2070   2.049   6.410   1.466
  710TIP3    H1 2071   2.087   6.322   1.459
  710TIP3    H2 2072   1.956   6.395   1.482
  711TIP3   OH2 2073   0.671   1.120   3.745
  711TIP3    H1 2074   0.744   1.101   3.804
  711TIP3    H2 2075   0.628   1.036   3.731
  712TIP3   OH2 2076   5.335   3.924   5.938
  712TIP3    H1 2077   5.345   3.899   5.846
  712TIP3    H2 2078   5.263   3.869   5.970
  713TIP3   OH2 2079   5.162   4.874   1.343
  713TIP3    H1 2080   5.110   4.802   1.309
  713TIP3    H2 2081   5.253   4.847   1.330
  714TIP3   OH2 2082   0.881   1.681   5.196
  714TIP3    H1 2083   0.976   1.677   5.190
  714TIP3    H2 2084   0.857   1.602   5.245
  715TIP3   OH2 2085   1.063   3.453   2.681
  715TIP3    H1 2086   1.038   3.459   2.589
  715TIP3    H2 2087   1.013   3.522   2.725
  716TIP3   OH2 2088   3.363   4.710   0.643
  716TIP3    H1 2089   3.282   4.730   0.689
  716TIP3    H2 2090   3.337   4.646   0.576
  717TIP3   OH2 2091   5.827   6.138   2.695
  717TIP3    H1 2092   5.901   6.100   2.648
  717TIP3    H2 2093   5.855   6.227   2.716
  718TIP3   OH2 2094   4.650   2.769   5.504
  718TIP3    H1 2095   4.600   2.711   5.560
  718TIP3    H2 2096   4.596   2.848   5.496
  719TIP3   OH2 2097   6.787   5.180   3.354
  719TIP3    H1 2098   6.867   5.130   3.368
  719TIP3    H2 2099   6.800   5.262   3.401
  720TIP3   OH2 2100   1.880   4.042   3.200
  720TIP3    H1 2101   1.866   4.100   3.125
  720TIP3    H2 2102   1.881   3.954   3.162
  721TIP3   OH2 2103   0.771   3.024   6.497
  721TIP3    H1 2104   0.697   2.983   6.541
  721TIP3    H2 2105   0.848   2.977   6.531
  722TIP3   OH2 2106   7.382   2.952   2.605
  722TIP3    H1 2107   7.347   2.863   2.608
  722TIP3    H2 2108   7.324   2.998   2.544
  723TIP3   OH2 2109   1.658   0.068   5.300
  723TIP3    H1 2110   1.607   0.114   5.234
  723TIP3    H2 2111   1.607   0.075   5.380
  724TIP3   OH2 2112   0.322   4.097   0.079
  724TIP3    H1 2113   0.294   4.054   0.160
  724TIP3    H2 2114   0.244   4.143   0.048
  725TIP3   OH2 2115   2.849   3.650   2.733
  725TIP3    H1 2116   2.834   3.588   2.662
  725TIP3    H2 2117   2.942   3.639   2.755
  726TIP3   OH2 2118   5.533   3.314   4.473
  726TIP3    H1 2119   5.505   3.302   4.382
  726TIP3    H2 2120   5.571   3.230   4.498
  727TIP3   OH2 2121   3.593   0.152   6.328
  727TIP3    H1 2122   3.550   0.071   6.354
  727TIP3    H2 2123   3.679   0.125   6.296
  728TIP3   OH2 2124   2.319   1.948   2.130
  728TIP3    H1 2125   2.368   1.922   2.208
  728TIP3    H2 2126   2.269   1.869   2.106
  729TIP3   OH2 2127   0.256   3.722   0.790
  729TIP3    H1 2128   0.312   3.709   0.867
  729TIP3    H2 2129   0.242   3.817   0.787
  730TIP3   OH2 2130   5.518   6.101   3.699
  730TIP3    H1 2131   5.551   6.124   3.786
  730TIP3    H2 2132   5.553   6.014   3.682
  731TIP3   OH2 2133   0.467   4.074   0.705
  731TIP3    H1 2134   0.519   4.129   0.763
  731TIP3    H2 2135   0.467   4.120   0.621
  732TIP3   OH2 2136   7.514   1.844   3.311
  732TIP3    H1 2137   7.463   1.920   3.282
  732TIP3    H2 2138   7.582   1.834   3.244
  733TIP3   OH2 2139   1.754   4.306   6.619
  733TIP3    H1 2140   1.781   4.232   6.673
  733TIP3    H2 2141   1.675   4.340   6.661
  734TIP3   OH2 2142   3.607   5.888   1.626
  734TIP3    H1 2143   3.594   5.895   1.531
  734TIP3    H2 2144   3.528   5.928   1.664
  735TIP3   OH2 2145   2.959   4.552   1.666
  735TIP3    H1 2146   2.939   4.533   1.757
  735TIP3    H2 2147   3.053   4.567   1.664
  736TIP3   OH2 2148   5.105   3.862   4.414
  736TIP3    H1 2149   5.170   3.803   4.376
  736TIP3    H2 2150   5.152   3.907   4.484
  737TIP3   OH2 2151   4.141   3.686   4.621
  737TIP3    H1 2152   4.105   3.598   4.627
  737TIP3    H2 2153   4.068   3.743   4.647
  738TIP3   OH2 2154   1.907   6.535   3.954
  738TIP3    H1 2155   1.953   6.476   4.014
  738TIP3    H2 2156   1.817   6.505   3.954
  739TIP3   OH2 2157   6.749   6.585   0.075
  739TIP3    H1 2158   6.693   6.508   0.071
  739TIP3    H2 2159   6.716   6.636   0.149
  740TIP3   OH2 2160   1.503   0.551   5.661
  740TIP3    H1 2161   1.461   0.509   5.586
  740TIP3    H2 2162   1.512   0.643   5.635
  741TIP3   OH2 2163   1.451   0.282   1.102
  741TIP3    H1 2164   1.430   0.316   1.015
  741TIP3    H2 2165   1.397   0.334   1.162
  742TIP3   OH2 2166   7.955   5.131   5.234
  742TIP3    H1 2167   7.968   5.082   5.315
  742TIP3    H2 2168   7.959   5.064   5.165
  743TIP3   OH2 2169   2.304   1.379   1.628
  743TIP3    H1 2170   2.259   1.379   1.712
  743TIP3    H2 2171   2.241   1.419   1.567
  744TIP3   OH2 2172   0.768   3.811   6.535
  744TIP3    H1 2173   0.702   3.769   6.480
  744TIP3    H2 2174   0.847   3.758   6.525
  745TIP3   OH2 2175   4.577   2.686   1.158
  745TIP3    H1 2176   4.551   2.636   1.236
  745TIP3    H2 2177   4.652   2.738   1.187
  746TIP3   OH2 2178   6.621   5.162   2.072
  746TIP3    H1 2179   6.573   5.169   2.154
  746TIP3    H2 2180   6.596   5.077   2.036
  747TIP3   OH2 2181   3.606   2.484   1.764
  747TIP3    H1 2182   3.645   2.531   1.690
  747TIP3    H2 2183   3.601   2.550   1.834
  748TIP3   OH2 2184   8.216   0.101   2.167
  748TIP3    H1 2185   8.129   0.070   2.144
  748TIP3    H2 2186   8.200   0.175   2.226
  749TIP3   OH2 2187   0.906   2.201   0.644
  749TIP3    H1 2188   0.845   2.186   0.715
  749TIP3    H2 2189   0.935   2.113   0.618
  750TIP3   OH2 2190   0.456   5.956   6.594
  750TIP3    H1 2191   0.465   6.041   6.638
  750TIP3    H2 2192   0.530   5.905   6.625
  751TIP3   OH2 2193   7.529   7.812   2.770
  751TIP3    H1 2194   7.449   7.790   2.722
  751TIP3    H2 2195   7.512   7.784   2.860
  752TIP3   OH2 2196   4.572   2.918   2.436
  752TIP3    H1 2197   4.553   2.850   2.501
  752TIP3    H2 2198   4.487   2.936   2.396
  753TIP3   OH2 2199   6.220   1.864   3.939
  753TIP3    H1 2200   6.180   1.913   4.011
  753TIP3    H2 2201   6.256   1.931   3.881
  754TIP3   OH2 2202   6.343   0.021   4.531
  754TIP3    H1 2203   6.290   0.101   4.534
  754TIP3    H2 2204   6.409   0.038   4.464
  755TIP3   OH2 2205   8.112   2.935   4.026
  755TIP3    H1 2206   8.170   2.918   3.952
  755TIP3    H2 2207   8.170   2.935   4.103
  756TIP3   OH2 2208   0.534   7.244   4.245
  756TIP3    H1 2209   0.490   7.226   4.328
  756TIP3    H2 2210   0.466   7.231   4.179
  757TIP3   OH2 2211   3.730   0.394   0.306
  757TIP3    H1 2212   3.798   0.346   0.354
  757TIP3    H2 2213   3.654   0.395   0.365
  758TIP3   OH2 2214   0.519   1.474   4.042
  758TIP3    H1 2215   0.493   1.400   3.987
  758TIP3    H2 2216   0.580   1.436   4.106
  759TIP3   OH2 2217   1.715   1.847   1.659
  759TIP3    H1 2218   1.748   1.920   1.606
  759TIP3    H2 2219   1.684   1.783   1.595
  760TIP3   OH2 2220   6.193   3.971   3.421
  760TIP3    H1 2221   6.136   3.999   3.349
  760TIP3    H2 2222   6.271   4.026   3.412
  761TIP3   OH2 2223   3.780   2.273   1.813
  761TIP3    H1 2224   3.718   2.345   1.799
  761TIP3    H2 2225   3.746   2.228   1.891
  762TIP3   OH2 2226   3.909   4.598   5.276
  762TIP3    H1 2227   3.913   4.548   5.195
  762TIP3    H2 2228   3.914   4.532   5.345
  763TIP3   OH2 2229   1.317   4.397   0.722
  763TIP3    H1 2230   1.328   4.356   0.808
  763TIP3    H2 2231   1.223   4.400   0.709
  764TIP3   OH2 2232   7.588   7.346   5.746
  764TIP3    H1 2233   7.512   7.350   5.687
  764TIP3    H2 2234   7.662   7.373   5.691
  765TIP3   OH2 2235   4.032   0.730   5.151
  765TIP3    H1 2236   3.968   0.774   5.096
  765TIP3    H2 2237   3.991   0.646   5.174
  766TIP3   OH2 2238   4.095   7.815   2.668
  766TIP3    H1 2239   4.186   7.842   2.676
  766TIP3    H2 2240   4.085   7.743   2.730
  767TIP3   OH2 2241   2.254   2.784   3.483
  767TIP3    H1 2242   2.272   2.696   3.516
  767TIP3    H2 2243   2.280   2.842   3.555
  768TIP3   OH2 2244   4.241   0.688   2.520
  768TIP3    H1 2245   4.327   0.702   2.560
  768TIP3    H2 2246   4.185   0.658   2.592
  769TIP3   OH2 2247   0.789   2.876   5.043
  769TIP3    H1 2248   0.772   2.970   5.037
  769TIP3    H2 2249   0.706   2.835   5.020
  770TIP3   OH2 2250   6.504   1.348   2.599
  770TIP3    H1 2251   6.568   1.314   2.535
  770TIP3    H2 2252   6.514   1.291   2.675
  771TIP3   OH2 2253   1.031   3.219   1.311
  771TIP3    H1 2254   1.022   3.294   1.252
  771TIP3    H2 2255   1.123   3.193   1.302
  772TIP3   OH2 2256   0.183   1.764   2.284
  772TIP3    H1 2257   0.217   1.808   2.362
  772TIP3    H2 2258   0.244   1.691   2.270
  773TIP3   OH2 2259   1.236   2.685   5.538
  773TIP3    H1 2260   1.177   2.751   5.501
  773TIP3    H2 2261   1.258   2.718   5.625
  774TIP3   OH2 2262   5.503   4.331   2.091
  774TIP3    H1 2263   5.532   4.410   2.138
  774TIP3    H2 2264   5.537   4.342   2.002
  775TIP3   OH2 2265   3.421   6.105   0.576
  775TIP3    H1 2266   3.510   6.092   0.607
  775TIP3    H2 2267   3.379   6.157   0.645
  776TIP3   OH2 2268   8.153   7.003   2.053
  776TIP3    H1 2269   8.209   7.036   2.122
  776TIP3    H2 2270   8.079   7.065   2.050
  777TIP3   OH2 2271   4.946   3.232   4.333
  777TIP3    H1 2272   4.880   3.203   4.271
  777TIP3    H2 2273   4.898   3.284   4.397
  778TIP3   OH2 2274   2.775   4.330   2.407
  778TIP3    H1 2275   2.851   4.344   2.350
  778TIP3    H2 2276   2.709   4.391   2.375
  779TIP3   OH2 2277   7.040   3.400   3.083
  779TIP3    H1 2278   6.945   3.389   3.077
  779TIP3    H2 2279   7.054   3.444   3.166
  780TIP3   OH2 2280   7.083   5.262   2.660
  780TIP3    H1 2281   7.027   5.239   2.586
  780TIP3    H2 2282   7.097   5.179   2.706
  781TIP3   OH2 2283   0.290   0.739   5.806
  781TIP3    H1 2284   0.253   0.695   5.729
  781TIP3    H2 2285   0.219   0.793   5.840
  782TIP3   OH2 2286   0.103   1.178   1.856
  782TIP3    H1 2287   0.076   1.131   1.778
  782TIP3    H2 2288   0.162   1.118   1.901
  783TIP3   OH2 2289   3.375   4.278   6.224
  783TIP3    H1 2290   3.428   4.199   6.237
  783TIP3    H2 2291   3.427   4.348   6.264
  784TIP3   OH2 2292   8.138   4.403   3.484
  784TIP3    H1 2293   8.049   4.369   3.479
  784TIP3    H2 2294   8.152   4.417   3.578
  785TIP3   OH2 2295   7.781   1.612   0.422
  785TIP3    H1 2296   7.852   1.631   0.484
  785TIP3    H2 2297   7.707   1.588   0.477
  786TIP3   OH2 2298   5.847   7.861   2.045
  786TIP3    H1 2299   5.917   7.886   2.105
  786TIP3    H2 2300   5.858   7.918   1.969
  787TIP3   OH2 2301   3.202   0.079   3.610
  787TIP3    H1 2302   3.289   0.100   3.577
  787TIP3    H2 2303   3.214   0.067   3.704
  788TIP3   OH2 2304   8.168   5.801   5.831
  788TIP3    H1 2305   8.129   5.887   5.815
  788TIP3    H2 2306   8.104   5.739   5.795
  789TIP3   OH2 2307   2.161   1.902   5.886
  789TIP3    H1 2308   2.161   1.807   5.897
  789TIP3    H2 2309   2.206   1.935   5.964
  790TIP3   OH2 2310   1.630   5.273   4.869
  790TIP3    H1 2311   1.660   5.345   4.812
  790TIP3    H2 2312   1.576   5.219   4.811
  791TIP3   OH2 2313   4.540   6.048   0.784
  791TIP3    H1 2314   4.527   6.101   0.863
  791TIP3    H2 2315   4.632   6.021   0.788
  792TIP3   OH2 2316   2.537   0.091   1.716
  792TIP3    H1 2317   2.482   0.083   1.638
  792TIP3    H2 2318   2.571   0.181   1.711
  793TIP3   OH2 2319   4.872   4.251   3.226
  793TIP3    H1 2320   4.928   4.241   3.304
  793TIP3    H2 2321   4.789   4.211   3.251
  794TIP3   OH2 2322   0.143   4.588   3.432
  794TIP3    H1 2323   0.099   4.643   3.497
  794TIP3    H2 2324   0.176   4.513   3.483
  795TIP3   OH2 2325   4.241   6.156   3.086
  795TIP3    H1 2326   4.248   6.179   3.178
  795TIP3    H2 2327   4.266   6.236   3.039
  796TIP3   OH2 2328   6.884   0.854   2.145
  796TIP3    H1 2329   6.858   0.877   2.234
  796TIP3    H2 2330   6.899   0.938   2.102
  797TIP3   OH2 2331   4.469   2.830   0.966
  797TIP3    H1 2332   4.497   2.743   0.995
  797TIP3    H2 2333   4.477   2.885   1.044
  798TIP3   OH2 2334   7.808   5.319   5.431
  798TIP3    H1 2335   7.771   5.231   5.437
  798TIP3    H2 2336   7.816   5.335   5.337
  799TIP3   OH2 2337   4.791   6.424   4.917
  799TIP3    H1 2338   4.720   6.437   4.980
  799TIP3    H2 2339   4.747   6.422   4.832
  800TIP3   OH2 2340   1.236   1.721   4.623
  800TIP3    H1 2341   1.289   1.799   4.604
  800TIP3    H2 2342   1.286   1.673   4.689
  801TIP3   OH2 2343   4.247   1.923   5.798
  801TIP3    H1 2344   4.195   1.844   5.782
  801TIP3    H2 2345   4.211   1.959   5.879
  802TIP3   OH2 2346   1.176   0.432   4.940
  802TIP3    H1 2347   1.189   0.338   4.939
  802TIP3    H2 2348   1.095   0.444   4.989
  803TIP3   OH2 2349   0.867   7.733   1.681
  803TIP3    H1 2350   0.772   7.732   1.688
  803TIP3    H2 2351   0.896   7.654   1.725
  804TIP3   OH2 2352   6.615   1.775   0.158
  804TIP3    H1 2353   6.672   1.722   0.214
  804TIP3    H2 2354   6.613   1.861   0.201
  805TIP3   OH2 2355   3.573   5.201   0.831
  805TIP3    H1 2356   3.653   5.150   0.843
  805TIP3    H2 2357   3.524   5.153   0.763
  806TIP3   OH2 2358   5.780   7.396   0.121
  806TIP3    H1 2359   5.798   7.470   0.179
  806TIP3    H2 2360   5.790   7.431   0.033
  807TIP3   OH2 2361   2.046   1.311   2.983
  807TIP3    H1 2362   2.048   1.225   3.025
  807TIP3    H2 2363   2.077   1.371   3.050
  808TIP3   OH2 2364   5.492   3.048   6.434
  808TIP3    H1 2365   5.500   2.995   6.355
  808TIP3    H2 2366   5.572   3.030   6.483
  809TIP3   OH2 2367   4.926   5.509   2.737
  809TIP3    H1 2368   4.988   5.501   2.664
  809TIP3    H2 2369   4.946   5.436   2.794
  810TIP3   OH2 2370   0.948   3.314   5.524
  810TIP3    H1 2371   0.987   3.389   5.569
  810TIP3    H2 2372   0.856   3.339   5.511
  811TIP3   OH2 2373   4.983   1.325   6.645
  811TIP3    H1 2374   5.049   1.391   6.668
  811TIP3    H2 2375   4.909   1.343   6.704
  812TIP3   OH2 2376   3.016   4.256   5.887
  812TIP3    H1 2377   3.025   4.321   5.817
  812TIP3    H2 2378   3.100   4.258   5.933
  813TIP3   OH2 2379   4.037   2.139   3.235
  813TIP3    H1 2380   4.043   2.067   3.299
  813TIP3    H2 2381   4.122   2.183   3.241
  814TIP3   OH2 2382   7.801   4.392   5.173
  814TIP3    H1 2383   7.761   4.461   5.121
  814TIP3    H2 2384   7.739   4.376   5.244
  815TIP3   OH2 2385   7.446   0.366   5.009
  815TIP3    H1 2386   7.429   0.390   5.100
  815TIP3    H2 2387   7.535   0.397   4.992
  816TIP3   OH2 2388   7.702   6.298   4.042
  816TIP3    H1 2389   7.762   6.229   4.013
  816TIP3    H2 2390   7.682   6.275   4.133
  817TIP3   OH2 2391   2.653   2.284   0.194
  817TIP3    H1 2392   2.616   2.197   0.206
  817TIP3    H2 2393   2.624   2.310   0.106
  818TIP3   OH2 2394   4.355   4.881   1.700
  818TIP3    H1 2395   4.310   4.832   1.769
  818TIP3    H2 2396   4.448   4.863   1.714
  819TIP3   OH2 2397   5.083   3.856   6.852
  819TIP3    H1 2398   5.046   3.803   6.781
  819TIP3    H2 2399   5.172   3.824   6.862
  820TIP3   OH2 2400   2.788   0.271   1.104
  820TIP3    H1 2401   2.855   0.205   1.086
  820TIP3    H2 2402   2.829   0.330   1.167
  821TIP3   OH2 2403   4.886   4.382   4.330
  821TIP3    H1 2404   4.900   4.312   4.266
  821TIP3    H2 2405   4.889   4.463   4.278
  822TIP3   OH2 2406   4.073   2.131   5.546
  822TIP3    H1 2407   4.024   2.093   5.619
  822TIP3    H2 2408   4.108   2.056   5.499
  823TIP3   OH2 2409   3.683   4.240   6.769
  823TIP3    H1 2410   3.695   4.330   6.739
  823TIP3    H2 2411   3.745   4.189   6.717
  824TIP3   OH2 2412   4.404   0.137   2.346
  824TIP3    H1 2413   4.498   0.141   2.330
  824TIP3    H2 2414   4.390   0.196   2.421
  825TIP3   OH2 2415   6.231   5.057   3.888
  825TIP3    H1 2416   6.191   5.144   3.887
  825TIP3    H2 2417   6.270   5.049   3.975
  826TIP3   OH2 2418   0.517   0.986   4.571
  826TIP3    H1 2419   0.454   0.998   4.642
  826TIP3    H2 2420   0.581   0.924   4.606
  827TIP3   OH2 2421   5.182   5.475   0.425
  827TIP3    H1 2422   5.186   5.533   0.349
  827TIP3    H2 2423   5.170   5.387   0.388
  828TIP3   OH2 2424   4.197   0.202   4.397
  828TIP3    H1 2425   4.227   0.181   4.309
  828TIP3    H2 2426   4.272   0.181   4.453
  829TIP3   OH2 2427   6.451   2.550   0.660
  829TIP3    H1 2428   6.439   2.624   0.601
  829TIP3    H2 2429   6.431   2.585   0.747
  830TIP3   OH2 2430   0.948   0.365   5.118
  830TIP3    H1 2431   0.858   0.388   5.097
  830TIP3    H2 2432   0.981   0.438   5.170
  831TIP3   OH2 2433   7.516   0.281   2.161
  831TIP3    H1 2434   7.478   0.248   2.080
  831TIP3    H2 2435   7.580   0.214   2.187
  832TIP3   OH2 2436   4.853   3.281   2.012
  832TIP3    H1 2437   4.778   3.333   1.983
  832TIP3    H2 2438   4.885   3.238   1.933
  833TIP3   OH2 2439   3.557   3.727   6.249
  833TIP3    H1 2440   3.564   3.632   6.255
  833TIP3    H2 2441   3.644   3.760   6.271
  834TIP3   OH2 2442   1.820   7.905   0.589
  834TIP3    H1 2443   1.768   7.904   0.508
  834TIP3    H2 2444   1.910   7.898   0.559
  835TIP3   OH2 2445   2.935   5.134   3.317
  835TIP3    H1 2446   2.953   5.123   3.223
  835TIP3    H2 2447   3.019   5.116   3.359
  836TIP3   OH2 2448   6.971   4.832   1.920
  836TIP3    H1 2449   6.916   4.879   1.984
  836TIP3    H2 2450   7.060   4.845   1.951
  837TIP3   OH2 2451   8.266   4.409   0.834
  837TIP3    H1 2452   8.240   4.460   0.757
  837TIP3    H2 2453   8.361   4.397   0.824
  838TIP3   OH2 2454   4.731   5.209   3.962
  838TIP3    H1 2455   4.811   5.213   3.910
  838TIP3    H2 2456   4.705   5.117   3.957
  839TIP3   OH2 2457   8.326   1.684   4.081
  839TIP3    H1 2458   8.337   1.678   3.986
  839TIP3    H2 2459   8.263   1.755   4.094
  840TIP3   OH2 2460   8.235   5.577   6.844
  840TIP3    H1 2461   8.315   5.629   6.854
  840TIP3    H2 2462   8.248   5.529   6.763
  841TIP3   OH2 2463   4.241   2.391   2.866
  841TIP3    H1 2464   4.314   2.437   2.909
  841TIP3    H2 2465   4.242   2.304   2.906
  842TIP3   OH2 2466   4.798   7.567   4.433
  842TIP3    H1 2467   4.812   7.538   4.343
  842TIP3    H2 2468   4.841   7.652   4.438
  843TIP3   OH2 2469   3.723   3.090   2.431
  843TIP3    H1 2470   3.670   3.150   2.483
  843TIP3    H2 2471   3.808   3.089   2.476
  844TIP3   OH2 2472   6.784   4.094   0.467
  844TIP3    H1 2473   6.767   4.171   0.520
  844TIP3    H2 2474   6.821   4.030   0.528
  845TIP3   OH2 2475   7.552   4.604   0.352
  845TIP3    H1 2476   7.572   4.696   0.332
  845TIP3    H2 2477   7.511   4.571   0.272
  846TIP3   OH2 2478   7.603   5.560   0.142
  846TIP3    H1 2479   7.652   5.508   0.206
  846TIP3    H2 2480   7.652   5.642   0.134
  847TIP3   OH2 2481   3.934   3.667   4.172
  847TIP3    H1 2482   3.889   3.672   4.256
  847TIP3    H2 2483   4.017   3.712   4.187
  848TIP3   OH2 2484   5.355   3.442   0.187
  848TIP3    H1 2485   5.305   3.489   0.120
  848TIP3    H2 2486   5.444   3.475   0.179
  849TIP3   OH2 2487   6.446   2.134   6.868
  849TIP3    H1 2488   6.499   2.091   6.801
  849TIP3    H2 2489   6.477   2.225   6.868
  850TIP3   OH2 2490   3.020   7.234   1.492
  850TIP3    H1 2491   2.991   7.146   1.516
  850TIP3    H2 2492   2.980   7.291   1.558
  851TIP3   OH2 2493   7.628   5.566   4.844
  851TIP3    H1 2494   7.599   5.508   4.914
  851TIP3    H2 2495   7.560   5.560   4.778
  852TIP3   OH2 2496   5.345   7.379   2.152
  852TIP3    H1 2497   5.423   7.417   2.193
  852TIP3    H2 2498   5.274   7.402   2.211
  853TIP3   OH2 2499   6.445   0.772   0.549
  853TIP3    H1 2500   6.353   0.754   0.568
  853TIP3    H2 2501   6.474   0.697   0.497
  854TIP3   OH2 2502   4.213  -0.010   5.526
  854TIP3    H1 2503   4.244   0.077   5.503
  854TIP3    H2 2504   4.181  -0.001   5.616
  855TIP3   OH2 2505   7.486   1.715   4.723
  855TIP3    H1 2506   7.496   1.621   4.736
  855TIP3    H2 2507   7.441   1.723   4.639
  856TIP3   OH2 2508   5.820   0.090   0.913
  856TIP3    H1 2509   5.801   0.172   0.959
  856TIP3    H2 2510   5.775   0.099   0.829
  857TIP3   OH2 2511   8.352   2.368   5.267
  857TIP3    H1 2512   8.410   2.435   5.303
  857TIP3    H2 2513   8.402   2.286   5.276
  858TIP3   OH2 2514   6.903   2.208   3.750
  858TIP3    H1 2515   6.932   2.116   3.745
  858TIP3    H2 2516   6.972   2.256   3.705
  859TIP3   OH2 2517   2.254   0.978   2.950
  859TIP3    H1 2518   2.279   1.069   2.934
  859TIP3    H2 2519   2.231   0.944   2.863
  860TIP3   OH2 2520   7.225   7.368   5.617
  860TIP3    H1 2521   7.149   7.333   5.663
  860TIP3    H2 2522   7.255   7.440   5.673
  861TIP3   OH2 2523   7.355   2.168   4.287
  861TIP3    H1 2524   7.408   2.235   4.246
  861TIP3    H2 2525   7.267   2.207   4.294
  862TIP3   OH2 2526   1.217   7.560   5.901
  862TIP3    H1 2527   1.295   7.579   5.954
  862TIP3    H2 2528   1.149   7.616   5.938
  863TIP3   OH2 2529   2.613   3.043   2.002
  863TIP3    H1 2530   2.605   2.999   2.086
  863TIP3    H2 2531   2.669   2.986   1.950
  864TIP3   OH2 2532   0.588   1.155   5.099
  864TIP3    H1 2533   0.615   1.220   5.034
  864TIP3    H2 2534   0.545   1.086   5.049
  865TIP3   OH2 2535   1.537   7.878   3.922
  865TIP3    H1 2536   1.504   7.788   3.923
  865TIP3    H2 2537   1.534   7.903   3.829
  866TIP3   OH2 2538   6.965   7.443   6.397
  866TIP3    H1 2539   7.005   7.506   6.457
  866TIP3    H2 2540   6.888   7.411   6.445
  867TIP3   OH2 2541   2.954   3.152   1.506
  867TIP3    H1 2542   3.032   3.205   1.487
  867TIP3    H2 2543   2.982   3.062   1.492
  868TIP3   OH2 2544   4.847   3.679   5.187
  868TIP3    H1 2545   4.759   3.716   5.193
  868TIP3    H2 2546   4.842   3.620   5.111
  869TIP3   OH2 2547   0.697   6.645   2.385
  869TIP3    H1 2548   0.607   6.613   2.391
  869TIP3    H2 2549   0.710   6.661   2.291
  870TIP3   OH2 2550   6.253   5.605   0.773
  870TIP3    H1 2551   6.158   5.618   0.770
  870TIP3    H2 2552   6.266   5.534   0.835
  871TIP3   OH2 2553   4.286   5.314   2.100
  871TIP3    H1 2554   4.310   5.359   2.019
  871TIP3    H2 2555   4.230   5.241   2.072
  872TIP3   OH2 2556   4.170   1.938   3.475
  872TIP3    H1 2557   4.227   1.862   3.465
  872TIP3    H2 2558   4.091   1.915   3.426
  873TIP3   OH2 2559   6.497   4.877   0.697
  873TIP3    H1 2560   6.552   4.814   0.652
  873TIP3    H2 2561   6.559   4.935   0.743
  874TIP3   OH2 2562   2.547   6.582   2.490
  874TIP3    H1 2563   2.466   6.592   2.540
  874TIP3    H2 2564   2.614   6.563   2.556
  875TIP3   OH2 2565   4.288   1.266   0.127
  875TIP3    H1 2566   4.311   1.326   0.056
  875TIP3    H2 2567   4.341   1.188   0.112
  876TIP3   OH2 2568   4.816   6.896   3.932
  876TIP3    H1 2569   4.892   6.951   3.912
  876TIP3    H2 2570   4.759   6.906   3.856
  877TIP3   OH2 2571   2.681   5.059   4.889
  877TIP3    H1 2572   2.675   5.074   4.984
  877TIP3    H2 2573   2.694   4.965   4.880
  878TIP3   OH2 2574   3.898   0.196   1.595
  878TIP3    H1 2575   3.913   0.207   1.501
  878TIP3    H2 2576   3.947   0.268   1.635
  879TIP3   OH2 2577   0.107   7.123   1.578
  879TIP3    H1 2578   0.154   7.104   1.660
  879TIP3    H2 2579   0.167   7.094   1.509
  880TIP3   OH2 2580   3.058   3.358   6.521
  880TIP3    H1 2581   3.109   3.426   6.477
  880TIP3    H2 2582   3.109   3.278   6.508
  881TIP3   OH2 2583   2.377   4.955   5.456
  881TIP3    H1 2584   2.465   4.920   5.447
  881TIP3    H2 2585   2.353   4.938   5.547
  882TIP3   OH2 2586   0.146   5.453   0.377
  882TIP3    H1 2587   0.171   5.430   0.466
  882TIP3    H2 2588   0.227   5.484   0.336
  883TIP3   OH2 2589   2.588   1.987   1.552
  883TIP3    H1 2590   2.511   1.932   1.545
  883TIP3    H2 2591   2.560   2.062   1.603
  884TIP3   OH2 2592   2.551   3.674   2.634
  884TIP3    H1 2593   2.536   3.591   2.679
  884TIP3    H2 2594   2.570   3.736   2.704
  885TIP3   OH2 2595   8.196   4.100   0.030
  885TIP3    H1 2596   8.264   4.131   0.089
  885TIP3    H2 2597   8.227   4.014   0.000
  886TIP3   OH2 2598   6.314   2.491   2.258
  886TIP3    H1 2599   6.368   2.555   2.304
  886TIP3    H2 2600   6.242   2.543   2.222
  887TIP3   OH2 2601   3.353   2.640   6.619
  887TIP3    H1 2602   3.379   2.731   6.632
  887TIP3    H2 2603   3.400   2.592   6.687
  888TIP3   OH2 2604   4.352   6.324   6.158
  888TIP3    H1 2605   4.400   6.243   6.175
  888TIP3    H2 2606   4.262   6.297   6.144
  889TIP3   OH2 2607   7.498   6.933   3.820
  889TIP3    H1 2608   7.526   7.020   3.848
  889TIP3    H2 2609   7.562   6.873   3.858
  890TIP3   OH2 2610   2.904   5.354   6.348
  890TIP3    H1 2611   2.873   5.308   6.426
  890TIP3    H2 2612   2.913   5.286   6.281
  891TIP3   OH2 2613   5.833   7.876   0.548
  891TIP3    H1 2614   5.863   7.883   0.638
  891TIP3    H2 2615   5.776   7.799   0.547
  892TIP3   OH2 2616   0.711   7.539   0.276
  892TIP3    H1 2617   0.762   7.539   0.357
  892TIP3    H2 2618   0.775   7.560   0.207
  893TIP3   OH2 2619   1.427   7.091   2.618
  893TIP3    H1 2620   1.465   7.010   2.653
  893TIP3    H2 2621   1.337   7.068   2.595
  894TIP3   OH2 2622   0.242   2.577   1.240
  894TIP3    H1 2623   0.161   2.526   1.243
  894TIP3    H2 2624   0.247   2.619   1.326
  895TIP3   OH2 2625   7.379   6.486   6.373
  895TIP3    H1 2626   7.333   6.425   6.315
  895TIP3    H2 2627   7.437   6.536   6.315
  896TIP3   OH2 2628   0.393   2.391   1.784
  896TIP3    H1 2629   0.368   2.331   1.714
  896TIP3    H2 2630   0.428   2.334   1.853
  897TIP3   OH2 2631   0.669   7.657   2.421
  897TIP3    H1 2632   0.754   7.682   2.384
  897TIP3    H2 2633   0.657   7.717   2.495
  898TIP3   OH2 2634   5.180   3.181   3.967
  898TIP3    H1 2635   5.110   3.146   3.912
  898TIP3    H2 2636   5.158   3.273   3.979
  899TIP3   OH2 2637   2.529   2.088   4.911
  899TIP3    H1 2638   2.575   2.154   4.858
  899TIP3    H2 2639   2.491   2.137   4.983
  900TIP3   OH2 2640   4.437   4.771   3.688
  900TIP3    H1 2641   4.509   4.826   3.718
  900TIP3    H2 2642   4.403   4.730   3.768
  901TIP3   OH2 2643   8.280   6.752   4.147
  901TIP3    H1 2644   8.340   6.810   4.100
  901TIP3    H2 2645   8.294   6.666   4.108
  902TIP3   OH2 2646   4.367   1.550   5.471
  902TIP3    H1 2647   4.296   1.580   5.415
  902TIP3    H2 2648   4.324   1.521   5.551
  903TIP3   OH2 2649   2.848   0.851   5.314
  903TIP3    H1 2650   2.777   0.907   5.283
  903TIP3    H2 2651   2.927   0.888   5.274
  904TIP3   OH2 2652   1.315   2.558   2.437
  904TIP3    H1 2653   1.322   2.534   2.529
  904TIP3    H2 2654   1.234   2.516   2.407
  905TIP3   OH2 2655   0.666   1.565   2.714
  905TIP3    H1 2656   0.711   1.611   2.785
  905TIP3    H2 2657   0.576   1.600   2.717
  906TIP3   OH2 2658   0.159   4.828   0.373
  906TIP3    H1 2659   0.094   4.879   0.421
  906TIP3    H2 2660   0.180   4.755   0.430
  907TIP3   OH2 2661   2.196   0.691   1.170
  907TIP3    H1 2662   2.278   0.737   1.187
  907TIP3    H2 2663   2.171   0.654   1.255
  908TIP3   OH2 2664   6.355   5.195   0.714
  908TIP3    H1 2665   6.437   5.165   0.675
  908TIP3    H2 2666   6.362   5.291   0.716
  909TIP3   OH2 2667   2.272   5.819   1.707
  909TIP3    H1 2668   2.297   5.837   1.797
  909TIP3    H2 2669   2.177   5.830   1.706
  910TIP3   OH2 2670   5.657   6.732   3.802
  910TIP3    H1 2671   5.584   6.688   3.847
  910TIP3    H2 2672   5.731   6.724   3.863
  911TIP3   OH2 2673   3.375   4.114   4.868
  911TIP3    H1 2674   3.298   4.070   4.902
  911TIP3    H2 2675   3.405   4.170   4.940
  912TIP3   OH2 2676   5.437   5.437   6.140
  912TIP3    H1 2677   5.370   5.401   6.199
  912TIP3    H2 2678   5.441   5.530   6.163
  913TIP3   OH2 2679   1.320   4.175   2.183
  913TIP3    H1 2680   1.389   4.109   2.190
  913TIP3    H2 2681   1.307   4.185   2.089
  914TIP3   OH2 2682   7.360   0.753   6.099
  914TIP3    H1 2683   7.309   0.822   6.057
  914TIP3    H2 2684   7.297   0.710   6.157
  915TIP3   OH2 2685   7.543   7.729   5.786
  915TIP3    H1 2686   7.529   7.673   5.710
  915TIP3    H2 2687   7.541   7.669   5.861
  916TIP3   OH2 2688   4.896   3.067   4.639
  916TIP3    H1 2689   4.856   2.981   4.627
  916TIP3    H2 2690   4.990   3.052   4.630
  917TIP3   OH2 2691   1.797   5.007   2.204
  917TIP3    H1 2692   1.766   4.944   2.140
  917TIP3    H2 2693   1.723   5.019   2.264
  918TIP3   OH2 2694   5.300   6.365   3.060
  918TIP3    H1 2695   5.324   6.316   2.982
  918TIP3    H2 2696   5.273   6.451   3.027
  919TIP3   OH2 2697   2.093   7.022   2.790
  919TIP3    H1 2698   2.131   7.108   2.770
  919TIP3    H2 2699   2.071   7.027   2.883
  920TIP3   OH2 2700   7.262   0.640   4.931
  920TIP3    H1 2701   7.289   0.595   4.851
  920TIP3    H2 2702   7.300   0.728   4.922
  921TIP3   OH2 2703   4.211   6.759   1.540
  921TIP3    H1 2704   4.155   6.728   1.469
  921TIP3    H2 2705   4.295   6.777   1.499
  922TIP3   OH2 2706   0.384   3.325   5.602
  922TIP3    H1 2707   0.367   3.405   5.552
  922TIP3    H2 2708   0.303   3.309   5.650
  923TIP3   OH2 2709   7.671   5.888   6.370
  923TIP3    H1 2710   7.593   5.900   6.423
  923TIP3    H2 2711   7.644   5.829   6.300
  924TIP3   OH2 2712   5.917   6.382   2.231
  924TIP3    H1 2713   5.837   6.414   2.272
  924TIP3    H2 2714   5.972   6.353   2.305
  925TIP3   OH2 2715   1.206   7.467   3.211
  925TIP3    H1 2716   1.272   7.504   3.152
  925TIP3    H2 2717   1.246   7.386   3.243
  926TIP3   OH2 2718   0.083   6.480   2.699
  926TIP3    H1 2719  -0.002   6.444   2.727
  926TIP3    H2 2720   0.126   6.408   2.654
  927TIP3   OH2 2721   8.195   4.109   6.428
  927TIP3    H1 2722   8.135   4.126   6.355
  927TIP3    H2 2723   8.199   4.014   6.434
  928TIP3   OH2 2724   2.820   4.245   4.093
  928TIP3    H1 2725   2.875   4.191   4.149
  928TIP3    H2 2726   2.870   4.255   4.012
  929TIP3   OH2 2727   1.919   3.416   6.311
  929TIP3    H1 2728   1.844   3.463   6.348
  929TIP3    H2 2729   1.951   3.363   6.384
  930TIP3   OH2 2730   4.621   4.710   2.920
  930TIP3    H1 2731   4.535   4.750   2.906
  930TIP3    H2 2732   4.609   4.655   2.997
  931TIP3   OH2 2733   7.671   7.820   1.166
  931TIP3    H1 2734   7.646   7.913   1.170
  931TIP3    H2 2735   7.670   7.792   1.258
  932TIP3   OH2 2736   2.838   6.059   2.432
  932TIP3    H1 2737   2.893   6.135   2.414
  932TIP3    H2 2738   2.886   6.008   2.496
  933TIP3   OH2 2739   6.213   2.020   3.418
  933TIP3    H1 2740   6.259   2.057   3.342
  933TIP3    H2 2741   6.224   1.926   3.409
  934TIP3   OH2 2742   0.936   3.711   1.600
  934TIP3    H1 2743   0.882   3.786   1.574
  934TIP3    H2 2744   0.882   3.635   1.578
  935TIP3   OH2 2745   5.102   1.154   0.781
  935TIP3    H1 2746   5.101   1.070   0.735
  935TIP3    H2 2747   5.179   1.199   0.746
  936TIP3   OH2 2748   4.162   5.697   5.101
  936TIP3    H1 2749   4.099   5.769   5.094
  936TIP3    H2 2750   4.233   5.722   5.042
  937TIP3   OH2 2751   7.731   5.879   5.942
  937TIP3    H1 2752   7.791   5.920   6.005
  937TIP3    H2 2753   7.732   5.786   5.965
  938TIP3   OH2 2754   1.313   1.523   2.680
  938TIP3    H1 2755   1.408   1.515   2.670
  938TIP3    H2 2756   1.277   1.456   2.622
  939TIP3   OH2 2757   2.494   4.190   2.049
  939TIP3    H1 2758   2.515   4.097   2.045
  939TIP3    H2 2759   2.544   4.222   2.124
  940TIP3   OH2 2760   0.622   4.902   1.027
  940TIP3    H1 2761   0.678   4.890   0.951
  940TIP3    H2 2762   0.616   4.814   1.066
  941TIP3   OH2 2763   6.830   0.125   2.521
  941TIP3    H1 2764   6.898   0.191   2.530
  941TIP3    H2 2765   6.839   0.070   2.599
  942TIP3   OH2 2766   3.421   0.347   4.217
  942TIP3    H1 2767   3.366   0.366   4.292
  942TIP3    H2 2768   3.503   0.393   4.235
  943TIP3   OH2 2769   0.438   4.706   3.812
  943TIP3    H1 2770   0.391   4.708   3.895
  943TIP3    H2 2771   0.387   4.761   3.753
  944TIP3   OH2 2772   6.301   7.601   2.611
  944TIP3    H1 2773   6.251   7.663   2.665
  944TIP3    H2 2774   6.372   7.571   2.668
  945TIP3   OH2 2775   1.404   5.593   6.384
  945TIP3    H1 2776   1.423   5.581   6.477
  945TIP3    H2 2777   1.428   5.510   6.344
  946TIP3   OH2 2778   0.066   3.112   1.360
  946TIP3    H1 2779   0.049   3.151   1.446
  946TIP3    H2 2780   0.015   3.165   1.299
  947TIP3   OH2 2781   7.008   4.478   5.685
  947TIP3    H1 2782   6.934   4.513   5.735
  947TIP3    H2 2783   6.972   4.402   5.639
  948TIP3   OH2 2784   7.131   6.562   0.294
  948TIP3    H1 2785   7.119   6.511   0.213
  948TIP3    H2 2786   7.139   6.496   0.362
  949TIP3   OH2 2787   8.172   3.213   4.297
  949TIP3    H1 2788   8.183   3.209   4.392
  949TIP3    H2 2789   8.233   3.147   4.263
  950TIP3   OH2 2790   4.365   7.099   6.008
  950TIP3    H1 2791   4.278   7.120   6.041
  950TIP3    H2 2792   4.350   7.068   5.919
  951TIP3   OH2 2793   2.080   6.711   4.877
  951TIP3    H1 2794   2.046   6.644   4.936
  951TIP3    H2 2795   2.106   6.782   4.935
  952TIP3   OH2 2796   6.405   5.809   2.677
  952TIP3    H1 2797   6.371   5.720   2.666
  952TIP3    H2 2798   6.330   5.860   2.707
  953TIP3   OH2 2799   0.330   1.792   0.749
  953TIP3    H1 2800   0.238   1.816   0.759
  953TIP3    H2 2801   0.353   1.823   0.662
  954TIP3   OH2 2802   6.225   3.974   3.967
  954TIP3    H1 2803   6.149   3.926   3.935
  954TIP3    H2 2804   6.195   4.014   4.049
  955TIP3   OH2 2805   4.458   4.358   1.977
  955TIP3    H1 2806   4.478   4.302   2.052
  955TIP3    H2 2807   4.395   4.421   2.011
  956TIP3   OH2 2808   7.866   7.661   5.694
  956TIP3    H1 2809   7.832   7.736   5.645
  956TIP3    H2 2810   7.821   7.586   5.655
  957TIP3   OH2 2811   5.547   1.087   4.499
  957TIP3    H1 2812   5.522   1.039   4.420
  957TIP3    H2 2813   5.557   1.178   4.469
  958TIP3   OH2 2814   8.106   3.878   3.818
  958TIP3    H1 2815   8.112   3.873   3.722
  958TIP3    H2 2816   8.127   3.790   3.848
  959TIP3   OH2 2817   5.749   2.729   4.572
  959TIP3    H1 2818   5.696   2.732   4.493
  959TIP3    H2 2819   5.829   2.683   4.546
  960TIP3   OH2 2820   0.660   6.016   0.914
  960TIP3    H1 2821   0.680   5.930   0.877
  960TIP3    H2 2822   0.603   5.998   0.989
  961TIP3   OH2 2823   0.807   5.485   5.371
  961TIP3    H1 2824   0.822   5.531   5.453
  961TIP3    H2 2825   0.743   5.417   5.393
  962TIP3   OH2 2826   2.654   1.059   3.839
  962TIP3    H1 2827   2.612   0.974   3.822
  962TIP3    H2 2828   2.591   1.106   3.894
  963TIP3   OH2 2829   7.748   6.355   0.646
  963TIP3    H1 2830   7.678   6.419   0.641
  963TIP3    H2 2831   7.739   6.317   0.734
  964TIP3   OH2 2832   3.992   1.857   1.196
  964TIP3    H1 2833   4.074   1.906   1.192
  964TIP3    H2 2834   3.923   1.924   1.191
  965TIP3   OH2 2835   0.241   7.620   4.310
  965TIP3    H1 2836   0.317   7.601   4.255
  965TIP3    H2 2837   0.277   7.665   4.386
  966TIP3   OH2 2838   7.621   6.560   3.521
  966TIP3    H1 2839   7.703   6.560   3.570
  966TIP3    H2 2840   7.621   6.475   3.476
  967TIP3   OH2 2841   3.625   2.645   1.982
  967TIP3    H1 2842   3.567   2.720   1.973
  967TIP3    H2 2843   3.609   2.612   2.070
  968TIP3   OH2 2844   0.449   2.529   4.052
  968TIP3    H1 2845   0.513   2.582   4.099
  968TIP3    H2 2846   0.364   2.557   4.086
  969TIP3   OH2 2847   3.932   3.868   4.681
  969TIP3    H1 2848   3.850   3.881   4.633
  969TIP3    H2 2849   3.905   3.831   4.765
  970TIP3   OH2 2850   7.725   7.524   5.107
  970TIP3    H1 2851   7.684   7.586   5.046
  970TIP3    H2 2852   7.662   7.515   5.178
  971TIP3   OH2 2853   4.845   4.417   3.623
  971TIP3    H1 2854   4.812   4.464   3.699
  971TIP3    H2 2855   4.778   4.350   3.605
  972TIP3   OH2 2856   7.296   3.349   3.294
  972TIP3    H1 2857   7.215   3.306   3.319
  972TIP3    H2 2858   7.365   3.292   3.327
  973TIP3   OH2 2859   5.084   5.766   4.043
  973TIP3    H1 2860   5.133   5.793   3.965
  973TIP3    H2 2861   5.144   5.784   4.115
  974TIP3   OH2 2862   3.948   3.794   1.241
  974TIP3    H1 2863   3.930   3.730   1.172
  974TIP3    H2 2864   3.933   3.879   1.199
  975TIP3   OH2 2865   3.251   7.617   4.726
  975TIP3    H1 2866   3.162   7.638   4.757
  975TIP3    H2 2867   3.237   7.564   4.648
  976TIP3   OH2 2868   8.352   7.835   4.967
  976TIP3    H1 2869   8.329   7.746   4.995
  976TIP3    H2 2870   8.329   7.836   4.874
  977TIP3   OH2 2871   4.047   2.170   2.124
  977TIP3    H1 2872   4.111   2.100   2.112
  977TIP3    H2 2873   4.032   2.205   2.036
  978TIP3   OH2 2874   6.764   5.440   5.956
  978TIP3    H1 2875   6.672   5.463   5.970
  978TIP3    H2 2876   6.769   5.348   5.982
  979TIP3   OH2 2877   2.412   3.128   6.330
  979TIP3    H1 2878   2.398   3.034   6.344
  979TIP3    H2 2879   2.324   3.166   6.333
  980TIP3   OH2 2880   2.849   1.185   1.907
  980TIP3    H1 2881   2.790   1.157   1.837
  980TIP3    H2 2882   2.803   1.165   1.988
  981TIP3   OH2 2883   6.762   5.574   5.340
  981TIP3    H1 2884   6.765   5.653   5.394
  981TIP3    H2 2885   6.724   5.602   5.257
  982TIP3   OH2 2886   2.399   5.151   4.760
  982TIP3    H1 2887   2.348   5.208   4.818
  982TIP3    H2 2888   2.446   5.092   4.819
  983TIP3   OH2 2889   3.212   3.213   3.921
  983TIP3    H1 2890   3.255   3.177   3.998
  983TIP3    H2 2891   3.147   3.147   3.896
  984TIP3   OH2 2892   2.962   6.566   1.080
  984TIP3    H1 2893   2.929   6.571   0.991
  984TIP3    H2 2894   2.951   6.474   1.105
  985TIP3   OH2 2895   4.549   1.023   4.237
  985TIP3    H1 2896   4.533   0.949   4.178
  985TIP3    H2 2897   4.613   0.991   4.300
  986TIP3   OH2 2898   4.733   4.522   3.865
  986TIP3    H1 2899   4.685   4.572   3.931
  986TIP3    H2 2900   4.816   4.568   3.855
  987TIP3   OH2 2901   7.340   3.577   5.629
  987TIP3    H1 2902   7.364   3.533   5.547
  987TIP3    H2 2903   7.337   3.670   5.607
  988TIP3   OH2 2904   5.771   7.069   5.754
  988TIP3    H1 2905   5.683   7.101   5.734
  988TIP3    H2 2906   5.816   7.144   5.793
  989TIP3   OH2 2907   7.864   2.529   2.556
  989TIP3    H1 2908   7.939   2.506   2.611
  989TIP3    H2 2909   7.819   2.598   2.605
  990TIP3   OH2 2910   6.113   5.060   0.787
  990TIP3    H1 2911   6.144   4.979   0.827
  990TIP3    H2 2912   6.188   5.094   0.739
  991TIP3   OH2 2913   3.490   6.496   5.318
  991TIP3    H1 2914   3.475   6.448   5.236
  991TIP3    H2 2915   3.416   6.556   5.324
  992TIP3   OH2 2916   7.253   2.360   0.361
  992TIP3    H1 2917   7.244   2.399   0.274
  992TIP3    H2 2918   7.292   2.274   0.344
  993TIP3   OH2 2919   3.746   3.410   2.804
  993TIP3    H1 2920   3.820   3.432   2.748
  993TIP3    H2 2921   3.785   3.388   2.889
  994TIP3   OH2 2922   0.261   6.140   5.863
  994TIP3    H1 2923   0.179   6.115   5.905
  994TIP3    H2 2924   0.326   6.080   5.900
  995TIP3   OH2 2925   3.754   5.195   1.120
  995TIP3    H1 2926   3.752   5.267   1.184
  995TIP3    H2 2927   3.745   5.116   1.173
  996TIP3   OH2 2928   4.010   7.140   4.304
  996TIP3    H1 2929   3.998   7.092   4.386
  996TIP3    H2 2930   4.062   7.081   4.249
  997TIP3   OH2 2931   3.902   7.693   6.428
  997TIP3    H1 2932   3.972   7.726   6.372
  997TIP3    H2 2933   3.947   7.652   6.502
  998TIP3   OH2 2934   4.806   2.454   4.042
  998TIP3    H1 2935   4.843   2.528   4.090
  998TIP3    H2 2936   4.841   2.376   4.086
  999TIP3   OH2 2937   6.325   5.835   6.382
  999TIP3    H1 2938   6.295   5.925   6.385
  999TIP3    H2 2939   6.347   5.820   6.290
 1000TIP3   OH2 2940   6.056   5.242   3.597
 1000TIP3    H1 2941   5.975   5.286   3.623
 1000TIP3    H2 2942   6.119   5.264   3.666
 1001TIP3   OH2 2943   1.755   2.116   4.485
 1001TIP3    H1 2944   1.844   2.088   4.504
 1001TIP3    H2 2945   1.752   2.208   4.513
 1002TIP3   OH2 2946   4.500   1.618   6.060
 1002TIP3    H1 2947   4.512   1.564   5.982
 1002TIP3    H2 2948   4.559   1.579   6.125
 1003TIP3   OH2 2949   3.983   4.109   1.752
 1003TIP3    H1 2950   4.048   4.067   1.696
 1003TIP3    H2 2951   3.952   4.184   1.701
 1004TIP3   OH2 2952   4.895   1.480   5.430
 1004TIP3    H1 2953   4.898   1.565   5.386
 1004TIP3    H2 2954   4.809   1.477   5.473
 1005TIP3   OH2 2955   0.678   5.581   3.651
 1005TIP3    H1 2956   0.689   5.557   3.743
 1005TIP3    H2 2957   0.765   5.567   3.612
 1006TIP3   OH2 2958   1.190   1.280   1.297
 1006TIP3    H1 2959   1.266   1.315   1.344
 1006TIP3    H2 2960   1.185   1.332   1.217
 1007TIP3   OH2 2961   5.164   4.759   2.415
 1007TIP3    H1 2962   5.258   4.743   2.426
 1007TIP3    H2 2963   5.159   4.822   2.343
 1008TIP3   OH2 2964   7.776   4.331   1.494
 1008TIP3    H1 2965   7.868   4.337   1.518
 1008TIP3    H2 2966   7.764   4.399   1.427
 1009TIP3   OH2 2967   4.008   5.799   5.482
 1009TIP3    H1 2968   3.963   5.877   5.515
 1009TIP3    H2 2969   3.941   5.731   5.481
 1010TIP3   OH2 2970   3.327   6.361   4.393
 1010TIP3    H1 2971   3.244   6.385   4.353
 1010TIP3    H2 2972   3.325   6.402   4.480
 1011TIP3   OH2 2973   3.922   4.536   2.114
 1011TIP3    H1 2974   3.843   4.483   2.108
 1011TIP3    H2 2975   3.961   4.511   2.198
 1012TIP3   OH2 2976   5.649   7.163   4.707
 1012TIP3    H1 2977   5.623   7.070   4.711
 1012TIP3    H2 2978   5.601   7.204   4.779
 1013TIP3   OH2 2979   6.573   0.312   2.764
 1013TIP3    H1 2980   6.597   0.371   2.693
 1013TIP3    H2 2981   6.489   0.344   2.795
 1014TIP3   OH2 2982   1.823   7.182   5.204
 1014TIP3    H1 2983   1.739   7.214   5.235
 1014TIP3    H2 2984   1.805   7.094   5.171
 1015TIP3   OH2 2985   2.017   5.010   5.222
 1015TIP3    H1 2986   2.096   4.955   5.222
 1015TIP3    H2 2987   1.955   4.964   5.167
 1016TIP3   OH2 2988   0.550   4.866   3.054
 1016TIP3    H1 2989   0.548   4.866   3.150
 1016TIP3    H2 2990   0.577   4.777   3.031
 1017TIP3   OH2 2991   7.352   2.001   5.059
 1017TIP3    H1 2992   7.291   2.050   5.114
 1017TIP3    H2 2993   7.364   1.918   5.104
 1018TIP3   OH2 2994   3.759   2.064   5.247
 1018TIP3    H1 2995   3.805   2.131   5.297
 1018TIP3    H2 2996   3.678   2.047   5.295
 1019TIP3   OH2 2997   7.389   3.234   1.781
 1019TIP3    H1 2998   7.314   3.275   1.738
 1019TIP3    H2 2999   7.375   3.251   1.875
 1020TIP3   OH2 3000   1.615   0.457   2.792
 1020TIP3    H1 3001   1.688   0.463   2.730
 1020TIP3    H2 3002   1.545   0.412   2.743
 1021TIP3   OH2 3003   4.946   6.718   6.055
 1021TIP3    H1 3004   5.037   6.735   6.077
 1021TIP3    H2 3005   4.916   6.797   6.011
 1022TIP3   OH2 3006   6.761   1.093   1.307
 1022TIP3    H1 3007   6.750   1.016   1.362
 1022TIP3    H2 3008   6.852   1.091   1.280
 1023TIP3   OH2 3009   7.593   3.664   0.933
 1023TIP3    H1 3010   7.625   3.725   1.000
 1023TIP3    H2 3011   7.668   3.653   0.873
 1024TIP3   OH2 3012   4.384   5.168   5.613
 1024TIP3    H1 3013   4.421   5.095   5.563
 1024TIP3    H2 3014   4.311   5.129   5.661
 1025TIP3   OH2 3015   6.541   4.658   4.186
 1025TIP3    H1 3016   6.576   4.720   4.251
 1025TIP3    H2 3017   6.579   4.574   4.211
 1026TIP3   OH2 3018   1.555   0.055   1.006
 1026TIP3    H1 3019   1.526  -0.014   1.065
 1026TIP3    H2 3020   1.512   0.134   1.039
 1027TIP3   OH2 3021   6.687   7.028   2.770
 1027TIP3    H1 3022   6.696   7.067   2.858
 1027TIP3    H2 3023   6.696   6.934   2.785
 1028TIP3   OH2 3024   8.135   6.529   6.758
 1028TIP3    H1 3025   8.044   6.556   6.747
 1028TIP3    H2 3026   8.141   6.502   6.850
 1029TIP3   OH2 3027   3.744   1.370   1.471
 1029TIP3    H1 3028   3.721   1.385   1.563
 1029TIP3    H2 3029   3.840   1.366   1.471
 1030TIP3   OH2 3030   1.830   5.034   3.078
 1030TIP3    H1 3031   1.825   4.979   3.000
 1030TIP3    H2 3032   1.854   5.121   3.044
 1031TIP3   OH2 3033   7.659   2.693   3.090
 1031TIP3    H1 3034   7.683   2.786   3.084
 1031TIP3    H2 3035   7.636   2.680   3.182
 1032TIP3   OH2 3036   7.766   0.219   0.792
 1032TIP3    H1 3037   7.726   0.177   0.868
 1032TIP3    H2 3038   7.694   0.232   0.730
 1033TIP3   OH2 3039   8.350   2.118   0.853
 1033TIP3    H1 3040   8.329   2.132   0.945
 1033TIP3    H2 3041   8.372   2.025   0.847
 1034TIP3   OH2 3042   8.112   2.111   0.476
 1034TIP3    H1 3043   8.068   2.119   0.391
 1034TIP3    H2 3044   8.074   2.181   0.529
 1035TIP3   OH2 3045   1.401   1.548   1.619
 1035TIP3    H1 3046   1.401   1.481   1.550
 1035TIP3    H2 3047   1.368   1.627   1.575
 1036TIP3   OH2 3048   7.806   2.058   6.256
 1036TIP3    H1 3049   7.728   2.111   6.240
 1036TIP3    H2 3050   7.838   2.035   6.169
 1037TIP3   OH2 3051   5.868   2.273   3.166
 1037TIP3    H1 3052   5.827   2.336   3.107
 1037TIP3    H2 3053   5.934   2.323   3.213
 1038TIP3   OH2 3054   2.108   6.015   0.805
 1038TIP3    H1 3055   2.093   6.004   0.899
 1038TIP3    H2 3056   2.071   5.936   0.766
 1039TIP3   OH2 3057   0.112   4.102   3.862
 1039TIP3    H1 3058   0.090   4.116   3.954
 1039TIP3    H2 3059   0.147   4.013   3.860
 1040TIP3   OH2 3060   4.435   5.650   3.715
 1040TIP3    H1 3061   4.391   5.680   3.794
 1040TIP3    H2 3062   4.457   5.559   3.732
 1041TIP3   OH2 3063   1.094   6.392   0.318
 1041TIP3    H1 3064   1.167   6.373   0.260
 1041TIP3    H2 3065   1.134   6.431   0.396
 1042TIP3   OH2 3066   4.170   5.609   3.030
 1042TIP3    H1 3067   4.088   5.628   2.984
 1042TIP3    H2 3068   4.234   5.596   2.960
 1043TIP3   OH2 3069   3.162   5.001   1.818
 1043TIP3    H1 3070   3.075   5.008   1.859
 1043TIP3    H2 3071   3.207   5.081   1.846
 1044TIP3   OH2 3072   0.207   1.168   5.103
 1044TIP3    H1 3073   0.134   1.106   5.107
 1044TIP3    H2 3074   0.204   1.203   5.014
 1045TIP3   OH2 3075   5.846   2.393   3.919
 1045TIP3    H1 3076   5.893   2.423   3.841
 1045TIP3    H2 3077   5.915   2.374   3.983
 1046TIP3   OH2 3078   3.472   7.649   4.041
 1046TIP3    H1 3079   3.458   7.560   4.074
 1046TIP3    H2 3080   3.558   7.673   4.075
 1047TIP3   OH2 3081   1.260   0.739   2.849
 1047TIP3    H1 3082   1.182   0.761   2.899
 1047TIP3    H2 3083   1.310   0.681   2.907
 1048TIP3   OH2 3084   3.070   5.857   4.488
 1048TIP3    H1 3085   3.159   5.879   4.461
 1048TIP3    H2 3086   3.017   5.931   4.460
 1049TIP3   OH2 3087   4.729   6.692   1.293
 1049TIP3    H1 3088   4.721   6.696   1.389
 1049TIP3    H2 3089   4.822   6.701   1.276
 1050TIP3   OH2 3090   6.465   5.449   5.935
 1050TIP3    H1 3091   6.436   5.375   5.881
 1050TIP3    H2 3092   6.447   5.421   6.025
 1051TIP3   OH2 3093   0.707   5.331   1.202
 1051TIP3    H1 3094   0.781   5.348   1.143
 1051TIP3    H2 3095   0.630   5.355   1.151
 1052TIP3   OH2 3096   0.993   5.124   2.049
 1052TIP3    H1 3097   1.031   5.208   2.026
 1052TIP3    H2 3098   0.899   5.138   2.047
 1053TIP3   OH2 3099   1.353   0.866   6.535
 1053TIP3    H1 3100   1.416   0.927   6.497
 1053TIP3    H2 3101   1.383   0.779   6.507
 1054TIP3   OH2 3102   6.039   3.053   1.427
 1054TIP3    H1 3103   6.098   2.991   1.469
 1054TIP3    H2 3104   6.097   3.110   1.376
 1055TIP3   OH2 3105   1.870   0.720   1.817
 1055TIP3    H1 3106   1.775   0.720   1.809
 1055TIP3    H2 3107   1.899   0.665   1.744
 1056TIP3   OH2 3108   8.230   4.470   3.024
 1056TIP3    H1 3109   8.165   4.409   2.990
 1056TIP3    H2 3110   8.312   4.420   3.021
 1057TIP3   OH2 3111   6.872   1.816   4.505
 1057TIP3    H1 3112   6.921   1.865   4.439
 1057TIP3    H2 3113   6.875   1.725   4.475
 1058TIP3   OH2 3114   4.250   0.652   1.021
 1058TIP3    H1 3115   4.248   0.560   1.045
 1058TIP3    H2 3116   4.319   0.658   0.954
 1059TIP3   OH2 3117   4.676   2.131   3.760
 1059TIP3    H1 3118   4.665   2.146   3.666
 1059TIP3    H2 3119   4.756   2.179   3.783
 1060TIP3   OH2 3120   2.028   4.745   6.014
 1060TIP3    H1 3121   2.061   4.707   6.096
 1060TIP3    H2 3122   2.023   4.839   6.032
 1061TIP3   OH2 3123   0.372   4.929   1.316
 1061TIP3    H1 3124   0.297   4.983   1.339
 1061TIP3    H2 3125   0.384   4.942   1.221
 1062TIP3   OH2 3126   6.135   6.091   0.431
 1062TIP3    H1 3127   6.052   6.068   0.389
 1062TIP3    H2 3128   6.156   6.178   0.398
 1063TIP3   OH2 3129   4.481   7.391   6.241
 1063TIP3    H1 3130   4.516   7.449   6.174
 1063TIP3    H2 3131   4.471   7.447   6.318
 1064TIP3   OH2 3132   5.475   7.751   2.274
 1064TIP3    H1 3133   5.568   7.732   2.263
 1064TIP3    H2 3134   5.471   7.847   2.278
 1065TIP3   OH2 3135   6.569   1.798   6.140
 1065TIP3    H1 3136   6.648   1.830   6.184
 1065TIP3    H2 3137   6.599   1.772   6.052
 1066TIP3   OH2 3138   2.364   3.169   3.409
 1066TIP3    H1 3139   2.356   3.253   3.363
 1066TIP3    H2 3140   2.312   3.181   3.489
 1067TIP3   OH2 3141   7.528   1.473   0.520
 1067TIP3    H1 3142   7.533   1.417   0.598
 1067TIP3    H2 3143   7.488   1.554   0.551
 1068TIP3   OH2 3144   1.490   1.348   6.331
 1068TIP3    H1 3145   1.518   1.259   6.308
 1068TIP3    H2 3146   1.507   1.399   6.252
 1069TIP3   OH2 3147   7.038   5.860   1.861
 1069TIP3    H1 3148   6.995   5.943   1.841
 1069TIP3    H2 3149   7.055   5.864   1.955
 1070TIP3   OH2 3150   1.184   5.681   1.363
 1070TIP3    H1 3151   1.243   5.729   1.306
 1070TIP3    H2 3152   1.117   5.646   1.303
 1071TIP3   OH2 3153   6.385   2.084   3.211
 1071TIP3    H1 3154   6.444   2.068   3.284
 1071TIP3    H2 3155   6.388   2.004   3.159
 1072TIP3   OH2 3156   1.639   3.896   4.644
 1072TIP3    H1 3157   1.576   3.853   4.701
 1072TIP3    H2 3158   1.592   3.912   4.562
 1073TIP3   OH2 3159   2.668   2.224   5.792
 1073TIP3    H1 3160   2.660   2.289   5.861
 1073TIP3    H2 3161   2.742   2.169   5.818
 1074TIP3   OH2 3162   3.082   4.994   2.748
 1074TIP3    H1 3163   3.026   4.973   2.823
 1074TIP3    H2 3164   3.024   5.040   2.687
 1075TIP3   OH2 3165   0.368   2.386   2.225
 1075TIP3    H1 3166   0.458   2.378   2.256
 1075TIP3    H2 3167   0.336   2.467   2.263
 1076TIP3   OH2 3168   0.590   4.795   2.397
 1076TIP3    H1 3169   0.509   4.755   2.365
 1076TIP3    H2 3170   0.564   4.844   2.475
 1077TIP3   OH2 3171   1.340   7.063   0.697
 1077TIP3    H1 3172   1.305   7.146   0.731
 1077TIP3    H2 3173   1.263   7.018   0.662
 1078TIP3   OH2 3174   4.590   3.985   3.109
 1078TIP3    H1 3175   4.530   3.911   3.096
 1078TIP3    H2 3176   4.644   3.958   3.184
 1079TIP3   OH2 3177   0.331   7.496   6.399
 1079TIP3    H1 3178   0.405   7.508   6.339
 1079TIP3    H2 3179   0.268   7.444   6.350
 1080TIP3   OH2 3180   7.241   1.182   0.644
 1080TIP3    H1 3181   7.189   1.257   0.675
 1080TIP3    H2 3182   7.266   1.206   0.555
 1081TIP3   OH2 3183   4.636   5.975   6.408
 1081TIP3    H1 3184   4.583   6.051   6.382
 1081TIP3    H2 3185   4.638   5.980   6.504
 1082TIP3   OH2 3186   2.648   2.144   5.540
 1082TIP3    H1 3187   2.735   2.144   5.500
 1082TIP3    H2 3188   2.661   2.190   5.624
 1083TIP3   OH2 3189   7.343   2.418   5.228
 1083TIP3    H1 3190   7.431   2.387   5.208
 1083TIP3    H2 3191   7.328   2.392   5.319
 1084TIP3   OH2 3192   5.293   1.612   2.068
 1084TIP3    H1 3193   5.352   1.537   2.074
 1084TIP3    H2 3194   5.350   1.688   2.070
 1085TIP3   OH2 3195   4.919   0.756   4.662
 1085TIP3    H1 3196   4.905   0.663   4.676
 1085TIP3    H2 3197   4.873   0.799   4.734
 1086TIP3   OH2 3198   7.213   3.850   3.389
 1086TIP3    H1 3199   7.293   3.826   3.434
 1086TIP3    H2 3200   7.241   3.905   3.317
 1087TIP3   OH2 3201   6.480   5.149   2.896
 1087TIP3    H1 3202   6.535   5.172   2.971
 1087TIP3    H2 3203   6.396   5.125   2.934
 1088TIP3   OH2 3204   3.357   4.127   0.638
 1088TIP3    H1 3205   3.310   4.207   0.662
 1088TIP3    H2 3206   3.428   4.156   0.581
 1089TIP3   OH2 3207   0.461   4.826   4.235
 1089TIP3    H1 3208   0.477   4.736   4.265
 1089TIP3    H2 3209   0.399   4.861   4.299
 1090TIP3   OH2 3210   3.237   6.172   5.253
 1090TIP3    H1 3211   3.328   6.159   5.227
 1090TIP3    H2 3212   3.192   6.092   5.223
 1091TIP3   OH2 3213   6.101   2.376   0.040
 1091TIP3    H1 3214   6.026   2.388  -0.017
 1091TIP3    H2 3215   6.129   2.286   0.026
 1092TIP3   OH2 3216   1.671   2.597   0.210
 1092TIP3    H1 3217   1.626   2.646   0.142
 1092TIP3    H2 3218   1.602   2.576   0.274
 1093TIP3   OH2 3219   5.988   1.127   2.974
 1093TIP3    H1 3220   5.937   1.161   3.048
 1093TIP3    H2 3221   5.940   1.048   2.947
 1094TIP3   OH2 3222   2.540   6.574   1.204
 1094TIP3    H1 3223   2.617   6.558   1.258
 1094TIP3    H2 3224   2.525   6.668   1.211
 1095TIP3   OH2 3225   0.761   1.025   4.404
 1095TIP3    H1 3226   0.769   0.932   4.427
 1095TIP3    H2 3227   0.671   1.048   4.429
 1096TIP3   OH2 3228   7.387   3.241   6.030
 1096TIP3    H1 3229   7.402   3.171   5.966
 1096TIP3    H2 3230   7.475   3.264   6.061
 1097TIP3   OH2 3231   6.261   5.527   6.415
 1097TIP3    H1 3232   6.260   5.466   6.489
 1097TIP3    H2 3233   6.257   5.613   6.455
 1098TIP3   OH2 3234   6.621   3.041   1.585
 1098TIP3    H1 3235   6.659   2.954   1.596
 1098TIP3    H2 3236   6.649   3.069   1.498
 1099TIP3   OH2 3237   1.557   1.699   2.816
 1099TIP3    H1 3238   1.506   1.726   2.740
 1099TIP3    H2 3239   1.511   1.736   2.891
 1100TIP3   OH2 3240   1.847   2.066   2.647
 1100TIP3    H1 3241   1.828   2.117   2.568
 1100TIP3    H2 3242   1.865   2.131   2.714
 1101TIP3   OH2 3243   5.804   5.249   1.159
 1101TIP3    H1 3244   5.851   5.224   1.080
 1101TIP3    H2 3245   5.763   5.168   1.189
 1102TIP3   OH2 3246   1.261   5.595   3.640
 1102TIP3    H1 3247   1.303   5.549   3.713
 1102TIP3    H2 3248   1.334   5.629   3.588
 1103TIP3   OH2 3249   3.075   2.268   6.311
 1103TIP3    H1 3250   3.150   2.265   6.252
 1103TIP3    H2 3251   3.052   2.176   6.325
 1104TIP3   OH2 3252   4.241   4.277   3.085
 1104TIP3    H1 3253   4.219   4.186   3.068
 1104TIP3    H2 3254   4.184   4.303   3.158
 1105TIP3   OH2 3255   1.494   1.613   4.263
 1105TIP3    H1 3256   1.438   1.690   4.260
 1105TIP3    H2 3257   1.469   1.563   4.184
 1106TIP3   OH2 3258   3.510   3.926   3.884
 1106TIP3    H1 3259   3.517   3.845   3.935
 1106TIP3    H2 3260   3.441   3.908   3.820
 1107TIP3   OH2 3261   4.615   7.097   3.321
 1107TIP3    H1 3262   4.555   7.137   3.257
 1107TIP3    H2 3263   4.681   7.053   3.268
 1108TIP3   OH2 3264   4.449   3.471   5.766
 1108TIP3    H1 3265   4.484   3.548   5.721
 1108TIP3    H2 3266   4.362   3.499   5.795
 1109TIP3   OH2 3267   2.620   2.734   1.030
 1109TIP3    H1 3268   2.701   2.782   1.008
 1109TIP3    H2 3269   2.550   2.798   1.015
 1110TIP3   OH2 3270   3.969   2.605   5.560
 1110TIP3    H1 3271   3.888   2.556   5.573
 1110TIP3    H2 3272   3.979   2.609   5.465
 1111TIP3   OH2 3273   4.358   2.670   3.767
 1111TIP3    H1 3274   4.383   2.650   3.677
 1111TIP3    H2 3275   4.350   2.584   3.809
 1112TIP3   OH2 3276   7.789   7.410   5.578
 1112TIP3    H1 3277   7.755   7.376   5.495
 1112TIP3    H2 3278   7.824   7.333   5.622
 1113TIP3   OH2 3279   3.764   2.205   4.825
 1113TIP3    H1 3280   3.726   2.293   4.827
 1113TIP3    H2 3281   3.820   2.205   4.747
 1114TIP3   OH2 3282   4.675   3.115   5.359
 1114TIP3    H1 3283   4.753   3.060   5.366
 1114TIP3    H2 3284   4.708   3.201   5.335
 1115TIP3   OH2 3285   3.316   4.649   3.319
 1115TIP3    H1 3286   3.357   4.631   3.403
 1115TIP3    H2 3287   3.363   4.595   3.256
 1116TIP3   OH2 3288   5.081   5.030   2.844
 1116TIP3    H1 3289   5.054   4.955   2.791
 1116TIP3    H2 3290   5.134   5.083   2.784
 1117TIP3   OH2 3291   2.203   6.947   4.953
 1117TIP3    H1 3292   2.183   7.041   4.945
 1117TIP3    H2 3293   2.289   6.937   4.913
 1118TIP3   OH2 3294   4.431   2.992   1.845
 1118TIP3    H1 3295   4.488   2.964   1.774
 1118TIP3    H2 3296   4.386   3.069   1.811
 1119TIP3   OH2 3297   2.603   3.423   4.798
 1119TIP3    H1 3298   2.583   3.512   4.827
 1119TIP3    H2 3299   2.640   3.433   4.711
 1120TIP3   OH2 3300   2.887   7.579   6.619
 1120TIP3    H1 3301   2.943   7.560   6.694
 1120TIP3    H2 3302   2.908   7.670   6.596
 1121TIP3   OH2 3303   3.258   2.260   5.528
 1121TIP3    H1 3304   3.252   2.176   5.482
 1121TIP3    H2 3305   3.167   2.289   5.537
 1122TIP3   OH2 3306   5.167   1.146   1.410
 1122TIP3    H1 3307   5.203   1.136   1.498
 1122TIP3    H2 3308   5.130   1.060   1.389
 1123TIP3   OH2 3309   5.819   0.235   3.249
 1123TIP3    H1 3310   5.855   0.319   3.221
 1123TIP3    H2 3311   5.728   0.237   3.219
 1124TIP3   OH2 3312   4.914   3.489   0.378
 1124TIP3    H1 3313   4.872   3.513   0.296
 1124TIP3    H2 3314   4.942   3.572   0.417
 1125TIP3   OH2 3315   3.384   1.140   2.151
 1125TIP3    H1 3316   3.430   1.182   2.078
 1125TIP3    H2 3317   3.453   1.098   2.202
 1126TIP3   OH2 3318   2.831   5.641   5.317
 1126TIP3    H1 3319   2.909   5.646   5.261
 1126TIP3    H2 3320   2.842   5.712   5.380
 1127TIP3   OH2 3321   5.553   4.957   5.676
 1127TIP3    H1 3322   5.505   4.899   5.618
 1127TIP3    H2 3323   5.530   4.927   5.764
 1128TIP3   OH2 3324   6.350   7.902   6.852
 1128TIP3    H1 3325   6.311   7.958   6.785
 1128TIP3    H2 3326   6.401   7.838   6.803
 1129TIP3   OH2 3327   0.172   1.294   4.855
 1129TIP3    H1 3328   0.089   1.318   4.814
 1129TIP3    H2 3329   0.234   1.361   4.824
 1130TIP3   OH2 3330   6.316   5.396   0.957
 1130TIP3    H1 3331   6.309   5.339   1.033
 1130TIP3    H2 3332   6.403   5.436   0.965
 1131TIP3   OH2 3333   1.155   1.937   5.978
 1131TIP3    H1 3334   1.143   1.954   6.072
 1131TIP3    H2 3335   1.069   1.955   5.940
 1132TIP3   OH2 3336   1.503   1.644   2.187
 1132TIP3    H1 3337   1.494   1.717   2.127
 1132TIP3    H2 3338   1.414   1.627   2.218
 1133TIP3   OH2 3339   2.724   1.379   1.536
 1133TIP3    H1 3340   2.718   1.285   1.524
 1133TIP3    H2 3341   2.818   1.398   1.534
 1134TIP3   OH2 3342   5.646   2.533   4.065
 1134TIP3    H1 3343   5.705   2.483   4.009
 1134TIP3    H2 3344   5.679   2.623   4.060
 1135TIP3   OH2 3345   7.647   4.492   0.615
 1135TIP3    H1 3346   7.646   4.582   0.647
 1135TIP3    H2 3347   7.644   4.500   0.520
 1136TIP3   OH2 3348   0.170   5.377   1.788
 1136TIP3    H1 3349   0.241   5.376   1.853
 1136TIP3    H2 3350   0.090   5.390   1.840
 1137TIP3   OH2 3351   4.849   4.833   6.863
 1137TIP3    H1 3352   4.851   4.926   6.883
 1137TIP3    H2 3353   4.857   4.829   6.768
 1138TIP3   OH2 3354   3.673   3.835   4.204
 1138TIP3    H1 3355   3.671   3.773   4.131
 1138TIP3    H2 3356   3.730   3.905   4.174
 1139TIP3   OH2 3357   6.961   2.241   6.734
 1139TIP3    H1 3358   7.030   2.305   6.716
 1139TIP3    H2 3359   6.881   2.282   6.700
 1140TIP3   OH2 3360   5.374   2.758   3.831
 1140TIP3    H1 3361   5.391   2.722   3.744
 1140TIP3    H2 3362   5.407   2.848   3.827
 1141TIP3   OH2 3363   2.676   1.279   3.681
 1141TIP3    H1 3364   2.633   1.201   3.715
 1141TIP3    H2 3365   2.751   1.292   3.739
 1142TIP3   OH2 3366   3.412   6.541   0.531
 1142TIP3    H1 3367   3.347   6.494   0.583
 1142TIP3    H2 3368   3.380   6.536   0.441
 1143TIP3   OH2 3369   0.233   2.935   4.229
 1143TIP3    H1 3370   0.218   2.902   4.318
 1143TIP3    H2 3371   0.323   2.910   4.209
 1144TIP3   OH2 3372   4.235   4.779   1.196
 1144TIP3    H1 3373   4.210   4.843   1.129
 1144TIP3    H2 3374   4.317   4.813   1.232
 1145TIP3   OH2 3375   1.105   6.397   5.621
 1145TIP3    H1 3376   1.143   6.394   5.533
 1145TIP3    H2 3377   1.180   6.407   5.679
 1146TIP3   OH2 3378   6.774   4.998   0.772
 1146TIP3    H1 3379   6.858   4.993   0.727
 1146TIP3    H2 3380   6.777   4.926   0.836
 1147TIP3   OH2 3381   2.521   5.504   1.545
 1147TIP3    H1 3382   2.556   5.424   1.504
 1147TIP3    H2 3383   2.426   5.490   1.544
 1148TIP3   OH2 3384   0.468   3.061   6.110
 1148TIP3    H1 3385   0.469   3.008   6.190
 1148TIP3    H2 3386   0.453   3.150   6.141
 1149TIP3   OH2 3387   1.368   4.884   5.519
 1149TIP3    H1 3388   1.454   4.903   5.482
 1149TIP3    H2 3389   1.357   4.790   5.508
 1150TIP3   OH2 3390   5.095   4.168   3.745
 1150TIP3    H1 3391   5.059   4.187   3.658
 1150TIP3    H2 3392   5.188   4.188   3.737
 1151TIP3   OH2 3393   8.382   1.486   2.846
 1151TIP3    H1 3394   8.335   1.563   2.877
 1151TIP3    H2 3395   8.333   1.457   2.769
 1152TIP3   OH2 3396   1.091   5.091   4.101
 1152TIP3    H1 3397   1.022   5.118   4.163
 1152TIP3    H2 3398   1.083   5.152   4.028
 1153TIP3   OH2 3399   4.168   6.172   4.566
 1153TIP3    H1 3400   4.102   6.232   4.600
 1153TIP3    H2 3401   4.251   6.208   4.598
 1154TIP3   OH2 3402   3.897   0.036   5.284
 1154TIP3    H1 3403   3.940   0.035   5.369
 1154TIP3    H2 3404   3.951   0.092   5.230
 1155TIP3   OH2 3405   3.675   1.572   0.651
 1155TIP3    H1 3406   3.586   1.604   0.666
 1155TIP3    H2 3407   3.693   1.595   0.560
 1156TIP3   OH2 3408   5.780   1.858   6.347
 1156TIP3    H1 3409   5.697   1.890   6.312
 1156TIP3    H2 3410   5.831   1.834   6.269
 1157TIP3   OH2 3411   3.989   4.637   1.281
 1157TIP3    H1 3412   4.070   4.682   1.255
 1157TIP3    H2 3413   4.014   4.583   1.356
 1158TIP3   OH2 3414   5.689   4.099   0.529
 1158TIP3    H1 3415   5.648   4.049   0.459
 1158TIP3    H2 3416   5.750   4.037   0.570
 1159TIP3   OH2 3417   4.347   3.212   1.707
 1159TIP3    H1 3418   4.253   3.224   1.720
 1159TIP3    H2 3419   4.359   3.215   1.613
 1160TIP3   OH2 3420   6.560   3.309   5.564
 1160TIP3    H1 3421   6.652   3.326   5.546
 1160TIP3    H2 3422   6.546   3.219   5.537
 1161TIP3   OH2 3423   7.305   1.425   1.616
 1161TIP3    H1 3424   7.234   1.367   1.641
 1161TIP3    H2 3425   7.262   1.504   1.584
 1162TIP3   OH2 3426   6.885   3.185   3.280
 1162TIP3    H1 3427   6.823   3.234   3.226
 1162TIP3    H2 3428   6.956   3.246   3.297
 1163TIP3   OH2 3429   4.388   0.491   3.477
 1163TIP3    H1 3430   4.329   0.555   3.518
 1163TIP3    H2 3431   4.387   0.514   3.384
 1164TIP3   OH2 3432   6.664   4.597   6.685
 1164TIP3    H1 3433   6.660   4.502   6.679
 1164TIP3    H2 3434   6.756   4.618   6.674
 1165TIP3   OH2 3435   3.852   3.636   3.093
 1165TIP3    H1 3436   3.901   3.561   3.059
 1165TIP3    H2 3437   3.776   3.644   3.036
 1166TIP3   OH2 3438   1.266   5.112   2.437
 1166TIP3    H1 3439   1.278   5.207   2.441
 1166TIP3    H2 3440   1.345   5.076   2.478
 1167TIP3   OH2 3441   6.842   3.461   2.241
 1167TIP3    H1 3442   6.789   3.382   2.234
 1167TIP3    H2 3443   6.792   3.519   2.298
 1168TIP3   OH2 3444   3.171   4.134   3.195
 1168TIP3    H1 3445   3.261   4.105   3.184
 1168TIP3    H2 3446   3.170   4.224   3.162
 1169TIP3   OH2 3447   3.019   0.268   6.132
 1169TIP3    H1 3448   2.988   0.239   6.046
 1169TIP3    H2 3449   3.102   0.222   6.145
 1170TIP3   OH2 3450   0.042   1.442   1.858
 1170TIP3    H1 3451   0.099   1.477   1.927
 1170TIP3    H2 3452   0.071   1.351   1.847
 1171TIP3   OH2 3453   8.009   6.218   3.221
 1171TIP3    H1 3454   7.922   6.242   3.188
 1171TIP3    H2 3455   8.021   6.127   3.192
 1172TIP3   OH2 3456   1.045   1.898   3.366
 1172TIP3    H1 3457   0.950   1.902   3.371
 1172TIP3    H2 3458   1.076   1.960   3.431
 1173TIP3   OH2 3459   1.922   2.830   5.262
 1173TIP3    H1 3460   1.873   2.785   5.193
 1173TIP3    H2 3461   1.914   2.923   5.241
 1174TIP3   OH2 3462   0.656   4.330   6.106
 1174TIP3    H1 3463   0.736   4.281   6.092
 1174TIP3    H2 3464   0.632   4.312   6.197
 1175TIP3   OH2 3465   5.879   2.252   4.360
 1175TIP3    H1 3466   5.789   2.275   4.380
 1175TIP3    H2 3467   5.876   2.160   4.334
 1176TIP3   OH2 3468   7.434   1.404   6.429
 1176TIP3    H1 3469   7.385   1.450   6.361
 1176TIP3    H2 3470   7.407   1.445   6.511
 1177TIP3   OH2 3471   0.969   3.954   3.237
 1177TIP3    H1 3472   0.936   3.869   3.209
 1177TIP3    H2 3473   1.063   3.941   3.251
 1178TIP3   OH2 3474   0.235   0.790   2.318
 1178TIP3    H1 3475   0.231   0.720   2.383
 1178TIP3    H2 3476   0.320   0.779   2.276
 1179TIP3   OH2 3477   5.828   2.603   6.616
 1179TIP3    H1 3478   5.813   2.661   6.690
 1179TIP3    H2 3479   5.902   2.548   6.643
 1180TIP3   OH2 3480   8.138   2.794   3.199
 1180TIP3    H1 3481   8.162   2.761   3.112
 1180TIP3    H2 3482   8.195   2.870   3.213
 1181TIP3   OH2 3483   4.641   5.191   5.884
 1181TIP3    H1 3484   4.663   5.148   5.802
 1181TIP3    H2 3485   4.670   5.281   5.873
 1182TIP3   OH2 3486   7.785   6.762   0.753
 1182TIP3    H1 3487   7.871   6.783   0.789
 1182TIP3    H2 3488   7.739   6.717   0.824
 1183TIP3   OH2 3489   6.848   4.896   2.466
 1183TIP3    H1 3490   6.931   4.906   2.419
 1183TIP3    H2 3491   6.817   4.985   2.479
 1184TIP3   OH2 3492   6.341   7.283   6.764
 1184TIP3    H1 3493   6.274   7.342   6.801
 1184TIP3    H2 3494   6.361   7.222   6.835
 1185TIP3   OH2 3495   6.654   4.753   4.421
 1185TIP3    H1 3496   6.694   4.807   4.489
 1185TIP3    H2 3497   6.633   4.670   4.465
 1186TIP3   OH2 3498   4.783   0.237   4.743
 1186TIP3    H1 3499   4.863   0.226   4.796
 1186TIP3    H2 3500   4.715   0.192   4.793
 1187TIP3   OH2 3501   3.333   0.420   3.533
 1187TIP3    H1 3502   3.373   0.335   3.516
 1187TIP3    H2 3503   3.261   0.425   3.471
 1188TIP3   OH2 3504   3.684   3.670   3.988
 1188TIP3    H1 3505   3.676   3.578   4.013
 1188TIP3    H2 3506   3.658   3.672   3.896
 1189TIP3   OH2 3507   6.524   7.767   0.172
 1189TIP3    H1 3508   6.476   7.826   0.229
 1189TIP3    H2 3509   6.575   7.824   0.115
 1190TIP3   OH2 3510   0.720   2.739   0.237
 1190TIP3    H1 3511   0.730   2.649   0.269
 1190TIP3    H2 3512   0.625   2.753   0.233
 1191TIP3   OH2 3513   1.338   4.628   1.186
 1191TIP3    H1 3514   1.274   4.557   1.186
 1191TIP3    H2 3515   1.314   4.681   1.262
 1192TIP3   OH2 3516   1.515   3.025   2.199
 1192TIP3    H1 3517   1.577   2.958   2.226
 1192TIP3    H2 3518   1.492   3.001   2.109
 1193TIP3   OH2 3519   5.240   2.576   5.566
 1193TIP3    H1 3520   5.163   2.592   5.621
 1193TIP3    H2 3521   5.235   2.644   5.498
 1194TIP3   OH2 3522   1.037   7.819   6.499
 1194TIP3    H1 3523   1.069   7.765   6.427
 1194TIP3    H2 3524   1.061   7.908   6.475
 1195TIP3   OH2 3525   4.137   3.846   1.618
 1195TIP3    H1 3526   4.186   3.880   1.542
 1195TIP3    H2 3527   4.076   3.783   1.581
 1196TIP3   OH2 3528   2.682   5.541   2.013
 1196TIP3    H1 3529   2.770   5.536   1.976
 1196TIP3    H2 3530   2.661   5.634   2.013
 1197TIP3   OH2 3531   5.921   6.463   5.164
 1197TIP3    H1 3532   5.851   6.513   5.207
 1197TIP3    H2 3533   5.953   6.522   5.095
 1198TIP3   OH2 3534   2.238   3.831   4.654
 1198TIP3    H1 3535   2.330   3.852   4.638
 1198TIP3    H2 3536   2.224   3.749   4.607
 1199TIP3   OH2 3537   8.376   2.196   0.385
 1199TIP3    H1 3538   8.291   2.175   0.424
 1199TIP3    H2 3539   8.369   2.288   0.358
 1200TIP3   OH2 3540   4.782   4.664   1.215
 1200TIP3    H1 3541   4.804   4.684   1.124
 1200TIP3    H2 3542   4.746   4.575   1.212
 1201TIP3   OH2 3543   5.575   5.805   2.452
 1201TIP3    H1 3544   5.618   5.858   2.385
 1201TIP3    H2 3545   5.530   5.868   2.508
 1202TIP3   OH2 3546   4.334   5.802   6.555
 1202TIP3    H1 3547   4.315   5.811   6.648
 1202TIP3    H2 3548   4.247   5.798   6.513
 1203TIP3   OH2 3549   5.853   4.355   5.760
 1203TIP3    H1 3550   5.850   4.442   5.720
 1203TIP3    H2 3551   5.824   4.296   5.690
 1204TIP3   OH2 3552   4.995   3.929   4.741
 1204TIP3    H1 3553   4.958   3.846   4.714
 1204TIP3    H2 3554   5.081   3.932   4.699
 1205TIP3   OH2 3555   5.595   3.902   5.169
 1205TIP3    H1 3556   5.689   3.916   5.159
 1205TIP3    H2 3557   5.585   3.871   5.259
 1206TIP3   OH2 3558   7.959   7.159   6.174
 1206TIP3    H1 3559   8.046   7.133   6.143
 1206TIP3    H2 3560   7.922   7.211   6.101
 1207TIP3   OH2 3561   6.803   6.179   6.455
 1207TIP3    H1 3562   6.887   6.198   6.497
 1207TIP3    H2 3563   6.788   6.086   6.473
 1208TIP3   OH2 3564   5.312   2.608   0.365
 1208TIP3    H1 3565   5.321   2.548   0.291
 1208TIP3    H2 3566   5.251   2.563   0.424
 1209TIP3   OH2 3567   3.798   3.107   0.681
 1209TIP3    H1 3568   3.808   3.043   0.610
 1209TIP3    H2 3569   3.886   3.142   0.694
 1210TIP3   OH2 3570   2.478   7.651   4.514
 1210TIP3    H1 3571   2.453   7.603   4.435
 1210TIP3    H2 3572   2.431   7.607   4.585
 1211TIP3   OH2 3573   7.828   3.490   4.446
 1211TIP3    H1 3574   7.885   3.449   4.381
 1211TIP3    H2 3575   7.805   3.419   4.506
 1212TIP3   OH2 3576   0.109   1.453   4.446
 1212TIP3    H1 3577   0.132   1.525   4.386
 1212TIP3    H2 3578   0.122   1.374   4.394
 1213TIP3   OH2 3579   5.281   6.337   4.607
 1213TIP3    H1 3580   5.277   6.432   4.617
 1213TIP3    H2 3581   5.303   6.304   4.695
 1214TIP3   OH2 3582   7.093   7.038   6.084
 1214TIP3    H1 3583   7.146   6.989   6.148
 1214TIP3    H2 3584   7.103   7.129   6.110
 1215TIP3   OH2 3585   6.477   7.281   4.135
 1215TIP3    H1 3586   6.437   7.219   4.196
 1215TIP3    H2 3587   6.571   7.276   4.155
 1216TIP3   OH2 3588   2.674   6.078   3.751
 1216TIP3    H1 3589   2.725   6.095   3.830
 1216TIP3    H2 3590   2.718   6.129   3.683
 1217TIP3   OH2 3591   3.390   0.880   1.863
 1217TIP3    H1 3592   3.376   0.971   1.837
 1217TIP3    H2 3593   3.479   0.861   1.833
 1218TIP3   OH2 3594   0.555   5.541   6.178
 1218TIP3    H1 3595   0.493   5.506   6.242
 1218TIP3    H2 3596   0.507   5.539   6.095
 1219TIP3   OH2 3597   8.010   7.292   5.302
 1219TIP3    H1 3598   7.962   7.370   5.330
 1219TIP3    H2 3599   8.045   7.315   5.216
 1220TIP3   OH2 3600   5.707   3.411   2.740
 1220TIP3    H1 3601   5.788   3.459   2.720
 1220TIP3    H2 3602   5.722   3.323   2.705
 1221TIP3   OH2 3603   1.544   5.999   6.479
 1221TIP3    H1 3604   1.488   5.940   6.428
 1221TIP3    H2 3605   1.628   5.999   6.432
 1222TIP3   OH2 3606   2.434   6.265   2.678
 1222TIP3    H1 3607   2.347   6.245   2.642
 1222TIP3    H2 3608   2.417   6.327   2.749
 1223TIP3   OH2 3609   4.196   6.548   5.935
 1223TIP3    H1 3610   4.289   6.526   5.940
 1223TIP3    H2 3611   4.152   6.465   5.923
 1224TIP3   OH2 3612   1.730   5.492   4.066
 1224TIP3    H1 3613   1.726   5.525   3.976
 1224TIP3    H2 3614   1.685   5.559   4.117
 1225TIP3   OH2 3615   2.074   2.850   0.796
 1225TIP3    H1 3616   2.064   2.831   0.702
 1225TIP3    H2 3617   2.068   2.945   0.802
 1226TIP3   OH2 3618   2.644   2.448   1.139
 1226TIP3    H1 3619   2.585   2.392   1.089
 1226TIP3    H2 3620   2.628   2.536   1.105
 1227TIP3   OH2 3621   3.941   2.530   3.160
 1227TIP3    H1 3622   3.917   2.488   3.077
 1227TIP3    H2 3623   3.872   2.503   3.221
 1228TIP3   OH2 3624   3.532   5.330   3.844
 1228TIP3    H1 3625   3.614   5.380   3.845
 1228TIP3    H2 3626   3.481   5.366   3.916
 1229TIP3   OH2 3627   6.590   5.947   5.795
 1229TIP3    H1 3628   6.504   5.967   5.832
 1229TIP3    H2 3629   6.594   5.851   5.796
 1230TIP3   OH2 3630   3.491   2.355   4.942
 1230TIP3    H1 3631   3.537   2.438   4.957
 1230TIP3    H2 3632   3.437   2.344   5.020
 1231TIP3   OH2 3633   8.007   2.680   4.299
 1231TIP3    H1 3634   8.069   2.637   4.357
 1231TIP3    H2 3635   8.023   2.774   4.313
 1232TIP3   OH2 3636   8.155   3.852   6.361
 1232TIP3    H1 3637   8.059   3.847   6.359
 1232TIP3    H2 3638   8.183   3.793   6.292
 1233TIP3   OH2 3639   3.778   4.353   6.034
 1233TIP3    H1 3640   3.750   4.422   5.974
 1233TIP3    H2 3641   3.814   4.285   5.977
 1234TIP3   OH2 3642   0.777   1.194   0.456
 1234TIP3    H1 3643   0.808   1.196   0.365
 1234TIP3    H2 3644   0.776   1.101   0.478
 1235TIP3   OH2 3645   1.943   5.600   2.734
 1235TIP3    H1 3646   1.966   5.509   2.749
 1235TIP3    H2 3647   1.848   5.604   2.747
 1236TIP3   OH2 3648   6.937   2.942   6.167
 1236TIP3    H1 3649   7.031   2.952   6.185
 1236TIP3    H2 3650   6.932   2.867   6.107
 1237TIP3   OH2 3651   6.279   7.101   3.223
 1237TIP3    H1 3652   6.350   7.047   3.190
 1237TIP3    H2 3653   6.322   7.180   3.255
 1238TIP3   OH2 3654   7.967   2.107   0.243
 1238TIP3    H1 3655   7.877   2.136   0.226
 1238TIP3    H2 3656   8.021   2.175   0.205
 1239TIP3   OH2 3657   3.342   7.483  -0.012
 1239TIP3    H1 3658   3.326   7.390   0.005
 1239TIP3    H2 3659   3.387   7.514   0.067
 1240TIP3   OH2 3660   4.765   5.179   6.508
 1240TIP3    H1 3661   4.816   5.115   6.459
 1240TIP3    H2 3662   4.828   5.219   6.568
 1241TIP3   OH2 3663   5.456   3.381   2.247
 1241TIP3    H1 3664   5.424   3.329   2.173
 1241TIP3    H2 3665   5.377   3.405   2.295
 1242TIP3   OH2 3666   8.170   7.009   1.305
 1242TIP3    H1 3667   8.106   7.073   1.273
 1242TIP3    H2 3668   8.118   6.937   1.340
 1243TIP3   OH2 3669   1.607   1.725   1.400
 1243TIP3    H1 3670   1.524   1.681   1.419
 1243TIP3    H2 3671   1.669   1.654   1.385
 1244TIP3   OH2 3672   0.572   2.003   2.728
 1244TIP3    H1 3673   0.618   2.086   2.717
 1244TIP3    H2 3674   0.494   2.025   2.778
 1245TIP3   OH2 3675   5.269   5.326   3.690
 1245TIP3    H1 3676   5.362   5.307   3.681
 1245TIP3    H2 3677   5.263   5.375   3.772
 1246TIP3   OH2 3678   8.265   2.007   5.798
 1246TIP3    H1 3679   8.287   1.915   5.816
 1246TIP3    H2 3680   8.345   2.044   5.761
 1247TIP3   OH2 3681   5.093   4.339   0.715
 1247TIP3    H1 3682   5.129   4.421   0.683
 1247TIP3    H2 3683   5.024   4.317   0.652
 1248TIP3   OH2 3684   4.835   0.582   5.709
 1248TIP3    H1 3685   4.925   0.551   5.705
 1248TIP3    H2 3686   4.835   0.651   5.775
 1249TIP3   OH2 3687   6.491   7.580   4.301
 1249TIP3    H1 3688   6.451   7.665   4.317
 1249TIP3    H2 3689   6.482   7.533   4.384
 1250TIP3   OH2 3690   2.091   3.496   3.463
 1250TIP3    H1 3691   2.011   3.454   3.494
 1250TIP3    H2 3692   2.138   3.520   3.543
 1251TIP3   OH2 3693   6.899   4.414   3.526
 1251TIP3    H1 3694   6.927   4.438   3.614
 1251TIP3    H2 3695   6.969   4.443   3.469
 1252TIP3   OH2 3696   0.247   5.746   2.250
 1252TIP3    H1 3697   0.213   5.828   2.287
 1252TIP3    H2 3698   0.261   5.765   2.158
 1253TIP3   OH2 3699   7.311   0.598   5.823
 1253TIP3    H1 3700   7.343   0.593   5.913
 1253TIP3    H2 3701   7.390   0.611   5.770
 1254TIP3   OH2 3702   7.839   3.758   4.511
 1254TIP3    H1 3703   7.829   3.664   4.497
 1254TIP3    H2 3704   7.762   3.797   4.470
 1255TIP3   OH2 3705   5.011   5.578   1.005
 1255TIP3    H1 3706   4.973   5.538   1.083
 1255TIP3    H2 3707   5.100   5.542   1.001
 1256TIP3   OH2 3708   2.824   7.199   5.297
 1256TIP3    H1 3709   2.729   7.200   5.308
 1256TIP3    H2 3710   2.857   7.252   5.370
 1257TIP3   OH2 3711   0.452   3.856   5.218
 1257TIP3    H1 3712   0.523   3.916   5.194
 1257TIP3    H2 3713   0.488   3.769   5.199
 1258TIP3   OH2 3714   3.996   5.579   3.829
 1258TIP3    H1 3715   4.064   5.547   3.889
 1258TIP3    H2 3716   3.918   5.585   3.884
 1259TIP3   OH2 3717   1.499   6.319   1.885
 1259TIP3    H1 3718   1.485   6.261   1.959
 1259TIP3    H2 3719   1.419   6.310   1.832
 1260TIP3   OH2 3720   1.023   1.354   1.793
 1260TIP3    H1 3721   1.094   1.312   1.841
 1260TIP3    H2 3722   1.031   1.321   1.704
 1261TIP3   OH2 3723   7.463   3.163   3.464
 1261TIP3    H1 3724   7.446   3.175   3.558
 1261TIP3    H2 3725   7.541   3.108   3.461
 1262TIP3   OH2 3726   8.029   3.397   3.933
 1262TIP3    H1 3727   8.119   3.376   3.959
 1262TIP3    H2 3728   7.990   3.312   3.913
 1263TIP3   OH2 3729   2.264   6.758   6.713
 1263TIP3    H1 3730   2.335   6.708   6.754
 1263TIP3    H2 3731   2.195   6.760   6.779
 1264TIP3   OH2 3732   1.666   2.778   4.329
 1264TIP3    H1 3733   1.674   2.807   4.420
 1264TIP3    H2 3734   1.631   2.854   4.283
 1265TIP3   OH2 3735   3.513   6.172   3.188
 1265TIP3    H1 3736   3.570   6.217   3.251
 1265TIP3    H2 3737   3.555   6.187   3.103
 1266TIP3   OH2 3738   1.221   5.670   4.582
 1266TIP3    H1 3739   1.139   5.622   4.596
 1266TIP3    H2 3740   1.247   5.698   4.670
 1267TIP3   OH2 3741   5.549   4.586   2.334
 1267TIP3    H1 3742   5.527   4.583   2.427
 1267TIP3    H2 3743   5.641   4.610   2.332
 1268TIP3   OH2 3744   3.372   2.370   0.322
 1268TIP3    H1 3745   3.439   2.405   0.263
 1268TIP3    H2 3746   3.314   2.444   0.339
 1269TIP3   OH2 3747   8.185   1.995   5.420
 1269TIP3    H1 3748   8.227   2.075   5.451
 1269TIP3    H2 3749   8.244   1.962   5.352
 1270TIP3   OH2 3750   4.615   1.632   1.378
 1270TIP3    H1 3751   4.603   1.591   1.292
 1270TIP3    H2 3752   4.686   1.583   1.418
 1271TIP3   OH2 3753   0.837   0.457   4.125
 1271TIP3    H1 3754   0.925   0.481   4.095
 1271TIP3    H2 3755   0.834   0.487   4.216
 1272TIP3   OH2 3756   3.671   1.420   4.469
 1272TIP3    H1 3757   3.743   1.482   4.472
 1272TIP3    H2 3758   3.688   1.367   4.391
 1273TIP3   OH2 3759   0.491   7.326   4.971
 1273TIP3    H1 3760   0.501   7.231   4.961
 1273TIP3    H2 3761   0.565   7.363   4.924
 1274TIP3   OH2 3762   3.673   3.736   4.693
 1274TIP3    H1 3763   3.586   3.704   4.667
 1274TIP3    H2 3764   3.724   3.656   4.705
 1275TIP3   OH2 3765   7.111   1.607   6.668
 1275TIP3    H1 3766   7.202   1.623   6.692
 1275TIP3    H2 3767   7.104   1.511   6.663
 1276TIP3   OH2 3768   3.615   6.122   1.174
 1276TIP3    H1 3769   3.620   6.175   1.094
 1276TIP3    H2 3770   3.588   6.036   1.143
 1277TIP3   OH2 3771   2.220   6.827   6.353
 1277TIP3    H1 3772   2.129   6.825   6.383
 1277TIP3    H2 3773   2.219   6.888   6.279
 1278TIP3   OH2 3774   3.339   5.228   3.121
 1278TIP3    H1 3775   3.350   5.321   3.102
 1278TIP3    H2 3776   3.409   5.207   3.183
 1279TIP3   OH2 3777   0.947   3.614   6.525
 1279TIP3    H1 3778   0.988   3.535   6.492
 1279TIP3    H2 3779   0.880   3.583   6.586
 1280TIP3   OH2 3780   8.294   2.013   2.483
 1280TIP3    H1 3781   8.363   1.962   2.525
 1280TIP3    H2 3782   8.334   2.048   2.403
 1281TIP3   OH2 3783   0.238   5.501   6.823
 1281TIP3    H1 3784   0.188   5.433   6.778
 1281TIP3    H2 3785   0.221   5.486   6.916
 1282TIP3   OH2 3786   3.917   0.057   5.651
 1282TIP3    H1 3787   4.004   0.035   5.684
 1282TIP3    H2 3788   3.859  -0.006   5.693
 1283TIP3   OH2 3789   0.703   7.822   2.634
 1283TIP3    H1 3790   0.646   7.866   2.697
 1283TIP3    H2 3791   0.791   7.832   2.669
 1284TIP3   OH2 3792   0.624   4.767   1.279
 1284TIP3    H1 3793   0.572   4.845   1.296
 1284TIP3    H2 3794   0.561   4.705   1.242
 1285TIP3   OH2 3795   3.054   1.001   6.628
 1285TIP3    H1 3796   3.147   1.014   6.610
 1285TIP3    H2 3797   3.049   0.915   6.671
 1286TIP3   OH2 3798   2.578   2.225   3.675
 1286TIP3    H1 3799   2.607   2.141   3.710
 1286TIP3    H2 3800   2.569   2.281   3.752
 1287TIP3   OH2 3801   2.447   7.412   6.568
 1287TIP3    H1 3802   2.432   7.357   6.491
 1287TIP3    H2 3803   2.522   7.467   6.544
 1288TIP3   OH2 3804   2.737   5.194   3.741
 1288TIP3    H1 3805   2.760   5.280   3.775
 1288TIP3    H2 3806   2.722   5.209   3.647
 1289TIP3   OH2 3807   6.304   4.397   2.576
 1289TIP3    H1 3808   6.380   4.340   2.587
 1289TIP3    H2 3809   6.280   4.422   2.666
 1290TIP3   OH2 3810   6.260   3.194   2.753
 1290TIP3    H1 3811   6.261   3.230   2.664
 1290TIP3    H2 3812   6.167   3.185   2.773
 1291TIP3   OH2 3813   7.812   6.082   6.700
 1291TIP3    H1 3814   7.741   6.045   6.648
 1291TIP3    H2 3815   7.829   6.167   6.661
 1292TIP3   OH2 3816   7.339   5.153   6.213
 1292TIP3    H1 3817   7.262   5.183   6.261
 1292TIP3    H2 3818   7.335   5.201   6.130
 1293TIP3   OH2 3819   4.230   1.792   4.861
 1293TIP3    H1 3820   4.180   1.873   4.872
 1293TIP3    H2 3821   4.211   1.764   4.772
 1294TIP3   OH2 3822   6.291   4.216   1.713
 1294TIP3    H1 3823   6.333   4.244   1.795
 1294TIP3    H2 3824   6.269   4.124   1.729
 1295TIP3   OH2 3825   2.350   2.990   4.502
 1295TIP3    H1 3826   2.262   2.978   4.538
 1295TIP3    H2 3827   2.352   3.082   4.474
 1296TIP3   OH2 3828   1.360   5.550   6.646
 1296TIP3    H1 3829   1.309   5.558   6.727
 1296TIP3    H2 3830   1.381   5.457   6.640
 1297TIP3   OH2 3831   3.729   1.413   1.739
 1297TIP3    H1 3832   3.642   1.450   1.757
 1297TIP3    H2 3833   3.776   1.420   1.822
 1298TIP3   OH2 3834   5.384   4.786   5.532
 1298TIP3    H1 3835   5.459   4.728   5.547
 1298TIP3    H2 3836   5.308   4.727   5.533
 1299TIP3   OH2 3837   3.910   5.686   6.641
 1299TIP3    H1 3838   3.961   5.699   6.561
 1299TIP3    H2 3839   3.857   5.766   6.648
 1300TIP3   OH2 3840   8.098   0.360   2.689
 1300TIP3    H1 3841   8.111   0.431   2.752
 1300TIP3    H2 3842   8.184   0.318   2.684
 1301TIP3   OH2 3843   1.163   2.918   1.538
 1301TIP3    H1 3844   1.187   2.879   1.622
 1301TIP3    H2 3845   1.165   3.013   1.555
 1302TIP3   OH2 3846   5.104   4.517   3.964
 1302TIP3    H1 3847   5.080   4.443   3.909
 1302TIP3    H2 3848   5.095   4.485   4.054
 1303TIP3   OH2 3849   1.154   5.110   4.473
 1303TIP3    H1 3850   1.153   5.031   4.527
 1303TIP3    H2 3851   1.067   5.148   4.485
 1304TIP3   OH2 3852   0.762   0.301   3.086
 1304TIP3    H1 3853   0.688   0.352   3.120
 1304TIP3    H2 3854   0.767   0.225   3.143
 1305TIP3   OH2 3855   6.368   2.821   4.095
 1305TIP3    H1 3856   6.317   2.898   4.118
 1305TIP3    H2 3857   6.449   2.830   4.145
 1306TIP3   OH2 3858   1.940   3.494   6.045
 1306TIP3    H1 3859   1.937   3.448   6.128
 1306TIP3    H2 3860   1.856   3.541   6.040
 1307TIP3   OH2 3861   3.548   6.158   4.838
 1307TIP3    H1 3862   3.547   6.195   4.750
 1307TIP3    H2 3863   3.626   6.196   4.879
 1308TIP3   OH2 3864   7.113   3.539   4.003
 1308TIP3    H1 3865   7.144   3.483   4.075
 1308TIP3    H2 3866   7.051   3.599   4.045
 1309TIP3   OH2 3867   8.320   7.476   1.450
 1309TIP3    H1 3868   8.337   7.497   1.542
 1309TIP3    H2 3869   8.327   7.380   1.446
 1310TIP3   OH2 3870   2.637   0.753   2.755
 1310TIP3    H1 3871   2.608   0.843   2.767
 1310TIP3    H2 3872   2.648   0.719   2.843
 1311TIP3   OH2 3873   7.288   3.756   4.425
 1311TIP3    H1 3874   7.234   3.792   4.355
 1311TIP3    H2 3875   7.249   3.671   4.445
 1312TIP3   OH2 3876   7.556   6.643   1.587
 1312TIP3    H1 3877   7.477   6.603   1.623
 1312TIP3    H2 3878   7.536   6.657   1.495
 1313TIP3   OH2 3879   1.021   2.297   4.286
 1313TIP3    H1 3880   0.962   2.231   4.322
 1313TIP3    H2 3881   1.107   2.255   4.285
 1314TIP3   OH2 3882   8.082   1.836   0.309
 1314TIP3    H1 3883   8.032   1.801   0.382
 1314TIP3    H2 3884   8.027   1.906   0.274
 1315TIP3   OH2 3885   6.518   4.194   2.186
 1315TIP3    H1 3886   6.507   4.201   2.281
 1315TIP3    H2 3887   6.499   4.102   2.166
 1316TIP3   OH2 3888   5.390   7.825   4.501
 1316TIP3    H1 3889   5.303   7.796   4.473
 1316TIP3    H2 3890   5.449   7.757   4.468
 1317TIP3   OH2 3891   0.926   5.221   4.818
 1317TIP3    H1 3892   0.888   5.145   4.862
 1317TIP3    H2 3893   0.995   5.251   4.877
 1318TIP3   OH2 3894   5.930   0.423   0.828
 1318TIP3    H1 3895   5.943   0.495   0.766
 1318TIP3    H2 3896   5.841   0.436   0.861
 1319TIP3   OH2 3897   1.019   2.493   6.251
 1319TIP3    H1 3898   1.106   2.532   6.253
 1319TIP3    H2 3899   1.023   2.421   6.315
 1320TIP3   OH2 3900   1.424   1.463   2.949
 1320TIP3    H1 3901   1.330   1.442   2.950
 1320TIP3    H2 3902   1.427   1.558   2.952
 1321TIP3   OH2 3903   6.948   7.231   5.491
 1321TIP3    H1 3904   6.978   7.145   5.520
 1321TIP3    H2 3905   6.950   7.285   5.570
 1322TIP3   OH2 3906   7.509   6.708   4.845
 1322TIP3    H1 3907   7.500   6.638   4.781
 1322TIP3    H2 3908   7.459   6.677   4.921
 1323TIP3   OH2 3909   0.177   0.695   1.980
 1323TIP3    H1 3910   0.141   0.606   1.973
 1323TIP3    H2 3911   0.272   0.682   1.986
 1324TIP3   OH2 3912   4.259   3.734   4.044
 1324TIP3    H1 3913   4.257   3.734   4.140
 1324TIP3    H2 3914   4.221   3.650   4.019
 1325TIP3   OH2 3915   4.721   4.982   2.639
 1325TIP3    H1 3916   4.755   4.960   2.725
 1325TIP3    H2 3917   4.776   4.932   2.578
 1326TIP3   OH2 3918   5.843   2.371   0.572
 1326TIP3    H1 3919   5.932   2.402   0.587
 1326TIP3    H2 3920   5.853   2.277   0.557
 1327TIP3   OH2 3921   0.509   6.660   3.930
 1327TIP3    H1 3922   0.495   6.710   4.011
 1327TIP3    H2 3923   0.423   6.625   3.909
 1328TIP3   OH2 3924   6.748   7.521   4.537
 1328TIP3    H1 3925   6.655   7.524   4.559
 1328TIP3    H2 3926   6.789   7.486   4.616
 1329TIP3   OH2 3927   6.145   3.191   5.170
 1329TIP3    H1 3928   6.147   3.136   5.248
 1329TIP3    H2 3929   6.231   3.234   5.168
 1330TIP3   OH2 3930   4.182   2.069   6.019
 1330TIP3    H1 3931   4.182   2.164   6.008
 1330TIP3    H2 3932   4.090   2.045   6.023
 1331TIP3   OH2 3933   7.242   0.070   6.008
 1331TIP3    H1 3934   7.306   0.123   5.961
 1331TIP3    H2 3935   7.254   0.093   6.100
 1332TIP3   OH2 3936   2.887   7.392   1.304
 1332TIP3    H1 3937   2.890   7.456   1.375
 1332TIP3    H2 3938   2.929   7.314   1.340
 1333TIP3   OH2 3939   5.961   6.379   4.045
 1333TIP3    H1 3940   5.998   6.467   4.043
 1333TIP3    H2 3941   5.880   6.388   4.095
 1334TIP3   OH2 3942   3.010   2.745   0.714
 1334TIP3    H1 3943   2.951   2.768   0.786
 1334TIP3    H2 3944   2.978   2.660   0.684
 1335TIP3   OH2 3945   2.723   7.628   2.350
 1335TIP3    H1 3946   2.669   7.560   2.391
 1335TIP3    H2 3947   2.790   7.580   2.301
 1336TIP3   OH2 3948   3.363   6.006   1.086
 1336TIP3    H1 3949   3.389   6.051   1.167
 1336TIP3    H2 3950   3.299   5.940   1.115
 1337TIP3   OH2 3951   3.647   7.319   4.746
 1337TIP3    H1 3952   3.665   7.360   4.831
 1337TIP3    H2 3953   3.551   7.317   4.740
 1338TIP3   OH2 3954   0.680   0.369   5.853
 1338TIP3    H1 3955   0.611   0.434   5.844
 1338TIP3    H2 3956   0.646   0.306   5.917
 1339TIP3   OH2 3957   6.933   7.894   3.193
 1339TIP3    H1 3958   6.896   7.924   3.276
 1339TIP3    H2 3959   7.016   7.852   3.217
 1340TIP3   OH2 3960   7.881   4.707   3.260
 1340TIP3    H1 3961   7.881   4.723   3.166
 1340TIP3    H2 3962   7.959   4.654   3.277
 1341TIP3   OH2 3963   5.153   6.496   2.739
 1341TIP3    H1 3964   5.205   6.422   2.769
 1341TIP3    H2 3965   5.209   6.541   2.676
 1342TIP3   OH2 3966   1.467   7.408   5.022
 1342TIP3    H1 3967   1.476   7.316   4.999
 1342TIP3    H2 3968   1.372   7.422   5.031
 1343TIP3   OH2 3969   5.891   0.716   6.125
 1343TIP3    H1 3970   5.913   0.690   6.215
 1343TIP3    H2 3971   5.922   0.643   6.072
 1344TIP3   OH2 3972   3.337   7.836   0.919
 1344TIP3    H1 3973   3.275   7.798   0.982
 1344TIP3    H2 3974   3.313   7.929   0.916
 1345TIP3   OH2 3975   7.918   1.617   4.188
 1345TIP3    H1 3976   7.979   1.550   4.218
 1345TIP3    H2 3977   7.938   1.629   4.095
 1346TIP3   OH2 3978   1.710   2.221   5.407
 1346TIP3    H1 3979   1.675   2.132   5.415
 1346TIP3    H2 3980   1.779   2.214   5.341
 1347TIP3   OH2 3981   5.922   4.275   1.157
 1347TIP3    H1 3982   5.960   4.275   1.069
 1347TIP3    H2 3983   5.998   4.275   1.216
 1348TIP3   OH2 3984   4.876   2.330   3.809
 1348TIP3    H1 3985   4.970   2.334   3.829
 1348TIP3    H2 3986   4.836   2.388   3.874
 1349TIP3   OH2 3987   5.151   6.136   1.824
 1349TIP3    H1 3988   5.199   6.075   1.768
 1349TIP3    H2 3989   5.099   6.081   1.882
 1350TIP3   OH2 3990   6.208   3.094   4.141
 1350TIP3    H1 3991   6.209   3.082   4.236
 1350TIP3    H2 3992   6.182   3.185   4.128
 1351TIP3   OH2 3993   2.886   6.677   3.998
 1351TIP3    H1 3994   2.892   6.583   3.985
 1351TIP3    H2 3995   2.793   6.694   4.012
 1352TIP3   OH2 3996   0.307   1.643   3.968
 1352TIP3    H1 3997   0.297   1.610   3.879
 1352TIP3    H2 3998   0.387   1.601   4.000
 1353TIP3   OH2 3999   5.729   7.189   1.831
 1353TIP3    H1 4000   5.692   7.162   1.747
 1353TIP3    H2 4001   5.686   7.272   1.851
 1354TIP3   OH2 4002   6.293   6.648   4.673
 1354TIP3    H1 4003   6.260   6.565   4.639
 1354TIP3    H2 4004   6.233   6.714   4.638
 1355TIP3   OH2 4005   2.775   4.517   3.805
 1355TIP3    H1 4006   2.830   4.452   3.849
 1355TIP3    H2 4007   2.781   4.494   3.712
 1356TIP3   OH2 4008   3.755   1.368   2.656
 1356TIP3    H1 4009   3.812   1.397   2.728
 1356TIP3    H2 4010   3.735   1.448   2.608
 1357TIP3   OH2 4011   1.186   3.213   5.418
 1357TIP3    H1 4012   1.103   3.209   5.465
 1357TIP3    H2 4013   1.225   3.296   5.445
 1358TIP3   OH2 4014   0.880   5.897   5.166
 1358TIP3    H1 4015   0.955   5.957   5.172
 1358TIP3    H2 4016   0.873   5.858   5.253
 1359TIP3   OH2 4017   7.063   7.854   6.723
 1359TIP3    H1 4018   7.124   7.928   6.727
 1359TIP3    H2 4019   6.977   7.894   6.715
 1360TIP3   OH2 4020   8.288   7.749   6.404
 1360TIP3    H1 4021   8.221   7.769   6.339
 1360TIP3    H2 4022   8.344   7.684   6.362
 1361TIP3   OH2 4023   3.339   5.597   1.696
 1361TIP3    H1 4024   3.265   5.592   1.636
 1361TIP3    H2 4025   3.315   5.666   1.758
 1362TIP3   OH2 4026   2.898   2.071   5.865
 1362TIP3    H1 4027   2.933   2.015   5.796
 1362TIP3    H2 4028   2.924   2.027   5.947
 1363TIP3   OH2 4029   0.716   2.767   5.833
 1363TIP3    H1 4030   0.652   2.742   5.900
 1363TIP3    H2 4031   0.665   2.768   5.752
 1364TIP3   OH2 4032   7.820   6.661   4.870
 1364TIP3    H1 4033   7.814   6.567   4.853
 1364TIP3    H2 4034   7.730   6.688   4.886
 1365TIP3   OH2 4035   3.758   5.179   4.544
 1365TIP3    H1 4036   3.697   5.250   4.524
 1365TIP3    H2 4037   3.739   5.156   4.635
 1366TIP3   OH2 4038   2.809   6.142   4.591
 1366TIP3    H1 4039   2.753   6.072   4.623
 1366TIP3    H2 4040   2.750   6.215   4.576
 1367TIP3   OH2 4041   4.958   1.708   5.673
 1367TIP3    H1 4042   4.898   1.681   5.604
 1367TIP3    H2 4043   4.930   1.660   5.750
 1368TIP3   OH2 4044   7.755   0.699   4.593
 1368TIP3    H1 4045   7.774   0.787   4.626
 1368TIP3    H2 4046   7.662   0.702   4.571
 1369TIP3   OH2 4047   8.287   0.213   1.030
 1369TIP3    H1 4048   8.317   0.123   1.022
 1369TIP3    H2 4049   8.342   0.262   0.969
 1370TIP3   OH2 4050   3.312   4.107   1.456
 1370TIP3    H1 4051   3.290   4.023   1.418
 1370TIP3    H2 4052   3.300   4.095   1.551
 1371TIP3   OH2 4053   8.272   7.223   1.435
 1371TIP3    H1 4054   8.266   7.144   1.381
 1371TIP3    H2 4055   8.335   7.200   1.503
 1372TIP3   OH2 4056   3.677   0.106   2.065
 1372TIP3    H1 4057   3.606   0.041   2.061
 1372TIP3    H2 4058   3.634   0.190   2.049
 1373TIP3   OH2 4059   3.679   7.807   2.434
 1373TIP3    H1 4060   3.755   7.760   2.399
 1373TIP3    H2 4061   3.628   7.829   2.356
 1374TIP3   OH2 4062   4.689   2.225   4.375
 1374TIP3    H1 4063   4.631   2.166   4.327
 1374TIP3    H2 4064   4.649   2.311   4.367
 1375TIP3   OH2 4065   5.493   1.407   4.696
 1375TIP3    H1 4066   5.587   1.396   4.712
 1375TIP3    H2 4067   5.484   1.399   4.601
 1376TIP3   OH2 4068   2.856   6.135   2.733
 1376TIP3    H1 4069   2.946   6.123   2.704
 1376TIP3    H2 4070   2.860   6.207   2.796
 1377TIP3   OH2 4071   7.260   6.109   4.744
 1377TIP3    H1 4072   7.204   6.089   4.819
 1377TIP3    H2 4073   7.199   6.122   4.672
 1378TIP3   OH2 4074   0.426   3.738   3.142
 1378TIP3    H1 4075   0.339   3.711   3.114
 1378TIP3    H2 4076   0.477   3.657   3.145
 1379TIP3   OH2 4077   8.314   4.905   5.640
 1379TIP3    H1 4078   8.261   4.885   5.563
 1379TIP3    H2 4079   8.288   4.840   5.704
 1380TIP3   OH2 4080   2.481   4.262   1.149
 1380TIP3    H1 4081   2.443   4.228   1.230
 1380TIP3    H2 4082   2.576   4.257   1.163
 1381TIP3   OH2 4083   1.327   5.864   2.340
 1381TIP3    H1 4084   1.270   5.935   2.368
 1381TIP3    H2 4085   1.412   5.905   2.324
 1382TIP3   OH2 4086   2.992   3.068   5.954
 1382TIP3    H1 4087   3.018   3.081   6.046
 1382TIP3    H2 4088   2.958   2.979   5.951
 1383TIP3   OH2 4089   5.797   7.569   0.335
 1383TIP3    H1 4090   5.893   7.576   0.334
 1383TIP3    H2 4091   5.774   7.573   0.428
 1384TIP3   OH2 4092   7.570   4.098   3.884
 1384TIP3    H1 4093   7.648   4.090   3.830
 1384TIP3    H2 4094   7.499   4.066   3.828
 1385TIP3   OH2 4095   3.738   2.525   4.870
 1385TIP3    H1 4096   3.740   2.571   4.786
 1385TIP3    H2 4097   3.716   2.593   4.933
 1386TIP3   OH2 4098   7.784   1.043   4.427
 1386TIP3    H1 4099   7.809   1.008   4.513
 1386TIP3    H2 4100   7.774   1.138   4.442
 1387TIP3   OH2 4101   8.142   0.915   6.545
 1387TIP3    H1 4102   8.133   0.846   6.479
 1387TIP3    H2 4103   8.132   0.996   6.495
 1388TIP3   OH2 4104   7.650   4.270   6.339
 1388TIP3    H1 4105   7.645   4.222   6.421
 1388TIP3    H2 4106   7.742   4.293   6.330
 1389TIP3   OH2 4107   6.324   7.856   3.349
 1389TIP3    H1 4108   6.273   7.919   3.298
 1389TIP3    H2 4109   6.327   7.893   3.437
 1390TIP3   OH2 4110   3.131   4.927   0.639
 1390TIP3    H1 4111   3.040   4.912   0.665
 1390TIP3    H2 4112   3.182   4.907   0.717
 1391TIP3   OH2 4113   6.744   2.666   6.221
 1391TIP3    H1 4114   6.840   2.672   6.219
 1391TIP3    H2 4115   6.726   2.601   6.288
 1392TIP3   OH2 4116   4.334   0.705   0.482
 1392TIP3    H1 4117   4.253   0.731   0.526
 1392TIP3    H2 4118   4.401   0.711   0.550
 1393TIP3   OH2 4119   7.082   4.478   3.780
 1393TIP3    H1 4120   7.032   4.559   3.777
 1393TIP3    H2 4121   7.172   4.506   3.794
 1394TIP3   OH2 4122   3.976   3.454   6.012
 1394TIP3    H1 4123   3.987   3.492   6.099
 1394TIP3    H2 4124   3.979   3.360   6.026
 1395TIP3   OH2 4125   2.988   1.537   4.125
 1395TIP3    H1 4126   3.070   1.491   4.105
 1395TIP3    H2 4127   3.011   1.597   4.196
 1396TIP3   OH2 4128   0.203   2.049   2.134
 1396TIP3    H1 4129   0.189   1.956   2.150
 1396TIP3    H2 4130   0.219   2.086   2.221
 1397TIP3   OH2 4131   4.488   0.427   5.998
 1397TIP3    H1 4132   4.437   0.430   5.917
 1397TIP3    H2 4133   4.438   0.479   6.061
 1398TIP3   OH2 4134   3.392   7.322   6.094
 1398TIP3    H1 4135   3.472   7.333   6.145
 1398TIP3    H2 4136   3.327   7.292   6.158
 1399TIP3   OH2 4137   7.524   1.294   2.354
 1399TIP3    H1 4138   7.538   1.264   2.264
 1399TIP3    H2 4139   7.434   1.328   2.354
 1400TIP3   OH2 4140   2.170   3.856   1.038
 1400TIP3    H1 4141   2.234   3.884   1.103
 1400TIP3    H2 4142   2.086   3.857   1.085
 1401TIP3   OH2 4143   5.185   0.857   2.131
 1401TIP3    H1 4144   5.229   0.924   2.184
 1401TIP3    H2 4145   5.101   0.842   2.175
 1402TIP3   OH2 4146   7.266   7.827   3.863
 1402TIP3    H1 4147   7.223   7.746   3.890
 1402TIP3    H2 4148   7.352   7.798   3.831
 1403TIP3   OH2 4149   7.830   2.599   1.594
 1403TIP3    H1 4150   7.921   2.626   1.582
 1403TIP3    H2 4151   7.805   2.634   1.680
 1404TIP3   OH2 4152   5.345   7.073   2.545
 1404TIP3    H1 4153   5.388   7.158   2.532
 1404TIP3    H2 4154   5.415   7.017   2.577
 1405TIP3   OH2 4155   4.426   0.460   5.482
 1405TIP3    H1 4156   4.379   0.495   5.406
 1405TIP3    H2 4157   4.490   0.527   5.504
 1406TIP3   OH2 4158   1.647   6.538   5.159
 1406TIP3    H1 4159   1.566   6.530   5.108
 1406TIP3    H2 4160   1.654   6.454   5.205
 1407TIP3   OH2 4161   1.501   4.339   1.399
 1407TIP3    H1 4162   1.539   4.263   1.443
 1407TIP3    H2 4163   1.573   4.403   1.395
 1408TIP3   OH2 4164   0.099   1.554   1.613
 1408TIP3    H1 4165   0.081   1.508   1.695
 1408TIP3    H2 4166   0.017   1.548   1.564
 1409TIP3   OH2 4167   0.756   4.864   4.780
 1409TIP3    H1 4168   0.769   4.924   4.706
 1409TIP3    H2 4169   0.699   4.912   4.840
 1410TIP3   OH2 4170   5.690   6.338   0.182
 1410TIP3    H1 4171   5.756   6.366   0.245
 1410TIP3    H2 4172   5.726   6.258   0.143
 1411TIP3   OH2 4173   2.003   3.056   2.335
 1411TIP3    H1 4174   2.031   3.062   2.244
 1411TIP3    H2 4175   2.043   2.976   2.367
 1412TIP3   OH2 4176   4.155   6.766   5.048
 1412TIP3    H1 4177   4.246   6.756   5.021
 1412TIP3    H2 4178   4.159   6.772   5.144
 1413TIP3   OH2 4179   3.000   2.252   0.100
 1413TIP3    H1 4180   2.956   2.174   0.134
 1413TIP3    H2 4181   3.090   2.224   0.083
 1414TIP3   OH2 4182   7.389   5.776   3.471
 1414TIP3    H1 4183   7.473   5.812   3.442
 1414TIP3    H2 4184   7.329   5.850   3.469
 1415TIP3   OH2 4185   4.993   2.510   6.505
 1415TIP3    H1 4186   5.045   2.478   6.432
 1415TIP3    H2 4187   4.968   2.599   6.480
 1416TIP3   OH2 4188   5.896   1.589   5.380
 1416TIP3    H1 4189   5.817   1.600   5.326
 1416TIP3    H2 4190   5.914   1.495   5.377
 1417TIP3   OH2 4191   3.125   6.846   1.349
 1417TIP3    H1 4192   3.030   6.830   1.349
 1417TIP3    H2 4193   3.152   6.828   1.439
 1418TIP3   OH2 4194   7.493   4.564   1.042
 1418TIP3    H1 4195   7.568   4.623   1.048
 1418TIP3    H2 4196   7.469   4.565   0.949
 1419TIP3   OH2 4197   4.841   2.134   1.557
 1419TIP3    H1 4198   4.880   2.048   1.538
 1419TIP3    H2 4199   4.747   2.118   1.559
 1420TIP3   OH2 4200   2.211   7.836   6.075
 1420TIP3    H1 4201   2.133   7.881   6.041
 1420TIP3    H2 4202   2.176   7.770   6.135
 1421TIP3   OH2 4203   6.062   7.408   1.767
 1421TIP3    H1 4204   6.000   7.405   1.694
 1421TIP3    H2 4205   6.050   7.324   1.812
 1422TIP3   OH2 4206   2.411   1.647   6.534
 1422TIP3    H1 4207   2.424   1.733   6.495
 1422TIP3    H2 4208   2.498   1.607   6.534
 1423TIP3   OH2 4209   4.741   6.085   4.859
 1423TIP3    H1 4210   4.791   6.165   4.846
 1423TIP3    H2 4211   4.774   6.050   4.943
 1424TIP3   OH2 4212   5.367   7.507   0.436
 1424TIP3    H1 4213   5.446   7.454   0.432
 1424TIP3    H2 4214   5.375   7.569   0.363
 1425TIP3   OH2 4215   1.679   6.663   3.863
 1425TIP3    H1 4216   1.764   6.691   3.899
 1425TIP3    H2 4217   1.620   6.736   3.882
 1426TIP3   OH2 4218   5.509   0.994   0.857
 1426TIP3    H1 4219   5.526   1.030   0.943
 1426TIP3    H2 4220   5.586   1.016   0.805
 1427TIP3   OH2 4221   5.715   2.506   1.479
 1427TIP3    H1 4222   5.712   2.421   1.434
 1427TIP3    H2 4223   5.631   2.512   1.524
 1428TIP3   OH2 4224   3.273   1.109   5.712
 1428TIP3    H1 4225   3.195   1.098   5.765
 1428TIP3    H2 4226   3.288   1.204   5.711
 1429TIP3   OH2 4227   4.425   2.072   0.701
 1429TIP3    H1 4228   4.454   2.156   0.666
 1429TIP3    H2 4229   4.456   2.008   0.637
 1430TIP3   OH2 4230   2.447   6.944   5.220
 1430TIP3    H1 4231   2.452   6.867   5.277
 1430TIP3    H2 4232   2.387   7.003   5.264
 1431TIP3   OH2 4233   4.848   6.528   1.062
 1431TIP3    H1 4234   4.927   6.578   1.081
 1431TIP3    H2 4235   4.782   6.563   1.122
 1432TIP3   OH2 4236   8.085   2.475   2.685
 1432TIP3    H1 4237   8.112   2.513   2.768
 1432TIP3    H2 4238   8.133   2.393   2.679
 1433TIP3   OH2 4239   7.035   6.410   0.736
 1433TIP3    H1 4240   7.072   6.402   0.824
 1433TIP3    H2 4241   7.046   6.324   0.697
 1434TIP3   OH2 4242   2.574   2.060   3.028
 1434TIP3    H1 4243   2.527   2.087   2.950
 1434TIP3    H2 4244   2.506   2.047   3.094
 1435TIP3   OH2 4245   7.885   5.126   4.131
 1435TIP3    H1 4246   7.889   5.084   4.045
 1435TIP3    H2 4247   7.923   5.062   4.191
 1436TIP3   OH2 4248   3.909   7.238   2.596
 1436TIP3    H1 4249   3.934   7.275   2.511
 1436TIP3    H2 4250   3.813   7.240   2.595
 1437TIP3   OH2 4251   7.647   3.300   3.833
 1437TIP3    H1 4252   7.678   3.253   3.755
 1437TIP3    H2 4253   7.597   3.373   3.798
 1438TIP3   OH2 4254   8.106   5.727   4.649
 1438TIP3    H1 4255   8.028   5.782   4.636
 1438TIP3    H2 4256   8.159   5.775   4.712
 1439TIP3   OH2 4257   1.099   3.152   2.012
 1439TIP3    H1 4258   1.123   3.245   2.013
 1439TIP3    H2 4259   1.161   3.113   1.950
 1440TIP3   OH2 4260   6.823   0.429   1.864
 1440TIP3    H1 4261   6.785   0.508   1.826
 1440TIP3    H2 4262   6.915   0.451   1.879
 1441TIP3   OH2 4263   6.915   1.884   4.808
 1441TIP3    H1 4264   6.884   1.971   4.782
 1441TIP3    H2 4265   6.973   1.857   4.736
 1442TIP3   OH2 4266   2.104   7.318   1.054
 1442TIP3    H1 4267   2.161   7.367   0.995
 1442TIP3    H2 4268   2.164   7.267   1.109
 1443TIP3   OH2 4269   6.107   3.226   4.878
 1443TIP3    H1 4270   6.094   3.237   4.972
 1443TIP3    H2 4271   6.065   3.142   4.857
 1444TIP3   OH2 4272   3.666   0.807   0.479
 1444TIP3    H1 4273   3.593   0.869   0.485
 1444TIP3    H2 4274   3.740   0.860   0.449
 1445TIP3   OH2 4275   0.263   0.056   6.313
 1445TIP3    H1 4276   0.284   0.149   6.300
 1445TIP3    H2 4277   0.317   0.010   6.248
 1446TIP3   OH2 4278   3.029   6.421   1.977
 1446TIP3    H1 4279   3.028   6.337   2.024
 1446TIP3    H2 4280   3.057   6.484   2.043
 1447TIP3   OH2 4281   1.019   6.520   2.253
 1447TIP3    H1 4282   0.936   6.558   2.221
 1447TIP3    H2 4283   1.009   6.519   2.348
 1448TIP3   OH2 4284   4.112   6.753   3.874
 1448TIP3    H1 4285   4.061   6.692   3.821
 1448TIP3    H2 4286   4.090   6.731   3.965
 1449TIP3   OH2 4287   0.479   0.902   5.223
 1449TIP3    H1 4288   0.461   0.974   5.162
 1449TIP3    H2 4289   0.452   0.824   5.176
 1450TIP3   OH2 4290   0.991   1.375   5.427
 1450TIP3    H1 4291   0.931   1.351   5.498
 1450TIP3    H2 4292   1.040   1.449   5.462
 1451TIP3   OH2 4293   5.680   2.950   3.544
 1451TIP3    H1 4294   5.671   2.911   3.457
 1451TIP3    H2 4295   5.591   2.978   3.567
 1452TIP3   OH2 4296   5.981   2.756   0.259
 1452TIP3    H1 4297   5.899   2.800   0.281
 1452TIP3    H2 4298   5.988   2.685   0.323
 1453TIP3   OH2 4299   7.380   2.940   5.072
 1453TIP3    H1 4300   7.427   2.860   5.047
 1453TIP3    H2 4301   7.405   2.954   5.163
 1454TIP3   OH2 4302   2.998   4.327   0.083
 1454TIP3    H1 4303   3.027   4.265   0.016
 1454TIP3    H2 4304   2.955   4.273   0.149
 1455TIP3   OH2 4305   1.644   4.139   5.180
 1455TIP3    H1 4306   1.613   4.110   5.094
 1455TIP3    H2 4307   1.679   4.227   5.164
 1456TIP3   OH2 4308   3.705   1.201   0.974
 1456TIP3    H1 4309   3.684   1.280   1.023
 1456TIP3    H2 4310   3.769   1.229   0.909
 1457TIP3   OH2 4311   7.337   6.616   5.052
 1457TIP3    H1 4312   7.288   6.662   5.121
 1457TIP3    H2 4313   7.296   6.530   5.046
 1458TIP3   OH2 4314   1.048   0.593   5.242
 1458TIP3    H1 4315   0.979   0.658   5.256
 1458TIP3    H2 4316   1.068   0.561   5.330
 1459TIP3   OH2 4317   6.686   6.393   1.258
 1459TIP3    H1 4318   6.653   6.426   1.175
 1459TIP3    H2 4319   6.674   6.298   1.253
 1460TIP3   OH2 4320   1.559   7.326   0.657
 1460TIP3    H1 4321   1.485   7.292   0.607
 1460TIP3    H2 4322   1.572   7.261   0.727
 1461TIP3   OH2 4323   6.563   4.474   2.225
 1461TIP3    H1 4324   6.472   4.473   2.194
 1461TIP3    H2 4325   6.616   4.476   2.145
 1462TIP3   OH2 4326   7.511   4.066   1.573
 1462TIP3    H1 4327   7.553   4.094   1.654
 1462TIP3    H2 4328   7.448   4.136   1.553
 1463TIP3   OH2 4329   2.457   6.552   5.902
 1463TIP3    H1 4330   2.529   6.567   5.841
 1463TIP3    H2 4331   2.437   6.459   5.895
 1464TIP3   OH2 4332   1.906   6.721   1.261
 1464TIP3    H1 4333   1.905   6.767   1.345
 1464TIP3    H2 4334   1.990   6.675   1.260
 1465TIP3   OH2 4335   8.280   5.499   4.633
 1465TIP3    H1 4336   8.212   5.432   4.636
 1465TIP3    H2 4337   8.233   5.581   4.618
 1466TIP3   OH2 4338   6.469   2.220   5.157
 1466TIP3    H1 4339   6.529   2.275   5.106
 1466TIP3    H2 4340   6.438   2.154   5.094
 1467TIP3   OH2 4341   2.934   4.491   1.306
 1467TIP3    H1 4342   2.985   4.424   1.353
 1467TIP3    H2 4343   2.991   4.567   1.302
 1468TIP3   OH2 4344   0.476   0.567   2.366
 1468TIP3    H1 4345   0.490   0.564   2.461
 1468TIP3    H2 4346   0.522   0.646   2.338
 1469TIP3   OH2 4347   6.555   1.703   6.851
 1469TIP3    H1 4348   6.629   1.750   6.813
 1469TIP3    H2 4349   6.595   1.633   6.903
 1470TIP3   OH2 4350   6.800   3.432   1.356
 1470TIP3    H1 4351   6.759   3.443   1.441
 1470TIP3    H2 4352   6.892   3.455   1.369
 1471TIP3   OH2 4353   5.227   3.495   4.879
 1471TIP3    H1 4354   5.205   3.410   4.842
 1471TIP3    H2 4355   5.292   3.475   4.947
 1472TIP3   OH2 4356   7.780   6.554   2.335
 1472TIP3    H1 4357   7.874   6.571   2.335
 1472TIP3    H2 4358   7.750   6.586   2.250
 1473TIP3   OH2 4359   6.412   1.498   0.605
 1473TIP3    H1 4360   6.461   1.416   0.616
 1473TIP3    H2 4361   6.329   1.472   0.566
 1474TIP3   OH2 4362   4.447   6.848   1.399
 1474TIP3    H1 4363   4.414   6.860   1.310
 1474TIP3    H2 4364   4.514   6.915   1.410
 1475TIP3   OH2 4365   3.190   7.380   0.659
 1475TIP3    H1 4366   3.126   7.430   0.608
 1475TIP3    H2 4367   3.203   7.299   0.609
 1476TIP3   OH2 4368   2.932   1.313   5.190
 1476TIP3    H1 4369   2.987   1.268   5.126
 1476TIP3    H2 4370   2.991   1.328   5.264
 1477TIP3   OH2 4371   6.427   6.063   5.219
 1477TIP3    H1 4372   6.453   6.086   5.308
 1477TIP3    H2 4373   6.383   6.142   5.185
 1478TIP3   OH2 4374   1.588   1.478   2.678
 1478TIP3    H1 4375   1.658   1.435   2.727
 1478TIP3    H2 4376   1.570   1.558   2.728
 1479TIP3   OH2 4377   4.142   3.877   2.609
 1479TIP3    H1 4378   4.164   3.813   2.676
 1479TIP3    H2 4379   4.207   3.863   2.540
 1480TIP3   OH2 4380   5.187   7.276   0.892
 1480TIP3    H1 4381   5.151   7.344   0.836
 1480TIP3    H2 4382   5.254   7.233   0.838
 1481TIP3   OH2 4383   3.253   2.908   4.766
 1481TIP3    H1 4384   3.317   2.864   4.822
 1481TIP3    H2 4385   3.219   2.979   4.820
 1482TIP3   OH2 4386   1.555   7.813   2.457
 1482TIP3    H1 4387   1.562   7.899   2.415
 1482TIP3    H2 4388   1.601   7.822   2.540
 1483TIP3   OH2 4389   5.408   3.027   3.746
 1483TIP3    H1 4390   5.408   3.111   3.701
 1483TIP3    H2 4391   5.492   3.024   3.791
 1484TIP3   OH2 4392   1.381   5.476   2.683
 1484TIP3    H1 4393   1.299   5.444   2.719
 1484TIP3    H2 4394   1.365   5.568   2.662
 1485TIP3   OH2 4395   1.510   6.529   0.278
 1485TIP3    H1 4396   1.532   6.539   0.371
 1485TIP3    H2 4397   1.576   6.581   0.232
 1486TIP3   OH2 4398   4.761   5.290   1.350
 1486TIP3    H1 4399   4.823   5.258   1.285
 1486TIP3    H2 4400   4.800   5.264   1.434
 1487TIP3   OH2 4401   8.230   1.219   6.347
 1487TIP3    H1 4402   8.240   1.269   6.429
 1487TIP3    H2 4403   8.158   1.262   6.301
 1488TIP3   OH2 4404   0.087   4.139   6.469
 1488TIP3    H1 4405  -0.001   4.160   6.438
 1488TIP3    H2 4406   0.081   4.049   6.502
 1489TIP3   OH2 4407   7.010   2.604   6.191
 1489TIP3    H1 4408   7.093   2.636   6.227
 1489TIP3    H2 4409   7.028   2.592   6.098
 1490TIP3   OH2 4410   0.973   5.870   2.038
 1490TIP3    H1 4411   0.879   5.855   2.028
 1490TIP3    H2 4412   1.012   5.783   2.038
 1491TIP3   OH2 4413   7.651   2.589   5.769
 1491TIP3    H1 4414   7.597   2.659   5.731
 1491TIP3    H2 4415   7.659   2.613   5.861
 1492TIP3   OH2 4416   1.536   6.402   5.896
 1492TIP3    H1 4417   1.569   6.414   5.984
 1492TIP3    H2 4418   1.614   6.396   5.841
 1493TIP3   OH2 4419   1.910   4.730   0.472
 1493TIP3    H1 4420   1.980   4.791   0.498
 1493TIP3    H2 4421   1.829   4.772   0.500
 1494TIP3   OH2 4422   7.664   6.587   0.918
 1494TIP3    H1 4423   7.590   6.545   0.962
 1494TIP3    H2 4424   7.714   6.514   0.879
 1495TIP3   OH2 4425   3.377   3.271   5.752
 1495TIP3    H1 4426   3.346   3.186   5.782
 1495TIP3    H2 4427   3.466   3.277   5.786
 1496TIP3   OH2 4428   6.849   3.502   6.489
 1496TIP3    H1 4429   6.887   3.487   6.575
 1496TIP3    H2 4430   6.912   3.465   6.427
 1497TIP3   OH2 4431   1.576   2.245   2.777
 1497TIP3    H1 4432   1.519   2.309   2.734
 1497TIP3    H2 4433   1.587   2.176   2.711
 1498TIP3   OH2 4434   8.121   4.513   3.736
 1498TIP3    H1 4435   8.106   4.420   3.752
 1498TIP3    H2 4436   8.168   4.543   3.814
 1499TIP3   OH2 4437   4.662   0.332   3.998
 1499TIP3    H1 4438   4.745   0.356   4.038
 1499TIP3    H2 4439   4.597   0.343   4.068
 1500TIP3   OH2 4440   6.911   0.863   4.150
 1500TIP3    H1 4441   6.872   0.919   4.082
 1500TIP3    H2 4442   6.837   0.813   4.185
 1501TIP3   OH2 4443   8.287   2.534   4.919
 1501TIP3    H1 4444   8.245   2.620   4.923
 1501TIP3    H2 4445   8.223   2.474   4.957
 1502TIP3   OH2 4446   7.567   6.573   6.150
 1502TIP3    H1 4447   7.536   6.645   6.095
 1502TIP3    H2 4448   7.662   6.584   6.153
 1503TIP3   OH2 4449   5.713   1.589   5.707
 1503TIP3    H1 4450   5.655   1.623   5.775
 1503TIP3    H2 4451   5.768   1.525   5.752
 1504TIP3   OH2 4452   2.501   1.253   1.179
 1504TIP3    H1 4453   2.481   1.220   1.091
 1504TIP3    H2 4454   2.517   1.174   1.231
 1505TIP3   OH2 4455   2.148   5.042   3.594
 1505TIP3    H1 4456   2.085   5.019   3.525
 1505TIP3    H2 4457   2.115   4.997   3.672
 1506TIP3   OH2 4458   5.119   5.896   6.396
 1506TIP3    H1 4459   5.079   5.970   6.351
 1506TIP3    H2 4460   5.079   5.819   6.356
 1507TIP3   OH2 4461   6.160   3.895   4.372
 1507TIP3    H1 4462   6.159   3.971   4.429
 1507TIP3    H2 4463   6.228   3.838   4.410
 1508TIP3   OH2 4464   0.858   7.827   5.282
 1508TIP3    H1 4465   0.936   7.882   5.282
 1508TIP3    H2 4466   0.793   7.877   5.232
 1509TIP3   OH2 4467   2.389   6.077   3.742
 1509TIP3    H1 4468   2.480   6.073   3.770
 1509TIP3    H2 4469   2.388   6.144   3.673
 1510TIP3   OH2 4470   5.479   1.156   0.526
 1510TIP3    H1 4471   5.417   1.084   0.536
 1510TIP3    H2 4472   5.450   1.201   0.447
 1511TIP3   OH2 4473   5.613   2.984   4.526
 1511TIP3    H1 4474   5.638   2.900   4.564
 1511TIP3    H2 4475   5.560   2.961   4.449
 1512TIP3   OH2 4476   8.024   1.692   1.629
 1512TIP3    H1 4477   8.112   1.653   1.632
 1512TIP3    H2 4478   8.024   1.746   1.551
 1513TIP3   OH2 4479   4.761   3.524   2.145
 1513TIP3    H1 4480   4.768   3.544   2.052
 1513TIP3    H2 4481   4.784   3.431   2.152
 1514TIP3   OH2 4482   6.578   1.476   4.229
 1514TIP3    H1 4483   6.491   1.484   4.267
 1514TIP3    H2 4484   6.566   1.418   4.154
 1515TIP3   OH2 4485   4.960   4.057   2.014
 1515TIP3    H1 4486   5.022   4.118   1.976
 1515TIP3    H2 4487   4.943   4.092   2.102
 1516TIP3   OH2 4488   3.168   2.837   2.032
 1516TIP3    H1 4489   3.092   2.799   1.988
 1516TIP3    H2 4490   3.132   2.911   2.082
 1517TIP3   OH2 4491   7.832   6.566   3.687
 1517TIP3    H1 4492   7.857   6.511   3.761
 1517TIP3    H2 4493   7.909   6.620   3.671
 1518TIP3   OH2 4494   3.655   4.359   4.459
 1518TIP3    H1 4495   3.609   4.440   4.482
 1518TIP3    H2 4496   3.707   4.382   4.382
 1519TIP3   OH2 4497   0.167   5.409   4.284
 1519TIP3    H1 4498   0.208   5.435   4.201
 1519TIP3    H2 4499   0.110   5.482   4.307
 1520TIP3   OH2 4500   5.567   3.665   6.379
 1520TIP3    H1 4501   5.652   3.651   6.420
 1520TIP3    H2 4502   5.532   3.744   6.421
 1521TIP3   OH2 4503   5.067   1.420   5.637
 1521TIP3    H1 4504   5.025   1.427   5.551
 1521TIP3    H2 4505   5.133   1.489   5.637
 1522TIP3   OH2 4506   3.336   7.904   3.474
 1522TIP3    H1 4507   3.388   7.897   3.554
 1522TIP3    H2 4508   3.399   7.893   3.403
 1523TIP3   OH2 4509   6.844  -0.034   5.254
 1523TIP3    H1 4510   6.928  -0.007   5.217
 1523TIP3    H2 4511   6.791   0.046   5.253
 1524TIP3   OH2 4512   2.628   2.790   3.616
 1524TIP3    H1 4513   2.544   2.809   3.658
 1524TIP3    H2 4514   2.683   2.757   3.687
 1525TIP3   OH2 4515   6.265   3.723   1.657
 1525TIP3    H1 4516   6.200   3.658   1.682
 1525TIP3    H2 4517   6.337   3.672   1.618
 1526TIP3   OH2 4518   4.363   4.375   1.493
 1526TIP3    H1 4519   4.315   4.317   1.434
 1526TIP3    H2 4520   4.321   4.361   1.579
 1527TIP3   OH2 4521   4.419   3.905   0.238
 1527TIP3    H1 4522   4.477   3.833   0.213
 1527TIP3    H2 4523   4.331   3.871   0.222
 1528TIP3   OH2 4524   1.625   4.493   4.752
 1528TIP3    H1 4525   1.630   4.433   4.677
 1528TIP3    H2 4526   1.703   4.548   4.744
 1529TIP3   OH2 4527   3.389   4.093   2.126
 1529TIP3    H1 4528   3.426   4.111   2.040
 1529TIP3    H2 4529   3.418   4.005   2.146
 1530TIP3   OH2 4530   4.334   4.240   6.282
 1530TIP3    H1 4531   4.310   4.239   6.375
 1530TIP3    H2 4532   4.353   4.332   6.264
 1531TIP3   OH2 4533   3.885   0.814   5.639
 1531TIP3    H1 4534   3.931   0.830   5.721
 1531TIP3    H2 4535   3.836   0.733   5.653
 1532TIP3   OH2 4536   2.964   6.976   1.602
 1532TIP3    H1 4537   2.870   6.961   1.588
 1532TIP3    H2 4538   2.987   6.921   1.677
 1533TIP3   OH2 4539   2.344   7.766   0.336
 1533TIP3    H1 4540   2.374   7.759   0.426
 1533TIP3    H2 4541   2.418   7.802   0.288
 1534TIP3   OH2 4542   4.019   0.941   1.842
 1534TIP3    H1 4543   4.036   1.024   1.887
 1534TIP3    H2 4544   4.056   0.874   1.900
 1535TIP3   OH2 4545   2.731   1.290   4.770
 1535TIP3    H1 4546   2.639   1.272   4.792
 1535TIP3    H2 4547   2.761   1.348   4.841
 1536TIP3   OH2 4548   7.736   3.190   4.062
 1536TIP3    H1 4549   7.798   3.123   4.031
 1536TIP3    H2 4550   7.703   3.230   3.982
 1537TIP3   OH2 4551   0.351   7.690   3.800
 1537TIP3    H1 4552   0.359   7.775   3.843
 1537TIP3    H2 4553   0.437   7.650   3.810
 1538TIP3   OH2 4554   7.565   7.372   1.494
 1538TIP3    H1 4555   7.545   7.298   1.551
 1538TIP3    H2 4556   7.574   7.447   1.554
 1539TIP3   OH2 4557   4.996   0.179   6.346
 1539TIP3    H1 4558   5.013   0.088   6.371
 1539TIP3    H2 4559   4.920   0.175   6.288
 1540TIP3   OH2 4560   4.566   4.629   6.662
 1540TIP3    H1 4561   4.546   4.640   6.569
 1540TIP3    H2 4562   4.502   4.684   6.707
 1541TIP3   OH2 4563   7.397   0.896   1.906
 1541TIP3    H1 4564   7.406   0.816   1.957
 1541TIP3    H2 4565   7.341   0.872   1.832
 1542TIP3   OH2 4566   4.955   6.677   0.374
 1542TIP3    H1 4567   4.984   6.736   0.443
 1542TIP3    H2 4568   4.969   6.589   0.410
 1543TIP3   OH2 4569   3.344   7.835   2.409
 1543TIP3    H1 4570   3.385   7.818   2.323
 1543TIP3    H2 4571   3.372   7.924   2.431
 1544TIP3   OH2 4572   3.811   5.513   3.303
 1544TIP3    H1 4573   3.887   5.568   3.320
 1544TIP3    H2 4574   3.744   5.573   3.270
 1545TIP3   OH2 4575   5.793   2.438   5.421
 1545TIP3    H1 4576   5.774   2.419   5.329
 1545TIP3    H2 4577   5.726   2.390   5.470
 1546TIP3   OH2 4578   6.283   5.661   0.394
 1546TIP3    H1 4579   6.325   5.684   0.311
 1546TIP3    H2 4580   6.287   5.741   0.446
 1547TIP3   OH2 4581   5.665   2.014   2.204
 1547TIP3    H1 4582   5.658   1.929   2.247
 1547TIP3    H2 4583   5.746   2.008   2.153
 1548TIP3   OH2 4584   5.357   1.759   0.187
 1548TIP3    H1 4585   5.356   1.710   0.105
 1548TIP3    H2 4586   5.411   1.707   0.246
 1549TIP3   OH2 4587   6.130   3.394   6.546
 1549TIP3    H1 4588   6.099   3.383   6.456
 1549TIP3    H2 4589   6.062   3.447   6.588
 1550TIP3   OH2 4590   3.597   0.235   4.650
 1550TIP3    H1 4591   3.520   0.268   4.697
 1550TIP3    H2 4592   3.626   0.160   4.702
 1551TIP3   OH2 4593   4.081   2.617   3.532
 1551TIP3    H1 4594   4.093   2.707   3.503
 1551TIP3    H2 4595   3.987   2.610   3.551
 1552TIP3   OH2 4596   2.898   1.859   4.358
 1552TIP3    H1 4597   2.817   1.810   4.349
 1552TIP3    H2 4598   2.898   1.889   4.450
 1553TIP3   OH2 4599   4.764   4.674   4.708
 1553TIP3    H1 4600   4.757   4.702   4.617
 1553TIP3    H2 4601   4.811   4.591   4.704
 1554TIP3   OH2 4602   6.084   2.467   5.461
 1554TIP3    H1 4603   5.990   2.454   5.456
 1554TIP3    H2 4604   6.121   2.398   5.405
 1555TIP3   OH2 4605   5.829   3.036   0.411
 1555TIP3    H1 4606   5.818   3.059   0.319
 1555TIP3    H2 4607   5.917   3.065   0.433
 1556TIP3   OH2 4608   4.906   5.621   1.524
 1556TIP3    H1 4609   4.824   5.587   1.560
 1556TIP3    H2 4610   4.931   5.692   1.582
 1557TIP3   OH2 4611   6.957   0.118   3.950
 1557TIP3    H1 4612   6.902   0.050   3.987
 1557TIP3    H2 4613   6.947   0.109   3.856
 1558TIP3   OH2 4614   4.272   1.062   4.213
 1558TIP3    H1 4615   4.361   1.057   4.246
 1558TIP3    H2 4616   4.262   1.152   4.184
 1559TIP3   OH2 4617   0.912   2.101   4.083
 1559TIP3    H1 4618   0.986   2.079   4.028
 1559TIP3    H2 4619   0.869   2.017   4.100
 1560TIP3   OH2 4620   0.091   6.275   1.152
 1560TIP3    H1 4621   0.148   6.321   1.090
 1560TIP3    H2 4622   0.031   6.225   1.097
 1561TIP3   OH2 4623   2.716   4.590   5.654
 1561TIP3    H1 4624   2.673   4.511   5.623
 1561TIP3    H2 4625   2.701   4.655   5.586
 1562TIP3   OH2 4626   3.914   3.577   1.766
 1562TIP3    H1 4627   3.920   3.592   1.671
 1562TIP3    H2 4628   3.998   3.607   1.800
 1563TIP3   OH2 4629   1.984   5.803   5.604
 1563TIP3    H1 4630   1.924   5.752   5.550
 1563TIP3    H2 4631   2.057   5.824   5.545
 1564TIP3   OH2 4632   7.484   2.754   1.741
 1564TIP3    H1 4633   7.432   2.806   1.803
 1564TIP3    H2 4634   7.562   2.728   1.791
 1565TIP3   OH2 4635   6.991   6.975   2.733
 1565TIP3    H1 4636   6.908   6.955   2.776
 1565TIP3    H2 4637   7.057   6.930   2.785
 1566TIP3   OH2 4638   7.025   2.171   0.537
 1566TIP3    H1 4639   6.940   2.169   0.582
 1566TIP3    H2 4640   7.047   2.264   0.531
 1567TIP3   OH2 4641   5.139   5.176   1.911
 1567TIP3    H1 4642   5.200   5.204   1.979
 1567TIP3    H2 4643   5.071   5.128   1.958
 1568TIP3   OH2 4644   5.435   6.675   4.743
 1568TIP3    H1 4645   5.341   6.666   4.730
 1568TIP3    H2 4646   5.458   6.606   4.805
 1569TIP3   OH2 4647   4.975   1.086   2.577
 1569TIP3    H1 4648   5.018   1.150   2.633
 1569TIP3    H2 4649   4.978   1.004   2.625
 1570TIP3   OH2 4650   2.857   0.989   3.658
 1570TIP3    H1 4651   2.861   0.894   3.667
 1570TIP3    H2 4652   2.786   1.016   3.717
 1571TIP3   OH2 4653   2.114   1.046   6.465
 1571TIP3    H1 4654   2.154   0.982   6.523
 1571TIP3    H2 4655   2.069   0.994   6.399
 1572TIP3   OH2 4656   6.669   2.406   1.563
 1572TIP3    H1 4657   6.720   2.339   1.608
 1572TIP3    H2 4658   6.733   2.455   1.512
 1573TIP3   OH2 4659   1.803   7.217   2.015
 1573TIP3    H1 4660   1.728   7.158   2.024
 1573TIP3    H2 4661   1.841   7.195   1.930
 1574TIP3   OH2 4662   4.272   7.680   0.805
 1574TIP3    H1 4663   4.177   7.688   0.795
 1574TIP3    H2 4664   4.284   7.609   0.867
 1575TIP3   OH2 4665   3.810   6.029   4.737
 1575TIP3    H1 4666   3.814   6.086   4.814
 1575TIP3    H2 4667   3.748   6.072   4.679
 1576TIP3   OH2 4668   0.616   2.490   0.831
 1576TIP3    H1 4669   0.566   2.460   0.756
 1576TIP3    H2 4670   0.554   2.542   0.882
 1577TIP3   OH2 4671   6.893   1.699   1.696
 1577TIP3    H1 4672   6.849   1.716   1.779
 1577TIP3    H2 4673   6.966   1.761   1.695
 1578TIP3   OH2 4674   7.958   3.137   6.192
 1578TIP3    H1 4675   8.015   3.060   6.201
 1578TIP3    H2 4676   8.008   3.196   6.136
 1579TIP3   OH2 4677   7.027   4.545   6.042
 1579TIP3    H1 4678   7.039   4.451   6.034
 1579TIP3    H2 4679   6.961   4.567   5.977
 1580TIP3   OH2 4680   1.620   0.766   3.711
 1580TIP3    H1 4681   1.610   0.675   3.739
 1580TIP3    H2 4682   1.562   0.816   3.770
 1581TIP3   OH2 4683   0.923   3.757   5.488
 1581TIP3    H1 4684   0.986   3.804   5.544
 1581TIP3    H2 4685   0.883   3.826   5.435
 1582TIP3   OH2 4686   1.189   3.597   1.599
 1582TIP3    H1 4687   1.201   3.606   1.504
 1582TIP3    H2 4688   1.104   3.635   1.617
 1583TIP3   OH2 4689   3.029   4.147   5.601
 1583TIP3    H1 4690   3.048   4.085   5.671
 1583TIP3    H2 4691   3.046   4.233   5.640
 1584TIP3   OH2 4692   3.184   3.246   5.192
 1584TIP3    H1 4693   3.146   3.331   5.219
 1584TIP3    H2 4694   3.278   3.256   5.208
 1585TIP3   OH2 4695   0.936   6.492   1.605
 1585TIP3    H1 4696   0.929   6.399   1.581
 1585TIP3    H2 4697   0.926   6.493   1.700
 1586TIP3   OH2 4698   7.241   7.385   2.268
 1586TIP3    H1 4699   7.231   7.381   2.363
 1586TIP3    H2 4700   7.176   7.449   2.240
 1587TIP3   OH2 4701   1.889   3.057   2.032
 1587TIP3    H1 4702   1.831   2.984   2.054
 1587TIP3    H2 4703   1.932   3.030   1.951
 1588TIP3   OH2 4704   7.534   2.337   4.849
 1588TIP3    H1 4705   7.572   2.254   4.822
 1588TIP3    H2 4706   7.442   2.331   4.822
 1589TIP3   OH2 4707   4.028   5.664   4.239
 1589TIP3    H1 4708   4.075   5.718   4.302
 1589TIP3    H2 4709   3.998   5.727   4.172
 1590TIP3   OH2 4710   1.799   6.892   6.717
 1590TIP3    H1 4711   1.798   6.824   6.650
 1590TIP3    H2 4712   1.892   6.912   6.728
 1591TIP3   OH2 4713   0.556   6.923   2.485
 1591TIP3    H1 4714   0.520   6.859   2.423
 1591TIP3    H2 4715   0.559   6.876   2.569
 1592TIP3   OH2 4716   5.911   7.249   4.666
 1592TIP3    H1 4717   5.818   7.226   4.670
 1592TIP3    H2 4718   5.912   7.338   4.631
 1593TIP3   OH2 4719   3.325   2.989   1.565
 1593TIP3    H1 4720   3.297   2.902   1.596
 1593TIP3    H2 4721   3.277   3.002   1.484
 1594TIP3   OH2 4722   6.441   4.110   6.512
 1594TIP3    H1 4723   6.505   4.057   6.464
 1594TIP3    H2 4724   6.357   4.088   6.472
 1595TIP3   OH2 4725   0.599   6.178   0.698
 1595TIP3    H1 4726   0.607   6.123   0.776
 1595TIP3    H2 4727   0.661   6.140   0.635
 1596TIP3   OH2 4728   2.619   4.493   4.427
 1596TIP3    H1 4729   2.549   4.430   4.413
 1596TIP3    H2 4730   2.578   4.578   4.413
 1597TIP3   OH2 4731   7.592   7.576   6.663
 1597TIP3    H1 4732   7.664   7.628   6.698
 1597TIP3    H2 4733   7.513   7.620   6.694
 1598TIP3   OH2 4734   1.755   2.952  -0.006
 1598TIP3    H1 4735   1.700   2.925   0.068
 1598TIP3    H2 4736   1.844   2.933   0.022
 1599TIP3   OH2 4737   5.052   3.462   6.575
 1599TIP3    H1 4738   4.995   3.391   6.545
 1599TIP3    H2 4739   5.133   3.418   6.601
 1600TIP3   OH2 4740   0.078   5.787   2.658
 1600TIP3    H1 4741   0.135   5.819   2.729
 1600TIP3    H2 4742   0.133   5.724   2.611
 1601TIP3   OH2 4743   5.421   3.824   3.048
 1601TIP3    H1 4744   5.372   3.899   3.082
 1601TIP3    H2 4745   5.372   3.794   2.972
 1602TIP3   OH2 4746   4.699   2.730   4.891
 1602TIP3    H1 4747   4.740   2.664   4.946
 1602TIP3    H2 4748   4.736   2.813   4.921
 1603TIP3   OH2 4749   0.359   3.999   5.585
 1603TIP3    H1 4750   0.425   3.931   5.599
 1603TIP3    H2 4751   0.405   4.081   5.603
 1604TIP3   OH2 4752   7.435   4.312   2.719
 1604TIP3    H1 4753   7.520   4.329   2.758
 1604TIP3    H2 4754   7.388   4.259   2.784
 1605TIP3   OH2 4755   5.176   6.163   5.456
 1605TIP3    H1 4756   5.169   6.214   5.536
 1605TIP3    H2 4757   5.240   6.095   5.476
 1606TIP3   OH2 4758   8.368   6.471   3.343
 1606TIP3    H1 4759   8.339   6.386   3.376
 1606TIP3    H2 4760   8.415   6.451   3.262
 1607TIP3   OH2 4761   3.672   7.524   2.127
 1607TIP3    H1 4762   3.756   7.540   2.170
 1607TIP3    H2 4763   3.612   7.503   2.199
 1608TIP3   OH2 4764   4.431   2.279   4.578
 1608TIP3    H1 4765   4.509   2.225   4.580
 1608TIP3    H2 4766   4.377   2.245   4.649
 1609TIP3   OH2 4767   3.126   2.436   4.370
 1609TIP3    H1 4768   3.109   2.348   4.335
 1609TIP3    H2 4769   3.096   2.432   4.460
 1610TIP3   OH2 4770   3.433   4.486   3.124
 1610TIP3    H1 4771   3.353   4.434   3.111
 1610TIP3    H2 4772   3.410   4.574   3.093
 1611TIP3   OH2 4773   3.815   1.123   5.762
 1611TIP3    H1 4774   3.789   1.069   5.688
 1611TIP3    H2 4775   3.799   1.069   5.839
 1612TIP3   OH2 4776   6.527   7.567   4.028
 1612TIP3    H1 4777   6.485   7.517   4.098
 1612TIP3    H2 4778   6.618   7.575   4.055
 1613TIP3   OH2 4779   0.547   0.038   3.970
 1613TIP3    H1 4780   0.487   0.038   4.045
 1613TIP3    H2 4781   0.512  -0.029   3.911
 1614TIP3   OH2 4782   7.795   5.467   0.334
 1614TIP3    H1 4783   7.880   5.511   0.345
 1614TIP3    H2 4784   7.815   5.387   0.286
 1615TIP3   OH2 4785   4.777   6.299   2.418
 1615TIP3    H1 4786   4.777   6.340   2.332
 1615TIP3    H2 4787   4.715   6.227   2.410
 1616TIP3   OH2 4788   2.355   6.538   5.607
 1616TIP3    H1 4789   2.415   6.598   5.651
 1616TIP3    H2 4790   2.324   6.587   5.530
 1617TIP3   OH2 4791   8.102   3.870   4.456
 1617TIP3    H1 4792   8.130   3.852   4.366
 1617TIP3    H2 4793   8.022   3.819   4.467
 1618TIP3   OH2 4794   7.310   7.536  -0.020
 1618TIP3    H1 4795   7.405   7.542  -0.017
 1618TIP3    H2 4796   7.281   7.572   0.063
 1619TIP3   OH2 4797   5.991   2.927   3.338
 1619TIP3    H1 4798   6.055   2.958   3.401
 1619TIP3    H2 4799   5.917   2.986   3.348
 1620TIP3   OH2 4800   0.070   0.752   1.613
 1620TIP3    H1 4801   0.013   0.715   1.546
 1620TIP3    H2 4802   0.158   0.748   1.576
 1621TIP3   OH2 4803   4.720   3.726   6.151
 1621TIP3    H1 4804   4.754   3.661   6.089
 1621TIP3    H2 4805   4.630   3.740   6.123
 1622TIP3   OH2 4806   5.203   4.984   2.261
 1622TIP3    H1 4807   5.192   5.031   2.344
 1622TIP3    H2 4808   5.291   4.947   2.266
 1623TIP3   OH2 4809   1.013   6.033   6.378
 1623TIP3    H1 4810   1.096   6.075   6.353
 1623TIP3    H2 4811   0.967   6.020   6.295
 1624TIP3   OH2 4812   5.446   6.509   5.780
 1624TIP3    H1 4813   5.524   6.502   5.835
 1624TIP3    H2 4814   5.478   6.493   5.691
 1625TIP3   OH2 4815   0.210   0.021   3.333
 1625TIP3    H1 4816   0.174   0.103   3.367
 1625TIP3    H2 4817   0.280  -0.002   3.394
 1626TIP3   OH2 4818   0.494   6.838   0.553
 1626TIP3    H1 4819   0.469   6.885   0.473
 1626TIP3    H2 4820   0.454   6.751   0.543
 1627TIP3   OH2 4821   1.554   1.956   4.174
 1627TIP3    H1 4822   1.559   1.909   4.257
 1627TIP3    H2 4823   1.587   1.894   4.109
 1628TIP3   OH2 4824   0.160   0.097   5.955
 1628TIP3    H1 4825   0.185   0.084   5.864
 1628TIP3    H2 4826   0.203   0.025   6.002
 1629TIP3   OH2 4827   5.190   7.235   4.825
 1629TIP3    H1 4828   5.268   7.263   4.776
 1629TIP3    H2 4829   5.169   7.149   4.788
 1630TIP3   OH2 4830   3.494   5.029   3.925
 1630TIP3    H1 4831   3.531   5.100   3.871
 1630TIP3    H2 4832   3.404   5.021   3.896
 1631TIP3   OH2 4833   7.992   0.654   6.750
 1631TIP3    H1 4834   7.898   0.673   6.739
 1631TIP3    H2 4835   8.027   0.653   6.661
 1632TIP3   OH2 4836   2.619   4.137   0.639
 1632TIP3    H1 4837   2.544   4.140   0.699
 1632TIP3    H2 4838   2.607   4.056   0.590
 1633TIP3   OH2 4839   1.047   2.866   0.706
 1633TIP3    H1 4840   1.087   2.862   0.619
 1633TIP3    H2 4841   1.114   2.906   0.762
 1634TIP3   OH2 4842   6.819   6.870   0.611
 1634TIP3    H1 4843   6.903   6.869   0.565
 1634TIP3    H2 4844   6.801   6.778   0.630
 1635TIP3   OH2 4845   5.842   4.189   3.885
 1635TIP3    H1 4846   5.795   4.148   3.813
 1635TIP3    H2 4847   5.880   4.116   3.934
 1636TIP3   OH2 4848   8.226   5.028   6.158
 1636TIP3    H1 4849   8.162   5.021   6.088
 1636TIP3    H2 4850   8.176   5.017   6.239
 1637TIP3   OH2 4851   5.630   7.798   4.877
 1637TIP3    H1 4852   5.631   7.845   4.794
 1637TIP3    H2 4853   5.551   7.743   4.872
 1638TIP3   OH2 4854   5.987   2.597   1.538
 1638TIP3    H1 4855   5.892   2.603   1.528
 1638TIP3    H2 4856   6.018   2.687   1.524
 1639TIP3   OH2 4857   1.535   6.823   2.724
 1639TIP3    H1 4858   1.563   6.732   2.718
 1639TIP3    H2 4859   1.610   6.869   2.760
 1640TIP3   OH2 4860   4.104   5.892   2.676
 1640TIP3    H1 4861   4.013   5.882   2.649
 1640TIP3    H2 4862   4.117   5.987   2.680
 1641TIP3   OH2 4863   0.624   3.431   0.360
 1641TIP3    H1 4864   0.584   3.518   0.359
 1641TIP3    H2 4865   0.562   3.377   0.409
 1642TIP3   OH2 4866   1.799   0.753   0.366
 1642TIP3    H1 4867   1.863   0.823   0.348
 1642TIP3    H2 4868   1.852   0.674   0.373
 1643TIP3   OH2 4869   5.016   6.955   6.287
 1643TIP3    H1 4870   5.003   6.869   6.247
 1643TIP3    H2 4871   4.927   6.984   6.309
 1644TIP3   OH2 4872   3.728   4.643   5.857
 1644TIP3    H1 4873   3.794   4.699   5.898
 1644TIP3    H2 4874   3.645   4.671   5.897
 1645TIP3   OH2 4875   7.700   4.508   1.299
 1645TIP3    H1 4876   7.769   4.570   1.278
 1645TIP3    H2 4877   7.622   4.562   1.311
 1646TIP3   OH2 4878   2.463   4.409   4.879
 1646TIP3    H1 4879   2.536   4.449   4.832
 1646TIP3    H2 4880   2.475   4.436   4.970
 1647TIP3   OH2 4881   6.597   1.215   1.061
 1647TIP3    H1 4882   6.556   1.139   1.019
 1647TIP3    H2 4883   6.684   1.184   1.086
 1648TIP3   OH2 4884   6.267   1.237   6.307
 1648TIP3    H1 4885   6.210   1.276   6.374
 1648TIP3    H2 4886   6.343   1.205   6.356
 1649TIP3   OH2 4887   1.887   4.293   0.727
 1649TIP3    H1 4888   1.847   4.287   0.814
 1649TIP3    H2 4889   1.878   4.205   0.691
 1650TIP3   OH2 4890   3.982   3.176   6.042
 1650TIP3    H1 4891   4.070   3.169   6.005
 1650TIP3    H2 4892   3.935   3.101   6.006
 1651TIP3   OH2 4893   4.505   1.543   0.859
 1651TIP3    H1 4894   4.554   1.625   0.847
 1651TIP3    H2 4895   4.537   1.485   0.790
 1652TIP3   OH2 4896   6.983   1.184   5.741
 1652TIP3    H1 4897   6.992   1.186   5.836
 1652TIP3    H2 4898   6.966   1.275   5.717
 1653TIP3   OH2 4899   5.196   4.501   6.303
 1653TIP3    H1 4900   5.232   4.483   6.216
 1653TIP3    H2 4901   5.188   4.414   6.343
 1654TIP3   OH2 4902   7.012   5.234   0.048
 1654TIP3    H1 4903   7.108   5.227   0.050
 1654TIP3    H2 4904   6.994   5.305  -0.013
 1655TIP3   OH2 4905   1.947   7.674   6.385
 1655TIP3    H1 4906   1.945   7.739   6.455
 1655TIP3    H2 4907   2.039   7.673   6.356
 1656TIP3   OH2 4908   2.657   2.998   3.447
 1656TIP3    H1 4909   2.683   3.030   3.533
 1656TIP3    H2 4910   2.619   2.912   3.464
 1657TIP3   OH2 4911   4.752   0.070   0.955
 1657TIP3    H1 4912   4.744   0.102   1.045
 1657TIP3    H2 4913   4.694  -0.006   0.952
 1658TIP3   OH2 4914   8.197   1.309   1.719
 1658TIP3    H1 4915   8.281   1.353   1.729
 1658TIP3    H2 4916   8.135   1.365   1.765
 1659TIP3   OH2 4917   0.149   7.052   0.060
 1659TIP3    H1 4918   0.216   7.014   0.003
 1659TIP3    H2 4919   0.183   7.138   0.084
 1660TIP3   OH2 4920   0.153   2.773   2.805
 1660TIP3    H1 4921   0.169   2.851   2.752
 1660TIP3    H2 4922   0.231   2.767   2.861
 1661TIP3   OH2 4923   3.339   4.955   5.180
 1661TIP3    H1 4924   3.292   5.027   5.222
 1661TIP3    H2 4925   3.270   4.893   5.155
 1662TIP3   OH2 4926   7.926   6.587   2.894
 1662TIP3    H1 4927   7.952   6.626   2.811
 1662TIP3    H2 4928   7.908   6.496   2.874
 1663TIP3   OH2 4929   2.595   7.881   1.526
 1663TIP3    H1 4930   2.571   7.923   1.608
 1663TIP3    H2 4931   2.568   7.790   1.536
 1664TIP3   OH2 4932   7.693   6.205   0.345
 1664TIP3    H1 4933   7.749   6.238   0.416
 1664TIP3    H2 4934   7.749   6.210   0.267
 1665TIP3   OH2 4935   2.947   5.843   5.585
 1665TIP3    H1 4936   2.926   5.894   5.507
 1665TIP3    H2 4937   2.870   5.850   5.640
 1666TIP3   OH2 4938   7.835   0.328   2.600
 1666TIP3    H1 4939   7.928   0.330   2.621
 1666TIP3    H2 4940   7.816   0.416   2.567
 1667TIP3   OH2 4941   8.186   3.229   0.194
 1667TIP3    H1 4942   8.123   3.247   0.124
 1667TIP3    H2 4943   8.156   3.146   0.232
 1668TIP3   OH2 4944   2.698   6.921   6.844
 1668TIP3    H1 4945   2.662   6.964   6.766
 1668TIP3    H2 4946   2.781   6.885   6.816
 1669TIP3   OH2 4947   2.415   1.835   5.049
 1669TIP3    H1 4948   2.419   1.907   5.112
 1669TIP3    H2 4949   2.333   1.790   5.069
 1670TIP3   OH2 4950   5.737   2.781   5.874
 1670TIP3    H1 4951   5.818   2.730   5.880
 1670TIP3    H2 4952   5.667   2.715   5.875
 1671TIP3   OH2 4953   2.232   2.549   3.802
 1671TIP3    H1 4954   2.162   2.487   3.779
 1671TIP3    H2 4955   2.275   2.568   3.718
 1672TIP3   OH2 4956   5.177   1.991   6.558
 1672TIP3    H1 4957   5.170   1.921   6.493
 1672TIP3    H2 4958   5.190   2.071   6.506
 1673TIP3   OH2 4959   2.850   6.657   6.752
 1673TIP3    H1 4960   2.768   6.656   6.704
 1673TIP3    H2 4961   2.825   6.671   6.843
 1674TIP3   OH2 4962   0.877   2.743   4.402
 1674TIP3    H1 4963   0.782   2.731   4.401
 1674TIP3    H2 4964   0.892   2.806   4.472
 1675TIP3   OH2 4965   3.550   2.098   1.319
 1675TIP3    H1 4966   3.491   2.098   1.394
 1675TIP3    H2 4967   3.617   2.033   1.341
 1676TIP3   OH2 4968   5.521   1.757   4.921
 1676TIP3    H1 4969   5.434   1.763   4.961
 1676TIP3    H2 4970   5.506   1.769   4.828
 1677TIP3   OH2 4971   0.381   1.907   1.599
 1677TIP3    H1 4972   0.458   1.923   1.544
 1677TIP3    H2 4973   0.413   1.921   1.689
 1678TIP3   OH2 4974   7.238   6.393   3.888
 1678TIP3    H1 4975   7.181   6.442   3.829
 1678TIP3    H2 4976   7.317   6.374   3.837
 1679TIP3   OH2 4977   2.355   7.004   3.283
 1679TIP3    H1 4978   2.413   7.078   3.302
 1679TIP3    H2 4979   2.412   6.927   3.286
 1680TIP3   OH2 4980   5.322   2.274   3.816
 1680TIP3    H1 4981   5.320   2.207   3.884
 1680TIP3    H2 4982   5.412   2.273   3.785
 1681TIP3   OH2 4983   7.789   7.190   0.289
 1681TIP3    H1 4984   7.734   7.184   0.210
 1681TIP3    H2 4985   7.809   7.099   0.312
 1682TIP3   OH2 4986   3.781   1.622   5.167
 1682TIP3    H1 4987   3.829   1.619   5.084
 1682TIP3    H2 4988   3.704   1.675   5.149
 1683TIP3   OH2 4989   2.401   6.395   1.657
 1683TIP3    H1 4990   2.417   6.305   1.683
 1683TIP3    H2 4991   2.370   6.389   1.566
 1684TIP3   OH2 4992   5.211   2.552   1.453
 1684TIP3    H1 4993   5.154   2.611   1.402
 1684TIP3    H2 4994   5.153   2.480   1.479
 1685TIP3   OH2 4995   5.005   2.866   1.416
 1685TIP3    H1 4996   4.966   2.933   1.472
 1685TIP3    H2 4997   5.097   2.865   1.439
 1686TIP3   OH2 4998   3.668   1.189   3.149
 1686TIP3    H1 4999   3.651   1.198   3.055
 1686TIP3    H2 5000   3.763   1.195   3.157
 1687TIP3   OH2 5001   1.384   3.782   6.477
 1687TIP3    H1 5002   1.449   3.852   6.465
 1687TIP3    H2 5003   1.320   3.820   6.537
 1688TIP3   OH2 5004   0.570   7.691   3.012
 1688TIP3    H1 5005   0.522   7.633   3.071
 1688TIP3    H2 5006   0.637   7.635   2.973
 1689TIP3   OH2 5007   4.198   5.095   2.706
 1689TIP3    H1 5008   4.189   5.009   2.748
 1689TIP3    H2 5009   4.122   5.145   2.737
 1690TIP3   OH2 5010   1.775   3.102   6.795
 1690TIP3    H1 5011   1.784   3.022   6.743
 1690TIP3    H2 5012   1.857   3.109   6.844
 1691TIP3   OH2 5013   4.633   2.728   1.973
 1691TIP3    H1 5014   4.610   2.770   1.890
 1691TIP3    H2 5015   4.672   2.798   2.025
 1692TIP3   OH2 5016   3.792   5.714   4.051
 1692TIP3    H1 5017   3.714   5.737   4.000
 1692TIP3    H2 5018   3.774   5.626   4.084
 1693TIP3   OH2 5019   1.714   4.959   4.317
 1693TIP3    H1 5020   1.764   4.901   4.258
 1693TIP3    H2 5021   1.753   4.943   4.403
 1694TIP3   OH2 5022   4.454   2.537   6.423
 1694TIP3    H1 5023   4.536   2.489   6.434
 1694TIP3    H2 5024   4.464   2.581   6.339
 1695TIP3   OH2 5025   1.462   3.497   5.581
 1695TIP3    H1 5026   1.495   3.563   5.520
 1695TIP3    H2 5027   1.382   3.464   5.540
 1696TIP3   OH2 5028   0.978   6.208   3.321
 1696TIP3    H1 5029   1.045   6.148   3.289
 1696TIP3    H2 5030   1.013   6.241   3.404
 1697TIP3   OH2 5031   7.518   5.057   3.758
 1697TIP3    H1 5032   7.520   5.134   3.701
 1697TIP3    H2 5033   7.528   5.093   3.846
 1698TIP3   OH2 5034   5.694   3.868   1.525
 1698TIP3    H1 5035   5.709   3.961   1.538
 1698TIP3    H2 5036   5.781   3.832   1.509
 1699TIP3   OH2 5037   2.861   5.752   6.779
 1699TIP3    H1 5038   2.888   5.844   6.784
 1699TIP3    H2 5039   2.789   5.745   6.842
 1700TIP3   OH2 5040   4.252   0.970   4.895
 1700TIP3    H1 5041   4.264   0.975   4.990
 1700TIP3    H2 5042   4.247   1.061   4.866
 1701TIP3   OH2 5043   2.773   0.157   6.775
 1701TIP3    H1 5044   2.720   0.079   6.793
 1701TIP3    H2 5045   2.775   0.204   6.859
 1702TIP3   OH2 5046   1.663   6.029   4.366
 1702TIP3    H1 5047   1.680   6.109   4.414
 1702TIP3    H2 5048   1.569   6.013   4.378
 1703TIP3   OH2 5049   6.976   1.527   3.111
 1703TIP3    H1 5050   6.942   1.605   3.068
 1703TIP3    H2 5051   6.997   1.556   3.200
 1704TIP3   OH2 5052   1.190   7.429   2.593
 1704TIP3    H1 5053   1.253   7.488   2.551
 1704TIP3    H2 5054   1.234   7.399   2.672
 1705TIP3   OH2 5055   6.875   3.014   0.349
 1705TIP3    H1 5056   6.853   2.992   0.440
 1705TIP3    H2 5057   6.793   3.046   0.312
 1706TIP3   OH2 5058   5.483   4.941   4.862
 1706TIP3    H1 5059   5.574   4.969   4.850
 1706TIP3    H2 5060   5.489   4.845   4.869
 1707TIP3   OH2 5061   8.181   0.650   6.446
 1707TIP3    H1 5062   8.160   0.660   6.354
 1707TIP3    H2 5063   8.185   0.555   6.459
 1708TIP3   OH2 5064   5.003   5.980   1.998
 1708TIP3    H1 5065   4.994   6.047   2.066
 1708TIP3    H2 5066   4.936   5.916   2.018
 1709TIP3   OH2 5067   5.367   7.065   3.564
 1709TIP3    H1 5068   5.335   6.998   3.504
 1709TIP3    H2 5069   5.419   7.123   3.509
 1710TIP3   OH2 5070   0.009   7.584   0.043
 1710TIP3    H1 5071  -0.002   7.669   0.085
 1710TIP3    H2 5072   0.100   7.583   0.013
 1711TIP3   OH2 5073   0.112   6.610   3.517
 1711TIP3    H1 5074   0.203   6.609   3.487
 1711TIP3    H2 5075   0.067   6.548   3.460
 1712TIP3   OH2 5076   6.742   5.664   0.677
 1712TIP3    H1 5077   6.759   5.692   0.588
 1712TIP3    H2 5078   6.694   5.581   0.668
 1713TIP3   OH2 5079   4.786   4.161   5.843
 1713TIP3    H1 5080   4.842   4.233   5.873
 1713TIP3    H2 5081   4.747   4.126   5.923
 1714TIP3   OH2 5082   2.974   3.094   5.243
 1714TIP3    H1 5083   3.010   3.025   5.299
 1714TIP3    H2 5084   3.049   3.151   5.225
 1715TIP3   OH2 5085   8.348   5.061   6.550
 1715TIP3    H1 5086   8.283   5.108   6.498
 1715TIP3    H2 5087   8.311   5.060   6.639
 1716TIP3   OH2 5088   5.828   0.774   3.534
 1716TIP3    H1 5089   5.851   0.683   3.517
 1716TIP3    H2 5090   5.909   0.813   3.567
 1717TIP3   OH2 5091   3.840   3.236   0.429
 1717TIP3    H1 5092   3.807   3.256   0.516
 1717TIP3    H2 5093   3.933   3.217   0.443
 1718TIP3   OH2 5094   7.939   6.810   1.745
 1718TIP3    H1 5095   8.032   6.822   1.728
 1718TIP3    H2 5096   7.928   6.834   1.837
 1719TIP3   OH2 5097   7.083   4.834   4.875
 1719TIP3    H1 5098   7.011   4.897   4.873
 1719TIP3    H2 5099   7.041   4.749   4.876
 1720TIP3   OH2 5100   3.058   5.392   4.121
 1720TIP3    H1 5101   3.043   5.383   4.215
 1720TIP3    H2 5102   3.101   5.310   4.096
 1721TIP3   OH2 5103   4.975   6.824   0.990
 1721TIP3    H1 5104   4.956   6.899   0.933
 1721TIP3    H2 5105   5.048   6.780   0.947
 1722TIP3   OH2 5106   5.946   4.900   2.791
 1722TIP3    H1 5107   5.898   4.830   2.747
 1722TIP3    H2 5108   5.880   4.969   2.805
 1723TIP3   OH2 5109   6.466   6.064   3.549
 1723TIP3    H1 5110   6.438   6.130   3.486
 1723TIP3    H2 5111   6.385   6.017   3.572
 1724TIP3   OH2 5112   6.050   0.664   4.760
 1724TIP3    H1 5113   5.991   0.643   4.832
 1724TIP3    H2 5114   6.106   0.733   4.794
 1725TIP3   OH2 5115   4.228   7.370   3.316
 1725TIP3    H1 5116   4.233   7.338   3.406
 1725TIP3    H2 5117   4.298   7.324   3.270
 1726TIP3   OH2 5118   1.966   0.976   2.451
 1726TIP3    H1 5119   1.885   1.019   2.480
 1726TIP3    H2 5120   2.031   1.046   2.450
 1727TIP3   OH2 5121   5.493   5.142   4.015
 1727TIP3    H1 5122   5.587   5.123   4.012
 1727TIP3    H2 5123   5.475   5.161   4.107
 1728TIP3   OH2 5124   7.806   2.866   4.059
 1728TIP3    H1 5125   7.898   2.862   4.086
 1728TIP3    H2 5126   7.763   2.916   4.128
 1729TIP3   OH2 5127   2.545   4.090   1.679
 1729TIP3    H1 5128   2.450   4.092   1.670
 1729TIP3    H2 5129   2.563   4.020   1.742
 1730TIP3   OH2 5130   2.191   2.248   4.320
 1730TIP3    H1 5131   2.155   2.291   4.243
 1730TIP3    H2 5132   2.174   2.155   4.307
 1731TIP3   OH2 5133   7.044   3.798   5.790
 1731TIP3    H1 5134   7.077   3.810   5.701
 1731TIP3    H2 5135   7.061   3.705   5.809
 1732TIP3   OH2 5136   0.739   6.467   3.170
 1732TIP3    H1 5137   0.697   6.434   3.091
 1732TIP3    H2 5138   0.831   6.482   3.145
 1733TIP3   OH2 5139   3.898   7.195   4.005
 1733TIP3    H1 5140   3.862   7.199   4.094
 1733TIP3    H2 5141   3.836   7.140   3.957
 1734TIP3   OH2 5142   1.019   6.194   5.246
 1734TIP3    H1 5143   1.098   6.140   5.248
 1734TIP3    H2 5144   1.051   6.283   5.232
 1735TIP3   OH2 5145   3.559   6.442   5.597
 1735TIP3    H1 5146   3.522   6.521   5.637
 1735TIP3    H2 5147   3.559   6.460   5.503
 1736TIP3   OH2 5148   1.198   4.624   0.422
 1736TIP3    H1 5149   1.153   4.653   0.343
 1736TIP3    H2 5150   1.199   4.529   0.414
 1737TIP3   OH2 5151   5.570   7.173   6.113
 1737TIP3    H1 5152   5.476   7.181   6.122
 1737TIP3    H2 5153   5.601   7.264   6.105
 1738TIP3   OH2 5154   4.175   2.443   0.030
 1738TIP3    H1 5155   4.201   2.374   0.092
 1738TIP3    H2 5156   4.083   2.426   0.013
 1739TIP3   OH2 5157   1.748   2.456   1.196
 1739TIP3    H1 5158   1.668   2.478   1.243
 1739TIP3    H2 5159   1.740   2.500   1.112
 1740TIP3   OH2 5160   3.752   6.193   2.397
 1740TIP3    H1 5161   3.835   6.159   2.428
 1740TIP3    H2 5162   3.751   6.284   2.425
 1741TIP3   OH2 5163   4.049   0.609   6.799
 1741TIP3    H1 5164   4.103   0.687   6.788
 1741TIP3    H2 5165   4.072   0.553   6.724
 1742TIP3   OH2 5166   1.256   4.710   6.640
 1742TIP3    H1 5167   1.348   4.699   6.615
 1742TIP3    H2 5168   1.211   4.636   6.599
 1743TIP3   OH2 5169   6.116   0.203   0.910
 1743TIP3    H1 5170   6.166   0.234   0.985
 1743TIP3    H2 5171   6.037   0.257   0.909
 1744TIP3   OH2 5172   4.712   3.195   6.700
 1744TIP3    H1 5173   4.633   3.142   6.690
 1744TIP3    H2 5174   4.689   3.280   6.663
 1745TIP3   OH2 5175   7.205   6.699   5.309
 1745TIP3    H1 5176   7.280   6.727   5.361
 1745TIP3    H2 5177   7.188   6.609   5.338
 1746TIP3   OH2 5178   2.182   3.885   0.744
 1746TIP3    H1 5179   2.181   3.790   0.742
 1746TIP3    H2 5180   2.208   3.907   0.833
 1747TIP3   OH2 5181   1.947   5.412   3.559
 1747TIP3    H1 5182   1.936   5.494   3.512
 1747TIP3    H2 5183   1.988   5.353   3.495
 1748TIP3   OH2 5184   1.272   5.645   2.012
 1748TIP3    H1 5185   1.222   5.620   1.934
 1748TIP3    H2 5186   1.225   5.604   2.085
 1749TIP3   OH2 5187   0.835   5.759   6.759
 1749TIP3    H1 5188   0.881   5.716   6.832
 1749TIP3    H2 5189   0.888   5.836   6.740
 1750TIP3   OH2 5190   4.759   5.385   3.601
 1750TIP3    H1 5191   4.687   5.420   3.550
 1750TIP3    H2 5192   4.837   5.406   3.550
 1751TIP3   OH2 5193   5.872   4.589   5.653
 1751TIP3    H1 5194   5.881   4.663   5.713
 1751TIP3    H2 5195   5.956   4.585   5.607
 1752TIP3   OH2 5196   5.346   6.647   3.557
 1752TIP3    H1 5197   5.378   6.566   3.517
 1752TIP3    H2 5198   5.257   6.627   3.584
 1753TIP3   OH2 5199   2.785   3.873   4.413
 1753TIP3    H1 5200   2.815   3.861   4.323
 1753TIP3    H2 5201   2.721   3.803   4.427
 1754TIP3   OH2 5202   1.240   4.569   3.897
 1754TIP3    H1 5203   1.147   4.585   3.877
 1754TIP3    H2 5204   1.284   4.650   3.872
 1755TIP3   OH2 5205   5.594   5.635   3.092
 1755TIP3    H1 5206   5.667   5.696   3.081
 1755TIP3    H2 5207   5.630   5.550   3.068
 1756TIP3   OH2 5208   5.286   6.735   1.221
 1756TIP3    H1 5209   5.324   6.822   1.233
 1756TIP3    H2 5210   5.361   6.680   1.200
 1757TIP3   OH2 5211   0.877   0.889   2.450
 1757TIP3    H1 5212   0.809   0.942   2.409
 1757TIP3    H2 5213   0.829   0.818   2.493
 1758TIP3   OH2 5214   5.634   6.199   2.894
 1758TIP3    H1 5215   5.619   6.294   2.890
 1758TIP3    H2 5216   5.711   6.185   2.839
 1759TIP3   OH2 5217   6.292   1.039   5.381
 1759TIP3    H1 5218   6.335   1.110   5.429
 1759TIP3    H2 5219   6.270   1.077   5.296
 1760TIP3   OH2 5220   2.876   2.259   4.139
 1760TIP3    H1 5221   2.943   2.248   4.206
 1760TIP3    H2 5222   2.794   2.238   4.184
 1761TIP3   OH2 5223   0.839   3.053   3.992
 1761TIP3    H1 5224   0.809   3.134   3.951
 1761TIP3    H2 5225   0.787   3.046   4.073
 1762TIP3   OH2 5226   6.273   6.113   5.713
 1762TIP3    H1 5227   6.298   6.065   5.793
 1762TIP3    H2 5228   6.187   6.079   5.691
 1763TIP3   OH2 5229   1.246   2.282   0.557
 1763TIP3    H1 5230   1.156   2.312   0.572
 1763TIP3    H2 5231   1.242   2.235   0.474
 1764TIP3   OH2 5232   7.669   4.954   3.232
 1764TIP3    H1 5233   7.661   4.991   3.144
 1764TIP3    H2 5234   7.763   4.936   3.241
 1765TIP3   OH2 5235   6.516   6.832   4.630
 1765TIP3    H1 5236   6.564   6.802   4.552
 1765TIP3    H2 5237   6.435   6.781   4.630
 1766TIP3   OH2 5238   0.283   3.779   0.504
 1766TIP3    H1 5239   0.236   3.778   0.588
 1766TIP3    H2 5240   0.372   3.807   0.527
 1767TIP3   OH2 5241   4.582   6.347   0.907
 1767TIP3    H1 5242   4.596   6.345   0.812
 1767TIP3    H2 5243   4.520   6.418   0.920
 1768TIP3   OH2 5244   6.375   4.502   5.111
 1768TIP3    H1 5245   6.286   4.466   5.109
 1768TIP3    H2 5246   6.431   4.427   5.132
 1769TIP3   OH2 5247   4.237   7.404   5.557
 1769TIP3    H1 5248   4.284   7.420   5.639
 1769TIP3    H2 5249   4.202   7.489   5.532
 1770TIP3   OH2 5250   4.102   7.764   6.256
 1770TIP3    H1 5251   4.098   7.848   6.211
 1770TIP3    H2 5252   4.188   7.729   6.235
 1771TIP3   OH2 5253   2.750   4.289   1.195
 1771TIP3    H1 5254   2.819   4.343   1.157
 1771TIP3    H2 5255   2.734   4.327   1.281
 1772TIP3   OH2 5256   1.313   1.693   6.061
 1772TIP3    H1 5257   1.240   1.723   6.007
 1772TIP3    H2 5258   1.380   1.760   6.052
 1773TIP3   OH2 5259   4.852   0.023   0.480
 1773TIP3    H1 5260   4.935   0.064   0.454
 1773TIP3    H2 5261   4.822  -0.021   0.400
 1774TIP3   OH2 5262   4.316   3.818   3.169
 1774TIP3    H1 5263   4.299   3.753   3.101
 1774TIP3    H2 5264   4.274   3.783   3.247
 1775TIP3   OH2 5265   0.480   7.659   1.909
 1775TIP3    H1 5266   0.555   7.600   1.907
 1775TIP3    H2 5267   0.471   7.683   2.001
 1776TIP3   OH2 5268   3.256   0.961   2.385
 1776TIP3    H1 5269   3.214   1.039   2.420
 1776TIP3    H2 5270   3.203   0.937   2.309
 1777TIP3   OH2 5271   2.652   0.767   5.515
 1777TIP3    H1 5272   2.572   0.748   5.564
 1777TIP3    H2 5273   2.622   0.799   5.430
 1778TIP3   OH2 5274   0.654   4.462   5.385
 1778TIP3    H1 5275   0.698   4.547   5.383
 1778TIP3    H2 5276   0.706   4.409   5.446
 1779TIP3   OH2 5277   2.214   6.786   2.316
 1779TIP3    H1 5278   2.296   6.761   2.273
 1779TIP3    H2 5279   2.201   6.719   2.383
 1780TIP3   OH2 5280   4.218   3.476   2.350
 1780TIP3    H1 5281   4.127   3.504   2.341
 1780TIP3    H2 5282   4.223   3.393   2.303
 1781TIP3   OH2 5283   5.855   0.632   4.503
 1781TIP3    H1 5284   5.919   0.650   4.571
 1781TIP3    H2 5285   5.773   0.667   4.537
 1782TIP3   OH2 5286   4.933   0.435   2.490
 1782TIP3    H1 5287   4.995   0.444   2.561
 1782TIP3    H2 5288   4.852   0.475   2.522
 1783TIP3   OH2 5289   7.676   5.215   1.450
 1783TIP3    H1 5290   7.743   5.148   1.435
 1783TIP3    H2 5291   7.701   5.258   1.532
 1784TIP3   OH2 5292   2.319   6.693   2.635
 1784TIP3    H1 5293   2.346   6.779   2.669
 1784TIP3    H2 5294   2.224   6.700   2.626
 1785TIP3   OH2 5295   7.898   2.847   3.000
 1785TIP3    H1 5296   7.942   2.768   3.033
 1785TIP3    H2 5297   7.965   2.915   3.005
 1786TIP3   OH2 5298   2.834   0.860   4.015
 1786TIP3    H1 5299   2.904   0.924   4.001
 1786TIP3    H2 5300   2.845   0.796   3.944
 1787TIP3   OH2 5301   0.093   0.584   2.777
 1787TIP3    H1 5302   0.031   0.657   2.785
 1787TIP3    H2 5303   0.176   0.619   2.808
 1788TIP3   OH2 5304   3.952   6.028   6.425
 1788TIP3    H1 5305   3.876   6.074   6.459
 1788TIP3    H2 5306   4.022   6.093   6.425
 1789TIP3   OH2 5307   7.299   2.928   6.509
 1789TIP3    H1 5308   7.211   2.919   6.545
 1789TIP3    H2 5309   7.351   2.961   6.582
 1790TIP3   OH2 5310   0.934   5.781   2.917
 1790TIP3    H1 5311   0.933   5.850   2.850
 1790TIP3    H2 5312   0.907   5.702   2.870
 1791TIP3   OH2 5313   1.627   1.999   1.294
 1791TIP3    H1 5314   1.602   1.917   1.336
 1791TIP3    H2 5315   1.544   2.039   1.267
 1792TIP3   OH2 5316   2.965   0.101   4.020
 1792TIP3    H1 5317   2.910   0.055   4.083
 1792TIP3    H2 5318   2.986   0.184   4.062
 1793TIP3   OH2 5319   5.756   3.895   5.851
 1793TIP3    H1 5320   5.773   3.952   5.776
 1793TIP3    H2 5321   5.758   3.806   5.814
 1794TIP3   OH2 5322   2.537   4.175   0.121
 1794TIP3    H1 5323   2.457   4.129   0.098
 1794TIP3    H2 5324   2.518   4.216   0.206
 1795TIP3   OH2 5325   4.328   6.570   6.389
 1795TIP3    H1 5326   4.370   6.546   6.471
 1795TIP3    H2 5327   4.372   6.517   6.323
 1796TIP3   OH2 5328   3.669   0.307   0.788
 1796TIP3    H1 5329   3.583   0.341   0.764
 1796TIP3    H2 5330   3.659   0.280   0.879
 1797TIP3   OH2 5331   6.358   6.505   6.500
 1797TIP3    H1 5332   6.416   6.577   6.521
 1797TIP3    H2 5333   6.405   6.454   6.434
 1798TIP3   OH2 5334   2.915   2.491   1.049
 1798TIP3    H1 5335   2.829   2.453   1.067
 1798TIP3    H2 5336   2.928   2.479   0.955
 1799TIP3   OH2 5337   3.990   1.893   1.568
 1799TIP3    H1 5338   4.036   1.940   1.499
 1799TIP3    H2 5339   4.059   1.852   1.620
 1800TIP3   OH2 5340   5.511   5.630   3.363
 1800TIP3    H1 5341   5.506   5.645   3.268
 1800TIP3    H2 5342   5.426   5.659   3.396
 1801TIP3   OH2 5343   0.085   1.934   6.447
 1801TIP3    H1 5344   0.160   1.903   6.396
 1801TIP3    H2 5345   0.073   2.025   6.421
 1802TIP3   OH2 5346   5.518   3.102   0.422
 1802TIP3    H1 5347   5.610   3.083   0.406
 1802TIP3    H2 5348   5.473   3.019   0.411
 1803TIP3   OH2 5349   0.951   7.895   1.435
 1803TIP3    H1 5350   0.899   7.891   1.354
 1803TIP3    H2 5351   1.039   7.867   1.409
 1804TIP3   OH2 5352   7.882   5.896   0.342
 1804TIP3    H1 5353   7.974   5.915   0.324
 1804TIP3    H2 5354   7.861   5.951   0.417
 1805TIP3   OH2 5355   4.109   4.927   4.206
 1805TIP3    H1 5356   4.061   4.945   4.286
 1805TIP3    H2 5357   4.067   4.850   4.169
 1806TIP3   OH2 5358   3.223   5.526   4.711
 1806TIP3    H1 5359   3.262   5.441   4.733
 1806TIP3    H2 5360   3.129   5.513   4.725
 1807TIP3   OH2 5361   8.245   1.555   1.490
 1807TIP3    H1 5362   8.200   1.479   1.452
 1807TIP3    H2 5363   8.257   1.616   1.418
 1808TIP3   OH2 5364   0.909   4.441   5.555
 1808TIP3    H1 5365   0.976   4.447   5.623
 1808TIP3    H2 5366   0.872   4.354   5.565
 1809TIP3   OH2 5367   6.515   5.188   3.615
 1809TIP3    H1 5368   6.469   5.121   3.665
 1809TIP3    H2 5369   6.607   5.162   3.617
 1810TIP3   OH2 5370   1.323   3.536   0.831
 1810TIP3    H1 5371   1.279   3.496   0.906
 1810TIP3    H2 5372   1.413   3.552   0.862
 1811TIP3   OH2 5373   6.206   4.142   2.375
 1811TIP3    H1 5374   6.184   4.229   2.340
 1811TIP3    H2 5375   6.141   4.127   2.443
 1812TIP3   OH2 5376   3.065   5.767   6.111
 1812TIP3    H1 5377   3.128   5.707   6.152
 1812TIP3    H2 5378   3.087   5.765   6.018
 1813TIP3   OH2 5379   1.204   0.408   0.518
 1813TIP3    H1 5380   1.203   0.318   0.487
 1813TIP3    H2 5381   1.160   0.405   0.603
 1814TIP3   OH2 5382   5.473   0.342   1.872
 1814TIP3    H1 5383   5.562   0.375   1.856
 1814TIP3    H2 5384   5.467   0.335   1.967
 1815TIP3   OH2 5385   5.991   2.060   5.979
 1815TIP3    H1 5386   6.059   2.101   5.927
 1815TIP3    H2 5387   5.954   1.993   5.921
 1816TIP3   OH2 5388   0.550   2.485   0.121
 1816TIP3    H1 5389   0.641   2.463   0.102
 1816TIP3    H2 5390   0.499   2.431   0.061
 1817TIP3   OH2 5391   6.695   0.693   0.044
 1817TIP3    H1 5392   6.768   0.743   0.007
 1817TIP3    H2 5393   6.723   0.602   0.035
 1818TIP3   OH2 5394   7.349   2.089   6.381
 1818TIP3    H1 5395   7.366   2.070   6.473
 1818TIP3    H2 5396   7.256   2.111   6.377
 1819TIP3   OH2 5397   5.060   6.670   1.490
 1819TIP3    H1 5398   5.051   6.750   1.437
 1819TIP3    H2 5399   5.080   6.702   1.578
 1820TIP3   OH2 5400   7.580   5.476   3.913
 1820TIP3    H1 5401   7.666   5.449   3.881
 1820TIP3    H2 5402   7.556   5.551   3.858
 1821TIP3   OH2 5403   1.262   6.156   3.814
 1821TIP3    H1 5404   1.196   6.165   3.746
 1821TIP3    H2 5405   1.307   6.240   3.816
 1822TIP3   OH2 5406   4.587   2.332   6.762
 1822TIP3    H1 5407   4.657   2.284   6.717
 1822TIP3    H2 5408   4.621   2.421   6.772
 1823TIP3   OH2 5409   0.459   6.253   1.468
 1823TIP3    H1 5410   0.498   6.166   1.468
 1823TIP3    H2 5411   0.374   6.241   1.426
 1824TIP3   OH2 5412   2.619   7.418   4.814
 1824TIP3    H1 5413   2.684   7.390   4.750
 1824TIP3    H2 5414   2.646   7.376   4.896
 1825TIP3   OH2 5415   6.527   7.129   3.518
 1825TIP3    H1 5416   6.537   7.043   3.476
 1825TIP3    H2 5417   6.437   7.155   3.497
 1826TIP3   OH2 5418   2.602   2.436   4.133
 1826TIP3    H1 5419   2.620   2.529   4.120
 1826TIP3    H2 5420   2.583   2.403   4.045
 1827TIP3   OH2 5421   7.651   4.605   4.162
 1827TIP3    H1 5422   7.668   4.513   4.184
 1827TIP3    H2 5423   7.714   4.655   4.213
 1828TIP3   OH2 5424   2.391   1.483   0.738
 1828TIP3    H1 5425   2.367   1.409   0.793
 1828TIP3    H2 5426   2.446   1.538   0.794
 1829TIP3   OH2 5427   0.735   6.210   4.893
 1829TIP3    H1 5428   0.733   6.279   4.959
 1829TIP3    H2 5429   0.807   6.234   4.835
 1830TIP3   OH2 5430   1.401   5.772   0.828
 1830TIP3    H1 5431   1.453   5.843   0.790
 1830TIP3    H2 5432   1.465   5.706   0.854
 1831TIP3   OH2 5433   2.936   5.018   0.239
 1831TIP3    H1 5434   2.928   5.077   0.313
 1831TIP3    H2 5435   2.851   4.973   0.235
 1832TIP3   OH2 5436   1.139   0.390   3.888
 1832TIP3    H1 5437   1.209   0.356   3.832
 1832TIP3    H2 5438   1.119   0.317   3.947
 1833TIP3   OH2 5439   6.965   2.413   2.834
 1833TIP3    H1 5440   6.918   2.470   2.894
 1833TIP3    H2 5441   6.949   2.325   2.868
 1834TIP3   OH2 5442   3.106   5.678   5.206
 1834TIP3    H1 5443   3.074   5.643   5.123
 1834TIP3    H2 5444   3.201   5.675   5.198
 1835TIP3   OH2 5445   2.871   0.166   4.706
 1835TIP3    H1 5446   2.942   0.151   4.768
 1835TIP3    H2 5447   2.821   0.084   4.705
 1836TIP3   OH2 5448   1.739   7.415   1.409
 1836TIP3    H1 5449   1.695   7.332   1.426
 1836TIP3    H2 5450   1.832   7.398   1.425
 1837TIP3   OH2 5451   3.874   3.814   2.591
 1837TIP3    H1 5452   3.886   3.762   2.512
 1837TIP3    H2 5453   3.960   3.853   2.608
 1838TIP3   OH2 5454   4.998   5.112   4.824
 1838TIP3    H1 5455   5.092   5.113   4.840
 1838TIP3    H2 5456   4.967   5.031   4.864
 1839TIP3   OH2 5457   4.933   4.255   6.356
 1839TIP3    H1 5458   4.840   4.269   6.374
 1839TIP3    H2 5459   4.978   4.283   6.436
 1840TIP3   OH2 5460   0.860   5.812   0.472
 1840TIP3    H1 5461   0.952   5.837   0.464
 1840TIP3    H2 5462   0.846   5.751   0.400
 1841TIP3   OH2 5463   6.770   4.092   6.100
 1841TIP3    H1 5464   6.701   4.114   6.039
 1841TIP3    H2 5465   6.801   4.006   6.071
 1842TIP3   OH2 5466   3.390   1.329   1.229
 1842TIP3    H1 5467   3.482   1.329   1.253
 1842TIP3    H2 5468   3.354   1.252   1.271
 1843TIP3   OH2 5469   0.902   7.085   3.705
 1843TIP3    H1 5470   0.941   7.044   3.627
 1843TIP3    H2 5471   0.820   7.036   3.718
 1844TIP3   OH2 5472   5.598   1.958   0.143
 1844TIP3    H1 5473   5.594   1.911   0.060
 1844TIP3    H2 5474   5.668   1.915   0.192
 1845TIP3   OH2 5475   2.446   4.352   1.565
 1845TIP3    H1 5476   2.539   4.333   1.578
 1845TIP3    H2 5477   2.411   4.361   1.654
 1846TIP3   OH2 5478   7.477   1.565   2.160
 1846TIP3    H1 5479   7.557   1.513   2.159
 1846TIP3    H2 5480   7.457   1.576   2.253
 1847TIP3   OH2 5481   1.375   5.557   4.344
 1847TIP3    H1 5482   1.319   5.588   4.415
 1847TIP3    H2 5483   1.330   5.480   4.309
 1848TIP3   OH2 5484   3.276   1.211   3.591
 1848TIP3    H1 5485   3.295   1.203   3.497
 1848TIP3    H2 5486   3.279   1.305   3.608
 1849TIP3   OH2 5487   8.149   4.050   2.060
 1849TIP3    H1 5488   8.220   4.033   2.121
 1849TIP3    H2 5489   8.109   3.964   2.045
 1850TIP3   OH2 5490   6.397   2.034   1.940
 1850TIP3    H1 5491   6.455   1.973   1.986
 1850TIP3    H2 5492   6.313   1.988   1.934
 1851TIP3   OH2 5493   2.437   5.340   4.363
 1851TIP3    H1 5494   2.428   5.435   4.371
 1851TIP3    H2 5495   2.525   5.327   4.329
 1852TIP3   OH2 5496   4.743   2.531   6.804
 1852TIP3    H1 5497   4.741   2.623   6.830
 1852TIP3    H2 5498   4.816   2.494   6.854
 1853TIP3   OH2 5499   4.635   4.747   2.422
 1853TIP3    H1 5500   4.720   4.760   2.464
 1853TIP3    H2 5501   4.584   4.824   2.446
 1854TIP3   OH2 5502   2.692   5.907   5.722
 1854TIP3    H1 5503   2.651   5.842   5.779
 1854TIP3    H2 5504   2.619   5.951   5.678
 1855TIP3   OH2 5505   4.324   2.567   5.620
 1855TIP3    H1 5506   4.338   2.489   5.565
 1855TIP3    H2 5507   4.263   2.538   5.687
 1856TIP3   OH2 5508   3.583   2.316   0.582
 1856TIP3    H1 5509   3.521   2.387   0.566
 1856TIP3    H2 5510   3.544   2.264   0.652
 1857TIP3   OH2 5511   6.437   5.773   4.466
 1857TIP3    H1 5512   6.519   5.778   4.516
 1857TIP3    H2 5513   6.402   5.687   4.487
 1858TIP3   OH2 5514   7.694   6.457   2.567
 1858TIP3    H1 5515   7.741   6.482   2.488
 1858TIP3    H2 5516   7.702   6.362   2.571
 1859TIP3   OH2 5517   5.103   4.691   4.479
 1859TIP3    H1 5518   5.177   4.703   4.420
 1859TIP3    H2 5519   5.135   4.721   4.564
 1860TIP3   OH2 5520   7.373   3.577   3.439
 1860TIP3    H1 5521   7.319   3.504   3.409
 1860TIP3    H2 5522   7.440   3.588   3.371
 1861TIP3   OH2 5523   2.978   1.014   2.277
 1861TIP3    H1 5524   2.945   0.925   2.289
 1861TIP3    H2 5525   2.969   1.054   2.363
 1862TIP3   OH2 5526   2.115   4.930   4.955
 1862TIP3    H1 5527   2.111   5.016   4.911
 1862TIP3    H2 5528   2.033   4.924   5.003
 1863TIP3   OH2 5529   3.270   7.211   6.323
 1863TIP3    H1 5530   3.224   7.233   6.404
 1863TIP3    H2 5531   3.337   7.148   6.350
 1864TIP3   OH2 5532   8.113   1.339   1.336
 1864TIP3    H1 5533   8.116   1.377   1.248
 1864TIP3    H2 5534   8.025   1.356   1.367
 1865TIP3   OH2 5535   2.942   4.952   1.978
 1865TIP3    H1 5536   2.904   5.040   1.984
 1865TIP3    H2 5537   2.875   4.900   1.932
 1866TIP3   OH2 5538   4.249   5.154   0.686
 1866TIP3    H1 5539   4.249   5.235   0.634
 1866TIP3    H2 5540   4.286   5.181   0.771
 1867TIP3   OH2 5541   0.559   3.757   0.080
 1867TIP3    H1 5542   0.566   3.851   0.098
 1867TIP3    H2 5543   0.520   3.752  -0.008
 1868TIP3   OH2 5544   3.620   7.141   5.892
 1868TIP3    H1 5545   3.631   7.148   5.987
 1868TIP3    H2 5546   3.541   7.088   5.881
 1869TIP3   OH2 5547   2.858   7.163   4.854
 1869TIP3    H1 5548   2.791   7.111   4.900
 1869TIP3    H2 5549   2.907   7.207   4.924
 1870TIP3   OH2 5550   8.204   7.872   6.627
 1870TIP3    H1 5551   8.173   7.947   6.576
 1870TIP3    H2 5552   8.231   7.807   6.562
 1871TIP3   OH2 5553   2.397   0.992  -0.020
 1871TIP3    H1 5554   2.437   1.037   0.055
 1871TIP3    H2 5555   2.387   0.901   0.009
 1872TIP3   OH2 5556   8.309   1.997   3.592
 1872TIP3    H1 5557   8.217   1.971   3.599
 1872TIP3    H2 5558   8.311   2.057   3.517
 1873TIP3   OH2 5559   2.316   2.671   0.756
 1873TIP3    H1 5560   2.309   2.708   0.844
 1873TIP3    H2 5561   2.270   2.587   0.761
 1874TIP3   OH2 5562   4.395   1.486   2.895
 1874TIP3    H1 5563   4.346   1.507   2.815
 1874TIP3    H2 5564   4.456   1.559   2.906
 1875TIP3   OH2 5565   4.201   3.941   5.046
 1875TIP3    H1 5566   4.257   3.868   5.074
 1875TIP3    H2 5567   4.118   3.926   5.091
 1876TIP3   OH2 5568   4.616   4.890   1.608
 1876TIP3    H1 5569   4.700   4.875   1.565
 1876TIP3    H2 5570   4.629   4.862   1.698
 1877TIP3   OH2 5571   6.500   4.423   6.050
 1877TIP3    H1 5572   6.422   4.391   6.095
 1877TIP3    H2 5573   6.465   4.465   5.971
 1878TIP3   OH2 5574   8.029   1.506   4.940
 1878TIP3    H1 5575   7.988   1.552   5.013
 1878TIP3    H2 5576   8.003   1.555   4.863
 1879TIP3   OH2 5577   8.093   2.719   2.298
 1879TIP3    H1 5578   8.158   2.763   2.243
 1879TIP3    H2 5579   8.127   2.730   2.387
 1880TIP3   OH2 5580   2.126   1.867   0.892
 1880TIP3    H1 5581   2.155   1.783   0.927
 1880TIP3    H2 5582   2.052   1.892   0.948
 1881TIP3   OH2 5583   1.790   5.691   5.470
 1881TIP3    H1 5584   1.728   5.761   5.450
 1881TIP3    H2 5585   1.744   5.611   5.448
 1882TIP3   OH2 5586   2.631   1.756   2.079
 1882TIP3    H1 5587   2.609   1.771   1.987
 1882TIP3    H2 5588   2.621   1.662   2.091
 1883TIP3   OH2 5589   4.054   4.196   2.333
 1883TIP3    H1 5590   4.047   4.221   2.241
 1883TIP3    H2 5591   4.024   4.105   2.335
 1884TIP3   OH2 5592   3.896   7.013   0.618
 1884TIP3    H1 5593   3.984   7.006   0.579
 1884TIP3    H2 5594   3.912   7.031   0.710
 1885TIP3   OH2 5595   7.884   1.048   2.930
 1885TIP3    H1 5596   7.831   1.067   3.008
 1885TIP3    H2 5597   7.866   1.121   2.871
 1886TIP3   OH2 5598   0.062   5.205   3.573
 1886TIP3    H1 5599   0.152   5.184   3.595
 1886TIP3    H2 5600   0.068   5.274   3.507
 1887TIP3   OH2 5601   3.815   7.094   4.715
 1887TIP3    H1 5602   3.799   7.185   4.739
 1887TIP3    H2 5603   3.731   7.051   4.728
 1888TIP3   OH2 5604   2.101   3.480   3.977
 1888TIP3    H1 5605   2.024   3.492   3.922
 1888TIP3    H2 5606   2.158   3.422   3.927
 1889TIP3   OH2 5607   8.242   3.541   6.672
 1889TIP3    H1 5608   8.187   3.585   6.737
 1889TIP3    H2 5609   8.252   3.452   6.706
 1890TIP3   OH2 5610   1.164   2.055   6.299
 1890TIP3    H1 5611   1.226   2.095   6.238
 1890TIP3    H2 5612   1.211   2.049   6.382
 1891TIP3   OH2 5613   4.195   3.910   0.610
 1891TIP3    H1 5614   4.228   3.822   0.628
 1891TIP3    H2 5615   4.268   3.955   0.570
 1892TIP3   OH2 5616   4.543   4.097   1.295
 1892TIP3    H1 5617   4.530   4.089   1.389
 1892TIP3    H2 5618   4.558   4.191   1.281
 1893TIP3   OH2 5619   7.642   6.691   5.840
 1893TIP3    H1 5620   7.587   6.734   5.905
 1893TIP3    H2 5621   7.725   6.678   5.884
 1894TIP3   OH2 5622   1.358   1.298   3.283
 1894TIP3    H1 5623   1.367   1.394   3.288
 1894TIP3    H2 5624   1.278   1.285   3.232
 1895TIP3   OH2 5625   5.444   0.436   5.113
 1895TIP3    H1 5626   5.466   0.494   5.040
 1895TIP3    H2 5627   5.502   0.361   5.103
 1896TIP3   OH2 5628   1.059   4.378   3.659
 1896TIP3    H1 5629   1.030   4.448   3.718
 1896TIP3    H2 5630   1.007   4.391   3.579
 1897TIP3   OH2 5631   7.387   0.580   1.952
 1897TIP3    H1 5632   7.477   0.549   1.938
 1897TIP3    H2 5633   7.332   0.504   1.933
 1898TIP3   OH2 5634   3.164   1.910   4.130
 1898TIP3    H1 5635   3.080   1.915   4.175
 1898TIP3    H2 5636   3.173   1.995   4.086
 1899TIP3   OH2 5637   6.473   1.426   4.911
 1899TIP3    H1 5638   6.433   1.513   4.916
 1899TIP3    H2 5639   6.434   1.378   4.984
 1900TIP3   OH2 5640   0.066   1.967   1.112
 1900TIP3    H1 5641   0.101   1.878   1.117
 1900TIP3    H2 5642   0.064   1.997   1.203
 1901TIP3   OH2 5643   5.479   2.535   1.926
 1901TIP3    H1 5644   5.491   2.630   1.931
 1901TIP3    H2 5645   5.385   2.522   1.942
 1902TIP3   OH2 5646   1.322   7.135   5.424
 1902TIP3    H1 5647   1.362   7.049   5.413
 1902TIP3    H2 5648   1.324   7.151   5.518
 1903TIP3   OH2 5649   0.586   0.148   3.240
 1903TIP3    H1 5650   0.567   0.198   3.319
 1903TIP3    H2 5651   0.508   0.160   3.185
 1904TIP3   OH2 5652   7.011   3.414   3.394
 1904TIP3    H1 5653   7.042   3.499   3.362
 1904TIP3    H2 5654   7.062   3.400   3.474
 1905TIP3   OH2 5655   3.065   3.587   0.782
 1905TIP3    H1 5656   3.065   3.587   0.686
 1905TIP3    H2 5657   3.044   3.677   0.806
 1906TIP3   OH2 5658   4.653   7.821   3.739
 1906TIP3    H1 5659   4.603   7.753   3.692
 1906TIP3    H2 5660   4.643   7.899   3.685
 1907TIP3   OH2 5661   6.165   3.704   1.903
 1907TIP3    H1 5662   6.091   3.751   1.865
 1907TIP3    H2 5663   6.139   3.612   1.902
 1908TIP3   OH2 5664   0.407   3.437   2.990
 1908TIP3    H1 5665   0.409   3.495   2.914
 1908TIP3    H2 5666   0.496   3.441   3.026
 1909TIP3   OH2 5667   4.545   2.947   3.499
 1909TIP3    H1 5668   4.597   3.027   3.511
 1909TIP3    H2 5669   4.577   2.887   3.566
 1910TIP3   OH2 5670   6.889   5.702   4.264
 1910TIP3    H1 5671   6.911   5.793   4.242
 1910TIP3    H2 5672   6.927   5.650   4.193
 1911TIP3   OH2 5673   4.607   0.679   6.542
 1911TIP3    H1 5674   4.698   0.649   6.547
 1911TIP3    H2 5675   4.609   0.768   6.578
 1912TIP3   OH2 5676   6.594   7.788   6.337
 1912TIP3    H1 5677   6.624   7.705   6.300
 1912TIP3    H2 5678   6.615   7.853   6.270
 1913TIP3   OH2 5679   4.450   5.453   6.151
 1913TIP3    H1 5680   4.419   5.516   6.216
 1913TIP3    H2 5681   4.377   5.392   6.140
 1914TIP3   OH2 5682   6.272   2.659   3.902
 1914TIP3    H1 5683   6.179   2.680   3.914
 1914TIP3    H2 5684   6.317   2.713   3.967
 1915TIP3   OH2 5685   3.784   4.119   4.779
 1915TIP3    H1 5686   3.869   4.076   4.778
 1915TIP3    H2 5687   3.727   4.058   4.827
 1916TIP3   OH2 5688   0.535   5.391   0.427
 1916TIP3    H1 5689   0.598   5.443   0.377
 1916TIP3    H2 5690   0.484   5.344   0.361
 1917TIP3   OH2 5691   3.474   1.848   2.783
 1917TIP3    H1 5692   3.441   1.921   2.731
 1917TIP3    H2 5693   3.396   1.801   2.811
 1918TIP3   OH2 5694   7.558   7.214   3.823
 1918TIP3    H1 5695   7.572   7.284   3.887
 1918TIP3    H2 5696   7.635   7.218   3.766
 1919TIP3   OH2 5697   0.591   6.205   2.157
 1919TIP3    H1 5698   0.582   6.281   2.100
 1919TIP3    H2 5699   0.537   6.138   2.115
 1920TIP3   OH2 5700   1.281   5.719   2.632
 1920TIP3    H1 5701   1.279   5.808   2.596
 1920TIP3    H2 5702   1.242   5.728   2.719
 1921TIP3   OH2 5703   2.289   7.641   2.324
 1921TIP3    H1 5704   2.262   7.720   2.369
 1921TIP3    H2 5705   2.208   7.606   2.285
 1922TIP3   OH2 5706   2.478   3.843   5.428
 1922TIP3    H1 5707   2.413   3.858   5.496
 1922TIP3    H2 5708   2.435   3.873   5.347
 1923TIP3   OH2 5709   4.635   5.042   5.041
 1923TIP3    H1 5710   4.552   4.993   5.039
 1923TIP3    H2 5711   4.620   5.117   4.983
 1924TIP3   OH2 5712   8.134   3.732   4.199
 1924TIP3    H1 5713   8.071   3.728   4.127
 1924TIP3    H2 5714   8.140   3.642   4.231
 1925TIP3   OH2 5715   6.739   5.902   6.560
 1925TIP3    H1 5716   6.658   5.866   6.595
 1925TIP3    H2 5717   6.750   5.858   6.476
 1926TIP3   OH2 5718   1.680   7.897   0.350
 1926TIP3    H1 5719   1.719   7.977   0.316
 1926TIP3    H2 5720   1.704   7.829   0.286
 1927TIP3   OH2 5721   0.169   3.846   5.870
 1927TIP3    H1 5722   0.115   3.770   5.846
 1927TIP3    H2 5723   0.114   3.897   5.928
 1928TIP3   OH2 5724   4.983   0.304   4.418
 1928TIP3    H1 5725   5.016   0.381   4.464
 1928TIP3    H2 5726   5.026   0.307   4.332
 1929TIP3   OH2 5727   6.025   0.356   2.385
 1929TIP3    H1 5728   5.973   0.427   2.423
 1929TIP3    H2 5729   6.074   0.397   2.314
 1930TIP3   OH2 5730   3.763   2.568   0.542
 1930TIP3    H1 5731   3.779   2.497   0.604
 1930TIP3    H2 5732   3.824   2.551   0.470
 1931TIP3   OH2 5733   7.818   0.227   4.335
 1931TIP3    H1 5734   7.777   0.144   4.308
 1931TIP3    H2 5735   7.897   0.200   4.381
 1932TIP3   OH2 5736   2.141   5.941   3.279
 1932TIP3    H1 5737   2.099   5.966   3.197
 1932TIP3    H2 5738   2.214   5.885   3.252
 1933TIP3   OH2 5739   3.902   5.015   3.319
 1933TIP3    H1 5740   3.877   5.003   3.228
 1933TIP3    H2 5741   3.955   5.094   3.319
 1934TIP3   OH2 5742   6.026   4.100   3.212
 1934TIP3    H1 5743   5.930   4.104   3.212
 1934TIP3    H2 5744   6.053   4.177   3.262
 1935TIP3   OH2 5745   0.732   4.857   0.239
 1935TIP3    H1 5746   0.699   4.768   0.228
 1935TIP3    H2 5747   0.769   4.880   0.154
 1936TIP3   OH2 5748   7.287   1.072   1.502
 1936TIP3    H1 5749   7.373   1.071   1.461
 1936TIP3    H2 5750   7.301   1.038   1.590
 1937TIP3   OH2 5751   0.163   5.386   2.455
 1937TIP3    H1 5752   0.208   5.463   2.491
 1937TIP3    H2 5753   0.167   5.397   2.361
 1938TIP3   OH2 5754   5.695   2.848   3.296
 1938TIP3    H1 5755   5.640   2.770   3.296
 1938TIP3    H2 5756   5.782   2.815   3.318
 1939TIP3   OH2 5757   3.261   1.364   2.381
 1939TIP3    H1 5758   3.232   1.451   2.409
 1939TIP3    H2 5759   3.356   1.368   2.385
 1940TIP3   OH2 5760   0.418   5.838   0.597
 1940TIP3    H1 5761   0.388   5.907   0.655
 1940TIP3    H2 5762   0.433   5.882   0.513
 1941TIP3   OH2 5763   1.853   4.031   1.943
 1941TIP3    H1 5764   1.875   4.014   1.851
 1941TIP3    H2 5765   1.790   3.963   1.965
 1942TIP3   OH2 5766   1.950   1.862   3.754
 1942TIP3    H1 5767   2.023   1.859   3.692
 1942TIP3    H2 5768   1.903   1.780   3.740
 1943TIP3   OH2 5769   8.290   1.533   2.380
 1943TIP3    H1 5770   8.328   1.621   2.384
 1943TIP3    H2 5771   8.351   1.484   2.325
 1944TIP3   OH2 5772   7.647   4.120   6.076
 1944TIP3    H1 5773   7.704   4.114   6.153
 1944TIP3    H2 5774   7.706   4.139   6.004
 1945TIP3   OH2 5775   0.516   6.300   1.054
 1945TIP3    H1 5776   0.603   6.321   1.021
 1945TIP3    H2 5777   0.526   6.213   1.094
 1946TIP3   OH2 5778   5.615   3.557   1.466
 1946TIP3    H1 5779   5.540   3.557   1.407
 1946TIP3    H2 5780   5.681   3.610   1.422
 1947TIP3   OH2 5781   0.154   5.963   2.422
 1947TIP3    H1 5782   0.104   6.038   2.389
 1947TIP3    H2 5783   0.101   5.931   2.495
 1948TIP3   OH2 5784   7.000   2.375   3.220
 1948TIP3    H1 5785   6.966   2.454   3.178
 1948TIP3    H2 5786   7.095   2.385   3.216
 1949TIP3   OH2 5787   3.712   2.380   6.640
 1949TIP3    H1 5788   3.705   2.285   6.634
 1949TIP3    H2 5789   3.641   2.405   6.699
 1950TIP3   OH2 5790   0.227   6.237   5.426
 1950TIP3    H1 5791   0.242   6.244   5.520
 1950TIP3    H2 5792   0.147   6.185   5.418
 1951TIP3   OH2 5793   1.911   4.844   1.306
 1951TIP3    H1 5794   1.945   4.926   1.342
 1951TIP3    H2 5795   1.945   4.776   1.364
 1952TIP3   OH2 5796   5.922   4.380   1.725
 1952TIP3    H1 5797   5.873   4.454   1.759
 1952TIP3    H2 5798   5.883   4.362   1.639
 1953TIP3   OH2 5799   5.612   7.139   0.563
 1953TIP3    H1 5800   5.649   7.051   0.570
 1953TIP3    H2 5801   5.517   7.126   0.570
 1954TIP3   OH2 5802   6.927   5.445   3.515
 1954TIP3    H1 5803   6.956   5.408   3.598
 1954TIP3    H2 5804   6.921   5.539   3.532
 1955TIP3   OH2 5805   4.451   5.867   1.066
 1955TIP3    H1 5806   4.505   5.794   1.036
 1955TIP3    H2 5807   4.513   5.939   1.077
 1956TIP3   OH2 5808   4.006   1.362   0.938
 1956TIP3    H1 5809   3.989   1.308   1.015
 1956TIP3    H2 5810   4.097   1.391   0.949
 1957TIP3   OH2 5811   4.684   0.937   6.476
 1957TIP3    H1 5812   4.761   0.994   6.481
 1957TIP3    H2 5813   4.710   0.869   6.413
 1958TIP3   OH2 5814   5.608   1.819   2.893
 1958TIP3    H1 5815   5.574   1.855   2.975
 1958TIP3    H2 5816   5.645   1.734   2.917
 1959TIP3   OH2 5817   3.167   0.167   1.348
 1959TIP3    H1 5818   3.249   0.168   1.398
 1959TIP3    H2 5819   3.100   0.191   1.411
 1960TIP3   OH2 5820   1.124   1.349   6.837
 1960TIP3    H1 5821   1.039   1.381   6.865
 1960TIP3    H2 5822   1.117   1.254   6.843
 1961TIP3   OH2 5823   0.284   1.274   3.378
 1961TIP3    H1 5824   0.277   1.330   3.301
 1961TIP3    H2 5825   0.374   1.241   3.376
 1962TIP3   OH2 5826   3.412   3.988   6.316
 1962TIP3    H1 5827   3.426   3.978   6.410
 1962TIP3    H2 5828   3.494   3.956   6.276
 1963TIP3   OH2 5829   0.653   7.840   1.335
 1963TIP3    H1 5830   0.709   7.762   1.334
 1963TIP3    H2 5831   0.678   7.889   1.256
 1964TIP3   OH2 5832   1.307   2.738   0.856
 1964TIP3    H1 5833   1.231   2.701   0.811
 1964TIP3    H2 5834   1.382   2.692   0.819
 1965TIP3   OH2 5835   4.281   6.070   3.766
 1965TIP3    H1 5836   4.249   5.996   3.817
 1965TIP3    H2 5837   4.288   6.142   3.830
 1966TIP3   OH2 5838   0.071   0.626   6.638
 1966TIP3    H1 5839  -0.009   0.576   6.624
 1966TIP3    H2 5840   0.071   0.691   6.568
 1967TIP3   OH2 5841   6.249   1.763   2.513
 1967TIP3    H1 5842   6.261   1.835   2.451
 1967TIP3    H2 5843   6.298   1.791   2.590
 1968TIP3   OH2 5844   0.189   4.508   1.290
 1968TIP3    H1 5845   0.198   4.482   1.199
 1968TIP3    H2 5846   0.125   4.446   1.326
 1969TIP3   OH2 5847   6.592   4.625   5.757
 1969TIP3    H1 5848   6.601   4.571   5.679
 1969TIP3    H2 5849   6.502   4.611   5.787
 1970TIP3   OH2 5850   0.181   3.707   2.308
 1970TIP3    H1 5851   0.217   3.754   2.232
 1970TIP3    H2 5852   0.108   3.761   2.337
 1971TIP3   OH2 5853   6.242   3.969   6.353
 1971TIP3    H1 5854   6.150   3.972   6.326
 1971TIP3    H2 5855   6.247   3.894   6.412
 1972TIP3   OH2 5856   7.845   1.875   0.790
 1972TIP3    H1 5857   7.780   1.937   0.757
 1972TIP3    H2 5858   7.838   1.881   0.885
 1973TIP3   OH2 5859   7.026   6.882   1.083
 1973TIP3    H1 5860   6.946   6.870   1.032
 1973TIP3    H2 5861   7.086   6.926   1.022
 1974TIP3   OH2 5862   5.582   1.298   4.007
 1974TIP3    H1 5863   5.590   1.209   3.973
 1974TIP3    H2 5864   5.659   1.309   4.063
 1975TIP3   OH2 5865   1.747   1.805   1.095
 1975TIP3    H1 5866   1.771   1.716   1.122
 1975TIP3    H2 5867   1.749   1.856   1.176
 1976TIP3   OH2 5868   3.829   2.788   1.806
 1976TIP3    H1 5869   3.815   2.815   1.897
 1976TIP3    H2 5870   3.742   2.794   1.766
 1977TIP3   OH2 5871   1.901   4.570   4.661
 1977TIP3    H1 5872   1.909   4.565   4.757
 1977TIP3    H2 5873   1.983   4.532   4.629
 1978TIP3   OH2 5874   5.437   4.547   0.255
 1978TIP3    H1 5875   5.384   4.593   0.190
 1978TIP3    H2 5876   5.419   4.454   0.239
 1979TIP3   OH2 5877   1.700   6.738   2.296
 1979TIP3    H1 5878   1.760   6.683   2.346
 1979TIP3    H2 5879   1.614   6.699   2.309
 1980TIP3   OH2 5880   0.637   4.272   6.826
 1980TIP3    H1 5881   0.686   4.262   6.907
 1980TIP3    H2 5882   0.705   4.283   6.758
 1981TIP3   OH2 5883   7.031   5.900   4.712
 1981TIP3    H1 5884   7.079   5.867   4.637
 1981TIP3    H2 5885   6.985   5.977   4.679
 1982TIP3   OH2 5886   6.251   7.566   2.352
 1982TIP3    H1 5887   6.178   7.506   2.341
 1982TIP3    H2 5888   6.256   7.583   2.446
 1983TIP3   OH2 5889   2.070   3.823   2.270
 1983TIP3    H1 5890   2.049   3.778   2.189
 1983TIP3    H2 5891   2.105   3.755   2.328
 1984TIP3   OH2 5892   0.548   3.209   4.312
 1984TIP3    H1 5893   0.564   3.302   4.297
 1984TIP3    H2 5894   0.455   3.203   4.330
 1985TIP3   OH2 5895   3.558   0.147   2.489
 1985TIP3    H1 5896   3.475   0.100   2.499
 1985TIP3    H2 5897   3.612   0.116   2.561
 1986TIP3   OH2 5898   4.507   7.741   1.507
 1986TIP3    H1 5899   4.419   7.766   1.479
 1986TIP3    H2 5900   4.520   7.653   1.470
 1987TIP3   OH2 5901   2.581   0.567   0.426
 1987TIP3    H1 5902   2.490   0.552   0.399
 1987TIP3    H2 5903   2.583   0.660   0.449
 1988TIP3   OH2 5904   7.132   0.928   4.389
 1988TIP3    H1 5905   7.146   0.838   4.360
 1988TIP3    H2 5906   7.038   0.934   4.405
 1989TIP3   OH2 5907   1.854   4.909   3.320
 1989TIP3    H1 5908   1.854   4.963   3.241
 1989TIP3    H2 5909   1.850   4.819   3.288
 1990TIP3   OH2 5910   7.951   6.251   6.491
 1990TIP3    H1 5911   8.005   6.330   6.490
 1990TIP3    H2 5912   8.009   6.182   6.460
 1991TIP3   OH2 5913   0.556   3.665   0.731
 1991TIP3    H1 5914   0.490   3.607   0.693
 1991TIP3    H2 5915   0.550   3.650   0.825
 1992TIP3   OH2 5916   8.233   4.883   5.369
 1992TIP3    H1 5917   8.138   4.896   5.368
 1992TIP3    H2 5918   8.269   4.970   5.355
 1993TIP3   OH2 5919   8.120   2.163   3.931
 1993TIP3    H1 5920   8.125   2.068   3.933
 1993TIP3    H2 5921   8.107   2.189   4.022
 1994TIP3   OH2 5922   1.008   7.475   4.584
 1994TIP3    H1 5923   1.071   7.542   4.557
 1994TIP3    H2 5924   0.957   7.517   4.653
 1995TIP3   OH2 5925   1.964   0.371   2.426
 1995TIP3    H1 5926   1.955   0.307   2.355
 1995TIP3    H2 5927   2.055   0.398   2.422
 1996TIP3   OH2 5928   1.907   0.018   6.559
 1996TIP3    H1 5929   1.982  -0.017   6.511
 1996TIP3    H2 5930   1.945   0.059   6.637
 1997TIP3   OH2 5931   6.949   6.761   3.282
 1997TIP3    H1 5932   6.903   6.678   3.279
 1997TIP3    H2 5933   7.039   6.738   3.308
 1998TIP3   OH2 5934   4.682   1.459   6.206
 1998TIP3    H1 5935   4.732   1.536   6.178
 1998TIP3    H2 5936   4.679   1.466   6.301
 1999TIP3   OH2 5937   8.376   3.899   2.417
 1999TIP3    H1 5938   8.291   3.919   2.456
 1999TIP3    H2 5939   8.386   3.965   2.347
 2000TIP3   OH2 5940   4.393   3.287   0.860
 2000TIP3    H1 5941   4.353   3.200   0.858
 2000TIP3    H2 5942   4.452   3.289   0.784
 2001TIP3   OH2 5943   3.767   6.971   2.843
 2001TIP3    H1 5944   3.860   6.949   2.835
 2001TIP3    H2 5945   3.736   6.977   2.752
 2002TIP3   OH2 5946   8.089   7.690   2.738
 2002TIP3    H1 5947   8.027   7.760   2.759
 2002TIP3    H2 5948   8.122   7.712   2.651
 2003TIP3   OH2 5949   5.355   7.623   2.047
 2003TIP3    H1 5950   5.365   7.534   2.081
 2003TIP3    H2 5951   5.384   7.679   2.119
 2004TIP3   OH2 5952   7.105   2.534   5.931
 2004TIP3    H1 5953   7.156   2.530   5.850
 2004TIP3    H2 5954   7.129   2.455   5.979
 2005TIP3   OH2 5955   0.925   5.377   1.066
 2005TIP3    H1 5956   0.885   5.336   0.989
 2005TIP3    H2 5957   1.002   5.324   1.085
 2006TIP3   OH2 5958   1.844   1.563   3.384
 2006TIP3    H1 5959   1.760   1.522   3.364
 2006TIP3    H2 5960   1.828   1.657   3.376
 2007TIP3   OH2 5961   3.820   1.069   6.105
 2007TIP3    H1 5962   3.880   1.051   6.177
 2007TIP3    H2 5963   3.841   1.159   6.079
 2008TIP3   OH2 5964   1.318   7.577   0.269
 2008TIP3    H1 5965   1.407   7.559   0.299
 2008TIP3    H2 5966   1.269   7.597   0.348
 2009TIP3   OH2 5967   4.294   2.172   2.689
 2009TIP3    H1 5968   4.316   2.264   2.702
 2009TIP3    H2 5969   4.352   2.143   2.618
 2010TIP3   OH2 5970   2.427   1.805   3.386
 2010TIP3    H1 5971   2.356   1.836   3.328
 2010TIP3    H2 5972   2.505   1.851   3.354
 2011TIP3   OH2 5973   5.368   0.843   3.418
 2011TIP3    H1 5974   5.451   0.862   3.375
 2011TIP3    H2 5975   5.380   0.755   3.454
 2012TIP3   OH2 5976   1.182   3.277   6.636
 2012TIP3    H1 5977   1.225   3.363   6.646
 2012TIP3    H2 5978   1.109   3.294   6.577
 2013TIP3   OH2 5979   2.265   5.445   3.374
 2013TIP3    H1 5980   2.180   5.410   3.348
 2013TIP3    H2 5981   2.266   5.535   3.342
 2014TIP3   OH2 5982   1.994   7.162   5.642
 2014TIP3    H1 5983   2.028   7.078   5.671
 2014TIP3    H2 5984   2.062   7.226   5.664
 2015TIP3   OH2 5985   4.260   6.899   2.706
 2015TIP3    H1 5986   4.204   6.967   2.745
 2015TIP3    H2 5987   4.335   6.894   2.765
 2016TIP3   OH2 5988   4.972   7.777   6.784
 2016TIP3    H1 5989   4.942   7.688   6.766
 2016TIP3    H2 5990   4.895   7.823   6.815
 2017TIP3   OH2 5991   7.168   0.064   0.467
 2017TIP3    H1 5992   7.175   0.154   0.434
 2017TIP3    H2 5993   7.257   0.041   0.493
 2018TIP3   OH2 5994   6.359   6.342   6.844
 2018TIP3    H1 5995   6.430   6.358   6.782
 2018TIP3    H2 5996   6.370   6.411   6.910
 2019TIP3   OH2 5997   6.640   0.146   5.318
 2019TIP3    H1 5998   6.584   0.155   5.395
 2019TIP3    H2 5999   6.595   0.196   5.250
 2020TIP3   OH2 6000   3.891   1.627   5.733
 2020TIP3    H1 6001   3.826   1.559   5.747
 2020TIP3    H2 6002   3.892   1.641   5.638
 2021TIP3   OH2 6003   5.086   5.369   4.286
 2021TIP3    H1 6004   5.089   5.436   4.354
 2021TIP3    H2 6005   5.011   5.394   4.231
 2022TIP3   OH2 6006   1.197   3.187   3.732
 2022TIP3    H1 6007   1.138   3.243   3.681
 2022TIP3    H2 6008   1.257   3.149   3.668
 2023TIP3   OH2 6009   1.475   2.096   3.879
 2023TIP3    H1 6010   1.429   2.031   3.932
 2023TIP3    H2 6011   1.541   2.046   3.832
 2024TIP3   OH2 6012   1.129   3.422   2.030
 2024TIP3    H1 6013   1.106   3.438   2.121
 2024TIP3    H2 6014   1.078   3.486   1.980
 2025TIP3   OH2 6015   4.290   3.727   5.834
 2025TIP3    H1 6016   4.224   3.753   5.898
 2025TIP3    H2 6017   4.299   3.802   5.776
 2026TIP3   OH2 6018   5.223   1.818   1.770
 2026TIP3    H1 6019   5.309   1.816   1.726
 2026TIP3    H2 6020   5.188   1.730   1.758
 2027TIP3   OH2 6021   3.661   7.392   5.711
 2027TIP3    H1 6022   3.707   7.308   5.702
 2027TIP3    H2 6023   3.704   7.435   5.785
 2028TIP3   OH2 6024   6.931   0.581   2.161
 2028TIP3    H1 6025   6.847   0.542   2.186
 2028TIP3    H2 6026   6.914   0.675   2.156
 2029TIP3   OH2 6027   3.520   0.344   2.300
 2029TIP3    H1 6028   3.552   0.293   2.375
 2029TIP3    H2 6029   3.438   0.301   2.276
 2030TIP3   OH2 6030   7.929   5.431   6.525
 2030TIP3    H1 6031   7.863   5.500   6.538
 2030TIP3    H2 6032   7.886   5.351   6.554
 2031TIP3   OH2 6033   2.437   2.637   4.315
 2031TIP3    H1 6034   2.371   2.617   4.248
 2031TIP3    H2 6035   2.507   2.682   4.267
 2032TIP3   OH2 6036   3.020   5.977   2.984
 2032TIP3    H1 6037   3.015   6.049   3.046
 2032TIP3    H2 6038   2.933   5.937   2.987
 2033TIP3   OH2 6039   4.327   3.417   4.983
 2033TIP3    H1 6040   4.298   3.506   4.964
 2033TIP3    H2 6041   4.388   3.396   4.911
 2034TIP3   OH2 6042   5.106   0.506   4.566
 2034TIP3    H1 6043   5.097   0.436   4.631
 2034TIP3    H2 6044   5.133   0.582   4.618
 2035TIP3   OH2 6045   6.809   0.798   0.464
 2035TIP3    H1 6046   6.782   0.867   0.403
 2035TIP3    H2 6047   6.810   0.840   0.550
 2036TIP3   OH2 6048   0.213   0.616   5.583
 2036TIP3    H1 6049   0.168   0.653   5.506
 2036TIP3    H2 6050   0.291   0.575   5.547
 2037TIP3   OH2 6051   4.323   2.206   3.184
 2037TIP3    H1 6052   4.298   2.289   3.225
 2037TIP3    H2 6053   4.391   2.230   3.121
 2038TIP3   OH2 6054   6.812   6.931   5.466
 2038TIP3    H1 6055   6.852   6.903   5.384
 2038TIP3    H2 6056   6.885   6.943   5.526
 2039TIP3   OH2 6057   5.027   0.537   2.733
 2039TIP3    H1 6058   5.053   0.621   2.772
 2039TIP3    H2 6059   4.998   0.484   2.808
 2040TIP3   OH2 6060   8.319   5.045   1.242
 2040TIP3    H1 6061   8.277   4.983   1.301
 2040TIP3    H2 6062   8.317   5.002   1.156
 2041TIP3   OH2 6063   3.241   6.815   4.225
 2041TIP3    H1 6064   3.150   6.840   4.242
 2041TIP3    H2 6065   3.247   6.725   4.257
 2042TIP3   OH2 6066   0.881   4.595   1.724
 2042TIP3    H1 6067   0.811   4.641   1.676
 2042TIP3    H2 6068   0.848   4.588   1.813
 2043TIP3   OH2 6069   5.101   1.013   4.032
 2043TIP3    H1 6070   5.083   1.100   3.997
 2043TIP3    H2 6071   5.194   0.998   4.013
 2044TIP3   OH2 6072   3.563   5.240   6.009
 2044TIP3    H1 6073   3.514   5.220   5.930
 2044TIP3    H2 6074   3.652   5.208   5.992
 2045TIP3   OH2 6075   3.258   2.738   1.635
 2045TIP3    H1 6076   3.229   2.670   1.696
 2045TIP3    H2 6077   3.213   2.718   1.553
 2046TIP3   OH2 6078   6.936   6.727   4.438
 2046TIP3    H1 6079   6.912   6.765   4.523
 2046TIP3    H2 6080   7.032   6.722   4.441
 2047TIP3   OH2 6081   7.044   6.250   1.317
 2047TIP3    H1 6082   6.992   6.218   1.391
 2047TIP3    H2 6083   7.098   6.320   1.353
 2048TIP3   OH2 6084   7.867   4.121   5.945
 2048TIP3    H1 6085   7.929   4.194   5.948
 2048TIP3    H2 6086   7.827   4.126   5.859
 2049TIP3   OH2 6087   3.977   6.200   0.542
 2049TIP3    H1 6088   3.906   6.143   0.572
 2049TIP3    H2 6089   3.986   6.179   0.449
 2050TIP3   OH2 6090   2.725   2.841   5.630
 2050TIP3    H1 6091   2.693   2.928   5.655
 2050TIP3    H2 6092   2.649   2.797   5.592
 2051TIP3   OH2 6093   0.195   6.955   2.576
 2051TIP3    H1 6094   0.281   6.913   2.565
 2051TIP3    H2 6095   0.181   6.958   2.670
 2052TIP3   OH2 6096   4.966   0.918   1.887
 2052TIP3    H1 6097   5.048   0.952   1.922
 2052TIP3    H2 6098   4.898   0.972   1.928
 2053TIP3   OH2 6099   2.171   2.667   5.065
 2053TIP3    H1 6100   2.154   2.751   5.022
 2053TIP3    H2 6101   2.164   2.602   4.995
 2054TIP3   OH2 6102   7.148   2.316   4.360
 2054TIP3    H1 6103   7.155   2.411   4.353
 2054TIP3    H2 6104   7.088   2.302   4.434
 2055TIP3   OH2 6105   2.310   3.033   0.111
 2055TIP3    H1 6106   2.217   3.050   0.096
 2055TIP3    H2 6107   2.312   2.960   0.172
 2056TIP3   OH2 6108   6.584   5.652   5.793
 2056TIP3    H1 6109   6.668   5.617   5.761
 2056TIP3    H2 6110   6.525   5.576   5.792
 2057TIP3   OH2 6111   4.468   7.027   6.389
 2057TIP3    H1 6112   4.451   6.948   6.338
 2057TIP3    H2 6113   4.440   7.005   6.477
 2058TIP3   OH2 6114   8.033   4.277   2.950
 2058TIP3    H1 6115   7.945   4.287   2.988
 2058TIP3    H2 6116   8.017   4.259   2.858
 2059TIP3   OH2 6117   0.735   4.354   1.047
 2059TIP3    H1 6118   0.666   4.373   1.111
 2059TIP3    H2 6119   0.729   4.426   0.984
 2060TIP3   OH2 6120   0.034   4.281   2.990
 2060TIP3    H1 6121   0.044   4.302   3.083
 2060TIP3    H2 6122  -0.036   4.216   2.988
 2061TIP3   OH2 6123   6.730   5.270   0.087
 2061TIP3    H1 6124   6.819   5.264   0.055
 2061TIP3    H2 6125   6.687   5.332   0.027
 2062TIP3   OH2 6126   3.449   4.484   6.698
 2062TIP3    H1 6127   3.441   4.464   6.792
 2062TIP3    H2 6128   3.530   4.536   6.692
 2063TIP3   OH2 6129   3.030   7.093   3.451
 2063TIP3    H1 6130   3.043   7.075   3.358
 2063TIP3    H2 6131   3.113   7.131   3.480
 2064TIP3   OH2 6132   6.596   2.711   2.698
 2064TIP3    H1 6133   6.637   2.780   2.749
 2064TIP3    H2 6134   6.546   2.660   2.761
 2065TIP3   OH2 6135   4.175   5.185   2.401
 2065TIP3    H1 6136   4.247   5.148   2.350
 2065TIP3    H2 6137   4.182   5.143   2.486
 2066TIP3   OH2 6138   0.775   4.616   0.912
 2066TIP3    H1 6139   0.791   4.682   0.845
 2066TIP3    H2 6140   0.844   4.631   0.977
 2067TIP3   OH2 6141   2.879   2.086   1.451
 2067TIP3    H1 6142   2.957   2.125   1.492
 2067TIP3    H2 6143   2.860   2.145   1.378
 2068TIP3   OH2 6144   1.592   4.769   5.821
 2068TIP3    H1 6145   1.500   4.772   5.794
 2068TIP3    H2 6146   1.640   4.800   5.745
 2069TIP3   OH2 6147   3.683   3.417   1.722
 2069TIP3    H1 6148   3.757   3.471   1.748
 2069TIP3    H2 6149   3.657   3.372   1.803
 2070TIP3   OH2 6150   5.040   6.566   3.931
 2070TIP3    H1 6151   5.047   6.567   4.027
 2070TIP3    H2 6152   4.966   6.508   3.914
 2071TIP3   OH2 6153   2.929   0.447   2.750
 2071TIP3    H1 6154   3.007   0.392   2.743
 2071TIP3    H2 6155   2.963   0.533   2.777
 2072TIP3   OH2 6156   4.808   6.818   1.874
 2072TIP3    H1 6157   4.781   6.759   1.944
 2072TIP3    H2 6158   4.727   6.849   1.835
 2073TIP3   OH2 6159   3.898   1.987   6.065
 2073TIP3    H1 6160   3.807   1.957   6.064
 2073TIP3    H2 6161   3.915   2.009   6.157
 2074TIP3   OH2 6162   0.449   1.345   0.865
 2074TIP3    H1 6163   0.411   1.334   0.952
 2074TIP3    H2 6164   0.539   1.313   0.874
 2075TIP3   OH2 6165   1.981   5.969   6.828
 2075TIP3    H1 6166   1.931   6.042   6.793
 2075TIP3    H2 6167   2.060   5.965   6.775
 2076TIP3   OH2 6168   2.169   5.803   4.489
 2076TIP3    H1 6169   2.248   5.757   4.460
 2076TIP3    H2 6170   2.187   5.895   4.471
 2077TIP3   OH2 6171   4.560   0.057   3.057
 2077TIP3    H1 6172   4.582  -0.036   3.049
 2077TIP3    H2 6173   4.475   0.058   3.101
 2078TIP3   OH2 6174   7.431   2.710   0.412
 2078TIP3    H1 6175   7.377   2.687   0.487
 2078TIP3    H2 6176   7.377   2.771   0.361
 2079TIP3   OH2 6177   7.726   6.409   4.845
 2079TIP3    H1 6178   7.668   6.441   4.776
 2079TIP3    H2 6179   7.721   6.313   4.838
 2080TIP3   OH2 6180   2.240   7.774   3.667
 2080TIP3    H1 6181   2.230   7.826   3.747
 2080TIP3    H2 6182   2.152   7.744   3.646
 2081TIP3   OH2 6183   5.856   7.695   5.243
 2081TIP3    H1 6184   5.876   7.708   5.336
 2081TIP3    H2 6185   5.804   7.772   5.220
 2082TIP3   OH2 6186   1.287   4.259   2.475
 2082TIP3    H1 6187   1.317   4.267   2.385
 2082TIP3    H2 6188   1.204   4.212   2.469
 2083TIP3   OH2 6189   4.030   4.992   1.335
 2083TIP3    H1 6190   4.115   4.967   1.373
 2083TIP3    H2 6191   3.972   4.999   1.411
 2084TIP3   OH2 6192   0.099   4.986   5.996
 2084TIP3    H1 6193   0.157   5.060   5.977
 2084TIP3    H2 6194   0.013   5.025   6.010
 2085TIP3   OH2 6195   0.964   4.575   2.041
 2085TIP3    H1 6196   0.918   4.504   1.997
 2085TIP3    H2 6197   1.029   4.531   2.096
 2086TIP3   OH2 6198   2.750   6.212   0.598
 2086TIP3    H1 6199   2.745   6.265   0.519
 2086TIP3    H2 6200   2.757   6.122   0.566
 2087TIP3   OH2 6201   0.455   3.274   3.397
 2087TIP3    H1 6202   0.390   3.321   3.449
 2087TIP3    H2 6203   0.525   3.338   3.382
 2088TIP3   OH2 6204   2.530   5.140   2.541
 2088TIP3    H1 6205   2.521   5.081   2.467
 2088TIP3    H2 6206   2.558   5.084   2.614
 2089TIP3   OH2 6207   3.156   6.766   1.094
 2089TIP3    H1 6208   3.117   6.793   1.178
 2089TIP3    H2 6209   3.081   6.737   1.042
 2090TIP3   OH2 6210   7.243   5.471   5.363
 2090TIP3    H1 6211   7.165   5.448   5.415
 2090TIP3    H2 6212   7.290   5.534   5.417
 2091TIP3   OH2 6213   1.423   1.421   0.475
 2091TIP3    H1 6214   1.338   1.437   0.434
 2091TIP3    H2 6215   1.486   1.457   0.412
 2092TIP3   OH2 6216   2.971   1.533   5.708
 2092TIP3    H1 6217   2.947   1.540   5.801
 2092TIP3    H2 6218   3.055   1.579   5.702
 2093TIP3   OH2 6219   2.676   4.088   2.299
 2093TIP3    H1 6220   2.690   4.157   2.364
 2093TIP3    H2 6221   2.764   4.064   2.271
 2094TIP3   OH2 6222   4.093   6.432   3.218
 2094TIP3    H1 6223   4.034   6.405   3.289
 2094TIP3    H2 6224   4.175   6.452   3.262
 2095TIP3   OH2 6225   8.015   1.620   2.668
 2095TIP3    H1 6226   8.067   1.552   2.624
 2095TIP3    H2 6227   7.933   1.622   2.619
 2096TIP3   OH2 6228   7.682   5.121   2.216
 2096TIP3    H1 6229   7.753   5.079   2.265
 2096TIP3    H2 6230   7.726   5.161   2.141
 2097TIP3   OH2 6231   6.939   3.369   6.205
 2097TIP3    H1 6232   7.034   3.373   6.216
 2097TIP3    H2 6233   6.916   3.278   6.223
 2098TIP3   OH2 6234   5.788   1.382   0.619
 2098TIP3    H1 6235   5.856   1.338   0.671
 2098TIP3    H2 6236   5.706   1.358   0.661
 2099TIP3   OH2 6237   4.917   3.537   1.401
 2099TIP3    H1 6238   4.947   3.563   1.314
 2099TIP3    H2 6239   4.845   3.597   1.421
 2100TIP3   OH2 6240   5.160   3.118   6.288
 2100TIP3    H1 6241   5.135   3.105   6.379
 2100TIP3    H2 6242   5.196   3.207   6.285
 2101TIP3   OH2 6243   2.103   0.800   4.684
 2101TIP3    H1 6244   2.113   0.717   4.638
 2101TIP3    H2 6245   2.173   0.855   4.649
 2102TIP3   OH2 6246   2.557   3.512   1.934
 2102TIP3    H1 6247   2.540   3.566   1.857
 2102TIP3    H2 6248   2.610   3.440   1.901
 2103TIP3   OH2 6249   1.515   5.359   1.023
 2103TIP3    H1 6250   1.584   5.293   1.018
 2103TIP3    H2 6251   1.441   5.315   1.065
 2104TIP3   OH2 6252   2.410   2.942   2.696
 2104TIP3    H1 6253   2.409   3.035   2.674
 2104TIP3    H2 6254   2.369   2.936   2.782
 2105TIP3   OH2 6255   6.742   3.176   1.352
 2105TIP3    H1 6256   6.818   3.129   1.387
 2105TIP3    H2 6257   6.770   3.267   1.349
 2106TIP3   OH2 6258   5.183   7.197   6.231
 2106TIP3    H1 6259   5.146   7.111   6.251
 2106TIP3    H2 6260   5.254   7.208   6.295
 2107TIP3   OH2 6261   6.290   5.971   5.928
 2107TIP3    H1 6262   6.288   6.016   6.013
 2107TIP3    H2 6263   6.323   5.884   5.948
 2108TIP3   OH2 6264   3.704   4.589   4.749
 2108TIP3    H1 6265   3.635   4.591   4.683
 2108TIP3    H2 6266   3.776   4.541   4.707
 2109TIP3   OH2 6267   5.991   1.249   5.661
 2109TIP3    H1 6268   5.967   1.214   5.575
 2109TIP3    H2 6269   5.989   1.344   5.650
 2110TIP3   OH2 6270   3.070   3.597   6.197
 2110TIP3    H1 6271   3.072   3.691   6.182
 2110TIP3    H2 6272   2.989   3.582   6.245
 2111TIP3   OH2 6273   4.506   6.528   4.421
 2111TIP3    H1 6274   4.419   6.559   4.445
 2111TIP3    H2 6275   4.542   6.596   4.364
 2112TIP3   OH2 6276   5.402   6.463   1.190
 2112TIP3    H1 6277   5.410   6.371   1.163
 2112TIP3    H2 6278   5.311   6.472   1.218
 2113TIP3   OH2 6279   6.570   1.241   6.570
 2113TIP3    H1 6280   6.574   1.279   6.482
 2113TIP3    H2 6281   6.620   1.301   6.625
 2114TIP3   OH2 6282   8.157   4.176   0.630
 2114TIP3    H1 6283   8.073   4.131   0.625
 2114TIP3    H2 6284   8.143   4.259   0.585
 2115TIP3   OH2 6285   0.561   2.361   5.089
 2115TIP3    H1 6286   0.552   2.282   5.144
 2115TIP3    H2 6287   0.513   2.340   5.009
 2116TIP3   OH2 6288   1.438   0.541   4.887
 2116TIP3    H1 6289   1.503   0.470   4.886
 2116TIP3    H2 6290   1.354   0.496   4.898
 2117TIP3   OH2 6291   8.277   3.474   1.365
 2117TIP3    H1 6292   8.296   3.563   1.338
 2117TIP3    H2 6293   8.289   3.475   1.460
 2118TIP3   OH2 6294   3.223   1.305   4.410
 2118TIP3    H1 6295   3.266   1.368   4.351
 2118TIP3    H2 6296   3.191   1.359   4.482
 2119TIP3   OH2 6297   4.104   0.892   6.783
 2119TIP3    H1 6298   4.014   0.893   6.814
 2119TIP3    H2 6299   4.104   0.948   6.705
 2120TIP3   OH2 6300   5.781   5.880   4.356
 2120TIP3    H1 6301   5.694   5.887   4.393
 2120TIP3    H2 6302   5.840   5.884   4.431
 2121TIP3   OH2 6303   3.268   7.190   0.025
 2121TIP3    H1 6304   3.313   7.133   0.088
 2121TIP3    H2 6305   3.285   7.150  -0.060
 2122TIP3   OH2 6306   6.763   3.743   0.108
 2122TIP3    H1 6307   6.821   3.689   0.161
 2122TIP3    H2 6308   6.723   3.804   0.169
 2123TIP3   OH2 6309   6.519   6.926   6.734
 2123TIP3    H1 6310   6.545   6.942   6.644
 2123TIP3    H2 6311   6.601   6.929   6.784
 2124TIP3   OH2 6312   4.250   0.986   3.691
 2124TIP3    H1 6313   4.268   0.965   3.783
 2124TIP3    H2 6314   4.156   1.005   3.689
 2125TIP3   OH2 6315   7.604   5.154   6.750
 2125TIP3    H1 6316   7.559   5.130   6.669
 2125TIP3    H2 6317   7.683   5.200   6.721
 2126TIP3   OH2 6318   0.451   0.632   6.425
 2126TIP3    H1 6319   0.394   0.602   6.496
 2126TIP3    H2 6320   0.469   0.724   6.446
 2127TIP3   OH2 6321   8.272   3.697   5.325
 2127TIP3    H1 6322   8.189   3.649   5.321
 2127TIP3    H2 6323   8.272   3.751   5.246
 2128TIP3   OH2 6324   2.662   7.240   1.486
 2128TIP3    H1 6325   2.572   7.233   1.456
 2128TIP3    H2 6326   2.715   7.233   1.407
 2129TIP3   OH2 6327   2.369   3.806   1.481
 2129TIP3    H1 6328   2.380   3.874   1.548
 2129TIP3    H2 6329   2.275   3.807   1.462
 2130TIP3   OH2 6330   2.856   4.104   1.569
 2130TIP3    H1 6331   2.769   4.143   1.580
 2130TIP3    H2 6332   2.910   4.147   1.636
 2131TIP3   OH2 6333   6.314   2.517   1.177
 2131TIP3    H1 6334   6.268   2.458   1.236
 2131TIP3    H2 6335   6.262   2.515   1.096
 2132TIP3   OH2 6336   0.724   1.206   6.676
 2132TIP3    H1 6337   0.664   1.134   6.695
 2132TIP3    H2 6338   0.754   1.236   6.762
 2133TIP3   OH2 6339   3.264   7.196   4.133
 2133TIP3    H1 6340   3.189   7.205   4.192
 2133TIP3    H2 6341   3.225   7.187   4.046
 2134TIP3   OH2 6342   0.468   3.507   2.530
 2134TIP3    H1 6343   0.542   3.451   2.556
 2134TIP3    H2 6344   0.422   3.525   2.613
 2135TIP3   OH2 6345   0.528   7.052   6.154
 2135TIP3    H1 6346   0.495   6.966   6.127
 2135TIP3    H2 6347   0.485   7.114   6.096
 2136TIP3   OH2 6348   4.546   2.305   5.785
 2136TIP3    H1 6349   4.455   2.287   5.762
 2136TIP3    H2 6350   4.591   2.222   5.769
 2137TIP3   OH2 6351   3.282   5.890   0.395
 2137TIP3    H1 6352   3.356   5.833   0.415
 2137TIP3    H2 6353   3.309   5.976   0.427
 2138TIP3   OH2 6354   4.852   6.192   3.000
 2138TIP3    H1 6355   4.938   6.154   3.016
 2138TIP3    H2 6356   4.842   6.258   3.068
 2139TIP3   OH2 6357   7.884   5.866   5.483
 2139TIP3    H1 6358   7.902   5.947   5.531
 2139TIP3    H2 6359   7.846   5.808   5.549
 2140TIP3   OH2 6360   1.633   4.595   5.080
 2140TIP3    H1 6361   1.550   4.635   5.105
 2140TIP3    H2 6362   1.696   4.628   5.144
 2141TIP3   OH2 6363   1.450   0.461   5.916
 2141TIP3    H1 6364   1.405   0.378   5.899
 2141TIP3    H2 6365   1.439   0.512   5.836
 2142TIP3   OH2 6366   7.325   4.967   3.558
 2142TIP3    H1 6367   7.390   4.967   3.628
 2142TIP3    H2 6368   7.284   5.054   3.564
 2143TIP3   OH2 6369  -0.029   4.952   2.200
 2143TIP3    H1 6370   0.053   4.914   2.169
 2143TIP3    H2 6371  -0.006   5.042   2.223
 2144TIP3   OH2 6372   3.553   4.196   0.878
 2144TIP3    H1 6373   3.503   4.227   0.802
 2144TIP3    H2 6374   3.608   4.270   0.904
 2145TIP3   OH2 6375   3.302   0.362   4.477
 2145TIP3    H1 6376   3.345   0.295   4.530
 2145TIP3    H2 6377   3.330   0.445   4.516
 2146TIP3   OH2 6378   7.597   0.718   3.142
 2146TIP3    H1 6379   7.569   0.663   3.068
 2146TIP3    H2 6380   7.682   0.752   3.115
 2147TIP3   OH2 6381   4.501   0.530   2.955
 2147TIP3    H1 6382   4.448   0.597   2.912
 2147TIP3    H2 6383   4.576   0.578   2.991
 2148TIP3   OH2 6384   6.869   3.078   4.325
 2148TIP3    H1 6385   6.846   3.154   4.378
 2148TIP3    H2 6386   6.817   3.087   4.245
 2149TIP3   OH2 6387   8.187   6.657   3.295
 2149TIP3    H1 6388   8.264   6.604   3.317
 2149TIP3    H2 6389   8.190   6.662   3.199
 2150TIP3   OH2 6390   4.472   5.593   6.399
 2150TIP3    H1 6391   4.448   5.513   6.447
 2150TIP3    H2 6392   4.419   5.662   6.439
 2151TIP3   OH2 6393   0.907   5.569   0.656
 2151TIP3    H1 6394   0.993   5.606   0.640
 2151TIP3    H2 6395   0.845   5.638   0.631
 2152TIP3   OH2 6396   3.583   1.044   1.164
 2152TIP3    H1 6397   3.606   1.111   1.100
 2152TIP3    H2 6398   3.539   1.092   1.234
 2153TIP3   OH2 6399   3.128   2.983   4.080
 2153TIP3    H1 6400   3.156   3.020   4.163
 2153TIP3    H2 6401   3.142   2.888   4.090
 2154TIP3   OH2 6402   0.566   5.299   6.621
 2154TIP3    H1 6403   0.595   5.357   6.692
 2154TIP3    H2 6404   0.499   5.349   6.575
 2155TIP3   OH2 6405   0.614   5.483   0.178
 2155TIP3    H1 6406   0.647   5.416   0.118
 2155TIP3    H2 6407   0.566   5.543   0.121
 2156TIP3   OH2 6408   8.213   5.216   2.250
 2156TIP3    H1 6409   8.278   5.275   2.214
 2156TIP3    H2 6410   8.129   5.253   2.223
 2157TIP3   OH2 6411   0.575   6.271   6.239
 2157TIP3    H1 6412   0.646   6.331   6.217
 2157TIP3    H2 6413   0.495   6.324   6.233
 2158TIP3   OH2 6414   3.662   1.473   6.141
 2158TIP3    H1 6415   3.718   1.523   6.200
 2158TIP3    H2 6416   3.575   1.514   6.150
 2159TIP3   OH2 6417   7.538   4.093   4.604
 2159TIP3    H1 6418   7.579   4.137   4.677
 2159TIP3    H2 6419   7.478   4.158   4.567
 2160TIP3   OH2 6420   1.973   6.349   6.081
 2160TIP3    H1 6421   1.883   6.381   6.080
 2160TIP3    H2 6422   2.013   6.387   6.003
 2161TIP3   OH2 6423   7.700   3.034   3.401
 2161TIP3    H1 6424   7.728   2.956   3.448
 2161TIP3    H2 6425   7.746   3.030   3.317
 2162TIP3   OH2 6426   6.963   4.384   0.184
 2162TIP3    H1 6427   7.020   4.437   0.128
 2162TIP3    H2 6428   6.881   4.378   0.136
 2163TIP3   OH2 6429   0.414   6.248   5.634
 2163TIP3    H1 6430   0.503   6.252   5.670
 2163TIP3    H2 6431   0.359   6.228   5.710
 2164TIP3   OH2 6432   6.589   4.920   4.099
 2164TIP3    H1 6433   6.522   4.982   4.125
 2164TIP3    H2 6434   6.544   4.835   4.097
 2165TIP3   OH2 6435   7.637   0.967   5.623
 2165TIP3    H1 6436   7.676   1.008   5.546
 2165TIP3    H2 6437   7.550   0.939   5.594
 2166TIP3   OH2 6438   2.813   7.106   4.429
 2166TIP3    H1 6439   2.757   7.028   4.434
 2166TIP3    H2 6440   2.902   7.072   4.424
 2167TIP3   OH2 6441   8.380   2.855   3.887
 2167TIP3    H1 6442   8.370   2.762   3.868
 2167TIP3    H2 6443   8.417   2.858   3.975
 2168TIP3   OH2 6444   7.191   0.592   2.703
 2168TIP3    H1 6445   7.117   0.561   2.756
 2168TIP3    H2 6446   7.206   0.522   2.640
 2169TIP3   OH2 6447   6.753   6.583   5.332
 2169TIP3    H1 6448   6.788   6.511   5.384
 2169TIP3    H2 6449   6.826   6.645   5.325
 2170TIP3   OH2 6450   2.854   6.157   6.270
 2170TIP3    H1 6451   2.934   6.137   6.221
 2170TIP3    H2 6452   2.795   6.084   6.251
 2171TIP3   OH2 6453   1.143   6.938   6.560
 2171TIP3    H1 6454   1.209   6.876   6.593
 2171TIP3    H2 6455   1.075   6.940   6.627
 2172TIP3   OH2 6456   3.132   4.736   2.191
 2172TIP3    H1 6457   3.154   4.766   2.279
 2172TIP3    H2 6458   3.159   4.644   2.190
 2173TIP3   OH2 6459   6.438   6.020   2.037
 2173TIP3    H1 6460   6.505   6.086   2.054
 2173TIP3    H2 6461   6.358   6.070   2.022
 2174TIP3   OH2 6462   5.849   0.438   4.336
 2174TIP3    H1 6463   5.864   0.376   4.408
 2174TIP3    H2 6464   5.858   0.524   4.377
 2175TIP3   OH2 6465   6.111   3.443   1.462
 2175TIP3    H1 6466   6.045   3.414   1.400
 2175TIP3    H2 6467   6.091   3.536   1.476
 2176TIP3   OH2 6468   3.204   5.170   0.505
 2176TIP3    H1 6469   3.164   5.098   0.554
 2176TIP3    H2 6470   3.221   5.237   0.571
 2177TIP3   OH2 6471   3.329   2.276   6.148
 2177TIP3    H1 6472   3.375   2.193   6.136
 2177TIP3    H2 6473   3.368   2.334   6.082
 2178TIP3   OH2 6474   4.158   7.430   5.081
 2178TIP3    H1 6475   4.229   7.494   5.071
 2178TIP3    H2 6476   4.176   7.363   5.014
 2179TIP3   OH2 6477   4.560   3.081   0.527
 2179TIP3    H1 6478   4.531   3.161   0.571
 2179TIP3    H2 6479   4.593   3.111   0.442
 2180TIP3   OH2 6480   0.310   4.727   2.389
 2180TIP3    H1 6481   0.250   4.798   2.412
 2180TIP3    H2 6482   0.261   4.647   2.406
 2181TIP3   OH2 6483   4.955   4.625   1.667
 2181TIP3    H1 6484   4.896   4.600   1.738
 2181TIP3    H2 6485   4.953   4.550   1.607
 2182TIP3   OH2 6486   0.834   0.812   1.899
 2182TIP3    H1 6487   0.902   0.795   1.834
 2182TIP3    H2 6488   0.877   0.799   1.984
 2183TIP3   OH2 6489   8.118   3.888   0.730
 2183TIP3    H1 6490   8.037   3.924   0.693
 2183TIP3    H2 6491   8.096   3.871   0.822
 2184TIP3   OH2 6492   1.225   2.743   2.037
 2184TIP3    H1 6493   1.220   2.834   2.010
 2184TIP3    H2 6494   1.278   2.745   2.117
 2185TIP3   OH2 6495   5.509   6.316   2.550
 2185TIP3    H1 6496   5.563   6.292   2.474
 2185TIP3    H2 6497   5.427   6.346   2.512
 2186TIP3   OH2 6498   7.420   4.720   6.547
 2186TIP3    H1 6499   7.426   4.626   6.568
 2186TIP3    H2 6500   7.328   4.733   6.523
 2187TIP3   OH2 6501   2.771   4.757   4.267
 2187TIP3    H1 6502   2.782   4.663   4.248
 2187TIP3    H2 6503   2.693   4.782   4.218
 2188TIP3   OH2 6504   2.281   0.995   5.480
 2188TIP3    H1 6505   2.349   1.004   5.548
 2188TIP3    H2 6506   2.240   1.081   5.476
 2189TIP3   OH2 6507   3.346   2.611   3.240
 2189TIP3    H1 6508   3.315   2.601   3.330
 2189TIP3    H2 6509   3.269   2.644   3.193
 2190TIP3   OH2 6510   2.468   4.476   4.175
 2190TIP3    H1 6511   2.445   4.555   4.222
 2190TIP3    H2 6512   2.443   4.404   4.233
 2191TIP3   OH2 6513   0.611   5.514   0.953
 2191TIP3    H1 6514   0.638   5.439   0.901
 2191TIP3    H2 6515   0.664   5.587   0.919
 2192TIP3   OH2 6516   3.514   0.590   2.498
 2192TIP3    H1 6517   3.487   0.515   2.444
 2192TIP3    H2 6518   3.593   0.559   2.543
 2193TIP3   OH2 6519   3.732   4.796   5.236
 2193TIP3    H1 6520   3.785   4.716   5.230
 2193TIP3    H2 6521   3.768   4.843   5.311
 2194TIP3   OH2 6522   6.562   2.683   4.710
 2194TIP3    H1 6523   6.582   2.701   4.802
 2194TIP3    H2 6524   6.547   2.770   4.672
 2195TIP3   OH2 6525   4.955   4.973   0.605
 2195TIP3    H1 6526   5.012   4.915   0.655
 2195TIP3    H2 6527   4.988   5.061   0.621
 2196TIP3   OH2 6528   5.779   3.428   3.604
 2196TIP3    H1 6529   5.758   3.494   3.671
 2196TIP3    H2 6530   5.855   3.464   3.558
 2197TIP3   OH2 6531   4.374   0.815   1.599
 2197TIP3    H1 6532   4.292   0.783   1.636
 2197TIP3    H2 6533   4.421   0.736   1.573
 2198TIP3   OH2 6534   4.231   1.589   1.889
 2198TIP3    H1 6535   4.198   1.678   1.875
 2198TIP3    H2 6536   4.212   1.544   1.807
 2199TIP3   OH2 6537   0.184   1.576   4.905
 2199TIP3    H1 6538   0.228   1.518   4.967
 2199TIP3    H2 6539   0.094   1.584   4.938
 2200TIP3   OH2 6540   3.409   7.008   6.443
 2200TIP3    H1 6541   3.359   6.927   6.432
 2200TIP3    H2 6542   3.491   6.992   6.396
 2201TIP3   OH2 6543   6.989   0.025   1.587
 2201TIP3    H1 6544   7.078   0.058   1.582
 2201TIP3    H2 6545   6.955   0.034   1.498
 2202TIP3   OH2 6546   8.090   6.182   3.742
 2202TIP3    H1 6547   8.038   6.205   3.665
 2202TIP3    H2 6548   8.159   6.124   3.708
 2203TIP3   OH2 6549   6.307   5.200   0.396
 2203TIP3    H1 6550   6.340   5.252   0.322
 2203TIP3    H2 6551   6.309   5.261   0.470
 2204TIP3   OH2 6552   7.727   7.214   6.704
 2204TIP3    H1 6553   7.725   7.294   6.653
 2204TIP3    H2 6554   7.817   7.208   6.736
 2205TIP3   OH2 6555   3.894   1.467   6.670
 2205TIP3    H1 6556   3.986   1.475   6.696
 2205TIP3    H2 6557   3.867   1.557   6.652
 2206TIP3   OH2 6558   5.631   6.744   3.126
 2206TIP3    H1 6559   5.709   6.690   3.141
 2206TIP3    H2 6560   5.651   6.794   3.047
 2207TIP3   OH2 6561   1.392   0.166   0.712
 2207TIP3    H1 6562   1.447   0.154   0.789
 2207TIP3    H2 6563   1.348   0.250   0.726
 2208TIP3   OH2 6564   0.783   4.052   4.657
 2208TIP3    H1 6565   0.878   4.048   4.655
 2208TIP3    H2 6566   0.759   4.090   4.573
 2209TIP3   OH2 6567   6.097   5.248   4.898
 2209TIP3    H1 6568   6.152   5.179   4.936
 2209TIP3    H2 6569   6.158   5.304   4.850
 2210TIP3   OH2 6570   7.472   0.474   6.058
 2210TIP3    H1 6571   7.424   0.402   6.017
 2210TIP3    H2 6572   7.492   0.442   6.146
 2211TIP3   OH2 6573   0.259   5.678   6.209
 2211TIP3    H1 6574   0.202   5.754   6.201
 2211TIP3    H2 6575   0.336   5.710   6.255
 2212TIP3   OH2 6576   3.004   2.414   5.663
 2212TIP3    H1 6577   3.028   2.492   5.713
 2212TIP3    H2 6578   2.953   2.361   5.724
 2213TIP3   OH2 6579   5.958   7.153   0.260
 2213TIP3    H1 6580   6.007   7.178   0.181
 2213TIP3    H2 6581   5.873   7.195   0.249
 2214TIP3   OH2 6582   1.807   6.288   4.964
 2214TIP3    H1 6583   1.767   6.210   5.004
 2214TIP3    H2 6584   1.734   6.337   4.927
 2215TIP3   OH2 6585   0.979   5.775   4.803
 2215TIP3    H1 6586   0.932   5.725   4.736
 2215TIP3    H2 6587   0.917   5.781   4.876
 2216TIP3   OH2 6588   4.970   3.277   1.297
 2216TIP3    H1 6589   5.063   3.263   1.313
 2216TIP3    H2 6590   4.959   3.372   1.305
 2217TIP3   OH2 6591   4.813   6.974   2.516
 2217TIP3    H1 6592   4.725   6.941   2.537
 2217TIP3    H2 6593   4.872   6.917   2.565
 2218TIP3   OH2 6594   3.323   5.560   6.777
 2218TIP3    H1 6595   3.347   5.592   6.864
 2218TIP3    H2 6596   3.247   5.612   6.752
 2219TIP3   OH2 6597   0.364   5.309   1.214
 2219TIP3    H1 6598   0.309   5.248   1.264
 2219TIP3    H2 6599   0.361   5.276   1.124
 2220TIP3   OH2 6600   7.917   7.857   3.366
 2220TIP3    H1 6601   8.012   7.858   3.378
 2220TIP3    H2 6602   7.904   7.899   3.281
 2221TIP3   OH2 6603   6.048   4.537   4.410
 2221TIP3    H1 6604   6.139   4.517   4.431
 2221TIP3    H2 6605   6.019   4.464   4.355
 2222TIP3   OH2 6606   0.442   6.320   4.199
 2222TIP3    H1 6607   0.445   6.319   4.103
 2222TIP3    H2 6608   0.518   6.371   4.225
 2223TIP3   OH2 6609   1.443   7.637   6.242
 2223TIP3    H1 6610   1.398   7.718   6.268
 2223TIP3    H2 6611   1.527   7.668   6.207
 2224TIP3   OH2 6612   0.575   7.028   0.931
 2224TIP3    H1 6613   0.492   7.063   0.964
 2224TIP3    H2 6614   0.641   7.086   0.968
 2225TIP3   OH2 6615   7.187   4.229   5.098
 2225TIP3    H1 6616   7.148   4.315   5.084
 2225TIP3    H2 6617   7.208   4.197   5.010
 2226TIP3   OH2 6618   0.278   6.179   3.950
 2226TIP3    H1 6619   0.275   6.086   3.928
 2226TIP3    H2 6620   0.368   6.194   3.980
 2227TIP3   OH2 6621   0.532   0.899   6.459
 2227TIP3    H1 6622   0.459   0.940   6.413
 2227TIP3    H2 6623   0.588   0.972   6.485
 2228TIP3   OH2 6624   5.738   1.095   0.638
 2228TIP3    H1 6625   5.770   1.107   0.548
 2228TIP3    H2 6626   5.649   1.132   0.637
 2229TIP3   OH2 6627   4.674   3.081   3.150
 2229TIP3    H1 6628   4.680   3.138   3.226
 2229TIP3    H2 6629   4.688   3.138   3.074
 2230TIP3   OH2 6630   6.847   5.557   5.715
 2230TIP3    H1 6631   6.817   5.511   5.793
 2230TIP3    H2 6632   6.943   5.559   5.725
 2231TIP3   OH2 6633   2.062   6.393   6.767
 2231TIP3    H1 6634   2.149   6.426   6.790
 2231TIP3    H2 6635   2.002   6.462   6.794
 2232TIP3   OH2 6636   6.143   1.926   1.893
 2232TIP3    H1 6637   6.108   1.865   1.828
 2232TIP3    H2 6638   6.083   1.918   1.967
 2233TIP3   OH2 6639   6.826   2.428   4.220
 2233TIP3    H1 6640   6.903   2.482   4.241
 2233TIP3    H2 6641   6.753   2.474   4.260
 2234TIP3   OH2 6642   7.992   1.689   0.569
 2234TIP3    H1 6643   7.996   1.773   0.615
 2234TIP3    H2 6644   8.082   1.655   0.573
 2235TIP3   OH2 6645   6.735   4.691   0.306
 2235TIP3    H1 6646   6.674   4.765   0.305
 2235TIP3    H2 6647   6.812   4.723   0.258
 2236TIP3   OH2 6648   2.160   6.852   1.966
 2236TIP3    H1 6649   2.070   6.884   1.973
 2236TIP3    H2 6650   2.212   6.920   2.008
 2237TIP3   OH2 6651   3.497   5.020   2.119
 2237TIP3    H1 6652   3.563   4.962   2.083
 2237TIP3    H2 6653   3.511   5.018   2.214
 2238TIP3   OH2 6654   6.751   3.109   3.523
 2238TIP3    H1 6655   6.685   3.179   3.526
 2238TIP3    H2 6656   6.810   3.136   3.453
 2239TIP3   OH2 6657   6.585   6.446   1.498
 2239TIP3    H1 6658   6.649   6.421   1.432
 2239TIP3    H2 6659   6.562   6.536   1.477
 2240TIP3   OH2 6660   3.075   3.490   4.143
 2240TIP3    H1 6661   3.077   3.399   4.170
 2240TIP3    H2 6662   3.094   3.539   4.223
 2241TIP3   OH2 6663   5.900   4.692   1.748
 2241TIP3    H1 6664   5.902   4.786   1.733
 2241TIP3    H2 6665   5.950   4.655   1.675
 2242TIP3   OH2 6666   8.233   2.968   0.927
 2242TIP3    H1 6667   8.168   2.909   0.966
 2242TIP3    H2 6668   8.196   3.055   0.938
 2243TIP3   OH2 6669   6.548   3.087   2.418
 2243TIP3    H1 6670   6.603   3.013   2.393
 2243TIP3    H2 6671   6.459   3.058   2.399
 2244TIP3   OH2 6672   1.040   1.232   4.496
 2244TIP3    H1 6673   1.131   1.216   4.469
 2244TIP3    H2 6674   1.020   1.162   4.558
 2245TIP3   OH2 6675   4.907   5.114   0.871
 2245TIP3    H1 6676   4.999   5.120   0.844
 2245TIP3    H2 6677   4.873   5.038   0.824
 2246TIP3   OH2 6678   3.622   1.157   2.834
 2246TIP3    H1 6679   3.675   1.220   2.785
 2246TIP3    H2 6680   3.538   1.157   2.788
 2247TIP3   OH2 6681   6.131   4.124   4.183
 2247TIP3    H1 6682   6.168   4.082   4.260
 2247TIP3    H2 6683   6.049   4.163   4.214
 2248TIP3   OH2 6684   2.950   7.287   2.825
 2248TIP3    H1 6685   3.029   7.238   2.848
 2248TIP3    H2 6686   2.880   7.222   2.828
 2249TIP3   OH2 6687   5.247   1.964   4.499
 2249TIP3    H1 6688   5.296   2.026   4.444
 2249TIP3    H2 6689   5.210   1.901   4.438
 2250TIP3   OH2 6690   6.349   6.918   5.342
 2250TIP3    H1 6691   6.367   6.858   5.414
 2250TIP3    H2 6692   6.432   6.925   5.294
 2251TIP3   OH2 6693   2.319   1.019   2.581
 2251TIP3    H1 6694   2.277   1.091   2.534
 2251TIP3    H2 6695   2.373   0.976   2.515
 2252TIP3   OH2 6696   1.459   1.826   0.562
 2252TIP3    H1 6697   1.370   1.796   0.579
 2252TIP3    H2 6698   1.453   1.922   0.563
 2253TIP3   OH2 6699   3.575   0.962   2.598
 2253TIP3    H1 6700   3.557   1.055   2.604
 2253TIP3    H2 6701   3.517   0.922   2.664
 2254TIP3   OH2 6702   5.474   7.725   0.565
 2254TIP3    H1 6703   5.445   7.810   0.534
 2254TIP3    H2 6704   5.434   7.662   0.505
 2255TIP3   OH2 6705   1.394   7.545   5.572
 2255TIP3    H1 6706   1.329   7.491   5.529
 2255TIP3    H2 6707   1.478   7.505   5.549
 2256TIP3   OH2 6708   5.588   7.692   2.713
 2256TIP3    H1 6709   5.668   7.699   2.766
 2256TIP3    H2 6710   5.519   7.673   2.776
 2257TIP3   OH2 6711   1.600   7.386   3.891
 2257TIP3    H1 6712   1.615   7.311   3.833
 2257TIP3    H2 6713   1.687   7.408   3.924
 2258TIP3   OH2 6714   0.729   2.058   5.750
 2258TIP3    H1 6715   0.641   2.076   5.785
 2258TIP3    H2 6716   0.786   2.116   5.800
 2259TIP3   OH2 6717   6.431   1.792   2.128
 2259TIP3    H1 6718   6.452   1.715   2.181
 2259TIP3    H2 6719   6.497   1.857   2.154
 2260TIP3   OH2 6720   4.323   4.118   6.845
 2260TIP3    H1 6721   4.355   4.064   6.772
 2260TIP3    H2 6722   4.345   4.066   6.923
 2261TIP3   OH2 6723   0.025   3.232   1.607
 2261TIP3    H1 6724  -0.070   3.230   1.619
 2261TIP3    H2 6725   0.060   3.204   1.692
 2262TIP3   OH2 6726   5.045   6.293   4.047
 2262TIP3    H1 6727   4.950   6.296   4.041
 2262TIP3    H2 6728   5.070   6.213   4.002
 2263TIP3   OH2 6729   7.839   7.393   4.395
 2263TIP3    H1 6730   7.867   7.402   4.486
 2263TIP3    H2 6731   7.858   7.301   4.373
 2264TIP3   OH2 6732   6.386   1.626   6.265
 2264TIP3    H1 6733   6.358   1.568   6.195
 2264TIP3    H2 6734   6.423   1.702   6.220
 2265TIP3   OH2 6735   5.309   0.158   3.295
 2265TIP3    H1 6736   5.240   0.206   3.249
 2265TIP3    H2 6737   5.262   0.093   3.348
 2266TIP3   OH2 6738   0.730   4.599   4.754
 2266TIP3    H1 6739   0.773   4.545   4.820
 2266TIP3    H2 6740   0.709   4.681   4.800
 2267TIP3   OH2 6741   3.514   7.638   3.748
 2267TIP3    H1 6742   3.447   7.570   3.737
 2267TIP3    H2 6743   3.527   7.644   3.842
 2268TIP3   OH2 6744   6.945   6.747   1.559
 2268TIP3    H1 6745   7.038   6.767   1.550
 2268TIP3    H2 6746   6.901   6.830   1.538
 2269TIP3   OH2 6747   3.547   2.493   3.625
 2269TIP3    H1 6748   3.501   2.469   3.544
 2269TIP3    H2 6749   3.478   2.494   3.691
 2270TIP3   OH2 6750   0.927   5.889   3.584
 2270TIP3    H1 6751   0.848   5.880   3.637
 2270TIP3    H2 6752   0.919   5.821   3.517
 2271TIP3   OH2 6753   5.715   4.216   6.568
 2271TIP3    H1 6754   5.770   4.263   6.631
 2271TIP3    H2 6755   5.644   4.277   6.548
 2272TIP3   OH2 6756   7.715   6.271   2.076
 2272TIP3    H1 6757   7.681   6.278   1.986
 2272TIP3    H2 6758   7.637   6.278   2.131
 2273TIP3   OH2 6759   6.260   0.366   5.426
 2273TIP3    H1 6760   6.259   0.444   5.481
 2273TIP3    H2 6761   6.276   0.400   5.337
 2274TIP3   OH2 6762   7.310   6.535   1.647
 2274TIP3    H1 6763   7.252   6.515   1.721
 2274TIP3    H2 6764   7.253   6.533   1.570
 2275TIP3   OH2 6765   5.182   4.242   2.804
 2275TIP3    H1 6766   5.198   4.209   2.715
 2275TIP3    H2 6767   5.123   4.316   2.791
 2276TIP3   OH2 6768   2.875   5.795   4.951
 2276TIP3    H1 6769   2.944   5.790   4.885
 2276TIP3    H2 6770   2.877   5.710   4.995
 2277TIP3   OH2 6771   4.864   3.987   2.874
 2277TIP3    H1 6772   4.902   3.987   2.961
 2277TIP3    H2 6773   4.785   4.041   2.883
 2278TIP3   OH2 6774   4.310   4.114   5.930
 2278TIP3    H1 6775   4.354   4.198   5.929
 2278TIP3    H2 6776   4.225   4.132   5.971
 2279TIP3   OH2 6777   3.639   5.736   3.317
 2279TIP3    H1 6778   3.563   5.785   3.285
 2279TIP3    H2 6779   3.657   5.776   3.403
 2280TIP3   OH2 6780   5.098   2.580   2.470
 2280TIP3    H1 6781   5.111   2.560   2.378
 2280TIP3    H2 6782   5.167   2.532   2.516
 2281TIP3   OH2 6783   1.129   1.770   0.191
 2281TIP3    H1 6784   1.105   1.696   0.136
 2281TIP3    H2 6785   1.212   1.745   0.231
 2282TIP3   OH2 6786   6.719   7.547   2.966
 2282TIP3    H1 6787   6.667   7.543   3.047
 2282TIP3    H2 6788   6.766   7.464   2.963
 2283TIP3   OH2 6789   2.927   3.218   0.108
 2283TIP3    H1 6790   2.927   3.123   0.124
 2283TIP3    H2 6791   3.009   3.249   0.145
 2284TIP3   OH2 6792   5.893   1.470   2.363
 2284TIP3    H1 6793   5.853   1.437   2.444
 2284TIP3    H2 6794   5.987   1.473   2.382
 2285TIP3   OH2 6795   2.170   7.569   2.649
 2285TIP3    H1 6796   2.104   7.525   2.595
 2285TIP3    H2 6797   2.147   7.545   2.739
 2286TIP3   OH2 6798   1.617   1.497   6.093
 2286TIP3    H1 6799   1.671   1.576   6.099
 2286TIP3    H2 6800   1.679   1.427   6.069
 2287TIP3   OH2 6801   1.898   7.294   4.656
 2287TIP3    H1 6802   1.889   7.380   4.615
 2287TIP3    H2 6803   1.958   7.308   4.729
 2288TIP3   OH2 6804   2.240   7.080   2.096
 2288TIP3    H1 6805   2.207   7.064   2.185
 2288TIP3    H2 6806   2.192   7.157   2.067
 2289TIP3   OH2 6807   4.967   1.229   5.793
 2289TIP3    H1 6808   5.029   1.284   5.745
 2289TIP3    H2 6809   4.954   1.153   5.736
 2290TIP3   OH2 6810   2.810   2.842   4.976
 2290TIP3    H1 6811   2.767   2.925   4.994
 2290TIP3    H2 6812   2.869   2.861   4.903
 2291TIP3   OH2 6813   4.925   2.949   3.395
 2291TIP3    H1 6814   4.878   3.029   3.420
 2291TIP3    H2 6815   5.007   2.954   3.443
 2292TIP3   OH2 6816   0.676   1.483   6.834
 2292TIP3    H1 6817   0.599   1.426   6.835
 2292TIP3    H2 6818   0.750   1.423   6.835
 2293TIP3   OH2 6819   6.824   3.933   5.476
 2293TIP3    H1 6820   6.895   3.957   5.536
 2293TIP3    H2 6821   6.779   3.861   5.520
 2294TIP3   OH2 6822   5.902   4.272   4.306
 2294TIP3    H1 6823   5.828   4.333   4.310
 2294TIP3    H2 6824   5.879   4.203   4.368
 2295TIP3   OH2 6825   3.699   5.604   2.921
 2295TIP3    H1 6826   3.656   5.562   2.995
 2295TIP3    H2 6827   3.735   5.532   2.870
 2296TIP3   OH2 6828   7.756   1.573   1.844
 2296TIP3    H1 6829   7.680   1.551   1.790
 2296TIP3    H2 6830   7.719   1.616   1.921
 2297TIP3   OH2 6831   1.326   7.868   6.321
 2297TIP3    H1 6832   1.396   7.883   6.385
 2297TIP3    H2 6833   1.270   7.944   6.329
 2298TIP3   OH2 6834   7.903   5.883   5.210
 2298TIP3    H1 6835   7.873   5.972   5.191
 2298TIP3    H2 6836   7.881   5.869   5.302
 2299TIP3   OH2 6837   5.019   0.655   5.075
 2299TIP3    H1 6838   4.941   0.601   5.087
 2299TIP3    H2 6839   5.081   0.621   5.140
 2300TIP3   OH2 6840   5.129   4.865   0.809
 2300TIP3    H1 6841   5.217   4.864   0.771
 2300TIP3    H2 6842   5.106   4.773   0.819
 2301TIP3   OH2 6843   3.425   5.122   1.078
 2301TIP3    H1 6844   3.428   5.151   0.986
 2301TIP3    H2 6845   3.487   5.049   1.082
 2302TIP3   OH2 6846   4.549   0.411   6.349
 2302TIP3    H1 6847   4.613   0.464   6.301
 2302TIP3    H2 6848   4.555   0.325   6.308
 2303TIP3   OH2 6849   4.575   0.200   1.641
 2303TIP3    H1 6850   4.480   0.211   1.644
 2303TIP3    H2 6851   4.589   0.106   1.658
 2304TIP3   OH2 6852   5.525   5.290   3.798
 2304TIP3    H1 6853   5.542   5.365   3.855
 2304TIP3    H2 6854   5.494   5.221   3.857
 2305TIP3   OH2 6855   2.522   5.953   0.160
 2305TIP3    H1 6856   2.510   6.016   0.232
 2305TIP3    H2 6857   2.475   5.992   0.086
 2306TIP3   OH2 6858   5.576   4.645   5.217
 2306TIP3    H1 6859   5.487   4.656   5.184
 2306TIP3    H2 6860   5.565   4.621   5.309
 2307TIP3   OH2 6861   7.903   6.075   1.030
 2307TIP3    H1 6862   7.828   6.021   1.054
 2307TIP3    H2 6863   7.943   6.100   1.113
 2308TIP3   OH2 6864   2.580   0.337   1.360
 2308TIP3    H1 6865   2.671   0.349   1.390
 2308TIP3    H2 6866   2.584   0.261   1.302
 2309TIP3   OH2 6867   5.790   7.008   2.068
 2309TIP3    H1 6868   5.844   6.955   2.008
 2309TIP3    H2 6869   5.737   7.062   2.010
 2310TIP3   OH2 6870   4.177   2.029   1.369
 2310TIP3    H1 6871   4.124   2.095   1.326
 2310TIP3    H2 6872   4.268   2.057   1.352
 2311TIP3   OH2 6873   5.712   3.215   4.009
 2311TIP3    H1 6874   5.745   3.303   4.026
 2311TIP3    H2 6875   5.658   3.195   4.086
 2312TIP3   OH2 6876   6.674   7.140   4.567
 2312TIP3    H1 6877   6.601   7.107   4.516
 2312TIP3    H2 6878   6.635   7.169   4.650
 2313TIP3   OH2 6879   0.927   1.535   6.685
 2313TIP3    H1 6880   0.887   1.620   6.666
 2313TIP3    H2 6881   0.928   1.489   6.601
 2314TIP3   OH2 6882   5.079   4.568   2.893
 2314TIP3    H1 6883   5.037   4.501   2.840
 2314TIP3    H2 6884   5.057   4.545   2.983
 2315TIP3   OH2 6885   1.152   4.691   4.363
 2315TIP3    H1 6886   1.148   4.763   4.300
 2315TIP3    H2 6887   1.200   4.622   4.317
 2316TIP3   OH2 6888   5.753   1.072   2.399
 2316TIP3    H1 6889   5.806   1.039   2.471
 2316TIP3    H2 6890   5.802   1.146   2.365
 2317TIP3   OH2 6891   2.964   5.416   5.421
 2317TIP3    H1 6892   2.894   5.479   5.405
 2317TIP3    H2 6893   3.041   5.470   5.438
 2318TIP3   OH2 6894   7.308   3.886   0.920
 2318TIP3    H1 6895   7.397   3.918   0.932
 2318TIP3    H2 6896   7.295   3.823   0.991
 2319TIP3   OH2 6897   6.354   3.577   1.231
 2319TIP3    H1 6898   6.418   3.647   1.243
 2319TIP3    H2 6899   6.380   3.510   1.295
 2320TIP3   OH2 6900   1.129   5.361   1.936
 2320TIP3    H1 6901   1.190   5.418   1.982
 2320TIP3    H2 6902   1.072   5.421   1.888
 2321TIP3   OH2 6903   1.041   0.230   1.691
 2321TIP3    H1 6904   1.038   0.289   1.616
 2321TIP3    H2 6905   1.024   0.286   1.767
 2322TIP3   OH2 6906   5.158   2.690   5.945
 2322TIP3    H1 6907   5.247   2.656   5.955
 2322TIP3    H2 6908   5.102   2.616   5.965
 2323TIP3   OH2 6909   7.590   6.985   3.540
 2323TIP3    H1 6910   7.546   7.069   3.543
 2323TIP3    H2 6911   7.577   6.947   3.627
 2324TIP3   OH2 6912   2.718   7.595   3.607
 2324TIP3    H1 6913   2.757   7.683   3.606
 2324TIP3    H2 6914   2.635   7.607   3.653
 2325TIP3   OH2 6915   5.212   4.681   6.852
 2325TIP3    H1 6916   5.155   4.670   6.776
 2325TIP3    H2 6917   5.300   4.666   6.818
 2326TIP3   OH2 6918   0.209   5.791   5.400
 2326TIP3    H1 6919   0.182   5.765   5.488
 2326TIP3    H2 6920   0.165   5.729   5.342
 2327TIP3   OH2 6921   6.639   2.834   4.179
 2327TIP3    H1 6922   6.627   2.742   4.152
 2327TIP3    H2 6923   6.656   2.880   4.097
 2328TIP3   OH2 6924   6.868   3.182   6.585
 2328TIP3    H1 6925   6.805   3.213   6.651
 2328TIP3    H2 6926   6.813   3.147   6.515
 2329TIP3   OH2 6927   3.535   4.953   5.702
 2329TIP3    H1 6928   3.628   4.963   5.681
 2329TIP3    H2 6929   3.533   4.899   5.781
 2330TIP3   OH2 6930   0.097   1.933   2.914
 2330TIP3    H1 6931   0.037   1.901   2.847
 2330TIP3    H2 6932   0.040   1.973   2.980
 2331TIP3   OH2 6933   1.775   4.506   0.881
 2331TIP3    H1 6934   1.722   4.584   0.897
 2331TIP3    H2 6935   1.718   4.433   0.902
 2332TIP3   OH2 6936   6.776   3.516   2.874
 2332TIP3    H1 6937   6.856   3.479   2.837
 2332TIP3    H2 6938   6.763   3.597   2.825
 2333TIP3   OH2 6939   4.499   5.463   1.496
 2333TIP3    H1 6940   4.526   5.502   1.413
 2333TIP3    H2 6941   4.542   5.377   1.498
 2334TIP3   OH2 6942   6.197   0.996   2.621
 2334TIP3    H1 6943   6.190   1.091   2.623
 2334TIP3    H2 6944   6.142   0.965   2.693
 2335TIP3   OH2 6945   6.085   4.165   4.725
 2335TIP3    H1 6946   6.023   4.235   4.747
 2335TIP3    H2 6947   6.071   4.149   4.632
 2336TIP3   OH2 6948   1.014   0.117   3.277
 2336TIP3    H1 6949   1.078   0.054   3.309
 2336TIP3    H2 6950   0.950   0.064   3.229
 2337TIP3   OH2 6951   7.364   0.581   4.675
 2337TIP3    H1 6952   7.364   0.488   4.651
 2337TIP3    H2 6953   7.431   0.620   4.619
 2338TIP3   OH2 6954   8.240   1.259   4.701
 2338TIP3    H1 6955   8.264   1.176   4.743
 2338TIP3    H2 6956   8.156   1.240   4.658
 2339TIP3   OH2 6957   3.998   0.447   2.046
 2339TIP3    H1 6958   3.955   0.512   1.991
 2339TIP3    H2 6959   3.963   0.463   2.134
 2340TIP3   OH2 6960   1.183   6.115   0.125
 2340TIP3    H1 6961   1.129   6.194   0.130
 2340TIP3    H2 6962   1.156   6.073   0.043
 2341TIP3   OH2 6963   7.168   7.186   0.329
 2341TIP3    H1 6964   7.244   7.161   0.381
 2341TIP3    H2 6965   7.097   7.196   0.392
 2342TIP3   OH2 6966   4.315   2.760   5.399
 2342TIP3    H1 6967   4.290   2.720   5.482
 2342TIP3    H2 6968   4.360   2.691   5.352
 2343TIP3   OH2 6969   6.506   6.921   1.782
 2343TIP3    H1 6970   6.490   6.998   1.836
 2343TIP3    H2 6971   6.526   6.852   1.845
 2344TIP3   OH2 6972   2.688   5.918   6.289
 2344TIP3    H1 6973   2.738   5.905   6.369
 2344TIP3    H2 6974   2.597   5.923   6.319
 2345TIP3   OH2 6975   7.791   6.751   6.146
 2345TIP3    H1 6976   7.882   6.769   6.171
 2345TIP3    H2 6977   7.739   6.804   6.206
 2346TIP3   OH2 6978   3.645   0.770   6.860
 2346TIP3    H1 6979   3.566   0.822   6.846
 2346TIP3    H2 6980   3.639   0.700   6.796
 2347TIP3   OH2 6981   7.413   1.448   4.835
 2347TIP3    H1 6982   7.348   1.506   4.874
 2347TIP3    H2 6983   7.379   1.360   4.850
 2348TIP3   OH2 6984   4.728   7.390   4.206
 2348TIP3    H1 6985   4.771   7.447   4.142
 2348TIP3    H2 6986   4.698   7.315   4.154
 2349TIP3   OH2 6987   2.072   0.736   2.515
 2349TIP3    H1 6988   1.998   0.701   2.565
 2349TIP3    H2 6989   2.038   0.815   2.472
 2350TIP3   OH2 6990   4.878   7.262   3.250
 2350TIP3    H1 6991   4.953   7.207   3.273
 2350TIP3    H2 6992   4.814   7.202   3.214
 2351TIP3   OH2 6993   2.637   2.797   0.627
 2351TIP3    H1 6994   2.708   2.852   0.659
 2351TIP3    H2 6995   2.591   2.853   0.564
 2352TIP3   OH2 6996   5.045   5.499   0.668
 2352TIP3    H1 6997   5.108   5.469   0.603
 2352TIP3    H2 6998   5.055   5.594   0.670
 2353TIP3   OH2 6999   4.637   5.698   1.669
 2353TIP3    H1 7000   4.575   5.626   1.654
 2353TIP3    H2 7001   4.627   5.755   1.592
 2354TIP3   OH2 7002   5.031   0.270   3.596
 2354TIP3    H1 7003   4.981   0.326   3.654
 2354TIP3    H2 7004   5.114   0.257   3.642
 2355TIP3   OH2 7005   3.135   0.880   6.117
 2355TIP3    H1 7006   3.207   0.823   6.090
 2355TIP3    H2 7007   3.177   0.950   6.167
 2356TIP3   OH2 7008   2.433   1.521   1.252
 2356TIP3    H1 7009   2.431   1.428   1.228
 2356TIP3    H2 7010   2.463   1.521   1.343
 2357TIP3   OH2 7011   1.401   2.166   5.886
 2357TIP3    H1 7012   1.466   2.168   5.816
 2357TIP3    H2 7013   1.320   2.136   5.842
 2358TIP3   OH2 7014   7.157   0.028   5.647
 2358TIP3    H1 7015   7.062   0.043   5.647
 2358TIP3    H2 7016   7.195   0.116   5.650
 2359TIP3   OH2 7017   0.905   7.548   0.038
 2359TIP3    H1 7018   0.990   7.591   0.038
 2359TIP3    H2 7019   0.881   7.541  -0.055
 2360TIP3   OH2 7020   1.611   1.558   4.781
 2360TIP3    H1 7021   1.677   1.568   4.849
 2360TIP3    H2 7022   1.578   1.647   4.766
 2361TIP3   OH2 7023   1.943   2.795   4.415
 2361TIP3    H1 7024   1.993   2.754   4.485
 2361TIP3    H2 7025   1.875   2.732   4.393
 2362TIP3   OH2 7026   2.665   1.071   2.546
 2362TIP3    H1 7027   2.670   1.049   2.639
 2362TIP3    H2 7028   2.599   1.011   2.511
 2363TIP3   OH2 7029   1.220   2.987   4.132
 2363TIP3    H1 7030   1.141   2.935   4.118
 2363TIP3    H2 7031   1.205   3.067   4.081
 2364TIP3   OH2 7032   0.197   1.024   3.081
 2364TIP3    H1 7033   0.235   1.109   3.062
 2364TIP3    H2 7034   0.153   0.998   3.000
 2365TIP3   OH2 7035   1.709   6.104   5.152
 2365TIP3    H1 7036   1.685   6.171   5.217
 2365TIP3    H2 7037   1.799   6.082   5.174
 2366TIP3   OH2 7038   1.251   4.200   3.573
 2366TIP3    H1 7039   1.195   4.261   3.621
 2366TIP3    H2 7040   1.240   4.225   3.481
 2367TIP3   OH2 7041   8.028   0.941   6.784
 2367TIP3    H1 7042   8.097   0.904   6.839
 2367TIP3    H2 7043   8.056   0.923   6.694
 2368TIP3   OH2 7044   6.029   6.969   1.296
 2368TIP3    H1 7045   6.044   7.063   1.283
 2368TIP3    H2 7046   5.968   6.945   1.226
 2369TIP3   OH2 7047   3.708   0.281   0.031
 2369TIP3    H1 7048   3.734   0.321   0.113
 2369TIP3    H2 7049   3.709   0.187   0.049
 2370TIP3   OH2 7050   4.986   5.072   2.101
 2370TIP3    H1 7051   4.955   5.134   2.168
 2370TIP3    H2 7052   5.028   5.002   2.151
 2371TIP3   OH2 7053   5.707   7.707   5.664
 2371TIP3    H1 7054   5.732   7.730   5.754
 2371TIP3    H2 7055   5.630   7.761   5.646
 2372TIP3   OH2 7056   3.997   2.429   4.769
 2372TIP3    H1 7057   4.040   2.504   4.812
 2372TIP3    H2 7058   3.908   2.430   4.803
 2373TIP3   OH2 7059   0.468   6.024   1.139
 2373TIP3    H1 7060   0.491   5.945   1.188
 2373TIP3    H2 7061   0.372   6.026   1.140
 2374TIP3   OH2 7062   4.197   1.630   4.211
 2374TIP3    H1 7063   4.224   1.607   4.300
 2374TIP3    H2 7064   4.251   1.576   4.154
 2375TIP3   OH2 7065   4.538   1.589   4.835
 2375TIP3    H1 7066   4.454   1.555   4.866
 2375TIP3    H2 7067   4.553   1.544   4.752
 2376TIP3   OH2 7068   2.699   5.899   4.040
 2376TIP3    H1 7069   2.742   5.814   4.030
 2376TIP3    H2 7070   2.763   5.962   4.006
 2377TIP3   OH2 7071   5.323   1.418   3.952
 2377TIP3    H1 7072   5.257   1.362   3.912
 2377TIP3    H2 7073   5.404   1.368   3.945
 2378TIP3   OH2 7074   2.643   1.311   0.534
 2378TIP3    H1 7075   2.647   1.300   0.629
 2378TIP3    H2 7076   2.557   1.279   0.509
 2379TIP3   OH2 7077   7.688   0.066   0.382
 2379TIP3    H1 7078   7.608   0.024   0.350
 2379TIP3    H2 7079   7.692   0.149   0.335
 2380TIP3   OH2 7080   4.743   4.928   1.259
 2380TIP3    H1 7081   4.798   4.995   1.218
 2380TIP3    H2 7082   4.793   4.847   1.249
 2381TIP3   OH2 7083   8.044   2.172   6.302
 2381TIP3    H1 7084   7.952   2.165   6.325
 2381TIP3    H2 7085   8.047   2.161   6.207
 2382TIP3   OH2 7086   5.246   5.002   1.734
 2382TIP3    H1 7087   5.215   5.076   1.784
 2382TIP3    H2 7088   5.255   5.035   1.644
 2383TIP3   OH2 7089   5.811   4.831   0.683
 2383TIP3    H1 7090   5.873   4.893   0.645
 2383TIP3    H2 7091   5.791   4.770   0.611
 2384TIP3   OH2 7092   0.601   0.630   1.923
 2384TIP3    H1 7093   0.543   0.686   1.871
 2384TIP3    H2 7094   0.672   0.688   1.951
 2385TIP3   OH2 7095   1.284   5.407   5.695
 2385TIP3    H1 7096   1.301   5.398   5.601
 2385TIP3    H2 7097   1.247   5.322   5.720
 2386TIP3   OH2 7098   1.504   4.987   5.196
 2386TIP3    H1 7099   1.447   5.063   5.189
 2386TIP3    H2 7100   1.592   5.021   5.181
 2387TIP3   OH2 7101   6.208   5.195   1.638
 2387TIP3    H1 7102   6.260   5.170   1.562
 2387TIP3    H2 7103   6.132   5.241   1.602
 2388TIP3   OH2 7104   1.761   3.273   2.142
 2388TIP3    H1 7105   1.737   3.227   2.222
 2388TIP3    H2 7106   1.807   3.208   2.089
 2389TIP3   OH2 7107   1.372   3.155   6.125
 2389TIP3    H1 7108   1.456   3.137   6.083
 2389TIP3    H2 7109   1.343   3.070   6.157
 2390TIP3   OH2 7110   0.741   1.696   4.895
 2390TIP3    H1 7111   0.674   1.650   4.945
 2390TIP3    H2 7112   0.819   1.640   4.903
 2391TIP3   OH2 7113   6.893   2.895   0.906
 2391TIP3    H1 7114   6.924   2.830   0.970
 2391TIP3    H2 7115   6.835   2.952   0.956
 2392TIP3   OH2 7116   7.534   1.554   5.849
 2392TIP3    H1 7117   7.542   1.520   5.937
 2392TIP3    H2 7118   7.443   1.585   5.843
 2393TIP3   OH2 7119   7.646   2.069   4.873
 2393TIP3    H1 7120   7.712   2.001   4.865
 2393TIP3    H2 7121   7.594   2.044   4.949
 2394TIP3   OH2 7122   5.915   6.706   3.206
 2394TIP3    H1 7123   5.941   6.655   3.282
 2394TIP3    H2 7124   5.988   6.766   3.190
 2395TIP3   OH2 7125   0.572   0.277   5.436
 2395TIP3    H1 7126   0.665   0.266   5.416
 2395TIP3    H2 7127   0.553   0.208   5.499
 2396TIP3   OH2 7128   3.743   1.595   2.493
 2396TIP3    H1 7129   3.701   1.679   2.477
 2396TIP3    H2 7130   3.825   1.599   2.442
 2397TIP3   OH2 7131   5.359   3.190   6.082
 2397TIP3    H1 7132   5.298   3.258   6.110
 2397TIP3    H2 7133   5.316   3.108   6.107
 2398TIP3   OH2 7134   0.077   7.076   5.111
 2398TIP3    H1 7135   0.168   7.054   5.135
 2398TIP3    H2 7136   0.058   7.154   5.162
 2399TIP3   OH2 7137   6.697   7.558   6.246
 2399TIP3    H1 7138   6.708   7.463   6.233
 2399TIP3    H2 7139   6.786   7.591   6.256
 2400TIP3   OH2 7140   4.827   5.113   3.511
 2400TIP3    H1 7141   4.773   5.146   3.583
 2400TIP3    H2 7142   4.915   5.146   3.532
 2401TIP3   OH2 7143   7.713   6.193   2.337
 2401TIP3    H1 7144   7.641   6.255   2.345
 2401TIP3    H2 7145   7.741   6.199   2.246
 2402TIP3   OH2 7146   3.453   1.941   3.046
 2402TIP3    H1 7147   3.489   1.860   3.010
 2402TIP3    H2 7148   3.497   2.010   2.997
 2403TIP3   OH2 7149   1.216   2.217   0.276
 2403TIP3    H1 7150   1.190   2.177   0.193
 2403TIP3    H2 7151   1.291   2.165   0.306
 2404TIP3   OH2 7152   4.093   0.567   2.702
 2404TIP3    H1 7153   4.131   0.509   2.768
 2404TIP3    H2 7154   4.028   0.619   2.750
 2405TIP3   OH2 7155   4.245   7.232   4.492
 2405TIP3    H1 7156   4.339   7.247   4.493
 2405TIP3    H2 7157   4.218   7.251   4.402
 2406TIP3   OH2 7158   0.890   3.141   2.720
 2406TIP3    H1 7159   0.963   3.081   2.719
 2406TIP3    H2 7160   0.905   3.199   2.645
 2407TIP3   OH2 7161   7.523   1.342   5.328
 2407TIP3    H1 7162   7.490   1.415   5.381
 2407TIP3    H2 7163   7.590   1.301   5.382
 2408TIP3   OH2 7164   1.852   4.387   2.365
 2408TIP3    H1 7165   1.923   4.445   2.392
 2408TIP3    H2 7166   1.849   4.395   2.270
 2409TIP3   OH2 7167   3.477   7.361   4.058
 2409TIP3    H1 7168   3.532   7.301   4.009
 2409TIP3    H2 7169   3.406   7.307   4.092
 2410TIP3   OH2 7170   6.463   4.730   3.300
 2410TIP3    H1 7171   6.555   4.753   3.313
 2410TIP3    H2 7172   6.430   4.712   3.387
 2411TIP3   OH2 7173   5.795   6.542   1.222
 2411TIP3    H1 7174   5.858   6.538   1.151
 2411TIP3    H2 7175   5.833   6.604   1.285
 2412TIP3   OH2 7176   2.762   6.951   6.100
 2412TIP3    H1 7177   2.805   7.036   6.092
 2412TIP3    H2 7178   2.827   6.889   6.069
 2413TIP3   OH2 7179   3.132   1.114   2.781
 2413TIP3    H1 7180   3.050   1.091   2.825
 2413TIP3    H2 7181   3.111   1.108   2.688
 2414TIP3   OH2 7182   8.326   5.959   2.818
 2414TIP3    H1 7183   8.340   5.892   2.751
 2414TIP3    H2 7184   8.333   5.912   2.901
 2415TIP3   OH2 7185   3.177   7.478   6.238
 2415TIP3    H1 7186   3.091   7.502   6.273
 2415TIP3    H2 7187   3.195   7.392   6.275
 2416TIP3   OH2 7188   1.985   6.323   2.126
 2416TIP3    H1 7189   2.033   6.403   2.105
 2416TIP3    H2 7190   2.018   6.296   2.212
 2417TIP3   OH2 7191   8.151   4.637   6.707
 2417TIP3    H1 7192   8.227   4.626   6.764
 2417TIP3    H2 7193   8.101   4.709   6.746
 2418TIP3   OH2 7194   3.153   5.098   3.486
 2418TIP3    H1 7195   3.110   5.032   3.540
 2418TIP3    H2 7196   3.241   5.106   3.525
 2419TIP3   OH2 7197   4.448   2.992   5.503
 2419TIP3    H1 7198   4.515   3.049   5.464
 2419TIP3    H2 7199   4.395   2.963   5.429
 2420TIP3   OH2 7200   3.141   5.756   2.844
 2420TIP3    H1 7201   3.117   5.699   2.916
 2420TIP3    H2 7202   3.085   5.833   2.854
 2421TIP3   OH2 7203   7.038   2.822   0.192
 2421TIP3    H1 7204   6.961   2.770   0.216
 2421TIP3    H2 7205   7.016   2.912   0.218
 2422TIP3   OH2 7206   5.585   5.548   2.528
 2422TIP3    H1 7207   5.545   5.626   2.489
 2422TIP3    H2 7208   5.591   5.485   2.456
 2423TIP3   OH2 7209   6.333   6.146   2.486
 2423TIP3    H1 7210   6.427   6.160   2.476
 2423TIP3    H2 7211   6.313   6.184   2.572
 2424TIP3   OH2 7212   2.099   5.496   0.116
 2424TIP3    H1 7213   2.057   5.453   0.190
 2424TIP3    H2 7214   2.161   5.557   0.156
 2425TIP3   OH2 7215   3.934   1.386   0.347
 2425TIP3    H1 7216   3.888   1.365   0.266
 2425TIP3    H2 7217   3.865   1.408   0.409
 2426TIP3   OH2 7218   6.212   2.241   4.887
 2426TIP3    H1 7219   6.218   2.335   4.870
 2426TIP3    H2 7220   6.182   2.204   4.804
 2427TIP3   OH2 7221   3.505   1.349   6.712
 2427TIP3    H1 7222   3.431   1.298   6.678
 2427TIP3    H2 7223   3.551   1.289   6.770
 2428TIP3   OH2 7224   4.710   3.694   2.371
 2428TIP3    H1 7225   4.749   3.644   2.299
 2428TIP3    H2 7226   4.692   3.629   2.439
 2429TIP3   OH2 7227   0.594   0.407   5.098
 2429TIP3    H1 7228   0.630   0.439   5.015
 2429TIP3    H2 7229   0.604   0.481   5.158
 2430TIP3   OH2 7230   0.945   7.157   0.358
 2430TIP3    H1 7231   0.947   7.204   0.275
 2430TIP3    H2 7232   0.864   7.107   0.355
 2431TIP3   OH2 7233   8.293   7.167   0.203
 2431TIP3    H1 7234   8.227   7.162   0.134
 2431TIP3    H2 7235   8.376   7.175   0.155
 2432TIP3   OH2 7236   4.320   3.939   4.453
 2432TIP3    H1 7237   4.273   4.022   4.465
 2432TIP3    H2 7238   4.361   3.947   4.367
 2433TIP3   OH2 7239   1.189   1.769   0.661
 2433TIP3    H1 7240   1.116   1.710   0.638
 2433TIP3    H2 7241   1.147   1.852   0.683
 2434TIP3   OH2 7242   4.097   0.637   6.325
 2434TIP3    H1 7243   4.150   0.695   6.379
 2434TIP3    H2 7244   4.150   0.621   6.247
 2435TIP3   OH2 7245   7.371   5.846   3.857
 2435TIP3    H1 7246   7.450   5.810   3.897
 2435TIP3    H2 7247   7.402   5.891   3.778
 2436TIP3   OH2 7248   7.903   1.519   3.394
 2436TIP3    H1 7249   7.926   1.432   3.359
 2436TIP3    H2 7250   7.808   1.524   3.386
 2437TIP3   OH2 7251   7.162   7.741   3.581
 2437TIP3    H1 7252   7.145   7.720   3.673
 2437TIP3    H2 7253   7.255   7.725   3.570
 2438TIP3   OH2 7254   5.847   3.684   3.350
 2438TIP3    H1 7255   5.938   3.681   3.320
 2438TIP3    H2 7256   5.804   3.747   3.291
 2439TIP3   OH2 7257   6.789   0.988   0.698
 2439TIP3    H1 7258   6.832   1.072   0.714
 2439TIP3    H2 7259   6.707   0.994   0.746
 2440TIP3   OH2 7260   0.294   1.036   4.726
 2440TIP3    H1 7261   0.240   0.971   4.681
 2440TIP3    H2 7262   0.232   1.106   4.749
 2441TIP3   OH2 7263   0.415   6.016   0.366
 2441TIP3    H1 7264   0.482   6.032   0.300
 2441TIP3    H2 7265   0.390   6.103   0.398
 2442TIP3   OH2 7266   2.222   3.113   4.940
 2442TIP3    H1 7267   2.191   3.032   4.898
 2442TIP3    H2 7268   2.306   3.131   4.898
 2443TIP3   OH2 7269   5.121   0.776   2.896
 2443TIP3    H1 7270   5.194   0.737   2.944
 2443TIP3    H2 7271   5.160   0.808   2.815
 2444TIP3   OH2 7272   4.374   1.738   3.456
 2444TIP3    H1 7273   4.427   1.681   3.512
 2444TIP3    H2 7274   4.414   1.730   3.369
 2445TIP3   OH2 7275   6.778   4.526   5.913
 2445TIP3    H1 7276   6.714   4.576   5.862
 2445TIP3    H2 7277   6.726   4.457   5.954
 2446TIP3   OH2 7278   3.847   5.031   5.357
 2446TIP3    H1 7279   3.882   4.993   5.437
 2446TIP3    H2 7280   3.879   5.122   5.357
 2447TIP3   OH2 7281   3.809   5.459   4.222
 2447TIP3    H1 7282   3.901   5.485   4.224
 2447TIP3    H2 7283   3.769   5.506   4.295
 2448TIP3   OH2 7284   5.387   4.697   2.142
 2448TIP3    H1 7285   5.417   4.641   2.213
 2448TIP3    H2 7286   5.428   4.782   2.159
 2449TIP3   OH2 7287   7.887   4.061   3.846
 2449TIP3    H1 7288   7.871   4.009   3.768
 2449TIP3    H2 7289   7.967   4.024   3.883
 2450TIP3   OH2 7290   4.260   2.009   1.638
 2450TIP3    H1 7291   4.259   2.105   1.630
 2450TIP3    H2 7292   4.266   1.977   1.548
 2451TIP3   OH2 7293   4.397   3.424   2.861
 2451TIP3    H1 7294   4.407   3.432   2.766
 2451TIP3    H2 7295   4.322   3.365   2.872
 2452TIP3   OH2 7296   6.084   3.115   2.118
 2452TIP3    H1 7297   6.059   3.067   2.040
 2452TIP3    H2 7298   6.014   3.096   2.181
 2453TIP3   OH2 7299   0.415   5.535   1.322
 2453TIP3    H1 7300   0.427   5.501   1.410
 2453TIP3    H2 7301   0.396   5.458   1.268
 2454TIP3   OH2 7302   0.484   0.619   0.958
 2454TIP3    H1 7303   0.538   0.640   0.882
 2454TIP3    H2 7304   0.432   0.544   0.930
 2455TIP3   OH2 7305   0.516   1.342   5.337
 2455TIP3    H1 7306   0.537   1.260   5.291
 2455TIP3    H2 7307   0.483   1.314   5.422
 2456TIP3   OH2 7308   3.404   6.955   5.512
 2456TIP3    H1 7309   3.362   7.008   5.580
 2456TIP3    H2 7310   3.379   6.997   5.430
 2457TIP3   OH2 7311   3.158   2.507   1.737
 2457TIP3    H1 7312   3.079   2.454   1.739
 2457TIP3    H2 7313   3.225   2.448   1.702
 2458TIP3   OH2 7314   3.964   6.645   3.422
 2458TIP3    H1 7315   3.970   6.632   3.517
 2458TIP3    H2 7316   3.927   6.564   3.389
 2459TIP3   OH2 7317   4.616   6.569   6.265
 2459TIP3    H1 7318   4.662   6.638   6.314
 2459TIP3    H2 7319   4.630   6.591   6.173
 2460TIP3   OH2 7320   2.463   2.619   6.468
 2460TIP3    H1 7321   2.437   2.632   6.377
 2460TIP3    H2 7322   2.558   2.620   6.467
 2461TIP3   OH2 7323   7.203   3.695   0.224
 2461TIP3    H1 7324   7.267   3.675   0.156
 2461TIP3    H2 7325   7.249   3.678   0.306
 2462TIP3   OH2 7326   6.118   6.207   1.254
 2462TIP3    H1 7327   6.083   6.251   1.176
 2462TIP3    H2 7328   6.196   6.161   1.222
 2463TIP3   OH2 7329   6.824   0.720   5.980
 2463TIP3    H1 7330   6.887   0.657   5.943
 2463TIP3    H2 7331   6.872   0.764   6.050
 2464TIP3   OH2 7332   7.577   6.862   5.632
 2464TIP3    H1 7333   7.609   6.945   5.668
 2464TIP3    H2 7334   7.616   6.795   5.688
 2465TIP3   OH2 7335   6.291   4.664   3.101
 2465TIP3    H1 7336   6.226   4.724   3.066
 2465TIP3    H2 7337   6.345   4.717   3.160
 2466TIP3   OH2 7338   8.136   2.766   1.147
 2466TIP3    H1 7339   8.170   2.836   1.204
 2466TIP3    H2 7340   8.044   2.789   1.135
 2467TIP3   OH2 7341   5.403   1.907   1.522
 2467TIP3    H1 7342   5.374   1.991   1.487
 2467TIP3    H2 7343   5.425   1.855   1.445
 2468TIP3   OH2 7344   4.997   5.691   5.179
 2468TIP3    H1 7345   4.917   5.686   5.231
 2468TIP3    H2 7346   5.067   5.698   5.244
 2469TIP3   OH2 7347   5.953   3.743   1.739
 2469TIP3    H1 7348   5.915   3.661   1.769
 2469TIP3    H2 7349   5.961   3.733   1.644
 2470TIP3   OH2 7350   2.437   3.601   1.134
 2470TIP3    H1 7351   2.474   3.677   1.089
 2470TIP3    H2 7352   2.477   3.602   1.221
 2471TIP3   OH2 7353   5.186   5.746   5.391
 2471TIP3    H1 7354   5.230   5.830   5.403
 2471TIP3    H2 7355   5.235   5.685   5.445
 2472TIP3   OH2 7356   6.784   2.023   3.561
 2472TIP3    H1 7357   6.798   2.100   3.507
 2472TIP3    H2 7358   6.854   2.026   3.626
 2473TIP3   OH2 7359   7.286   5.895   1.065
 2473TIP3    H1 7360   7.212   5.838   1.083
 2473TIP3    H2 7361   7.301   5.942   1.147
 2474TIP3   OH2 7362   3.329   7.131   0.789
 2474TIP3    H1 7363   3.242   7.109   0.755
 2474TIP3    H2 7364   3.379   7.050   0.781
 2475TIP3   OH2 7365   3.577   4.817   1.410
 2475TIP3    H1 7366   3.566   4.722   1.400
 2475TIP3    H2 7367   3.615   4.828   1.497
 2476TIP3   OH2 7368   6.599   1.560   3.403
 2476TIP3    H1 7369   6.584   1.653   3.416
 2476TIP3    H2 7370   6.655   1.534   3.476
 2477TIP3   OH2 7371   3.224   2.798   5.164
 2477TIP3    H1 7372   3.152   2.808   5.226
 2477TIP3    H2 7373   3.210   2.713   5.123
 2478TIP3   OH2 7374   4.328   7.577   0.084
 2478TIP3    H1 7375   4.334   7.609   0.175
 2478TIP3    H2 7376   4.238   7.545   0.076
 2479TIP3   OH2 7377   5.665   0.055   4.040
 2479TIP3    H1 7378   5.651   0.059   4.135
 2479TIP3    H2 7379   5.753   0.091   4.028
 2480TIP3   OH2 7380   4.945   2.837   3.751
 2480TIP3    H1 7381   4.992   2.793   3.680
 2480TIP3    H2 7382   4.943   2.773   3.822
 2481TIP3   OH2 7383   0.701   0.007   6.572
 2481TIP3    H1 7384   0.735  -0.063   6.517
 2481TIP3    H2 7385   0.723   0.088   6.524
 2482TIP3   OH2 7386   0.695   7.189   3.144
 2482TIP3    H1 7387   0.750   7.222   3.073
 2482TIP3    H2 7388   0.754   7.183   3.219
 2483TIP3   OH2 7389   1.173   4.120   6.360
 2483TIP3    H1 7390   1.269   4.116   6.367
 2483TIP3    H2 7391   1.157   4.197   6.306
 2484TIP3   OH2 7392   6.543   5.760   2.421
 2484TIP3    H1 7393   6.573   5.848   2.397
 2484TIP3    H2 7394   6.491   5.774   2.501
 2485TIP3   OH2 7395   7.019   3.924   1.158
 2485TIP3    H1 7396   7.111   3.905   1.174
 2485TIP3    H2 7397   6.998   3.994   1.220
 2486TIP3   OH2 7398   2.158   7.764   1.408
 2486TIP3    H1 7399   2.193   7.800   1.327
 2486TIP3    H2 7400   2.133   7.840   1.460
 2487TIP3   OH2 7401   3.915   3.108   4.218
 2487TIP3    H1 7402   3.990   3.152   4.257
 2487TIP3    H2 7403   3.932   3.015   4.231
 2488TIP3   OH2 7404   3.775   6.638   1.826
 2488TIP3    H1 7405   3.836   6.591   1.768
 2488TIP3    H2 7406   3.744   6.571   1.887
 2489TIP3   OH2 7407   1.964   7.507   2.487
 2489TIP3    H1 7408   1.956   7.593   2.445
 2489TIP3    H2 7409   1.930   7.446   2.422
 2490TIP3   OH2 7410   7.214   0.366   5.674
 2490TIP3    H1 7411   7.191   0.408   5.591
 2490TIP3    H2 7412   7.218   0.438   5.737
 2491TIP3   OH2 7413   4.947   7.766   3.384
 2491TIP3    H1 7414   4.963   7.767   3.478
 2491TIP3    H2 7415   4.892   7.689   3.370
 2492TIP3   OH2 7416   8.403   1.147   4.375
 2492TIP3    H1 7417   8.389   1.208   4.448
 2492TIP3    H2 7418   8.334   1.082   4.385
 2493TIP3   OH2 7419   4.744   1.956   5.713
 2493TIP3    H1 7420   4.675   1.945   5.778
 2493TIP3    H2 7421   4.703   1.933   5.630
 2494TIP3   OH2 7422   7.124   6.540   2.918
 2494TIP3    H1 7423   7.218   6.544   2.905
 2494TIP3    H2 7424   7.098   6.631   2.934
 2495TIP3   OH2 7425   4.207   4.990   5.468
 2495TIP3    H1 7426   4.139   5.055   5.482
 2495TIP3    H2 7427   4.269   5.033   5.408
 2496TIP3   OH2 7428   0.273   1.339   1.059
 2496TIP3    H1 7429   0.208   1.289   1.009
 2496TIP3    H2 7430   0.221   1.390   1.122
 2497TIP3   OH2 7431   5.575   5.835   3.722
 2497TIP3    H1 7432   5.549   5.749   3.755
 2497TIP3    H2 7433   5.625   5.816   3.642
 2498TIP3   OH2 7434   1.384   2.028   0.321
 2498TIP3    H1 7435   1.339   1.945   0.302
 2498TIP3    H2 7436   1.469   2.001   0.355
 2499TIP3   OH2 7437   5.612   2.713   0.880
 2499TIP3    H1 7438   5.696   2.702   0.836
 2499TIP3    H2 7439   5.547   2.702   0.811
 2500TIP3   OH2 7440   4.954   6.938   2.270
 2500TIP3    H1 7441   5.032   6.891   2.299
 2500TIP3    H2 7442   4.902   6.950   2.350
 2501TIP3   OH2 7443   1.871   0.566   4.221
 2501TIP3    H1 7444   1.959   0.592   4.249
 2501TIP3    H2 7445   1.885   0.511   4.145
 2502TIP3   OH2 7446   0.667   7.649   5.929
 2502TIP3    H1 7447   0.719   7.580   5.888
 2502TIP3    H2 7448   0.723   7.683   5.999
 2503TIP3   OH2 7449   7.860   4.945   3.470
 2503TIP3    H1 7450   7.934   4.889   3.493
 2503TIP3    H2 7451   7.846   4.929   3.377
 2504TIP3   OH2 7452   5.002   6.036   0.563
 2504TIP3    H1 7453   5.065   6.097   0.524
 2504TIP3    H2 7454   4.953   6.089   0.625
 2505TIP3   OH2 7455   2.894   0.157   5.533
 2505TIP3    H1 7456   2.895   0.063   5.517
 2505TIP3    H2 7457   2.982   0.186   5.507
 2506TIP3   OH2 7458   1.287   7.039   3.599
 2506TIP3    H1 7459   1.193   7.035   3.612
 2506TIP3    H2 7460   1.303   7.126   3.562
 2507TIP3   OH2 7461   6.317   3.745   0.264
 2507TIP3    H1 7462   6.411   3.733   0.258
 2507TIP3    H2 7463   6.305   3.809   0.334
 2508TIP3   OH2 7464   4.164   4.233   5.044
 2508TIP3    H1 7465   4.166   4.171   5.116
 2508TIP3    H2 7466   4.245   4.283   5.052
 2509TIP3   OH2 7467   3.391   5.176   2.832
 2509TIP3    H1 7468   3.318   5.138   2.881
 2509TIP3    H2 7469   3.373   5.270   2.832
 2510TIP3   OH2 7470   6.570   6.585   3.221
 2510TIP3    H1 7471   6.633   6.589   3.293
 2510TIP3    H2 7472   6.485   6.578   3.265
 2511TIP3   OH2 7473   7.596   2.503   0.313
 2511TIP3    H1 7474   7.610   2.447   0.391
 2511TIP3    H2 7475   7.547   2.578   0.346
 2512TIP3   OH2 7476   0.794   0.982   4.904
 2512TIP3    H1 7477   0.872   0.976   4.959
 2512TIP3    H2 7478   0.763   1.072   4.916
 2513TIP3   OH2 7479   3.502   7.866   5.969
 2513TIP3    H1 7480   3.448   7.830   6.040
 2513TIP3    H2 7481   3.485   7.809   5.895
 2514TIP3   OH2 7482   6.997   1.934   3.733
 2514TIP3    H1 7483   7.085   1.900   3.719
 2514TIP3    H2 7484   6.965   1.888   3.810
 2515TIP3   OH2 7485   4.536   3.683   0.150
 2515TIP3    H1 7486   4.561   3.686   0.058
 2515TIP3    H2 7487   4.620   3.688   0.197
 2516TIP3   OH2 7488   6.836   7.817   4.904
 2516TIP3    H1 7489   6.829   7.790   4.812
 2516TIP3    H2 7490   6.903   7.760   4.941
 2517TIP3   OH2 7491   1.667   5.781   3.778
 2517TIP3    H1 7492   1.581   5.808   3.743
 2517TIP3    H2 7493   1.725   5.854   3.756
 2518TIP3   OH2 7494   6.961   2.584   5.657
 2518TIP3    H1 7495   7.041   2.570   5.708
 2518TIP3    H2 7496   6.988   2.571   5.566
 2519TIP3   OH2 7497   0.875   0.595   2.132
 2519TIP3    H1 7498   0.795   0.546   2.111
 2519TIP3    H2 7499   0.899   0.565   2.219
 2520TIP3   OH2 7500   2.585   6.348   2.949
 2520TIP3    H1 7501   2.662   6.405   2.948
 2520TIP3    H2 7502   2.514   6.404   2.979
 2521TIP3   OH2 7503   0.791   4.418   4.411
 2521TIP3    H1 7504   0.877   4.378   4.423
 2521TIP3    H2 7505   0.787   4.487   4.477
 2522TIP3   OH2 7506   3.579   3.266   4.819
 2522TIP3    H1 7507   3.619   3.181   4.835
 2522TIP3    H2 7508   3.489   3.246   4.793
 2523TIP3   OH2 7509   3.726   6.504   2.112
 2523TIP3    H1 7510   3.805   6.552   2.087
 2523TIP3    H2 7511   3.729   6.503   2.208
 2524TIP3   OH2 7512   1.518   1.528   0.257
 2524TIP3    H1 7513   1.612   1.529   0.242
 2524TIP3    H2 7514   1.484   1.468   0.190
 2525TIP3   OH2 7515   4.515   3.679   5.609
 2525TIP3    H1 7516   4.498   3.766   5.646
 2525TIP3    H2 7517   4.606   3.682   5.579
 2526TIP3   OH2 7518   3.575   3.275   2.595
 2526TIP3    H1 7519   3.496   3.327   2.608
 2526TIP3    H2 7520   3.622   3.283   2.678
 2527TIP3   OH2 7521   5.659   7.774   1.792
 2527TIP3    H1 7522   5.658   7.713   1.867
 2527TIP3    H2 7523   5.568   7.804   1.785
 2528TIP3   OH2 7524   1.282   5.892   1.669
 2528TIP3    H1 7525   1.258   5.803   1.645
 2528TIP3    H2 7526   1.243   5.946   1.600
 2529TIP3   OH2 7527   4.996   6.036   4.438
 2529TIP3    H1 7528   4.976   5.979   4.513
 2529TIP3    H2 7529   5.091   6.049   4.444
 2530TIP3   OH2 7530   1.507   3.894   2.849
 2530TIP3    H1 7531   1.430   3.947   2.871
 2530TIP3    H2 7532   1.536   3.928   2.765
 2531TIP3   OH2 7533   2.726   5.383   4.243
 2531TIP3    H1 7534   2.692   5.401   4.155
 2531TIP3    H2 7535   2.737   5.288   4.246
 2532TIP3   OH2 7536   1.235   6.642   3.955
 2532TIP3    H1 7537   1.237   6.732   3.924
 2532TIP3    H2 7538   1.301   6.638   4.024
 2533TIP3   OH2 7539   1.416   2.975   2.764
 2533TIP3    H1 7540   1.487   2.986   2.827
 2533TIP3    H2 7541   1.443   2.901   2.709
 2534TIP3   OH2 7542   3.696   5.517   3.615
 2534TIP3    H1 7543   3.713   5.460   3.690
 2534TIP3    H2 7544   3.656   5.459   3.550
 2535TIP3   OH2 7545   8.033   5.260   6.322
 2535TIP3    H1 7546   7.986   5.316   6.384
 2535TIP3    H2 7547   7.980   5.261   6.243
 2536TIP3   OH2 7548   6.492   0.038   2.669
 2536TIP3    H1 7549   6.522   0.129   2.673
 2536TIP3    H2 7550   6.479   0.021   2.576
 2537TIP3   OH2 7551   5.191   7.922   5.927
 2537TIP3    H1 7552   5.262   7.919   5.991
 2537TIP3    H2 7553   5.190   7.835   5.887
 2538TIP3   OH2 7554   2.905   0.770   1.531
 2538TIP3    H1 7555   2.940   0.837   1.590
 2538TIP3    H2 7556   2.981   0.743   1.479
 2539TIP3   OH2 7557   5.325   1.140   4.686
 2539TIP3    H1 7558   5.373   1.140   4.604
 2539TIP3    H2 7559   5.389   1.166   4.752
 2540TIP3   OH2 7560   1.113   1.841   1.893
 2540TIP3    H1 7561   1.151   1.770   1.841
 2540TIP3    H2 7562   1.113   1.916   1.834
 2541TIP3   OH2 7563   1.929   6.792   1.536
 2541TIP3    H1 7564   1.948   6.885   1.543
 2541TIP3    H2 7565   1.992   6.750   1.594
 2542TIP3   OH2 7566   1.173   0.470   4.295
 2542TIP3    H1 7567   1.243   0.460   4.231
 2542TIP3    H2 7568   1.216   0.508   4.372
 2543TIP3   OH2 7569   7.526   1.320   3.568
 2543TIP3    H1 7570   7.584   1.373   3.621
 2543TIP3    H2 7571   7.556   1.230   3.582
 2544TIP3   OH2 7572   2.438   0.219   6.734
 2544TIP3    H1 7573   2.483   0.166   6.669
 2544TIP3    H2 7574   2.365   0.258   6.687
 2545TIP3   OH2 7575   1.093   1.172   2.175
 2545TIP3    H1 7576   1.107   1.095   2.230
 2545TIP3    H2 7577   1.165   1.171   2.113
 2546TIP3   OH2 7578   6.301   1.788   1.403
 2546TIP3    H1 7579   6.288   1.840   1.324
 2546TIP3    H2 7580   6.390   1.809   1.431
 2547TIP3   OH2 7581   2.461   1.322   6.301
 2547TIP3    H1 7582   2.423   1.330   6.389
 2547TIP3    H2 7583   2.527   1.253   6.309
 2548TIP3   OH2 7584   5.797   1.424   5.917
 2548TIP3    H1 7585   5.840   1.339   5.923
 2548TIP3    H2 7586   5.757   1.437   6.003
 2549TIP3   OH2 7587   7.252   0.461   0.662
 2549TIP3    H1 7588   7.217   0.543   0.697
 2549TIP3    H2 7589   7.187   0.395   0.684
 2550TIP3   OH2 7590   2.167   2.377   2.238
 2550TIP3    H1 7591   2.234   2.443   2.257
 2550TIP3    H2 7592   2.140   2.395   2.148
 2551TIP3   OH2 7593   2.621   4.838   6.641
 2551TIP3    H1 7594   2.716   4.830   6.649
 2551TIP3    H2 7595   2.587   4.791   6.718
 2552TIP3   OH2 7596   1.735   4.138   2.406
 2552TIP3    H1 7597   1.792   4.212   2.386
 2552TIP3    H2 7598   1.795   4.064   2.415
 2553TIP3   OH2 7599   2.362   5.892   6.170
 2553TIP3    H1 7600   2.370   5.883   6.075
 2553TIP3    H2 7601   2.368   5.802   6.203
 2554TIP3   OH2 7602   7.723   4.848   4.335
 2554TIP3    H1 7603   7.647   4.902   4.359
 2554TIP3    H2 7604   7.718   4.772   4.392
 2555TIP3   OH2 7605   2.213   6.647   0.351
 2555TIP3    H1 7606   2.186   6.690   0.432
 2555TIP3    H2 7607   2.259   6.568   0.381
 2556TIP3   OH2 7608   1.821   5.599   6.305
 2556TIP3    H1 7609   1.895   5.654   6.330
 2556TIP3    H2 7610   1.774   5.650   6.238
 2557TIP3   OH2 7611   1.320   3.673   5.811
 2557TIP3    H1 7612   1.403   3.658   5.767
 2557TIP3    H2 7613   1.339   3.659   5.904
 2558TIP3   OH2 7614   2.337   3.406   1.724
 2558TIP3    H1 7615   2.244   3.388   1.708
 2558TIP3    H2 7616   2.348   3.497   1.696
 2559TIP3   OH2 7617   5.688   0.261   6.846
 2559TIP3    H1 7618   5.699   0.353   6.871
 2559TIP3    H2 7619   5.675   0.264   6.751
 2560TIP3   OH2 7620   1.041   7.780   0.253
 2560TIP3    H1 7621   1.089   7.777   0.336
 2560TIP3    H2 7622   1.076   7.707   0.203
 2561TIP3   OH2 7623   6.226   2.794   4.391
 2561TIP3    H1 7624   6.281   2.761   4.320
 2561TIP3    H2 7625   6.231   2.727   4.459
 2562TIP3   OH2 7626   3.202   2.242   0.519
 2562TIP3    H1 7627   3.256   2.253   0.440
 2562TIP3    H2 7628   3.193   2.330   0.555
 2563TIP3   OH2 7629   3.419   1.627   2.575
 2563TIP3    H1 7630   3.447   1.699   2.517
 2563TIP3    H2 7631   3.473   1.637   2.653
 2564TIP3   OH2 7632   1.394   0.166   1.486
 2564TIP3    H1 7633   1.489   0.165   1.473
 2564TIP3    H2 7634   1.375   0.084   1.531
 2565TIP3   OH2 7635   3.444   3.298   4.179
 2565TIP3    H1 7636   3.502   3.226   4.153
 2565TIP3    H2 7637   3.492   3.342   4.250
 2566TIP3   OH2 7638   5.693   2.459   2.068
 2566TIP3    H1 7639   5.631   2.482   1.999
 2566TIP3    H2 7640   5.643   2.403   2.127
 2567TIP3   OH2 7641   4.381   4.427   5.081
 2567TIP3    H1 7642   4.370   4.519   5.105
 2567TIP3    H2 7643   4.431   4.390   5.154
 2568TIP3   OH2 7644   3.504   3.207   1.022
 2568TIP3    H1 7645   3.420   3.235   1.058
 2568TIP3    H2 7646   3.480   3.162   0.940
 2569TIP3   OH2 7647   3.694   4.378   3.134
 2569TIP3    H1 7648   3.599   4.379   3.144
 2569TIP3    H2 7649   3.711   4.301   3.079
 2570TIP3   OH2 7650   1.638   2.973   0.244
 2570TIP3    H1 7651   1.682   3.054   0.267
 2570TIP3    H2 7652   1.570   2.962   0.310
 2571TIP3   OH2 7653   4.243   1.295   2.441
 2571TIP3    H1 7654   4.207   1.213   2.406
 2571TIP3    H2 7655   4.298   1.329   2.370
 2572TIP3   OH2 7656   7.482   3.904   2.798
 2572TIP3    H1 7657   7.525   3.864   2.874
 2572TIP3    H2 7658   7.554   3.940   2.746
 2573TIP3   OH2 7659   1.493   0.776   2.625
 2573TIP3    H1 7660   1.560   0.713   2.596
 2573TIP3    H2 7661   1.520   0.800   2.713
 2574TIP3   OH2 7662   2.865   4.730   2.268
 2574TIP3    H1 7663   2.897   4.671   2.337
 2574TIP3    H2 7664   2.944   4.757   2.221
 2575TIP3   OH2 7665   5.171   1.659   4.040
 2575TIP3    H1 7666   5.228   1.587   4.014
 2575TIP3    H2 7667   5.089   1.617   4.064
 2576TIP3   OH2 7668   7.418   3.540   4.872
 2576TIP3    H1 7669   7.428   3.543   4.777
 2576TIP3    H2 7670   7.328   3.569   4.888
 2577TIP3   OH2 7671   0.177   2.725   3.226
 2577TIP3    H1 7672   0.090   2.733   3.266
 2577TIP3    H2 7673   0.236   2.712   3.299
 2578TIP3   OH2 7674   1.299   3.353   1.802
 2578TIP3    H1 7675   1.354   3.309   1.867
 2578TIP3    H2 7676   1.223   3.383   1.851
 2579TIP3   OH2 7677   0.515   0.133   0.101
 2579TIP3    H1 7678   0.514   0.042   0.072
 2579TIP3    H2 7679   0.547   0.182   0.025
 2580TIP3   OH2 7680   7.791   7.866   6.434
 2580TIP3    H1 7681   7.781   7.947   6.384
 2580TIP3    H2 7682   7.827   7.803   6.371
 2581TIP3   OH2 7683   3.904   1.845   0.091
 2581TIP3    H1 7684   3.842   1.877   0.156
 2581TIP3    H2 7685   3.920   1.754   0.114
 2582TIP3   OH2 7686   4.112   4.747   2.103
 2582TIP3    H1 7687   4.088   4.817   2.164
 2582TIP3    H2 7688   4.048   4.678   2.121
 2583TIP3   OH2 7689   1.194   5.311   4.962
 2583TIP3    H1 7690   1.263   5.280   5.020
 2583TIP3    H2 7691   1.181   5.402   4.988
 2584TIP3   OH2 7692   5.586   0.671   3.392
 2584TIP3    H1 7693   5.541   0.597   3.353
 2584TIP3    H2 7694   5.624   0.636   3.473
 2585TIP3   OH2 7695   3.477   5.763   0.525
 2585TIP3    H1 7696   3.513   5.681   0.560
 2585TIP3    H2 7697   3.438   5.807   0.600
 2586TIP3   OH2 7698   6.559   4.738   6.463
 2586TIP3    H1 7699   6.643   4.753   6.418
 2586TIP3    H2 7700   6.583   4.686   6.540
 2587TIP3   OH2 7701   4.723   1.290   1.953
 2587TIP3    H1 7702   4.760   1.375   1.974
 2587TIP3    H2 7703   4.736   1.281   1.858
 2588TIP3   OH2 7704   1.689   5.181   1.370
 2588TIP3    H1 7705   1.647   5.140   1.295
 2588TIP3    H2 7706   1.624   5.175   1.440
 2589TIP3   OH2 7707   4.502   2.010   5.876
 2589TIP3    H1 7708   4.494   2.088   5.931
 2589TIP3    H2 7709   4.413   1.977   5.868
 2590TIP3   OH2 7710   4.783   6.166   4.214
 2590TIP3    H1 7711   4.814   6.076   4.222
 2590TIP3    H2 7712   4.749   6.188   4.301
 2591TIP3   OH2 7713   5.040   4.419   5.340
 2591TIP3    H1 7714   5.032   4.459   5.253
 2591TIP3    H2 7715   5.074   4.489   5.395
 2592TIP3   OH2 7716   0.787   2.128   0.257
 2592TIP3    H1 7717   0.835   2.049   0.281
 2592TIP3    H2 7718   0.751   2.109   0.170
 2593TIP3   OH2 7719   7.287   4.931   1.998
 2593TIP3    H1 7720   7.289   5.022   2.026
 2593TIP3    H2 7721   7.347   4.927   1.923
 2594TIP3   OH2 7722   3.886   1.690   3.695
 2594TIP3    H1 7723   3.929   1.758   3.748
 2594TIP3    H2 7724   3.915   1.608   3.735
 2595TIP3   OH2 7725   8.382   3.234   5.022
 2595TIP3    H1 7726   8.365   3.319   4.980
 2595TIP3    H2 7727   8.299   3.212   5.064
 2596TIP3   OH2 7728   6.689   7.655   0.354
 2596TIP3    H1 7729   6.627   7.659   0.282
 2596TIP3    H2 7730   6.693   7.562   0.378
 2597TIP3   OH2 7731   1.632   3.945   6.380
 2597TIP3    H1 7732   1.660   3.878   6.442
 2597TIP3    H2 7733   1.714   3.979   6.343
 2598TIP3   OH2 7734   2.037   3.668   4.182
 2598TIP3    H1 7735   2.091   3.627   4.116
 2598TIP3    H2 7736   1.953   3.622   4.177
 2599TIP3   OH2 7737   1.577   4.090   3.141
 2599TIP3    H1 7738   1.610   4.013   3.096
 2599TIP3    H2 7739   1.489   4.103   3.105
 2600TIP3   OH2 7740   6.702   5.896   3.549
 2600TIP3    H1 7741   6.632   5.954   3.518
 2600TIP3    H2 7742   6.783   5.935   3.516
 2601TIP3   OH2 7743   6.366   4.476   2.890
 2601TIP3    H1 7744   6.402   4.503   2.975
 2601TIP3    H2 7745   6.331   4.557   2.852
 2602TIP3   OH2 7746   3.920   7.313   3.110
 2602TIP3    H1 7747   3.857   7.241   3.114
 2602TIP3    H2 7748   3.889   7.376   3.174
 2603TIP3   OH2 7749   3.598   2.520   2.895
 2603TIP3    H1 7750   3.674   2.463   2.905
 2603TIP3    H2 7751   3.615   2.568   2.814
 2604TIP3   OH2 7752   8.379   6.403   5.085
 2604TIP3    H1 7753   8.294   6.428   5.046
 2604TIP3    H2 7754   8.359   6.326   5.138
 2605TIP3   OH2 7755   5.312   6.473   6.442
 2605TIP3    H1 7756   5.222   6.465   6.472
 2605TIP3    H2 7757   5.354   6.392   6.471
 2606TIP3   OH2 7758   1.204   6.565   2.564
 2606TIP3    H1 7759   1.244   6.651   2.548
 2606TIP3    H2 7760   1.115   6.573   2.529
 2607TIP3   OH2 7761   8.130   5.734   5.178
 2607TIP3    H1 7762   8.162   5.775   5.258
 2607TIP3    H2 7763   8.041   5.766   5.169
 2608TIP3   OH2 7764   0.343   5.727   0.318
 2608TIP3    H1 7765   0.338   5.822   0.321
 2608TIP3    H2 7766   0.312   5.698   0.403
 2609TIP3   OH2 7767   6.370   2.414   0.070
 2609TIP3    H1 7768   6.401   2.352   0.004
 2609TIP3    H2 7769   6.275   2.414   0.061
 2610TIP3   OH2 7770   7.355   0.442   6.544
 2610TIP3    H1 7771   7.355   0.363   6.598
 2610TIP3    H2 7772   7.309   0.508   6.597
 2611TIP3   OH2 7773   7.729   6.267   3.655
 2611TIP3    H1 7774   7.806   6.267   3.599
 2611TIP3    H2 7775   7.724   6.355   3.691
 2612TIP3   OH2 7776   1.999   3.100   3.012
 2612TIP3    H1 7777   2.082   3.121   3.055
 2612TIP3    H2 7778   2.014   3.119   2.920
 2613TIP3   OH2 7779   7.656   7.798   0.620
 2613TIP3    H1 7780   7.587   7.855   0.585
 2613TIP3    H2 7781   7.616   7.712   0.624
 2614TIP3   OH2 7782   5.906   0.729   2.270
 2614TIP3    H1 7783   5.964   0.798   2.303
 2614TIP3    H2 7784   5.883   0.677   2.347
 2615TIP3   OH2 7785   6.256   4.105   3.051
 2615TIP3    H1 7786   6.217   4.070   2.971
 2615TIP3    H2 7787   6.182   4.120   3.109
 2616TIP3   OH2 7788   2.357   2.638   4.579
 2616TIP3    H1 7789   2.389   2.642   4.489
 2616TIP3    H2 7790   2.263   2.657   4.572
 2617TIP3   OH2 7791   1.454   1.784   1.078
 2617TIP3    H1 7792   1.549   1.796   1.084
 2617TIP3    H2 7793   1.433   1.795   0.986
 2618TIP3   OH2 7794   4.793   4.673   0.045
 2618TIP3    H1 7795   4.871   4.669   0.100
 2618TIP3    H2 7796   4.721   4.691   0.106
 2619TIP3   OH2 7797   5.131   7.419   6.452
 2619TIP3    H1 7798   5.051   7.398   6.404
 2619TIP3    H2 7799   5.105   7.418   6.544
 2620TIP3   OH2 7800   4.241   5.419   5.330
 2620TIP3    H1 7801   4.175   5.468   5.379
 2620TIP3    H2 7802   4.308   5.399   5.396
 2621TIP3   OH2 7803   6.396   7.572   5.248
 2621TIP3    H1 7804   6.334   7.637   5.215
 2621TIP3    H2 7805   6.361   7.546   5.333
 2622TIP3   OH2 7806   3.692   7.415   5.005
 2622TIP3    H1 7807   3.766   7.371   5.049
 2622TIP3    H2 7808   3.647   7.461   5.076
 2623TIP3   OH2 7809   1.898   0.814   3.240
 2623TIP3    H1 7810   1.939   0.899   3.225
 2623TIP3    H2 7811   1.911   0.797   3.333
 2624TIP3   OH2 7812   0.416   5.662   6.693
 2624TIP3    H1 7813   0.486   5.607   6.659
 2624TIP3    H2 7814   0.348   5.599   6.720
 2625TIP3   OH2 7815   0.112   0.354   4.843
 2625TIP3    H1 7816   0.139   0.270   4.805
 2625TIP3    H2 7817   0.150   0.419   4.784
 2626TIP3   OH2 7818   3.039   4.845   3.593
 2626TIP3    H1 7819   2.976   4.840   3.664
 2626TIP3    H2 7820   3.069   4.754   3.581
 2627TIP3   OH2 7821   0.651   7.799   3.442
 2627TIP3    H1 7822   0.691   7.762   3.364
 2627TIP3    H2 7823   0.599   7.728   3.479
 2628TIP3   OH2 7824   0.660   6.283   2.614
 2628TIP3    H1 7825   0.682   6.373   2.638
 2628TIP3    H2 7826   0.743   6.235   2.618
 2629TIP3   OH2 7827   3.425   2.573   4.055
 2629TIP3    H1 7828   3.515   2.606   4.047
 2629TIP3    H2 7829   3.416   2.550   4.148
 2630TIP3   OH2 7830   0.985   3.251   3.463
 2630TIP3    H1 7831   0.930   3.172   3.468
 2630TIP3    H2 7832   0.940   3.315   3.519
 2631TIP3   OH2 7833   4.618   2.106   2.190
 2631TIP3    H1 7834   4.670   2.093   2.110
 2631TIP3    H2 7835   4.549   2.167   2.164
 2632TIP3   OH2 7836   6.964   2.777   2.939
 2632TIP3    H1 7837   7.039   2.831   2.913
 2632TIP3    H2 7838   6.889   2.820   2.898
 2633TIP3   OH2 7839   4.675   3.919   5.161
 2633TIP3    H1 7840   4.726   3.910   5.080
 2633TIP3    H2 7841   4.600   3.972   5.136
 2634TIP3   OH2 7842   6.276   1.655   0.808
 2634TIP3    H1 7843   6.299   1.618   0.893
 2634TIP3    H2 7844   6.333   1.609   0.746
 2635TIP3   OH2 7845   3.811   3.787   6.256
 2635TIP3    H1 7846   3.862   3.710   6.234
 2635TIP3    H2 7847   3.867   3.838   6.315
 2636TIP3   OH2 7848   3.776   2.510   5.290
 2636TIP3    H1 7849   3.810   2.421   5.282
 2636TIP3    H2 7850   3.853   2.566   5.285
 2637TIP3   OH2 7851   2.105   7.430   6.047
 2637TIP3    H1 7852   2.080   7.467   5.963
 2637TIP3    H2 7853   2.029   7.380   6.075
 2638TIP3   OH2 7854   5.538   6.073   1.464
 2638TIP3    H1 7855   5.520   6.016   1.389
 2638TIP3    H2 7856   5.590   6.145   1.428
 2639TIP3   OH2 7857   1.626   7.156   3.099
 2639TIP3    H1 7858   1.705   7.207   3.078
 2639TIP3    H2 7859   1.608   7.178   3.190
 2640TIP3   OH2 7860   0.747   0.297   2.533
 2640TIP3    H1 7861   0.756   0.202   2.546
 2640TIP3    H2 7862   0.793   0.335   2.608
 2641TIP3   OH2 7863   4.533   1.729   4.131
 2641TIP3    H1 7864   4.515   1.679   4.211
 2641TIP3    H2 7865   4.510   1.819   4.154
 2642TIP3   OH2 7866   5.948   7.699   4.343
 2642TIP3    H1 7867   5.865   7.742   4.363
 2642TIP3    H2 7868   5.961   7.637   4.414
 2643TIP3   OH2 7869   2.572   0.808   4.770
 2643TIP3    H1 7870   2.642   0.772   4.716
 2643TIP3    H2 7871   2.616   0.868   4.830
 2644TIP3   OH2 7872   3.154   3.290   0.247
 2644TIP3    H1 7873   3.198   3.322   0.325
 2644TIP3    H2 7874   3.130   3.200   0.268
 2645TIP3   OH2 7875   6.839   6.730   2.368
 2645TIP3    H1 7876   6.820   6.640   2.344
 2645TIP3    H2 7877   6.770   6.781   2.325
 2646TIP3   OH2 7878   0.374   4.984   6.404
 2646TIP3    H1 7879   0.337   4.976   6.492
 2646TIP3    H2 7880   0.458   5.028   6.418
 2647TIP3   OH2 7881   2.925   3.701   5.596
 2647TIP3    H1 7882   3.015   3.682   5.571
 2647TIP3    H2 7883   2.872   3.646   5.538
 2648TIP3   OH2 7884   0.455   7.576   4.119
 2648TIP3    H1 7885   0.431   7.493   4.077
 2648TIP3    H2 7886   0.550   7.581   4.108
 2649TIP3   OH2 7887   5.756   7.543   6.546
 2649TIP3    H1 7888   5.828   7.606   6.542
 2649TIP3    H2 7889   5.733   7.539   6.638
 2650TIP3   OH2 7890   3.882   1.753   2.281
 2650TIP3    H1 7891   3.907   1.670   2.241
 2650TIP3    H2 7892   3.964   1.789   2.315
 2651TIP3   OH2 7893   2.790   7.867   4.318
 2651TIP3    H1 7894   2.703   7.907   4.318
 2651TIP3    H2 7895   2.784   7.796   4.382
 2652TIP3   OH2 7896   3.484   6.413   1.752
 2652TIP3    H1 7897   3.524   6.333   1.719
 2652TIP3    H2 7898   3.515   6.419   1.843
 2653TIP3   OH2 7899   8.124   5.235   2.588
 2653TIP3    H1 7900   8.102   5.288   2.511
 2653TIP3    H2 7901   8.192   5.284   2.634
 2654TIP3   OH2 7902   2.656   0.947   1.036
 2654TIP3    H1 7903   2.692   1.000   0.966
 2654TIP3    H2 7904   2.733   0.922   1.089
 2655TIP3   OH2 7905   8.056   1.519   0.294
 2655TIP3    H1 7906   7.994   1.466   0.243
 2655TIP3    H2 7907   8.000   1.578   0.345
 2656TIP3   OH2 7908   5.877   3.855   2.979
 2656TIP3    H1 7909   5.965   3.826   3.004
 2656TIP3    H2 7910   5.820   3.822   3.048
 2657TIP3   OH2 7911   1.261   7.713   2.826
 2657TIP3    H1 7912   1.166   7.708   2.834
 2657TIP3    H2 7913   1.291   7.622   2.831
 2658TIP3   OH2 7914   1.940   0.046   1.837
 2658TIP3    H1 7915   1.907   0.126   1.795
 2658TIP3    H2 7916   2.028   0.035   1.802
 2659TIP3   OH2 7917   0.511   7.681   0.153
 2659TIP3    H1 7918   0.491   7.744   0.221
 2659TIP3    H2 7919   0.572   7.620   0.194
 2660TIP3   OH2 7920   0.234   3.473   5.890
 2660TIP3    H1 7921   0.274   3.522   5.817
 2660TIP3    H2 7922   0.309   3.432   5.934
 2661TIP3   OH2 7923   6.806   4.905   4.612
 2661TIP3    H1 7924   6.887   4.956   4.620
 2661TIP3    H2 7925   6.750   4.938   4.683
 2662TIP3   OH2 7926   7.388   2.862   3.159
 2662TIP3    H1 7927   7.475   2.889   3.131
 2662TIP3    H2 7928   7.395   2.851   3.254
 2663TIP3   OH2 7929   3.061   4.603   3.242
 2663TIP3    H1 7930   3.013   4.684   3.224
 2663TIP3    H2 7931   3.140   4.631   3.287
 2664TIP3   OH2 7932   5.749   3.012   6.513
 2664TIP3    H1 7933   5.813   3.034   6.580
 2664TIP3    H2 7934   5.797   2.959   6.450
 2665TIP3   OH2 7935   5.316   5.607   4.539
 2665TIP3    H1 7936   5.355   5.615   4.626
 2665TIP3    H2 7937   5.222   5.614   4.554
 2666TIP3   OH2 7938   3.973   4.320   0.962
 2666TIP3    H1 7939   4.022   4.402   0.960
 2666TIP3    H2 7940   3.881   4.348   0.972
 2667TIP3   OH2 7941   0.195   6.202   1.386
 2667TIP3    H1 7942   0.197   6.107   1.396
 2667TIP3    H2 7943   0.147   6.216   1.304
 2668TIP3   OH2 7944   5.427   6.820   0.181
 2668TIP3    H1 7945   5.364   6.839   0.112
 2668TIP3    H2 7946   5.420   6.725   0.194
 2669TIP3   OH2 7947   7.542   1.875   0.195
 2669TIP3    H1 7948   7.550   1.942   0.127
 2669TIP3    H2 7949   7.452   1.883   0.227
 2670TIP3   OH2 7950   6.305   5.905   3.340
 2670TIP3    H1 7951   6.264   5.853   3.409
 2670TIP3    H2 7952   6.257   5.988   3.342
 2671TIP3   OH2 7953   4.233   5.369   1.795
 2671TIP3    H1 7954   4.186   5.287   1.814
 2671TIP3    H2 7955   4.193   5.401   1.714
 2672TIP3   OH2 7956   7.333   1.595   6.260
 2672TIP3    H1 7957   7.258   1.651   6.283
 2672TIP3    H2 7958   7.387   1.649   6.203
 2673TIP3   OH2 7959   4.861   0.599   6.529
 2673TIP3    H1 7960   4.926   0.650   6.578
 2673TIP3    H2 7961   4.906   0.518   6.507
 2674TIP3   OH2 7962   6.795   7.196   1.898
 2674TIP3    H1 7963   6.885   7.209   1.926
 2674TIP3    H2 7964   6.794   7.227   1.807
 2675TIP3   OH2 7965   3.355   7.555   2.709
 2675TIP3    H1 7966   3.316   7.640   2.728
 2675TIP3    H2 7967   3.448   7.573   2.697
 2676TIP3   OH2 7968   2.248   1.071   1.104
 2676TIP3    H1 7969   2.254   1.106   1.193
 2676TIP3    H2 7970   2.319   1.007   1.099
 2677TIP3   OH2 7971   0.764   1.660   0.451
 2677TIP3    H1 7972   0.693   1.603   0.483
 2677TIP3    H2 7973   0.812   1.605   0.390
 2678TIP3   OH2 7974   3.459   2.843   5.606
 2678TIP3    H1 7975   3.544   2.880   5.627
 2678TIP3    H2 7976   3.436   2.880   5.521
 2679TIP3   OH2 7977   2.163   7.759   5.295
 2679TIP3    H1 7978   2.090   7.818   5.313
 2679TIP3    H2 7979   2.141   7.678   5.340
 2680TIP3   OH2 7980   0.710   3.393   2.984
 2680TIP3    H1 7981   0.779   3.455   3.008
 2680TIP3    H2 7982   0.736   3.311   3.026
 2681TIP3   OH2 7983   2.851   3.135   4.484
 2681TIP3    H1 7984   2.777   3.116   4.542
 2681TIP3    H2 7985   2.927   3.137   4.542
 2682TIP3   OH2 7986   2.166   5.310   3.058
 2682TIP3    H1 7987   2.250   5.267   3.044
 2682TIP3    H2 7988   2.101   5.244   3.033
 2683TIP3   OH2 7989   4.256   4.349   1.737
 2683TIP3    H1 7990   4.247   4.272   1.794
 2683TIP3    H2 7991   4.177   4.400   1.754
 2684TIP3   OH2 7992   6.405   3.522   6.612
 2684TIP3    H1 7993   6.484   3.551   6.566
 2684TIP3    H2 7994   6.379   3.442   6.566
 2685TIP3   OH2 7995   6.658   4.321   0.963
 2685TIP3    H1 7996   6.609   4.239   0.968
 2685TIP3    H2 7997   6.591   4.389   0.960
 2686TIP3   OH2 7998   3.288   1.495   5.776
 2686TIP3    H1 7999   3.216   1.545   5.814
 2686TIP3    H2 8000   3.324   1.445   5.849
 2687TIP3   OH2 8001   7.732   7.190   3.403
 2687TIP3    H1 8002   7.663   7.202   3.337
 2687TIP3    H2 8003   7.789   7.121   3.366
 2688TIP3   OH2 8004   5.780   5.978   0.722
 2688TIP3    H1 8005   5.870   5.974   0.754
 2688TIP3    H2 8006   5.772   5.902   0.664
 2689TIP3   OH2 8007   0.057   6.446   6.010
 2689TIP3    H1 8008   0.075   6.358   5.976
 2689TIP3    H2 8009  -0.035   6.443   6.036
 2690TIP3   OH2 8010   5.357   4.513   5.650
 2690TIP3    H1 8011   5.441   4.530   5.693
 2690TIP3    H2 8012   5.373   4.435   5.596
 2691TIP3   OH2 8013   0.931   6.204   0.406
 2691TIP3    H1 8014   0.977   6.288   0.401
 2691TIP3    H2 8015   0.963   6.154   0.331
 2692TIP3   OH2 8016   7.408   4.319   0.265
 2692TIP3    H1 8017   7.503   4.308   0.261
 2692TIP3    H2 8018   7.378   4.252   0.325
 2693TIP3   OH2 8019   0.155   3.538   3.305
 2693TIP3    H1 8020   0.163   3.573   3.216
 2693TIP3    H2 8021   0.195   3.451   3.300
 2694TIP3   OH2 8022   1.525   5.600   2.299
 2694TIP3    H1 8023   1.473   5.678   2.279
 2694TIP3    H2 8024   1.607   5.634   2.333
 2695TIP3   OH2 8025   5.581   1.781   3.156
 2695TIP3    H1 8026   5.503   1.810   3.204
 2695TIP3    H2 8027   5.641   1.754   3.225
 2696TIP3   OH2 8028   1.441   0.653   6.409
 2696TIP3    H1 8029   1.412   0.605   6.331
 2696TIP3    H2 8030   1.535   0.636   6.414
 2697TIP3   OH2 8031   2.050   6.352   0.063
 2697TIP3    H1 8032   2.081   6.263   0.078
 2697TIP3    H2 8033   2.127   6.407   0.073
 2698TIP3   OH2 8034   6.628   6.987   6.473
 2698TIP3    H1 8035   6.719   6.996   6.504
 2698TIP3    H2 8036   6.634   6.999   6.378
 2699TIP3   OH2 8037   3.011   2.560   0.028
 2699TIP3    H1 8038   3.090   2.555  -0.027
 2699TIP3    H2 8039   2.999   2.470   0.059
 2700TIP3   OH2 8040   0.669   0.925   3.379
 2700TIP3    H1 8041   0.580   0.961   3.380
 2700TIP3    H2 8042   0.665   0.855   3.315
 2701TIP3   OH2 8043   0.951   3.317   6.187
 2701TIP3    H1 8044   0.934   3.295   6.096
 2701TIP3    H2 8045   0.946   3.413   6.191
 2702TIP3   OH2 8046   2.975   5.977   4.246
 2702TIP3    H1 8047   2.961   5.882   4.251
 2702TIP3    H2 8048   3.055   5.986   4.193
 2703TIP3   OH2 8049   5.267   4.248   2.432
 2703TIP3    H1 8050   5.179   4.213   2.442
 2703TIP3    H2 8051   5.259   4.341   2.450
 2704TIP3   OH2 8052   8.137   0.592   4.422
 2704TIP3    H1 8053   8.164   0.547   4.342
 2704TIP3    H2 8054   8.051   0.556   4.442
 2705TIP3   OH2 8055   1.258   3.938   3.685
 2705TIP3    H1 8056   1.232   4.014   3.634
 2705TIP3    H2 8057   1.189   3.927   3.750
 2706TIP3   OH2 8058   7.197   3.497   0.938
 2706TIP3    H1 8059   7.236   3.415   0.967
 2706TIP3    H2 8060   7.240   3.565   0.990
 2707TIP3   OH2 8061   5.163   5.721   1.746
 2707TIP3    H1 8062   5.187   5.628   1.749
 2707TIP3    H2 8063   5.159   5.748   1.837
 2708TIP3   OH2 8064   5.011   2.087   1.882
 2708TIP3    H1 8065   5.077   2.070   1.949
 2708TIP3    H2 8066   5.057   2.076   1.799
 2709TIP3   OH2 8067   4.461   7.242   3.136
 2709TIP3    H1 8068   4.540   7.289   3.109
 2709TIP3    H2 8069   4.415   7.223   3.054
 2710TIP3   OH2 8070   0.912   2.179   2.078
 2710TIP3    H1 8071   0.998   2.198   2.040
 2710TIP3    H2 8072   0.926   2.187   2.173
 2711TIP3   OH2 8073   6.187   6.569   2.249
 2711TIP3    H1 8074   6.151   6.485   2.219
 2711TIP3    H2 8075   6.110   6.625   2.261
 2712TIP3   OH2 8076   5.226   3.907   0.274
 2712TIP3    H1 8077   5.275   3.983   0.303
 2712TIP3    H2 8078   5.199   3.863   0.355
 2713TIP3   OH2 8079   3.256   1.560   2.046
 2713TIP3    H1 8080   3.189   1.616   2.084
 2713TIP3    H2 8081   3.243   1.475   2.088
 2714TIP3   OH2 8082   0.757   7.788   4.568
 2714TIP3    H1 8083   0.770   7.871   4.522
 2714TIP3    H2 8084   0.836   7.778   4.621
 2715TIP3   OH2 8085   1.910   4.216   3.409
 2715TIP3    H1 8086   1.887   4.177   3.325
 2715TIP3    H2 8087   1.932   4.141   3.465
 2716TIP3   OH2 8088   0.073   1.011   1.633
 2716TIP3    H1 8089   0.094   0.998   1.541
 2716TIP3    H2 8090   0.062   0.922   1.668
 2717TIP3   OH2 8091   7.054   7.487   1.780
 2717TIP3    H1 8092   6.982   7.546   1.803
 2717TIP3    H2 8093   7.125   7.511   1.840
 2718TIP3   OH2 8094   1.667   5.346   0.094
 2718TIP3    H1 8095   1.676   5.306   0.181
 2718TIP3    H2 8096   1.639   5.436   0.111
 2719TIP3   OH2 8097   7.736   1.869   6.857
 2719TIP3    H1 8098   7.768   1.954   6.825
 2719TIP3    H2 8099   7.787   1.804   6.808
 2720TIP3   OH2 8100   5.196   1.299   1.005
 2720TIP3    H1 8101   5.154   1.245   0.938
 2720TIP3    H2 8102   5.273   1.335   0.961
 2721TIP3   OH2 8103   1.137   6.309   2.129
 2721TIP3    H1 8104   1.065   6.283   2.072
 2721TIP3    H2 8105   1.105   6.388   2.174
 2722TIP3   OH2 8106   6.689   3.238   5.246
 2722TIP3    H1 8107   6.696   3.182   5.323
 2722TIP3    H2 8108   6.694   3.327   5.281
 2723TIP3   OH2 8109   0.332   1.886   0.485
 2723TIP3    H1 8110   0.294   1.974   0.493
 2723TIP3    H2 8111   0.290   1.849   0.408
 2724TIP3   OH2 8112   3.836   7.402   6.732
 2724TIP3    H1 8113   3.902   7.465   6.705
 2724TIP3    H2 8114   3.877   7.353   6.803
 2725TIP3   OH2 8115   2.760   2.358   0.438
 2725TIP3    H1 8116   2.782   2.450   0.426
 2725TIP3    H2 8117   2.760   2.321   0.349
 2726TIP3   OH2 8118   5.329   2.413   6.616
 2726TIP3    H1 8119   5.357   2.427   6.525
 2726TIP3    H2 8120   5.304   2.499   6.647
 2727TIP3   OH2 8121   3.796   3.323   6.756
 2727TIP3    H1 8122   3.855   3.369   6.696
 2727TIP3    H2 8123   3.768   3.245   6.707
 2728TIP3   OH2 8124   3.964   3.980   5.214
 2728TIP3    H1 8125   3.934   4.048   5.275
 2728TIP3    H2 8126   3.965   3.900   5.266
 2729TIP3   OH2 8127   0.145   5.169   1.576
 2729TIP3    H1 8128   0.193   5.227   1.636
 2729TIP3    H2 8129   0.094   5.112   1.634
 2730TIP3   OH2 8130   0.350   1.832   1.216
 2730TIP3    H1 8131   0.345   1.767   1.146
 2730TIP3    H2 8132   0.286   1.802   1.281
 2731TIP3   OH2 8133   0.502   2.674   1.040
 2731TIP3    H1 8134   0.440   2.745   1.024
 2731TIP3    H2 8135   0.471   2.634   1.121
 2732TIP3   OH2 8136   3.425   0.167   3.449
 2732TIP3    H1 8137   3.509   0.205   3.473
 2732TIP3    H2 8138   3.441   0.073   3.445
 2733TIP3   OH2 8139   0.944   6.241   4.726
 2733TIP3    H1 8140   1.025   6.193   4.742
 2733TIP3    H2 8141   0.945   6.257   4.631
 2734TIP3   OH2 8142   7.066   5.171   2.012
 2734TIP3    H1 8143   7.100   5.161   1.923
 2734TIP3    H2 8144   7.117   5.243   2.050
 2735TIP3   OH2 8145   5.672   3.367   5.137
 2735TIP3    H1 8146   5.721   3.289   5.112
 2735TIP3    H2 8147   5.694   3.380   5.230
 2736TIP3   OH2 8148   3.888   7.104   2.100
 2736TIP3    H1 8149   3.853   7.129   2.014
 2736TIP3    H2 8150   3.949   7.174   2.122
 2737TIP3   OH2 8151   1.731   6.881   1.105
 2737TIP3    H1 8152   1.698   6.969   1.126
 2737TIP3    H2 8153   1.743   6.839   1.190
 2738TIP3   OH2 8154   4.041   2.617   5.256
 2738TIP3    H1 8155   4.114   2.556   5.247
 2738TIP3    H2 8156   4.072   2.698   5.214
 2739TIP3   OH2 8157   5.335   4.108   0.420
 2739TIP3    H1 8158   5.359   4.155   0.500
 2739TIP3    H2 8159   5.269   4.163   0.378
 2740TIP3   OH2 8160   4.101   6.994   3.354
 2740TIP3    H1 8161   4.024   7.012   3.408
 2740TIP3    H2 8162   4.175   6.999   3.414
 2741TIP3   OH2 8163   4.075   4.456   3.884
 2741TIP3    H1 8164   4.112   4.450   3.796
 2741TIP3    H2 8165   4.025   4.375   3.895
 2742TIP3   OH2 8166   2.783   0.061   5.855
 2742TIP3    H1 8167   2.754   0.073   5.946
 2742TIP3    H2 8168   2.868   0.019   5.863
 2743TIP3   OH2 8169   4.451   6.222   6.456
 2743TIP3    H1 8170   4.426   6.299   6.507
 2743TIP3    H2 8171   4.546   6.233   6.442
 2744TIP3   OH2 8172   6.496   4.047   2.435
 2744TIP3    H1 8173   6.493   4.025   2.528
 2744TIP3    H2 8174   6.410   4.083   2.415
 2745TIP3   OH2 8175   7.051   1.497   0.899
 2745TIP3    H1 8176   7.071   1.470   0.989
 2745TIP3    H2 8177   6.958   1.519   0.902
 2746TIP3   OH2 8178   4.762   4.368   0.587
 2746TIP3    H1 8179   4.777   4.302   0.520
 2746TIP3    H2 8180   4.709   4.435   0.544
 2747TIP3   OH2 8181   8.146   1.447   5.871
 2747TIP3    H1 8182   8.139   1.362   5.914
 2747TIP3    H2 8183   8.114   1.509   5.937
 2748TIP3   OH2 8184   7.725   6.311   0.922
 2748TIP3    H1 8185   7.763   6.234   0.963
 2748TIP3    H2 8186   7.667   6.348   0.989
 2749TIP3   OH2 8187   2.845   1.290   2.988
 2749TIP3    H1 8188   2.849   1.292   3.083
 2749TIP3    H2 8189   2.756   1.319   2.967
 2750TIP3   OH2 8190   2.291   1.973   2.809
 2750TIP3    H1 8191   2.251   1.952   2.725
 2750TIP3    H2 8192   2.364   2.031   2.787
 2751TIP3   OH2 8193   3.355   1.101   2.947
 2751TIP3    H1 8194   3.288   1.094   2.879
 2751TIP3    H2 8195   3.342   1.189   2.984
 2752TIP3   OH2 8196   6.352   5.532   2.645
 2752TIP3    H1 8197   6.340   5.468   2.574
 2752TIP3    H2 8198   6.435   5.507   2.686
 2753TIP3   OH2 8199   3.170   1.310   5.350
 2753TIP3    H1 8200   3.239   1.345   5.405
 2753TIP3    H2 8201   3.098   1.292   5.410
 2754TIP3   OH2 8202   1.558   3.302   3.389
 2754TIP3    H1 8203   1.609   3.222   3.377
 2754TIP3    H2 8204   1.616   3.360   3.438
 2755TIP3   OH2 8205   2.815   7.379   5.682
 2755TIP3    H1 8206   2.875   7.390   5.609
 2755TIP3    H2 8207   2.812   7.465   5.724
 2756TIP3   OH2 8208   7.572   4.384   3.935
 2756TIP3    H1 8209   7.580   4.308   3.877
 2756TIP3    H2 8210   7.620   4.453   3.891
 2757TIP3   OH2 8211   7.685   6.227   1.234
 2757TIP3    H1 8212   7.637   6.165   1.179
 2757TIP3    H2 8213   7.666   6.200   1.323
 2758TIP3   OH2 8214   0.225   0.332   3.730
 2758TIP3    H1 8215   0.206   0.425   3.725
 2758TIP3    H2 8216   0.206   0.299   3.642
 2759TIP3   OH2 8217   4.539   1.675   4.419
 2759TIP3    H1 8218   4.608   1.623   4.460
 2759TIP3    H2 8219   4.525   1.747   4.480
 2760TIP3   OH2 8220   7.470   1.448   0.930
 2760TIP3    H1 8221   7.524   1.445   1.009
 2760TIP3    H2 8222   7.454   1.541   0.915
 2761TIP3   OH2 8223   2.352   3.355   4.002
 2761TIP3    H1 8224   2.329   3.266   3.974
 2761TIP3    H2 8225   2.381   3.345   4.092
 2762TIP3   OH2 8226   0.407   7.355   1.529
 2762TIP3    H1 8227   0.411   7.277   1.584
 2762TIP3    H2 8228   0.329   7.402   1.558
 2763TIP3   OH2 8229   3.241   3.448   4.659
 2763TIP3    H1 8230   3.328   3.416   4.636
 2763TIP3    H2 8231   3.254   3.494   4.742
 2764TIP3   OH2 8232   0.947   7.585   2.322
 2764TIP3    H1 8233   0.948   7.617   2.412
 2764TIP3    H2 8234   1.039   7.582   2.297
 2765TIP3   OH2 8235   5.077   2.899   6.649
 2765TIP3    H1 8236   5.104   2.990   6.644
 2765TIP3    H2 8237   5.012   2.889   6.579
 2766TIP3   OH2 8238   7.953   6.169   1.688
 2766TIP3    H1 8239   8.034   6.149   1.734
 2766TIP3    H2 8240   7.884   6.145   1.750
 2767TIP3   OH2 8241   5.262   2.078   3.478
 2767TIP3    H1 8242   5.172   2.110   3.489
 2767TIP3    H2 8243   5.285   2.041   3.563
 2768TIP3   OH2 8244   7.633   5.506   0.678
 2768TIP3    H1 8245   7.696   5.570   0.645
 2768TIP3    H2 8246   7.675   5.469   0.756
 2769TIP3   OH2 8247   0.250   6.341   0.960
 2769TIP3    H1 8248   0.333   6.348   1.006
 2769TIP3    H2 8249   0.270   6.293   0.879
 2770TIP3   OH2 8250   3.598   5.974   4.136
 2770TIP3    H1 8251   3.647   5.910   4.083
 2770TIP3    H2 8252   3.534   6.011   4.075
 2771TIP3   OH2 8253   1.613   2.579   5.210
 2771TIP3    H1 8254   1.575   2.512   5.153
 2771TIP3    H2 8255   1.665   2.634   5.151
 2772TIP3   OH2 8256   7.992   4.154   1.222
 2772TIP3    H1 8257   7.951   4.184   1.141
 2772TIP3    H2 8258   8.034   4.072   1.199
 2773TIP3   OH2 8259   8.150   7.787   4.536
 2773TIP3    H1 8260   8.135   7.740   4.454
 2773TIP3    H2 8261   8.147   7.879   4.511
 2774TIP3   OH2 8262   1.766   1.576   2.958
 2774TIP3    H1 8263   1.729   1.622   2.882
 2774TIP3    H2 8264   1.770   1.643   3.026
 2775TIP3   OH2 8265   1.004   7.900   1.130
 2775TIP3    H1 8266   1.061   7.917   1.055
 2775TIP3    H2 8267   1.063   7.898   1.205
 2776TIP3   OH2 8268   2.307   3.223   5.866
 2776TIP3    H1 8269   2.355   3.141   5.860
 2776TIP3    H2 8270   2.269   3.235   5.780
 2777TIP3   OH2 8271   4.184   3.742   4.300
 2777TIP3    H1 8272   4.210   3.797   4.374
 2777TIP3    H2 8273   4.153   3.661   4.340
 2778TIP3   OH2 8274   4.142   3.511   5.804
 2778TIP3    H1 8275   4.178   3.599   5.798
 2778TIP3    H2 8276   4.094   3.510   5.887
 2779TIP3   OH2 8277   4.873   4.987   6.311
 2779TIP3    H1 8278   4.798   5.006   6.254
 2779TIP3    H2 8279   4.936   5.057   6.292
 2780TIP3   OH2 8280   6.116   5.769   0.053
 2780TIP3    H1 8281   6.090   5.758  -0.038
 2780TIP3    H2 8282   6.164   5.853   0.054
 2781TIP3   OH2 8283   6.467   3.959   2.054
 2781TIP3    H1 8284   6.373   3.959   2.072
 2781TIP3    H2 8285   6.491   3.866   2.051
 2782TIP3   OH2 8286   0.359   2.300   2.766
 2782TIP3    H1 8287   0.286   2.310   2.828
 2782TIP3    H2 8288   0.360   2.381   2.717
 2783TIP3   OH2 8289   0.198   7.546   2.618
 2783TIP3    H1 8290   0.218   7.501   2.699
 2783TIP3    H2 8291   0.180   7.637   2.645
 2784TIP3   OH2 8292   6.281   4.745   0.814
 2784TIP3    H1 8293   6.350   4.785   0.761
 2784TIP3    H2 8294   6.241   4.680   0.757
 2785TIP3   OH2 8295   6.748   2.442   6.676
 2785TIP3    H1 8296   6.799   2.522   6.663
 2785TIP3    H2 8297   6.666   2.471   6.715
 2786TIP3   OH2 8298   7.387   7.008   1.881
 2786TIP3    H1 8299   7.341   7.065   1.943
 2786TIP3    H2 8300   7.412   6.931   1.933
 2787TIP3   OH2 8301   7.306   1.231   4.285
 2787TIP3    H1 8302   7.277   1.149   4.245
 2787TIP3    H2 8303   7.314   1.211   4.378
 2788TIP3   OH2 8304   0.118   0.376   2.065
 2788TIP3    H1 8305   0.074   0.347   2.144
 2788TIP3    H2 8306   0.128   0.296   2.012
 2789TIP3   OH2 8307   1.639   4.179   1.549
 2789TIP3    H1 8308   1.690   4.226   1.614
 2789TIP3    H2 8309   1.612   4.098   1.593
 2790TIP3   OH2 8310   3.086   5.555   6.418
 2790TIP3    H1 8311   3.046   5.468   6.410
 2790TIP3    H2 8312   3.130   5.569   6.334
 2791TIP3   OH2 8313   5.847   3.871   0.593
 2791TIP3    H1 8314   5.922   3.873   0.652
 2791TIP3    H2 8315   5.777   3.831   0.645
 2792TIP3   OH2 8316   7.896   3.550   4.110
 2792TIP3    H1 8317   7.909   3.484   4.178
 2792TIP3    H2 8318   7.919   3.505   4.028
 2793TIP3   OH2 8319   7.145   7.586   5.944
 2793TIP3    H1 8320   7.182   7.671   5.920
 2793TIP3    H2 8321   7.221   7.536   5.976
 2794TIP3   OH2 8322   6.223   1.980   2.333
 2794TIP3    H1 8323   6.205   2.074   2.339
 2794TIP3    H2 8324   6.306   1.975   2.285
 2795TIP3   OH2 8325   5.900   4.609   3.773
 2795TIP3    H1 8326   5.910   4.599   3.678
 2795TIP3    H2 8327   5.811   4.643   3.783
 2796TIP3   OH2 8328   0.144   0.783   3.356
 2796TIP3    H1 8329   0.092   0.803   3.278
 2796TIP3    H2 8330   0.094   0.716   3.402
 2797TIP3   OH2 8331   0.397   6.032   5.143
 2797TIP3    H1 8332   0.443   5.983   5.212
 2797TIP3    H2 8333   0.405   5.976   5.066
 2798TIP3   OH2 8334   8.091   3.486   0.710
 2798TIP3    H1 8335   8.178   3.522   0.690
 2798TIP3    H2 8336   8.070   3.433   0.634
 2799TIP3   OH2 8337   3.784   4.303   2.092
 2799TIP3    H1 8338   3.708   4.310   2.149
 2799TIP3    H2 8339   3.751   4.260   2.013
 2800TIP3   OH2 8340   7.351   2.704   1.374
 2800TIP3    H1 8341   7.388   2.690   1.288
 2800TIP3    H2 8342   7.400   2.646   1.432
 2801TIP3   OH2 8343  -0.037   5.405   0.171
 2801TIP3    H1 8344   0.038   5.414   0.229
 2801TIP3    H2 8345   0.001   5.390   0.085
 2802TIP3   OH2 8346   5.314   4.249   1.777
 2802TIP3    H1 8347   5.304   4.214   1.688
 2802TIP3    H2 8348   5.290   4.177   1.834
 2803TIP3   OH2 8349   1.923   4.007   0.652
 2803TIP3    H1 8350   2.016   3.984   0.659
 2803TIP3    H2 8351   1.878   3.938   0.701
 2804TIP3   OH2 8352   1.514   4.750   3.925
 2804TIP3    H1 8353   1.518   4.772   4.018
 2804TIP3    H2 8354   1.589   4.692   3.911
 2805TIP3   OH2 8355   7.059   0.654   1.556
 2805TIP3    H1 8356   7.022   0.705   1.485
 2805TIP3    H2 8357   6.999   0.667   1.630
 2806TIP3   OH2 8358   7.039   3.570   1.364
 2806TIP3    H1 8359   7.034   3.640   1.300
 2806TIP3    H2 8360   7.132   3.548   1.370
 2807TIP3   OH2 8361   5.022   3.880   5.113
 2807TIP3    H1 8362   4.969   3.810   5.149
 2807TIP3    H2 8363   5.108   3.869   5.154
 2808TIP3   OH2 8364   7.379   4.594   2.636
 2808TIP3    H1 8365   7.303   4.557   2.591
 2808TIP3    H2 8366   7.428   4.518   2.668
 2809TIP3   OH2 8367   7.741   0.383   3.074
 2809TIP3    H1 8368   7.719   0.317   3.139
 2809TIP3    H2 8369   7.657   0.406   3.034
 2810TIP3   OH2 8370   1.920   4.106   5.229
 2810TIP3    H1 8371   1.854   4.049   5.190
 2810TIP3    H2 8372   1.881   4.134   5.312
 2811TIP3   OH2 8373   1.539   6.594   1.971
 2811TIP3    H1 8374   1.484   6.605   1.894
 2811TIP3    H2 8375   1.553   6.500   1.978
 2812TIP3   OH2 8376   6.370   2.286   3.023
 2812TIP3    H1 8377   6.326   2.231   3.089
 2812TIP3    H2 8378   6.424   2.225   2.974
 2813TIP3   OH2 8379   8.001   4.783   0.871
 2813TIP3    H1 8380   8.003   4.808   0.963
 2813TIP3    H2 8381   7.929   4.834   0.834
 2814TIP3   OH2 8382   5.731   6.923   2.964
 2814TIP3    H1 8383   5.809   6.921   2.907
 2814TIP3    H2 8384   5.682   7.000   2.935
 2815TIP3   OH2 8385   3.265   2.342   2.149
 2815TIP3    H1 8386   3.262   2.418   2.092
 2815TIP3    H2 8387   3.357   2.333   2.173
 2816TIP3   OH2 8388   7.266   7.030   6.692
 2816TIP3    H1 8389   7.239   6.960   6.632
 2816TIP3    H2 8390   7.261   6.991   6.779
 2817TIP3   OH2 8391   0.213   2.785   6.092
 2817TIP3    H1 8392   0.174   2.830   6.017
 2817TIP3    H2 8393   0.141   2.774   6.154
 2818TIP3   OH2 8394   2.234   2.825   5.303
 2818TIP3    H1 8395   2.193   2.755   5.253
 2818TIP3    H2 8396   2.162   2.882   5.329
 2819TIP3   OH2 8397   6.529   5.686   3.723
 2819TIP3    H1 8398   6.579   5.765   3.704
 2819TIP3    H2 8399   6.573   5.617   3.673
 2820TIP3   OH2 8400   4.338   3.252   4.019
 2820TIP3    H1 8401   4.260   3.211   3.981
 2820TIP3    H2 8402   4.399   3.179   4.033
 2821TIP3   OH2 8403   3.594   1.190   5.285
 2821TIP3    H1 8404   3.591   1.153   5.197
 2821TIP3    H2 8405   3.503   1.193   5.313
 2822TIP3   OH2 8406   6.708   7.313   5.856
 2822TIP3    H1 8407   6.714   7.221   5.829
 2822TIP3    H2 8408   6.792   7.351   5.830
 2823TIP3   OH2 8409   3.685   4.066   6.220
 2823TIP3    H1 8410   3.728   3.982   6.207
 2823TIP3    H2 8411   3.703   4.116   6.140
 2824TIP3   OH2 8412   7.729   3.080   1.824
 2824TIP3    H1 8413   7.796   3.029   1.870
 2824TIP3    H2 8414   7.685   3.130   1.893
 2825TIP3   OH2 8415   5.968   2.649   5.800
 2825TIP3    H1 8416   5.964   2.554   5.788
 2825TIP3    H2 8417   6.059   2.666   5.826
 2826TIP3   OH2 8418   7.943   0.915   4.262
 2826TIP3    H1 8419   7.908   0.839   4.214
 2826TIP3    H2 8420   7.871   0.942   4.319
 2827TIP3   OH2 8421   2.734   2.363   2.796
 2827TIP3    H1 8422   2.785   2.362   2.715
 2827TIP3    H2 8423   2.651   2.403   2.771
 2828TIP3   OH2 8424   4.395   3.778   5.112
 2828TIP3    H1 8425   4.390   3.761   5.206
 2828TIP3    H2 8426   4.465   3.720   5.081
 2829TIP3   OH2 8427   5.350   7.564   2.594
 2829TIP3    H1 8428   5.262   7.564   2.632
 2829TIP3    H2 8429   5.382   7.653   2.609
 2830TIP3   OH2 8430   5.815   5.738   2.595
 2830TIP3    H1 8431   5.736   5.777   2.559
 2830TIP3    H2 8432   5.855   5.692   2.522
 2831TIP3   OH2 8433   0.225   6.666   6.759
 2831TIP3    H1 8434   0.150   6.699   6.709
 2831TIP3    H2 8435   0.192   6.656   6.848
 2832TIP3   OH2 8436   2.674   6.563   0.751
 2832TIP3    H1 8437   2.639   6.650   0.767
 2832TIP3    H2 8438   2.666   6.550   0.657
 2833TIP3   OH2 8439   6.221   6.622   0.989
 2833TIP3    H1 8440   6.231   6.574   1.071
 2833TIP3    H2 8441   6.299   6.677   0.983
 2834TIP3   OH2 8442   1.332   4.282   0.966
 2834TIP3    H1 8443   1.302   4.193   0.949
 2834TIP3    H2 8444   1.294   4.305   1.051
 2835TIP3   OH2 8445   3.875   4.341   1.603
 2835TIP3    H1 8446   3.827   4.420   1.626
 2835TIP3    H2 8447   3.955   4.372   1.562
 2836TIP3   OH2 8448   8.020   5.601   0.345
 2836TIP3    H1 8449   8.073   5.579   0.269
 2836TIP3    H2 8450   8.084   5.626   0.412
 2837TIP3   OH2 8451   4.944   5.493   5.009
 2837TIP3    H1 8452   4.936   5.524   4.919
 2837TIP3    H2 8453   4.976   5.569   5.058
 2838TIP3   OH2 8454   5.086   5.958   4.973
 2838TIP3    H1 8455   5.044   6.021   4.914
 2838TIP3    H2 8456   5.134   6.012   5.036
 2839TIP3   OH2 8457   6.604   5.056   3.155
 2839TIP3    H1 8458   6.625   5.148   3.173
 2839TIP3    H2 8459   6.511   5.049   3.177
 2840TIP3   OH2 8460   1.561   5.548   3.046
 2840TIP3    H1 8461   1.544   5.606   2.971
 2840TIP3    H2 8462   1.557   5.460   3.009
 2841TIP3   OH2 8463   3.512   4.281   1.359
 2841TIP3    H1 8464   3.579   4.226   1.317
 2841TIP3    H2 8465   3.448   4.219   1.394
 2842TIP3   OH2 8466   6.583   7.832   1.692
 2842TIP3    H1 8467   6.577   7.824   1.596
 2842TIP3    H2 8468   6.543   7.752   1.725
 2843TIP3   OH2 8469   4.170   3.955   1.979
 2843TIP3    H1 8470   4.157   3.937   2.072
 2843TIP3    H2 8471   4.174   3.869   1.937
 2844TIP3   OH2 8472   3.894   3.201   1.924
 2844TIP3    H1 8473   3.817   3.151   1.898
 2844TIP3    H2 8474   3.882   3.217   2.018
 2845TIP3   OH2 8475   5.902   5.912   3.707
 2845TIP3    H1 8476   5.825   5.924   3.651
 2845TIP3    H2 8477   5.875   5.946   3.793
 2846TIP3   OH2 8478   3.050   4.200   1.755
 2846TIP3    H1 8479   3.120   4.136   1.747
 2846TIP3    H2 8480   3.082   4.276   1.706
 2847TIP3   OH2 8481   4.859   3.083   1.504
 2847TIP3    H1 8482   4.835   3.107   1.594
 2847TIP3    H2 8483   4.870   3.167   1.459
 2848TIP3   OH2 8484   6.435   6.743   6.039
 2848TIP3    H1 8485   6.375   6.708   6.104
 2848TIP3    H2 8486   6.383   6.805   5.988
 2849TIP3   OH2 8487   4.313   0.958   2.210
 2849TIP3    H1 8488   4.256   0.998   2.276
 2849TIP3    H2 8489   4.399   0.995   2.228
 2850TIP3   OH2 8490   2.193   0.047   1.720
 2850TIP3    H1 8491   2.252   0.051   1.644
 2850TIP3    H2 8492   2.228  -0.024   1.774
 2851TIP3   OH2 8493   1.779   7.776   0.863
 2851TIP3    H1 8494   1.819   7.798   0.779
 2851TIP3    H2 8495   1.746   7.686   0.851
 2852TIP3   OH2 8496   2.216   6.267   4.543
 2852TIP3    H1 8497   2.261   6.185   4.520
 2852TIP3    H2 8498   2.124   6.250   4.525
 2853TIP3   OH2 8499   2.393   7.423   2.524
 2853TIP3    H1 8500   2.330   7.478   2.571
 2853TIP3    H2 8501   2.364   7.427   2.433
 2854TIP3   OH2 8502   1.340   0.914   5.163
 2854TIP3    H1 8503   1.291   0.838   5.134
 2854TIP3    H2 8504   1.374   0.891   5.250
 2855TIP3   OH2 8505   0.511   6.243   6.492
 2855TIP3    H1 8506   0.494   6.337   6.484
 2855TIP3    H2 8507   0.539   6.217   6.404
 2856TIP3   OH2 8508   5.015   7.893   5.482
 2856TIP3    H1 8509   4.989   7.933   5.565
 2856TIP3    H2 8510   4.946   7.829   5.464
 2857TIP3   OH2 8511   4.563   2.724   0.238
 2857TIP3    H1 8512   4.627   2.687   0.177
 2857TIP3    H2 8513   4.481   2.680   0.216
 2858TIP3   OH2 8514   6.704   3.259   4.484
 2858TIP3    H1 8515   6.670   3.261   4.574
 2858TIP3    H2 8516   6.628   3.277   4.429
 2859TIP3   OH2 8517   0.121   6.068   0.812
 2859TIP3    H1 8518   0.201   6.084   0.761
 2859TIP3    H2 8519   0.050   6.079   0.748
 2860TIP3   OH2 8520   1.477   0.724   1.052
 2860TIP3    H1 8521   1.541   0.664   1.091
 2860TIP3    H2 8522   1.530   0.795   1.016
 2861TIP3   OH2 8523   7.222   0.955   0.140
 2861TIP3    H1 8524   7.316   0.939   0.138
 2861TIP3    H2 8525   7.197   0.965   0.048
 2862TIP3   OH2 8526   4.660   2.848   6.635
 2862TIP3    H1 8527   4.601   2.915   6.672
 2862TIP3    H2 8528   4.685   2.794   6.710
 2863TIP3   OH2 8529   6.720   5.911   1.824
 2863TIP3    H1 8530   6.745   5.826   1.860
 2863TIP3    H2 8531   6.628   5.921   1.849
 2864TIP3   OH2 8532   4.387   7.157   2.343
 2864TIP3    H1 8533   4.358   7.198   2.262
 2864TIP3    H2 8534   4.308   7.147   2.395
 2865TIP3   OH2 8535   3.781   1.876   5.568
 2865TIP3    H1 8536   3.720   1.823   5.516
 2865TIP3    H2 8537   3.855   1.817   5.585
 2866TIP3   OH2 8538   6.396   0.545   0.258
 2866TIP3    H1 8539   6.399   0.593   0.175
 2866TIP3    H2 8540   6.487   0.536   0.284
 2867TIP3   OH2 8541   7.667   6.001   3.649
 2867TIP3    H1 8542   7.697   6.087   3.679
 2867TIP3    H2 8543   7.673   6.006   3.554
 2868TIP3   OH2 8544   1.323   1.585   2.401
 2868TIP3    H1 8545   1.328   1.489   2.394
 2868TIP3    H2 8546   1.229   1.604   2.406
 2869TIP3   OH2 8547   7.850   0.509   2.036
 2869TIP3    H1 8548   7.787   0.580   2.047
 2869TIP3    H2 8549   7.922   0.531   2.094
 2870TIP3   OH2 8550   2.762   5.540   4.477
 2870TIP3    H1 8551   2.760   5.489   4.395
 2870TIP3    H2 8552   2.713   5.486   4.539
 2871TIP3   OH2 8553   7.631   4.853   3.623
 2871TIP3    H1 8554   7.708   4.894   3.584
 2871TIP3    H2 8555   7.586   4.924   3.668
 2872TIP3   OH2 8556   3.020   4.492   0.603
 2872TIP3    H1 8557   2.950   4.555   0.621
 2872TIP3    H2 8558   2.986   4.438   0.532
 2873TIP3   OH2 8559   6.112   2.585   2.077
 2873TIP3    H1 8560   6.041   2.640   2.041
 2873TIP3    H2 8561   6.120   2.513   2.015
 2874TIP3   OH2 8562   6.028   5.598   4.646
 2874TIP3    H1 8563   5.975   5.658   4.698
 2874TIP3    H2 8564   6.091   5.561   4.708
 2875TIP3   OH2 8565   4.400   2.289   2.167
 2875TIP3    H1 8566   4.346   2.279   2.246
 2875TIP3    H2 8567   4.408   2.383   2.156
 2876TIP3   OH2 8568   2.490   1.192   5.368
 2876TIP3    H1 8569   2.566   1.248   5.379
 2876TIP3    H2 8570   2.468   1.163   5.457
 2877TIP3   OH2 8571   6.809   4.180   2.194
 2877TIP3    H1 8572   6.720   4.185   2.158
 2877TIP3    H2 8573   6.836   4.089   2.179
 2878TIP3   OH2 8574   6.308   1.725   1.101
 2878TIP3    H1 8575   6.323   1.667   1.176
 2878TIP3    H2 8576   6.288   1.810   1.140
 2879TIP3   OH2 8577   0.287   7.779   2.479
 2879TIP3    H1 8578   0.283   7.690   2.444
 2879TIP3    H2 8579   0.292   7.768   2.574
 2880TIP3   OH2 8580   7.519   4.765   0.002
 2880TIP3    H1 8581   7.532   4.859  -0.013
 2880TIP3    H2 8582   7.442   4.761   0.059
 2881TIP3   OH2 8583   4.435   1.731   2.585
 2881TIP3    H1 8584   4.391   1.648   2.606
 2881TIP3    H2 8585   4.373   1.777   2.529
 2882TIP3   OH2 8586   4.894   1.719   5.253
 2882TIP3    H1 8587   4.972   1.766   5.223
 2882TIP3    H2 8588   4.851   1.690   5.173
 2883TIP3   OH2 8589   5.179   4.949   5.139
 2883TIP3    H1 8590   5.167   5.034   5.098
 2883TIP3    H2 8591   5.218   4.968   5.224
 2884TIP3   OH2 8592   5.079   5.178   3.553
 2884TIP3    H1 8593   5.064   5.205   3.462
 2884TIP3    H2 8594   5.153   5.232   3.582
 2885TIP3   OH2 8595   7.648   6.943   3.022
 2885TIP3    H1 8596   7.709   6.898   2.963
 2885TIP3    H2 8597   7.593   6.873   3.057
 2886TIP3   OH2 8598   3.749   2.284   6.014
 2886TIP3    H1 8599   3.704   2.208   5.978
 2886TIP3    H2 8600   3.678   2.344   6.038
 2887TIP3   OH2 8601   2.587   5.213   0.116
 2887TIP3    H1 8602   2.625   5.156   0.048
 2887TIP3    H2 8603   2.587   5.159   0.195
 2888TIP3   OH2 8604   5.871   1.888   5.792
 2888TIP3    H1 8605   5.946   1.834   5.768
 2888TIP3    H2 8606   5.817   1.891   5.714
 2889TIP3   OH2 8607   1.085   2.956   0.208
 2889TIP3    H1 8608   1.166   3.006   0.210
 2889TIP3    H2 8609   1.049   2.972   0.121
 2890TIP3   OH2 8610   0.275   6.095   1.749
 2890TIP3    H1 8611   0.354   6.141   1.720
 2890TIP3    H2 8612   0.301   6.003   1.752
 2891TIP3   OH2 8613   6.170   2.985   3.151
 2891TIP3    H1 8614   6.090   2.967   3.200
 2891TIP3    H2 8615   6.141   2.994   3.060
 2892TIP3   OH2 8616   8.029   4.541   4.574
 2892TIP3    H1 8617   8.094   4.482   4.535
 2892TIP3    H2 8618   8.076   4.584   4.645
 2893TIP3   OH2 8619   2.737   5.802   4.401
 2893TIP3    H1 8620   2.769   5.720   4.437
 2893TIP3    H2 8621   2.777   5.808   4.314
 2894TIP3   OH2 8622   3.893   6.968   4.481
 2894TIP3    H1 8623   3.877   6.877   4.505
 2894TIP3    H2 8624   3.863   7.018   4.557
 2895TIP3   OH2 8625   0.781   3.984   1.546
 2895TIP3    H1 8626   0.706   3.978   1.605
 2895TIP3    H2 8627   0.746   3.966   1.460
 2896TIP3   OH2 8628   0.574   0.419   4.329
 2896TIP3    H1 8629   0.619   0.338   4.306
 2896TIP3    H2 8630   0.515   0.436   4.256
 2897TIP3   OH2 8631   3.513   0.826   2.309
 2897TIP3    H1 8632   3.516   0.743   2.358
 2897TIP3    H2 8633   3.513   0.894   2.376
 2898TIP3   OH2 8634   0.285   4.708   3.197
 2898TIP3    H1 8635   0.372   4.667   3.198
 2898TIP3    H2 8636   0.251   4.691   3.285
 2899TIP3   OH2 8637   4.855   5.824   0.491
 2899TIP3    H1 8638   4.899   5.904   0.519
 2899TIP3    H2 8639   4.783   5.814   0.552
 2900TIP3   OH2 8640   0.073   7.717   2.154
 2900TIP3    H1 8641   0.090   7.750   2.066
 2900TIP3    H2 8642   0.158   7.684   2.183
 2901TIP3   OH2 8643   7.618   6.070   0.729
 2901TIP3    H1 8644   7.623   6.100   0.820
 2901TIP3    H2 8645   7.526   6.079   0.706
 2902TIP3   OH2 8646   0.396   6.759   2.310
 2902TIP3    H1 8647   0.366   6.732   2.223
 2902TIP3    H2 8648   0.334   6.717   2.370
 2903TIP3   OH2 8649   3.180   0.805   1.336
 2903TIP3    H1 8650   3.230   0.785   1.257
 2903TIP3    H2 8651   3.143   0.892   1.320
 2904TIP3   OH2 8652   4.915   3.081   3.878
 2904TIP3    H1 8653   4.918   3.013   3.811
 2904TIP3    H2 8654   4.894   3.035   3.959
 2905TIP3   OH2 8655   0.079   3.966   5.577
 2905TIP3    H1 8656   0.085   3.871   5.568
 2905TIP3    H2 8657   0.169   3.995   5.583
 2906TIP3   OH2 8658   6.959   3.009   4.731
 2906TIP3    H1 8659   6.908   3.069   4.786
 2906TIP3    H2 8660   6.980   3.060   4.653
 2907TIP3   OH2 8661   8.375   0.642   0.594
 2907TIP3    H1 8662   8.393   0.678   0.507
 2907TIP3    H2 8663   8.368   0.719   0.651
 2908TIP3   OH2 8664   1.496   3.186   1.597
 2908TIP3    H1 8665   1.554   3.113   1.617
 2908TIP3    H2 8666   1.408   3.150   1.604
 2909TIP3   OH2 8667   0.903   4.233   0.229
 2909TIP3    H1 8668   0.821   4.190   0.204
 2909TIP3    H2 8669   0.875   4.317   0.267
 2910TIP3   OH2 8670   3.339   3.250   3.636
 2910TIP3    H1 8671   3.416   3.197   3.656
 2910TIP3    H2 8672   3.298   3.266   3.721
 2911TIP3   OH2 8673   5.512   4.953   1.736
 2911TIP3    H1 8674   5.418   4.971   1.729
 2911TIP3    H2 8675   5.517   4.861   1.762
 2912TIP3   OH2 8676   1.585   4.300   0.863
 2912TIP3    H1 8677   1.496   4.293   0.896
 2912TIP3    H2 8678   1.594   4.228   0.800
 2913TIP3   OH2 8679   8.381   7.684   1.241
 2913TIP3    H1 8680   8.387   7.651   1.151
 2913TIP3    H2 8681   8.406   7.610   1.295
 2914TIP3   OH2 8682   1.684   0.660   2.093
 2914TIP3    H1 8683   1.646   0.709   2.167
 2914TIP3    H2 8684   1.609   0.640   2.037
 2915TIP3   OH2 8685   6.255   1.979   1.201
 2915TIP3    H1 8686   6.176   2.019   1.237
 2915TIP3    H2 8687   6.287   2.041   1.136
 2916TIP3   OH2 8688   6.116   2.517   0.978
 2916TIP3    H1 8689   6.123   2.607   0.947
 2916TIP3    H2 8690   6.040   2.517   1.036
 2917TIP3   OH2 8691   0.605   4.098   5.131
 2917TIP3    H1 8692   0.625   4.191   5.146
 2917TIP3    H2 8693   0.613   4.088   5.036
 2918TIP3   OH2 8694   3.160   3.031   6.739
 2918TIP3    H1 8695   3.193   3.120   6.753
 2918TIP3    H2 8696   3.109   3.011   6.818
 2919TIP3   OH2 8697   8.145   5.297   1.264
 2919TIP3    H1 8698   8.207   5.225   1.257
 2919TIP3    H2 8699   8.134   5.328   1.174
 2920TIP3   OH2 8700   5.057   7.081   5.694
 2920TIP3    H1 8701   5.048   7.095   5.600
 2920TIP3    H2 8702   5.069   6.986   5.703
 2921TIP3   OH2 8703   4.934   4.881   3.421
 2921TIP3    H1 8704   4.890   4.962   3.398
 2921TIP3    H2 8705   4.870   4.833   3.473
 2922TIP3   OH2 8706   4.457   2.291   6.048
 2922TIP3    H1 8707   4.371   2.270   6.086
 2922TIP3    H2 8708   4.440   2.366   5.991
 2923TIP3   OH2 8709   7.922   2.470   2.301
 2923TIP3    H1 8710   7.962   2.557   2.299
 2923TIP3    H2 8711   7.881   2.464   2.387
 2924TIP3   OH2 8712   5.778   6.960   6.364
 2924TIP3    H1 8713   5.781   7.056   6.365
 2924TIP3    H2 8714   5.725   6.939   6.288
 2925TIP3   OH2 8715   5.897   6.687   3.970
 2925TIP3    H1 8716   5.885   6.692   4.064
 2925TIP3    H2 8717   5.988   6.660   3.958
 2926TIP3   OH2 8718   0.989   2.364   2.854
 2926TIP3    H1 8719   0.912   2.319   2.819
 2926TIP3    H2 8720   0.991   2.340   2.947
 2927TIP3   OH2 8721   4.979   5.823   0.881
 2927TIP3    H1 8722   5.038   5.820   0.806
 2927TIP3    H2 8723   4.972   5.731   0.909
 2928TIP3   OH2 8724   6.833   7.617   2.066
 2928TIP3    H1 8725   6.796   7.531   2.086
 2928TIP3    H2 8726   6.846   7.616   1.971
 2929TIP3   OH2 8727   3.551   3.865   5.634
 2929TIP3    H1 8728   3.639   3.832   5.651
 2929TIP3    H2 8729   3.495   3.814   5.692
 2930TIP3   OH2 8730   0.516   5.750   1.171
 2930TIP3    H1 8731   0.471   5.739   1.087
 2930TIP3    H2 8732   0.487   5.676   1.223
 2931TIP3   OH2 8733   7.082   4.051   0.839
 2931TIP3    H1 8734   7.117   4.105   0.910
 2931TIP3    H2 8735   7.111   3.962   0.860
 2932TIP3   OH2 8736   2.449   2.799   4.779
 2932TIP3    H1 8737   2.428   2.732   4.715
 2932TIP3    H2 8738   2.543   2.812   4.771
 2933TIP3   OH2 8739   2.081   3.019   4.585
 2933TIP3    H1 8740   2.004   3.033   4.641
 2933TIP3    H2 8741   2.045   3.002   4.498
 2934TIP3   OH2 8742   0.286   2.785   6.504
 2934TIP3    H1 8743   0.273   2.756   6.595
 2934TIP3    H2 8744   0.341   2.862   6.512
 2935TIP3   OH2 8745   5.883   3.371   1.320
 2935TIP3    H1 8746   5.822   3.351   1.390
 2935TIP3    H2 8747   5.860   3.311   1.249
 2936TIP3   OH2 8748   2.494   0.874   2.395
 2936TIP3    H1 8749   2.432   0.913   2.334
 2936TIP3    H2 8750   2.573   0.860   2.343
 2937TIP3   OH2 8751   1.613   0.366   6.181
 2937TIP3    H1 8752   1.578   0.434   6.123
 2937TIP3    H2 8753   1.664   0.414   6.246
 2938TIP3   OH2 8754   3.363   5.205   1.772
 2938TIP3    H1 8755   3.380   5.253   1.691
 2938TIP3    H2 8756   3.417   5.126   1.765
 2939TIP3   OH2 8757   2.058   0.329   6.376
 2939TIP3    H1 8758   2.050   0.420   6.346
 2939TIP3    H2 8759   2.093   0.282   6.300
 2940TIP3   OH2 8760   4.575   1.686   2.909
 2940TIP3    H1 8761   4.584   1.753   2.842
 2940TIP3    H2 8762   4.665   1.668   2.938
 2941TIP3   OH2 8763   4.616   0.223   5.329
 2941TIP3    H1 8764   4.632   0.196   5.419
 2941TIP3    H2 8765   4.673   0.299   5.316
 2942TIP3   OH2 8766   4.354   4.627   5.804
 2942TIP3    H1 8767   4.316   4.684   5.870
 2942TIP3    H2 8768   4.303   4.546   5.810
 2943TIP3   OH2 8769   0.798   3.897   2.063
 2943TIP3    H1 8770   0.735   3.869   2.129
 2943TIP3    H2 8771   0.763   3.979   2.029
 2944TIP3   OH2 8772   5.275   5.005   5.392
 2944TIP3    H1 8773   5.200   5.026   5.447
 2944TIP3    H2 8774   5.318   4.932   5.436
 2945TIP3   OH2 8775   0.492   1.560   3.575
 2945TIP3    H1 8776   0.574   1.597   3.608
 2945TIP3    H2 8777   0.491   1.583   3.482
 2946TIP3   OH2 8778   5.690   5.023   2.606
 2946TIP3    H1 8779   5.699   4.928   2.611
 2946TIP3    H2 8780   5.721   5.056   2.690
 2947TIP3   OH2 8781   1.297   1.701   5.376
 2947TIP3    H1 8782   1.345   1.773   5.417
 2947TIP3    H2 8783   1.209   1.705   5.413
 2948TIP3   OH2 8784   2.154   7.292   1.975
 2948TIP3    H1 8785   2.146   7.380   2.013
 2948TIP3    H2 8786   2.185   7.307   1.886
 2949TIP3   OH2 8787   2.080   7.727   3.185
 2949TIP3    H1 8788   2.174   7.720   3.204
 2949TIP3    H2 8789   2.044   7.770   3.262
 2950TIP3   OH2 8790   0.701   4.701   1.541
 2950TIP3    H1 8791   0.704   4.722   1.448
 2950TIP3    H2 8792   0.721   4.783   1.585
 2951TIP3   OH2 8793   5.363   5.472   2.685
 2951TIP3    H1 8794   5.350   5.557   2.726
 2951TIP3    H2 8795   5.453   5.475   2.651
 2952TIP3   OH2 8796   6.028   5.842   1.661
 2952TIP3    H1 8797   6.004   5.808   1.575
 2952TIP3    H2 8798   6.122   5.859   1.655
 2953TIP3   OH2 8799   6.572   5.278   2.674
 2953TIP3    H1 8800   6.532   5.223   2.741
 2953TIP3    H2 8801   6.586   5.362   2.718
 2954TIP3   OH2 8802   6.889   0.893   3.443
 2954TIP3    H1 8803   6.901   0.799   3.433
 2954TIP3    H2 8804   6.968   0.932   3.405
 2955TIP3   OH2 8805   2.760   4.345   0.499
 2955TIP3    H1 8806   2.698   4.312   0.564
 2955TIP3    H2 8807   2.790   4.268   0.451
 2956TIP3   OH2 8808   3.974   0.982   0.612
 2956TIP3    H1 8809   3.903   0.994   0.675
 2956TIP3    H2 8810   3.952   1.041   0.540
 2957TIP3   OH2 8811   6.390   7.710   1.260
 2957TIP3    H1 8812   6.350   7.633   1.300
 2957TIP3    H2 8813   6.316   7.758   1.222
 2958TIP3   OH2 8814   0.774   6.786   3.062
 2958TIP3    H1 8815   0.764   6.811   3.154
 2958TIP3    H2 8816   0.729   6.702   3.055
 2959TIP3   OH2 8817   4.084   0.740   0.590
 2959TIP3    H1 8818   4.043   0.705   0.669
 2959TIP3    H2 8819   4.058   0.832   0.589
 2960TIP3   OH2 8820   2.485   0.167   2.903
 2960TIP3    H1 8821   2.459   0.255   2.931
 2960TIP3    H2 8822   2.533   0.181   2.821
 2961TIP3   OH2 8823   1.653   3.782   3.105
 2961TIP3    H1 8824   1.580   3.776   3.044
 2961TIP3    H2 8825   1.631   3.719   3.174
 2962TIP3   OH2 8826   7.914   6.939   0.258
 2962TIP3    H1 8827   7.997   6.908   0.295
 2962TIP3    H2 8828   7.860   6.861   0.251
 2963TIP3   OH2 8829   6.179   5.322   2.781
 2963TIP3    H1 8830   6.255   5.268   2.801
 2963TIP3    H2 8831   6.216   5.402   2.743
 2964TIP3   OH2 8832   4.967   5.365   6.628
 2964TIP3    H1 8833   5.032   5.361   6.558
 2964TIP3    H2 8834   4.999   5.434   6.687
 2965TIP3   OH2 8835   7.698   2.260   3.780
 2965TIP3    H1 8836   7.718   2.186   3.837
 2965TIP3    H2 8837   7.615   2.236   3.738
 2966TIP3   OH2 8838   5.487   6.201   3.389
 2966TIP3    H1 8839   5.419   6.263   3.363
 2966TIP3    H2 8840   5.468   6.181   3.480
 2967TIP3   OH2 8841   2.229   0.645   1.751
 2967TIP3    H1 8842   2.169   0.574   1.728
 2967TIP3    H2 8843   2.278   0.612   1.826
 2968TIP3   OH2 8844   1.708   3.330   2.703
 2968TIP3    H1 8845   1.797   3.356   2.724
 2968TIP3    H2 8846   1.714   3.236   2.687
 2969TIP3   OH2 8847   3.570   0.117   4.419
 2969TIP3    H1 8848   3.651   0.132   4.370
 2969TIP3    H2 8849   3.580   0.168   4.499
 2970TIP3   OH2 8850   1.566   5.122   2.346
 2970TIP3    H1 8851   1.477   5.086   2.336
 2970TIP3    H2 8852   1.552   5.214   2.367
 2971TIP3   OH2 8853   2.999   6.432   0.406
 2971TIP3    H1 8854   3.034   6.376   0.337
 2971TIP3    H2 8855   3.061   6.422   0.478
 2972TIP3   OH2 8856   7.183   7.838   2.045
 2972TIP3    H1 8857   7.139   7.888   1.976
 2972TIP3    H2 8858   7.170   7.890   2.124
 2973TIP3   OH2 8859   0.187   5.154   2.028
 2973TIP3    H1 8860   0.245   5.228   2.009
 2973TIP3    H2 8861   0.225   5.082   1.977
 2974TIP3   OH2 8862   8.124   3.931   2.503
 2974TIP3    H1 8863   8.038   3.937   2.463
 2974TIP3    H2 8864   8.108   3.946   2.596
 2975TIP3   OH2 8865   6.820   5.246   3.064
 2975TIP3    H1 8866   6.775   5.312   3.116
 2975TIP3    H2 8867   6.883   5.206   3.125
 2976TIP3   OH2 8868   4.885   2.346   1.896
 2976TIP3    H1 8869   4.790   2.333   1.898
 2976TIP3    H2 8870   4.921   2.258   1.881
 2977TIP3   OH2 8871   6.921   0.485   4.775
 2977TIP3    H1 8872   6.968   0.438   4.844
 2977TIP3    H2 8873   6.974   0.562   4.758
 2978TIP3   OH2 8874   1.264   6.986   4.981
 2978TIP3    H1 8875   1.236   7.045   5.051
 2978TIP3    H2 8876   1.193   6.922   4.973
 2979TIP3   OH2 8877   2.063   6.943   5.769
 2979TIP3    H1 8878   2.143   6.893   5.754
 2979TIP3    H2 8879   2.019   6.897   5.841
 2980TIP3   OH2 8880   5.644   0.495   0.871
 2980TIP3    H1 8881   5.557   0.486   0.832
 2980TIP3    H2 8882   5.648   0.425   0.936
 2981TIP3   OH2 8883   1.939   4.970   3.887
 2981TIP3    H1 8884   1.909   5.041   3.830
 2981TIP3    H2 8885   2.000   4.920   3.833
 2982TIP3   OH2 8886   0.346   1.466   5.622
 2982TIP3    H1 8887   0.329   1.498   5.710
 2982TIP3    H2 8888   0.312   1.376   5.622
 2983TIP3   OH2 8889   1.607   3.620   0.880
 2983TIP3    H1 8890   1.700   3.607   0.860
 2983TIP3    H2 8891   1.606   3.653   0.969
 2984TIP3   OH2 8892   0.758   3.477   6.671
 2984TIP3    H1 8893   0.797   3.420   6.737
 2984TIP3    H2 8894   0.708   3.542   6.721
 2985TIP3   OH2 8895   4.923   5.828   5.895
 2985TIP3    H1 8896   4.854   5.820   5.961
 2985TIP3    H2 8897   4.954   5.738   5.882
 2986TIP3   OH2 8898   6.302   1.903   5.489
 2986TIP3    H1 8899   6.369   1.971   5.488
 2986TIP3    H2 8900   6.349   1.822   5.469
 2987TIP3   OH2 8901   7.081   0.139   2.743
 2987TIP3    H1 8902   7.105   0.170   2.830
 2987TIP3    H2 8903   7.144   0.068   2.725
 2988TIP3   OH2 8904   2.009   4.405   2.006
 2988TIP3    H1 8905   2.068   4.332   2.021
 2988TIP3    H2 8906   1.924   4.375   2.040
 2989TIP3   OH2 8907   2.451   7.221   1.313
 2989TIP3    H1 8908   2.368   7.175   1.298
 2989TIP3    H2 8909   2.489   7.230   1.226
 2990TIP3   OH2 8910   7.472   1.972   1.008
 2990TIP3    H1 8911   7.533   1.899   0.992
 2990TIP3    H2 8912   7.385   1.933   0.997
 2991TIP3   OH2 8913   6.749   5.801   5.487
 2991TIP3    H1 8914   6.796   5.783   5.569
 2991TIP3    H2 8915   6.796   5.874   5.448
 2992TIP3   OH2 8916   1.198   3.277   5.825
 2992TIP3    H1 8917   1.283   3.284   5.780
 2992TIP3    H2 8918   1.215   3.311   5.913
 2993TIP3   OH2 8919   6.353   6.489   5.274
 2993TIP3    H1 8920   6.436   6.533   5.256
 2993TIP3    H2 8921   6.299   6.507   5.197
 2994TIP3   OH2 8922   1.948   3.899   5.714
 2994TIP3    H1 8923   1.904   3.814   5.722
 2994TIP3    H2 8924   1.935   3.940   5.799
 2995TIP3   OH2 8925   3.022   6.002   6.747
 2995TIP3    H1 8926   3.047   5.986   6.838
 2995TIP3    H2 8927   3.015   6.097   6.740
 2996TIP3   OH2 8928   4.967   6.085   5.752
 2996TIP3    H1 8929   4.915   6.114   5.677
 2996TIP3    H2 8930   4.968   5.990   5.745
 2997TIP3   OH2 8931   6.204   3.042   5.396
 2997TIP3    H1 8932   6.155   3.079   5.470
 2997TIP3    H2 8933   6.295   3.038   5.426
 2998TIP3   OH2 8934   7.744   2.061   2.747
 2998TIP3    H1 8935   7.816   2.115   2.781
 2998TIP3    H2 8936   7.676   2.124   2.723
 2999TIP3   OH2 8937   3.590   3.849   2.027
 2999TIP3    H1 8938   3.588   3.788   1.954
 2999TIP3    H2 8939   3.663   3.908   2.007
 3000TIP3   OH2 8940   4.979   6.831   4.155
 3000TIP3    H1 8941   4.970   6.740   4.182
 3000TIP3    H2 8942   4.909   6.845   4.091
 3001TIP3   OH2 8943   7.783   7.098   5.174
 3001TIP3    H1 8944   7.724   7.086   5.099
 3001TIP3    H2 8945   7.744   7.170   5.224
 3002TIP3   OH2 8946   6.287   5.927   4.842
 3002TIP3    H1 8947   6.236   5.868   4.898
 3002TIP3    H2 8948   6.341   5.977   4.902
 3003TIP3   OH2 8949   0.676   2.896   1.845
 3003TIP3    H1 8950   0.677   2.813   1.796
 3003TIP3    H2 8951   0.730   2.878   1.922
 3004TIP3   OH2 8952   5.168   3.040   3.493
 3004TIP3    H1 8953   5.236   3.077   3.437
 3004TIP3    H2 8954   5.214   2.982   3.553
 3005TIP3   OH2 8955   6.637   6.343   0.110
 3005TIP3    H1 8956   6.669   6.264   0.067
 3005TIP3    H2 8957   6.606   6.312   0.195
 3006TIP3   OH2 8958   0.089   1.707   0.999
 3006TIP3    H1 8959   0.047   1.775   0.947
 3006TIP3    H2 8960   0.049   1.625   0.970
 3007TIP3   OH2 8961   5.433   7.623   3.381
 3007TIP3    H1 8962   5.380   7.545   3.361
 3007TIP3    H2 8963   5.516   7.608   3.335
 3008TIP3   OH2 8964   5.865   0.573   4.946
 3008TIP3    H1 8965   5.843   0.492   4.901
 3008TIP3    H2 8966   5.910   0.545   5.026
 3009TIP3   OH2 8967   0.060   6.256   4.545
 3009TIP3    H1 8968   0.025   6.244   4.634
 3009TIP3    H2 8969   0.144   6.212   4.546
 3010TIP3   OH2 8970   7.889   1.977   5.907
 3010TIP3    H1 8971   7.896   1.930   5.824
 3010TIP3    H2 8972   7.976   2.013   5.922
 3011TIP3   OH2 8973   7.190   2.359   1.021
 3011TIP3    H1 8974   7.122   2.292   1.021
 3011TIP3    H2 8975   7.256   2.326   0.959
 3012TIP3   OH2 8976   1.142   5.354   6.352
 3012TIP3    H1 8977   1.133   5.301   6.273
 3012TIP3    H2 8978   1.232   5.339   6.381
 3013TIP3   OH2 8979   5.277   3.965   5.676
 3013TIP3    H1 8980   5.188   3.992   5.697
 3013TIP3    H2 8981   5.269   3.914   5.596
 3014TIP3   OH2 8982   4.826   3.963   0.485
 3014TIP3    H1 8983   4.790   4.034   0.432
 3014TIP3    H2 8984   4.789   3.976   0.572
 3015TIP3   OH2 8985   5.135   6.148   0.887
 3015TIP3    H1 8986   5.065   6.157   0.952
 3015TIP3    H2 8987   5.149   6.054   0.879
 3016TIP3   OH2 8988   5.985   4.993   4.147
 3016TIP3    H1 8989   5.989   5.045   4.228
 3016TIP3    H2 8990   6.029   4.911   4.169
 3017TIP3   OH2 8991   0.288   7.460   0.502
 3017TIP3    H1 8992   0.271   7.483   0.411
 3017TIP3    H2 8993   0.216   7.500   0.551
 3018TIP3   OH2 8994   1.737   5.294   3.238
 3018TIP3    H1 8995   1.651   5.305   3.278
 3018TIP3    H2 8996   1.738   5.202   3.209
 3019TIP3   OH2 8997   8.231   7.075   2.991
 3019TIP3    H1 8998   8.150   7.025   3.002
 3019TIP3    H2 8999   8.214   7.156   3.038
 3020TIP3   OH2 9000   4.566   3.229   1.523
 3020TIP3    H1 9001   4.546   3.221   1.430
 3020TIP3    H2 9002   4.541   3.319   1.546
 3021TIP3   OH2 9003   7.518   6.699   5.409
 3021TIP3    H1 9004   7.555   6.728   5.492
 3021TIP3    H2 9005   7.507   6.779   5.358
 3022TIP3   OH2 9006   5.755   4.743   2.639
 3022TIP3    H1 9007   5.710   4.663   2.666
 3022TIP3    H2 9008   5.771   4.731   2.545
 3023TIP3   OH2 9009   2.598   0.946   5.934
 3023TIP3    H1 9010   2.554   0.863   5.916
 3023TIP3    H2 9011   2.601   0.990   5.849
 3024TIP3   OH2 9012   8.047   7.821   3.806
 3024TIP3    H1 9013   7.990   7.764   3.858
 3024TIP3    H2 9014   8.103   7.864   3.871
 3025TIP3   OH2 9015   0.056   5.046   0.756
 3025TIP3    H1 9016  -0.005   5.037   0.829
 3025TIP3    H2 9017   0.074   5.140   0.751
 3026TIP3   OH2 9018   6.499   4.566   1.538
 3026TIP3    H1 9019   6.542   4.572   1.623
 3026TIP3    H2 9020   6.417   4.521   1.555
 3027TIP3   OH2 9021   8.262   6.533   0.133
 3027TIP3    H1 9022   8.290   6.552   0.223
 3027TIP3    H2 9023   8.174   6.570   0.128
 3028TIP3   OH2 9024   7.267   1.636   4.930
 3028TIP3    H1 9025   7.288   1.711   4.874
 3028TIP3    H2 9026   7.281   1.668   5.019
 3029TIP3   OH2 9027   4.313   1.952   2.828
 3029TIP3    H1 9028   4.402   1.932   2.797
 3029TIP3    H2 9029   4.287   2.029   2.776
 3030TIP3   OH2 9030   1.663   5.839   6.200
 3030TIP3    H1 9031   1.568   5.844   6.213
 3030TIP3    H2 9032   1.673   5.830   6.105
 3031TIP3   OH2 9033   2.550   7.829   2.616
 3031TIP3    H1 9034   2.550   7.740   2.650
 3031TIP3    H2 9035   2.468   7.836   2.565
 3032TIP3   OH2 9036   2.738   3.697   2.426
 3032TIP3    H1 9037   2.680   3.679   2.352
 3032TIP3    H2 9038   2.679   3.719   2.499
 3033TIP3   OH2 9039   6.507   3.379   2.426
 3033TIP3    H1 9040   6.534   3.391   2.518
 3033TIP3    H2 9041   6.501   3.284   2.416
 3034TIP3   OH2 9042   1.225   5.326   6.044
 3034TIP3    H1 9043   1.316   5.311   6.021
 3034TIP3    H2 9044   1.196   5.395   5.984
 3035TIP3   OH2 9045   4.304   5.552   4.381
 3035TIP3    H1 9046   4.351   5.476   4.414
 3035TIP3    H2 9047   4.290   5.532   4.288
 3036TIP3   OH2 9048   4.689   4.781   6.391
 3036TIP3    H1 9049   4.733   4.847   6.338
 3036TIP3    H2 9050   4.747   4.705   6.388
 3037TIP3   OH2 9051   1.296   5.731   0.317
 3037TIP3    H1 9052   1.311   5.684   0.235
 3037TIP3    H2 9053   1.382   5.736   0.359
 3038TIP3   OH2 9054   5.330   6.355   1.578
 3038TIP3    H1 9055   5.298   6.417   1.644
 3038TIP3    H2 9056   5.408   6.396   1.541
 3039TIP3   OH2 9057   4.814   5.486   3.842
 3039TIP3    H1 9058   4.800   5.438   3.760
 3039TIP3    H2 9059   4.758   5.441   3.905
 3040TIP3   OH2 9060   7.728   1.668   5.684
 3040TIP3    H1 9061   7.641   1.643   5.715
 3040TIP3    H2 9062   7.785   1.596   5.712
 3041TIP3   OH2 9063   3.462   3.478   6.736
 3041TIP3    H1 9064   3.463   3.470   6.832
 3041TIP3    H2 9065   3.373   3.505   6.715
 3042TIP3   OH2 9066   7.976   1.590   5.626
 3042TIP3    H1 9067   8.049   1.553   5.676
 3042TIP3    H2 9068   8.011   1.672   5.590
 3043TIP3   OH2 9069   0.709   6.001   2.320
 3043TIP3    H1 9070   0.802   6.004   2.343
 3043TIP3    H2 9071   0.697   6.070   2.255
 3044TIP3   OH2 9072   7.079   3.624   2.304
 3044TIP3    H1 9073   7.047   3.630   2.394
 3044TIP3    H2 9074   7.014   3.572   2.258
 3045TIP3   OH2 9075   4.985   0.069   0.754
 3045TIP3    H1 9076   4.974   0.078   0.660
 3045TIP3    H2 9077   4.910   0.114   0.792
 3046TIP3   OH2 9078   2.681   4.604   2.016
 3046TIP3    H1 9079   2.666   4.553   2.095
 3046TIP3    H2 9080   2.774   4.593   1.997
 3047TIP3   OH2 9081   3.087   1.831   6.696
 3047TIP3    H1 9082   2.993   1.838   6.683
 3047TIP3    H2 9083   3.125   1.890   6.631
 3048TIP3   OH2 9084   4.939   5.874   1.664
 3048TIP3    H1 9085   4.858   5.896   1.710
 3048TIP3    H2 9086   4.997   5.841   1.732
 3049TIP3   OH2 9087   5.495   0.369   2.661
 3049TIP3    H1 9088   5.579   0.328   2.678
 3049TIP3    H2 9089   5.456   0.317   2.591
 3050TIP3   OH2 9090   1.708   0.821   1.357
 3050TIP3    H1 9091   1.652   0.892   1.326
 3050TIP3    H2 9092   1.791   0.834   1.311
 3051TIP3   OH2 9093   3.149   1.359   4.791
 3051TIP3    H1 9094   3.163   1.410   4.871
 3051TIP3    H2 9095   3.217   1.389   4.731
 3052TIP3   OH2 9096   1.716   2.180   2.419
 3052TIP3    H1 9097   1.735   2.190   2.326
 3052TIP3    H2 9098   1.631   2.222   2.432
 3053TIP3   OH2 9099   4.184   5.768   0.418
 3053TIP3    H1 9100   4.102   5.765   0.369
 3053TIP3    H2 9101   4.200   5.678   0.444
 3054TIP3   OH2 9102   2.812   1.117   4.352
 3054TIP3    H1 9103   2.805   1.133   4.258
 3054TIP3    H2 9104   2.827   1.023   4.359
 3055TIP3   OH2 9105   0.566   7.148   6.530
 3055TIP3    H1 9106   0.535   7.223   6.581
 3055TIP3    H2 9107   0.557   7.176   6.439
 3056TIP3   OH2 9108   4.088   6.224   6.158
 3056TIP3    H1 9109   4.009   6.278   6.163
 3056TIP3    H2 9110   4.064   6.153   6.098
 3057TIP3   OH2 9111   5.196   2.136   0.048
 3057TIP3    H1 9112   5.128   2.161   0.111
 3057TIP3    H2 9113   5.150   2.127  -0.035
 3058TIP3   OH2 9114   5.470   4.805   1.410
 3058TIP3    H1 9115   5.535   4.770   1.349
 3058TIP3    H2 9116   5.423   4.728   1.442
 3059TIP3   OH2 9117   2.618   5.686   5.150
 3059TIP3    H1 9118   2.613   5.591   5.141
 3059TIP3    H2 9119   2.696   5.701   5.204
 3060TIP3   OH2 9120   0.339   0.550   0.524
 3060TIP3    H1 9121   0.314   0.511   0.607
 3060TIP3    H2 9122   0.426   0.587   0.540
 3061TIP3   OH2 9123   5.501   2.524   5.455
 3061TIP3    H1 9124   5.502   2.593   5.389
 3061TIP3    H2 9125   5.414   2.532   5.495
 3062TIP3   OH2 9126   2.400   4.584   3.013
 3062TIP3    H1 9127   2.474   4.618   2.963
 3062TIP3    H2 9128   2.384   4.650   3.080
 3063TIP3   OH2 9129   3.450   7.176   4.562
 3063TIP3    H1 9130   3.385   7.219   4.616
 3063TIP3    H2 9131   3.454   7.228   4.482
 3064TIP3   OH2 9132   6.965   1.158   4.607
 3064TIP3    H1 9133   6.947   1.069   4.578
 3064TIP3    H2 9134   6.914   1.214   4.548
 3065TIP3   OH2 9135   0.015   0.065   1.978
 3065TIP3    H1 9136  -0.056   0.054   2.041
 3065TIP3    H2 9137   0.093   0.033   2.023
 3066TIP3   OH2 9138   4.672   1.323   5.200
 3066TIP3    H1 9139   4.690   1.327   5.293
 3066TIP3    H2 9140   4.579   1.347   5.192
 3067TIP3   OH2 9141   0.196   0.536   2.437
 3067TIP3    H1 9142   0.202   0.479   2.514
 3067TIP3    H2 9143   0.288   0.552   2.412
 3068TIP3   OH2 9144   6.374   0.674   1.689
 3068TIP3    H1 9145   6.319   0.596   1.691
 3068TIP3    H2 9146   6.323   0.738   1.640
 3069TIP3   OH2 9147   2.185   3.276   6.315
 3069TIP3    H1 9148   2.182   3.372   6.311
 3069TIP3    H2 9149   2.104   3.247   6.274
 3070TIP3   OH2 9150   7.479   3.638   5.873
 3070TIP3    H1 9151   7.572   3.658   5.861
 3070TIP3    H2 9152   7.455   3.586   5.797
 3071TIP3   OH2 9153   1.363   5.407   0.753
 3071TIP3    H1 9154   1.268   5.397   0.764
 3071TIP3    H2 9155   1.399   5.395   0.841
 3072TIP3   OH2 9156   2.456   6.190   0.260
 3072TIP3    H1 9157   2.424   6.260   0.317
 3072TIP3    H2 9158   2.453   6.227   0.172
 3073TIP3   OH2 9159   6.311   0.955   6.176
 3073TIP3    H1 9160   6.331   0.964   6.083
 3073TIP3    H2 9161   6.396   0.957   6.220
 3074TIP3   OH2 9162   2.208   0.356   6.611
 3074TIP3    H1 9163   2.166   0.435   6.647
 3074TIP3    H2 9164   2.182   0.355   6.519
 3075TIP3   OH2 9165   6.938   5.676   1.416
 3075TIP3    H1 9166   6.966   5.651   1.504
 3075TIP3    H2 9167   6.977   5.762   1.402
 3076TIP3   OH2 9168   3.983   5.448   5.135
 3076TIP3    H1 9169   4.033   5.528   5.124
 3076TIP3    H2 9170   4.040   5.379   5.101
 3077TIP3   OH2 9171   7.378   5.499   2.580
 3077TIP3    H1 9172   7.421   5.414   2.590
 3077TIP3    H2 9173   7.363   5.530   2.669
 3078TIP3   OH2 9174   6.823   5.506   4.925
 3078TIP3    H1 9175   6.770   5.570   4.973
 3078TIP3    H2 9176   6.850   5.443   4.990
 3079TIP3   OH2 9177   8.335   7.852   0.197
 3079TIP3    H1 9178   8.376   7.935   0.172
 3079TIP3    H2 9179   8.250   7.877   0.233
 3080TIP3   OH2 9180   4.942   3.496   1.684
 3080TIP3    H1 9181   4.938   3.479   1.590
 3080TIP3    H2 9182   4.876   3.564   1.698
 3081TIP3   OH2 9183   0.644   7.006   1.380
 3081TIP3    H1 9184   0.595   6.954   1.444
 3081TIP3    H2 9185   0.580   7.067   1.345
 3082TIP3   OH2 9186   2.878   3.801   4.684
 3082TIP3    H1 9187   2.949   3.777   4.625
 3082TIP3    H2 9188   2.819   3.854   4.631
 3083TIP3   OH2 9189   5.022   6.379   1.753
 3083TIP3    H1 9190   4.962   6.367   1.679
 3083TIP3    H2 9191   5.077   6.301   1.753
 3084TIP3   OH2 9192   5.957   4.600   6.436
 3084TIP3    H1 9193   5.937   4.568   6.524
 3084TIP3    H2 9194   5.995   4.525   6.391
 3085TIP3   OH2 9195   4.364   4.566   3.878
 3085TIP3    H1 9196   4.344   4.479   3.911
 3085TIP3    H2 9197   4.395   4.614   3.954
 3086TIP3   OH2 9198   3.142   2.231   2.600
 3086TIP3    H1 9199   3.152   2.292   2.527
 3086TIP3    H2 9200   3.155   2.285   2.678
 3087TIP3   OH2 9201   6.607   1.526   1.367
 3087TIP3    H1 9202   6.622   1.559   1.455
 3087TIP3    H2 9203   6.692   1.535   1.323
 3088TIP3   OH2 9204   1.296   3.340   1.033
 3088TIP3    H1 9205   1.305   3.261   1.086
 3088TIP3    H2 9206   1.386   3.366   1.014
 3089TIP3   OH2 9207   4.855   5.171   1.596
 3089TIP3    H1 9208   4.922   5.220   1.643
 3089TIP3    H2 9209   4.881   5.079   1.605
 3090TIP3   OH2 9210   3.421   1.609   6.683
 3090TIP3    H1 9211   3.489   1.553   6.646
 3090TIP3    H2 9212   3.459   1.697   6.682
 3091TIP3   OH2 9213   5.487   0.058   6.050
 3091TIP3    H1 9214   5.406   0.061   6.101
 3091TIP3    H2 9215   5.475   0.124   5.982
 3092TIP3   OH2 9216   7.277   6.261   0.847
 3092TIP3    H1 9217   7.320   6.304   0.773
 3092TIP3    H2 9218   7.238   6.182   0.809
 3093TIP3   OH2 9219   0.527   2.682   4.483
 3093TIP3    H1 9220   0.517   2.613   4.418
 3093TIP3    H2 9221   0.528   2.763   4.433
 3094TIP3   OH2 9222   4.528   5.258   4.137
 3094TIP3    H1 9223   4.524   5.173   4.182
 3094TIP3    H2 9224   4.613   5.259   4.094
 3095TIP3   OH2 9225   0.962   6.632   3.993
 3095TIP3    H1 9226   1.054   6.615   3.973
 3095TIP3    H2 9227   0.918   6.548   3.978
 3096TIP3   OH2 9228   2.478   3.566   5.479
 3096TIP3    H1 9229   2.424   3.516   5.418
 3096TIP3    H2 9230   2.461   3.657   5.456
 3097TIP3   OH2 9231   7.191   0.677   4.334
 3097TIP3    H1 9232   7.256   0.634   4.279
 3097TIP3    H2 9233   7.125   0.609   4.350
 3098TIP3   OH2 9234   6.997   7.531   0.519
 3098TIP3    H1 9235   7.077   7.494   0.556
 3098TIP3    H2 9236   6.990   7.492   0.432
 3099TIP3   OH2 9237   2.901   4.495   6.189
 3099TIP3    H1 9238   2.929   4.534   6.106
 3099TIP3    H2 9239   2.960   4.421   6.202
 3100TIP3   OH2 9240   3.065   2.762   6.281
 3100TIP3    H1 9241   3.044   2.703   6.353
 3100TIP3    H2 9242   3.111   2.835   6.323
 3101TIP3   OH2 9243   4.794   1.265   1.210
 3101TIP3    H1 9244   4.760   1.283   1.298
 3101TIP3    H2 9245   4.882   1.302   1.210
 3102TIP3   OH2 9246   0.653   3.663   5.460
 3102TIP3    H1 9247   0.714   3.598   5.426
 3102TIP3    H2 9248   0.684   3.746   5.423
 3103TIP3   OH2 9249   4.284   0.504   0.003
 3103TIP3    H1 9250   4.204   0.453   0.017
 3103TIP3    H2 9251   4.321   0.514   0.091
 3104TIP3   OH2 9252   3.872   1.064   5.312
 3104TIP3    H1 9253   3.843   0.986   5.358
 3104TIP3    H2 9254   3.822   1.135   5.352
 3105TIP3   OH2 9255   6.564   0.711   6.119
 3105TIP3    H1 9256   6.633   0.731   6.056
 3105TIP3    H2 9257   6.500   0.661   6.068
 3106TIP3   OH2 9258   1.269   0.663   5.125
 3106TIP3    H1 9259   1.183   0.630   5.151
 3106TIP3    H2 9260   1.326   0.586   5.129
 3107TIP3   OH2 9261   6.954   5.871   5.116
 3107TIP3    H1 9262   6.937   5.828   5.033
 3107TIP3    H2 9263   7.022   5.818   5.157
 3108TIP3   OH2 9264   1.798   2.251   6.777
 3108TIP3    H1 9265   1.789   2.312   6.704
 3108TIP3    H2 9266   1.772   2.167   6.741
 3109TIP3   OH2 9267   4.762   1.390   2.738
 3109TIP3    H1 9268   4.839   1.447   2.742
 3109TIP3    H2 9269   4.689   1.451   2.725
 3110TIP3   OH2 9270   1.810   1.458   3.979
 3110TIP3    H1 9271   1.764   1.400   3.918
 3110TIP3    H2 9272   1.786   1.425   4.066
 3111TIP3   OH2 9273   1.358   0.212   3.033
 3111TIP3    H1 9274   1.420   0.173   2.972
 3111TIP3    H2 9275   1.369   0.161   3.114
 3112TIP3   OH2 9276   4.983   0.460   0.818
 3112TIP3    H1 9277   5.032   0.516   0.878
 3112TIP3    H2 9278   4.973   0.512   0.739
 3113TIP3   OH2 9279   0.742   1.471   5.304
 3113TIP3    H1 9280   0.669   1.412   5.321
 3113TIP3    H2 9281   0.820   1.421   5.329
 3114TIP3   OH2 9282   1.902   6.234   0.445
 3114TIP3    H1 9283   1.923   6.257   0.536
 3114TIP3    H2 9284   1.980   6.189   0.413
 3115TIP3   OH2 9285   3.079   6.742   3.200
 3115TIP3    H1 9286   3.077   6.650   3.175
 3115TIP3    H2 9287   3.078   6.740   3.296
 3116TIP3   OH2 9288   5.332   4.077   6.364
 3116TIP3    H1 9289   5.402   4.048   6.305
 3116TIP3    H2 9290   5.268   4.006   6.362
 3117TIP3   OH2 9291   5.299   2.567   2.180
 3117TIP3    H1 9292   5.340   2.613   2.253
 3117TIP3    H2 9293   5.320   2.475   2.195
 3118TIP3   OH2 9294   8.110   1.931   0.678
 3118TIP3    H1 9295   8.103   2.002   0.615
 3118TIP3    H2 9296   8.102   1.974   0.764
 3119TIP3   OH2 9297   5.357   2.124   2.547
 3119TIP3    H1 9298   5.364   2.029   2.545
 3119TIP3    H2 9299   5.437   2.155   2.505
 3120TIP3   OH2 9300   0.752   0.528   3.514
 3120TIP3    H1 9301   0.752   0.602   3.452
 3120TIP3    H2 9302   0.828   0.545   3.571
 3121TIP3   OH2 9303   2.357   5.509   2.594
 3121TIP3    H1 9304   2.339   5.432   2.648
 3121TIP3    H2 9305   2.410   5.476   2.522
 3122TIP3   OH2 9306   0.418   7.032   6.726
 3122TIP3    H1 9307   0.358   7.105   6.709
 3122TIP3    H2 9308   0.478   7.032   6.652
 3123TIP3   OH2 9309   3.749   0.658   3.489
 3123TIP3    H1 9310   3.707   0.738   3.460
 3123TIP3    H2 9311   3.697   0.629   3.564
 3124TIP3   OH2 9312   1.502   7.740   0.604
 3124TIP3    H1 9313   1.583   7.790   0.615
 3124TIP3    H2 9314   1.447   7.795   0.548
 3125TIP3   OH2 9315   0.607   1.168   5.687
 3125TIP3    H1 9316   0.580   1.239   5.746
 3125TIP3    H2 9317   0.545   1.097   5.704
 3126TIP3   OH2 9318   2.815   0.262   2.009
 3126TIP3    H1 9319   2.833   0.329   2.075
 3126TIP3    H2 9320   2.763   0.196   2.056
 3127TIP3   OH2 9321   8.240   5.868   6.620
 3127TIP3    H1 9322   8.149   5.863   6.649
 3127TIP3    H2 9323   8.262   5.777   6.597
 3128TIP3   OH2 9324   7.795   1.349   2.914
 3128TIP3    H1 9325   7.705   1.362   2.883
 3128TIP3    H2 9326   7.846   1.333   2.835
 3129TIP3   OH2 9327   5.770   0.171   5.439
 3129TIP3    H1 9328   5.708   0.233   5.478
 3129TIP3    H2 9329   5.790   0.207   5.353
 3130TIP3   OH2 9330   1.781   5.999   3.988
 3130TIP3    H1 9331   1.695   5.979   4.026
 3130TIP3    H2 9332   1.763   6.016   3.896
 3131TIP3   OH2 9333   1.858   6.053   5.806
 3131TIP3    H1 9334   1.911   5.975   5.790
 3131TIP3    H2 9335   1.864   6.067   5.901
 3132TIP3   OH2 9336   0.306   1.923   5.421
 3132TIP3    H1 9337   0.358   1.856   5.377
 3132TIP3    H2 9338   0.367   1.994   5.439
 3133TIP3   OH2 9339   1.716   6.424   6.100
 3133TIP3    H1 9340   1.711   6.508   6.144
 3133TIP3    H2 9341   1.692   6.359   6.166
 3134TIP3   OH2 9342   0.864   1.576   4.128
 3134TIP3    H1 9343   0.900   1.622   4.052
 3134TIP3    H2 9344   0.883   1.484   4.111
 3135TIP3   OH2 9345   1.318   6.172   6.519
 3135TIP3    H1 9346   1.396   6.120   6.537
 3135TIP3    H2 9347   1.300   6.157   6.426
 3136TIP3   OH2 9348   5.179   1.964   0.885
 3136TIP3    H1 9349   5.135   1.898   0.937
 3136TIP3    H2 9350   5.253   1.992   0.939
 3137TIP3   OH2 9351   5.316   6.253   2.802
 3137TIP3    H1 9352   5.404   6.249   2.765
 3137TIP3    H2 9353   5.263   6.197   2.746
 3138TIP3   OH2 9354   6.459   5.762   1.988
 3138TIP3    H1 9355   6.392   5.713   2.035
 3138TIP3    H2 9356   6.454   5.850   2.024
 3139TIP3   OH2 9357   1.691   2.874   2.067
 3139TIP3    H1 9358   1.643   2.823   2.002
 3139TIP3    H2 9359   1.748   2.811   2.111
 3140TIP3   OH2 9360   1.511   2.598   6.166
 3140TIP3    H1 9361   1.516   2.692   6.148
 3140TIP3    H2 9362   1.500   2.558   6.079
 3141TIP3   OH2 9363   4.233   7.925   0.679
 3141TIP3    H1 9364   4.277   7.905   0.597
 3141TIP3    H2 9365   4.254   7.852   0.737
 3142TIP3   OH2 9366   1.301   6.756   3.136
 3142TIP3    H1 9367   1.346   6.827   3.182
 3142TIP3    H2 9368   1.305   6.780   3.044
 3143TIP3   OH2 9369   2.960   4.484   4.553
 3143TIP3    H1 9370   3.050   4.469   4.525
 3143TIP3    H2 9371   2.916   4.400   4.538
 3144TIP3   OH2 9372   2.078   5.578   5.343
 3144TIP3    H1 9373   2.156   5.566   5.288
 3144TIP3    H2 9374   2.105   5.643   5.409
 3145TIP3   OH2 9375   5.423   4.222   5.022
 3145TIP3    H1 9376   5.381   4.153   5.074
 3145TIP3    H2 9377   5.484   4.263   5.083
 3146TIP3   OH2 9378   2.928   2.743   1.999
 3146TIP3    H1 9379   2.910   2.655   2.031
 3146TIP3    H2 9380   2.850   2.766   1.948
 3147TIP3   OH2 9381   2.019   5.757   0.773
 3147TIP3    H1 9382   1.935   5.765   0.727
 3147TIP3    H2 9383   1.997   5.719   0.857
 3148TIP3   OH2 9384   5.177   1.433   1.882
 3148TIP3    H1 9385   5.172   1.494   1.956
 3148TIP3    H2 9386   5.236   1.476   1.820
 3149TIP3   OH2 9387   6.661   0.927   1.518
 3149TIP3    H1 9388   6.651   1.006   1.572
 3149TIP3    H2 9389   6.573   0.907   1.488
 3150TIP3   OH2 9390   5.876   5.590   5.644
 3150TIP3    H1 9391   5.956   5.539   5.637
 3150TIP3    H2 9392   5.809   5.527   5.669
 3151TIP3   OH2 9393   3.759   5.933   6.652
 3151TIP3    H1 9394   3.760   6.010   6.596
 3151TIP3    H2 9395   3.672   5.897   6.642
 3152TIP3   OH2 9396   1.740   4.941   6.431
 3152TIP3    H1 9397   1.724   4.910   6.342
 3152TIP3    H2 9398   1.812   4.886   6.463
 3153TIP3   OH2 9399   0.040   5.544   4.949
 3153TIP3    H1 9400   0.070   5.469   4.999
 3153TIP3    H2 9401   0.062   5.620   5.004
 3154TIP3   OH2 9402   6.902   4.643   4.929
 3154TIP3    H1 9403   6.868   4.730   4.950
 3154TIP3    H2 9404   6.825   4.594   4.898
 3155TIP3   OH2 9405   2.388   7.460   6.036
 3155TIP3    H1 9406   2.409   7.449   5.944
 3155TIP3    H2 9407   2.295   7.480   6.038
 3156TIP3   OH2 9408   6.297   1.345   0.867
 3156TIP3    H1 9409   6.374   1.302   0.828
 3156TIP3    H2 9410   6.326   1.371   0.954
 3157TIP3   OH2 9411   4.799   3.337   0.590
 3157TIP3    H1 9412   4.827   3.393   0.517
 3157TIP3    H2 9413   4.880   3.317   0.637
 3158TIP3   OH2 9414   2.318   5.110   1.549
 3158TIP3    H1 9415   2.334   5.174   1.479
 3158TIP3    H2 9416   2.384   5.130   1.615
 3159TIP3   OH2 9417   0.756   7.237   4.535
 3159TIP3    H1 9418   0.755   7.333   4.531
 3159TIP3    H2 9419   0.677   7.214   4.584
 3160TIP3   OH2 9420   5.922   3.607   2.402
 3160TIP3    H1 9421   5.932   3.568   2.489
 3160TIP3    H2 9422   5.853   3.555   2.361
 3161TIP3   OH2 9423   4.086   7.568   5.938
 3161TIP3    H1 9424   4.150   7.635   5.914
 3161TIP3    H2 9425   4.131   7.515   6.005
 3162TIP3   OH2 9426   4.748   1.560   2.098
 3162TIP3    H1 9427   4.838   1.528   2.103
 3162TIP3    H2 9428   4.750   1.626   2.029
 3163TIP3   OH2 9429   7.865   0.890   5.438
 3163TIP3    H1 9430   7.889   0.845   5.357
 3163TIP3    H2 9431   7.869   0.821   5.505
 3164TIP3   OH2 9432   2.296   6.586   3.097
 3164TIP3    H1 9433   2.253   6.501   3.105
 3164TIP3    H2 9434   2.254   6.626   3.020
 3165TIP3   OH2 9435   5.408   6.060   5.185
 3165TIP3    H1 9436   5.459   6.066   5.266
 3165TIP3    H2 9437   5.419   6.145   5.143
 3166TIP3   OH2 9438   5.186   3.448   3.800
 3166TIP3    H1 9439   5.185   3.429   3.706
 3166TIP3    H2 9440   5.112   3.507   3.814
 3167TIP3   OH2 9441   2.687   4.396   2.661
 3167TIP3    H1 9442   2.597   4.426   2.662
 3167TIP3    H2 9443   2.713   4.400   2.569
 3168TIP3   OH2 9444   0.429   4.204   0.434
 3168TIP3    H1 9445   0.333   4.202   0.429
 3168TIP3    H2 9446   0.456   4.117   0.405
 3169TIP3   OH2 9447   3.826   1.991   4.444
 3169TIP3    H1 9448   3.805   1.909   4.489
 3169TIP3    H2 9449   3.826   1.968   4.351
 3170TIP3   OH2 9450   5.479   4.138   5.718
 3170TIP3    H1 9451   5.409   4.090   5.673
 3170TIP3    H2 9452   5.434   4.212   5.759
 3171TIP3   OH2 9453   5.437   3.239   5.211
 3171TIP3    H1 9454   5.524   3.262   5.178
 3171TIP3    H2 9455   5.410   3.316   5.262
 3172TIP3   OH2 9456   1.306   4.069   3.036
 3172TIP3    H1 9457   1.243   3.998   3.037
 3172TIP3    H2 9458   1.254   4.149   3.048
 3173TIP3   OH2 9459   6.963   5.516   2.569
 3173TIP3    H1 9460   7.029   5.462   2.613
 3173TIP3    H2 9461   6.960   5.597   2.620
 3174TIP3   OH2 9462   4.621   7.703   3.370
 3174TIP3    H1 9463   4.636   7.676   3.280
 3174TIP3    H2 9464   4.654   7.630   3.423
 3175TIP3   OH2 9465   0.303   3.172   1.488
 3175TIP3    H1 9466   0.228   3.159   1.430
 3175TIP3    H2 9467   0.270   3.151   1.575
 3176TIP3   OH2 9468   2.900   3.502   6.712
 3176TIP3    H1 9469   2.939   3.472   6.629
 3176TIP3    H2 9470   2.806   3.504   6.695
 3177TIP3   OH2 9471   2.239   6.796   0.118
 3177TIP3    H1 9472   2.222   6.736   0.191
 3177TIP3    H2 9473   2.210   6.881   0.150
 3178TIP3   OH2 9474   4.259   2.424   5.157
 3178TIP3    H1 9475   4.337   2.392   5.202
 3178TIP3    H2 9476   4.212   2.345   5.131
 3179TIP3   OH2 9477   1.877   3.992   6.198
 3179TIP3    H1 9478   1.924   3.927   6.249
 3179TIP3    H2 9479   1.856   4.062   6.259
 3180TIP3   OH2 9480   2.032   3.710   2.024
 3180TIP3    H1 9481   1.977   3.632   2.022
 3180TIP3    H2 9482   2.121   3.677   2.035
 3181TIP3   OH2 9483   7.178   0.319   4.902
 3181TIP3    H1 9484   7.263   0.355   4.928
 3181TIP3    H2 9485   7.144   0.279   4.982
 3182TIP3   OH2 9486   7.418   3.435   5.415
 3182TIP3    H1 9487   7.353   3.379   5.373
 3182TIP3    H2 9488   7.502   3.406   5.378
 3183TIP3   OH2 9489   8.158   5.447   3.553
 3183TIP3    H1 9490   8.112   5.506   3.613
 3183TIP3    H2 9491   8.216   5.504   3.503
 3184TIP3   OH2 9492   0.297   0.141   6.765
 3184TIP3    H1 9493   0.240   0.074   6.802
 3184TIP3    H2 9494   0.366   0.093   6.720
 3185TIP3   OH2 9495   2.390   2.558   3.577
 3185TIP3    H1 9496   2.474   2.518   3.553
 3185TIP3    H2 9497   2.328   2.522   3.513
 3186TIP3   OH2 9498   6.233   7.850   1.766
 3186TIP3    H1 9499   6.158   7.821   1.817
 3186TIP3    H2 9500   6.283   7.770   1.749
 3187TIP3   OH2 9501   5.639   6.206   6.272
 3187TIP3    H1 9502   5.648   6.295   6.306
 3187TIP3    H2 9503   5.662   6.213   6.179
 3188TIP3   OH2 9504   7.157   7.788   3.305
 3188TIP3    H1 9505   7.139   7.807   3.397
 3188TIP3    H2 9506   7.245   7.821   3.290
 3189TIP3   OH2 9507   2.959   1.866   0.483
 3189TIP3    H1 9508   2.908   1.947   0.482
 3189TIP3    H2 9509   3.046   1.893   0.512
 3190TIP3   OH2 9510   7.846   4.306   4.031
 3190TIP3    H1 9511   7.804   4.329   3.948
 3190TIP3    H2 9512   7.802   4.361   4.096
 3191TIP3   OH2 9513   3.093   7.068   6.706
 3191TIP3    H1 9514   3.124   7.074   6.797
 3191TIP3    H2 9515   3.005   7.105   6.709
 3192TIP3   OH2 9516   1.237   2.819   3.481
 3192TIP3    H1 9517   1.161   2.810   3.424
 3192TIP3    H2 9518   1.212   2.774   3.562
 3193TIP3   OH2 9519   1.832   5.294   6.716
 3193TIP3    H1 9520   1.787   5.261   6.639
 3193TIP3    H2 9521   1.804   5.385   6.723
 3194TIP3   OH2 9522   7.724   0.415   4.949
 3194TIP3    H1 9523   7.728   0.369   5.033
 3194TIP3    H2 9524   7.811   0.406   4.911
 3195TIP3   OH2 9525   0.745   3.526   1.532
 3195TIP3    H1 9526   0.684   3.457   1.557
 3195TIP3    H2 9527   0.804   3.485   1.468
 3196TIP3   OH2 9528   6.330   5.368   6.652
 3196TIP3    H1 9529   6.303   5.441   6.707
 3196TIP3    H2 9530   6.411   5.399   6.610
 3197TIP3   OH2 9531   7.451   0.763   1.406
 3197TIP3    H1 9532   7.477   0.671   1.412
 3197TIP3    H2 9533   7.532   0.812   1.423
 3198TIP3   OH2 9534   0.857   6.567   0.273
 3198TIP3    H1 9535   0.945   6.531   0.285
 3198TIP3    H2 9536   0.810   6.543   0.353
 3199TIP3   OH2 9537   5.179   0.347   1.789
 3199TIP3    H1 9538   5.165   0.423   1.733
 3199TIP3    H2 9539   5.228   0.382   1.864
 3200TIP3   OH2 9540   2.274   3.165   3.063
 3200TIP3    H1 9541   2.234   3.227   3.002
 3200TIP3    H2 9542   2.285   3.214   3.144
 3201TIP3   OH2 9543   3.016   4.578   2.427
 3201TIP3    H1 9544   3.076   4.634   2.477
 3201TIP3    H2 9545   3.024   4.492   2.468
 3202TIP3   OH2 9546   3.519   4.822   5.951
 3202TIP3    H1 9547   3.552   4.823   6.041
 3202TIP3    H2 9548   3.424   4.813   5.961
 3203TIP3   OH2 9549   8.137   1.392   6.524
 3203TIP3    H1 9550   8.176   1.462   6.576
 3203TIP3    H2 9551   8.108   1.328   6.588
 3204TIP3   OH2 9552   3.640   6.971   2.583
 3204TIP3    H1 9553   3.549   6.993   2.602
 3204TIP3    H2 9554   3.653   7.000   2.493
 3205TIP3   OH2 9555   3.710   1.275   3.901
 3205TIP3    H1 9556   3.681   1.307   3.816
 3205TIP3    H2 9557   3.674   1.186   3.906
 3206TIP3   OH2 9558   7.502   6.189   5.021
 3206TIP3    H1 9559   7.484   6.224   4.933
 3206TIP3    H2 9560   7.444   6.113   5.028
 3207TIP3   OH2 9561   0.663   6.890   2.040
 3207TIP3    H1 9562   0.595   6.839   1.996
 3207TIP3    H2 9563   0.667   6.972   1.991
 3208TIP3   OH2 9564   3.694   0.918   4.380
 3208TIP3    H1 9565   3.686   0.977   4.304
 3208TIP3    H2 9566   3.754   0.850   4.351
 3209TIP3   OH2 9567   4.847   2.488   3.139
 3209TIP3    H1 9568   4.753   2.496   3.155
 3209TIP3    H2 9569   4.886   2.549   3.203
 3210TIP3   OH2 9570   1.842   1.884   3.385
 3210TIP3    H1 9571   1.798   1.969   3.386
 3210TIP3    H2 9572   1.933   1.904   3.405
 3211TIP3   OH2 9573   0.727   4.456   0.002
 3211TIP3    H1 9574   0.675   4.409  -0.063
 3211TIP3    H2 9575   0.674   4.453   0.082
 3212TIP3   OH2 9576   3.736   6.740   0.033
 3212TIP3    H1 9577   3.688   6.822   0.024
 3212TIP3    H2 9578   3.688   6.678  -0.021
 3213TIP3   OH2 9579   6.718   4.593   2.723
 3213TIP3    H1 9580   6.734   4.623   2.812
 3213TIP3    H2 9581   6.726   4.498   2.728
 3214TIP3   OH2 9582   4.098   4.042   3.343
 3214TIP3    H1 9583   4.053   4.014   3.264
 3214TIP3    H2 9584   4.117   3.961   3.390
 3215TIP3   OH2 9585   5.434   6.961   1.159
 3215TIP3    H1 9586   5.404   7.039   1.112
 3215TIP3    H2 9587   5.450   6.896   1.090
 3216TIP3   OH2 9588   1.166   7.550   6.286
 3216TIP3    H1 9589   1.236   7.598   6.330
 3216TIP3    H2 9590   1.141   7.606   6.213
 3217TIP3   OH2 9591   2.106   2.547   0.433
 3217TIP3    H1 9592   2.099   2.639   0.460
 3217TIP3    H2 9593   2.022   2.509   0.458
 3218TIP3   OH2 9594   2.983   0.753   3.687
 3218TIP3    H1 9595   2.979   0.665   3.723
 3218TIP3    H2 9596   3.076   0.767   3.669
 3219TIP3   OH2 9597   4.162   6.659   0.541
 3219TIP3    H1 9598   4.185   6.569   0.564
 3219TIP3    H2 9599   4.079   6.674   0.586
 3220TIP3   OH2 9600   5.088   7.786   0.414
 3220TIP3    H1 9601   5.034   7.865   0.420
 3220TIP3    H2 9602   5.107   7.777   0.321
 3221TIP3   OH2 9603   0.448   2.321   4.574
 3221TIP3    H1 9604   0.519   2.306   4.512
 3221TIP3    H2 9605   0.396   2.391   4.534
 3222TIP3   OH2 9606   4.374   7.231   4.186
 3222TIP3    H1 9607   4.338   7.287   4.117
 3222TIP3    H2 9608   4.394   7.291   4.257
 3223TIP3   OH2 9609   4.158   5.083   2.011
 3223TIP3    H1 9610   4.105   5.098   1.933
 3223TIP3    H2 9611   4.101   5.031   2.069
 3224TIP3   OH2 9612   4.674   0.533   0.737
 3224TIP3    H1 9613   4.719   0.449   0.744
 3224TIP3    H2 9614   4.665   0.563   0.827
 3225TIP3   OH2 9615   5.832   7.306   6.440
 3225TIP3    H1 9616   5.793   7.392   6.455
 3225TIP3    H2 9617   5.810   7.256   6.518
 3226TIP3   OH2 9618   5.344   7.303   4.586
 3226TIP3    H1 9619   5.425   7.260   4.557
 3226TIP3    H2 9620   5.278   7.275   4.523
 3227TIP3   OH2 9621   6.408   3.388   0.123
 3227TIP3    H1 9622   6.428   3.317   0.062
 3227TIP3    H2 9623   6.494   3.421   0.150
 3228TIP3   OH2 9624   3.113   2.829   0.059
 3228TIP3    H1 9625   3.077   2.891  -0.005
 3228TIP3    H2 9626   3.069   2.746   0.041
 3229TIP3   OH2 9627   7.849   3.555   2.901
 3229TIP3    H1 9628   7.785   3.492   2.936
 3229TIP3    H2 9629   7.816   3.640   2.929
 3230TIP3   OH2 9630   5.611   0.746   1.528
 3230TIP3    H1 9631   5.654   0.674   1.483
 3230TIP3    H2 9632   5.551   0.704   1.589
 3231TIP3   OH2 9633   0.140   2.155   0.134
 3231TIP3    H1 9634   0.100   2.168   0.219
 3231TIP3    H2 9635   0.233   2.141   0.152
 3232TIP3   OH2 9636   4.361   4.812   4.769
 3232TIP3    H1 9637   4.321   4.731   4.737
 3232TIP3    H2 9638   4.448   4.785   4.800
 3233TIP3   OH2 9639   1.482   5.988   0.215
 3233TIP3    H1 9640   1.495   5.967   0.308
 3233TIP3    H2 9641   1.408   6.049   0.215
 3234TIP3   OH2 9642   0.096   4.705   6.505
 3234TIP3    H1 9643   0.090   4.768   6.433
 3234TIP3    H2 9644   0.150   4.750   6.571
 3235TIP3   OH2 9645   4.258   1.470   3.295
 3235TIP3    H1 9646   4.238   1.400   3.233
 3235TIP3    H2 9647   4.327   1.434   3.352
 3236TIP3   OH2 9648   2.861   6.225   5.592
 3236TIP3    H1 9649   2.816   6.197   5.513
 3236TIP3    H2 9650   2.828   6.166   5.660
 3237TIP3   OH2 9651   3.474   7.388   0.443
 3237TIP3    H1 9652   3.440   7.453   0.505
 3237TIP3    H2 9653   3.468   7.305   0.489
 3238TIP3   OH2 9654   3.191   1.473   5.090
 3238TIP3    H1 9655   3.168   1.539   5.025
 3238TIP3    H2 9656   3.209   1.522   5.169
 3239TIP3   OH2 9657   4.133   6.978   6.429
 3239TIP3    H1 9658   4.091   6.928   6.499
 3239TIP3    H2 9659   4.162   6.912   6.367
 3240TIP3   OH2 9660   5.328   3.717   6.827
 3240TIP3    H1 9661   5.316   3.649   6.893
 3240TIP3    H2 9662   5.418   3.705   6.797
 3241TIP3   OH2 9663   0.033   6.963   2.823
 3241TIP3    H1 9664  -0.006   7.003   2.901
 3241TIP3    H2 9665  -0.005   7.011   2.750
 3242TIP3   OH2 9666   2.187   7.624   6.248
 3242TIP3    H1 9667   2.149   7.573   6.175
 3242TIP3    H2 9668   2.191   7.561   6.320
 3243TIP3   OH2 9669   2.192   3.205   3.640
 3243TIP3    H1 9670   2.190   3.297   3.665
 3243TIP3    H2 9671   2.131   3.198   3.567
 3244TIP3   OH2 9672   1.868   2.139   3.820
 3244TIP3    H1 9673   1.848   2.205   3.887
 3244TIP3    H2 9674   1.903   2.064   3.870
 3245TIP3   OH2 9675   4.053   0.455   4.805
 3245TIP3    H1 9676   3.970   0.414   4.831
 3245TIP3    H2 9677   4.120   0.406   4.851
 3246TIP3   OH2 9678   1.512   3.971   4.390
 3246TIP3    H1 9679   1.427   4.012   4.403
 3246TIP3    H2 9680   1.570   4.042   4.363
 3247TIP3   OH2 9681   5.852   4.916   3.592
 3247TIP3    H1 9682   5.774   4.955   3.632
 3247TIP3    H2 9683   5.874   4.976   3.520
 3248TIP3   OH2 9684   3.094   6.158   3.481
 3248TIP3    H1 9685   3.151   6.229   3.510
 3248TIP3    H2 9686   3.129   6.131   3.396
 3249TIP3   OH2 9687   1.182   2.567   4.965
 3249TIP3    H1 9688   1.146   2.505   4.902
 3249TIP3    H2 9689   1.167   2.527   5.050
 3250TIP3   OH2 9690   4.017   5.681   3.259
 3250TIP3    H1 9691   4.013   5.772   3.232
 3250TIP3    H2 9692   4.074   5.639   3.194
 3251TIP3   OH2 9693   4.275   0.638   5.295
 3251TIP3    H1 9694   4.202   0.698   5.278
 3251TIP3    H2 9695   4.294   0.599   5.210
 3252TIP3   OH2 9696   8.225   5.555   1.047
 3252TIP3    H1 9697   8.201   5.472   1.004
 3252TIP3    H2 9698   8.320   5.558   1.042
 3253TIP3   OH2 9699   2.759   7.074   1.254
 3253TIP3    H1 9700   2.753   6.987   1.292
 3253TIP3    H2 9701   2.677   7.085   1.206
 3254TIP3   OH2 9702   5.805   4.195   2.629
 3254TIP3    H1 9703   5.880   4.247   2.600
 3254TIP3    H2 9704   5.837   4.145   2.703
 3255TIP3   OH2 9705   4.134   0.196   3.993
 3255TIP3    H1 9706   4.209   0.157   4.039
 3255TIP3    H2 9707   4.106   0.128   3.931
 3256TIP3   OH2 9708   4.171   7.495   3.064
 3256TIP3    H1 9709   4.130   7.444   3.133
 3256TIP3    H2 9710   4.256   7.521   3.101
 3257TIP3   OH2 9711   0.113   0.286   6.578
 3257TIP3    H1 9712   0.180   0.242   6.630
 3257TIP3    H2 9713   0.031   0.267   6.624
 3258TIP3   OH2 9714   7.615   3.263   5.332
 3258TIP3    H1 9715   7.659   3.179   5.315
 3258TIP3    H2 9716   7.583   3.290   5.246
 3259TIP3   OH2 9717   0.124   6.642   0.006
 3259TIP3    H1 9718   0.047   6.590   0.026
 3259TIP3    H2 9719   0.091   6.732   0.000
 3260TIP3   OH2 9720   7.575   3.586   2.761
 3260TIP3    H1 9721   7.583   3.500   2.802
 3260TIP3    H2 9722   7.631   3.643   2.814
 3261TIP3   OH2 9723   3.665   4.951   6.462
 3261TIP3    H1 9724   3.653   5.041   6.430
 3261TIP3    H2 9725   3.611   4.947   6.541
 3262TIP3   OH2 9726   6.259   5.974   1.010
 3262TIP3    H1 9727   6.344   5.968   0.967
 3262TIP3    H2 9728   6.243   6.067   1.019
 3263TIP3   OH2 9729   6.540   2.065   2.291
 3263TIP3    H1 9730   6.510   2.147   2.250
 3263TIP3    H2 9731   6.630   2.083   2.317
 3264TIP3   OH2 9732   1.195   1.482   2.166
 3264TIP3    H1 9733   1.206   1.407   2.224
 3264TIP3    H2 9734   1.213   1.448   2.078
 3265TIP3   OH2 9735   0.238   4.690   4.419
 3265TIP3    H1 9736   0.324   4.647   4.417
 3265TIP3    H2 9737   0.204   4.679   4.331
 3266TIP3   OH2 9738   5.855   7.018   3.183
 3266TIP3    H1 9739   5.799   6.990   3.111
 3266TIP3    H2 9740   5.931   6.961   3.179
 3267TIP3   OH2 9741   1.904   5.105   4.626
 3267TIP3    H1 9742   1.861   5.020   4.617
 3267TIP3    H2 9743   1.846   5.165   4.580
 3268TIP3   OH2 9744   1.249   5.149   1.470
 3268TIP3    H1 9745   1.175   5.099   1.504
 3268TIP3    H2 9746   1.325   5.093   1.487
 3269TIP3   OH2 9747   7.546   6.924   5.256
 3269TIP3    H1 9748   7.549   6.992   5.189
 3269TIP3    H2 9749   7.488   6.959   5.324
 3270TIP3   OH2 9750   5.024   2.735   0.440
 3270TIP3    H1 9751   5.049   2.644   0.456
 3270TIP3    H2 9752   5.049   2.782   0.519
 3271TIP3   OH2 9753   7.374   2.222   2.415
 3271TIP3    H1 9754   7.465   2.210   2.387
 3271TIP3    H2 9755   7.348   2.136   2.447
 3272TIP3   OH2 9756   0.834   4.501   0.339
 3272TIP3    H1 9757   0.897   4.516   0.267
 3272TIP3    H2 9758   0.851   4.573   0.400
 3273TIP3   OH2 9759   5.200   2.048   5.543
 3273TIP3    H1 9760   5.177   2.049   5.636
 3273TIP3    H2 9761   5.226   1.957   5.526
 3274TIP3   OH2 9762   5.450   6.630   1.941
 3274TIP3    H1 9763   5.421   6.705   1.991
 3274TIP3    H2 9764   5.542   6.619   1.965
 3275TIP3   OH2 9765   2.732   0.445   2.531
 3275TIP3    H1 9766   2.778   0.475   2.609
 3275TIP3    H2 9767   2.652   0.498   2.529
 3276TIP3   OH2 9768   3.470   4.151   4.401
 3276TIP3    H1 9769   3.542   4.210   4.381
 3276TIP3    H2 9770   3.487   4.121   4.490
 3277TIP3   OH2 9771   7.942   5.121   1.438
 3277TIP3    H1 9772   8.012   5.182   1.460
 3277TIP3    H2 9773   7.938   5.122   1.343
 3278TIP3   OH2 9774   4.666  -0.021   4.144
 3278TIP3    H1 9775   4.700   0.008   4.060
 3278TIP3    H2 9776   4.688   0.050   4.205
 3279TIP3   OH2 9777   3.054   1.771   2.680
 3279TIP3    H1 9778   3.071   1.844   2.621
 3279TIP3    H2 9779   3.085   1.801   2.765
 3280TIP3   OH2 9780   2.563   3.387   0.975
 3280TIP3    H1 9781   2.650   3.422   0.958
 3280TIP3    H2 9782   2.508   3.465   0.986
 3281TIP3   OH2 9783   2.739   1.867   1.288
 3281TIP3    H1 9784   2.774   1.802   1.227
 3281TIP3    H2 9785   2.675   1.915   1.237
 3282TIP3   OH2 9786   7.784   1.850   1.731
 3282TIP3    H1 9787   7.875   1.832   1.755
 3282TIP3    H2 9788   7.747   1.764   1.712
 3283TIP3   OH2 9789   0.134   7.790   5.630
 3283TIP3    H1 9790   0.123   7.722   5.563
 3283TIP3    H2 9791   0.152   7.742   5.710
 3284TIP3   OH2 9792   0.824   4.131   3.061
 3284TIP3    H1 9793   0.750   4.070   3.068
 3284TIP3    H2 9794   0.880   4.109   3.135
 3285TIP3   OH2 9795   1.609   3.004   6.476
 3285TIP3    H1 9796   1.678   2.966   6.530
 3285TIP3    H2 9797   1.573   2.930   6.427
 3286TIP3   OH2 9798   5.378   7.211   5.407
 3286TIP3    H1 9799   5.377   7.280   5.340
 3286TIP3    H2 9800   5.300   7.159   5.389
 3287TIP3   OH2 9801   8.330   1.008   4.762
 3287TIP3    H1 9802   8.379   0.987   4.683
 3287TIP3    H2 9803   8.243   0.972   4.747
 3288TIP3   OH2 9804   3.241   2.433   2.754
 3288TIP3    H1 9805   3.262   2.456   2.845
 3288TIP3    H2 9806   3.193   2.510   2.721
 3289TIP3   OH2 9807   8.050   7.133   0.084
 3289TIP3    H1 9808   8.081   7.057   0.035
 3289TIP3    H2 9809   7.991   7.097   0.150
 3290TIP3   OH2 9810   6.754   0.659   4.910
 3290TIP3    H1 9811   6.832   0.668   4.965
 3290TIP3    H2 9812   6.737   0.565   4.908
 3291TIP3   OH2 9813   6.724   7.445   2.404
 3291TIP3    H1 9814   6.699   7.356   2.380
 3291TIP3    H2 9815   6.677   7.462   2.486
 3292TIP3   OH2 9816   3.610   1.663   3.659
 3292TIP3    H1 9817   3.582   1.572   3.667
 3292TIP3    H2 9818   3.706   1.659   3.668
 3293TIP3   OH2 9819   7.443   7.186   5.929
 3293TIP3    H1 9820   7.509   7.233   5.878
 3293TIP3    H2 9821   7.494   7.132   5.989
 3294TIP3   OH2 9822   2.452   6.852   1.065
 3294TIP3    H1 9823   2.497   6.877   1.146
 3294TIP3    H2 9824   2.423   6.935   1.027
 3295TIP3   OH2 9825   3.067   6.129   4.680
 3295TIP3    H1 9826   2.973   6.111   4.668
 3295TIP3    H2 9827   3.079   6.217   4.643
 3296TIP3   OH2 9828   6.787   4.079   2.470
 3296TIP3    H1 9829   6.826   4.135   2.403
 3296TIP3    H2 9830   6.697   4.066   2.441
 3297TIP3   OH2 9831   2.479   4.951   0.644
 3297TIP3    H1 9832   2.484   4.943   0.739
 3297TIP3    H2 9833   2.443   4.867   0.615
 3298TIP3   OH2 9834   3.091   0.261   3.202
 3298TIP3    H1 9835   3.050   0.321   3.140
 3298TIP3    H2 9836   3.131   0.317   3.268
 3299TIP3   OH2 9837   6.692   4.880   5.774
 3299TIP3    H1 9838   6.705   4.894   5.680
 3299TIP3    H2 9839   6.664   4.789   5.782
 3300TIP3   OH2 9840   1.867   7.233   1.767
 3300TIP3    H1 9841   1.883   7.325   1.744
 3300TIP3    H2 9842   1.873   7.186   1.684
 3301TIP3   OH2 9843   5.934   1.651   1.178
 3301TIP3    H1 9844   5.877   1.613   1.112
 3301TIP3    H2 9845   6.022   1.626   1.151
 3302TIP3   OH2 9846   5.188   1.951   4.092
 3302TIP3    H1 9847   5.252   1.882   4.072
 3302TIP3    H2 9848   5.148   1.924   4.175
 3303TIP3   OH2 9849   1.563   5.350   5.750
 3303TIP3    H1 9850   1.508   5.409   5.699
 3303TIP3    H2 9851   1.625   5.314   5.686
 3304TIP3   OH2 9852   3.473   3.348   4.518
 3304TIP3    H1 9853   3.436   3.271   4.561
 3304TIP3    H2 9854   3.556   3.318   4.482
 3305TIP3   OH2 9855   3.003   3.736   6.515
 3305TIP3    H1 9856   2.920   3.730   6.467
 3305TIP3    H2 9857   3.064   3.775   6.452
 3306TIP3   OH2 9858   3.709   0.076   2.739
 3306TIP3    H1 9859   3.800   0.098   2.756
 3306TIP3    H2 9860   3.673   0.051   2.824
 3307TIP3   OH2 9861   7.469   4.120   0.664
 3307TIP3    H1 9862   7.455   4.203   0.709
 3307TIP3    H2 9863   7.415   4.125   0.585
 3308TIP3   OH2 9864   6.145   3.052   4.402
 3308TIP3    H1 9865   6.161   2.958   4.395
 3308TIP3    H2 9866   6.054   3.059   4.433
 3309TIP3   OH2 9867   2.590   5.923   2.416
 3309TIP3    H1 9868   2.670   5.975   2.404
 3309TIP3    H2 9869   2.570   5.931   2.509
 3310TIP3   OH2 9870   6.495   1.225   0.635
 3310TIP3    H1 9871   6.577   1.227   0.585
 3310TIP3    H2 9872   6.444   1.155   0.593
 3311TIP3   OH2 9873   3.490   7.899   3.689
 3311TIP3    H1 9874   3.506   7.810   3.718
 3311TIP3    H2 9875   3.563   7.950   3.723
 3312TIP3   OH2 9876   7.808   3.639   3.614
 3312TIP3    H1 9877   7.807   3.730   3.644
 3312TIP3    H2 9878   7.717   3.610   3.625
 3313TIP3   OH2 9879   3.296   7.767   5.798
 3313TIP3    H1 9880   3.269   7.684   5.837
 3313TIP3    H2 9881   3.216   7.803   5.760
 3314TIP3   OH2 9882   2.406   6.373   3.899
 3314TIP3    H1 9883   2.398   6.314   3.974
 3314TIP3    H2 9884   2.468   6.440   3.927
 3315TIP3   OH2 9885   2.192   7.084   1.179
 3315TIP3    H1 9886   2.123   7.049   1.123
 3315TIP3    H2 9887   2.230   7.006   1.221
 3316TIP3   OH2 9888   3.202   5.041   0.110
 3316TIP3    H1 9889   3.114   5.033   0.145
 3316TIP3    H2 9890   3.190   5.047   0.015
 3317TIP3   OH2 9891   3.415   2.031   5.080
 3317TIP3    H1 9892   3.411   2.116   5.125
 3317TIP3    H2 9893   3.323   2.005   5.070
 3318TIP3   OH2 9894   0.238   5.968   6.277
 3318TIP3    H1 9895   0.210   6.058   6.291
 3318TIP3    H2 9896   0.327   5.976   6.241
 3319TIP3   OH2 9897   5.490   3.291   4.843
 3319TIP3    H1 9898   5.513   3.383   4.852
 3319TIP3    H2 9899   5.574   3.245   4.850
 3320TIP3   OH2 9900   1.001   6.583   6.689
 3320TIP3    H1 9901   1.080   6.545   6.727
 3320TIP3    H2 9902   1.032   6.658   6.639
 3321TIP3   OH2 9903   6.471   0.300   0.558
 3321TIP3    H1 9904   6.387   0.308   0.602
 3321TIP3    H2 9905   6.528   0.362   0.602
 3322TIP3   OH2 9906   7.979   2.137   4.212
 3322TIP3    H1 9907   7.913   2.197   4.247
 3322TIP3    H2 9908   7.929   2.060   4.185
 3323TIP3   OH2 9909   3.840   1.604   0.189
 3323TIP3    H1 9910   3.830   1.520   0.144
 3323TIP3    H2 9911   3.757   1.617   0.235
 3324TIP3   OH2 9912   7.909   5.000   0.333
 3324TIP3    H1 9913   7.883   5.085   0.298
 3324TIP3    H2 9914   8.004   4.999   0.327
 3325TIP3   OH2 9915   0.375   2.052   2.894
 3325TIP3    H1 9916   0.368   2.142   2.862
 3325TIP3    H2 9917   0.286   2.017   2.890
 3326TIP3   OH2 9918   0.721   7.239   0.594
 3326TIP3    H1 9919   0.641   7.263   0.640
 3326TIP3    H2 9920   0.739   7.150   0.624
 3327TIP3   OH2 9921   1.092   3.159   3.974
 3327TIP3    H1 9922   1.141   3.165   3.892
 3327TIP3    H2 9923   1.008   3.122   3.949
 3328TIP3   OH2 9924   0.049   1.030   0.528
 3328TIP3    H1 9925  -0.002   1.036   0.448
 3328TIP3    H2 9926   0.008   0.959   0.578
 3329TIP3   OH2 9927   3.862   2.724   2.459
 3329TIP3    H1 9928   3.954   2.748   2.456
 3329TIP3    H2 9929   3.821   2.778   2.391
 3330TIP3   OH2 9930   6.282   7.249   5.699
 3330TIP3    H1 9931   6.275   7.343   5.684
 3330TIP3    H2 9932   6.237   7.209   5.625
 3331TIP3   OH2 9933   5.836   5.167   5.609
 3331TIP3    H1 9934   5.785   5.130   5.537
 3331TIP3    H2 9935   5.883   5.241   5.570
 3332TIP3   OH2 9936   0.839   3.964   2.501
 3332TIP3    H1 9937   0.835   3.961   2.597
 3332TIP3    H2 9938   0.931   3.980   2.482
 3333TIP3   OH2 9939   5.815   3.466   4.580
 3333TIP3    H1 9940   5.840   3.551   4.545
 3333TIP3    H2 9941   5.724   3.455   4.554
 3334TIP3   OH2 9942   4.360   2.299   4.305
 3334TIP3    H1 9943   4.336   2.299   4.397
 3334TIP3    H2 9944   4.366   2.206   4.282
 3335TIP3   OH2 9945   8.074   1.275   3.725
 3335TIP3    H1 9946   8.140   1.306   3.786
 3335TIP3    H2 9947   8.121   1.220   3.663
 3336TIP3   OH2 9948   1.527   3.863   6.772
 3336TIP3    H1 9949   1.559   3.823   6.691
 3336TIP3    H2 9950   1.541   3.796   6.839
 3337TIP3   OH2 9951   4.715   5.815   4.456
 3337TIP3    H1 9952   4.695   5.722   4.449
 3337TIP3    H2 9953   4.789   5.829   4.396
 3338TIP3   OH2 9954   4.925   1.809   3.004
 3338TIP3    H1 9955   4.895   1.756   2.930
 3338TIP3    H2 9956   4.847   1.819   3.060
 3339TIP3   OH2 9957   7.539   1.152   4.770
 3339TIP3    H1 9958   7.486   1.170   4.692
 3339TIP3    H2 9959   7.479   1.163   4.843
 3340TIP3   OH2 9960   4.565   3.257   2.190
 3340TIP3    H1 9961   4.547   3.351   2.185
 3340TIP3    H2 9962   4.608   3.244   2.274
 3341TIP3   OH2 9963   3.668   5.297   6.590
 3341TIP3    H1 9964   3.637   5.317   6.678
 3341TIP3    H2 9965   3.593   5.313   6.533
 3342TIP3   OH2 9966   5.217   2.432   2.764
 3342TIP3    H1 9967   5.139   2.456   2.814
 3342TIP3    H2 9968   5.191   2.353   2.716
 3343TIP3   OH2 9969   1.585   5.495   5.090
 3343TIP3    H1 9970   1.653   5.443   5.046
 3343TIP3    H2 9971   1.539   5.539   5.019
 3344TIP3   OH2 9972   8.055   6.920   4.899
 3344TIP3    H1 9973   8.140   6.910   4.943
 3344TIP3    H2 9974   8.028   7.009   4.917
 3345TIP3   OH2 9975   2.278   1.567   3.530
 3345TIP3    H1 9976   2.328   1.487   3.545
 3345TIP3    H2 9977   2.342   1.637   3.540
 3346TIP3   OH2 9978   1.543   6.474   3.302
 3346TIP3    H1 9979   1.571   6.403   3.360
 3346TIP3    H2 9980   1.473   6.518   3.350
 3347TIP3   OH2 9981   5.978   3.410   5.499
 3347TIP3    H1 9982   6.009   3.348   5.566
 3347TIP3    H2 9983   6.058   3.439   5.455
 3348TIP3   OH2 9984   5.861   7.282   3.293
 3348TIP3    H1 9985   5.861   7.214   3.226
 3348TIP3    H2 9986   5.938   7.264   3.346
 3349TIP3   OH2 9987   4.718   5.917   5.405
 3349TIP3    H1 9988   4.660   5.873   5.468
 3349TIP3    H2 9989   4.722   6.008   5.436
 3350TIP3   OH2 9990   4.561   1.266   4.143
 3350TIP3    H1 9991   4.621   1.241   4.073
 3350TIP3    H2 9992   4.554   1.189   4.199
 3351TIP3   OH2 9993   8.136   2.370   3.433
 3351TIP3    H1 9994   8.190   2.300   3.398
 3351TIP3    H2 9995   8.112   2.341   3.521
 3352TIP3   OH2 9996   8.024   4.901   1.137
 3352TIP3    H1 9997   7.963   4.972   1.157
 3352TIP3    H2 9998   8.064   4.879   1.221
 3353TIP3   OH2 9999   6.809   7.240   4.911
 3353TIP3    H110000   6.713   7.237   4.908
 3353TIP3    H210001   6.835   7.151   4.934
 3354TIP3   OH210002   0.058   1.457  -0.020
 3354TIP3    H110003   0.079   1.475   0.071
 3354TIP3    H210004  -0.029   1.496  -0.032
 3355TIP3   OH210005   0.361   3.959   4.707
 3355TIP3    H110006   0.351   3.928   4.797
 3355TIP3    H210007   0.359   4.055   4.714
 3356TIP3   OH210008   4.703   4.201   1.918
 3356TIP3    H110009   4.717   4.169   2.007
 3356TIP3    H210010   4.625   4.256   1.924
 3357TIP3   OH210011   7.263   2.606   1.879
 3357TIP3    H110012   7.246   2.679   1.819
 3357TIP3    H210013   7.189   2.607   1.940
 3358TIP3   OH210014   0.500   0.276   3.739
 3358TIP3    H110015   0.546   0.264   3.823
 3358TIP3    H210016   0.412   0.301   3.764
 3359TIP3   OH210017   6.356   1.307   4.651
 3359TIP3    H110018   6.418   1.334   4.719
 3359TIP3    H210019   6.365   1.373   4.583
 3360TIP3   OH210020   6.122   1.501   4.464
 3360TIP3    H110021   6.188   1.489   4.532
 3360TIP3    H210022   6.086   1.588   4.480
 3361TIP3   OH210023   7.040   1.185   1.855
 3361TIP3    H110024   7.071   1.144   1.774
 3361TIP3    H210025   7.030   1.277   1.833
 3362TIP3   OH210026   1.283   7.192   5.699
 3362TIP3    H110027   1.255   7.201   5.790
 3362TIP3    H210028   1.377   7.213   5.700
 3363TIP3   OH210029   3.462   4.396   0.670
 3363TIP3    H110030   3.469   4.447   0.590
 3363TIP3    H210031   3.384   4.432   0.714
 3364TIP3   OH210032   0.199   3.458   0.666
 3364TIP3    H110033   0.249   3.533   0.700
 3364TIP3    H210034   0.240   3.438   0.582
 3365TIP3   OH210035   0.223   0.933   5.516
 3365TIP3    H110036   0.304   0.915   5.563
 3365TIP3    H210037   0.167   0.975   5.582
 3366TIP3   OH210038   6.713   0.277   1.260
 3366TIP3    H110039   6.691   0.334   1.187
 3366TIP3    H210040   6.683   0.190   1.232
 3367TIP3   OH210041   7.763   1.538   2.209
 3367TIP3    H110042   7.746   1.623   2.169
 3367TIP3    H210043   7.854   1.542   2.238
 3368TIP3   OH210044   3.385   0.849   6.768
 3368TIP3    H110045   3.310   0.802   6.733
 3368TIP3    H210046   3.413   0.907   6.696
 3369TIP3   OH210047   2.403   7.378   3.964
 3369TIP3    H110048   2.410   7.298   4.015
 3369TIP3    H210049   2.475   7.433   3.995
 3370TIP3   OH210050   2.240   7.866   0.041
 3370TIP3    H110051   2.282   7.949   0.020
 3370TIP3    H210052   2.253   7.855   0.135
 3371TIP3   OH210053   3.451   4.746   4.146
 3371TIP3    H110054   3.504   4.717   4.072
 3371TIP3    H210055   3.501   4.818   4.184
 3372TIP3   OH210056   1.893   1.394   2.754
 3372TIP3    H110057   1.924   1.400   2.844
 3372TIP3    H210058   1.859   1.305   2.746
 3373TIP3   OH210059   5.223   1.440   4.780
 3373TIP3    H110060   5.218   1.533   4.756
 3373TIP3    H210061   5.300   1.407   4.735
 3374TIP3   OH210062   2.119   0.637   1.411
 3374TIP3    H110063   2.064   0.611   1.484
 3374TIP3    H210064   2.167   0.713   1.442
 3375TIP3   OH210065   2.485   3.143   1.062
 3375TIP3    H110066   2.483   3.101   0.976
 3375TIP3    H210067   2.506   3.235   1.043
 3376TIP3   OH210068   2.635   7.806   3.958
 3376TIP3    H110069   2.680   7.721   3.965
 3376TIP3    H210070   2.706   7.871   3.963
 3377TIP3   OH210071   7.522   1.091   1.043
 3377TIP3    H110072   7.503   1.011   1.092
 3377TIP3    H210073   7.534   1.158   1.110
 3378TIP3   OH210074   7.405   5.166   2.134
 3378TIP3    H110075   7.491   5.136   2.162
 3378TIP3    H210076   7.351   5.163   2.214
 3379TIP3   OH210077   0.931   1.913   0.328
 3379TIP3    H110078   1.022   1.895   0.303
 3379TIP3    H210079   0.889   1.827   0.330
 3380TIP3   OH210080   6.452   4.692   1.241
 3380TIP3    H110081   6.376   4.643   1.211
 3380TIP3    H210082   6.475   4.749   1.168
 3381TIP3   OH210083   7.765   1.292   5.189
 3381TIP3    H110084   7.684   1.343   5.199
 3381TIP3    H210085   7.830   1.341   5.240
 3382TIP3   OH210086   7.152   1.469   5.599
 3382TIP3    H110087   7.058   1.481   5.612
 3382TIP3    H210088   7.183   1.425   5.678
 3383TIP3   OH210089   4.594   2.513   2.756
 3383TIP3    H110090   4.603   2.567   2.835
 3383TIP3    H210091   4.684   2.488   2.734
 3384TIP3   OH210092   7.010   2.762   4.395
 3384TIP3    H110093   7.029   2.772   4.302
 3384TIP3    H210094   6.915   2.777   4.402
 3385TIP3   OH210095   6.342   7.324   3.892
 3385TIP3    H110096   6.404   7.317   3.964
 3385TIP3    H210097   6.392   7.364   3.821
 3386TIP3   OH210098   5.361   1.578   1.710
 3386TIP3    H110099   5.400   1.590   1.797
 3386TIP3    H210100   5.415   1.510   1.669
 3387TIP3   OH210101   6.148   2.975   3.567
 3387TIP3    H110102   6.137   3.032   3.642
 3387TIP3    H210103   6.141   2.886   3.603
 3388TIP3   OH210104   5.759   3.837   2.294
 3388TIP3    H110105   5.741   3.794   2.210
 3388TIP3    H210106   5.782   3.766   2.353
 3389TIP3   OH210107   1.718   3.070   3.409
 3389TIP3    H110108   1.698   2.996   3.352
 3389TIP3    H210109   1.673   3.050   3.491
 3390TIP3   OH210110   7.835   1.444   6.755
 3390TIP3    H110111   7.817   1.507   6.684
 3390TIP3    H210112   7.798   1.485   6.833
 3391TIP3   OH210113   2.589   5.255   6.076
 3391TIP3    H110114   2.602   5.177   6.022
 3391TIP3    H210115   2.498   5.248   6.106
 3392TIP3   OH210116   8.383   1.501   6.636
 3392TIP3    H110117   8.381   1.582   6.586
 3392TIP3    H210118   8.419   1.525   6.721
 3393TIP3   OH210119   4.199   4.431   5.448
 3393TIP3    H110120   4.117   4.389   5.421
 3393TIP3    H210121   4.173   4.492   5.517
 3394TIP3   OH210122   2.193   4.793   4.222
 3394TIP3    H110123   2.205   4.873   4.274
 3394TIP3    H210124   2.193   4.722   4.287
 3395TIP3   OH210125   1.045   1.026   5.015
 3395TIP3    H110126   1.050   1.119   4.996
 3395TIP3    H210127   1.072   1.019   5.107
 3396TIP3   OH210128   3.464   1.879   4.622
 3396TIP3    H110129   3.517   1.945   4.668
 3396TIP3    H210130   3.398   1.852   4.686
 3397TIP3   OH210131   1.999   5.797   6.346
 3397TIP3    H110132   2.004   5.841   6.262
 3397TIP3    H210133   2.061   5.844   6.402
 3398TIP3   OH210134   5.956   3.565   5.040
 3398TIP3    H110135   5.886   3.570   5.106
 3398TIP3    H210136   5.935   3.486   4.990
 3399TIP3   OH210137   4.879   4.754   0.965
 3399TIP3    H110138   4.937   4.681   0.944
 3399TIP3    H210139   4.938   4.828   0.978
 3400TIP3   OH210140   3.639   7.347   3.629
 3400TIP3    H110141   3.620   7.439   3.609
 3400TIP3    H210142   3.602   7.298   3.556
 3401TIP3   OH210143   2.214   3.488   1.306
 3401TIP3    H110144   2.283   3.521   1.248
 3401TIP3    H210145   2.168   3.566   1.336
 3402TIP3   OH210146   4.367   5.506   5.090
 3402TIP3    H110147   4.440   5.554   5.129
 3402TIP3    H210148   4.310   5.486   5.165
 3403TIP3   OH210149   6.065   0.040   1.640
 3403TIP3    H110150   5.996   0.095   1.677
 3403TIP3    H210151   6.099   0.090   1.566
 3404TIP3   OH210152   3.555   0.050   5.550
 3404TIP3    H110153   3.578  -0.039   5.521
 3404TIP3    H210154   3.495   0.037   5.624
 3405TIP3   OH210155   2.354   0.563   4.015
 3405TIP3    H110156   2.333   0.518   3.933
 3405TIP3    H210157   2.300   0.520   4.081
 3406TIP3   OH210158   6.477   0.735   6.863
 3406TIP3    H110159   6.419   0.805   6.833
 3406TIP3    H210160   6.421   0.658   6.868
 3407TIP3   OH210161   0.581   3.756   4.112
 3407TIP3    H110162   0.514   3.749   4.180
 3407TIP3    H210163   0.648   3.813   4.150
 3408TIP3   OH210164   7.290   2.935   1.199
 3408TIP3    H110165   7.369   2.883   1.185
 3408TIP3    H210166   7.290   2.952   1.293
 3409TIP3   OH210167   7.834   1.857   4.885
 3409TIP3    H110168   7.888   1.818   4.817
 3409TIP3    H210169   7.833   1.792   4.955
 3410TIP3   OH210170   4.036   5.139   1.740
 3410TIP3    H110171   4.042   5.115   1.647
 3410TIP3    H210172   3.944   5.129   1.761
 3411TIP3   OH210173   7.258   1.540   2.016
 3411TIP3    H110174   7.193   1.530   2.085
 3411TIP3    H210175   7.342   1.539   2.061
 3412TIP3   OH210176   5.768   5.330   0.845
 3412TIP3    H110177   5.689   5.384   0.847
 3412TIP3    H210178   5.839   5.389   0.870
 3413TIP3   OH210179   4.827   3.143   6.336
 3413TIP3    H110180   4.816   3.072   6.273
 3413TIP3    H210181   4.749   3.198   6.324
 3414TIP3   OH210182   4.730   0.197   4.400
 3414TIP3    H110183   4.734   0.124   4.461
 3414TIP3    H210184   4.813   0.243   4.412
 3415TIP3   OH210185   3.238   1.540   1.314
 3415TIP3    H110186   3.150   1.508   1.333
 3415TIP3    H210187   3.280   1.466   1.269
 3416TIP3   OH210188   4.066   2.683   4.171
 3416TIP3    H110189   4.033   2.597   4.144
 3416TIP3    H210190   4.085   2.729   4.089
 3417TIP3   OH210191   2.090   1.414   2.304
 3417TIP3    H110192   2.012   1.378   2.262
 3417TIP3    H210193   2.068   1.505   2.323
 3418TIP3   OH210194   2.694   7.470   6.473
 3418TIP3    H110195   2.762   7.489   6.537
 3418TIP3    H210196   2.741   7.461   6.390
 3419TIP3   OH210197   6.906   5.698   3.608
 3419TIP3    H110198   6.984   5.750   3.629
 3419TIP3    H210199   6.833   5.750   3.641
 3420TIP3   OH210200   6.069   7.579   0.325
 3420TIP3    H110201   6.045   7.671   0.316
 3420TIP3    H210202   6.153   7.580   0.370
 3421TIP3   OH210203   3.737   6.522   2.708
 3421TIP3    H110204   3.818   6.549   2.752
 3421TIP3    H210205   3.682   6.489   2.779
 3422TIP3   OH210206   6.268   3.401   5.836
 3422TIP3    H110207   6.229   3.339   5.898
 3422TIP3    H210208   6.284   3.480   5.887
 3423TIP3   OH210209   7.528   7.232   4.436
 3423TIP3    H110210   7.465   7.244   4.507
 3423TIP3    H210211   7.588   7.165   4.469
 3424TIP3   OH210212   5.220   0.838   1.502
 3424TIP3    H110213   5.135   0.853   1.543
 3424TIP3    H210214   5.284   0.860   1.571
 3425TIP3   OH210215   0.743   3.266   0.854
 3425TIP3    H110216   0.772   3.357   0.847
 3425TIP3    H210217   0.770   3.225   0.772
 3426TIP3   OH210218   7.407   0.954   3.493
 3426TIP3    H110219   7.386   0.887   3.428
 3426TIP3    H210220   7.346   0.937   3.565
 3427TIP3   OH210221   5.824   1.926   5.271
 3427TIP3    H110222   5.913   1.897   5.253
 3427TIP3    H210223   5.769   1.875   5.211
 3428TIP3   OH210224   1.172   7.615   0.048
 3428TIP3    H110225   1.207   7.594   0.134
 3428TIP3    H210226   1.208   7.702   0.028
 3429TIP3   OH210227   6.547   4.441   5.552
 3429TIP3    H110228   6.460   4.476   5.533
 3429TIP3    H210229   6.532   4.369   5.613
 3430TIP3   OH210230   7.300   3.556   1.448
 3430TIP3    H110231   7.300   3.507   1.531
 3430TIP3    H210232   7.359   3.629   1.464
 3431TIP3   OH210233   3.207   2.981   5.672
 3431TIP3    H110234   3.288   2.950   5.713
 3431TIP3    H210235   3.144   2.983   5.743
 3432TIP3   OH210236   7.551   5.974   0.319
 3432TIP3    H110237   7.589   6.047   0.368
 3432TIP3    H210238   7.589   5.982   0.231
 3433TIP3   OH210239   6.384   4.366   3.468
 3433TIP3    H110240   6.441   4.289   3.461
 3433TIP3    H210241   6.407   4.405   3.553
 3434TIP3   OH210242   7.055   5.181   0.767
 3434TIP3    H110243   7.147   5.203   0.758
 3434TIP3    H210244   7.009   5.244   0.712
 3435TIP3   OH210245   8.126   2.917   6.250
 3435TIP3    H110246   8.217   2.947   6.251
 3435TIP3    H210247   8.100   2.916   6.342
 3436TIP3   OH210248   4.329   4.094   5.320
 3436TIP3    H110249   4.370   4.053   5.244
 3436TIP3    H210250   4.352   4.186   5.314
 3437TIP3   OH210251   2.282   7.005   6.600
 3437TIP3    H110252   2.262   6.912   6.597
 3437TIP3    H210253   2.255   7.039   6.514
 3438TIP3   OH210254   2.719   4.672   0.897
 3438TIP3    H110255   2.658   4.676   0.971
 3438TIP3    H210256   2.806   4.672   0.938
 3439TIP3   OH210257   4.162   3.474   3.951
 3439TIP3    H110258   4.079   3.429   3.969
 3439TIP3    H210259   4.229   3.408   3.966
 3440TIP3   OH210260   2.094   6.092   6.381
 3440TIP3    H110261   2.115   6.157   6.448
 3440TIP3    H210262   2.141   6.121   6.303
 3441TIP3   OH210263   5.338   1.162   3.708
 3441TIP3    H110264   5.252   1.203   3.712
 3441TIP3    H210265   5.321   1.068   3.717
 3442TIP3   OH210266   4.416   2.545   5.902
 3442TIP3    H110267   4.330   2.587   5.914
 3442TIP3    H210268   4.446   2.576   5.817
 3443TIP3   OH210269   0.833   7.917   4.102
 3443TIP3    H110270   0.922   7.952   4.092
 3443TIP3    H210271   0.821   7.862   4.025
 3444TIP3   OH210272   3.960   7.070   5.341
 3444TIP3    H110273   3.869   7.092   5.362
 3444TIP3    H210274   3.966   6.976   5.357
 3445TIP3   OH210275   0.494   1.885   6.522
 3445TIP3    H110276   0.564   1.935   6.481
 3445TIP3    H210277   0.533   1.800   6.541
 3446TIP3   OH210278   7.467   6.323   1.031
 3446TIP3    H110279   7.400   6.303   0.966
 3446TIP3    H210280   7.419   6.363   1.104
 3447TIP3   OH210281   5.885   4.690   5.270
 3447TIP3    H110282   5.798   4.719   5.296
 3447TIP3    H210283   5.937   4.695   5.350
 3448TIP3   OH210284   8.348   7.859   3.848
 3448TIP3    H110285   8.325   7.901   3.766
 3448TIP3    H210286   8.427   7.904   3.877
 3449TIP3   OH210287   7.717   3.035   0.720
 3449TIP3    H110288   7.636   3.066   0.762
 3449TIP3    H210289   7.687   2.977   0.650
 3450TIP3   OH210290   4.757   7.275   2.576
 3450TIP3    H110291   4.680   7.258   2.630
 3450TIP3    H210292   4.779   7.191   2.537
 3451TIP3   OH210293   6.339   6.182   6.126
 3451TIP3    H110294   6.266   6.238   6.154
 3451TIP3    H210295   6.413   6.242   6.117
 3452TIP3   OH210296   3.088   1.526   4.548
 3452TIP3    H110297   3.112   1.576   4.471
 3452TIP3    H210298   3.005   1.485   4.525
 3453TIP3   OH210299   2.663   6.884   4.434
 3453TIP3    H110300   2.603   6.894   4.508
 3453TIP3    H210301   2.708   6.801   4.449
 3454TIP3   OH210302   7.153   6.507   1.404
 3454TIP3    H110303   7.204   6.491   1.324
 3454TIP3    H210304   7.107   6.589   1.386
 3455TIP3   OH210305   7.513   3.005   2.075
 3455TIP3    H110306   7.557   3.086   2.049
 3455TIP3    H210307   7.550   2.984   2.161
 3456TIP3   OH210308   5.077   0.211   3.130
 3456TIP3    H110309   4.996   0.218   3.180
 3456TIP3    H210310   5.059   0.145   3.063
 3457TIP3   OH210311   3.094   3.972   4.637
 3457TIP3    H110312   3.044   3.975   4.718
 3457TIP3    H210313   3.150   4.050   4.640
 3458TIP3   OH210314   7.450   7.576   5.569
 3458TIP3    H110315   7.499   7.590   5.487
 3458TIP3    H210316   7.358   7.579   5.542
 3459TIP3   OH210317   0.874   6.789   0.563
 3459TIP3    H110318   0.840   6.706   0.528
 3459TIP3    H210319   0.802   6.825   0.613
 3460TIP3   OH210320   8.226   7.873   3.585
 3460TIP3    H110321   8.264   7.803   3.532
 3460TIP3    H210322   8.164   7.828   3.643
 3461TIP3   OH210323   1.685   6.368   6.714
 3461TIP3    H110324   1.685   6.359   6.618
 3461TIP3    H210325   1.598   6.403   6.734
 3462TIP3   OH210326   1.946   1.716   2.034
 3462TIP3    H110327   1.966   1.734   2.126
 3462TIP3    H210328   1.874   1.653   2.037
 3463TIP3   OH210329   5.639   2.850   5.011
 3463TIP3    H110330   5.682   2.765   5.025
 3463TIP3    H210331   5.698   2.914   5.050
 3464TIP3   OH210332   7.560   7.088   5.038
 3464TIP3    H110333   7.509   7.167   5.018
 3464TIP3    H210334   7.532   7.025   4.971
 3465TIP3   OH210335   3.826   5.270   3.424
 3465TIP3    H110336   3.840   5.362   3.398
 3465TIP3    H210337   3.913   5.239   3.449
 3466TIP3   OH210338   6.885   6.025   6.777
 3466TIP3    H110339   6.851   5.979   6.700
 3466TIP3    H210340   6.822   6.004   6.846
 3467TIP3   OH210341   8.303   7.213   6.295
 3467TIP3    H110342   8.316   7.121   6.273
 3467TIP3    H210343   8.222   7.214   6.346
 3468TIP3   OH210344   3.669   1.945   3.231
 3468TIP3    H110345   3.601   1.939   3.165
 3468TIP3    H210346   3.627   1.915   3.312
 3469TIP3   OH210347   3.499   0.683   3.057
 3469TIP3    H110348   3.523   0.652   3.145
 3469TIP3    H210349   3.485   0.777   3.069
 3470TIP3   OH210350   1.066   4.999   1.613
 3470TIP3    H110351   1.053   4.968   1.703
 3470TIP3    H210352   0.978   4.996   1.575
 3471TIP3   OH210353   5.892   0.961   0.817
 3471TIP3    H110354   5.838   1.013   0.757
 3471TIP3    H210355   5.841   0.882   0.834
 3472TIP3   OH210356   5.296   2.801   4.434
 3472TIP3    H110357   5.215   2.750   4.438
 3472TIP3    H210358   5.330   2.784   4.346
 3473TIP3   OH210359   3.011   3.758   0.242
 3473TIP3    H110360   2.980   3.827   0.183
 3473TIP3    H210361   2.956   3.682   0.222
 3474TIP3   OH210362   6.348   6.514  -0.009
 3474TIP3    H110363   6.409   6.450   0.028
 3474TIP3    H210364   6.339   6.581   0.058
 3475TIP3   OH210365   0.883   1.514   0.260
 3475TIP3    H110366   0.866   1.419   0.259
 3475TIP3    H210367   0.921   1.532   0.174
 3476TIP3   OH210368   3.290   5.577   3.677
 3476TIP3    H110369   3.304   5.600   3.769
 3476TIP3    H210370   3.303   5.659   3.629
 3477TIP3   OH210371   7.128   3.137   4.213
 3477TIP3    H110372   7.200   3.088   4.251
 3477TIP3    H210373   7.049   3.098   4.251
 3478TIP3   OH210374   1.744   6.302   2.923
 3478TIP3    H110375   1.834   6.280   2.948
 3478TIP3    H210376   1.752   6.385   2.876
 3479TIP3   OH210377   3.982   1.162   2.232
 3479TIP3    H110378   4.021   1.082   2.265
 3479TIP3    H210379   3.900   1.171   2.281
 3480TIP3   OH210380   7.880   1.490   3.682
 3480TIP3    H110381   7.924   1.405   3.688
 3480TIP3    H210382   7.903   1.523   3.595
 3481TIP3   OH210383   6.384   0.798   3.911
 3481TIP3    H110384   6.339   0.826   3.832
 3481TIP3    H210385   6.315   0.764   3.968
 3482TIP3   OH210386   2.324   0.355   0.758
 3482TIP3    H110387   2.246   0.342   0.813
 3482TIP3    H210388   2.376   0.276   0.771
 3483TIP3   OH210389   4.783   6.254   6.612
 3483TIP3    H110390   4.827   6.170   6.621
 3483TIP3    H210391   4.752   6.255   6.521
 3484TIP3   OH210392   2.899   7.751   1.829
 3484TIP3    H110393   2.832   7.726   1.893
 3484TIP3    H210394   2.881   7.844   1.811
 3485TIP3   OH210395   4.021   3.390   5.356
 3485TIP3    H110396   3.997   3.442   5.432
 3485TIP3    H210397   4.036   3.454   5.286
 3486TIP3   OH210398   7.092   3.634   3.253
 3486TIP3    H110399   7.054   3.715   3.220
 3486TIP3    H210400   7.172   3.662   3.299
 3487TIP3   OH210401   4.374   4.364   2.852
 3487TIP3    H110402   4.309   4.342   2.786
 3487TIP3    H210403   4.340   4.323   2.933
 3488TIP3   OH210404   3.744   0.886   5.926
 3488TIP3    H110405   3.663   0.838   5.946
 3488TIP3    H210406   3.746   0.956   5.991
 3489TIP3   OH210407   7.853   2.681   3.757
 3489TIP3    H110408   7.926   2.620   3.763
 3489TIP3    H210409   7.806   2.670   3.840
 3490TIP3   OH210410   3.146   7.117   2.916
 3490TIP3    H110411   3.227   7.169   2.918
 3490TIP3    H210412   3.176   7.027   2.911
 3491TIP3   OH210413   7.239   1.151   3.874
 3491TIP3    H110414   7.334   1.164   3.881
 3491TIP3    H210415   7.215   1.108   3.956
 3492TIP3   OH210416   8.367   2.073   4.164
 3492TIP3    H110417   8.319   2.098   4.243
 3492TIP3    H210418   8.323   1.993   4.134
 3493TIP3   OH210419   3.725   6.496   3.073
 3493TIP3    H110420   3.684   6.581   3.059
 3493TIP3    H210421   3.702   6.473   3.163
 3494TIP3   OH210422   4.723   0.096   3.896
 3494TIP3    H110423   4.703   0.183   3.931
 3494TIP3    H210424   4.687   0.096   3.808
 3495TIP3   OH210425   3.487   6.499   2.564
 3495TIP3    H110426   3.580   6.500   2.586
 3495TIP3    H210427   3.463   6.591   2.557
 3496TIP3   OH210428   4.506   2.039   4.242
 3496TIP3    H110429   4.422   2.025   4.286
 3496TIP3    H210430   4.481   2.060   4.152
 3497TIP3   OH210431   5.774   4.363   2.253
 3497TIP3    H110432   5.815   4.289   2.297
 3497TIP3    H210433   5.778   4.341   2.160
 3498TIP3   OH210434   4.823   5.629   0.274
 3498TIP3    H110435   4.769   5.680   0.213
 3498TIP3    H210436   4.790   5.651   0.361
 3499TIP3   OH210437   3.359   5.403   5.173
 3499TIP3    H110438   3.395   5.423   5.087
 3499TIP3    H210439   3.273   5.365   5.155
 3500TIP3   OH210440   6.616   7.602   4.997
 3500TIP3    H110441   6.667   7.613   5.078
 3500TIP3    H210442   6.533   7.645   5.016
 3501TIP3   OH210443   1.755   3.256   5.955
 3501TIP3    H110444   1.802   3.209   5.885
 3501TIP3    H210445   1.802   3.339   5.963
 3502TIP3   OH210446   8.087   4.056   4.848
 3502TIP3    H110447   8.044   4.050   4.933
 3502TIP3    H210448   8.048   3.986   4.796
 3503TIP3   OH210449   5.107   6.096   6.787
 3503TIP3    H110450   5.166   6.054   6.724
 3503TIP3    H210451   5.022   6.100   6.742
 3504TIP3   OH210452   2.965   6.854   4.195
 3504TIP3    H110453   2.931   6.777   4.149
 3504TIP3    H210454   2.968   6.922   4.128
 3505TIP3   OH210455   1.615   4.394   2.631
 3505TIP3    H110456   1.587   4.432   2.714
 3505TIP3    H210457   1.563   4.439   2.565
 3506TIP3   OH210458   7.177   4.216   3.572
 3506TIP3    H110459   7.266   4.251   3.571
 3506TIP3    H210460   7.122   4.288   3.539
 3507TIP3   OH210461   3.132   2.058   1.258
 3507TIP3    H110462   3.097   2.103   1.335
 3507TIP3    H210463   3.099   2.107   1.183
 3508TIP3   OH210464   2.619   4.335   1.858
 3508TIP3    H110465   2.591   4.256   1.905
 3508TIP3    H210466   2.646   4.396   1.926
 3509TIP3   OH210467   6.345   5.862   0.754
 3509TIP3    H110468   6.294   5.787   0.784
 3509TIP3    H210469   6.321   5.872   0.662
 3510TIP3   OH210470   5.513   0.464   4.381
 3510TIP3    H110471   5.590   0.519   4.371
 3510TIP3    H210472   5.442   0.513   4.340
 3511TIP3   OH210473   5.123   5.053   6.006
 3511TIP3    H110474   5.128   4.959   6.023
 3511TIP3    H210475   5.039   5.066   5.962
 3512TIP3   OH210476   6.220   2.477   2.614
 3512TIP3    H110477   6.284   2.407   2.613
 3512TIP3    H210478   6.138   2.435   2.587
 3513TIP3   OH210479   1.519   6.718   6.800
 3513TIP3    H110480   1.520   6.809   6.769
 3513TIP3    H210481   1.501   6.724   6.893
 3514TIP3   OH210482   8.142   3.235   5.657
 3514TIP3    H110483   8.175   3.218   5.745
 3514TIP3    H210484   8.096   3.155   5.633
 3515TIP3   OH210485   0.307   1.937   3.348
 3515TIP3    H110486   0.216   1.908   3.357
 3515TIP3    H210487   0.344   1.925   3.435
 3516TIP3   OH210488   3.839   7.321   5.389
 3516TIP3    H110489   3.820   7.414   5.405
 3516TIP3    H210490   3.885   7.292   5.468
 3517TIP3   OH210491   6.161   7.102   0.899
 3517TIP3    H110492   6.185   7.091   0.991
 3517TIP3    H210493   6.080   7.053   0.890
 3518TIP3   OH210494   6.937   1.662   1.343
 3518TIP3    H110495   6.943   1.733   1.407
 3518TIP3    H210496   6.954   1.705   1.259
 3519TIP3   OH210497   7.222   7.788   1.484
 3519TIP3    H110498   7.255   7.862   1.434
 3519TIP3    H210499   7.279   7.783   1.560
 3520TIP3   OH210500   4.389   5.588   0.532
 3520TIP3    H110501   4.367   5.679   0.550
 3520TIP3    H210502   4.408   5.586   0.438
 3521TIP3   OH210503   3.103   4.465   6.546
 3521TIP3    H110504   3.132   4.502   6.629
 3521TIP3    H210505   3.120   4.371   6.555
 3522TIP3   OH210506   6.043   0.598   5.227
 3522TIP3    H110507   6.134   0.572   5.241
 3522TIP3    H210508   6.026   0.665   5.293
 3523TIP3   OH210509   0.603   5.970   1.818
 3523TIP3    H110510   0.601   5.875   1.808
 3523TIP3    H210511   0.572   5.985   1.908
 3524TIP3   OH210512   4.091   1.157   1.975
 3524TIP3    H110513   4.103   1.252   1.974
 3524TIP3    H210514   4.048   1.139   2.058
 3525TIP3   OH210515   2.228   7.594   1.955
 3525TIP3    H110516   2.256   7.682   1.981
 3525TIP3    H210517   2.237   7.593   1.860
 3526TIP3   OH210518   5.283   4.906   6.557
 3526TIP3    H110519   5.254   4.901   6.648
 3526TIP3    H210520   5.300   4.815   6.533
 3527TIP3   OH210521   0.045   6.661   3.789
 3527TIP3    H110522   0.025   6.747   3.750
 3527TIP3    H210523   0.062   6.604   3.714
 3528TIP3   OH210524   1.164   6.720   4.502
 3528TIP3    H110525   1.255   6.749   4.506
 3528TIP3    H210526   1.144   6.714   4.409
 3529TIP3   OH210527   2.617   5.650   6.647
 3529TIP3    H110528   2.560   5.573   6.635
 3529TIP3    H210529   2.695   5.631   6.595
 3530TIP3   OH210530   0.135   7.119   4.588
 3530TIP3    H110531   0.202   7.080   4.645
 3530TIP3    H210532   0.184   7.173   4.527
 3531TIP3   OH210533   2.147   7.342   3.824
 3531TIP3    H110534   2.157   7.253   3.859
 3531TIP3    H210535   2.237   7.373   3.813
 3532TIP3   OH210536   6.042   6.024   5.545
 3532TIP3    H110537   5.999   6.042   5.628
 3532TIP3    H210538   6.006   6.088   5.484
 3533TIP3   OH210539   2.239   3.532   6.346
 3533TIP3    H110540   2.273   3.610   6.303
 3533TIP3    H210541   2.260   3.545   6.438
 3534TIP3   OH210542   4.341   0.447   1.564
 3534TIP3    H110543   4.377   0.508   1.629
 3534TIP3    H210544   4.264   0.492   1.529
 3535TIP3   OH210545   5.677   0.067   0.412
 3535TIP3    H110546   5.591   0.084   0.373
 3535TIP3    H210547   5.737   0.123   0.362
 3536TIP3   OH210548   2.188   6.627   3.904
 3536TIP3    H110549   2.122   6.635   3.973
 3536TIP3    H210550   2.199   6.532   3.892
 3537TIP3   OH210551   5.231   1.378   4.354
 3537TIP3    H110552   5.183   1.359   4.273
 3537TIP3    H210553   5.201   1.310   4.415
 3538TIP3   OH210554   1.455   2.299   5.327
 3538TIP3    H110555   1.525   2.287   5.390
 3538TIP3    H210556   1.376   2.312   5.380
 3539TIP3   OH210557   3.330   7.176   3.755
 3539TIP3    H110558   3.274   7.225   3.815
 3539TIP3    H210559   3.417   7.180   3.794
 3540TIP3   OH210560   3.691   7.348   1.709
 3540TIP3    H110561   3.651   7.419   1.659
 3540TIP3    H210562   3.782   7.376   1.721
 3541TIP3   OH210563   5.424   2.347   0.652
 3541TIP3    H110564   5.395   2.291   0.580
 3541TIP3    H210565   5.351   2.408   0.666
 3542TIP3   OH210566   0.410   0.510   5.446
 3542TIP3    H110567   0.468   0.438   5.472
 3542TIP3    H210568   0.385   0.490   5.356
 3543TIP3   OH210569   6.540   2.216   0.656
 3543TIP3    H110570   6.474   2.157   0.691
 3543TIP3    H210571   6.492   2.273   0.596
 3544TIP3   OH210572   6.218   4.025   2.794
 3544TIP3    H110573   6.165   3.978   2.729
 3544TIP3    H210574   6.304   4.032   2.754
 3545TIP3   OH210575   7.498   6.205   3.790
 3545TIP3    H110576   7.567   6.209   3.856
 3545TIP3    H210577   7.543   6.221   3.707
 3546TIP3   OH210578   5.304   6.432   6.133
 3546TIP3    H110579   5.336   6.435   6.223
 3546TIP3    H210580   5.338   6.349   6.099
 3547TIP3   OH210581   1.653   7.166   4.750
 3547TIP3    H110582   1.735   7.215   4.748
 3547TIP3    H210583   1.612   7.184   4.665
 3548TIP3   OH210584   1.432   5.232   4.497
 3548TIP3    H110585   1.369   5.193   4.436
 3548TIP3    H210586   1.378   5.286   4.555
 3549TIP3   OH210587   1.694   3.812   0.686
 3549TIP3    H110588   1.650   3.776   0.763
 3549TIP3    H210589   1.687   3.743   0.620
 3550TIP3   OH210590   6.804   2.256   0.751
 3550TIP3    H110591   6.716   2.242   0.715
 3550TIP3    H210592   6.797   2.228   0.842
 3551TIP3   OH210593   1.956   0.560   0.480
 3551TIP3    H110594   1.973   0.644   0.523
 3551TIP3    H210595   1.982   0.495   0.544
 3552TIP3   OH210596   3.082   4.317   6.225
 3552TIP3    H110597   3.077   4.269   6.308
 3552TIP3    H210598   3.176   4.331   6.211
 3553TIP3   OH210599   4.000   5.654   4.796
 3553TIP3    H110600   3.981   5.731   4.741
 3553TIP3    H210601   4.079   5.616   4.758
 3554TIP3   OH210602   4.544   0.918   5.451
 3554TIP3    H110603   4.451   0.942   5.449
 3554TIP3    H210604   4.570   0.916   5.359
 3555TIP3   OH210605   1.140   7.671   4.468
 3555TIP3    H110606   1.099   7.755   4.445
 3555TIP3    H210607   1.205   7.694   4.535
 3556TIP3   OH210608   6.580   0.891   6.322
 3556TIP3    H110609   6.609   0.819   6.379
 3556TIP3    H210610   6.581   0.853   6.234
 3557TIP3   OH210611   2.843   0.277   0.710
 3557TIP3    H110612   2.770   0.329   0.675
 3557TIP3    H210613   2.802   0.193   0.734
 3558TIP3   OH210614   6.883   6.014   0.567
 3558TIP3    H110615   6.794   5.997   0.539
 3558TIP3    H210616   6.875   6.046   0.656
 3559TIP3   OH210617   6.942   5.433   0.711
 3559TIP3    H110618   6.944   5.516   0.663
 3559TIP3    H210619   6.947   5.458   0.803
 3560TIP3   OH210620   5.282   5.328   0.080
 3560TIP3    H110621   5.283   5.295  -0.010
 3560TIP3    H210622   5.353   5.282   0.124
 3561TIP3   OH210623   5.639   5.269   6.139
 3561TIP3    H110624   5.558   5.318   6.131
 3561TIP3    H210625   5.644   5.216   6.059
 3562TIP3   OH210626   0.318   6.438   6.252
 3562TIP3    H110627   0.278   6.524   6.241
 3562TIP3    H210628   0.390   6.453   6.314
 3563TIP3   OH210629   7.833   6.029   0.563
 3563TIP3    H110630   7.757   6.045   0.618
 3563TIP3    H210631   7.905   6.075   0.608
 3564TIP3   OH210632   7.777   4.710   5.488
 3564TIP3    H110633   7.688   4.703   5.453
 3564TIP3    H210634   7.772   4.670   5.574
 3565TIP3   OH210635   5.847   7.309   5.888
 3565TIP3    H110636   5.925   7.350   5.925
 3565TIP3    H210637   5.774   7.347   5.937
 3566TIP3   OH210638   6.630   2.122   2.650
 3566TIP3    H110639   6.634   2.027   2.638
 3566TIP3    H210640   6.707   2.156   2.604
 3567TIP3   OH210641   1.485   4.626   6.539
 3567TIP3    H110642   1.575   4.607   6.511
 3567TIP3    H210643   1.452   4.543   6.573
 3568TIP3   OH210644   4.759   6.288   1.658
 3568TIP3    H110645   4.716   6.221   1.604
 3568TIP3    H210646   4.730   6.268   1.747
 3569TIP3   OH210647   6.305   6.236   5.035
 3569TIP3    H110648   6.226   6.217   4.983
 3569TIP3    H210649   6.292   6.325   5.066
 3570TIP3   OH210650   7.494   5.637   4.155
 3570TIP3    H110651   7.532   5.577   4.091
 3570TIP3    H210652   7.530   5.723   4.132
 3571TIP3   OH210653   6.199   3.570   5.390
 3571TIP3    H110654   6.243   3.519   5.458
 3571TIP3    H210655   6.242   3.543   5.309
 3572TIP3   OH210656   2.636   4.527   4.703
 3572TIP3    H110657   2.726   4.516   4.732
 3572TIP3    H210658   2.635   4.494   4.613
 3573TIP3   OH210659   2.303   2.197   3.511
 3573TIP3    H110660   2.391   2.211   3.547
 3573TIP3    H210661   2.248   2.259   3.560
 3574TIP3   OH210662   3.788   3.849   3.401
 3574TIP3    H110663   3.713   3.798   3.369
 3574TIP3    H210664   3.840   3.785   3.449
 3575TIP3   OH210665   4.124   2.120   0.797
 3575TIP3    H110666   4.218   2.105   0.787
 3575TIP3    H210667   4.117   2.174   0.876
 3576TIP3   OH210668   6.471   6.931   3.134
 3576TIP3    H110669   6.463   6.874   3.210
 3576TIP3    H210670   6.501   6.873   3.063
 3577TIP3   OH210671   1.658   6.742   0.128
 3577TIP3    H110672   1.718   6.736   0.054
 3577TIP3    H210673   1.703   6.800   0.190
 3578TIP3   OH210674   2.541   0.912   5.304
 3578TIP3    H110675   2.583   0.972   5.242
 3578TIP3    H210676   2.468   0.963   5.340
 3579TIP3   OH210677   3.558   2.839   1.660
 3579TIP3    H110678   3.475   2.853   1.614
 3579TIP3    H210679   3.593   2.927   1.672
 3580TIP3   OH210680   7.783   2.185   4.648
 3580TIP3    H110681   7.775   2.146   4.735
 3580TIP3    H210682   7.707   2.153   4.600
 3581TIP3   OH210683   7.602   4.148   3.111
 3581TIP3    H110684   7.645   4.230   3.086
 3581TIP3    H210685   7.627   4.086   3.042
 3582TIP3   OH210686   8.012   4.578   6.211
 3582TIP3    H110687   8.079   4.514   6.186
 3582TIP3    H210688   8.060   4.649   6.253
 3583TIP3   OH210689   7.335   2.046   3.708
 3583TIP3    H110690   7.347   1.951   3.720
 3583TIP3    H210691   7.287   2.073   3.786
 3584TIP3   OH210692   4.896   2.055   4.723
 3584TIP3    H110693   4.990   2.075   4.725
 3584TIP3    H210694   4.865   2.075   4.811
 3585TIP3   OH210695   7.191   2.401   1.433
 3585TIP3    H110696   7.257   2.448   1.485
 3585TIP3    H210697   7.181   2.454   1.354
 3586TIP3   OH210698   1.034   6.991   3.474
 3586TIP3    H110699   1.089   6.914   3.459
 3586TIP3    H210700   0.995   7.010   3.388
 3587TIP3   OH210701   0.944   1.334   0.626
 3587TIP3    H110702   0.936   1.290   0.710
 3587TIP3    H210703   0.910   1.271   0.562
 3588TIP3   OH210704   6.074   5.567   1.150
 3588TIP3    H110705   6.139   5.524   1.206
 3588TIP3    H210706   6.037   5.497   1.097
 3589TIP3   OH210707   1.528   1.003   3.861
 3589TIP3    H110708   1.611   1.051   3.863
 3589TIP3    H210709   1.478   1.036   3.935
 3590TIP3   OH210710   0.073   1.355   2.246
 3590TIP3    H110711   0.056   1.280   2.189
 3590TIP3    H210712   0.135   1.322   2.311
 3591TIP3   OH210713   0.851   7.231   6.510
 3591TIP3    H110714   0.760   7.203   6.494
 3591TIP3    H210715   0.852   7.322   6.480
 3592TIP3   OH210716   7.407   5.045   5.428
 3592TIP3    H110717   7.344   5.036   5.500
 3592TIP3    H210718   7.354   5.042   5.349
 3593TIP3   OH210719   7.184   1.815   6.308
 3593TIP3    H110720   7.247   1.881   6.278
 3593TIP3    H210721   7.144   1.854   6.386
 3594TIP3   OH210722   8.073   5.797   6.376
 3594TIP3    H110723   8.147   5.738   6.367
 3594TIP3    H210724   8.108   5.874   6.421
 3595TIP3   OH210725   0.066   3.617   4.036
 3595TIP3    H110726   0.153   3.624   4.074
 3595TIP3    H210727   0.011   3.583   4.106
 3596TIP3   OH210728   8.248   3.103   0.559
 3596TIP3    H110729   8.327   3.048   0.560
 3596TIP3    H210730   8.183   3.053   0.607
 3597TIP3   OH210731   7.712   2.880   5.603
 3597TIP3    H110732   7.738   2.913   5.517
 3597TIP3    H210733   7.621   2.852   5.592
 3598TIP3   OH210734   3.947   7.794   3.866
 3598TIP3    H110735   3.942   7.700   3.883
 3598TIP3    H210736   3.977   7.800   3.775
 3599TIP3   OH210737   6.979   5.530   6.093
 3599TIP3    H110738   6.948   5.524   6.183
 3599TIP3    H210739   6.907   5.493   6.040
 3600TIP3   OH210740   3.659   7.250   6.206
 3600TIP3    H110741   3.707   7.290   6.278
 3600TIP3    H210742   3.698   7.287   6.127
 3601TIP3   OH210743   7.062   4.788   5.175
 3601TIP3    H110744   7.056   4.828   5.088
 3601TIP3    H210745   7.004   4.841   5.229
 3602TIP3   OH210746   6.304   6.253   2.215
 3602TIP3    H110747   6.215   6.224   2.193
 3602TIP3    H210748   6.338   6.183   2.271
 3603TIP3   OH210749   2.739   6.196   4.901
 3603TIP3    H110750   2.707   6.232   4.818
 3603TIP3    H210751   2.671   6.134   4.928
 3604TIP3   OH210752   3.297   3.459   6.346
 3604TIP3    H110753   3.252   3.506   6.275
 3604TIP3    H210754   3.378   3.428   6.306
 3605TIP3   OH210755   4.584   6.344   0.324
 3605TIP3    H110756   4.650   6.279   0.351
 3605TIP3    H210757   4.509   6.327   0.382
 3606TIP3   OH210758   6.800   7.541   5.575
 3606TIP3    H110759   6.811   7.590   5.657
 3606TIP3    H210760   6.707   7.518   5.573
 3607TIP3   OH210761   3.411   5.581   0.211
 3607TIP3    H110762   3.434   5.543   0.125
 3607TIP3    H210763   3.340   5.525   0.243
 3608TIP3   OH210764   5.568   7.843   3.839
 3608TIP3    H110765   5.512   7.860   3.763
 3608TIP3    H210766   5.652   7.884   3.817
 3609TIP3   OH210767   6.423   2.669   1.386
 3609TIP3    H110768   6.380   2.655   1.302
 3609TIP3    H210769   6.475   2.590   1.401
 3610TIP3   OH210770   7.250   1.215   4.599
 3610TIP3    H110771   7.283   1.128   4.622
 3610TIP3    H210772   7.155   1.208   4.604
 3611TIP3   OH210773   1.856   7.084   3.809
 3611TIP3    H110774   1.939   7.037   3.812
 3611TIP3    H210775   1.842   7.114   3.899
 3612TIP3   OH210776   3.440   3.893   4.315
 3612TIP3    H110777   3.444   3.988   4.326
 3612TIP3    H210778   3.521   3.871   4.270
 3613TIP3   OH210779   5.776   6.887   4.491
 3613TIP3    H110780   5.750   6.921   4.577
 3613TIP3    H210781   5.701   6.905   4.434
 3614TIP3   OH210782   1.492   3.287   3.666
 3614TIP3    H110783   1.455   3.224   3.604
 3614TIP3    H210784   1.566   3.325   3.619
 3615TIP3   OH210785   7.314   6.727   0.551
 3615TIP3    H110786   7.377   6.770   0.609
 3615TIP3    H210787   7.367   6.672   0.494
 3616TIP3   OH210788   2.118   0.742   0.258
 3616TIP3    H110789   2.098   0.819   0.205
 3616TIP3    H210790   2.144   0.779   0.343
 3617TIP3   OH210791   2.320   0.719   4.826
 3617TIP3    H110792   2.382   0.791   4.839
 3617TIP3    H210793   2.234   0.762   4.821
 3618TIP3   OH210794   8.047   5.637   3.238
 3618TIP3    H110795   7.989   5.697   3.285
 3618TIP3    H210796   8.120   5.692   3.210
 3619TIP3   OH210797   5.033   4.288   3.450
 3619TIP3    H110798   4.968   4.348   3.487
 3619TIP3    H210799   5.114   4.339   3.445
 3620TIP3   OH210800   2.324   5.217   5.533
 3620TIP3    H110801   2.316   5.286   5.467
 3620TIP3    H210802   2.307   5.136   5.484
 3621TIP3   OH210803   5.558   1.355   0.752
 3621TIP3    H110804   5.499   1.310   0.692
 3621TIP3    H210805   5.509   1.362   0.834
 3622TIP3   OH210806   7.814   7.307   5.997
 3622TIP3    H110807   7.830   7.400   5.980
 3622TIP3    H210808   7.827   7.264   5.912
 3623TIP3   OH210809   7.449   5.959   5.855
 3623TIP3    H110810   7.481   5.945   5.944
 3623TIP3    H210811   7.524   5.994   5.807
 3624TIP3   OH210812   7.161   4.676   0.577
 3624TIP3    H110813   7.091   4.665   0.513
 3624TIP3    H210814   7.229   4.613   0.550
 3625TIP3   OH210815   1.557   1.306   5.703
 3625TIP3    H110816   1.606   1.244   5.758
 3625TIP3    H210817   1.594   1.392   5.724
 3626TIP3   OH210818   3.550   6.989   4.934
 3626TIP3    H110819   3.511   7.071   4.965
 3626TIP3    H210820   3.540   6.992   4.839
 3627TIP3   OH210821   6.152   7.852   0.975
 3627TIP3    H110822   6.135   7.860   1.069
 3627TIP3    H210823   6.221   7.785   0.970
 3628TIP3   OH210824   3.242   3.111   4.290
 3628TIP3    H110825   3.292   3.044   4.336
 3628TIP3    H210826   3.305   3.181   4.273
 3629TIP3   OH210827   1.390   1.837   3.667
 3629TIP3    H110828   1.373   1.815   3.758
 3629TIP3    H210829   1.483   1.818   3.654
 3630TIP3   OH210830   0.795   4.839   3.334
 3630TIP3    H110831   0.783   4.779   3.261
 3630TIP3    H210832   0.888   4.863   3.330
 3631TIP3   OH210833   0.572   6.437   0.699
 3631TIP3    H110834   0.621   6.459   0.778
 3631TIP3    H210835   0.577   6.342   0.693
 3632TIP3   OH210836   0.652   4.194   2.079
 3632TIP3    H110837   0.707   4.187   2.157
 3632TIP3    H210838   0.605   4.110   2.076
 3633TIP3   OH210839   1.538   2.238   4.244
 3633TIP3    H110840   1.570   2.150   4.227
 3633TIP3    H210841   1.611   2.283   4.287
 3634TIP3   OH210842   7.489   1.798   5.522
 3634TIP3    H110843   7.533   1.811   5.437
 3634TIP3    H210844   7.552   1.831   5.586
 3635TIP3   OH210845   0.451   5.033   2.199
 3635TIP3    H110846   0.451   5.042   2.294
 3635TIP3    H210847   0.370   4.985   2.179
 3636TIP3   OH210848   5.335   7.776   5.371
 3636TIP3    H110849   5.279   7.775   5.294
 3636TIP3    H210850   5.389   7.698   5.363
 3637TIP3   OH210851   3.299   7.332   1.844
 3637TIP3    H110852   3.323   7.391   1.772
 3637TIP3    H210853   3.378   7.326   1.898
 3638TIP3   OH210854   0.290   0.954   0.374
 3638TIP3    H110855   0.200   0.926   0.390
 3638TIP3    H210856   0.330   0.881   0.327
 3639TIP3   OH210857   3.187   4.782   1.530
 3639TIP3    H110858   3.136   4.809   1.607
 3639TIP3    H210859   3.245   4.856   1.513
 3640TIP3   OH210860   0.694   2.608   1.829
 3640TIP3    H110861   0.684   2.595   1.923
 3640TIP3    H210862   0.748   2.535   1.800
 3641TIP3   OH210863   1.222   0.702   1.667
 3641TIP3    H110864   1.270   0.744   1.739
 3641TIP3    H210865   1.255   0.613   1.664
 3642TIP3   OH210866   0.846   2.392   1.697
 3642TIP3    H110867   0.869   2.304   1.727
 3642TIP3    H210868   0.917   2.417   1.639
 3643TIP3   OH210869   5.625   6.180   5.436
 3643TIP3    H110870   5.645   6.087   5.424
 3643TIP3    H210871   5.679   6.207   5.510
 3644TIP3   OH210872   5.663   7.446   1.930
 3644TIP3    H110873   5.756   7.458   1.946
 3644TIP3    H210874   5.648   7.485   1.844
 3645TIP3   OH210875   5.148   1.999   4.930
 3645TIP3    H110876   5.229   2.037   4.964
 3645TIP3    H210877   5.164   1.987   4.837
 3646TIP3   OH210878   1.793   3.909   1.439
 3646TIP3    H110879   1.728   3.840   1.428
 3646TIP3    H210880   1.752   3.987   1.402
 3647TIP3   OH210881   0.059   7.646   0.560
 3647TIP3    H110882   0.131   7.709   0.563
 3647TIP3    H210883  -0.020   7.699   0.573
 3648TIP3   OH210884   1.976   6.718   0.255
 3648TIP3    H110885   2.052   6.667   0.283
 3648TIP3    H210886   1.910   6.704   0.323
 3649TIP3   OH210887   6.816   0.777   5.715
 3649TIP3    H110888   6.835   0.871   5.719
 3649TIP3    H210889   6.802   0.751   5.806
 3650TIP3   OH210890   0.590   4.002   1.360
 3650TIP3    H110891   0.554   3.932   1.415
 3650TIP3    H210892   0.514   4.038   1.314
 3651TIP3   OH210893   5.605   3.829   0.825
 3651TIP3    H110894   5.643   3.916   0.841
 3651TIP3    H210895   5.531   3.845   0.767
 3652TIP3   OH210896   3.074   1.229   1.018
 3652TIP3    H110897   3.129   1.298   1.055
 3652TIP3    H210898   3.091   1.152   1.073
 3653TIP3   OH210899   3.668   3.800   0.275
 3653TIP3    H110900   3.678   3.720   0.224
 3653TIP3    H210901   3.592   3.844   0.237
 3654TIP3   OH210902   0.187   5.135   4.279
 3654TIP3    H110903   0.191   5.230   4.279
 3654TIP3    H210904   0.106   5.114   4.232
 3655TIP3   OH210905   4.218   5.438   3.925
 3655TIP3    H110906   4.279   5.485   3.981
 3655TIP3    H210907   4.273   5.398   3.857
 3656TIP3   OH210908   2.549   5.856   0.988
 3656TIP3    H110909   2.498   5.787   1.030
 3656TIP3    H210910   2.623   5.869   1.047
 3657TIP3   OH210911   1.939   5.841   0.242
 3657TIP3    H110912   1.864   5.900   0.234
 3657TIP3    H210913   1.986   5.850   0.159
 3658TIP3   OH210914   1.971   7.329   6.414
 3658TIP3    H110915   1.946   7.289   6.497
 3658TIP3    H210916   2.051   7.379   6.435
 3659TIP3   OH210917   2.380   0.051   1.494
 3659TIP3    H110918   2.398   0.110   1.421
 3659TIP3    H210919   2.363  -0.034   1.452
 3660TIP3   OH210920   5.103   7.518   3.521
 3660TIP3    H110921   5.155   7.442   3.498
 3660TIP3    H210922   5.012   7.490   3.509
 3661TIP3   OH210923   7.503   2.235   3.578
 3661TIP3    H110924   7.527   2.214   3.488
 3661TIP3    H210925   7.444   2.165   3.604
 3662TIP3   OH210926   7.755   4.826   5.814
 3662TIP3    H110927   7.822   4.783   5.761
 3662TIP3    H210928   7.747   4.772   5.893
 3663TIP3   OH210929   6.556   4.454   1.800
 3663TIP3    H110930   6.510   4.405   1.868
 3663TIP3    H210931   6.605   4.521   1.848
 3664TIP3   OH210932   5.265   5.719   3.461
 3664TIP3    H110933   5.275   5.738   3.555
 3664TIP3    H210934   5.170   5.721   3.446
 3665TIP3   OH210935   5.559   1.996   3.793
 3665TIP3    H110936   5.589   2.076   3.751
 3665TIP3    H210937   5.570   2.012   3.887
 3666TIP3   OH210938   6.400   3.283   4.019
 3666TIP3    H110939   6.392   3.227   3.942
 3666TIP3    H210940   6.310   3.308   4.040
 3667TIP3   OH210941   5.894   0.889   1.572
 3667TIP3    H110942   5.878   0.974   1.531
 3667TIP3    H210943   5.812   0.841   1.562
 3668TIP3   OH210944   0.475   0.552   5.899
 3668TIP3    H110945   0.435   0.627   5.856
 3668TIP3    H210946   0.402   0.495   5.923
 3669TIP3   OH210947   6.981   0.618   5.039
 3669TIP3    H110948   6.995   0.537   5.090
 3669TIP3    H210949   7.052   0.618   4.975
 3670TIP3   OH210950   7.590   5.559   1.220
 3670TIP3    H110951   7.646   5.594   1.289
 3670TIP3    H210952   7.577   5.632   1.160
 3671TIP3   OH210953   3.916   0.354   3.576
 3671TIP3    H110954   3.999   0.347   3.529
 3671TIP3    H210955   3.902   0.266   3.612
 3672TIP3   OH210956   7.233   1.332   5.840
 3672TIP3    H110957   7.287   1.256   5.818
 3672TIP3    H210958   7.238   1.339   5.935
 3673TIP3   OH210959   3.775   4.718   0.548
 3673TIP3    H110960   3.732   4.765   0.620
 3673TIP3    H210961   3.787   4.629   0.581
 3674TIP3   OH210962   1.049   4.457   1.297
 3674TIP3    H110963   0.968   4.427   1.339
 3674TIP3    H210964   1.089   4.516   1.361
 3675TIP3   OH210965   3.157   7.399   6.787
 3675TIP3    H110966   3.146   7.394   6.692
 3675TIP3    H210967   3.102   7.474   6.813
 3676TIP3   OH210968   1.967   6.161   3.037
 3676TIP3    H110969   1.980   6.066   3.027
 3676TIP3    H210970   2.056   6.197   3.039
 3677TIP3   OH210971   4.343   6.817   5.792
 3677TIP3    H110972   4.363   6.752   5.858
 3677TIP3    H210973   4.313   6.767   5.716
 3678TIP3   OH210974   1.541   4.878   3.458
 3678TIP3    H110975   1.446   4.883   3.469
 3678TIP3    H210976   1.575   4.939   3.524
 3679TIP3   OH210977   1.979   1.317   4.387
 3679TIP3    H110978   2.043   1.331   4.456
 3679TIP3    H210979   1.937   1.234   4.410
 3680TIP3   OH210980   7.621   1.534   1.177
 3680TIP3    H110981   7.678   1.457   1.177
 3680TIP3    H210982   7.556   1.515   1.244
 3681TIP3   OH210983   6.558   2.615   6.456
 3681TIP3    H110984   6.585   2.581   6.541
 3681TIP3    H210985   6.550   2.709   6.469
 3682TIP3   OH210986   6.271   2.671   5.873
 3682TIP3    H110987   6.330   2.689   5.946
 3682TIP3    H210988   6.311   2.596   5.828
 3683TIP3   OH210989   0.093   1.632   0.649
 3683TIP3    H110990   0.124   1.677   0.570
 3683TIP3    H210991   0.146   1.552   0.653
 3684TIP3   OH210992   6.144   4.338   5.105
 3684TIP3    H110993   6.170   4.311   5.193
 3684TIP3    H210994   6.114   4.257   5.063
 3685TIP3   OH210995   0.571   1.683   0.168
 3685TIP3    H110996   0.540   1.607   0.217
 3685TIP3    H210997   0.581   1.752   0.234
 3686TIP3   OH210998   3.650   3.101   4.181
 3686TIP3    H110999   3.744   3.119   4.178
 3686TIP3    H211000   3.635   3.040   4.109
 3687TIP3   OH211001   1.022   5.463   0.243
 3687TIP3    H111002   0.955   5.531   0.234
 3687TIP3    H211003   1.023   5.419   0.158
 3688TIP3   OH211004   4.006   4.793   0.823
 3688TIP3    H111005   4.026   4.813   0.732
 3688TIP3    H211006   4.083   4.745   0.855
 3689TIP3   OH211007   7.547   1.549   1.686
 3689TIP3    H111008   7.463   1.503   1.680
 3689TIP3    H211009   7.552   1.599   1.605
 3690TIP3   OH211010   0.778   3.588   0.117
 3690TIP3    H111011   0.704   3.647   0.108
 3690TIP3    H211012   0.855   3.645   0.118
 3691TIP3   OH211013   4.933   0.678   0.629
 3691TIP3    H111014   4.844   0.704   0.605
 3691TIP3    H211015   4.983   0.689   0.548
 3692TIP3   OH211016   0.945   6.984   5.878
 3692TIP3    H111017   0.852   6.978   5.855
 3692TIP3    H211018   0.991   6.971   5.795
 3693TIP3   OH211019   6.913   4.606   0.738
 3693TIP3    H111020   6.966   4.550   0.794
 3693TIP3    H211021   6.960   4.689   0.735
 3694TIP3   OH211022   7.575   4.884   1.862
 3694TIP3    H111023   7.600   4.805   1.814
 3694TIP3    H211024   7.612   4.871   1.949
 3695TIP3   OH211025   1.140   6.772   0.799
 3695TIP3    H111026   1.148   6.865   0.780
 3695TIP3    H211027   1.047   6.753   0.786
 3696TIP3   OH211028   0.389   1.672   3.343
 3696TIP3    H111029   0.340   1.683   3.424
 3696TIP3    H211030   0.383   1.758   3.300
 3697TIP3   OH211031   0.642   2.608   3.423
 3697TIP3    H111032   0.690   2.531   3.455
 3697TIP3    H211033   0.707   2.678   3.421
 3698TIP3   OH211034   4.418   3.128   5.225
 3698TIP3    H111035   4.370   3.161   5.301
 3698TIP3    H211036   4.508   3.121   5.255
 3699TIP3   OH211037   1.466   1.499   1.100
 3699TIP3    H111038   1.437   1.589   1.114
 3699TIP3    H211039   1.548   1.507   1.052
 3700TIP3   OH211040   0.111   3.315   6.771
 3700TIP3    H111041   0.186   3.375   6.771
 3700TIP3    H211042   0.038   3.369   6.802
 3701TIP3   OH211043   3.593   4.074   1.668
 3701TIP3    H111044   3.603   4.100   1.576
 3701TIP3    H211045   3.573   3.980   1.664
 3702TIP3   OH211046   1.529   1.511   1.908
 3702TIP3    H111047   1.539   1.492   1.814
 3702TIP3    H211048   1.580   1.590   1.922
 3703TIP3   OH211049   1.409   5.700   3.962
 3703TIP3    H111050   1.428   5.793   3.955
 3703TIP3    H211051   1.445   5.674   4.048
 3704TIP3   OH211052   6.595   7.595   3.525
 3704TIP3    H111053   6.611   7.537   3.450
 3704TIP3    H211054   6.681   7.607   3.565
 3705TIP3   OH211055   1.668   4.823   1.478
 3705TIP3    H111056   1.698   4.859   1.561
 3705TIP3    H211057   1.741   4.835   1.418
 3706TIP3   OH211058   6.444   7.143   2.042
 3706TIP3    H111059   6.361   7.128   2.086
 3706TIP3    H211060   6.508   7.092   2.093
 3707TIP3   OH211061   5.246   5.442   0.921
 3707TIP3    H111062   5.176   5.442   0.856
 3707TIP3    H211063   5.298   5.365   0.899
 3708TIP3   OH211064   4.339   6.629   0.103
 3708TIP3    H111065   4.294   6.709   0.129
 3708TIP3    H211066   4.283   6.558   0.135
 3709TIP3   OH211067   2.468   3.006   0.808
 3709TIP3    H111068   2.555   2.974   0.784
 3709TIP3    H211069   2.425   3.023   0.725
 3710TIP3   OH211070   5.874   6.584   2.549
 3710TIP3    H111071   5.795   6.563   2.498
 3710TIP3    H211072   5.900   6.500   2.588
 3711TIP3   OH211073   0.248   1.310   6.084
 3711TIP3    H111074   0.174   1.293   6.143
 3711TIP3    H211075   0.212   1.370   6.019
 3712TIP3   OH211076   3.501   0.913   0.753
 3712TIP3    H111077   3.564   0.841   0.762
 3712TIP3    H211078   3.437   0.880   0.690
 3713TIP3   OH211079   8.147   0.248   0.341
 3713TIP3    H111080   8.141   0.343   0.328
 3713TIP3    H211081   8.241   0.230   0.345
 3714TIP3   OH211082   3.204   1.964   0.543
 3714TIP3    H111083   3.202   2.059   0.531
 3714TIP3    H211084   3.296   1.940   0.526
 3715TIP3   OH211085   3.426   4.480   2.783
 3715TIP3    H111086   3.476   4.537   2.724
 3715TIP3    H211087   3.439   4.519   2.870
 3716TIP3   OH211088   3.278   4.909   0.362
 3716TIP3    H111089   3.241   4.949   0.441
 3716TIP3    H211090   3.219   4.936   0.292
 3717TIP3   OH211091   7.434   0.664   2.195
 3717TIP3    H111092   7.411   0.608   2.121
 3717TIP3    H211093   7.351   0.678   2.241
 3718TIP3   OH211094   7.339   6.034   3.649
 3718TIP3    H111095   7.371   6.084   3.725
 3718TIP3    H211096   7.393   6.065   3.576
 3719TIP3   OH211097   1.508   1.025   0.188
 3719TIP3    H111098   1.493   0.941   0.231
 3719TIP3    H211099   1.420   1.056   0.167
 3720TIP3   OH211100   1.237   0.340   5.249
 3720TIP3    H111101   1.312   0.375   5.202
 3720TIP3    H211102   1.214   0.261   5.202
 3721TIP3   OH211103   6.390   0.724   5.804
 3721TIP3    H111104   6.391   0.757   5.714
 3721TIP3    H211105   6.366   0.632   5.796
 3722TIP3   OH211106   3.077   5.968   6.368
 3722TIP3    H111107   2.988   5.951   6.397
 3722TIP3    H211108   3.100   5.892   6.314
 3723TIP3   OH211109   6.922   3.628   5.032
 3723TIP3    H111110   6.898   3.696   5.094
 3723TIP3    H211111   6.894   3.546   5.073
 3724TIP3   OH211112   7.954   3.853   3.014
 3724TIP3    H111113   7.859   3.857   3.027
 3724TIP3    H211114   7.990   3.859   3.103
 3725TIP3   OH211115   5.810   1.941   6.610
 3725TIP3    H111116   5.794   1.916   6.520
 3725TIP3    H211117   5.895   1.985   6.608
 3726TIP3   OH211118   1.580   7.244   1.625
 3726TIP3    H111119   1.618   7.224   1.711
 3726TIP3    H211120   1.503   7.187   1.618
 3727TIP3   OH211121   4.527   5.896   3.584
 3727TIP3    H111122   4.487   5.822   3.631
 3727TIP3    H211123   4.547   5.860   3.497
 3728TIP3   OH211124   8.144   5.316   0.622
 3728TIP3    H111125   8.216   5.377   0.607
 3728TIP3    H211126   8.147   5.297   0.716
 3729TIP3   OH211127   0.532   6.612   4.582
 3729TIP3    H111128   0.570   6.524   4.576
 3729TIP3    H211129   0.438   6.597   4.578
 3730TIP3   OH211130   8.264   5.107   6.805
 3730TIP3    H111131   8.303   5.047   6.868
 3730TIP3    H211132   8.232   5.180   6.858
 3731TIP3   OH211133   7.713   4.758   0.677
 3731TIP3    H111134   7.785   4.796   0.627
 3731TIP3    H211135   7.644   4.824   0.675
 3732TIP3   OH211136   1.827   7.103   1.479
 3732TIP3    H111137   1.896   7.145   1.427
 3732TIP3    H211138   1.750   7.103   1.421
 3733TIP3   OH211139   7.929   0.401   4.134
 3733TIP3    H111140   8.025   0.405   4.137
 3733TIP3    H211141   7.905   0.342   4.206
 3734TIP3   OH211142   6.166   4.772   2.267
 3734TIP3    H111143   6.181   4.696   2.211
 3734TIP3    H211144   6.239   4.830   2.248
 3735TIP3   OH211145   5.934   3.117   0.728
 3735TIP3    H111146   5.841   3.118   0.752
 3735TIP3    H211147   5.946   3.195   0.674
 3736TIP3   OH211148   6.094   7.293   3.054
 3736TIP3    H111149   6.116   7.238   3.129
 3736TIP3    H211150   6.014   7.255   3.018
 3737TIP3   OH211151   5.346   2.613   2.962
 3737TIP3    H111152   5.379   2.573   3.042
 3737TIP3    H211153   5.305   2.541   2.914
 3738TIP3   OH211154   4.859   1.016   4.279
 3738TIP3    H111155   4.942   0.969   4.274
 3738TIP3    H211156   4.816   0.980   4.357
 3739TIP3   OH211157   0.874   0.107   5.073
 3739TIP3    H111158   0.929   0.185   5.087
 3739TIP3    H211159   0.788   0.133   5.107
 3740TIP3   OH211160   7.043   0.116   4.480
 3740TIP3    H111161   7.126   0.091   4.521
 3740TIP3    H211162   7.046   0.074   4.394
 3741TIP3   OH211163   7.224   4.465   6.622
 3741TIP3    H111164   7.317   4.443   6.629
 3741TIP3    H211165   7.187   4.446   6.708
 3742TIP3   OH211166   7.558   5.387   5.052
 3742TIP3    H111167   7.502   5.420   5.123
 3742TIP3    H211168   7.642   5.370   5.093
 3743TIP3   OH211169   5.461   1.797   5.367
 3743TIP3    H111170   5.489   1.882   5.332
 3743TIP3    H211171   5.373   1.812   5.402
 3744TIP3   OH211172   7.202   7.504   3.365
 3744TIP3    H111173   7.207   7.597   3.342
 3744TIP3    H211174   7.223   7.458   3.284
 3745TIP3   OH211175   7.622   5.227   4.609
 3745TIP3    H111176   7.533   5.261   4.622
 3745TIP3    H211177   7.609   5.132   4.600
 3746TIP3   OH211178   1.444   0.511   0.580
 3746TIP3    H111179   1.351   0.499   0.565
 3746TIP3    H211180   1.454   0.606   0.588
 3747TIP3   OH211181   2.171   1.267   5.445
 3747TIP3    H111182   2.190   1.337   5.508
 3747TIP3    H211183   2.181   1.309   5.360
 3748TIP3   OH211184   6.434   7.179   2.751
 3748TIP3    H111185   6.441   7.219   2.664
 3748TIP3    H211186   6.519   7.138   2.765
 3749TIP3   OH211187   0.474   3.116   1.290
 3749TIP3    H111188   0.440   3.034   1.254
 3749TIP3    H211189   0.413   3.139   1.360
 3750TIP3   OH211190   2.490   6.911   0.239
 3750TIP3    H111191   2.421   6.880   0.181
 3750TIP3    H211192   2.510   6.999   0.208
 3751TIP3   OH211193   4.314   1.078   5.389
 3751TIP3    H111194   4.221   1.067   5.405
 3751TIP3    H211195   4.319   1.142   5.318
 3752TIP3   OH211196   3.941   0.138   6.407
 3752TIP3    H111197   3.950   0.190   6.487
 3752TIP3    H211198   3.921   0.202   6.339
 3753TIP3   OH211199   7.397   3.616   6.137
 3753TIP3    H111200   7.453   3.551   6.179
 3753TIP3    H211201   7.416   3.607   6.044
 3754TIP3   OH211202   4.988   6.019   1.429
 3754TIP3    H111203   4.973   5.967   1.508
 3754TIP3    H211204   5.066   6.071   1.448
 3755TIP3   OH211205   2.285   4.853   1.375
 3755TIP3    H111206   2.242   4.775   1.409
 3755TIP3    H211207   2.236   4.926   1.414
 3756TIP3   OH211208   2.904   2.774   0.953
 3756TIP3    H111209   2.990   2.799   0.989
 3756TIP3    H211210   2.894   2.683   0.977
 3757TIP3   OH211211   1.014   5.797   1.543
 3757TIP3    H111212   1.053   5.880   1.516
 3757TIP3    H211213   1.041   5.735   1.476
 3758TIP3   OH211214   7.752   1.942   0.391
 3758TIP3    H111215   7.693   1.887   0.338
 3758TIP3    H211216   7.787   2.005   0.328
 3759TIP3   OH211217   3.897   7.569   1.747
 3759TIP3    H111218   3.987   7.598   1.759
 3759TIP3    H211219   3.861   7.629   1.681
 3760TIP3   OH211220   0.168   2.505   1.006
 3760TIP3    H111221   0.161   2.411   1.020
 3760TIP3    H211222   0.223   2.536   1.078
 3761TIP3   OH211223   4.550   3.670   1.193
 3761TIP3    H111224   4.592   3.598   1.145
 3761TIP3    H211225   4.573   3.749   1.143
 3762TIP3   OH211226   0.938   1.928   0.609
 3762TIP3    H111227   0.919   1.903   0.519
 3762TIP3    H211228   0.853   1.939   0.650
 3763TIP3   OH211229   1.119   2.800   0.451
 3763TIP3    H111230   1.197   2.747   0.438
 3763TIP3    H211231   1.116   2.858   0.375
 3764TIP3   OH211232   6.861   7.006   3.203
 3764TIP3    H111233   6.868   7.056   3.284
 3764TIP3    H211234   6.903   6.923   3.222
 3765TIP3   OH211235   4.955   6.604   5.735
 3765TIP3    H111236   4.878   6.549   5.751
 3765TIP3    H211237   5.029   6.549   5.760
 3766TIP3   OH211238   7.221   0.022   0.136
 3766TIP3    H111239   7.191   0.012   0.045
 3766TIP3    H211240   7.219   0.116   0.151
 3767TIP3   OH211241   4.505   6.624   1.613
 3767TIP3    H111242   4.478   6.668   1.532
 3767TIP3    H211243   4.490   6.531   1.597
 3768TIP3   OH211244   5.650   1.126   2.925
 3768TIP3    H111245   5.611   1.199   2.876
 3768TIP3    H211246   5.608   1.131   3.011
 3769TIP3   OH211247   0.758   2.974   6.845
 3769TIP3    H111248   0.696   2.949   6.776
 3769TIP3    H211249   0.703   3.009   6.915
 3770TIP3   OH211250   7.406   7.850   5.041
 3770TIP3    H111251   7.424   7.944   5.038
 3770TIP3    H211252   7.394   7.831   5.134
 3771TIP3   OH211253   1.634   5.639   0.917
 3771TIP3    H111254   1.658   5.575   0.851
 3771TIP3    H211255   1.587   5.588   0.984
 3772TIP3   OH211256   5.027   0.337   1.416
 3772TIP3    H111257   5.014   0.312   1.325
 3772TIP3    H211258   5.111   0.296   1.440
 3773TIP3   OH211259   0.977   0.040   4.487
 3773TIP3    H111260   0.960   0.111   4.548
 3773TIP3    H211261   1.016  -0.029   4.540
 3774TIP3   OH211262   8.327   6.096   2.308
 3774TIP3    H111263   8.250   6.044   2.286
 3774TIP3    H211264   8.292   6.173   2.352
 3775TIP3   OH211265   3.451   5.471   3.450
 3775TIP3    H111266   3.401   5.482   3.531
 3775TIP3    H211267   3.420   5.388   3.415
 3776TIP3   OH211268   2.513   0.820   3.728
 3776TIP3    H111269   2.420   0.805   3.741
 3776TIP3    H211270   2.556   0.750   3.779
 3777TIP3   OH211271   0.832   2.959   0.344
 3777TIP3    H111272   0.919   2.935   0.311
 3777TIP3    H211273   0.785   2.876   0.350
 3778TIP3   OH211274   1.076   7.271   4.761
 3778TIP3    H111275   1.044   7.333   4.696
 3778TIP3    H211276   1.146   7.224   4.716
 3779TIP3   OH211277   0.189   4.536   5.409
 3779TIP3    H111278   0.261   4.480   5.381
 3779TIP3    H211279   0.208   4.556   5.501
 3780TIP3   OH211280   3.362   6.768   4.563
 3780TIP3    H111281   3.405   6.749   4.480
 3780TIP3    H211282   3.358   6.683   4.608
 3781TIP3   OH211283   5.092   0.911   4.489
 3781TIP3    H111284   5.176   0.865   4.498
 3781TIP3    H211285   5.032   0.862   4.545
 3782TIP3   OH211286   0.995   3.743   0.767
 3782TIP3    H111287   0.979   3.824   0.815
 3782TIP3    H211288   1.084   3.753   0.733
 3783TIP3   OH211289   5.441   3.374   6.411
 3783TIP3    H111290   5.490   3.323   6.347
 3783TIP3    H211291   5.460   3.465   6.388
 3784TIP3   OH211292   1.686   3.719   6.595
 3784TIP3    H111293   1.764   3.698   6.645
 3784TIP3    H211294   1.656   3.635   6.560
 3785TIP3   OH211295   5.015   5.937   2.719
 3785TIP3    H111296   4.934   5.988   2.719
 3785TIP3    H211297   4.997   5.863   2.661
 3786TIP3   OH211298   1.002   4.539   3.288
 3786TIP3    H111299   0.980   4.453   3.323
 3786TIP3    H211300   0.923   4.566   3.241
 3787TIP3   OH211301   8.226   4.094   4.369
 3787TIP3    H111302   8.172   4.029   4.415
 3787TIP3    H211303   8.178   4.110   4.287
 3788TIP3   OH211304   2.943   7.129   3.846
 3788TIP3    H111305   2.882   7.103   3.777
 3788TIP3    H211306   2.979   7.046   3.878
 3789TIP3   OH211307   6.952   6.881   6.438
 3789TIP3    H111308   7.037   6.838   6.451
 3789TIP3    H211309   6.962   6.967   6.478
 3790TIP3   OH211310   6.357   6.378   0.840
 3790TIP3    H111311   6.287   6.433   0.803
 3790TIP3    H211312   6.335   6.372   0.933
 3791TIP3   OH211313   2.968   2.906   4.754
 3791TIP3    H111314   2.938   2.862   4.674
 3791TIP3    H211315   3.064   2.908   4.745
 3792TIP3   OH211316   4.442   5.431   5.613
 3792TIP3    H111317   4.436   5.443   5.708
 3792TIP3    H211318   4.434   5.337   5.601
 3793TIP3   OH211319   8.101   6.516   1.705
 3793TIP3    H111320   8.175   6.552   1.753
 3793TIP3    H211321   8.053   6.464   1.770
 3794TIP3   OH211322   4.469   4.432  -0.008
 3794TIP3    H111323   4.486   4.524  -0.026
 3794TIP3    H211324   4.387   4.432   0.042
 3795TIP3   OH211325   0.613   6.563   3.670
 3795TIP3    H111326   0.576   6.490   3.620
 3795TIP3    H211327   0.694   6.584   3.624
 3796TIP3   OH211328   4.627   7.811   1.242
 3796TIP3    H111329   4.688   7.763   1.186
 3796TIP3    H211330   4.548   7.757   1.243
 3797TIP3   OH211331   4.117   4.821   5.191
 3797TIP3    H111332   4.088   4.903   5.232
 3797TIP3    H211333   4.039   4.766   5.190
 3798TIP3   OH211334   7.678   1.066   0.792
 3798TIP3    H111335   7.626   1.128   0.741
 3798TIP3    H211336   7.639   1.069   0.880
 3799TIP3   OH211337   3.790   7.780   5.308
 3799TIP3    H111338   3.854   7.725   5.263
 3799TIP3    H211339   3.833   7.864   5.319
 3800TIP3   OH211340   1.735   5.891   0.952
 3800TIP3    H111341   1.750   5.925   0.864
 3800TIP3    H211342   1.680   5.814   0.939
 3801TIP3   OH211343   5.383   3.757   2.432
 3801TIP3    H111344   5.433   3.695   2.379
 3801TIP3    H211345   5.327   3.701   2.487
 3802TIP3   OH211346   3.630   0.327   1.090
 3802TIP3    H111347   3.562   0.354   1.153
 3802TIP3    H211348   3.712   0.337   1.138
 3803TIP3   OH211349   6.407   1.983   6.017
 3803TIP3    H111350   6.444   1.910   6.067
 3803TIP3    H211351   6.457   2.059   6.046
 3804TIP3   OH211352   6.160   2.802   1.431
 3804TIP3    H111353   6.225   2.835   1.369
 3804TIP3    H211354   6.197   2.720   1.464
 3805TIP3   OH211355   2.016   5.105   0.290
 3805TIP3    H111356   2.091   5.077   0.237
 3805TIP3    H211357   2.020   5.200   0.289
 3806TIP3   OH211358   4.986   3.626   3.876
 3806TIP3    H111359   4.948   3.713   3.861
 3806TIP3    H211360   4.927   3.585   3.939
 3807TIP3   OH211361   1.167   1.178   4.007
 3807TIP3    H111362   1.082   1.222   4.004
 3807TIP3    H211363   1.146   1.089   4.037
 3808TIP3   OH211364   4.229   1.863   6.787
 3808TIP3    H111365   4.247   1.913   6.707
 3808TIP3    H211366   4.285   1.785   6.779
 3809TIP3   OH211367   0.989   5.131   2.771
 3809TIP3    H111368   0.940   5.084   2.839
 3809TIP3    H211369   0.929   5.135   2.696
 3810TIP3   OH211370   3.802   5.514   6.878
 3810TIP3    H111371   3.826   5.425   6.853
 3810TIP3    H211372   3.834   5.569   6.806
 3811TIP3   OH211373   6.598   7.736   1.437
 3811TIP3    H111374   6.517   7.721   1.390
 3811TIP3    H211375   6.664   7.746   1.369
 3812TIP3   OH211376   2.649   5.575   2.334
 3812TIP3    H111377   2.631   5.536   2.249
 3812TIP3    H211378   2.569   5.561   2.385
 3813TIP3   OH211379   4.975   4.302   6.064
 3813TIP3    H111380   5.069   4.301   6.048
 3813TIP3    H211381   4.966   4.273   6.155
 3814TIP3   OH211382   5.534   2.595   5.796
 3814TIP3    H111383   5.516   2.577   5.704
 3814TIP3    H211384   5.588   2.521   5.825
 3815TIP3   OH211385   3.583   0.850   1.529
 3815TIP3    H111386   3.590   0.905   1.608
 3815TIP3    H211387   3.672   0.821   1.512
 3816TIP3   OH211388   1.584   2.957   2.981
 3816TIP3    H111389   1.509   2.929   3.034
 3816TIP3    H211390   1.606   3.044   3.015
 3817TIP3   OH211391   2.338   5.773   0.827
 3817TIP3    H111392   2.321   5.679   0.818
 3817TIP3    H211393   2.293   5.812   0.751
 3818TIP3   OH211394   2.300   7.796   2.529
 3818TIP3    H111395   2.237   7.854   2.572
 3818TIP3    H211396   2.301   7.717   2.583
 3819TIP3   OH211397   0.282   5.597   1.642
 3819TIP3    H111398   0.342   5.523   1.631
 3819TIP3    H211399   0.209   5.560   1.692
 3820TIP3   OH211400   0.554   5.735   0.031
 3820TIP3    H111401   0.626   5.739  -0.032
 3820TIP3    H211402   0.544   5.826   0.061
 3821TIP3   OH211403   4.770   4.234   6.702
 3821TIP3    H111404   4.841   4.235   6.766
 3821TIP3    H211405   4.698   4.281   6.745
 3822TIP3   OH211406   4.345   7.091   0.290
 3822TIP3    H111407   4.256   7.125   0.298
 3822TIP3    H211408   4.348   7.019   0.353
 3823TIP3   OH211409   3.668   0.050   4.840
 3823TIP3    H111410   3.670  -0.045   4.830
 3823TIP3    H211411   3.760   0.075   4.851
 3824TIP3   OH211412   7.411   4.875   3.313
 3824TIP3    H111413   7.506   4.886   3.307
 3824TIP3    H211414   7.388   4.909   3.400
 3825TIP3   OH211415   2.167   0.363   3.053
 3825TIP3    H111416   2.159   0.419   2.976
 3825TIP3    H211417   2.087   0.311   3.054
 3826TIP3   OH211418   8.268   6.025   0.699
 3826TIP3    H111419   8.224   5.960   0.755
 3826TIP3    H211420   8.197   6.083   0.670
 3827TIP3   OH211421   5.551   0.175   2.916
 3827TIP3    H111422   5.618   0.150   2.852
 3827TIP3    H211423   5.468   0.153   2.874
 3828TIP3   OH211424   5.387   6.836   0.603
 3828TIP3    H111425   5.474   6.819   0.566
 3828TIP3    H211426   5.382   6.779   0.680
 3829TIP3   OH211427   1.747   4.595   4.013
 3829TIP3    H111428   1.773   4.661   4.077
 3829TIP3    H211429   1.816   4.528   4.018
 3830TIP3   OH211430   1.390   2.737   2.260
 3830TIP3    H111431   1.371   2.678   2.333
 3830TIP3    H211432   1.466   2.788   2.290
 3831TIP3   OH211433   2.328   1.744   3.871
 3831TIP3    H111434   2.234   1.730   3.884
 3831TIP3    H211435   2.364   1.655   3.864
 3832TIP3   OH211436   3.663   4.403   5.270
 3832TIP3    H111437   3.679   4.465   5.199
 3832TIP3    H211438   3.750   4.371   5.294
 3833TIP3   OH211439   6.946   0.125   5.041
 3833TIP3    H111440   6.921   0.037   5.011
 3833TIP3    H211441   7.036   0.114   5.073
 3834TIP3   OH211442   4.846   2.666   1.717
 3834TIP3    H111443   4.885   2.617   1.789
 3834TIP3    H211444   4.855   2.758   1.742
 3835TIP3   OH211445   3.781   7.514   5.919
 3835TIP3    H111446   3.872   7.496   5.896
 3835TIP3    H211447   3.786   7.555   6.005
 3836TIP3   OH211448   1.328   2.336   3.735
 3836TIP3    H111449   1.234   2.331   3.747
 3836TIP3    H211450   1.340   2.390   3.656
 3837TIP3   OH211451   4.105   3.433   4.403
 3837TIP3    H111452   4.027   3.453   4.455
 3837TIP3    H211453   4.118   3.339   4.415
 3838TIP3   OH211454   1.853   4.893   2.855
 3838TIP3    H111455   1.907   4.821   2.823
 3838TIP3    H211456   1.764   4.870   2.827
 3839TIP3   OH211457   6.612   1.815   1.874
 3839TIP3    H111458   6.597   1.728   1.909
 3839TIP3    H211459   6.543   1.829   1.810
 3840TIP3   OH211460   3.816   3.262   1.011
 3840TIP3    H111461   3.857   3.243   0.927
 3840TIP3    H211462   3.733   3.305   0.989
 3841TIP3   OH211463   1.333   0.700   0.820
 3841TIP3    H111464   1.340   0.795   0.830
 3841TIP3    H211465   1.315   0.667   0.908
 3842TIP3   OH211466   3.822   7.452   3.346
 3842TIP3    H111467   3.734   7.455   3.385
 3842TIP3    H211468   3.876   7.504   3.405
 3843TIP3   OH211469   1.730   0.447   5.116
 3843TIP3    H111470   1.737   0.469   5.023
 3843TIP3    H211471   1.775   0.518   5.161
 3844TIP3   OH211472   0.409   1.845   6.795
 3844TIP3    H111473   0.393   1.800   6.712
 3844TIP3    H211474   0.413   1.775   6.860
 3845TIP3   OH211475   8.191   3.598   6.221
 3845TIP3    H111476   8.264   3.559   6.174
 3845TIP3    H211477   8.148   3.525   6.265
 3846TIP3   OH211478   5.581   7.219   4.410
 3846TIP3    H111479   5.627   7.280   4.467
 3846TIP3    H211480   5.555   7.271   4.334
 3847TIP3   OH211481   3.272   0.770   0.534
 3847TIP3    H111482   3.337   0.819   0.483
 3847TIP3    H211483   3.237   0.706   0.472
 3848TIP3   OH211484   1.153   6.894   0.503
 3848TIP3    H111485   1.198   6.829   0.449
 3848TIP3    H211486   1.066   6.855   0.519
 3849TIP3   OH211487   1.462   6.797   3.515
 3849TIP3    H111488   1.536   6.818   3.572
 3849TIP3    H211489   1.408   6.876   3.517
 3850TIP3   OH211490   2.006   1.231   0.492
 3850TIP3    H111491   2.053   1.307   0.526
 3850TIP3    H211492   1.921   1.266   0.464
 3851TIP3   OH211493   7.192   4.867   2.601
 3851TIP3    H111494   7.285   4.887   2.614
 3851TIP3    H211495   7.146   4.934   2.651
 3852TIP3   OH211496   3.430   0.881   2.816
 3852TIP3    H111497   3.368   0.809   2.811
 3852TIP3    H211498   3.396   0.938   2.885
 3853TIP3   OH211499   1.426   2.375   3.116
 3853TIP3    H111500   1.371   2.433   3.063
 3853TIP3    H211501   1.438   2.423   3.199
 3854TIP3   OH211502   2.595   3.107   5.686
 3854TIP3    H111503   2.604   3.192   5.728
 3854TIP3    H211504   2.541   3.056   5.747
 3855TIP3   OH211505   4.070   4.565   4.711
 3855TIP3    H111506   4.037   4.477   4.690
 3855TIP3    H211507   4.160   4.564   4.678
 3856TIP3   OH211508   5.951   6.404   4.678
 3856TIP3    H111509   5.869   6.372   4.641
 3856TIP3    H211510   5.947   6.499   4.667
 3857TIP3   OH211511   5.581   7.114   2.815
 3857TIP3    H111512   5.568   7.200   2.777
 3857TIP3    H211513   5.511   7.106   2.880
 3858TIP3   OH211514   3.910   5.901   3.508
 3858TIP3    H111515   3.930   5.807   3.507
 3858TIP3    H211516   3.898   5.922   3.601
 3859TIP3   OH211517   7.960   7.159   4.990
 3859TIP3    H111518   7.907   7.150   5.069
 3859TIP3    H211519   7.910   7.218   4.934
 3860TIP3   OH211520   5.150   0.834   3.205
 3860TIP3    H111521   5.213   0.834   3.277
 3860TIP3    H211522   5.202   0.855   3.127
 3861TIP3   OH211523   7.504   3.910   3.440
 3861TIP3    H111524   7.532   3.862   3.362
 3861TIP3    H211525   7.471   3.993   3.406
 3862TIP3   OH211526   0.266   3.674   1.106
 3862TIP3    H111527   0.340   3.724   1.073
 3862TIP3    H211528   0.294   3.583   1.099
 3863TIP3   OH211529   6.344   5.808   1.232
 3863TIP3    H111530   6.302   5.821   1.317
 3863TIP3    H211531   6.293   5.862   1.171
 3864TIP3   OH211532   2.021   6.087   3.911
 3864TIP3    H111533   2.021   6.088   3.816
 3864TIP3    H211534   1.930   6.065   3.935
 3865TIP3   OH211535   1.048   5.942   6.686
 3865TIP3    H111536   1.045   5.961   6.592
 3865TIP3    H211537   1.126   5.887   6.697
 3866TIP3   OH211538   4.202   3.250   2.933
 3866TIP3    H111539   4.172   3.244   2.843
 3866TIP3    H211540   4.151   3.184   2.981
 3867TIP3   OH211541   4.806   5.539   5.573
 3867TIP3    H111542   4.747   5.470   5.603
 3867TIP3    H211543   4.786   5.549   5.480
 3868TIP3   OH211544   7.839   2.962   5.848
 3868TIP3    H111545   7.817   3.053   5.866
 3868TIP3    H211546   7.767   2.930   5.793
 3869TIP3   OH211547   5.469   7.295   1.755
 3869TIP3    H111548   5.512   7.365   1.707
 3869TIP3    H211549   5.381   7.289   1.718
 3870TIP3   OH211550   6.404   0.516   3.232
 3870TIP3    H111551   6.388   0.576   3.305
 3870TIP3    H211552   6.492   0.482   3.247
 3871TIP3   OH211553   4.919   2.888   4.076
 3871TIP3    H111554   4.949   2.798   4.062
 3871TIP3    H211555   4.977   2.922   4.144
 3872TIP3   OH211556   3.411   0.129   4.069
 3872TIP3    H111557   3.490   0.075   4.076
 3872TIP3    H211558   3.431   0.206   4.123
 3873TIP3   OH211559   2.994   0.769   0.840
 3873TIP3    H111560   2.942   0.718   0.902
 3873TIP3    H211561   3.020   0.847   0.889
 3874TIP3   OH211562   5.438   5.255   1.318
 3874TIP3    H111563   5.467   5.272   1.408
 3874TIP3    H211564   5.504   5.195   1.283
 3875TIP3   OH211565   2.700   2.327   1.938
 3875TIP3    H111566   2.648   2.407   1.950
 3875TIP3    H211567   2.636   2.256   1.946
 3876TIP3   OH211568   5.557   6.914   4.671
 3876TIP3    H111569   5.541   6.858   4.747
 3876TIP3    H211570   5.472   6.924   4.630
 3877TIP3   OH211571   3.127   4.005   0.361
 3877TIP3    H111572   3.210   3.991   0.406
 3877TIP3    H211573   3.094   3.917   0.344
 3878TIP3   OH211574   7.303   6.202   5.893
 3878TIP3    H111575   7.215   6.206   5.855
 3878TIP3    H211576   7.341   6.122   5.858
 3879TIP3   OH211577   8.320   7.929   0.826
 3879TIP3    H111578   8.385   7.874   0.868
 3879TIP3    H211579   8.241   7.874   0.822
 3880TIP3   OH211580   2.524   0.656   6.328
 3880TIP3    H111581   2.610   0.634   6.291
 3880TIP3    H211582   2.485   0.715   6.264
 3881TIP3   OH211583   4.563   6.770   3.218
 3881TIP3    H111584   4.614   6.712   3.274
 3881TIP3    H211585   4.502   6.814   3.277
 3882TIP3   OH211586   5.978   1.729   3.102
 3882TIP3    H111587   5.980   1.766   3.014
 3882TIP3    H211588   5.918   1.786   3.151
 3883TIP3   OH211589   3.084   6.253   4.117
 3883TIP3    H111590   3.138   6.193   4.168
 3883TIP3    H211591   3.129   6.261   4.033
 3884TIP3   OH211592   0.298   3.045   3.233
 3884TIP3    H111593   0.299   3.020   3.326
 3884TIP3    H211594   0.390   3.046   3.208
 3885TIP3   OH211595   5.051   5.188   6.264
 3885TIP3    H111596   5.109   5.197   6.189
 3885TIP3    H211597   5.031   5.278   6.290
 3886TIP3   OH211598   2.401   4.337   6.019
 3886TIP3    H111599   2.415   4.431   6.008
 3886TIP3    H211600   2.483   4.304   6.056
 3887TIP3   OH211601   7.081   4.003   2.225
 3887TIP3    H111602   7.010   3.977   2.167
 3887TIP3    H211603   7.084   3.935   2.292
 3888TIP3   OH211604   8.169   0.778   4.619
 3888TIP3    H111605   8.100   0.751   4.679
 3888TIP3    H211606   8.171   0.710   4.551
 3889TIP3   OH211607   6.180   4.734   0.179
 3889TIP3    H111608   6.215   4.821   0.200
 3889TIP3    H211609   6.181   4.730   0.084
 3890TIP3   OH211610   4.502   5.303   1.856
 3890TIP3    H111611   4.413   5.337   1.841
 3890TIP3    H211612   4.536   5.287   1.768
 3891TIP3   OH211613   5.751   6.987   5.065
 3891TIP3    H111614   5.805   7.064   5.050
 3891TIP3    H211615   5.802   6.933   5.126
 3892TIP3   OH211616   2.410   0.418   6.404
 3892TIP3    H111617   2.452   0.504   6.405
 3892TIP3    H211618   2.328   0.431   6.451
 3893TIP3   OH211619   1.344   3.781   2.169
 3893TIP3    H111620   1.396   3.841   2.223
 3893TIP3    H211621   1.283   3.837   2.122
 3894TIP3   OH211622   7.112   4.674   6.461
 3894TIP3    H111623   7.069   4.628   6.389
 3894TIP3    H211624   7.137   4.604   6.522
 3895TIP3   OH211625   4.458   1.081   3.073
 3895TIP3    H111626   4.377   1.030   3.083
 3895TIP3    H211627   4.446   1.130   2.992
 3896TIP3   OH211628   4.886   6.773   2.945
 3896TIP3    H111629   4.889   6.868   2.931
 3896TIP3    H211630   4.866   6.737   2.859
 3897TIP3   OH211631   7.278   0.591   3.066
 3897TIP3    H111632   7.358   0.607   3.016
 3897TIP3    H211633   7.301   0.521   3.127
 3898TIP3   OH211634   5.522   1.550   5.487
 3898TIP3    H111635   5.484   1.626   5.443
 3898TIP3    H211636   5.595   1.586   5.538
 3899TIP3   OH211637   0.056   2.119   1.339
 3899TIP3    H111638  -0.003   2.061   1.387
 3899TIP3    H211639   0.127   2.137   1.402
 3900TIP3   OH211640   2.141   0.243   5.771
 3900TIP3    H111641   2.104   0.161   5.805
 3900TIP3    H211642   2.112   0.245   5.679
 3901TIP3   OH211643   4.320   6.353   1.057
 3901TIP3    H111644   4.324   6.266   1.017
 3901TIP3    H211645   4.387   6.351   1.125
 3902TIP3   OH211646  -0.024   2.440   4.442
 3902TIP3    H111647   0.018   2.501   4.503
 3902TIP3    H211648   0.046   2.414   4.383
 3903TIP3   OH211649   4.209   6.625   2.657
 3903TIP3    H111650   4.243   6.712   2.675
 3903TIP3    H211651   4.152   6.636   2.580
 3904TIP3   OH211652   2.717   5.302   5.527
 3904TIP3    H111653   2.791   5.339   5.479
 3904TIP3    H211654   2.737   5.319   5.619
 3905TIP3   OH211655   6.795   0.903   2.407
 3905TIP3    H111656   6.827   0.814   2.423
 3905TIP3    H211657   6.731   0.918   2.477
 3906TIP3   OH211658   5.728   4.081   3.661
 3906TIP3    H111659   5.730   3.992   3.626
 3906TIP3    H211660   5.745   4.138   3.586
 3907TIP3   OH211661   2.810   6.629   0.132
 3907TIP3    H111662   2.887   6.576   0.114
 3907TIP3    H211663   2.844   6.710   0.170
 3908TIP3   OH211664   1.745   3.008   0.659
 3908TIP3    H111665   1.804   2.945   0.618
 3908TIP3    H211666   1.715   3.063   0.587
 3909TIP3   OH211667   3.166   3.609   5.467
 3909TIP3    H111668   3.258   3.613   5.441
 3909TIP3    H211669   3.168   3.580   5.558
 3910TIP3   OH211670   3.364   0.526   6.796
 3910TIP3    H111671   3.416   0.574   6.732
 3910TIP3    H211672   3.428   0.480   6.850
 3911TIP3   OH211673   1.200   1.193   3.717
 3911TIP3    H111674   1.142   1.250   3.666
 3911TIP3    H211675   1.169   1.202   3.807
 3912TIP3   OH211676   7.170   7.279   0.041
 3912TIP3    H111677   7.193   7.259   0.132
 3912TIP3    H211678   7.198   7.370   0.028
 3913TIP3   OH211679   5.531   1.331   4.383
 3913TIP3    H111680   5.439   1.355   4.389
 3913TIP3    H211681   5.553   1.341   4.290
 3914TIP3   OH211682   8.330   6.479   4.124
 3914TIP3    H111683   8.307   6.424   4.199
 3914TIP3    H211684   8.384   6.423   4.069
 3915TIP3   OH211685   6.461   2.747   2.450
 3915TIP3    H111686   6.372   2.762   2.482
 3915TIP3    H211687   6.507   2.706   2.523
 3916TIP3   OH211688   2.815   0.423   1.494
 3916TIP3    H111689   2.845   0.397   1.581
 3916TIP3    H211690   2.736   0.474   1.510
 3917TIP3   OH211691   2.531   1.584   3.219
 3917TIP3    H111692   2.461   1.626   3.269
 3917TIP3    H211693   2.498   1.582   3.129
 3918TIP3   OH211694   7.754   3.982   1.378
 3918TIP3    H111695   7.709   4.001   1.461
 3918TIP3    H211696   7.845   4.003   1.395
 3919TIP3   OH211697   4.163   5.655   0.072
 3919TIP3    H111698   4.115   5.615   0.145
 3919TIP3    H211699   4.135   5.605  -0.005
 3920TIP3   OH211700   4.275   7.079   5.758
 3920TIP3    H111701   4.271   7.099   5.664
 3920TIP3    H211702   4.307   6.988   5.761
 3921TIP3   OH211703   3.269   1.710   5.231
 3921TIP3    H111704   3.245   1.675   5.317
 3921TIP3    H211705   3.191   1.759   5.203
 3922TIP3   OH211706   6.655   1.958   0.531
 3922TIP3    H111707   6.627   2.044   0.563
 3922TIP3    H211708   6.612   1.949   0.446
 3923TIP3   OH211709   3.396   3.513   0.163
 3923TIP3    H111710   3.475   3.475   0.199
 3923TIP3    H211711   3.334   3.514   0.236
 3924TIP3   OH211712   4.594   3.313   4.405
 3924TIP3    H111713   4.581   3.219   4.413
 3924TIP3    H211714   4.514   3.345   4.362
 3925TIP3   OH211715   3.538   7.794   2.191
 3925TIP3    H111716   3.493   7.790   2.107
 3925TIP3    H211717   3.537   7.704   2.224
 3926TIP3   OH211718   2.371   6.504   5.061
 3926TIP3    H111719   2.291   6.523   5.109
 3926TIP3    H211720   2.379   6.576   4.999
 3927TIP3   OH211721   8.336   3.679   2.081
 3927TIP3    H111722   8.289   3.628   2.015
 3927TIP3    H211723   8.290   3.661   2.163
 3928TIP3   OH211724   6.994   0.059   3.691
 3928TIP3    H111725   6.948   0.037   3.610
 3928TIP3    H211726   7.087   0.062   3.666
 3929TIP3   OH211727   8.011   3.891   5.910
 3929TIP3    H111728   7.947   3.828   5.942
 3929TIP3    H211729   7.972   3.976   5.927
 3930TIP3   OH211730   6.057   0.167   4.279
 3930TIP3    H111731   6.084   0.199   4.365
 3930TIP3    H211732   5.962   0.155   4.287
 3931TIP3   OH211733   1.264   2.094   0.790
 3931TIP3    H111734   1.171   2.105   0.808
 3931TIP3    H211735   1.282   2.157   0.720
 3932TIP3   OH211736   0.612   5.681   4.669
 3932TIP3    H111737   0.588   5.771   4.647
 3932TIP3    H211738   0.689   5.663   4.615
 3933TIP3   OH211739   4.055   2.918   1.256
 3933TIP3    H111740   3.982   2.956   1.305
 3933TIP3    H211741   4.082   2.988   1.196
 3934TIP3   OH211742   4.912   4.860   4.878
 3934TIP3    H111743   4.846   4.817   4.823
 3934TIP3    H211744   4.900   4.821   4.965
 3935TIP3   OH211745   2.693   3.338   0.287
 3935TIP3    H111746   2.721   3.246   0.290
 3935TIP3    H211747   2.607   3.335   0.245
 3936TIP3   OH211748   1.131   7.024   2.909
 3936TIP3    H111749   1.160   6.962   2.842
 3936TIP3    H211750   1.045   7.054   2.877
 3937TIP3   OH211751   2.246   3.796   5.892
 3937TIP3    H111752   2.203   3.734   5.950
 3937TIP3    H211753   2.222   3.882   5.926
 3938TIP3   OH211754   0.674   2.446   3.927
 3938TIP3    H111755   0.753   2.443   3.981
 3938TIP3    H211756   0.603   2.458   3.990
 3939TIP3   OH211757   0.582   3.023   3.101
 3939TIP3    H111758   0.667   3.062   3.118
 3939TIP3    H211759   0.571   3.028   3.006
 3940TIP3   OH211760   6.631   2.907   3.916
 3940TIP3    H111761   6.683   2.894   3.836
 3940TIP3    H211762   6.544   2.931   3.883
 3941TIP3   OH211763   0.542   1.049   1.109
 3941TIP3    H111764   0.494   1.019   1.031
 3941TIP3    H211765   0.565   1.140   1.089
 3942TIP3   OH211766   3.537   1.755   5.555
 3942TIP3    H111767   3.543   1.770   5.649
 3942TIP3    H211768   3.530   1.660   5.546
 3943TIP3   OH211769   5.188   3.597   5.590
 3943TIP3    H111770   5.175   3.588   5.685
 3943TIP3    H211771   5.143   3.522   5.552
 3944TIP3   OH211772   7.568   2.314   5.404
 3944TIP3    H111773   7.579   2.405   5.431
 3944TIP3    H211774   7.591   2.314   5.310
 3945TIP3   OH211775   8.386   2.221   4.658
 3945TIP3    H111776   8.338   2.217   4.741
 3945TIP3    H211777   8.332   2.277   4.602
 3946TIP3   OH211778   7.300   0.679   0.869
 3946TIP3    H111779   7.300   0.768   0.834
 3946TIP3    H211780   7.392   0.657   0.879
 3947TIP3   OH211781   6.701   1.411   3.626
 3947TIP3    H111782   6.613   1.409   3.664
 3947TIP3    H211783   6.753   1.463   3.687
 3948TIP3   OH211784   5.877   3.820   0.294
 3948TIP3    H111785   5.918   3.838   0.379
 3948TIP3    H211786   5.951   3.809   0.234
 3949TIP3   OH211787   1.978   0.391   4.050
 3949TIP3    H111788   1.973   0.439   3.967
 3949TIP3    H211789   2.054   0.334   4.040
 3950TIP3   OH211790   4.921   1.699   3.606
 3950TIP3    H111791   4.897   1.740   3.689
 3950TIP3    H211792   5.014   1.676   3.616
 3951TIP3   OH211793   5.980   0.148   1.236
 3951TIP3    H111794   6.070   0.135   1.209
 3951TIP3    H211795   5.986   0.206   1.313
 3952TIP3   OH211796   0.583   6.276   1.736
 3952TIP3    H111797   0.521   6.303   1.669
 3952TIP3    H211798   0.589   6.181   1.727
 3953TIP3   OH211799   8.106   3.801   3.240
 3953TIP3    H111800   8.093   3.727   3.299
 3953TIP3    H211801   8.197   3.828   3.254
 3954TIP3   OH211802   2.433   6.147   3.054
 3954TIP3    H111803   2.514   6.190   3.029
 3954TIP3    H211804   2.408   6.095   2.977
 3955TIP3   OH211805   5.926   3.004   4.051
 3955TIP3    H111806   5.991   3.007   4.121
 3955TIP3    H211807   5.884   3.090   4.054
 3956TIP3   OH211808   5.161   7.568   4.651
 3956TIP3    H111809   5.094   7.516   4.696
 3956TIP3    H211810   5.196   7.509   4.584
 3957TIP3   OH211811   5.954   2.727   3.942
 3957TIP3    H111812   5.932   2.818   3.958
 3957TIP3    H211813   5.969   2.722   3.847
 3958TIP3   OH211814   3.122   3.186   5.512
 3958TIP3    H111815   3.184   3.215   5.445
 3958TIP3    H211816   3.167   3.115   5.557
 3959TIP3   OH211817   3.778   5.188   4.201
 3959TIP3    H111818   3.843   5.221   4.139
 3959TIP3    H211819   3.725   5.264   4.225
 3960TIP3   OH211820   0.871   1.289   2.239
 3960TIP3    H111821   0.956   1.257   2.210
 3960TIP3    H211822   0.863   1.376   2.200
 3961TIP3   OH211823   0.518   6.003   3.962
 3961TIP3    H111824   0.598   6.033   4.007
 3961TIP3    H211825   0.496   5.920   4.004
 3962TIP3   OH211826   2.319   4.172   2.486
 3962TIP3    H111827   2.323   4.207   2.397
 3962TIP3    H211828   2.302   4.248   2.541
 3963TIP3   OH211829   2.602   5.367   6.346
 3963TIP3    H111830   2.657   5.365   6.268
 3963TIP3    H211831   2.532   5.304   6.328
 3964TIP3   OH211832   1.136   2.079   1.302
 3964TIP3    H111833   1.097   2.156   1.263
 3964TIP3    H211834   1.076   2.053   1.371
 3965TIP3   OH211835   3.629   1.996   6.139
 3965TIP3    H111836   3.628   2.089   6.162
 3965TIP3    H211837   3.578   1.991   6.058
 3966TIP3   OH211838   3.820   6.769   2.360
 3966TIP3    H111839   3.756   6.833   2.330
 3966TIP3    H211840   3.871   6.814   2.427
 3967TIP3   OH211841   3.930   1.478   3.881
 3967TIP3    H111842   3.999   1.413   3.894
 3967TIP3    H211843   3.849   1.426   3.881
 3968TIP3   OH211844   1.963   7.223   6.160
 3968TIP3    H111845   1.886   7.166   6.160
 3968TIP3    H211846   1.974   7.249   6.251
 3969TIP3   OH211847   3.394   5.360   4.087
 3969TIP3    H111848   3.472   5.325   4.131
 3969TIP3    H211849   3.334   5.285   4.083
 3970TIP3   OH211850   6.250   2.034   5.800
 3970TIP3    H111851   6.289   2.010   5.883
 3970TIP3    H211852   6.316   2.087   5.756
 3971TIP3   OH211853   6.588   5.222   1.458
 3971TIP3    H111854   6.631   5.296   1.501
 3971TIP3    H211855   6.641   5.205   1.380
 3972TIP3   OH211856   8.091   2.750   0.037
 3972TIP3    H111857   8.157   2.701   0.085
 3972TIP3    H211858   8.138   2.822  -0.005
 3973TIP3   OH211859   5.786   6.041   3.963
 3973TIP3    H111860   5.747   6.120   3.928
 3973TIP3    H211861   5.823   6.068   4.048
 3974TIP3   OH211862   6.791   7.348   6.580
 3974TIP3    H111863   6.696   7.349   6.567
 3974TIP3    H211864   6.804   7.291   6.656
 3975TIP3   OH211865   6.335   5.701   1.533
 3975TIP3    H111866   6.428   5.688   1.550
 3975TIP3    H211867   6.305   5.756   1.606
 3976TIP3   OH211868   7.581   3.452   4.327
 3976TIP3    H111869   7.549   3.516   4.265
 3976TIP3    H211870   7.665   3.487   4.356
 3977TIP3   OH211871   4.499   2.393   3.683
 3977TIP3    H111872   4.436   2.447   3.636
 3977TIP3    H211873   4.514   2.318   3.625
 3978TIP3   OH211874   6.242   2.794   4.829
 3978TIP3    H111875   6.252   2.855   4.756
 3978TIP3    H211876   6.224   2.850   4.905
 3979TIP3   OH211877   1.159   3.920   0.184
 3979TIP3    H111878   1.152   4.014   0.167
 3979TIP3    H211879   1.158   3.913   0.279
 3980TIP3   OH211880   7.265   4.555   2.923
 3980TIP3    H111881   7.169   4.549   2.916
 3980TIP3    H211882   7.280   4.645   2.954
 3981TIP3   OH211883   6.512   1.309   3.357
 3981TIP3    H111884   6.556   1.390   3.384
 3981TIP3    H211885   6.567   1.239   3.393
 3982TIP3   OH211886   5.600   0.379   3.099
 3982TIP3    H111887   5.528   0.363   3.161
 3982TIP3    H211888   5.592   0.308   3.035
 3983TIP3   OH211889   7.047   4.189   3.878
 3983TIP3    H111890   7.080   4.133   3.808
 3983TIP3    H211891   7.087   4.274   3.863
 3984TIP3   OH211892   1.389   5.147   6.691
 3984TIP3    H111893   1.480   5.131   6.717
 3984TIP3    H211894   1.364   5.226   6.739
 3985TIP3   OH211895   5.419   2.662   3.324
 3985TIP3    H111896   5.395   2.576   3.289
 3985TIP3    H211897   5.363   2.723   3.275
 3986TIP3   OH211898   0.176   3.412   1.294
 3986TIP3    H111899   0.090   3.383   1.264
 3986TIP3    H211900   0.160   3.453   1.379
 3987TIP3   OH211901   4.082   4.390   3.604
 3987TIP3    H111902   4.129   4.469   3.577
 3987TIP3    H211903   4.145   4.319   3.590
 3988TIP3   OH211904   0.203   2.342   3.001
 3988TIP3    H111905   0.289   2.314   3.031
 3988TIP3    H211906   0.149   2.341   3.080
 3989TIP3   OH211907   5.904   0.987   6.373
 3989TIP3    H111908   5.876   0.896   6.363
 3989TIP3    H211909   5.948   1.007   6.291
 3990TIP3   OH211910   5.335   2.330   5.671
 3990TIP3    H111911   5.286   2.263   5.623
 3990TIP3    H211912   5.296   2.413   5.642
 3991TIP3   OH211913   5.317   7.248   1.135
 3991TIP3    H111914   5.261   7.246   1.213
 3991TIP3    H211915   5.257   7.269   1.063
 3992TIP3   OH211916   7.309   2.941   1.531
 3992TIP3    H111917   7.375   2.890   1.578
 3992TIP3    H211918   7.256   2.876   1.485
 3993TIP3   OH211919   8.031   3.951   2.771
 3993TIP3    H111920   8.126   3.954   2.774
 3993TIP3    H211921   8.004   3.931   2.861
 3994TIP3   OH211922   6.819   2.724   3.334
 3994TIP3    H111923   6.754   2.757   3.396
 3994TIP3    H211924   6.788   2.755   3.249
 3995TIP3   OH211925   4.104   6.481   5.114
 3995TIP3    H111926   4.059   6.562   5.091
 3995TIP3    H211927   4.125   6.491   5.207
 3996TIP3   OH211928   2.331   0.185   5.271
 3996TIP3    H111929   2.403   0.225   5.223
 3996TIP3    H211930   2.373   0.129   5.336
 3997TIP3   OH211931   1.093   5.609   1.772
 3997TIP3    H111932   1.061   5.684   1.721
 3997TIP3    H211933   1.092   5.536   1.710
 3998TIP3   OH211934   6.463   1.256   5.491
 3998TIP3    H111935   6.552   1.286   5.507
 3998TIP3    H211936   6.413   1.289   5.566
 3999TIP3   OH211937   7.710   2.322   6.589
 3999TIP3    H111938   7.676   2.318   6.500
 3999TIP3    H211939   7.755   2.407   6.594
 4000TIP3   OH211940   7.797   7.347   3.002
 4000TIP3    H111941   7.753   7.411   2.945
 4000TIP3    H211942   7.887   7.377   3.006
 4001TIP3   OH211943   5.608   5.732   4.193
 4001TIP3    H111944   5.682   5.679   4.221
 4001TIP3    H211945   5.621   5.817   4.235
 4002TIP3   OH211946   7.174   5.106   1.780
 4002TIP3    H111947   7.169   5.061   1.696
 4002TIP3    H211948   7.268   5.122   1.793
 4003TIP3   OH211949   5.386   4.616   6.471
 4003TIP3    H111950   5.307   4.574   6.437
 4003TIP3    H211951   5.431   4.648   6.393
 4004TIP3   OH211952   1.903   3.440   0.521
 4004TIP3    H111953   1.936   3.352   0.539
 4004TIP3    H211954   1.869   3.434   0.432
 4005TIP3   OH211955   6.488   5.799   6.602
 4005TIP3    H111956   6.429   5.753   6.662
 4005TIP3    H211957   6.440   5.803   6.520
 4006TIP3   OH211958   0.947   7.003   0.946
 4006TIP3    H111959   1.007   7.032   0.877
 4006TIP3    H211960   0.897   7.082   0.968
 4007TIP3   OH211961   5.183   6.541   4.995
 4007TIP3    H111962   5.130   6.556   5.074
 4007TIP3    H211963   5.131   6.577   4.924
 4008TIP3   OH211964   0.350   4.448   2.904
 4008TIP3    H111965   0.349   4.352   2.897
 4008TIP3    H211966   0.268   4.470   2.948
 4009TIP3   OH211967   5.904   6.095   1.462
 4009TIP3    H111968   5.972   6.101   1.395
 4009TIP3    H211969   5.940   6.035   1.527
 4010TIP3   OH211970   2.429   2.341   0.984
 4010TIP3    H111971   2.363   2.277   1.010
 4010TIP3    H211972   2.432   2.334   0.889
 4011TIP3   OH211973   3.908   1.000   0.922
 4011TIP3    H111974   3.936   1.065   0.986
 4011TIP3    H211975   3.834   1.040   0.877
 4012TIP3   OH211976   5.794   4.104   2.356
 4012TIP3    H111977   5.799   4.011   2.336
 4012TIP3    H211978   5.769   4.107   2.448
 4013TIP3   OH211979   2.378   2.633   1.446
 4013TIP3    H111980   2.383   2.633   1.350
 4013TIP3    H211981   2.350   2.545   1.469
 4014TIP3   OH211982   4.031   0.991   4.341
 4014TIP3    H111983   3.965   1.053   4.309
 4014TIP3    H211984   4.103   0.999   4.279
 4015TIP3   OH211985   1.918   4.846   5.746
 4015TIP3    H111986   1.862   4.924   5.753
 4015TIP3    H211987   1.923   4.812   5.835
 4016TIP3   OH211988   7.669   3.180   2.775
 4016TIP3    H111989   7.719   3.146   2.701
 4016TIP3    H211990   7.589   3.127   2.775
 4017TIP3   OH211991   0.564   5.949   4.669
 4017TIP3    H111992   0.589   6.014   4.603
 4017TIP3    H211993   0.628   5.960   4.739
 4018TIP3   OH211994   1.982   1.110   6.032
 4018TIP3    H111995   2.058   1.058   6.059
 4018TIP3    H211996   1.915   1.091   6.098
 4019TIP3   OH211997   4.385   1.891   0.934
 4019TIP3    H111998   4.480   1.885   0.937
 4019TIP3    H211999   4.367   1.965   0.877
 4020TIP3   OH212000   8.287   1.009   4.069
 4020TIP3    H112001   8.338   1.078   4.111
 4020TIP3    H212002   8.348   0.965   4.010
 4021TIP3   OH212003   7.877   3.195   2.572
 4021TIP3    H112004   7.957   3.236   2.605
 4021TIP3    H212005   7.877   3.213   2.478
 4022TIP3   OH212006   4.420   0.235   6.837
 4022TIP3    H112007   4.470   0.186   6.902
 4022TIP3    H212008   4.449   0.200   6.752
 4023TIP3   OH212009   2.144   0.558   2.094
 4023TIP3    H112010   2.175   0.583   2.180
 4023TIP3    H212011   2.222   0.555   2.039
 4024TIP3   OH212012   6.142   0.377   3.433
 4024TIP3    H112013   6.159   0.326   3.512
 4024TIP3    H212014   6.217   0.436   3.426
 4025TIP3   OH212015   7.314   2.561   4.283
 4025TIP3    H112016   7.236   2.577   4.229
 4025TIP3    H212017   7.381   2.618   4.246
 4026TIP3   OH212018   1.654   1.070   1.309
 4026TIP3    H112019   1.729   1.101   1.258
 4026TIP3    H212020   1.577   1.107   1.266
 4027TIP3   OH212021   6.505   0.431   3.985
 4027TIP3    H112022   6.563   0.359   3.961
 4027TIP3    H212023   6.427   0.387   4.021
 4028TIP3   OH212024   2.985   1.697   3.052
 4028TIP3    H112025   2.917   1.764   3.042
 4028TIP3    H212026   2.943   1.626   3.101
 4029TIP3   OH212027   4.167   6.050   1.588
 4029TIP3    H112028   4.189   6.042   1.681
 4029TIP3    H212029   4.205   5.972   1.548
 4030TIP3   OH212030   1.345   0.906   1.837
 4030TIP3    H112031   1.326   0.885   1.929
 4030TIP3    H212032   1.373   0.997   1.839
 4031TIP3   OH212033   1.734   2.528   0.926
 4031TIP3    H112034   1.792   2.529   0.850
 4031TIP3    H212035   1.713   2.620   0.942
 4032TIP3   OH212036   5.471   2.979   5.356
 4032TIP3    H112037   5.562   2.952   5.369
 4032TIP3    H212038   5.476   3.069   5.324
 4033TIP3   OH212039   7.848   4.941   6.528
 4033TIP3    H112040   7.878   4.907   6.612
 4033TIP3    H212041   7.779   4.879   6.501
 4034TIP3   OH212042   4.767   7.458   3.754
 4034TIP3    H112043   4.847   7.483   3.801
 4034TIP3    H212044   4.698   7.511   3.795
 4035TIP3   OH212045   0.059   5.799   5.025
 4035TIP3    H112046   0.137   5.821   4.974
 4035TIP3    H212047   0.041   5.878   5.076
 4036TIP3   OH212048   5.695   5.104   5.369
 4036TIP3    H112049   5.703   5.012   5.344
 4036TIP3    H212050   5.750   5.151   5.306
 4037TIP3   OH212051   0.149   4.745   6.106
 4037TIP3    H112052   0.117   4.762   6.195
 4037TIP3    H212053   0.152   4.831   6.065
 4038TIP3   OH212054   7.893   5.925   3.428
 4038TIP3    H112055   7.841   5.953   3.353
 4038TIP3    H212056   7.851   5.844   3.457
 4039TIP3   OH212057   0.864   2.171   3.226
 4039TIP3    H112058   0.810   2.102   3.189
 4039TIP3    H212059   0.864   2.154   3.320
 4040TIP3   OH212060   4.981   7.850   6.295
 4040TIP3    H112061   5.052   7.813   6.243
 4040TIP3    H212062   5.012   7.846   6.385
 4041TIP3   OH212063   2.356   7.561   1.220
 4041TIP3    H112064   2.379   7.653   1.232
 4041TIP3    H212065   2.440   7.517   1.205
 4042TIP3   OH212066   5.600   5.599   0.929
 4042TIP3    H112067   5.681   5.627   0.888
 4042TIP3    H212068   5.551   5.680   0.945
 4043TIP3   OH212069   2.164   7.313   2.312
 4043TIP3    H112070   2.191   7.242   2.254
 4043TIP3    H212071   2.123   7.377   2.254
 4044TIP3   OH212072   1.916   3.779   5.279
 4044TIP3    H112073   1.865   3.835   5.338
 4044TIP3    H212074   1.988   3.747   5.333
 4045TIP3   OH212075   6.236   0.319   0.690
 4045TIP3    H112076   6.154   0.329   0.641
 4045TIP3    H212077   6.213   0.263   0.764
 4046TIP3   OH212078   6.101   7.564   5.565
 4046TIP3    H112079   6.024   7.619   5.550
 4046TIP3    H212080   6.102   7.550   5.660
 4047TIP3   OH212081   7.135   1.767   1.860
 4047TIP3    H112082   7.050   1.762   1.904
 4047TIP3    H212083   7.182   1.689   1.888
 4048TIP3   OH212084   0.995   4.620   5.851
 4048TIP3    H112085   1.053   4.696   5.851
 4048TIP3    H212086   0.907   4.658   5.854
 4049TIP3   OH212087   2.580   2.731   3.911
 4049TIP3    H112088   2.537   2.815   3.927
 4049TIP3    H212089   2.658   2.733   3.968
 4050TIP3   OH212090   0.472   2.701   5.957
 4050TIP3    H112091   0.454   2.639   6.028
 4050TIP3    H212092   0.408   2.771   5.969
 4051TIP3   OH212093   0.517   0.914   1.371
 4051TIP3    H112094   0.554   0.959   1.295
 4051TIP3    H212095   0.592   0.896   1.428
 4052TIP3   OH212096   7.885   6.891   4.201
 4052TIP3    H112097   7.828   6.912   4.127
 4052TIP3    H212098   7.957   6.840   4.162
 4053TIP3   OH212099   7.574   4.861   2.853
 4053TIP3    H112100   7.623   4.928   2.899
 4053TIP3    H212101   7.588   4.880   2.760
 4054TIP3   OH212102   6.309   7.414   6.302
 4054TIP3    H112103   6.216   7.392   6.301
 4054TIP3    H212104   6.352   7.333   6.330
 4055TIP3   OH212105   4.316   2.425   3.889
 4055TIP3    H112106   4.265   2.344   3.894
 4055TIP3    H212107   4.399   2.398   3.850
 4056TIP3   OH212108   7.993   7.528   6.804
 4056TIP3    H112109   8.044   7.532   6.723
 4056TIP3    H212110   7.943   7.609   6.805
 4057TIP3   OH212111   0.815   3.863   4.184
 4057TIP3    H112112   0.816   3.921   4.107
 4057TIP3    H212113   0.890   3.892   4.236
 4058TIP3   OH212114   8.303   1.527   5.571
 4058TIP3    H112115   8.257   1.524   5.487
 4058TIP3    H212116   8.353   1.446   5.574
 4059TIP3   OH212117   3.395   5.519   3.051
 4059TIP3    H112118   3.396   5.574   3.130
 4059TIP3    H212119   3.304   5.520   3.023
 4060TIP3   OH212120   2.535   4.840   5.161
 4060TIP3    H112121   2.597   4.907   5.133
 4060TIP3    H212122   2.589   4.774   5.205
 4061TIP3   OH212123   0.269   2.531   2.684
 4061TIP3    H112124   0.268   2.586   2.606
 4061TIP3    H212125   0.217   2.579   2.748
 4062TIP3   OH212126   2.981   2.328   5.950
 4062TIP3    H112127   3.024   2.242   5.946
 4062TIP3    H212128   2.889   2.308   5.969
 4063TIP3   OH212129   7.786   2.762   0.136
 4063TIP3    H112130   7.815   2.773   0.226
 4063TIP3    H212131   7.858   2.717   0.092
 4064TIP3   OH212132   5.310   0.599   2.454
 4064TIP3    H112133   5.335   0.601   2.546
 4064TIP3    H212134   5.222   0.636   2.452
 4065TIP3   OH212135   3.636   2.703   3.187
 4065TIP3    H112136   3.665   2.622   3.145
 4065TIP3    H212137   3.540   2.697   3.186
 4066TIP3   OH212138   8.365   1.054   2.852
 4066TIP3    H112139   8.292   1.114   2.870
 4066TIP3    H212140   8.410   1.094   2.777
 4067TIP3   OH212141   5.509   0.440   3.610
 4067TIP3    H112142   5.546   0.361   3.571
 4067TIP3    H212143   5.553   0.448   3.695
 4068TIP3   OH212144   5.846   3.822   6.539
 4068TIP3    H112145   5.838   3.765   6.615
 4068TIP3    H212146   5.887   3.767   6.472
 4069TIP3   OH212147   2.066   2.136   0.525
 4069TIP3    H112148   1.973   2.133   0.545
 4069TIP3    H212149   2.110   2.123   0.610
 4070TIP3   OH212150   4.641   4.632   0.876
 4070TIP3    H112151   4.677   4.545   0.893
 4070TIP3    H212152   4.706   4.693   0.911
 4071TIP3   OH212153   4.718   7.833   4.579
 4071TIP3    H112154   4.802   7.877   4.590
 4071TIP3    H212155   4.731   7.747   4.620
 4072TIP3   OH212156   4.337   0.973   4.597
 4072TIP3    H112157   4.242   0.974   4.603
 4072TIP3    H212158   4.367   0.950   4.684
 4073TIP3   OH212159   1.850   0.777   2.749
 4073TIP3    H112160   1.883   0.853   2.797
 4073TIP3    H212161   1.818   0.717   2.817
 4074TIP3   OH212162   8.044   0.710   1.018
 4074TIP3    H112163   8.051   0.766   1.095
 4074TIP3    H212164   8.131   0.713   0.978
 4075TIP3   OH212165   5.455   5.867   0.613
 4075TIP3    H112166   5.498   5.789   0.577
 4075TIP3    H212167   5.431   5.918   0.536
 4076TIP3   OH212168   4.346   6.870   0.441
 4076TIP3    H112169   4.273   6.809   0.447
 4076TIP3    H212170   4.412   6.825   0.389
 4077TIP3   OH212171   2.269   5.456   0.803
 4077TIP3    H112172   2.208   5.439   0.731
 4077TIP3    H212173   2.272   5.374   0.852
 4078TIP3   OH212174   0.592   4.099   4.850
 4078TIP3    H112175   0.529   4.163   4.817
 4078TIP3    H212176   0.649   4.081   4.775
 4079TIP3   OH212177   1.092   4.109   5.383
 4079TIP3    H112178   1.041   4.105   5.464
 4079TIP3    H212179   1.026   4.104   5.313
 4080TIP3   OH212180   0.302   4.889   0.145
 4080TIP3    H112181   0.266   4.975   0.124
 4080TIP3    H212182   0.265   4.867   0.230
 4081TIP3   OH212183   6.537   7.787   3.814
 4081TIP3    H112184   6.587   7.730   3.872
 4081TIP3    H212185   6.602   7.829   3.759
 4082TIP3   OH212186   8.042   3.592   5.914
 4082TIP3    H112187   8.102   3.650   5.961
 4082TIP3    H212188   8.062   3.605   5.822
 4083TIP3   OH212189   0.407   7.361   3.961
 4083TIP3    H112190   0.355   7.394   3.888
 4083TIP3    H212191   0.470   7.302   3.921
 4084TIP3   OH212192   6.104   5.577   3.030
 4084TIP3    H112193   6.096   5.666   3.066
 4084TIP3    H212194   6.092   5.520   3.106
 4085TIP3   OH212195   5.740   4.088   0.877
 4085TIP3    H112196   5.823   4.042   0.865
 4085TIP3    H212197   5.750   4.169   0.826
 4086TIP3   OH212198   0.813   7.862   2.969
 4086TIP3    H112199   0.720   7.839   2.969
 4086TIP3    H212200   0.842   7.843   3.059
 4087TIP3   OH212201   3.106   3.902   6.084
 4087TIP3    H112202   3.113   3.840   6.012
 4087TIP3    H212203   3.054   3.974   6.049
 4088TIP3   OH212204   3.147   4.600   3.595
 4088TIP3    H112205   3.242   4.612   3.603
 4088TIP3    H212206   3.121   4.562   3.679
 4089TIP3   OH212207   5.308   3.717   2.798
 4089TIP3    H112208   5.247   3.672   2.856
 4089TIP3    H212209   5.338   3.650   2.737
 4090TIP3   OH212210   0.053   4.099   5.817
 4090TIP3    H112211  -0.019   4.037   5.806
 4090TIP3    H212212   0.093   4.105   5.731
 4091TIP3   OH212213   0.338   5.470   4.899
 4091TIP3    H112214   0.286   5.498   4.824
 4091TIP3    H212215   0.275   5.462   4.970
 4092TIP3   OH212216   5.663   2.591   0.129
 4092TIP3    H112217   5.678   2.554   0.216
 4092TIP3    H212218   5.614   2.523   0.083
 4093TIP3   OH212219   7.546   3.637   5.265
 4093TIP3    H112220   7.515   3.728   5.258
 4093TIP3    H212221   7.467   3.587   5.285
 4094TIP3   OH212222   3.759   4.880   4.043
 4094TIP3    H112223   3.780   4.845   3.956
 4094TIP3    H212224   3.717   4.964   4.026
 4095TIP3   OH212225   2.093   4.700   4.829
 4095TIP3    H112226   2.092   4.772   4.892
 4095TIP3    H212227   2.021   4.643   4.857
 4096TIP3   OH212228   4.192   2.691   5.906
 4096TIP3    H112229   4.158   2.736   5.828
 4096TIP3    H212230   4.123   2.702   5.972
 4097TIP3   OH212231   6.757   6.299   3.091
 4097TIP3    H112232   6.735   6.390   3.069
 4097TIP3    H212233   6.844   6.304   3.129
 4098TIP3   OH212234   7.581   1.245   1.280
 4098TIP3    H112235   7.640   1.174   1.257
 4098TIP3    H212236   7.582   1.248   1.376
 4099TIP3   OH212237   3.580   7.521   6.652
 4099TIP3    H112238   3.523   7.595   6.632
 4099TIP3    H212239   3.552   7.492   6.739
 4100TIP3   OH212240   1.731   6.290   4.462
 4100TIP3    H112241   1.822   6.264   4.453
 4100TIP3    H212242   1.732   6.385   4.463
 4101TIP3   OH212243   6.198   4.528   6.702
 4101TIP3    H112244   6.228   4.597   6.643
 4101TIP3    H212245   6.249   4.451   6.675
 4102TIP3   OH212246   6.915   0.247   0.064
 4102TIP3    H112247   6.885   0.169   0.111
 4102TIP3    H212248   6.956   0.301   0.132
 4103TIP3   OH212249   6.637   0.374   3.342
 4103TIP3    H112250   6.674   0.445   3.394
 4103TIP3    H212251   6.712   0.338   3.295
 4104TIP3   OH212252   1.842   7.605   5.592
 4104TIP3    H112253   1.775   7.673   5.598
 4104TIP3    H212254   1.797   7.531   5.551
 4105TIP3   OH212255   1.850   6.991   0.765
 4105TIP3    H112256   1.817   7.018   0.680
 4105TIP3    H212257   1.829   7.065   0.823
 4106TIP3   OH212258   7.907   4.329   6.413
 4106TIP3    H112259   7.903   4.281   6.496
 4106TIP3    H212260   7.972   4.398   6.429
 4107TIP3   OH212261   2.409   0.768   5.620
 4107TIP3    H112262   2.421   0.727   5.706
 4107TIP3    H212263   2.334   0.827   5.632
 4108TIP3   OH212264   8.156   1.911   4.047
 4108TIP3    H112265   8.070   1.926   4.087
 4108TIP3    H212266   8.138   1.856   3.971
 4109TIP3   OH212267   5.460   0.116   1.304
 4109TIP3    H112268   5.550   0.141   1.321
 4109TIP3    H212269   5.437   0.057   1.376
 4110TIP3   OH212270   3.651   2.329   1.092
 4110TIP3    H112271   3.635   2.301   1.002
 4110TIP3    H212272   3.685   2.419   1.084
 4111TIP3   OH212273   4.221   5.255   4.802
 4111TIP3    H112274   4.272   5.333   4.823
 4111TIP3    H212275   4.166   5.282   4.728
 4112TIP3   OH212276   1.211   6.485   0.561
 4112TIP3    H112277   1.275   6.508   0.628
 4112TIP3    H212278   1.128   6.478   0.607
 4113TIP3   OH212279   3.094   4.702   5.631
 4113TIP3    H112280   3.190   4.711   5.636
 4113TIP3    H212281   3.061   4.775   5.684
 4114TIP3   OH212282   4.885   4.917   5.430
 4114TIP3    H112283   4.848   5.003   5.410
 4114TIP3    H212284   4.943   4.933   5.504
 4115TIP3   OH212285   5.474   4.337   6.445
 4115TIP3    H112286   5.463   4.431   6.455
 4115TIP3    H212287   5.389   4.300   6.468
 4116TIP3   OH212288   3.874   4.544   3.698
 4116TIP3    H112289   3.817   4.483   3.652
 4116TIP3    H212290   3.961   4.503   3.695
 4117TIP3   OH212291   0.425   3.270   0.487
 4117TIP3    H112292   0.414   3.208   0.559
 4117TIP3    H212293   0.482   3.226   0.424
 4118TIP3   OH212294   1.419   6.521   5.031
 4118TIP3    H112295   1.413   6.511   4.936
 4118TIP3    H212296   1.338   6.565   5.056
 4119TIP3   OH212297   0.525   0.705   4.236
 4119TIP3    H112298   0.513   0.682   4.144
 4119TIP3    H212299   0.605   0.758   4.238
 4120TIP3   OH212300   4.419   0.548   0.268
 4120TIP3    H112301   4.392   0.615   0.331
 4120TIP3    H212302   4.448   0.475   0.322
 4121TIP3   OH212303   8.033   0.289   0.815
 4121TIP3    H112304   8.100   0.235   0.773
 4121TIP3    H212305   7.950   0.250   0.788
 4122TIP3   OH212306   3.546   7.283   1.946
 4122TIP3    H112307   3.627   7.283   1.998
 4122TIP3    H212308   3.576   7.301   1.856
 4123TIP3   OH212309   1.037   3.128   3.215
 4123TIP3    H112310   1.029   3.185   3.291
 4123TIP3    H212311   1.102   3.171   3.160
 4124TIP3   OH212312   1.135   0.714   2.613
 4124TIP3    H112313   1.124   0.807   2.594
 4124TIP3    H212314   1.205   0.711   2.679
 4125TIP3   OH212315   4.627   3.143   0.261
 4125TIP3    H112316   4.702   3.118   0.207
 4125TIP3    H212317   4.599   3.228   0.225
 4126TIP3   OH212318   8.043   0.187   1.102
 4126TIP3    H112319   7.998   0.197   1.018
 4126TIP3    H212320   8.136   0.187   1.080
 4127TIP3   OH212321   1.340   1.311   5.450
 4127TIP3    H112322   1.404   1.260   5.401
 4127TIP3    H212323   1.379   1.321   5.537
 4128TIP3   OH212324   2.238   7.327   2.977
 4128TIP3    H112325   2.217   7.245   3.021
 4128TIP3    H212326   2.293   7.302   2.904
 4129TIP3   OH212327   5.357   5.592   1.177
 4129TIP3    H112328   5.327   5.514   1.225
 4129TIP3    H212329   5.339   5.572   1.085
 4130TIP3   OH212330   0.581   7.638   6.536
 4130TIP3    H112331   0.602   7.545   6.543
 4130TIP3    H212332   0.656   7.683   6.574
 4131TIP3   OH212333   7.091   2.581   5.379
 4131TIP3    H112334   7.085   2.582   5.283
 4131TIP3    H212335   7.146   2.657   5.400
 4132TIP3   OH212336   7.291   0.184   6.264
 4132TIP3    H112337   7.203   0.161   6.295
 4132TIP3    H212338   7.350   0.144   6.327
 4133TIP3   OH212339   2.153   6.724   0.638
 4133TIP3    H112340   2.164   6.629   0.644
 4133TIP3    H212341   2.060   6.738   0.655
 4134TIP3   OH212342   2.471   2.394   5.607
 4134TIP3    H112343   2.467   2.357   5.519
 4134TIP3    H212344   2.556   2.439   5.609
 4135TIP3   OH212345   3.059   1.982   2.524
 4135TIP3    H112346   3.000   1.999   2.450
 4135TIP3    H212347   3.069   2.068   2.566
 4136TIP3   OH212348   2.408   2.567   5.172
 4136TIP3    H112349   2.322   2.607   5.160
 4136TIP3    H212350   2.470   2.633   5.139
 4137TIP3   OH212351   7.818   4.775   4.763
 4137TIP3    H112352   7.889   4.719   4.795
 4137TIP3    H212353   7.754   4.713   4.727
 4138TIP3   OH212354   1.235   3.594   1.339
 4138TIP3    H112355   1.180   3.601   1.261
 4138TIP3    H212356   1.313   3.644   1.318
 4139TIP3   OH212357   7.145   1.125   2.226
 4139TIP3    H112358   7.077   1.103   2.162
 4139TIP3    H212359   7.225   1.089   2.189
 4140TIP3   OH212360   3.224   0.008   6.765
 4140TIP3    H112361   3.168   0.085   6.764
 4140TIP3    H212362   3.165  -0.066   6.750
 4141TIP3   OH212363   3.725   1.476   0.949
 4141TIP3    H112364   3.663   1.548   0.961
 4141TIP3    H212365   3.808   1.519   0.932
 4142TIP3   OH212366   3.361   0.105   1.546
 4142TIP3    H112367   3.439   0.108   1.600
 4142TIP3    H212368   3.375   0.029   1.489
 4143TIP3   OH212369   2.689   4.258   6.273
 4143TIP3    H112370   2.702   4.241   6.180
 4143TIP3    H212371   2.763   4.215   6.316
 4144TIP3   OH212372   7.071   1.639   0.384
 4144TIP3    H112373   7.028   1.699   0.446
 4144TIP3    H212374   7.018   1.559   0.388
 4145TIP3   OH212375   3.537   4.074   3.436
 4145TIP3    H112376   3.527   3.989   3.479
 4145TIP3    H212377   3.632   4.084   3.423
 4146TIP3   OH212378   4.811   5.984   5.107
 4146TIP3    H112379   4.899   5.947   5.103
 4146TIP3    H212380   4.773   5.949   5.187
 4147TIP3   OH212381   0.107   4.261   1.734
 4147TIP3    H112382   0.201   4.269   1.750
 4147TIP3    H212383   0.077   4.351   1.722
 4148TIP3   OH212384   6.427   5.188   4.617
 4148TIP3    H112385   6.355   5.170   4.557
 4148TIP3    H212386   6.476   5.259   4.576
 4149TIP3   OH212387   0.289   7.909   1.149
 4149TIP3    H112388   0.344   7.831   1.138
 4149TIP3    H212389   0.321   7.950   1.229
 4150TIP3   OH212390   1.274   0.853   0.233
 4150TIP3    H112391   1.250   0.873   0.324
 4150TIP3    H212392   1.356   0.804   0.240
 4151TIP3   OH212393   0.195   5.872   6.587
 4151TIP3    H112394   0.177   5.877   6.494
 4151TIP3    H212395   0.290   5.885   6.594
 4152TIP3   OH212396   7.464   1.418   3.927
 4152TIP3    H112397   7.384   1.470   3.918
 4152TIP3    H212398   7.525   1.457   3.864
 4153TIP3   OH212399   0.457   2.038   1.074
 4153TIP3    H112400   0.505   2.102   1.127
 4153TIP3    H212401   0.419   1.978   1.138
 4154TIP3   OH212402   4.139   5.897   3.943
 4154TIP3    H112403   4.220   5.848   3.933
 4154TIP3    H212404   4.151   5.947   4.024
 4155TIP3   OH212405   0.860   5.517   2.852
 4155TIP3    H112406   0.916   5.439   2.855
 4155TIP3    H212407   0.780   5.491   2.898
 4156TIP3   OH212408   7.378   3.277   2.597
 4156TIP3    H112409   7.364   3.367   2.566
 4156TIP3    H212410   7.380   3.285   2.692
 4157TIP3   OH212411   0.159   5.326   5.060
 4157TIP3    H112412   0.123   5.265   5.125
 4157TIP3    H212413   0.198   5.269   4.993
 4158TIP3   OH212414   5.992   1.157   5.162
 4158TIP3    H112415   5.983   1.067   5.130
 4158TIP3    H212416   6.078   1.185   5.131
 4159TIP3   OH212417   2.634   6.537   3.433
 4159TIP3    H112418   2.596   6.560   3.348
 4159TIP3    H212419   2.606   6.608   3.492
 4160TIP3   OH212420   8.209   7.779   2.205
 4160TIP3    H112421   8.304   7.763   2.207
 4160TIP3    H212422   8.195   7.824   2.121
 4161TIP3   OH212423   1.998   7.296   5.412
 4161TIP3    H112424   1.993   7.256   5.499
 4161TIP3    H212425   1.935   7.247   5.360
 4162TIP3   OH212426   4.161   1.429   2.092
 4162TIP3    H112427   4.228   1.422   2.160
 4162TIP3    H212428   4.202   1.479   2.022
 4163TIP3   OH212429   0.954   7.767   3.187
 4163TIP3    H112430   1.038   7.745   3.148
 4163TIP3    H212431   0.946   7.709   3.262
 4164TIP3   OH212432   4.514   4.374   6.790
 4164TIP3    H112433   4.473   4.407   6.871
 4164TIP3    H212434   4.530   4.452   6.738
 4165TIP3   OH212435   3.301   3.234   6.834
 4165TIP3    H112436   3.391   3.203   6.825
 4165TIP3    H212437   3.308   3.315   6.884
 4166TIP3   OH212438   7.525   0.449   0.747
 4166TIP3    H112439   7.552   0.529   0.792
 4166TIP3    H212440   7.433   0.462   0.727
 4167TIP3   OH212441   0.683   2.019   0.672
 4167TIP3    H112442   0.628   2.053   0.601
 4167TIP3    H212443   0.652   2.065   0.750
 4168TIP3   OH212444   6.938   5.085   0.291
 4168TIP3    H112445   6.969   5.166   0.331
 4168TIP3    H212446   6.924   5.107   0.199
 4169TIP3   OH212447   1.137   3.972   2.374
 4169TIP3    H112448   1.218   4.023   2.372
 4169TIP3    H212449   1.110   3.967   2.282
 4170TIP3   OH212450   5.361   7.089   0.721
 4170TIP3    H112451   5.309   7.153   0.672
 4170TIP3    H212452   5.336   7.005   0.685
 4171TIP3   OH212453   0.702   5.832   6.168
 4171TIP3    H112454   0.676   5.750   6.211
 4171TIP3    H212455   0.797   5.827   6.163
 4172TIP3   OH212456   1.407   4.740   4.872
 4172TIP3    H112457   1.435   4.741   4.963
 4172TIP3    H212458   1.396   4.833   4.850
 4173TIP3   OH212459   7.518   3.021   5.834
 4173TIP3    H112460   7.509   2.968   5.754
 4173TIP3    H212461   7.517   2.957   5.905
 4174TIP3   OH212462   1.185   6.699   5.027
 4174TIP3    H112463   1.173   6.652   4.944
 4174TIP3    H212464   1.096   6.716   5.058
 4175TIP3   OH212465   3.453   1.702   0.791
 4175TIP3    H112466   3.477   1.662   0.875
 4175TIP3    H212467   3.361   1.679   0.779
 4176TIP3   OH212468   4.012   2.523   1.165
 4176TIP3    H112469   4.054   2.600   1.128
 4176TIP3    H212470   3.923   2.524   1.129
 4177TIP3   OH212471   3.352   3.797   4.765
 4177TIP3    H112472   3.384   3.731   4.826
 4177TIP3    H212473   3.280   3.839   4.811
 4178TIP3   OH212474   2.159   7.702   1.114
 4178TIP3    H112475   2.212   7.626   1.138
 4178TIP3    H212476   2.073   7.665   1.094
 4179TIP3   OH212477   4.162   0.337   3.380
 4179TIP3    H112478   4.210   0.290   3.449
 4179TIP3    H212479   4.230   0.363   3.317
 4180TIP3   OH212480   0.444   0.561   2.664
 4180TIP3    H112481   0.459   0.476   2.704
 4180TIP3    H212482   0.393   0.610   2.729
 4181TIP3   OH212483   6.395   7.471   0.231
 4181TIP3    H112484   6.457   7.409   0.270
 4181TIP3    H212485   6.405   7.551   0.282
 4182TIP3   OH212486   0.232   3.229   5.334
 4182TIP3    H112487   0.173   3.157   5.357
 4182TIP3    H212488   0.184   3.308   5.357
 4183TIP3   OH212489   0.446   2.005   1.836
 4183TIP3    H112490   0.353   2.027   1.838
 4183TIP3    H212491   0.488   2.076   1.886
 4184TIP3   OH212492   2.368   2.916   3.703
 4184TIP3    H112493   2.401   2.995   3.660
 4184TIP3    H212494   2.408   2.918   3.790
 4185TIP3   OH212495   6.733   5.204   1.223
 4185TIP3    H112496   6.759   5.198   1.131
 4185TIP3    H212497   6.771   5.287   1.253
 4186TIP3   OH212498   2.521   2.162   1.758
 4186TIP3    H112499   2.435   2.135   1.789
 4186TIP3    H212500   2.523   2.257   1.773
 4187TIP3   OH212501   5.202   2.182   6.353
 4187TIP3    H112502   5.223   2.159   6.262
 4187TIP3    H212503   5.226   2.274   6.361
 4188TIP3   OH212504   7.863   5.216   2.777
 4188TIP3    H112505   7.825   5.130   2.794
 4188TIP3    H212506   7.919   5.203   2.701
 4189TIP3   OH212507   0.285   6.737   5.680
 4189TIP3    H112508   0.381   6.737   5.683
 4189TIP3    H212509   0.261   6.828   5.701
 4190TIP3   OH212510   6.273   4.962   2.763
 4190TIP3    H112511   6.259   5.042   2.712
 4190TIP3    H212512   6.260   4.989   2.854
 4191TIP3   OH212513   2.883   6.889   0.149
 4191TIP3    H112514   2.843   6.960   0.201
 4191TIP3    H212515   2.893   6.927   0.062
 4192TIP3   OH212516   5.334   6.256   6.820
 4192TIP3    H112517   5.270   6.188   6.800
 4192TIP3    H212518   5.292   6.337   6.791
 4193TIP3   OH212519   1.500   5.162   3.186
 4193TIP3    H112520   1.501   5.067   3.191
 4193TIP3    H212521   1.503   5.181   3.092
 4194TIP3   OH212522   6.639   2.564   0.879
 4194TIP3    H112523   6.642   2.546   0.785
 4194TIP3    H212524   6.604   2.653   0.885
 4195TIP3   OH212525   7.864   5.387   4.148
 4195TIP3    H112526   7.865   5.291   4.151
 4195TIP3    H212527   7.772   5.410   4.130
 4196TIP3   OH212528   0.959   4.536   2.896
 4196TIP3    H112529   1.024   4.490   2.950
 4196TIP3    H212530   0.900   4.467   2.866
 4197TIP3   OH212531   8.284   3.888   1.409
 4197TIP3    H112532   8.313   3.938   1.485
 4197TIP3    H212533   8.364   3.874   1.358
 4198TIP3   OH212534   4.139   3.101   3.930
 4198TIP3    H112535   4.088   3.066   4.003
 4198TIP3    H212536   4.101   3.060   3.852
 4199TIP3   OH212537   6.648   2.579   3.985
 4199TIP3    H112538   6.732   2.566   3.942
 4199TIP3    H212539   6.628   2.494   4.024
 4200TIP3   OH212540   2.851   6.636   2.199
 4200TIP3    H112541   2.810   6.697   2.138
 4200TIP3    H212542   2.816   6.551   2.175
 4201TIP3   OH212543   0.660   4.370   5.126
 4201TIP3    H112544   0.685   4.413   5.208
 4201TIP3    H212545   0.639   4.443   5.067
 4202TIP3   OH212546   8.006   6.413   1.959
 4202TIP3    H112547   8.007   6.331   2.008
 4202TIP3    H212548   7.925   6.456   1.987
 4203TIP3   OH212549   3.431   4.408   2.087
 4203TIP3    H112550   3.393   4.397   2.000
 4203TIP3    H212551   3.356   4.423   2.144
 4204TIP3   OH212552   3.303   3.874   0.672
 4204TIP3    H112553   3.348   3.958   0.661
 4204TIP3    H212554   3.226   3.895   0.725
 4205TIP3   OH212555   5.169   7.908   2.100
 4205TIP3    H112556   5.173   7.842   2.169
 4205TIP3    H212557   5.140   7.860   2.022
 4206TIP3   OH212558   1.393   6.456   4.451
 4206TIP3    H112559   1.424   6.494   4.369
 4206TIP3    H212560   1.351   6.374   4.424
 4207TIP3   OH212561   4.440   6.317   2.357
 4207TIP3    H112562   4.377   6.385   2.332
 4207TIP3    H212563   4.442   6.320   2.452
 4208TIP3   OH212564   1.861   3.635   2.524
 4208TIP3    H112565   1.954   3.654   2.516
 4208TIP3    H212566   1.845   3.562   2.465
 4209TIP3   OH212567   2.633   6.428   1.812
 4209TIP3    H112568   2.612   6.432   1.906
 4209TIP3    H212569   2.549   6.444   1.769
 4210TIP3   OH212570   6.898   4.987   5.282
 4210TIP3    H112571   6.907   5.079   5.306
 4210TIP3    H212572   6.827   4.985   5.218
 4211TIP3   OH212573   0.950   0.074   4.758
 4211TIP3    H112574   0.872   0.128   4.743
 4211TIP3    H212575   0.919   0.002   4.813
 4212TIP3   OH212576   4.147   3.445   1.361
 4212TIP3    H112577   4.176   3.363   1.401
 4212TIP3    H212578   4.106   3.418   1.279
 4213TIP3   OH212579   1.813   1.320   5.995
 4213TIP3    H112580   1.802   1.342   5.903
 4213TIP3    H212581   1.892   1.267   5.998
 4214TIP3   OH212582   1.048   2.419   3.785
 4214TIP3    H112583   0.997   2.445   3.862
 4214TIP3    H212584   0.990   2.361   3.735
 4215TIP3   OH212585   0.116   7.258   6.820
 4215TIP3    H112586   0.038   7.286   6.772
 4215TIP3    H212587   0.188   7.272   6.758
 4216TIP3   OH212588   8.091   2.648   2.958
 4216TIP3    H112589   8.152   2.720   2.943
 4216TIP3    H212590   8.144   2.569   2.946
 4217TIP3   OH212591   2.360   3.057   6.742
 4217TIP3    H112592   2.415   2.981   6.759
 4217TIP3    H212593   2.421   3.128   6.724
 4218TIP3   OH212594   4.130   4.898   2.864
 4218TIP3    H112595   4.155   4.816   2.822
 4218TIP3    H212596   4.126   4.877   2.958
 4219TIP3   OH212597   6.420   1.556   4.497
 4219TIP3    H112598   6.378   1.630   4.453
 4219TIP3    H212599   6.503   1.591   4.530
 4220TIP3   OH212600   5.740   6.047   5.142
 4220TIP3    H112601   5.781   6.132   5.133
 4220TIP3    H212602   5.811   5.988   5.168
 4221TIP3   OH212603   8.081   2.844   0.592
 4221TIP3    H112604   8.160   2.802   0.626
 4221TIP3    H212605   8.023   2.852   0.668
 4222TIP3   OH212606   8.034   2.116   6.774
 4222TIP3    H112607   8.115   2.101   6.725
 4222TIP3    H212608   8.040   2.206   6.804
 4223TIP3   OH212609   3.109   5.753   5.833
 4223TIP3    H112610   3.069   5.787   5.753
 4223TIP3    H212611   3.192   5.801   5.841
 4224TIP3   OH212612   2.116   7.883   2.289
 4224TIP3    H112613   2.106   7.848   2.200
 4224TIP3    H212614   2.040   7.848   2.336
 4225TIP3   OH212615   2.320   5.629   5.158
 4225TIP3    H112616   2.263   5.695   5.117
 4225TIP3    H212617   2.409   5.657   5.135
 4226TIP3   OH212618   5.554   5.263   2.987
 4226TIP3    H112619   5.534   5.191   3.047
 4226TIP3    H212620   5.621   5.314   3.032
 4227TIP3   OH212621   2.198   5.204   0.996
 4227TIP3    H112622   2.229   5.138   1.058
 4227TIP3    H212623   2.201   5.160   0.910
 4228TIP3   OH212624   4.345   4.793   6.806
 4228TIP3    H112625   4.337   4.837   6.890
 4228TIP3    H212626   4.271   4.732   6.804
 4229TIP3   OH212627   7.496   1.598   2.472
 4229TIP3    H112628   7.450   1.665   2.522
 4229TIP3    H212629   7.475   1.516   2.515
 4230TIP3   OH212630   2.391   6.964   4.451
 4230TIP3    H112631   2.451   7.031   4.484
 4230TIP3    H212632   2.351   6.927   4.530
 4231TIP3   OH212633   2.991   4.440   5.671
 4231TIP3    H112634   2.910   4.455   5.623
 4231TIP3    H212635   3.043   4.519   5.656
 4232TIP3   OH212636   5.462   4.032   6.672
 4232TIP3    H112637   5.388   4.076   6.713
 4232TIP3    H212638   5.537   4.055   6.727
 4233TIP3   OH212639   6.713   1.966   1.265
 4233TIP3    H112640   6.638   1.966   1.324
 4233TIP3    H212641   6.780   2.017   1.310
 4234TIP3   OH212642   0.196   3.979   0.757
 4234TIP3    H112643   0.290   3.995   0.751
 4234TIP3    H212644   0.157   4.041   0.696
 4235TIP3   OH212645   7.073   2.964   3.731
 4235TIP3    H112646   7.078   3.035   3.796
 4235TIP3    H212647   7.164   2.943   3.712
 4236TIP3   OH212648   6.864   5.222   6.698
 4236TIP3    H112649   6.800   5.213   6.628
 4236TIP3    H212650   6.892   5.133   6.717
 4237TIP3   OH212651   7.341   2.959   1.877
 4237TIP3    H112652   7.362   3.023   1.809
 4237TIP3    H212653   7.413   2.966   1.939
 4238TIP3   OH212654   6.768   1.762   2.371
 4238TIP3    H112655   6.763   1.801   2.284
 4238TIP3    H212656   6.772   1.837   2.430
 4239TIP3   OH212657   4.382   1.884   5.569
 4239TIP3    H112658   4.327   1.897   5.646
 4239TIP3    H212659   4.320   1.871   5.497
 4240TIP3   OH212660   2.853   0.460   0.026
 4240TIP3    H112661   2.791   0.532   0.013
 4240TIP3    H212662   2.926   0.481  -0.033
 4241TIP3   OH212663   2.792   6.168   4.305
 4241TIP3    H112664   2.802   6.158   4.399
 4241TIP3    H212665   2.850   6.102   4.267
 4242TIP3   OH212666   6.153   7.606   3.097
 4242TIP3    H112667   6.077   7.635   3.147
 4242TIP3    H212668   6.195   7.687   3.067
 4243TIP3   OH212669   2.891   1.329   4.534
 4243TIP3    H112670   2.868   1.290   4.619
 4243TIP3    H212671   2.882   1.258   4.471
 4244TIP3   OH212672   7.248   1.691   0.782
 4244TIP3    H112673   7.253   1.712   0.875
 4244TIP3    H212674   7.182   1.622   0.776
 4245TIP3   OH212675   6.217   0.578   6.353
 4245TIP3    H112676   6.265   0.613   6.278
 4245TIP3    H212677   6.199   0.654   6.408
 4246TIP3   OH212678   1.772   1.726   6.063
 4246TIP3    H112679   1.745   1.816   6.080
 4246TIP3    H212680   1.739   1.708   5.975
 4247TIP3   OH212681   3.876   4.560   6.233
 4247TIP3    H112682   3.806   4.593   6.289
 4247TIP3    H212683   3.835   4.492   6.180
 4248TIP3   OH212684   2.177   5.522   6.014
 4248TIP3    H112685   2.165   5.463   6.088
 4248TIP3    H212686   2.184   5.609   6.054
 4249TIP3   OH212687   1.275   1.802   2.131
 4249TIP3    H112688   1.219   1.745   2.184
 4249TIP3    H212689   1.221   1.827   2.056
 4250TIP3   OH212690   1.306   0.018   3.443
 4250TIP3    H112691   1.249   0.008   3.519
 4250TIP3    H212692   1.394   0.001   3.476
 4251TIP3   OH212693   4.938   0.150   6.796
 4251TIP3    H112694   4.894   0.198   6.726
 4251TIP3    H212695   4.876   0.081   6.820
 4252TIP3   OH212696   5.791   5.393   1.624
 4252TIP3    H112697   5.742   5.320   1.662
 4252TIP3    H212698   5.750   5.471   1.661
 4253TIP3   OH212699   3.978   4.245   4.112
 4253TIP3    H112700   3.911   4.187   4.151
 4253TIP3    H212701   3.990   4.210   4.024
 4254TIP3   OH212702   7.019   3.801   3.898
 4254TIP3    H112703   6.983   3.859   3.831
 4254TIP3    H212704   7.014   3.851   3.979
 4255TIP3   OH212705   0.112   5.288   6.648
 4255TIP3    H112706   0.180   5.239   6.693
 4255TIP3    H212707   0.057   5.221   6.607
 4256TIP3   OH212708   2.652   5.918   4.631
 4256TIP3    H112709   2.568   5.871   4.632
 4256TIP3    H212710   2.692   5.894   4.547
 4257TIP3   OH212711   4.277   4.513   1.151
 4257TIP3    H112712   4.214   4.515   1.079
 4257TIP3    H212713   4.297   4.605   1.168
 4258TIP3   OH212714   2.462   7.157   1.720
 4258TIP3    H112715   2.493   7.131   1.634
 4258TIP3    H212716   2.387   7.214   1.703
 4259TIP3   OH212717   3.292   1.026   6.312
 4259TIP3    H112718   3.358   1.095   6.312
 4259TIP3    H212719   3.338   0.948   6.344
 4260TIP3   OH212720   2.557   6.986   6.621
 4260TIP3    H112721   2.577   7.025   6.535
 4260TIP3    H212722   2.462   6.978   6.622
 4261TIP3   OH212723   1.165   1.946   2.866
 4261TIP3    H112724   1.149   1.892   2.943
 4261TIP3    H212725   1.236   2.005   2.892
 4262TIP3   OH212726   7.274   5.765   0.623
 4262TIP3    H112727   7.356   5.798   0.585
 4262TIP3    H212728   7.212   5.765   0.550
 4263TIP3   OH212729   4.451   7.408   0.368
 4263TIP3    H112730   4.525   7.379   0.315
 4263TIP3    H212731   4.442   7.501   0.347
 4264TIP3   OH212732   2.011   4.667   1.493
 4264TIP3    H112733   2.067   4.688   1.568
 4264TIP3    H212734   1.970   4.583   1.517
 4265TIP3   OH212735   2.039   7.029   6.795
 4265TIP3    H112736   2.001   7.108   6.756
 4265TIP3    H212737   2.126   7.022   6.756
 4266TIP3   OH212738   1.043   2.159   0.929
 4266TIP3    H112739   0.969   2.208   0.892
 4266TIP3    H212740   1.043   2.181   1.022
 4267TIP3   OH212741   1.851   0.210   0.127
 4267TIP3    H112742   1.784   0.248   0.070
 4267TIP3    H212743   1.900   0.285   0.161
 4268TIP3   OH212744   7.073   5.717   1.109
 4268TIP3    H112745   7.063   5.650   1.176
 4268TIP3    H212746   6.992   5.767   1.113
 4269TIP3   OH212747   5.946   6.367   2.731
 4269TIP3    H112748   5.918   6.430   2.797
 4269TIP3    H212749   6.025   6.328   2.767
 4270TIP3   OH212750   4.489   7.331   3.778
 4270TIP3    H112751   4.566   7.306   3.727
 4270TIP3    H212752   4.458   7.249   3.815
 4271TIP3   OH212753   5.633   4.642   0.026
 4271TIP3    H112754   5.638   4.580   0.098
 4271TIP3    H212755   5.647   4.728   0.068
 4272TIP3   OH212756   3.282   3.503   4.363
 4272TIP3    H112757   3.265   3.587   4.405
 4272TIP3    H212758   3.352   3.464   4.416
 4273TIP3   OH212759   8.237   7.607   3.966
 4273TIP3    H112760   8.299   7.586   4.036
 4273TIP3    H212761   8.262   7.695   3.938
 4274TIP3   OH212762   1.416   5.522   0.508
 4274TIP3    H112763   1.337   5.573   0.525
 4274TIP3    H212764   1.413   5.451   0.571
 4275TIP3   OH212765   6.153   2.968   0.237
 4275TIP3    H112766   6.096   2.892   0.237
 4275TIP3    H212767   6.094   3.042   0.221
 4276TIP3   OH212768   5.724   6.862   1.674
 4276TIP3    H112769   5.773   6.890   1.752
 4276TIP3    H212770   5.684   6.943   1.641
 4277TIP3   OH212771   2.818   5.063   2.586
 4277TIP3    H112772   2.801   5.145   2.539
 4277TIP3    H212773   2.788   5.080   2.675
 4278TIP3   OH212774   6.921   3.525   0.527
 4278TIP3    H112775   6.888   3.479   0.605
 4278TIP3    H212776   6.980   3.461   0.486
 4279TIP3   OH212777   7.196   4.651   2.010
 4279TIP3    H112778   7.229   4.561   2.015
 4279TIP3    H212779   7.244   4.698   2.078
 4280TIP3   OH212780   7.719   7.718   2.305
 4280TIP3    H112781   7.666   7.780   2.254
 4280TIP3    H212782   7.656   7.675   2.362
 4281TIP3   OH212783   0.953   5.704   6.124
 4281TIP3    H112784   1.038   5.668   6.152
 4281TIP3    H212785   0.960   5.708   6.029
 4282TIP3   OH212786   5.026   5.571   5.764
 4282TIP3    H112787   5.032   5.489   5.813
 4282TIP3    H212788   4.962   5.553   5.695
 4283TIP3   OH212789   3.335   6.540   3.449
 4283TIP3    H112790   3.358   6.616   3.503
 4283TIP3    H212791   3.416   6.517   3.404
 4284TIP3   OH212792   2.066   0.079   5.292
 4284TIP3    H112793   2.009   0.106   5.220
 4284TIP3    H212794   2.153   0.113   5.269
 4285TIP3   OH212795   4.750   7.196   5.017
 4285TIP3    H112796   4.740   7.244   4.935
 4285TIP3    H212797   4.814   7.127   4.997
 4286TIP3   OH212798   5.451   7.679   1.576
 4286TIP3    H112799   5.414   7.730   1.648
 4286TIP3    H212800   5.382   7.618   1.551
 4287TIP3   OH212801   3.076   6.722   5.666
 4287TIP3    H112802   3.073   6.672   5.747
 4287TIP3    H212803   3.067   6.656   5.597
 4288TIP3   OH212804   5.937   4.798   4.734
 4288TIP3    H112805   5.949   4.846   4.652
 4288TIP3    H212806   5.900   4.714   4.708
 4289TIP3   OH212807   4.577   1.144   5.007
 4289TIP3    H112808   4.516   1.196   5.059
 4289TIP3    H212809   4.567   1.055   5.042
 4290TIP3   OH212810   7.557   0.625   5.682
 4290TIP3    H112811   7.557   0.697   5.746
 4290TIP3    H212812   7.645   0.590   5.685
 4291TIP3   OH212813   8.266   1.116   0.909
 4291TIP3    H112814   8.244   1.145   0.998
 4291TIP3    H212815   8.184   1.120   0.861
 4292TIP3   OH212816   0.162   5.557   4.702
 4292TIP3    H112817   0.153   5.481   4.645
 4292TIP3    H212818   0.098   5.543   4.771
 4293TIP3   OH212819   6.272   2.998   1.018
 4293TIP3    H112820   6.286   2.972   1.109
 4293TIP3    H212821   6.190   3.048   1.020
 4294TIP3   OH212822   4.011   5.261   2.848
 4294TIP3    H112823   3.996   5.292   2.937
 4294TIP3    H212824   3.949   5.311   2.794
 4295TIP3   OH212825   3.248   6.116   3.214
 4295TIP3    H112826   3.335   6.155   3.217
 4295TIP3    H212827   3.214   6.139   3.128
 4296TIP3   OH212828   0.115   3.685   5.463
 4296TIP3    H112829   0.037   3.715   5.418
 4296TIP3    H212830   0.092   3.598   5.496
 4297TIP3   OH212831   2.666   2.647   5.830
 4297TIP3    H112832   2.718   2.720   5.798
 4297TIP3    H212833   2.676   2.579   5.762
 4298TIP3   OH212834   6.900   6.613   1.286
 4298TIP3    H112835   6.841   6.538   1.294
 4298TIP3    H212836   6.841   6.689   1.282
 4299TIP3   OH212837   4.079   1.509   2.886
 4299TIP3    H112838   4.144   1.456   2.933
 4299TIP3    H212839   4.079   1.593   2.933
 4300TIP3   OH212840   2.646   7.493   4.126
 4300TIP3    H112841   2.707   7.460   4.192
 4300TIP3    H212842   2.698   7.498   4.046
 4301TIP3   OH212843   0.942   1.888   0.948
 4301TIP3    H112844   0.965   1.981   0.956
 4301TIP3    H212845   0.861   1.879   0.997
 4302TIP3   OH212846   7.650   7.652   0.959
 4302TIP3    H112847   7.592   7.700   0.900
 4302TIP3    H212848   7.667   7.713   1.031
 4303TIP3   OH212849   8.257   2.423   2.912
 4303TIP3    H112850   8.253   2.359   2.841
 4303TIP3    H212851   8.339   2.405   2.957
 4304TIP3   OH212852   5.205   3.834   5.435
 4304TIP3    H112853   5.205   3.744   5.468
 4304TIP3    H212854   5.241   3.828   5.347
 4305TIP3   OH212855   5.932   2.733   1.914
 4305TIP3    H112856   5.985   2.747   1.836
 4305TIP3    H212857   5.894   2.818   1.934
 4306TIP3   OH212858   3.464   3.801   0.951
 4306TIP3    H112859   3.547   3.781   0.908
 4306TIP3    H212860   3.407   3.834   0.881
 4307TIP3   OH212861   3.155   2.425   2.408
 4307TIP3    H112862   3.177   2.418   2.315
 4307TIP3    H212863   3.124   2.514   2.419
 4308TIP3   OH212864   0.239   0.170   0.980
 4308TIP3    H112865   0.191   0.243   1.020
 4308TIP3    H212866   0.173   0.101   0.970
 4309TIP3   OH212867   4.096   4.501   1.479
 4309TIP3    H112868   4.090   4.583   1.527
 4309TIP3    H212869   4.190   4.487   1.466
 4310TIP3   OH212870   7.958   5.039   3.898
 4310TIP3    H112871   8.014   4.983   3.845
 4310TIP3    H212872   7.975   5.127   3.866
 4311TIP3   OH212873   6.499   6.076   2.896
 4311TIP3    H112874   6.539   6.129   2.965
 4311TIP3    H212875   6.420   6.125   2.871
 4312TIP3   OH212876   7.370   4.850   6.037
 4312TIP3    H112877   7.379   4.755   6.029
 4312TIP3    H212878   7.352   4.866   6.129
 4313TIP3   OH212879   7.086   4.497   3.340
 4313TIP3    H112880   7.066   4.579   3.294
 4313TIP3    H212881   7.182   4.495   3.345
 4314TIP3   OH212882   5.686   5.905   5.949
 4314TIP3    H112883   5.733   5.880   6.028
 4314TIP3    H212884   5.598   5.870   5.962
 4315TIP3   OH212885   4.263   2.601   1.578
 4315TIP3    H112886   4.271   2.586   1.673
 4315TIP3    H212887   4.245   2.514   1.542
 4316TIP3   OH212888   1.833   2.550   1.840
 4316TIP3    H112889   1.854   2.589   1.924
 4316TIP3    H212890   1.896   2.479   1.830
 4317TIP3   OH212891   2.251   0.511   3.510
 4317TIP3    H112892   2.249   0.552   3.424
 4317TIP3    H212893   2.211   0.425   3.498
 4318TIP3   OH212894   4.232   4.749   6.014
 4318TIP3    H112895   4.140   4.761   6.035
 4318TIP3    H212896   4.279   4.781   6.092
 4319TIP3   OH212897   4.014   6.264   0.185
 4319TIP3    H112898   3.922   6.292   0.186
 4319TIP3    H212899   4.012   6.173   0.214
 4320TIP3   OH212900   0.688   1.982   1.590
 4320TIP3    H112901   0.697   1.976   1.685
 4320TIP3    H212902   0.728   1.902   1.557
 4321TIP3   OH212903   3.059   0.651   4.886
 4321TIP3    H112904   3.130   0.693   4.837
 4321TIP3    H212905   3.034   0.716   4.952
 4322TIP3   OH212906   7.906   1.131   6.398
 4322TIP3    H112907   7.853   1.080   6.338
 4322TIP3    H212908   7.950   1.196   6.343
 4323TIP3   OH212909   5.778   4.510   1.155
 4323TIP3    H112910   5.828   4.429   1.157
 4323TIP3    H212911   5.819   4.566   1.221
 4324TIP3   OH212912   5.785   5.533   2.750
 4324TIP3    H112913   5.850   5.603   2.762
 4324TIP3    H212914   5.739   5.557   2.669
 4325TIP3   OH212915   4.066   1.672   3.275
 4325TIP3    H112916   4.063   1.697   3.183
 4325TIP3    H212917   4.141   1.613   3.281
 4326TIP3   OH212918   4.908   5.203   2.664
 4326TIP3    H112919   4.849   5.128   2.676
 4326TIP3    H212920   4.953   5.212   2.748
 4327TIP3   OH212921   2.016   5.362   3.280
 4327TIP3    H112922   1.932   5.317   3.282
 4327TIP3    H212923   2.056   5.334   3.198
 4328TIP3   OH212924   6.692   2.761   5.837
 4328TIP3    H112925   6.627   2.730   5.775
 4328TIP3    H212926   6.660   2.732   5.923
 4329TIP3   OH212927   0.222   6.675   0.298
 4329TIP3    H112928   0.201   6.766   0.275
 4329TIP3    H212929   0.177   6.660   0.381
 4330TIP3   OH212930   3.281   3.605   2.011
 4330TIP3    H112931   3.369   3.609   2.050
 4330TIP3    H212932   3.294   3.563   1.926
 4331TIP3   OH212933   1.107   3.871   5.678
 4331TIP3    H112934   1.172   3.859   5.609
 4331TIP3    H212935   1.146   3.829   5.755
 4332TIP3   OH212936   6.654   2.561   5.632
 4332TIP3    H112937   6.615   2.562   5.545
 4332TIP3    H212938   6.748   2.562   5.616
 4333TIP3   OH212939   6.015   6.138   2.155
 4333TIP3    H112940   5.949   6.207   2.151
 4333TIP3    H212941   5.965   6.056   2.154
 4334TIP3   OH212942   4.181   3.196   5.098
 4334TIP3    H112943   4.226   3.262   5.044
 4334TIP3    H212944   4.252   3.147   5.139
 4335TIP3   OH212945   1.753   2.714   5.867
 4335TIP3    H112946   1.704   2.655   5.809
 4335TIP3    H212947   1.842   2.714   5.831
 4336TIP3   OH212948   8.160   3.089   2.375
 4336TIP3    H112949   8.188   3.085   2.467
 4336TIP3    H212950   8.241   3.105   2.326
 4337TIP3   OH212951   7.334   0.517   1.545
 4337TIP3    H112952   7.256   0.570   1.527
 4337TIP3    H212953   7.308   0.428   1.520
 4338TIP3   OH212954   5.781   1.223   6.353
 4338TIP3    H112955   5.712   1.186   6.408
 4338TIP3    H212956   5.840   1.150   6.336
 4339TIP3   OH212957   4.881   2.036   0.116
 4339TIP3    H112958   4.912   2.062   0.029
 4339TIP3    H212959   4.787   2.052   0.114
 4340TIP3   OH212960   1.065   1.680   4.399
 4340TIP3    H112961   1.106   1.691   4.485
 4340TIP3    H212962   0.976   1.652   4.419
 4341TIP3   OH212963   6.080   1.422   5.966
 4341TIP3    H112964   6.056   1.433   5.874
 4341TIP3    H212965   6.075   1.510   6.003
 4342TIP3   OH212966   2.699   3.085   3.690
 4342TIP3    H112967   2.679   3.158   3.748
 4342TIP3    H212968   2.756   3.028   3.742
 4343TIP3   OH212969   1.824   6.109   6.071
 4343TIP3    H112970   1.881   6.183   6.089
 4343TIP3    H212971   1.807   6.069   6.156
 4344TIP3   OH212972   2.996   5.294   1.029
 4344TIP3    H112973   2.951   5.275   1.111
 4344TIP3    H212974   2.934   5.344   0.977
 4345TIP3   OH212975   7.178   7.243   1.799
 4345TIP3    H112976   7.169   7.220   1.891
 4345TIP3    H212977   7.146   7.333   1.793
 4346TIP3   OH212978   6.310   1.752   4.350
 4346TIP3    H112979   6.272   1.754   4.262
 4346TIP3    H212980   6.269   1.826   4.395
 4347TIP3   OH212981   6.633   5.483   4.220
 4347TIP3    H112982   6.628   5.558   4.161
 4347TIP3    H212983   6.706   5.504   4.279
 4348TIP3   OH212984   8.401   6.510   1.266
 4348TIP3    H112985   8.419   6.424   1.227
 4348TIP3    H212986   8.324   6.542   1.218
 4349TIP3   OH212987   6.290   0.288   4.126
 4349TIP3    H112988   6.327   0.332   4.202
 4349TIP3    H212989   6.235   0.219   4.162
 4350TIP3   OH212990   3.150   3.943   4.950
 4350TIP3    H112991   3.101   4.017   4.986
 4350TIP3    H212992   3.115   3.867   4.995
 4351TIP3   OH212993   1.097   6.544   3.473
 4351TIP3    H112994   1.027   6.496   3.518
 4351TIP3    H212995   1.177   6.502   3.503
 4352TIP3   OH212996   3.305   2.166   3.380
 4352TIP3    H112997   3.283   2.170   3.473
 4352TIP3    H212998   3.377   2.228   3.369
 4353TIP3   OH212999   2.852   0.099   2.770
 4353TIP3    H113000   2.838   0.165   2.838
 4353TIP3    H213001   2.916   0.039   2.807
 4354TIP3   OH213002   1.637   2.809   0.863
 4354TIP3    H113003   1.696   2.880   0.838
 4354TIP3    H213004   1.600   2.777   0.781
 4355TIP3   OH213005   1.338   1.886   3.276
 4355TIP3    H113006   1.416   1.928   3.313
 4355TIP3    H213007   1.267   1.909   3.335
 4356TIP3   OH213008   2.345   5.216   1.316
 4356TIP3    H113009   2.371   5.141   1.262
 4356TIP3    H213010   2.348   5.290   1.256
 4357TIP3   OH213011   2.864   5.875   6.511
 4357TIP3    H113012   2.912   5.918   6.582
 4357TIP3    H213013   2.847   5.786   6.544
 4358TIP3   OH213014   2.394   4.818   2.643
 4358TIP3    H113015   2.370   4.847   2.556
 4358TIP3    H213016   2.357   4.884   2.702
 4359TIP3   OH213017   6.461   7.882   2.192
 4359TIP3    H113018   6.481   7.793   2.222
 4359TIP3    H213019   6.380   7.905   2.238
 4360TIP3   OH213020   2.371   0.550   0.204
 4360TIP3    H113021   2.408   0.624   0.155
 4360TIP3    H213022   2.277   0.558   0.191
 4361TIP3   OH213023   1.944   0.508   4.702
 4361TIP3    H113024   1.862   0.538   4.741
 4361TIP3    H213025   2.008   0.513   4.772
 4362TIP3   OH213026   6.380   3.157   3.770
 4362TIP3    H113027   6.396   3.064   3.751
 4362TIP3    H213028   6.286   3.168   3.760
 4363TIP3   OH213029   2.052   4.559   2.427
 4363TIP3    H113030   2.014   4.630   2.479
 4363TIP3    H213031   2.043   4.588   2.336
 4364TIP3   OH213032   5.849   1.915   3.943
 4364TIP3    H113033   5.809   1.990   3.988
 4364TIP3    H213034   5.901   1.955   3.873
 4365TIP3   OH213035   2.300   3.977   0.106
 4365TIP3    H113036   2.223   3.982   0.162
 4365TIP3    H213037   2.272   3.924   0.032
 4366TIP3   OH213038   4.311   4.633   5.262
 4366TIP3    H113039   4.259   4.583   5.324
 4366TIP3    H213040   4.255   4.707   5.238
 4367TIP3   OH213041   8.145   5.019   0.645
 4367TIP3    H113042   8.079   4.983   0.704
 4367TIP3    H213043   8.148   5.112   0.667
 4368TIP3   OH213044   2.356   7.780   5.851
 4368TIP3    H113045   2.379   7.687   5.849
 4368TIP3    H213046   2.323   7.796   5.939
 4369TIP3   OH213047   0.154   5.481   6.443
 4369TIP3    H113048   0.166   5.422   6.369
 4369TIP3    H213049   0.125   5.425   6.514
 4370TIP3   OH213050   3.683   4.003   0.643
 4370TIP3    H113051   3.658   4.067   0.710
 4370TIP3    H213052   3.632   4.028   0.566
 4371TIP3   OH213053   6.601   0.448   0.741
 4371TIP3    H113054   6.640   0.536   0.747
 4371TIP3    H213055   6.564   0.432   0.828
 4372TIP3   OH213056   2.700   3.820   1.591
 4372TIP3    H113057   2.781   3.831   1.541
 4372TIP3    H213058   2.701   3.892   1.654
 4373TIP3   OH213059   2.175   3.089   1.568
 4373TIP3    H113060   2.224   3.127   1.495
 4373TIP3    H213061   2.241   3.040   1.617
 4374TIP3   OH213062   8.258   4.223   1.117
 4374TIP3    H113063   8.242   4.183   1.031
 4374TIP3    H213064   8.176   4.269   1.137
 4375TIP3   OH213065   1.384   7.649   1.398
 4375TIP3    H113066   1.418   7.644   1.308
 4375TIP3    H213067   1.459   7.625   1.453
 4376TIP3   OH213068   2.928   3.543   4.803
 4376TIP3    H113069   2.897   3.626   4.767
 4376TIP3    H213070   2.848   3.498   4.831
 4377TIP3   OH213071   2.062   2.918   1.844
 4377TIP3    H113072   2.120   2.882   1.776
 4377TIP3    H213073   2.009   2.983   1.798
 4378TIP3   OH213074   3.171   4.844   4.689
 4378TIP3    H113075   3.137   4.931   4.709
 4378TIP3    H213076   3.242   4.831   4.753
 4379TIP3   OH213077   7.110   7.411   0.795
 4379TIP3    H113078   7.161   7.447   0.867
 4379TIP3    H213079   7.175   7.370   0.738
 4380TIP3   OH213080   4.074   6.688   2.429
 4380TIP3    H113081   4.136   6.696   2.356
 4380TIP3    H213082   3.993   6.726   2.395
 4381TIP3   OH213083   4.714   1.207   5.841
 4381TIP3    H113084   4.810   1.206   5.844
 4381TIP3    H213085   4.691   1.140   5.777
 4382TIP3   OH213086   3.588   4.280   2.267
 4382TIP3    H113087   3.520   4.324   2.215
 4382TIP3    H213088   3.622   4.348   2.325
 4383TIP3   OH213089   3.586   3.485   6.376
 4383TIP3    H113090   3.678   3.464   6.393
 4383TIP3    H213091   3.569   3.563   6.430
 4384TIP3   OH213092   4.837   3.259   4.926
 4384TIP3    H113093   4.915   3.238   4.876
 4384TIP3    H213094   4.848   3.351   4.951
 4385TIP3   OH213095   3.774   0.300   5.601
 4385TIP3    H113096   3.822   0.220   5.623
 4385TIP3    H213097   3.758   0.293   5.506
 4386TIP3   OH213098   4.497   4.456   4.830
 4386TIP3    H113099   4.546   4.533   4.857
 4386TIP3    H213100   4.454   4.425   4.909
 4387TIP3   OH213101   7.851   0.943   0.211
 4387TIP3    H113102   7.890   0.950   0.124
 4387TIP3    H213103   7.772   0.997   0.206
 4388TIP3   OH213104   4.022   1.183   1.561
 4388TIP3    H113105   4.055   1.093   1.557
 4388TIP3    H213106   4.034   1.217   1.472
 4389TIP3   OH213107   1.373   7.307   0.363
 4389TIP3    H113108   1.344   7.222   0.328
 4389TIP3    H213109   1.450   7.329   0.312
 4390TIP3   OH213110   2.950   0.973   0.086
 4390TIP3    H113111   2.947   0.918   0.164
 4390TIP3    H213112   2.937   1.062   0.119
 4391TIP3   OH213113   5.769   2.922   1.071
 4391TIP3    H113114   5.717   2.932   1.150
 4391TIP3    H213115   5.727   2.851   1.023
 4392TIP3   OH213116   7.226   1.008   3.083
 4392TIP3    H113117   7.163   1.048   3.143
 4392TIP3    H213118   7.209   1.050   2.999
 4393TIP3   OH213119   6.229   5.417   1.376
 4393TIP3    H113120   6.256   5.464   1.455
 4393TIP3    H213121   6.144   5.379   1.398
 4394TIP3   OH213122   3.420   6.608   5.990
 4394TIP3    H113123   3.456   6.524   6.018
 4394TIP3    H213124   3.380   6.645   6.069
 4395TIP3   OH213125   7.536   6.051   6.592
 4395TIP3    H113126   7.482   5.985   6.550
 4395TIP3    H213127   7.475   6.103   6.644
 4396TIP3   OH213128   2.411   5.813   4.045
 4396TIP3    H113129   2.495   5.854   4.024
 4396TIP3    H213130   2.346   5.883   4.035
 4397TIP3   OH213131   7.090   4.968   6.595
 4397TIP3    H113132   6.996   4.987   6.590
 4397TIP3    H213133   7.099   4.880   6.557
 4398TIP3   OH213134   2.370   2.690   6.222
 4398TIP3    H113135   2.424   2.623   6.181
 4398TIP3    H213136   2.398   2.772   6.181
 4399TIP3   OH213137   6.769   1.810   6.725
 4399TIP3    H113138   6.786   1.800   6.631
 4399TIP3    H213139   6.837   1.871   6.755
 4400TIP3   OH213140   1.959   0.521   3.782
 4400TIP3    H113141   1.947   0.613   3.806
 4400TIP3    H213142   1.906   0.509   3.704
 4401TIP3   OH213143   4.235   3.653   2.956
 4401TIP3    H113144   4.237   3.567   2.999
 4401TIP3    H213145   4.148   3.657   2.916
 4402TIP3   OH213146   6.283   6.468   1.897
 4402TIP3    H113147   6.367   6.446   1.938
 4402TIP3    H213148   6.277   6.410   1.821
 4403TIP3   OH213149   4.750   7.643   5.944
 4403TIP3    H113150   4.783   7.672   5.859
 4403TIP3    H213151   4.812   7.576   5.973
 4404TIP3   OH213152   5.464   4.008   2.535
 4404TIP3    H113153   5.425   3.925   2.507
 4404TIP3    H213154   5.502   3.989   2.620
 4405TIP3   OH213155   5.646   1.624   0.805
 4405TIP3    H113156   5.568   1.658   0.850
 4405TIP3    H213157   5.619   1.539   0.771
 4406TIP3   OH213158   6.312   0.377   2.864
 4406TIP3    H113159   6.262   0.304   2.901
 4406TIP3    H213160   6.272   0.455   2.902
 4407TIP3   OH213161   8.311   3.815   1.729
 4407TIP3    H113162   8.402   3.800   1.703
 4407TIP3    H213163   8.301   3.910   1.729
 4408TIP3   OH213164   7.721   1.413   6.399
 4408TIP3    H113165   7.631   1.444   6.410
 4408TIP3    H213166   7.712   1.323   6.368
 4409TIP3   OH213167   0.871   3.968   2.793
 4409TIP3    H113168   0.828   4.030   2.851
 4409TIP3    H213169   0.954   3.947   2.836
 4410TIP3   OH213170   7.724   3.958   2.662
 4410TIP3    H113171   7.793   3.894   2.679
 4410TIP3    H213172   7.749   3.998   2.578
 4411TIP3   OH213173   2.289   3.739   0.293
 4411TIP3    H113174   2.204   3.697   0.304
 4411TIP3    H213175   2.270   3.833   0.297
 4412TIP3   OH213176   1.793   4.449   3.529
 4412TIP3    H113177   1.741   4.398   3.591
 4412TIP3    H213178   1.841   4.384   3.477
 4413TIP3   OH213179   3.548   0.330   1.984
 4413TIP3    H113180   3.559   0.414   2.028
 4413TIP3    H213181   3.453   0.320   1.976
 4414TIP3   OH213182   3.276   7.167   3.195
 4414TIP3    H113183   3.240   7.248   3.160
 4414TIP3    H213184   3.201   7.108   3.202
 4415TIP3   OH213185   0.054   3.570   3.545
 4415TIP3    H113186  -0.007   3.642   3.531
 4415TIP3    H213187   0.069   3.534   3.457
 4416TIP3   OH213188   7.468   5.559   2.844
 4416TIP3    H113189   7.540   5.497   2.828
 4416TIP3    H213190   7.491   5.601   2.927
 4417TIP3   OH213191   3.175   6.471   1.747
 4417TIP3    H113192   3.265   6.443   1.767
 4417TIP3    H213193   3.123   6.436   1.818
 4418TIP3   OH213194   5.883   6.380   6.156
 4418TIP3    H113195   5.870   6.473   6.137
 4418TIP3    H213196   5.835   6.334   6.087
 4419TIP3   OH213197   7.585   7.630   0.112
 4419TIP3    H113198   7.609   7.651   0.021
 4419TIP3    H213199   7.643   7.557   0.136
 4420TIP3   OH213200   6.800   4.214   6.677
 4420TIP3    H113201   6.765   4.279   6.617
 4420TIP3    H213202   6.894   4.215   6.663
 4421TIP3   OH213203   2.147   0.126   6.192
 4421TIP3    H113204   2.099   0.048   6.166
 4421TIP3    H213205   2.155   0.177   6.111
 4422TIP3   OH213206   6.892   1.713   1.961
 4422TIP3    H113207   6.906   1.771   2.035
 4422TIP3    H213208   6.840   1.640   1.996
 4423TIP3   OH213209   6.029   2.431   6.038
 4423TIP3    H113210   5.961   2.365   6.046
 4423TIP3    H213211   6.082   2.403   5.964
 4424TIP3   OH213212   1.335   7.152   6.809
 4424TIP3    H113213   1.256   7.142   6.862
 4424TIP3    H213214   1.305   7.199   6.731
 4425TIP3   OH213215   8.304   5.014   3.036
 4425TIP3    H113216   8.295   4.919   3.043
 4425TIP3    H213217   8.380   5.027   2.981
 4426TIP3   OH213218   5.628   5.487   5.289
 4426TIP3    H113219   5.576   5.568   5.283
 4426TIP3    H213220   5.579   5.432   5.350
 4427TIP3   OH213221   4.551   7.624   0.697
 4427TIP3    H113222   4.558   7.632   0.602
 4427TIP3    H213223   4.465   7.586   0.712
 4428TIP3   OH213224   3.524   2.470   5.219
 4428TIP3    H113225   3.601   2.474   5.275
 4428TIP3    H213226   3.527   2.552   5.169
 4429TIP3   OH213227   2.595   7.534   0.612
 4429TIP3    H113228   2.654   7.607   0.593
 4429TIP3    H213229   2.570   7.500   0.527
 4430TIP3   OH213230   1.409   4.972   5.906
 4430TIP3    H113231   1.443   5.052   5.948
 4430TIP3    H213232   1.487   4.923   5.882
 4431TIP3   OH213233   6.248   0.172   2.401
 4431TIP3    H113234   6.342   0.176   2.386
 4431TIP3    H213235   6.228   0.250   2.452
 4432TIP3   OH213236   0.061   3.712   4.331
 4432TIP3    H113237  -0.007   3.764   4.373
 4432TIP3    H213238   0.134   3.713   4.394
 4433TIP3   OH213239   0.455   6.753   1.906
 4433TIP3    H113240   0.466   6.785   1.817
 4433TIP3    H213241   0.485   6.663   1.903
 4434TIP3   OH213242   8.025   6.808   3.952
 4434TIP3    H113243   8.049   6.736   3.893
 4434TIP3    H213244   7.934   6.828   3.928
 4435TIP3   OH213245   3.987   3.922   6.404
 4435TIP3    H113246   3.998   4.017   6.406
 4435TIP3    H213247   4.071   3.888   6.434
 4436TIP3   OH213248   2.935   5.484   5.041
 4436TIP3    H113249   2.861   5.440   5.084
 4436TIP3    H213250   3.009   5.425   5.055
 4437TIP3   OH213251   3.434   0.815   6.432
 4437TIP3    H113252   3.505   0.790   6.373
 4437TIP3    H213253   3.395   0.732   6.459
 4438TIP3   OH213254   7.312   5.256   2.877
 4438TIP3    H113255   7.255   5.331   2.864
 4438TIP3    H213256   7.370   5.257   2.801
 4439TIP3   OH213257   2.330   1.138   5.967
 4439TIP3    H113258   2.395   1.069   5.979
 4439TIP3    H213259   2.279   1.136   6.048
 4440TIP3   OH213260   1.076   4.861   6.009
 4440TIP3    H113261   0.983   4.873   5.989
 4440TIP3    H213262   1.122   4.910   5.940
 4441TIP3   OH213263   5.290   1.564   5.661
 4441TIP3    H113264   5.372   1.525   5.630
 4441TIP3    H213265   5.313   1.603   5.746
 4442TIP3   OH213266   7.719   1.997   5.128
 4442TIP3    H113267   7.683   1.918   5.169
 4442TIP3    H213268   7.814   1.986   5.134
 4443TIP3   OH213269   2.124   7.049   3.474
 4443TIP3    H113270   2.210   7.024   3.508
 4443TIP3    H213271   2.065   6.979   3.504
 4444TIP3   OH213272   1.461   3.507   1.570
 4444TIP3    H113273   1.465   3.413   1.586
 4444TIP3    H213274   1.368   3.527   1.570
 4445TIP3   OH213275   3.226   4.997   3.869
 4445TIP3    H113276   3.210   4.903   3.866
 4445TIP3    H213277   3.140   5.037   3.862
 4446TIP3   OH213278   5.261   3.335   6.700
 4446TIP3    H113279   5.343   3.378   6.724
 4446TIP3    H213280   5.216   3.321   6.784
 4447TIP3   OH213281   2.841   6.440   2.964
 4447TIP3    H113282   2.902   6.512   2.946
 4447TIP3    H213283   2.838   6.435   3.059
 4448TIP3   OH213284   2.625   2.993   4.607
 4448TIP3    H113285   2.656   2.926   4.545
 4448TIP3    H213286   2.531   2.999   4.589
 4449TIP3   OH213287   2.510   0.310   6.180
 4449TIP3    H113288   2.455   0.348   6.248
 4449TIP3    H213289   2.583   0.371   6.172
 4450TIP3   OH213290   4.056   6.309   5.843
 4450TIP3    H113291   4.075   6.319   5.750
 4450TIP3    H213292   4.083   6.219   5.864
 4451TIP3   OH213293   4.527   5.638   3.045
 4451TIP3    H113294   4.471   5.623   3.121
 4451TIP3    H213295   4.586   5.709   3.072
 4452TIP3   OH213296   5.332   5.694   3.097
 4452TIP3    H113297   5.310   5.670   3.007
 4452TIP3    H213298   5.423   5.666   3.107
 4453TIP3   OH213299   3.704   0.450   5.366
 4453TIP3    H113300   3.654   0.482   5.441
 4453TIP3    H213301   3.639   0.441   5.296
 4454TIP3   OH213302   2.599   3.698   2.177
 4454TIP3    H113303   2.661   3.744   2.121
 4454TIP3    H213304   2.571   3.623   2.125
 4455TIP3   OH213305   3.978   3.997   1.034
 4455TIP3    H113306   4.067   4.014   1.003
 4455TIP3    H213307   3.928   4.074   1.006
 4456TIP3   OH213308   3.543   1.860   3.498
 4456TIP3    H113309   3.451   1.844   3.477
 4456TIP3    H213310   3.569   1.781   3.547
 4457TIP3   OH213311   0.440   6.920   0.292
 4457TIP3    H113312   0.350   6.952   0.295
 4457TIP3    H213313   0.442   6.862   0.216
 4458TIP3   OH213314   3.760   5.731   0.895
 4458TIP3    H113315   3.730   5.642   0.874
 4458TIP3    H213316   3.686   5.787   0.872
 4459TIP3   OH213317   5.333   0.381   3.952
 4459TIP3    H113318   5.418   0.338   3.962
 4459TIP3    H213319   5.288   0.331   3.885
 4460TIP3   OH213320   4.931   0.462   5.991
 4460TIP3    H113321   4.883   0.380   5.999
 4460TIP3    H213322   4.999   0.444   5.926
 4461TIP3   OH213323   4.377   4.874   4.171
 4461TIP3    H113324   4.350   4.966   4.172
 4461TIP3    H213325   4.295   4.825   4.166
 4462TIP3   OH213326   1.322   2.665   5.271
 4462TIP3    H113327   1.411   2.631   5.275
 4462TIP3    H213328   1.291   2.663   5.362
 4463TIP3   OH213329   0.333   4.365   6.327
 4463TIP3    H113330   0.250   4.335   6.365
 4463TIP3    H213331   0.374   4.285   6.293
 4464TIP3   OH213332   6.812   7.509   4.820
 4464TIP3    H113333   6.810   7.416   4.841
 4464TIP3    H213334   6.755   7.550   4.885
 4465TIP3   OH213335   7.350   3.238   2.922
 4465TIP3    H113336   7.263   3.216   2.955
 4465TIP3    H213337   7.395   3.153   2.915
 4466TIP3   OH213338   5.009   5.961   0.098
 4466TIP3    H113339   5.084   6.021   0.104
 4466TIP3    H213340   4.937   6.017   0.067
 4467TIP3   OH213341   4.620   0.730   0.553
 4467TIP3    H113342   4.621   0.651   0.607
 4467TIP3    H213343   4.628   0.802   0.617
 4468TIP3   OH213344   7.505   6.366   2.235
 4468TIP3    H113345   7.532   6.458   2.236
 4468TIP3    H213346   7.409   6.369   2.234
 4469TIP3   OH213347   1.363   1.020   3.125
 4469TIP3    H113348   1.413   1.089   3.169
 4469TIP3    H213349   1.272   1.050   3.129
 4470TIP3   OH213350   2.431   1.929   0.908
 4470TIP3    H113351   2.343   1.890   0.906
 4470TIP3    H213352   2.489   1.859   0.877
 4471TIP3   OH213353   7.106   5.798   4.472
 4471TIP3    H113354   7.157   5.847   4.408
 4471TIP3    H213355   7.076   5.720   4.425
 4472TIP3   OH213356   0.439   3.316   4.650
 4472TIP3    H113357   0.389   3.236   4.666
 4472TIP3    H213358   0.513   3.288   4.596
 4473TIP3   OH213359   0.382   6.707   3.666
 4473TIP3    H113360   0.377   6.723   3.572
 4473TIP3    H213361   0.458   6.650   3.677
 4474TIP3   OH213362   8.044   2.322   3.692
 4474TIP3    H113363   7.965   2.275   3.665
 4474TIP3    H213364   8.070   2.279   3.774
 4475TIP3   OH213365   3.100   7.368   4.864
 4475TIP3    H113366   3.092   7.460   4.839
 4475TIP3    H213367   3.078   7.366   4.957
 4476TIP3   OH213368   2.200   2.138   3.914
 4476TIP3    H113369   2.159   2.057   3.945
 4476TIP3    H213370   2.259   2.110   3.844
 4477TIP3   OH213371   5.320   6.641   2.580
 4477TIP3    H113372   5.299   6.681   2.495
 4477TIP3    H213373   5.411   6.666   2.596
 4478TIP3   OH213374   7.258   5.399   4.817
 4478TIP3    H113375   7.173   5.397   4.773
 4478TIP3    H213376   7.258   5.482   4.864
 4479TIP3   OH213377   3.279   4.263   0.352
 4479TIP3    H113378   3.202   4.209   0.369
 4479TIP3    H213379   3.329   4.213   0.287
 4480TIP3   OH213380   1.307   2.600   0.460
 4480TIP3    H113381   1.347   2.567   0.380
 4480TIP3    H213382   1.330   2.535   0.527
 4481TIP3   OH213383   0.822   5.400   2.135
 4481TIP3    H113384   0.793   5.456   2.063
 4481TIP3    H213385   0.744   5.352   2.162
 4482TIP3   OH213386   6.090   6.440   5.886
 4482TIP3    H113387   6.097   6.356   5.930
 4482TIP3    H213388   6.071   6.502   5.957
 4483TIP3   OH213389   4.887   4.811   2.500
 4483TIP3    H113390   4.947   4.786   2.570
 4483TIP3    H213391   4.944   4.833   2.426
 4484TIP3   OH213392   3.480   2.479   5.588
 4484TIP3    H113393   3.401   2.533   5.584
 4484TIP3    H213394   3.448   2.389   5.579
 4485TIP3   OH213395   5.690   4.765   0.399
 4485TIP3    H113396   5.627   4.693   0.403
 4485TIP3    H213397   5.772   4.723   0.373
 4486TIP3   OH213398   4.371   6.273   0.475
 4486TIP3    H113399   4.350   6.181   0.493
 4486TIP3    H213400   4.297   6.322   0.509
 4487TIP3   OH213401   7.228   1.005   4.143
 4487TIP3    H113402   7.271   0.925   4.111
 4487TIP3    H213403   7.167   0.974   4.209
 4488TIP3   OH213404   6.585   1.102   4.472
 4488TIP3    H113405   6.603   1.181   4.524
 4488TIP3    H213406   6.509   1.063   4.513
 4489TIP3   OH213407   5.693   0.930   3.312
 4489TIP3    H113408   5.768   0.983   3.284
 4489TIP3    H213409   5.729   0.872   3.379
 4490TIP3   OH213410   3.836   4.110   3.518
 4490TIP3    H113411   3.823   4.037   3.457
 4490TIP3    H213412   3.830   4.071   3.605
 4491TIP3   OH213413   3.332   2.726   0.196
 4491TIP3    H113414   3.252   2.769   0.165
 4491TIP3    H213415   3.344   2.652   0.137
 4492TIP3   OH213416   1.672   7.255   0.363
 4492TIP3    H113417   1.741   7.249   0.429
 4492TIP3    H213418   1.665   7.166   0.328
 4493TIP3   OH213419   5.821   3.543   6.433
 4493TIP3    H113420   5.814   3.448   6.422
 4493TIP3    H213421   5.874   3.571   6.358
 4494TIP3   OH213422   4.594   4.060   6.039
 4494TIP3    H113423   4.507   4.024   6.020
 4494TIP3    H213424   4.643   3.986   6.075
 4495TIP3   OH213425   7.114   3.002   4.496
 4495TIP3    H113426   7.186   3.026   4.439
 4495TIP3    H213427   7.085   2.916   4.465
 4496TIP3   OH213428   7.247   5.081   1.518
 4496TIP3    H113429   7.167   5.072   1.466
 4496TIP3    H213430   7.266   5.175   1.517
 4497TIP3   OH213431   4.671   5.591   4.180
 4497TIP3    H113432   4.742   5.575   4.119
 4497TIP3    H213433   4.697   5.546   4.260
 4498TIP3   OH213434   8.325   3.450   4.853
 4498TIP3    H113435   8.244   3.449   4.802
 4498TIP3    H213436   8.394   3.437   4.788
 4499TIP3   OH213437   2.743   5.946   1.175
 4499TIP3    H113438   2.692   5.947   1.256
 4499TIP3    H213439   2.793   6.028   1.176
 4500TIP3   OH213440   6.074   4.291   0.880
 4500TIP3    H113441   6.035   4.297   0.793
 4500TIP3    H213442   6.166   4.314   0.867
 4501TIP3   OH213443   0.258   4.860   0.739
 4501TIP3    H113444   0.183   4.915   0.719
 4501TIP3    H213445   0.331   4.922   0.747
 4502TIP3   OH213446   0.443   4.285   5.917
 4502TIP3    H113447   0.377   4.344   5.951
 4502TIP3    H213448   0.517   4.292   5.978
 4503TIP3   OH213449   0.587   7.765   4.775
 4503TIP3    H113450   0.634   7.784   4.694
 4503TIP3    H213451   0.622   7.828   4.839
 4504TIP3   OH213452   6.687   4.147   4.119
 4504TIP3    H113453   6.643   4.130   4.036
 4504TIP3    H213454   6.668   4.071   4.173
 4505TIP3   OH213455   5.212   7.727   1.158
 4505TIP3    H113456   5.156   7.654   1.182
 4505TIP3    H213457   5.175   7.760   1.076
 4506TIP3   OH213458   0.202   5.886   4.757
 4506TIP3    H113459   0.112   5.918   4.752
 4506TIP3    H213460   0.197   5.797   4.722
 4507TIP3   OH213461   3.546   1.651   3.023
 4507TIP3    H113462   3.630   1.627   3.062
 4507TIP3    H213463   3.544   1.603   2.940
 4508TIP3   OH213464   2.890   1.988   0.186
 4508TIP3    H113465   2.943   1.928   0.238
 4508TIP3    H213466   2.800   1.973   0.215
 4509TIP3   OH213467   5.877   0.392   5.234
 4509TIP3    H113468   5.916   0.325   5.178
 4509TIP3    H213469   5.942   0.462   5.237
 4510TIP3   OH213470   7.892   5.828   2.453
 4510TIP3    H113471   7.865   5.737   2.439
 4510TIP3    H213472   7.828   5.862   2.516
 4511TIP3   OH213473   6.719   2.785   1.645
 4511TIP3    H113474   6.764   2.794   1.729
 4511TIP3    H213475   6.762   2.711   1.602
 4512TIP3   OH213476   6.524   1.789   3.550
 4512TIP3    H113477   6.474   1.864   3.518
 4512TIP3    H213478   6.593   1.828   3.604
 4513TIP3   OH213479   2.770   3.553   5.463
 4513TIP3    H113480   2.675   3.551   5.473
 4513TIP3    H213481   2.799   3.467   5.495
 4514TIP3   OH213482   3.103   7.047   2.179
 4514TIP3    H113483   3.105   7.118   2.244
 4514TIP3    H213484   3.040   7.076   2.113
 4515TIP3   OH213485   1.198   7.242   6.484
 4515TIP3    H113486   1.228   7.154   6.504
 4515TIP3    H213487   1.151   7.270   6.563
 4516TIP3   OH213488   0.996   6.831   1.735
 4516TIP3    H113489   0.974   6.861   1.823
 4516TIP3    H213490   0.931   6.764   1.715
 4517TIP3   OH213491   1.946   7.710   3.579
 4517TIP3    H113492   1.921   7.713   3.671
 4517TIP3    H213493   1.944   7.618   3.556
 4518TIP3   OH213494   4.052   6.143   2.406
 4518TIP3    H113495   4.062   6.234   2.376
 4518TIP3    H213496   4.032   6.094   2.326
 4519TIP3   OH213497   7.044   5.008   2.800
 4519TIP3    H113498   7.022   4.944   2.867
 4519TIP3    H213499   6.966   5.063   2.793
 4520TIP3   OH213500   3.420   7.394   3.414
 4520TIP3    H113501   3.403   7.487   3.398
 4520TIP3    H213502   3.464   7.364   3.335
 4521TIP3   OH213503   7.547   7.563   5.995
 4521TIP3    H113504   7.627   7.513   5.981
 4521TIP3    H213505   7.478   7.496   6.002
 4522TIP3   OH213506   1.821   2.952   3.140
 4522TIP3    H113507   1.745   2.955   3.081
 4522TIP3    H213508   1.888   3.003   3.095
 4523TIP3   OH213509   1.964   1.857   2.256
 4523TIP3    H113510   2.005   1.943   2.262
 4523TIP3    H213511   1.873   1.874   2.232
 4524TIP3   OH213512   6.389   0.390   4.347
 4524TIP3    H113513   6.427   0.454   4.406
 4524TIP3    H213514   6.457   0.322   4.337
 4525TIP3   OH213515   2.454   3.309   6.538
 4525TIP3    H113516   2.459   3.243   6.469
 4525TIP3    H213517   2.369   3.351   6.525
 4526TIP3   OH213518   6.999   2.018   0.300
 4526TIP3    H113519   7.028   2.081   0.367
 4526TIP3    H213520   6.923   2.060   0.260
 4527TIP3   OH213521   2.092   3.530   0.007
 4527TIP3    H113522   1.998   3.524  -0.012
 4527TIP3    H213523   2.098   3.523   0.102
 4528TIP3   OH213524   0.203   3.694  -0.003
 4528TIP3    H113525   0.173   3.703   0.087
 4528TIP3    H213526   0.270   3.762  -0.012
 4529TIP3   OH213527   2.603   1.705   2.906
 4529TIP3    H113528   2.673   1.759   2.943
 4529TIP3    H213529   2.632   1.686   2.816
 4530TIP3   OH213530   5.580   3.128   5.880
 4530TIP3    H113531   5.492   3.127   5.918
 4530TIP3    H213532   5.631   3.185   5.937
 4531TIP3   OH213533   0.443   5.473   6.455
 4531TIP3    H113534   0.502   5.537   6.494
 4531TIP3    H213535   0.357   5.514   6.460
 4532TIP3   OH213536   7.595   3.992   0.879
 4532TIP3    H113537   7.590   4.084   0.907
 4532TIP3    H213538   7.559   3.992   0.791
 4533TIP3   OH213539   5.759   0.546   1.711
 4533TIP3    H113540   5.746   0.491   1.788
 4533TIP3    H213541   5.725   0.632   1.736
 4534TIP3   OH213542   4.977   3.940   0.799
 4534TIP3    H113543   4.967   3.899   0.885
 4534TIP3    H213544   5.057   3.902   0.763
 4535TIP3   OH213545   0.586   0.053   4.892
 4535TIP3    H113546   0.512  -0.007   4.904
 4535TIP3    H213547   0.596   0.096   4.976
 4536TIP3   OH213548   5.466   3.881   0.055
 4536TIP3    H113549   5.444   3.849  -0.033
 4536TIP3    H213550   5.382   3.884   0.101
 4537TIP3   OH213551   2.765   0.850   3.392
 4537TIP3    H113552   2.732   0.927   3.439
 4537TIP3    H213553   2.754   0.871   3.300
 4538TIP3   OH213554   3.143   7.370   5.612
 4538TIP3    H113555   3.229   7.362   5.654
 4538TIP3    H213556   3.082   7.381   5.685
 4539TIP3   OH213557   6.944   4.565   5.318
 4539TIP3    H113558   6.946   4.497   5.250
 4539TIP3    H213559   7.036   4.582   5.338
 4540TIP3   OH213560   2.562   7.409   0.395
 4540TIP3    H113561   2.605   7.402   0.310
 4540TIP3    H213562   2.522   7.324   0.409
 4541TIP3   OH213563   4.528   5.234   2.349
 4541TIP3    H113564   4.479   5.209   2.271
 4541TIP3    H213565   4.501   5.170   2.415
 4542TIP3   OH213566   6.608   5.469   0.955
 4542TIP3    H113567   6.593   5.465   0.860
 4542TIP3    H213568   6.681   5.408   0.970
 4543TIP3   OH213569   1.491   7.894   3.644
 4543TIP3    H113570   1.486   7.835   3.569
 4543TIP3    H213571   1.401   7.925   3.656
 4544TIP3   OH213572   6.141   6.883   3.646
 4544TIP3    H113573   6.091   6.961   3.672
 4544TIP3    H213574   6.141   6.886   3.550
 4545TIP3   OH213575   6.588   2.303   4.013
 4545TIP3    H113576   6.574   2.233   4.076
 4545TIP3    H213577   6.501   2.335   3.992
 4546TIP3   OH213578   4.414   7.440   5.313
 4546TIP3    H113579   4.351   7.395   5.370
 4546TIP3    H213580   4.492   7.451   5.367
 4547TIP3   OH213581   6.292   3.065   2.308
 4547TIP3    H113582   6.264   3.086   2.398
 4547TIP3    H213583   6.212   3.071   2.256
 4548TIP3   OH213584   4.886   2.772   6.487
 4548TIP3    H113585   4.846   2.721   6.416
 4548TIP3    H213586   4.812   2.797   6.542
 4549TIP3   OH213587   1.596   2.019   6.733
 4549TIP3    H113588   1.567   2.000   6.822
 4549TIP3    H213589   1.545   2.097   6.708
 4550TIP3   OH213590   1.408   7.607   3.965
 4550TIP3    H113591   1.367   7.589   4.050
 4550TIP3    H213592   1.457   7.528   3.944
 4551TIP3   OH213593   7.618   2.158   3.287
 4551TIP3    H113594   7.673   2.198   3.221
 4551TIP3    H213595   7.548   2.114   3.238
 4552TIP3   OH213596   8.322   7.748   1.740
 4552TIP3    H113597   8.240   7.795   1.722
 4552TIP3    H213598   8.368   7.748   1.656
 4553TIP3   OH213599   0.308   3.460   3.581
 4553TIP3    H113600   0.225   3.502   3.561
 4553TIP3    H213601   0.369   3.533   3.592
 4554TIP3   OH213602   7.740   1.840   4.568
 4554TIP3    H113603   7.724   1.767   4.509
 4554TIP3    H213604   7.725   1.804   4.655
 4555TIP3   OH213605   1.507   3.991   4.991
 4555TIP3    H113606   1.566   3.919   5.014
 4555TIP3    H213607   1.482   3.973   4.900
 4556TIP3   OH213608   6.186   7.791   2.759
 4556TIP3    H113609   6.187   7.793   2.855
 4556TIP3    H213610   6.259   7.847   2.733
 4557TIP3   OH213611   5.854   3.150   3.427
 4557TIP3    H113612   5.853   3.237   3.468
 4557TIP3    H213613   5.791   3.099   3.478
 4558TIP3   OH213614   4.949   1.602   1.864
 4558TIP3    H113615   5.000   1.526   1.893
 4558TIP3    H213616   4.941   1.657   1.941
 4559TIP3   OH213617   6.644   3.971   5.113
 4559TIP3    H113618   6.737   3.973   5.094
 4559TIP3    H213619   6.639   3.945   5.205
 4560TIP3   OH213620   5.243   6.038   2.635
 4560TIP3    H113621   5.159   6.006   2.666
 4560TIP3    H213622   5.303   5.964   2.644
 4561TIP3   OH213623   2.674   1.444   2.099
 4561TIP3    H113624   2.639   1.397   2.175
 4561TIP3    H213625   2.768   1.429   2.103
 4562TIP3   OH213626   1.129   0.841   4.618
 4562TIP3    H113627   1.078   0.919   4.639
 4562TIP3    H213628   1.157   0.807   4.703
 4563TIP3   OH213629   7.542   2.574   5.443
 4563TIP3    H113630   7.523   2.630   5.368
 4563TIP3    H213631   7.498   2.616   5.516
 4564TIP3   OH213632   4.176   4.324   4.299
 4564TIP3    H113633   4.178   4.248   4.358
 4564TIP3    H213634   4.114   4.300   4.231
 4565TIP3   OH213635   2.676   2.320   5.226
 4565TIP3    H113636   2.698   2.412   5.242
 4565TIP3    H213637   2.584   2.313   5.252
 4566TIP3   OH213638   8.393   6.977   1.149
 4566TIP3    H113639   8.439   6.896   1.172
 4566TIP3    H213640   8.310   6.971   1.196
 4567TIP3   OH213641   8.263   1.647   1.220
 4567TIP3    H113642   8.217   1.574   1.180
 4567TIP3    H213643   8.342   1.658   1.167
 4568TIP3   OH213644   6.538   4.222   5.746
 4568TIP3    H113645   6.550   4.128   5.753
 4568TIP3    H213646   6.492   4.246   5.827
 4569TIP3   OH213647   8.171   0.972   4.416
 4569TIP3    H113648   8.160   0.895   4.473
 4569TIP3    H213649   8.100   0.965   4.353
 4570TIP3   OH213650   3.811   7.483   0.036
 4570TIP3    H113651   3.732   7.469   0.088
 4570TIP3    H213652   3.826   7.399  -0.007
 4571TIP3   OH213653   0.257   3.504   5.080
 4571TIP3    H113654   0.192   3.545   5.023
 4571TIP3    H213655   0.217   3.505   5.167
 4572TIP3   OH213656   7.776   6.597   1.735
 4572TIP3    H113657   7.825   6.676   1.758
 4572TIP3    H213658   7.692   6.629   1.702
 4573TIP3   OH213659   7.234   2.886   4.821
 4573TIP3    H113660   7.261   2.879   4.912
 4573TIP3    H213661   7.317   2.885   4.772
 4574TIP3   OH213662   7.447   6.360   0.640
 4574TIP3    H113663   7.445   6.333   0.548
 4574TIP3    H213664   7.463   6.455   0.635
 4575TIP3   OH213665   1.724   2.650   6.372
 4575TIP3    H113666   1.675   2.645   6.290
 4575TIP3    H213667   1.765   2.736   6.372
 4576TIP3   OH213668   5.758   1.228   5.018
 4576TIP3    H113669   5.752   1.147   4.968
 4576TIP3    H213670   5.839   1.221   5.067
 4577TIP3   OH213671   2.003   5.772   1.563
 4577TIP3    H113672   1.926   5.829   1.559
 4577TIP3    H213673   2.010   5.734   1.476
 4578TIP3   OH213674   4.470   2.866   5.975
 4578TIP3    H113675   4.423   2.834   5.899
 4578TIP3    H213676   4.521   2.940   5.943
 4579TIP3   OH213677   5.939   4.462   5.996
 4579TIP3    H113678   5.930   4.408   6.074
 4579TIP3    H213679   5.905   4.409   5.925
 4580TIP3   OH213680   8.201   5.896   5.449
 4580TIP3    H113681   8.108   5.887   5.429
 4580TIP3    H213682   8.219   5.830   5.516
 4581TIP3   OH213683   5.975   7.479   4.515
 4581TIP3    H113684   6.055   7.459   4.466
 4581TIP3    H213685   6.007   7.521   4.595
 4582TIP3   OH213686   1.641   4.968   6.718
 4582TIP3    H113687   1.636   4.966   6.623
 4582TIP3    H213688   1.734   4.955   6.738
 4583TIP3   OH213689   1.092   0.511   2.833
 4583TIP3    H113690   1.077   0.590   2.781
 4583TIP3    H213691   1.144   0.541   2.908
 4584TIP3   OH213692   1.839   6.652   6.581
 4584TIP3    H113693   1.826   6.626   6.673
 4584TIP3    H213694   1.782   6.594   6.531
 4585TIP3   OH213695   7.619   1.729   0.961
 4585TIP3    H113696   7.629   1.692   0.873
 4585TIP3    H213697   7.641   1.658   1.020
 4586TIP3   OH213698   7.896   3.305   1.781
 4586TIP3    H113699   7.848   3.383   1.809
 4586TIP3    H213700   7.834   3.233   1.793
 4587TIP3   OH213701   7.470   6.782   6.683
 4587TIP3    H113702   7.522   6.863   6.682
 4587TIP3    H213703   7.486   6.745   6.770
 4588TIP3   OH213704   3.727   1.841   1.842
 4588TIP3    H113705   3.759   1.913   1.788
 4588TIP3    H213706   3.804   1.786   1.858
 4589TIP3   OH213707   4.349   1.467   6.402
 4589TIP3    H113708   4.430   1.480   6.451
 4589TIP3    H213709   4.314   1.555   6.389
 4590TIP3   OH213710   8.227   2.948   4.275
 4590TIP3    H113711   8.143   2.948   4.320
 4590TIP3    H213712   8.288   2.910   4.339
 4591TIP3   OH213713   4.235   0.646   3.886
 4591TIP3    H113714   4.325   0.627   3.861
 4591TIP3    H213715   4.225   0.604   3.971
 4592TIP3   OH213716   6.093   4.823   3.012
 4592TIP3    H113717   6.063   4.852   2.925
 4592TIP3    H213718   6.016   4.785   3.053
 4593TIP3   OH213719   4.690   2.733   0.817
 4593TIP3    H113720   4.733   2.705   0.898
 4593TIP3    H213721   4.639   2.810   0.843
 4594TIP3   OH213722   6.329   7.735   6.411
 4594TIP3    H113723   6.313   7.641   6.397
 4594TIP3    H213724   6.418   7.749   6.379
 4595TIP3   OH213725   5.690   6.523   2.356
 4595TIP3    H113726   5.626   6.462   2.321
 4595TIP3    H213727   5.688   6.598   2.296
 4596TIP3   OH213728   1.253   6.610   2.115
 4596TIP3    H113729   1.187   6.559   2.161
 4596TIP3    H213730   1.284   6.553   2.045
 4597TIP3   OH213731   2.477   0.999   1.849
 4597TIP3    H113732   2.440   0.982   1.936
 4597TIP3    H213733   2.571   1.005   1.864
 4598TIP3   OH213734   5.842   3.999   1.802
 4598TIP3    H113735   5.850   4.015   1.896
 4598TIP3    H213736   5.915   3.942   1.781
 4599TIP3   OH213737   4.968   3.113   6.050
 4599TIP3    H113738   5.002   3.141   6.135
 4599TIP3    H213739   4.958   3.019   6.058
 4600TIP3   OH213740   1.630   5.777   5.909
 4600TIP3    H113741   1.592   5.794   5.823
 4600TIP3    H213742   1.719   5.747   5.890
 4601TIP3   OH213743   4.031   4.472   6.469
 4601TIP3    H113744   4.102   4.535   6.471
 4601TIP3    H213745   3.961   4.515   6.420
 4602TIP3   OH213746   3.121   0.216   4.349
 4602TIP3    H113747   3.155   0.286   4.405
 4602TIP3    H213748   3.179   0.141   4.367
 4603TIP3   OH213749   1.320   6.962   2.282
 4603TIP3    H113750   1.381   6.897   2.248
 4603TIP3    H213751   1.375   7.028   2.324
 4604TIP3   OH213752   3.889   0.378   4.509
 4604TIP3    H113753   3.911   0.320   4.582
 4604TIP3    H213754   3.847   0.320   4.445
 4605TIP3   OH213755   5.848   3.587   5.736
 4605TIP3    H113756   5.825   3.512   5.792
 4605TIP3    H213757   5.924   3.558   5.687
 4606TIP3   OH213758   2.974   5.560   1.960
 4606TIP3    H113759   3.003   5.647   1.933
 4606TIP3    H213760   3.018   5.500   1.899
 4607TIP3   OH213761   1.242   5.107   5.412
 4607TIP3    H113762   1.210   5.039   5.352
 4607TIP3    H213763   1.294   5.059   5.477
 4608TIP3   OH213764   1.813   5.052   0.070
 4608TIP3    H113765   1.737   5.079   0.018
 4608TIP3    H213766   1.887   5.101   0.033
 4609TIP3   OH213767   2.432   2.342   5.322
 4609TIP3    H113768   2.407   2.420   5.272
 4609TIP3    H213769   2.348   2.299   5.342
 4610TIP3   OH213770   7.402   0.197   1.950
 4610TIP3    H113771   7.462   0.259   1.909
 4610TIP3    H213772   7.317   0.240   1.948
 4611TIP3   OH213773   2.304   2.261   0.454
 4611TIP3    H113774   2.226   2.209   0.473
 4611TIP3    H213775   2.311   2.262   0.359
 4612TIP3   OH213776   1.172   4.596   0.899
 4612TIP3    H113777   1.134   4.516   0.862
 4612TIP3    H213778   1.259   4.603   0.858
 4613TIP3   OH213779   3.495   2.181   6.602
 4613TIP3    H113780   3.503   2.086   6.608
 4613TIP3    H213781   3.404   2.199   6.627
 4614TIP3   OH213782   7.803   1.135   1.478
 4614TIP3    H113783   7.782   1.195   1.549
 4614TIP3    H213784   7.898   1.125   1.481
 4615TIP3   OH213785   3.231   2.798   1.340
 4615TIP3    H113786   3.267   2.870   1.288
 4615TIP3    H213787   3.219   2.727   1.277
 4616TIP3   OH213788   5.041   0.769   2.445
 4616TIP3    H113789   4.956   0.776   2.488
 4616TIP3    H213790   5.020   0.759   2.352
 4617TIP3   OH213791   3.926   2.056   5.779
 4617TIP3    H113792   3.842   2.095   5.756
 4617TIP3    H213793   3.912   2.021   5.867
 4618TIP3   OH213794   1.034   4.138   3.794
 4618TIP3    H113795   1.074   4.133   3.880
 4618TIP3    H213796   1.038   4.230   3.770
 4619TIP3   OH213797   8.351   6.428   0.772
 4619TIP3    H113798   8.308   6.364   0.829
 4619TIP3    H213799   8.364   6.505   0.827
 4620TIP3   OH213800   0.187   1.774   1.932
 4620TIP3    H113801   0.190   1.862   1.894
 4620TIP3    H213802   0.093   1.755   1.939
 4621TIP3   OH213803   5.881   6.037   0.337
 4621TIP3    H113804   5.873   5.949   0.373
 4621TIP3    H213805   5.797   6.079   0.357
 4622TIP3   OH213806   3.522   6.791   2.148
 4622TIP3    H113807   3.613   6.811   2.129
 4622TIP3    H213808   3.521   6.696   2.164
 4623TIP3   OH213809   1.939   5.955   4.271
 4623TIP3    H113810   1.919   5.885   4.210
 4623TIP3    H213811   1.853   5.992   4.294
 4624TIP3   OH213812   0.096   2.981   0.563
 4624TIP3    H113813   0.176   3.031   0.578
 4624TIP3    H213814   0.117   2.893   0.595
 4625TIP3   OH213815   6.543   5.614   6.282
 4625TIP3    H113816   6.496   5.655   6.209
 4625TIP3    H213817   6.502   5.528   6.292
 4626TIP3   OH213818   5.661   2.083   4.079
 4626TIP3    H113819   5.588   2.145   4.084
 4626TIP3    H213820   5.665   2.043   4.165
 4627TIP3   OH213821   2.798   2.570   5.218
 4627TIP3    H113822   2.869   2.570   5.283
 4627TIP3    H213823   2.841   2.544   5.136
 4628TIP3   OH213824   2.555   2.746   5.042
 4628TIP3    H113825   2.496   2.775   4.973
 4628TIP3    H213826   2.642   2.769   5.011
 4629TIP3   OH213827   1.739   1.827   5.202
 4629TIP3    H113828   1.670   1.893   5.216
 4629TIP3    H213829   1.745   1.781   5.287
 4630TIP3   OH213830   4.518   3.914   3.382
 4630TIP3    H113831   4.495   3.880   3.468
 4630TIP3    H213832   4.439   3.903   3.329
 4631TIP3   OH213833   7.158   6.348   0.449
 4631TIP3    H113834   7.151   6.270   0.505
 4631TIP3    H213835   7.227   6.400   0.490
 4632TIP3   OH213836   6.696   1.420   6.853
 4632TIP3    H113837   6.751   1.352   6.891
 4632TIP3    H213838   6.736   1.441   6.769
 4633TIP3   OH213839   2.166   5.342   4.129
 4633TIP3    H113840   2.162   5.394   4.049
 4633TIP3    H213841   2.152   5.405   4.200
 4634TIP3   OH213842   4.494   3.535   1.605
 4634TIP3    H113843   4.451   3.566   1.525
 4634TIP3    H213844   4.561   3.601   1.623
 4635TIP3   OH213845   1.838   4.192   6.359
 4635TIP3    H113846   1.897   4.267   6.346
 4635TIP3    H213847   1.788   4.214   6.437
 4636TIP3   OH213848   4.698   4.186   0.383
 4636TIP3    H113849   4.605   4.184   0.362
 4636TIP3    H213850   4.740   4.212   0.301
 4637TIP3   OH213851   5.514   7.380   4.183
 4637TIP3    H113852   5.441   7.420   4.135
 4637TIP3    H213853   5.590   7.391   4.125
 4638TIP3   OH213854   0.572   1.353   5.893
 4638TIP3    H113855   0.570   1.333   5.987
 4638TIP3    H213856   0.516   1.430   5.884
 4639TIP3   OH213857   5.369   5.883   2.172
 4639TIP3    H113858   5.419   5.950   2.126
 4639TIP3    H213859   5.423   5.804   2.165
 4640TIP3   OH213860   1.027   1.988   4.389
 4640TIP3    H113861   1.020   1.953   4.478
 4640TIP3    H213862   0.981   1.924   4.334
 4641TIP3   OH213863   8.307   4.708   4.418
 4641TIP3    H113864   8.218   4.744   4.412
 4641TIP3    H213865   8.306   4.655   4.497
 4642TIP3   OH213866   7.102   1.145   5.393
 4642TIP3    H113867   7.154   1.121   5.470
 4642TIP3    H213868   7.166   1.150   5.322
 4643TIP3   OH213869   8.228   3.642   3.888
 4643TIP3    H113870   8.300   3.641   3.952
 4643TIP3    H213871   8.182   3.559   3.903
 4644TIP3   OH213872   6.245   0.497   5.816
 4644TIP3    H113873   6.243   0.525   5.725
 4644TIP3    H213874   6.245   0.401   5.811
 4645TIP3   OH213875   0.581   0.323   1.560
 4645TIP3    H113876   0.493   0.312   1.594
 4645TIP3    H213877   0.592   0.418   1.551
 4646TIP3   OH213878   5.699   6.544   4.296
 4646TIP3    H113879   5.627   6.599   4.327
 4646TIP3    H213880   5.763   6.607   4.262
 4647TIP3   OH213881   5.047   4.145   2.551
 4647TIP3    H113882   5.084   4.069   2.595
 4647TIP3    H213883   4.965   4.114   2.513
 4648TIP3   OH213884   1.888   1.830   4.919
 4648TIP3    H113885   1.810   1.885   4.924
 4648TIP3    H213886   1.857   1.743   4.943
 4649TIP3   OH213887   5.274   0.457   5.425
 4649TIP3    H113888   5.193   0.416   5.393
 4649TIP3    H213889   5.279   0.431   5.517
 4650TIP3   OH213890   8.160   1.065   3.459
 4650TIP3    H113891   8.222   1.080   3.387
 4650TIP3    H213892   8.206   1.006   3.517
 4651TIP3   OH213893   3.254   6.736   6.442
 4651TIP3    H113894   3.211   6.783   6.513
 4651TIP3    H213895   3.199   6.659   6.427
 4652TIP3   OH213896   6.289   7.752   5.538
 4652TIP3    H113897   6.218   7.689   5.546
 4652TIP3    H213898   6.270   7.818   5.605
 4653TIP3   OH213899   7.878   3.824   5.644
 4653TIP3    H113900   7.918   3.799   5.561
 4653TIP3    H213901   7.933   3.895   5.677
 4654TIP3   OH213902   2.560   5.608   4.837
 4654TIP3    H113903   2.574   5.565   4.921
 4654TIP3    H213904   2.596   5.546   4.772
 4655TIP3   OH213905   4.324   4.233   0.577
 4655TIP3    H113906   4.272   4.287   0.635
 4655TIP3    H213907   4.262   4.199   0.513
 4656TIP3   OH213908   4.882   3.555   0.113
 4656TIP3    H113909   4.909   3.538   0.023
 4656TIP3    H213910   4.910   3.645   0.130
 4657TIP3   OH213911   4.238   6.048   1.850
 4657TIP3    H113912   4.189   6.005   1.920
 4657TIP3    H213913   4.269   6.130   1.889
 4658TIP3   OH213914   2.604   3.496   6.659
 4658TIP3    H113915   2.552   3.492   6.739
 4658TIP3    H213916   2.580   3.417   6.611
 4659TIP3   OH213917   3.059   3.919   3.970
 4659TIP3    H113918   3.119   3.873   3.912
 4659TIP3    H213919   3.008   3.976   3.912
 4660TIP3   OH213920   0.894   0.173   6.134
 4660TIP3    H113921   0.960   0.105   6.121
 4660TIP3    H213922   0.810   0.128   6.125
 4661TIP3   OH213923   2.257   2.569   5.596
 4661TIP3    H113924   2.332   2.511   5.604
 4661TIP3    H213925   2.271   2.616   5.514
 4662TIP3   OH213926   5.774   1.363   4.208
 4662TIP3    H113927   5.864   1.391   4.194
 4662TIP3    H213928   5.781   1.286   4.265
 4663TIP3   OH213929   3.452   0.987   0.448
 4663TIP3    H113930   3.525   1.034   0.410
 4663TIP3    H213931   3.407   1.052   0.503
 4664TIP3   OH213932   0.441   4.287   5.630
 4664TIP3    H113933   0.436   4.270   5.724
 4664TIP3    H213934   0.382   4.361   5.616
 4665TIP3   OH213935   3.935   3.503   5.592
 4665TIP3    H113936   4.004   3.511   5.657
 4665TIP3    H213937   3.854   3.501   5.643
 4666TIP3   OH213938   0.924   2.090   1.518
 4666TIP3    H113939   0.831   2.069   1.528
 4666TIP3    H213940   0.950   2.126   1.603
 4667TIP3   OH213941   2.371   6.385   0.440
 4667TIP3    H113942   2.409   6.471   0.454
 4667TIP3    H213943   2.374   6.343   0.526
 4668TIP3   OH213944   7.965   3.119   3.924
 4668TIP3    H113945   8.025   3.055   3.962
 4668TIP3    H213946   7.941   3.082   3.839
 4669TIP3   OH213947   7.856   5.407   0.824
 4669TIP3    H113948   7.863   5.410   0.919
 4669TIP3    H213949   7.945   5.386   0.794
 4670TIP3   OH213950   1.070   5.156   0.932
 4670TIP3    H113951   1.093   5.226   0.870
 4670TIP3    H213952   1.098   5.075   0.889
 4671TIP3   OH213953   7.882   3.633   1.513
 4671TIP3    H113954   7.873   3.678   1.429
 4671TIP3    H213955   7.890   3.541   1.489
 4672TIP3   OH213956   6.575   5.906   3.248
 4672TIP3    H113957   6.495   5.886   3.296
 4672TIP3    H213958   6.640   5.845   3.282
 4673TIP3   OH213959   2.309   3.119   4.209
 4673TIP3    H113960   2.235   3.064   4.236
 4673TIP3    H213961   2.274   3.208   4.211
 4674TIP3   OH213962   5.130   5.618   2.562
 4674TIP3    H113963   5.130   5.682   2.490
 4674TIP3    H213964   5.222   5.596   2.574
 4675TIP3   OH213965   4.335   7.531   1.757
 4675TIP3    H113966   4.275   7.460   1.735
 4675TIP3    H213967   4.281   7.610   1.752
 4676TIP3   OH213968   1.341   5.302   4.203
 4676TIP3    H113969   1.326   5.325   4.112
 4676TIP3    H213970   1.388   5.219   4.200
 4677TIP3   OH213971   7.477   7.638   2.432
 4677TIP3    H113972   7.518   7.552   2.446
 4677TIP3    H213973   7.413   7.646   2.502
 4678TIP3   OH213974   1.447   2.217   2.430
 4678TIP3    H113975   1.370   2.209   2.373
 4678TIP3    H213976   1.429   2.158   2.503
 4679TIP3   OH213977   1.706   4.681   3.142
 4679TIP3    H113978   1.687   4.603   3.193
 4679TIP3    H213979   1.784   4.658   3.092
 4680TIP3   OH213980   4.036   0.066   3.791
 4680TIP3    H113981   3.952   0.078   3.746
 4680TIP3    H213982   4.027  -0.018   3.835
 4681TIP3   OH213983   1.728   7.489   6.299
 4681TIP3    H113984   1.733   7.463   6.391
 4681TIP3    H213985   1.805   7.544   6.286
 4682TIP3   OH213986   6.044   6.801   2.593
 4682TIP3    H113987   6.119   6.742   2.596
 4682TIP3    H213988   5.972   6.745   2.564
 4683TIP3   OH213989   6.947   2.758   5.940
 4683TIP3    H113990   6.869   2.755   5.884
 4683TIP3    H213991   6.979   2.668   5.940
 4684TIP3   OH213992   7.241   1.271   3.633
 4684TIP3    H113993   7.246   1.224   3.717
 4684TIP3    H213994   7.317   1.328   3.633
 4685TIP3   OH213995   1.938   0.583   5.217
 4685TIP3    H113996   1.994   0.605   5.143
 4685TIP3    H213997   1.980   0.506   5.256
 4686TIP3   OH213998   7.889   5.159   0.565
 4686TIP3    H113999   7.898   5.083   0.507
 4686TIP3    H214000   7.973   5.205   0.556
 4687TIP3   OH214001   8.206   6.275   2.500
 4687TIP3    H114002   8.119   6.236   2.493
 4687TIP3    H214003   8.202   6.328   2.579
 4688TIP3   OH214004   4.434   0.441   4.694
 4688TIP3    H114005   4.371   0.484   4.636
 4688TIP3    H214006   4.511   0.498   4.692
 4689TIP3   OH214007   0.780   1.167   1.753
 4689TIP3    H114008   0.855   1.169   1.813
 4689TIP3    H214009   0.767   1.259   1.730
 4690TIP3   OH214010   5.500   7.870   4.103
 4690TIP3    H114011   5.542   7.871   4.017
 4690TIP3    H214012   5.445   7.791   4.102
 4691TIP3   OH214013   0.325   4.989   4.455
 4691TIP3    H114014   0.284   5.033   4.381
 4691TIP3    H214015   0.254   4.979   4.519
 4692TIP3   OH214016   4.357   0.192   5.209
 4692TIP3    H114017   4.289   0.199   5.276
 4692TIP3    H214018   4.439   0.200   5.258
 4693TIP3   OH214019   4.863   1.967   4.437
 4693TIP3    H114020   4.889   1.946   4.526
 4693TIP3    H214021   4.796   2.035   4.447
 4694TIP3   OH214022   2.096   3.308   3.237
 4694TIP3    H114023   2.096   3.364   3.314
 4694TIP3    H214024   2.106   3.368   3.163
 4695TIP3   OH214025   0.892   1.790   6.646
 4695TIP3    H114026   0.806   1.807   6.683
 4695TIP3    H214027   0.906   1.863   6.584
 4696TIP3   OH214028   2.064   5.935   6.112
 4696TIP3    H114029   2.075   5.936   6.017
 4696TIP3    H214030   2.147   5.969   6.146
 4697TIP3   OH214031   6.481   0.964   6.570
 4697TIP3    H114032   6.525   1.045   6.596
 4697TIP3    H214033   6.490   0.961   6.475
 4698TIP3   OH214034   4.267   0.298   4.865
 4698TIP3    H114035   4.314   0.215   4.875
 4698TIP3    H214036   4.315   0.345   4.797
 4699TIP3   OH214037   1.171   4.813   2.596
 4699TIP3    H114038   1.207   4.759   2.526
 4699TIP3    H214039   1.091   4.851   2.558
 4700TIP3   OH214040   7.686   7.098   4.058
 4700TIP3    H114041   7.676   7.192   4.074
 4700TIP3    H214042   7.636   7.056   4.128
 4701TIP3   OH214043   4.066   5.770   6.423
 4701TIP3    H114044   4.007   5.845   6.431
 4701TIP3    H214045   4.087   5.767   6.329
 4702TIP3   OH214046   2.435   0.811   3.321
 4702TIP3    H114047   2.464   0.870   3.390
 4702TIP3    H214048   2.471   0.726   3.346
 4703TIP3   OH214049   6.662   2.975   4.898
 4703TIP3    H114050   6.601   3.015   4.960
 4703TIP3    H214051   6.734   3.038   4.891
 4704TIP3   OH214052   1.586   3.651   5.374
 4704TIP3    H114053   1.582   3.742   5.345
 4704TIP3    H214054   1.678   3.626   5.363
 4705TIP3   OH214055   4.965   3.497   6.312
 4705TIP3    H114056   5.008   3.479   6.395
 4705TIP3    H214057   4.971   3.592   6.301
 4706TIP3   OH214058   1.386   1.079   3.477
 4706TIP3    H114059   1.394   1.162   3.430
 4706TIP3    H214060   1.295   1.078   3.507
 4707TIP3   OH214061   5.680   0.142   0.676
 4707TIP3    H114062   5.659   0.130   0.583
 4707TIP3    H214063   5.595   0.154   0.718
 4708TIP3   OH214064   2.537   7.605   2.839
 4708TIP3    H114065   2.499   7.557   2.912
 4708TIP3    H214066   2.601   7.664   2.880
 4709TIP3   OH214067   4.543   0.600   1.691
 4709TIP3    H114068   4.612   0.537   1.671
 4709TIP3    H214069   4.590   0.675   1.728
 4710TIP3   OH214070   0.096   0.385   0.608
 4710TIP3    H114071   0.067   0.476   0.609
 4710TIP3    H214072   0.032   0.338   0.660
 4711TIP3   OH214073   0.676   7.551   1.056
 4711TIP3    H114074   0.745   7.570   1.120
 4711TIP3    H214075   0.667   7.631   1.005
 4712TIP3   OH214076   5.980   1.519   5.658
 4712TIP3    H114077   6.050   1.547   5.600
 4712TIP3    H214078   5.901   1.558   5.621
 4713TIP3   OH214079   4.467   2.473   4.136
 4713TIP3    H114080   4.404   2.462   4.064
 4713TIP3    H214081   4.458   2.393   4.188
 4714TIP3   OH214082   4.580   4.701   5.332
 4714TIP3    H114083   4.605   4.679   5.242
 4714TIP3    H214084   4.485   4.685   5.335
 4715TIP3   OH214085   6.102   2.970   5.032
 4715TIP3    H114086   6.077   2.909   5.101
 4715TIP3    H214087   6.150   3.040   5.078
 4716TIP3   OH214088   3.917   7.421   4.243
 4716TIP3    H114089   3.931   7.332   4.210
 4716TIP3    H214090   3.829   7.418   4.281
 4717TIP3   OH214091   3.891   7.180   6.349
 4717TIP3    H114092   3.880   7.166   6.254
 4717TIP3    H214093   3.938   7.103   6.379
 4718TIP3   OH214094   2.255   5.223   5.799
 4718TIP3    H114095   2.278   5.248   5.710
 4718TIP3    H214096   2.285   5.296   5.853
 4719TIP3   OH214097   0.831   0.365   0.429
 4719TIP3    H114098   0.845   0.340   0.520
 4719TIP3    H214099   0.740   0.340   0.411
 4720TIP3   OH214100   4.070   6.372   1.993
 4720TIP3    H114101   3.997   6.311   1.982
 4720TIP3    H214102   4.079   6.414   1.908
 4721TIP3   OH214103   5.097   1.862   5.150
 4721TIP3    H114104   5.093   1.949   5.190
 4721TIP3    H214105   5.096   1.880   5.056
 4722TIP3   OH214106   4.396   3.185   3.215
 4722TIP3    H114107   4.380   3.219   3.127
 4722TIP3    H214108   4.475   3.230   3.244
 4723TIP3   OH214109   8.162   4.472   0.576
 4723TIP3    H114110   8.081   4.498   0.619
 4723TIP3    H214111   8.181   4.542   0.514
 4724TIP3   OH214112  -0.009   7.065   4.830
 4724TIP3    H114113   0.044   7.004   4.779
 4724TIP3    H214114   0.021   7.055   4.920
 4725TIP3   OH214115   7.756   2.695   1.848
 4725TIP3    H114116   7.812   2.768   1.874
 4725TIP3    H214117   7.759   2.635   1.923
 4726TIP3   OH214118   4.311   4.692   0.207
 4726TIP3    H114119   4.242   4.636   0.171
 4726TIP3    H214120   4.310   4.770   0.152
 4727TIP3   OH214121   0.125   7.806   0.968
 4727TIP3    H114122   0.139   7.712   0.959
 4727TIP3    H214123   0.155   7.826   1.057
 4728TIP3   OH214124   4.379   7.542   1.020
 4728TIP3    H114125   4.334   7.613   1.065
 4728TIP3    H214126   4.326   7.464   1.038
 4729TIP3   OH214127   2.169   4.647   6.217
 4729TIP3    H114128   2.201   4.724   6.263
 4729TIP3    H214129   2.235   4.579   6.235
 4730TIP3   OH214130   2.145   6.334   3.424
 4730TIP3    H114131   2.220   6.338   3.483
 4730TIP3    H214132   2.099   6.416   3.438
 4731TIP3   OH214133   0.715   6.534   2.721
 4731TIP3    H114134   0.644   6.596   2.707
 4731TIP3    H214135   0.789   6.571   2.671
 4732TIP3   OH214136   8.209   6.725   5.290
 4732TIP3    H114137   8.203   6.683   5.375
 4732TIP3    H214138   8.174   6.661   5.228
 4733TIP3   OH214139   6.418   6.523   4.273
 4733TIP3    H114140   6.488   6.546   4.211
 4733TIP3    H214141   6.357   6.471   4.221
 4734TIP3   OH214142   1.388   4.374   3.388
 4734TIP3    H114143   1.456   4.442   3.386
 4734TIP3    H214144   1.436   4.292   3.378
 4735TIP3   OH214145   5.197   0.208   6.686
 4735TIP3    H114146   5.117   0.173   6.727
 4735TIP3    H214147   5.265   0.194   6.752
 4736TIP3   OH214148   4.271   1.488   2.639
 4736TIP3    H114149   4.262   1.413   2.580
 4736TIP3    H214150   4.199   1.478   2.702
 4737TIP3   OH214151   5.067   5.368   5.217
 4737TIP3    H114152   5.011   5.422   5.161
 4737TIP3    H214153   5.035   5.278   5.202
 4738TIP3   OH214154   2.986   2.573   4.710
 4738TIP3    H114155   2.918   2.586   4.643
 4738TIP3    H214156   3.057   2.528   4.664
 4739TIP3   OH214157   1.081   6.166   3.626
 4739TIP3    H114158   1.004   6.109   3.630
 4739TIP3    H214159   1.047   6.253   3.648
 4740TIP3   OH214160   8.233   0.158   5.382
 4740TIP3    H114161   8.292   0.207   5.325
 4740TIP3    H214162   8.182   0.104   5.322
 4741TIP3   OH214163   1.240   6.039   5.275
 4741TIP3    H114164   1.258   5.948   5.250
 4741TIP3    H214165   1.304   6.057   5.345
 4742TIP3   OH214166   5.488   0.584   5.332
 4742TIP3    H114167   5.466   0.547   5.247
 4742TIP3    H214168   5.427   0.542   5.393
 4743TIP3   OH214169   4.227   1.680   6.063
 4743TIP3    H114170   4.313   1.640   6.072
 4743TIP3    H214171   4.212   1.685   5.968
 4744TIP3   OH214172   2.841   3.308   1.717
 4744TIP3    H114173   2.870   3.259   1.640
 4744TIP3    H214174   2.758   3.269   1.742
 4745TIP3   OH214175   3.333   5.640   3.934
 4745TIP3    H114176   3.403   5.703   3.951
 4745TIP3    H214177   3.338   5.578   4.007
 4746TIP3   OH214178   6.689   6.144   1.669
 4746TIP3    H114179   6.594   6.145   1.654
 4746TIP3    H214180   6.705   6.061   1.713
 4747TIP3   OH214181   7.809   1.308   1.978
 4747TIP3    H114182   7.793   1.402   1.973
 4747TIP3    H214183   7.902   1.300   2.001
 4748TIP3   OH214184   2.351   3.466   6.003
 4748TIP3    H114185   2.309   3.386   5.971
 4748TIP3    H214186   2.352   3.525   5.927
 4749TIP3   OH214187   6.908   5.321   1.588
 4749TIP3    H114188   6.850   5.277   1.650
 4749TIP3    H214189   6.990   5.331   1.636
 4750TIP3   OH214190   7.569   4.644   1.727
 4750TIP3    H114191   7.627   4.658   1.652
 4750TIP3    H214192   7.582   4.553   1.751
 4751TIP3   OH214193   1.034   5.145   6.559
 4751TIP3    H114194   1.055   5.052   6.550
 4751TIP3    H214195   1.106   5.191   6.516
 4752TIP3   OH214196   5.553   2.230   4.845
 4752TIP3    H114197   5.600   2.310   4.868
 4752TIP3    H214198   5.487   2.259   4.782
 4753TIP3   OH214199   6.361   6.478   1.204
 4753TIP3    H114200   6.449   6.513   1.216
 4753TIP3    H214201   6.324   6.475   1.293
 4754TIP3   OH214202   5.210   5.226   1.149
 4754TIP3    H114203   5.277   5.208   1.215
 4754TIP3    H214204   5.253   5.280   1.084
 4755TIP3   OH214205   2.116   1.902   0.381
 4755TIP3    H114206   2.122   1.970   0.448
 4755TIP3    H214207   2.188   1.842   0.402
 4756TIP3   OH214208   7.257   0.939   4.781
 4756TIP3    H114209   7.317   0.947   4.707
 4756TIP3    H214210   7.314   0.945   4.858
 4757TIP3   OH214211   5.866   2.700   5.550
 4757TIP3    H114212   5.905   2.667   5.631
 4757TIP3    H214213   5.859   2.623   5.494
 4758TIP3   OH214214   7.772   5.206   6.556
 4758TIP3    H114215   7.705   5.220   6.489
 4758TIP3    H214216   7.780   5.110   6.561
 4759TIP3   OH214217   6.483   4.217   4.365
 4759TIP3    H114218   6.518   4.193   4.451
 4759TIP3    H214219   6.500   4.141   4.309
 4760TIP3   OH214220   6.997   4.469   6.314
 4760TIP3    H114221   7.079   4.419   6.318
 4760TIP3    H214222   6.982   4.483   6.221
 4761TIP3   OH214223   0.703   7.424   2.543
 4761TIP3    H114224   0.787   7.387   2.516
 4761TIP3    H214225   0.693   7.503   2.489
 4762TIP3   OH214226   4.354   2.638   2.664
 4762TIP3    H114227   4.290   2.570   2.642
 4762TIP3    H214228   4.432   2.590   2.691
 4763TIP3   OH214229   8.245   7.575   4.758
 4763TIP3    H114230   8.292   7.549   4.837
 4763TIP3    H214231   8.157   7.540   4.770
 4764TIP3   OH214232   5.487   7.296   2.607
 4764TIP3    H114233   5.422   7.366   2.605
 4764TIP3    H214234   5.548   7.319   2.536
 4765TIP3   OH214235   4.703   0.535   4.514
 4765TIP3    H114236   4.720   0.447   4.546
 4765TIP3    H214237   4.764   0.546   4.441
 4766TIP3   OH214238   4.183   7.340   0.881
 4766TIP3    H114239   4.125   7.266   0.862
 4766TIP3    H214240   4.271   7.303   0.877
 4767TIP3   OH214241   7.254   7.379   6.596
 4767TIP3    H114242   7.217   7.467   6.588
 4767TIP3    H214243   7.329   7.379   6.536
 4768TIP3   OH214244   1.236   6.182   6.253
 4768TIP3    H114245   1.311   6.163   6.197
 4768TIP3    H214246   1.164   6.200   6.192
 4769TIP3   OH214247   4.065   4.098   4.519
 4769TIP3    H114248   4.101   4.123   4.604
 4769TIP3    H214249   4.046   4.004   4.528
 4770TIP3   OH214250   3.195   2.171   3.624
 4770TIP3    H114251   3.162   2.225   3.695
 4770TIP3    H214252   3.269   2.123   3.662
 4771TIP3   OH214253   0.019   1.220   6.587
 4771TIP3    H114254   0.000   1.312   6.605
 4771TIP3    H214255   0.024   1.179   6.673
 4772TIP3   OH214256   4.752   0.455   5.392
 4772TIP3    H114257   4.689   0.470   5.463
 4772TIP3    H214258   4.779   0.543   5.365
 4773TIP3   OH214259   6.526   4.086   0.995
 4773TIP3    H114260   6.606   4.036   1.010
 4773TIP3    H214261   6.455   4.026   1.018
 4774TIP3   OH214262   8.069   6.006   4.144
 4774TIP3    H114263   8.009   6.010   4.071
 4774TIP3    H214264   8.156   6.001   4.104
 4775TIP3   OH214265   7.566   6.381   3.019
 4775TIP3    H114266   7.477   6.406   3.046
 4775TIP3    H214267   7.623   6.440   3.068
 4776TIP3   OH214268   5.541   2.304   1.022
 4776TIP3    H114269   5.540   2.220   0.976
 4776TIP3    H214270   5.602   2.358   0.971
 4777TIP3   OH214271   7.960   2.676   5.873
 4777TIP3    H114272   8.026   2.612   5.846
 4777TIP3    H214273   8.011   2.753   5.899
 4778TIP3   OH214274   6.739   0.202   2.935
 4778TIP3    H114275   6.737   0.115   2.896
 4778TIP3    H214276   6.678   0.253   2.883
 4779TIP3   OH214277   2.076   1.945   5.630
 4779TIP3    H114278   2.088   1.928   5.724
 4779TIP3    H214279   2.160   1.980   5.601
 4780TIP3   OH214280   1.032   1.926   4.645
 4780TIP3    H114281   1.079   1.843   4.639
 4780TIP3    H214282   1.048   1.956   4.735
 4781TIP3   OH214283   3.089   0.924   3.047
 4781TIP3    H114284   3.175   0.954   3.017
 4781TIP3    H214285   3.027   0.963   2.986
 4782TIP3   OH214286   0.281   2.772   1.461
 4782TIP3    H114287   0.212   2.798   1.522
 4782TIP3    H214288   0.362   2.800   1.502
 4783TIP3   OH214289   6.573   7.025   1.517
 4783TIP3    H114290   6.652   6.972   1.510
 4783TIP3    H214291   6.541   7.008   1.606
 4784TIP3   OH214292   2.538   0.338   1.036
 4784TIP3    H114293   2.620   0.310   1.075
 4784TIP3    H214294   2.521   0.274   0.966
 4785TIP3   OH214295   4.852   0.997   3.301
 4785TIP3    H114296   4.758   1.009   3.312
 4785TIP3    H214297   4.879   0.946   3.378
 4786TIP3   OH214298   4.903   0.789   2.179
 4786TIP3    H114299   4.889   0.751   2.093
 4786TIP3    H214300   4.819   0.831   2.200
 4787TIP3   OH214301   8.254   1.741   5.770
 4787TIP3    H114302   8.256   1.670   5.706
 4787TIP3    H214303   8.228   1.699   5.852
 4788TIP3   OH214304   4.802   1.166   4.852
 4788TIP3    H114305   4.842   1.230   4.912
 4788TIP3    H214306   4.712   1.158   4.882
 4789TIP3   OH214307   7.125   2.179   0.099
 4789TIP3    H114308   7.166   2.136   0.024
 4789TIP3    H214309   7.084   2.107   0.148
 4790TIP3   OH214310   4.168   4.295   1.263
 4790TIP3    H114311   4.187   4.386   1.240
 4790TIP3    H214312   4.120   4.261   1.187
 4791TIP3   OH214313   7.805   7.354   1.314
 4791TIP3    H114314   7.723   7.401   1.333
 4791TIP3    H214315   7.783   7.262   1.327
 4792TIP3   OH214316   5.985   5.930   6.500
 4792TIP3    H114317   6.041   6.007   6.499
 4792TIP3    H214318   5.917   5.949   6.434
 4793TIP3   OH214319   0.234   1.821   0.230
 4793TIP3    H114320   0.142   1.845   0.236
 4793TIP3    H214321   0.239   1.733   0.266
 4794TIP3   OH214322   6.189   6.982   5.815
 4794TIP3    H114323   6.272   7.030   5.809
 4794TIP3    H214324   6.129   7.030   5.758
 4795TIP3   OH214325   2.486   2.624   0.124
 4795TIP3    H114326   2.405   2.605   0.171
 4795TIP3    H214327   2.478   2.577   0.042
 4796TIP3   OH214328   8.280   5.935   4.392
 4796TIP3    H114329   8.229   5.933   4.311
 4796TIP3    H214330   8.224   5.982   4.455
 4797TIP3   OH214331   2.557   6.283   3.504
 4797TIP3    H114332   2.630   6.224   3.488
 4797TIP3    H214333   2.588   6.369   3.474
 4798TIP3   OH214334   4.495   5.792   3.315
 4798TIP3    H114335   4.439   5.842   3.256
 4798TIP3    H214336   4.449   5.709   3.327
 4799TIP3   OH214337   2.949   2.597   5.865
 4799TIP3    H114338   2.928   2.512   5.905
 4799TIP3    H214339   2.930   2.661   5.933
 4800TIP3   OH214340   7.129   0.888   2.486
 4800TIP3    H114341   7.109   0.944   2.560
 4800TIP3    H214342   7.218   0.856   2.504
 4801TIP3   OH214343   3.973   4.182   3.832
 4801TIP3    H114344   3.954   4.089   3.825
 4801TIP3    H214345   3.930   4.221   3.756
 4802TIP3   OH214346   1.727   4.912   2.572
 4802TIP3    H114347   1.682   4.979   2.622
 4802TIP3    H214348   1.663   4.841   2.563
 4803TIP3   OH214349   0.215   0.597   6.276
 4803TIP3    H114350   0.169   0.681   6.277
 4803TIP3    H214351   0.300   0.615   6.318
 4804TIP3   OH214352   0.692   7.454   1.934
 4804TIP3    H114353   0.734   7.406   2.005
 4804TIP3    H214354   0.729   7.417   1.854
 4805TIP3   OH214355   7.051   0.458   1.295
 4805TIP3    H114356   7.057   0.490   1.204
 4805TIP3    H214357   7.035   0.537   1.347
 4806TIP3   OH214358   6.785   0.893   1.054
 4806TIP3    H114359   6.813   0.974   1.097
 4806TIP3    H214360   6.865   0.856   1.017
 4807TIP3   OH214361   7.141   3.706   5.363
 4807TIP3    H114362   7.086   3.733   5.289
 4807TIP3    H214363   7.124   3.612   5.372
 4808TIP3   OH214364   6.729   1.312   2.449
 4808TIP3    H114365   6.674   1.266   2.386
 4808TIP3    H214366   6.783   1.243   2.489
 4809TIP3   OH214367   1.711   1.259   3.585
 4809TIP3    H114368   1.715   1.318   3.510
 4809TIP3    H214369   1.618   1.258   3.609
 4810TIP3   OH214370   5.866   1.584   2.688
 4810TIP3    H114371   5.854   1.533   2.769
 4810TIP3    H214372   5.955   1.617   2.693
 4811TIP3   OH214373   1.079   1.955   5.385
 4811TIP3    H114374   1.048   1.874   5.426
 4811TIP3    H214375   0.999   2.003   5.363
 4812TIP3   OH214376   3.108   7.849   1.108
 4812TIP3    H114377   3.149   7.915   1.165
 4812TIP3    H214378   3.073   7.900   1.035
 4813TIP3   OH214379   8.130   2.389   5.092
 4813TIP3    H114380   8.058   2.350   5.141
 4813TIP3    H214381   8.196   2.410   5.159
 4814TIP3   OH214382   5.962   6.663   1.001
 4814TIP3    H114383   5.912   6.635   0.924
 4814TIP3    H214384   6.053   6.653   0.974
 4815TIP3   OH214385   7.485   5.631   3.691
 4815TIP3    H114386   7.400   5.613   3.730
 4815TIP3    H214387   7.465   5.677   3.610
 4816TIP3   OH214388   3.798   1.547   1.944
 4816TIP3    H114389   3.720   1.546   2.000
 4816TIP3    H214390   3.871   1.535   2.004
 4817TIP3   OH214391   2.948   0.740   2.777
 4817TIP3    H114392   2.968   0.752   2.685
 4817TIP3    H214393   2.854   0.755   2.785
 4818TIP3   OH214394   0.567   4.636   0.640
 4818TIP3    H114395   0.636   4.697   0.664
 4818TIP3    H214396   0.613   4.556   0.614
 4819TIP3   OH214397   0.246   0.485   1.741
 4819TIP3    H114398   0.249   0.486   1.645
 4819TIP3    H214399   0.153   0.471   1.762
 4820TIP3   OH214400   4.793   6.291   4.509
 4820TIP3    H114401   4.802   6.339   4.591
 4820TIP3    H214402   4.881   6.257   4.491
 4821TIP3   OH214403   2.959   2.364   6.576
 4821TIP3    H114404   2.971   2.347   6.482
 4821TIP3    H214405   3.016   2.439   6.594
 4822TIP3   OH214406   7.629   5.016   6.228
 4822TIP3    H114407   7.539   5.027   6.198
 4822TIP3    H214408   7.624   4.947   6.294
 4823TIP3   OH214409   8.338   5.935   4.671
 4823TIP3    H114410   8.344   5.886   4.589
 4823TIP3    H214411   8.287   6.013   4.649
 4824TIP3   OH214412   8.105   0.184   3.364
 4824TIP3    H114413   8.184   0.226   3.397
 4824TIP3    H214414   8.132   0.095   3.340
 4825TIP3   OH214415   7.493   7.096   6.479
 4825TIP3    H114416   7.559   7.133   6.537
 4825TIP3    H214417   7.412   7.100   6.529
 4826TIP3   OH214418   0.414   3.138   3.939
 4826TIP3    H114419   0.348   3.167   3.876
 4826TIP3    H214420   0.433   3.215   3.992
 4827TIP3   OH214421   5.402   1.525   2.997
 4827TIP3    H114422   5.307   1.522   2.987
 4827TIP3    H214423   5.419   1.605   3.047
 4828TIP3   OH214424   4.042   0.103   3.351
 4828TIP3    H114425   4.053   0.021   3.302
 4828TIP3    H214426   4.132   0.133   3.368
 4829TIP3   OH214427   5.287   1.411   6.411
 4829TIP3    H114428   5.244   1.398   6.326
 4829TIP3    H214429   5.319   1.501   6.408
 4830TIP3   OH214430   7.852   5.671   0.579
 4830TIP3    H114431   7.878   5.670   0.487
 4830TIP3    H214432   7.934   5.664   0.628
 4831TIP3   OH214433   0.523   1.605   6.026
 4831TIP3    H114434   0.600   1.622   6.081
 4831TIP3    H214435   0.448   1.618   6.084
 4832TIP3   OH214436   6.714   5.235   1.771
 4832TIP3    H114437   6.754   5.177   1.837
 4832TIP3    H214438   6.627   5.254   1.806
 4833TIP3   OH214439   1.373   4.826   6.344
 4833TIP3    H114440   1.398   4.763   6.412
 4833TIP3    H214441   1.449   4.830   6.286
 4834TIP3   OH214442   2.148   0.933   3.869
 4834TIP3    H114443   2.225   0.948   3.924
 4834TIP3    H214444   2.169   0.856   3.818
 4835TIP3   OH214445   4.192   2.636   6.833
 4835TIP3    H114446   4.200   2.726   6.801
 4835TIP3    H214447   4.105   2.632   6.874
 4836TIP3   OH214448   1.836   2.131   6.467
 4836TIP3    H114449   1.742   2.147   6.478
 4836TIP3    H214450   1.858   2.174   6.384
 4837TIP3   OH214451   6.186   5.567   4.122
 4837TIP3    H114452   6.246   5.641   4.112
 4837TIP3    H214453   6.115   5.601   4.177
 4838TIP3   OH214454   2.435   0.838   0.405
 4838TIP3    H114455   2.461   0.806   0.491
 4838TIP3    H214456   2.348   0.875   0.418
 4839TIP3   OH214457   1.163   2.553   1.177
 4839TIP3    H114458   1.099   2.560   1.106
 4839TIP3    H214459   1.149   2.632   1.229
 4840TIP3   OH214460   8.362   0.494   1.826
 4840TIP3    H114461   8.347   0.462   1.915
 4840TIP3    H214462   8.294   0.561   1.813
 4841TIP3   OH214463   1.142   0.963   3.597
 4841TIP3    H114464   1.158   1.045   3.645
 4841TIP3    H214465   1.109   0.903   3.663
 4842TIP3   OH214466   7.063   7.134   0.896
 4842TIP3    H114467   7.154   7.116   0.920
 4842TIP3    H214468   7.067   7.219   0.852
 4843TIP3   OH214469   3.118   2.887   5.410
 4843TIP3    H114470   3.063   2.810   5.425
 4843TIP3    H214471   3.150   2.910   5.498
 4844TIP3   OH214472   7.764   7.109   2.234
 4844TIP3    H114473   7.792   7.200   2.225
 4844TIP3    H214474   7.668   7.114   2.235
 4845TIP3   OH214475   3.985   3.727   3.555
 4845TIP3    H114476   4.070   3.718   3.512
 4845TIP3    H214477   3.984   3.659   3.622
 4846TIP3   OH214478   5.292   2.195   6.810
 4846TIP3    H114479   5.317   2.247   6.733
 4846TIP3    H214480   5.359   2.127   6.815
 4847TIP3   OH214481   6.993   3.387   4.546
 4847TIP3    H114482   6.953   3.468   4.576
 4847TIP3    H214483   6.921   3.339   4.504
 4848TIP3   OH214484   3.444   7.738   1.680
 4848TIP3    H114485   3.369   7.797   1.689
 4848TIP3    H214486   3.449   7.693   1.764
 4849TIP3   OH214487   0.856   3.510   4.600
 4849TIP3    H114488   0.791   3.494   4.669
 4849TIP3    H214489   0.931   3.547   4.646
 4850TIP3   OH214490   5.500   1.088   1.925
 4850TIP3    H114491   5.405   1.081   1.938
 4850TIP3    H214492   5.538   1.031   1.992
 4851TIP3   OH214493   2.566   6.672   0.059
 4851TIP3    H114494   2.534   6.653   0.147
 4851TIP3    H214495   2.661   6.663   0.066
 4852TIP3   OH214496   4.188   5.302   3.177
 4852TIP3    H114497   4.244   5.299   3.099
 4852TIP3    H214498   4.099   5.308   3.143
 4853TIP3   OH214499   6.335   0.988   4.134
 4853TIP3    H114500   6.385   0.930   4.191
 4853TIP3    H214501   6.364   0.966   4.045
 4854TIP3   OH214502   1.162   6.799   5.901
 4854TIP3    H114503   1.142   6.811   5.994
 4854TIP3    H214504   1.245   6.751   5.900
 4855TIP3   OH214505   6.531   2.341   1.320
 4855TIP3    H114506   6.450   2.292   1.330
 4855TIP3    H214507   6.567   2.348   1.409
 4856TIP3   OH214508   3.845   1.590   3.449
 4856TIP3    H114509   3.866   1.625   3.535
 4856TIP3    H214510   3.927   1.594   3.400
 4857TIP3   OH214511   5.806   0.201   2.292
 4857TIP3    H114512   5.880   0.234   2.343
 4857TIP3    H214513   5.794   0.111   2.322
 4858TIP3   OH214514   2.567   0.537   4.190
 4858TIP3    H114515   2.546   0.444   4.194
 4858TIP3    H214516   2.493   0.577   4.146
 4859TIP3   OH214517   6.359   3.713   4.628
 4859TIP3    H114518   6.271   3.681   4.612
 4859TIP3    H214519   6.363   3.726   4.723
 4860TIP3   OH214520   0.400   7.002   3.693
 4860TIP3    H114521   0.417   6.910   3.714
 4860TIP3    H214522   0.322   6.999   3.637
 4861TIP3   OH214523   4.742   1.023   2.001
 4861TIP3    H114524   4.745   1.118   2.016
 4861TIP3    H214525   4.668   0.994   2.055
 4862TIP3   OH214526   7.242   3.138   0.626
 4862TIP3    H114527   7.234   3.117   0.533
 4862TIP3    H214528   7.222   3.231   0.632
 4863TIP3   OH214529   1.531   3.947   3.789
 4863TIP3    H114530   1.505   3.901   3.709
 4863TIP3    H214531   1.515   4.039   3.769
 4864TIP3   OH214532   7.195   7.823   6.183
 4864TIP3    H114533   7.249   7.768   6.126
 4864TIP3    H214534   7.180   7.902   6.131
 4865TIP3   OH214535   2.145   1.724   5.456
 4865TIP3    H114536   2.235   1.723   5.490
 4865TIP3    H214537   2.100   1.790   5.509
 4866TIP3   OH214538   4.521   6.723   2.372
 4866TIP3    H114539   4.510   6.767   2.287
 4866TIP3    H214540   4.613   6.735   2.393
 4867TIP3   OH214541   7.519   5.737   1.006
 4867TIP3    H114542   7.546   5.700   0.923
 4867TIP3    H214543   7.432   5.774   0.989
 4868TIP3   OH214544   1.908   1.789   4.628
 4868TIP3    H114545   1.906   1.810   4.721
 4868TIP3    H214546   1.886   1.696   4.624
 4869TIP3   OH214547   4.726   3.250   5.735
 4869TIP3    H114548   4.650   3.230   5.679
 4869TIP3    H214549   4.790   3.183   5.712
 4870TIP3   OH214550   3.331   6.930   3.958
 4870TIP3    H114551   3.360   7.014   3.993
 4870TIP3    H214552   3.295   6.884   4.034
 4871TIP3   OH214553   1.877   3.536   1.122
 4871TIP3    H114554   1.841   3.564   1.206
 4871TIP3    H214555   1.871   3.440   1.125
 4872TIP3   OH214556   2.234   0.559   3.236
 4872TIP3    H114557   2.170   0.607   3.183
 4872TIP3    H214558   2.220   0.467   3.213
 4873TIP3   OH214559   4.272   1.876   1.894
 4873TIP3    H114560   4.261   1.931   1.817
 4873TIP3    H214561   4.366   1.856   1.896
 4874TIP3   OH214562   7.387   1.980   2.558
 4874TIP3    H114563   7.432   1.904   2.595
 4874TIP3    H214564   7.392   2.047   2.627
 4875TIP3   OH214565   8.280   7.601   5.071
 4875TIP3    H114566   8.284   7.509   5.097
 4875TIP3    H214567   8.187   7.619   5.058
 4876TIP3   OH214568   4.862   4.877   3.140
 4876TIP3    H114569   4.938   4.847   3.189
 4876TIP3    H214570   4.793   4.814   3.161
 4877TIP3   OH214571   1.293   4.144   1.895
 4877TIP3    H114572   1.270   4.059   1.855
 4877TIP3    H214573   1.382   4.161   1.864
 4878TIP3   OH214574   6.725   1.310   5.505
 4878TIP3    H114575   6.783   1.378   5.537
 4878TIP3    H214576   6.781   1.233   5.495
 4879TIP3   OH214577   1.948   6.842   6.404
 4879TIP3    H114578   1.887   6.903   6.363
 4879TIP3    H214579   1.894   6.788   6.461
 4880TIP3   OH214580   3.946   3.628   2.381
 4880TIP3    H114581   3.854   3.629   2.355
 4880TIP3    H214582   3.992   3.667   2.306
 4881TIP3   OH214583   5.084   3.187   2.192
 4881TIP3    H114584   5.024   3.233   2.134
 4881TIP3    H214585   5.169   3.190   2.147
 4882TIP3   OH214586   3.898   3.089   4.598
 4882TIP3    H114587   3.900   3.000   4.633
 4882TIP3    H214588   3.951   3.140   4.659
 4883TIP3   OH214589   5.214   2.543   4.799
 4883TIP3    H114590   5.303   2.573   4.818
 4883TIP3    H214591   5.159   2.620   4.813
 4884TIP3   OH214592   7.241   7.564   5.336
 4884TIP3    H114593   7.176   7.607   5.393
 4884TIP3    H214594   7.201   7.480   5.314
 4885TIP3   OH214595   6.168   0.238   5.894
 4885TIP3    H114596   6.193   0.158   5.849
 4885TIP3    H214597   6.087   0.216   5.940
 4886TIP3   OH214598   7.070   3.362   3.674
 4886TIP3    H114599   7.040   3.329   3.759
 4886TIP3    H214600   7.072   3.285   3.618
 4887TIP3   OH214601   3.004   5.098   4.601
 4887TIP3    H114602   3.045   5.067   4.520
 4887TIP3    H214603   2.910   5.085   4.586
 4888TIP3   OH214604   1.909   1.386   1.135
 4888TIP3    H114605   1.895   1.292   1.120
 4888TIP3    H214606   2.002   1.400   1.119
 4889TIP3   OH214607   4.529   1.757   1.949
 4889TIP3    H114608   4.547   1.674   1.905
 4889TIP3    H214609   4.569   1.747   2.036
 4890TIP3   OH214610   6.782   1.575   2.595
 4890TIP3    H114611   6.764   1.492   2.550
 4890TIP3    H214612   6.764   1.642   2.530
 4891TIP3   OH214613   0.403   1.009   2.872
 4891TIP3    H114614   0.380   1.078   2.810
 4891TIP3    H214615   0.490   1.033   2.904
 4892TIP3   OH214616   2.045   2.026   6.587
 4892TIP3    H114617   1.979   2.074   6.538
 4892TIP3    H214618   2.086   2.092   6.643
 4893TIP3   OH214619   0.962   1.865   4.939
 4893TIP3    H114620   1.018   1.798   4.979
 4893TIP3    H214621   0.877   1.822   4.927
 4894TIP3   OH214622   1.239   7.082   0.261
 4894TIP3    H114623   1.172   7.089   0.329
 4894TIP3    H214624   1.204   7.016   0.200
 4895TIP3   OH214625   3.326   2.710   2.308
 4895TIP3    H114626   3.343   2.728   2.216
 4895TIP3    H214627   3.231   2.706   2.315
 4896TIP3   OH214628   6.131   6.273   6.723
 4896TIP3    H114629   6.225   6.291   6.725
 4896TIP3    H214630   6.112   6.238   6.811
 4897TIP3   OH214631   3.923   5.907   1.574
 4897TIP3    H114632   3.967   5.988   1.601
 4897TIP3    H214633   3.921   5.912   1.479
 4898TIP3   OH214634   2.418   3.595   2.413
 4898TIP3    H114635   2.460   3.616   2.497
 4898TIP3    H214636   2.451   3.661   2.352
 4899TIP3   OH214637   6.194   6.227   4.275
 4899TIP3    H114638   6.119   6.194   4.324
 4899TIP3    H214639   6.234   6.292   4.333
 4900TIP3   OH214640   7.302   1.695   5.977
 4900TIP3    H114641   7.316   1.785   6.005
 4900TIP3    H214642   7.207   1.682   5.982
 4901TIP3   OH214643   7.836   5.169   6.131
 4901TIP3    H114644   7.798   5.230   6.067
 4901TIP3    H214645   7.764   5.111   6.154
 4902TIP3   OH214646   2.201   6.546   6.213
 4902TIP3    H114647   2.234   6.568   6.300
 4902TIP3    H214648   2.107   6.530   6.227
 4903TIP3   OH214649   6.376   0.822   5.548
 4903TIP3    H114650   6.464   0.860   5.542
 4903TIP3    H214651   6.319   0.884   5.503
 4904TIP3   OH214652   7.368   4.940   0.947
 4904TIP3    H114653   7.383   4.954   1.040
 4904TIP3    H214654   7.273   4.950   0.936
 4905TIP3   OH214655   3.261   2.666   5.667
 4905TIP3    H114656   3.323   2.735   5.646
 4905TIP3    H214657   3.177   2.698   5.634
 4906TIP3   OH214658   6.544   6.342   0.378
 4906TIP3    H114659   6.535   6.423   0.428
 4906TIP3    H214660   6.607   6.290   0.427
 4907TIP3   OH214661   4.244   2.565   4.339
 4907TIP3    H114662   4.166   2.593   4.291
 4907TIP3    H214663   4.288   2.505   4.280
 4908TIP3   OH214664   6.168   3.530   4.571
 4908TIP3    H114665   6.211   3.473   4.635
 4908TIP3    H214666   6.075   3.510   4.578
 4909TIP3   OH214667   6.333   7.656   0.900
 4909TIP3    H114668   6.319   7.575   0.949
 4909TIP3    H214669   6.385   7.630   0.824
 4910TIP3   OH214670   1.073   6.735   4.237
 4910TIP3    H114671   1.118   6.805   4.189
 4910TIP3    H214672   1.012   6.698   4.173
 4911TIP3   OH214673   4.319   2.752   6.530
 4911TIP3    H114674   4.358   2.665   6.544
 4911TIP3    H214675   4.392   2.805   6.496
 4912TIP3   OH214676   7.369   1.505   1.353
 4912TIP3    H114677   7.370   1.436   1.420
 4912TIP3    H214678   7.298   1.563   1.379
 4913TIP3   OH214679   5.043   1.878   2.615
 4913TIP3    H114680   5.133   1.868   2.584
 4913TIP3    H214681   4.990   1.877   2.535
 4914TIP3   OH214682   4.495   0.166   0.771
 4914TIP3    H114683   4.517   0.100   0.705
 4914TIP3    H214684   4.579   0.204   0.795
 4915TIP3   OH214685   0.470   6.577   0.383
 4915TIP3    H114686   0.428   6.497   0.414
 4915TIP3    H214687   0.396   6.634   0.358
 4916TIP3   OH214688   5.705   2.956   3.036
 4916TIP3    H114689   5.617   2.948   3.001
 4916TIP3    H214690   5.706   2.901   3.115
 4917TIP3   OH214691   1.632   5.998   3.217
 4917TIP3    H114692   1.549   5.959   3.242
 4917TIP3    H214693   1.698   5.933   3.241
 4918TIP3   OH214694   1.829   6.707   3.020
 4918TIP3    H114695   1.743   6.672   2.997
 4918TIP3    H214696   1.857   6.654   3.095
 4919TIP3   OH214697   4.009   1.272   5.621
 4919TIP3    H114698   3.972   1.218   5.692
 4919TIP3    H214699   3.934   1.320   5.586
 4920TIP3   OH214700   0.052   3.418   5.527
 4920TIP3    H114701   0.104   3.353   5.573
 4920TIP3    H214702  -0.025   3.370   5.497
 4921TIP3   OH214703   6.106   4.757   4.263
 4921TIP3    H114704   6.096   4.711   4.347
 4921TIP3    H214705   6.150   4.695   4.206
 4922TIP3   OH214706   3.081   2.810   3.232
 4922TIP3    H114707   2.998   2.850   3.206
 4922TIP3    H214708   3.100   2.747   3.162
 4923TIP3   OH214709   3.799   7.323   0.889
 4923TIP3    H114710   3.845   7.254   0.938
 4923TIP3    H214711   3.838   7.321   0.802
 4924TIP3   OH214712   5.680   6.271   1.351
 4924TIP3    H114713   5.759   6.219   1.337
 4924TIP3    H214714   5.695   6.351   1.301
 4925TIP3   OH214715   3.787   0.379   6.273
 4925TIP3    H114716   3.805   0.472   6.257
 4925TIP3    H214717   3.735   0.378   6.353
 4926TIP3   OH214718   2.883   6.671   2.785
 4926TIP3    H114719   2.930   6.723   2.719
 4926TIP3    H214720   2.887   6.581   2.751
 4927TIP3   OH214721   2.596   3.951   6.741
 4927TIP3    H114722   2.575   4.026   6.685
 4927TIP3    H214723   2.669   3.981   6.795
 4928TIP3   OH214724   1.331   6.452   2.805
 4928TIP3    H114725   1.406   6.398   2.779
 4928TIP3    H214726   1.284   6.469   2.723
 4929TIP3   OH214727   0.062   2.784   1.148
 4929TIP3    H114728   0.034   2.804   1.059
 4929TIP3    H214729   0.155   2.763   1.140
 4930TIP3   OH214730   0.562   5.987   1.512
 4930TIP3    H114731   0.589   5.950   1.428
 4930TIP3    H214732   0.633   5.965   1.572
 4931TIP3   OH214733   4.393   4.354   6.534
 4931TIP3    H114734   4.345   4.437   6.529
 4931TIP3    H214735   4.388   4.330   6.627
 4932TIP3   OH214736   0.072   0.491   4.027
 4932TIP3    H114737   0.133   0.485   3.953
 4932TIP3    H214738  -0.015   0.483   3.988
 4933TIP3   OH214739   5.442   1.328   1.646
 4933TIP3    H114740   5.466   1.305   1.556
 4933TIP3    H214741   5.359   1.283   1.661
 4934TIP3   OH214742   5.771   4.393   2.837
 4934TIP3    H114743   5.799   4.305   2.860
 4934TIP3    H214744   5.852   4.439   2.816
 4935TIP3   OH214745   6.750   6.917   1.040
 4935TIP3    H114746   6.759   6.832   0.998
 4935TIP3    H214747   6.761   6.980   0.968
 4936TIP3   OH214748   1.054   4.895   3.327
 4936TIP3    H114749   1.115   4.876   3.256
 4936TIP3    H214750   1.110   4.925   3.399
 4937TIP3   OH214751   0.127   4.390   0.211
 4937TIP3    H114752   0.170   4.371   0.294
 4937TIP3    H214753   0.034   4.372   0.226
 4938TIP3   OH214754   4.629   2.284   0.645
 4938TIP3    H114755   4.580   2.353   0.689
 4938TIP3    H214756   4.678   2.328   0.577
 4939TIP3   OH214757   4.403   1.325   5.141
 4939TIP3    H114758   4.315   1.293   5.159
 4939TIP3    H214759   4.393   1.389   5.070
 4940TIP3   OH214760   7.277   2.230   4.799
 4940TIP3    H114761   7.198   2.202   4.753
 4940TIP3    H214762   7.328   2.150   4.810
 4941TIP3   OH214763   7.332   1.662   3.499
 4941TIP3    H114764   7.410   1.623   3.460
 4941TIP3    H214765   7.272   1.675   3.425
 4942TIP3   OH214766   6.123   7.798   1.225
 4942TIP3    H114767   6.135   7.869   1.288
 4942TIP3    H214768   6.029   7.779   1.229
 4943TIP3   OH214769   2.360   4.101   5.912
 4943TIP3    H114770   2.277   4.063   5.941
 4943TIP3    H214771   2.364   4.186   5.955
 4944TIP3   OH214772   6.791   6.797   2.885
 4944TIP3    H114773   6.777   6.752   2.802
 4944TIP3    H214774   6.772   6.730   2.951
 4945TIP3   OH214775   0.572   3.861   5.634
 4945TIP3    H114776   0.639   3.902   5.688
 4945TIP3    H214777   0.613   3.782   5.599
 4946TIP3   OH214778   0.627   6.453   1.357
 4946TIP3    H114779   0.584   6.380   1.403
 4946TIP3    H214780   0.557   6.495   1.307
 4947TIP3   OH214781   1.477   3.646   2.923
 4947TIP3    H114782   1.460   3.584   2.853
 4947TIP3    H214783   1.490   3.730   2.879
 4948TIP3   OH214784   6.887   3.559   4.209
 4948TIP3    H114785   6.793   3.551   4.221
 4948TIP3    H214786   6.919   3.594   4.292
 4949TIP3   OH214787   3.909   1.214   1.160
 4949TIP3    H114788   3.967   1.228   1.236
 4949TIP3    H214789   3.824   1.245   1.190
 4950TIP3   OH214790   7.732   2.837   2.795
 4950TIP3    H114791   7.794   2.851   2.866
 4950TIP3    H214792   7.655   2.798   2.837
 4951TIP3   OH214793   6.624   5.978   0.482
 4951TIP3    H114794   6.565   5.950   0.411
 4951TIP3    H214795   6.566   6.015   0.548
 4952TIP3   OH214796   1.695   3.445   3.592
 4952TIP3    H114797   1.682   3.529   3.635
 4952TIP3    H214798   1.790   3.435   3.588
 4953TIP3   OH214799   6.209   2.293   5.889
 4953TIP3    H114800   6.251   2.351   5.826
 4953TIP3    H214801   6.224   2.205   5.854
 4954TIP3   OH214802   6.450   3.557   2.960
 4954TIP3    H114803   6.445   3.462   2.957
 4954TIP3    H214804   6.539   3.577   2.931
 4955TIP3   OH214805   1.614   1.667   5.841
 4955TIP3    H114806   1.669   1.677   5.763
 4955TIP3    H214807   1.535   1.623   5.810
 4956TIP3   OH214808   1.631   6.931   1.682
 4956TIP3    H114809   1.701   6.960   1.623
 4956TIP3    H214810   1.676   6.876   1.746
 4957TIP3   OH214811   8.077   5.975   2.227
 4957TIP3    H114812   8.075   5.906   2.161
 4957TIP3    H214813   8.023   5.942   2.299
 4958TIP3   OH214814   8.297   6.989   3.759
 4958TIP3    H114815   8.283   7.078   3.725
 4958TIP3    H214816   8.344   6.944   3.689
 4959TIP3   OH214817   7.913   0.082   1.533
 4959TIP3    H114818   7.961   0.096   1.615
 4959TIP3    H214819   7.854   0.009   1.552
 4960TIP3   OH214820   4.565   5.085   2.918
 4960TIP3    H114821   4.655   5.117   2.919
 4960TIP3    H214822   4.512   5.163   2.933
 4961TIP3   OH214823   6.741   2.845   1.933
 4961TIP3    H114824   6.656   2.818   1.967
 4961TIP3    H214825   6.744   2.939   1.946
 4962TIP3   OH214826   5.510   7.165   2.300
 4962TIP3    H114827   5.475   7.119   2.224
 4962TIP3    H214828   5.546   7.246   2.265
 4963TIP3   OH214829   5.354   4.070   4.352
 4963TIP3    H114830   5.336   4.024   4.434
 4963TIP3    H214831   5.290   4.141   4.351
 4964TIP3   OH214832   0.317   4.132   3.346
 4964TIP3    H114833   0.242   4.109   3.292
 4964TIP3    H214834   0.362   4.049   3.362
 4965TIP3   OH214835   2.650   4.505   6.087
 4965TIP3    H114836   2.683   4.529   6.000
 4965TIP3    H214837   2.729   4.485   6.137
 4966TIP3   OH214838   7.344   0.816   2.703
 4966TIP3    H114839   7.373   0.816   2.611
 4966TIP3    H214840   7.284   0.742   2.708
 4967TIP3   OH214841   0.738   3.050   1.072
 4967TIP3    H114842   0.781   3.097   1.001
 4967TIP3    H214843   0.701   2.972   1.030
 4968TIP3   OH214844   3.229   1.909   6.139
 4968TIP3    H114845   3.136   1.888   6.145
 4968TIP3    H214846   3.267   1.876   6.220
 4969TIP3   OH214847   7.598   1.072   2.800
 4969TIP3    H114848   7.588   1.166   2.810
 4969TIP3    H214849   7.599   1.057   2.705
 4970TIP3   OH214850   5.505   7.430   1.029
 4970TIP3    H114851   5.533   7.495   1.093
 4970TIP3    H214852   5.457   7.365   1.080
 4971TIP3   OH214853   6.399   2.374   3.622
 4971TIP3    H114854   6.489   2.341   3.627
 4971TIP3    H214855   6.405   2.466   3.649
 4972TIP3   OH214856   8.138   4.240   1.852
 4972TIP3    H114857   8.060   4.185   1.838
 4972TIP3    H214858   8.167   4.219   1.940
 4973TIP3   OH214859   3.693   2.891   3.663
 4973TIP3    H114860   3.599   2.877   3.669
 4973TIP3    H214861   3.726   2.815   3.615
 4974TIP3   OH214862   3.039   6.803   1.791
 4974TIP3    H114863   3.090   6.814   1.871
 4974TIP3    H214864   2.987   6.724   1.806
 4975TIP3   OH214865   2.411   3.629   3.996
 4975TIP3    H114866   2.337   3.659   3.942
 4975TIP3    H214867   2.412   3.534   3.984
 4976TIP3   OH214868   7.487   0.927   0.085
 4976TIP3    H114869   7.531   0.962   0.163
 4976TIP3    H214870   7.544   0.953   0.013
 4977TIP3   OH214871   5.023   4.413   5.062
 4977TIP3    H114872   5.033   4.442   4.971
 4977TIP3    H214873   4.930   4.395   5.071
 4978TIP3   OH214874   6.806   4.129   4.829
 4978TIP3    H114875   6.901   4.117   4.832
 4978TIP3    H214876   6.794   4.209   4.778
 4979TIP3   OH214877   6.121   7.051   2.458
 4979TIP3    H114878   6.041   7.059   2.405
 4979TIP3    H214879   6.096   6.992   2.529
 4980TIP3   OH214880   7.952   4.616   5.725
 4980TIP3    H114881   8.029   4.635   5.670
 4980TIP3    H214882   7.976   4.536   5.771
 4981TIP3   OH214883   3.315   7.425   5.240
 4981TIP3    H114884   3.405   7.456   5.243
 4981TIP3    H214885   3.267   7.493   5.193
 4982TIP3   OH214886   3.394   1.783   0.143
 4982TIP3    H114887   3.304   1.754   0.124
 4982TIP3    H214888   3.391   1.878   0.127
 4983TIP3   OH214889   5.550   7.580   5.393
 4983TIP3    H114890   5.607   7.629   5.452
 4983TIP3    H214891   5.574   7.488   5.408
 4984TIP3   OH214892   7.036   1.139   6.024
 4984TIP3    H114893   6.955   1.184   6.047
 4984TIP3    H214894   7.105   1.198   6.051
 4985TIP3   OH214895   0.472   3.142   0.916
 4985TIP3    H114896   0.431   3.162   1.000
 4985TIP3    H214897   0.564   3.167   0.927
 4986TIP3   OH214898   5.452   5.137   5.219
 4986TIP3    H114899   5.514   5.065   5.215
 4986TIP3    H214900   5.406   5.125   5.302
 4987TIP3   OH214901   2.206   3.121   3.930
 4987TIP3    H114902   2.120   3.083   3.948
 4987TIP3    H214903   2.218   3.110   3.836
 4988TIP3   OH214904   0.689   0.866   0.287
 4988TIP3    H114905   0.713   0.911   0.368
 4988TIP3    H214906   0.608   0.820   0.307
 4989TIP3   OH214907   6.905   0.810   2.836
 4989TIP3    H114908   6.953   0.803   2.918
 4989TIP3    H214909   6.952   0.878   2.786
 4990TIP3   OH214910   2.234   2.161   1.055
 4990TIP3    H114911   2.251   2.073   1.088
 4990TIP3    H214912   2.139   2.165   1.044
 4991TIP3   OH214913   1.451   7.430   3.483
 4991TIP3    H114914   1.487   7.518   3.473
 4991TIP3    H214915   1.528   7.372   3.480
 4992TIP3   OH214916   4.973   6.709   0.655
 4992TIP3    H114917   4.949   6.796   0.625
 4992TIP3    H214918   4.892   6.671   0.689
 4993TIP3   OH214919   4.095   4.083   4.809
 4993TIP3    H114920   4.065   4.002   4.849
 4993TIP3    H214921   4.114   4.141   4.883
 4994TIP3   OH214922   6.948   7.284   1.102
 4994TIP3    H114923   6.899   7.363   1.077
 4994TIP3    H214924   6.969   7.242   1.018
 4995TIP3   OH214925   2.962   2.405   3.158
 4995TIP3    H114926   2.987   2.376   3.246
 4995TIP3    H214927   2.866   2.404   3.159
 4996TIP3   OH214928   4.261   0.533   4.141
 4996TIP3    H114929   4.352   0.533   4.168
 4996TIP3    H214930   4.214   0.490   4.212
 4997TIP3   OH214931   8.028   5.468   2.415
 4997TIP3    H114932   8.000   5.436   2.330
 4997TIP3    H214933   8.112   5.511   2.399
 4998TIP3   OH214934   2.843   0.544   4.169
 4998TIP3    H114935   2.879   0.572   4.253
 4998TIP3    H214936   2.750   0.564   4.174
 4999TIP3   OH214937   2.934   1.365   3.864
 4999TIP3    H114938   2.935   1.420   3.942
 4999TIP3    H214939   2.959   1.424   3.793
 5000TIP3   OH214940   0.865   7.090   4.869
 5000TIP3    H114941   0.941   7.137   4.833
 5000TIP3    H214942   0.860   7.009   4.818
 5001TIP3   OH214943   0.448   6.476   5.445
 5001TIP3    H114944   0.542   6.489   5.438
 5001TIP3    H214945   0.410   6.563   5.427
 5002TIP3   OH214946   6.564   6.311   4.924
 5002TIP3    H114947   6.587   6.353   5.007
 5002TIP3    H214948   6.483   6.264   4.943
 5003TIP3   OH214949   7.781   7.181   2.740
 5003TIP3    H114950   7.730   7.261   2.729
 5003TIP3    H214951   7.730   7.113   2.696
 5004TIP3   OH214952   2.760   4.566   3.434
 5004TIP3    H114953   2.734   4.523   3.352
 5004TIP3    H214954   2.847   4.602   3.417
 5005TIP3   OH214955   1.796   0.141   1.520
 5005TIP3    H114956   1.851   0.081   1.470
 5005TIP3    H214957   1.815   0.227   1.483
 5006TIP3   OH214958   7.241   1.324   2.367
 5006TIP3    H114959   7.197   1.247   2.331
 5006TIP3    H214960   7.200   1.398   2.324
 5007TIP3   OH214961   5.772   1.252   3.183
 5007TIP3    H114962   5.753   1.242   3.276
 5007TIP3    H214963   5.861   1.289   3.181
 5008TIP3   OH214964   2.478   3.681   1.723
 5008TIP3    H114965   2.550   3.724   1.678
 5008TIP3    H214966   2.414   3.664   1.654
 5009TIP3   OH214967   7.353   5.971   0.815
 5009TIP3    H114968   7.295   5.927   0.753
 5009TIP3    H214969   7.307   5.966   0.899
 5010TIP3   OH214970   0.011   3.773   3.320
 5010TIP3    H114971   0.084   3.711   3.313
 5010TIP3    H214972   0.030   3.822   3.400
 5011TIP3   OH214973   1.757   1.138   2.730
 5011TIP3    H114974   1.833   1.081   2.737
 5011TIP3    H214975   1.718   1.138   2.818
 5012TIP3   OH214976   0.495   6.001   6.187
 5012TIP3    H114977   0.579   5.960   6.167
 5012TIP3    H214978   0.515   6.095   6.192
 5013TIP3   OH214979   3.651   7.646   0.411
 5013TIP3    H114980   3.696   7.620   0.492
 5013TIP3    H214981   3.579   7.584   0.403
 5014TIP3   OH214982   0.214   4.830   1.724
 5014TIP3    H114983   0.211   4.782   1.641
 5014TIP3    H214984   0.189   4.766   1.790
 5015TIP3   OH214985   0.885   5.239   4.553
 5015TIP3    H114986   0.900   5.241   4.648
 5015TIP3    H214987   0.816   5.303   4.539
 5016TIP3   OH214988   3.061   7.259   0.182
 5016TIP3    H114989   3.141   7.237   0.134
 5016TIP3    H214990   2.994   7.268   0.115
 5017TIP3   OH214991   4.553   1.165   6.387
 5017TIP3    H114992   4.617   1.234   6.401
 5017TIP3    H214993   4.594   1.086   6.422
 5018TIP3   OH214994   6.772   2.274   5.143
 5018TIP3    H114995   6.721   2.330   5.085
 5018TIP3    H214996   6.859   2.314   5.145
 5019TIP3   OH214997   3.869   6.229   1.657
 5019TIP3    H114998   3.809   6.182   1.598
 5019TIP3    H214999   3.879   6.315   1.616
 5020TIP3   OH215000   3.856   2.208   1.531
 5020TIP3    H115001   3.860   2.240   1.620
 5020TIP3    H215002   3.838   2.114   1.540
 5021TIP3   OH215003   0.334   2.938   3.499
 5021TIP3    H115004   0.249   2.969   3.531
 5021TIP3    H215005   0.324   2.843   3.490
 5022TIP3   OH215006   3.852   2.329   3.532
 5022TIP3    H115007   3.849   2.395   3.602
 5022TIP3    H215008   3.870   2.247   3.578
 5023TIP3   OH215009   3.022   3.234   4.662
 5023TIP3    H115010   2.951   3.263   4.718
 5023TIP3    H215011   3.077   3.311   4.652
 5024TIP3   OH215012   7.309   4.533   1.256
 5024TIP3    H115013   7.354   4.562   1.176
 5024TIP3    H215014   7.294   4.439   1.243
 5025TIP3   OH215015   4.693   7.790   2.679
 5025TIP3    H115016   4.685   7.802   2.585
 5025TIP3    H215017   4.731   7.872   2.710
 5026TIP3   OH215018   6.111   4.874   3.678
 5026TIP3    H115019   6.019   4.860   3.655
 5026TIP3    H215020   6.111   4.956   3.727
 5027TIP3   OH215021   5.123   5.179   0.685
 5027TIP3    H115022   5.155   5.167   0.596
 5027TIP3    H215023   5.202   5.190   0.738
 5028TIP3   OH215024   5.455   4.390   4.320
 5028TIP3    H115025   5.416   4.422   4.239
 5028TIP3    H215026   5.384   4.345   4.365
 5029TIP3   OH215027   4.498   5.685   4.698
 5029TIP3    H115028   4.456   5.734   4.628
 5029TIP3    H215029   4.474   5.733   4.778
 5030TIP3   OH215030   7.574   0.833   6.272
 5030TIP3    H115031   7.531   0.774   6.211
 5030TIP3    H215032   7.623   0.774   6.330
 5031TIP3   OH215033   2.421   6.992   5.525
 5031TIP3    H115034   2.398   6.965   5.614
 5031TIP3    H215035   2.479   6.923   5.493
 5032TIP3   OH215036   3.795   6.366   5.859
 5032TIP3    H115037   3.776   6.433   5.923
 5032TIP3    H215038   3.890   6.357   5.861
 5033TIP3   OH215039   0.388   4.092   3.077
 5033TIP3    H115040   0.322   4.095   3.146
 5033TIP3    H215041   0.463   4.048   3.117
 5034TIP3   OH215042   5.066   1.239   2.336
 5034TIP3    H115043   5.128   1.170   2.313
 5034TIP3    H215044   5.057   1.234   2.431
 5035TIP3   OH215045   2.044   4.267   0.227
 5035TIP3    H115046   2.049   4.298   0.137
 5035TIP3    H215047   2.105   4.323   0.275
 5036TIP3   OH215048   1.200   5.121   5.795
 5036TIP3    H115049   1.274   5.061   5.805
 5036TIP3    H215050   1.175   5.144   5.885
 5037TIP3   OH215051   3.582   4.158   5.554
 5037TIP3    H115052   3.555   4.071   5.584
 5037TIP3    H215053   3.506   4.214   5.573
 5038TIP3   OH215054   0.683   3.715   1.277
 5038TIP3    H115055   0.741   3.791   1.270
 5038TIP3    H215056   0.743   3.640   1.285
 5039TIP3   OH215057   1.677   2.694   3.584
 5039TIP3    H115058   1.589   2.668   3.613
 5039TIP3    H215059   1.662   2.741   3.502
 5040TIP3   OH215060   0.331   1.663   4.689
 5040TIP3    H115061   0.288   1.675   4.774
 5040TIP3    H215062   0.300   1.577   4.659
 5041TIP3   OH215063   0.121   1.205   0.859
 5041TIP3    H115064   0.091   1.235   0.774
 5041TIP3    H215065   0.048   1.155   0.894
 5042TIP3   OH215066   1.184   6.880   2.503
 5042TIP3    H115067   1.225   6.902   2.420
 5042TIP3    H215068   1.090   6.890   2.487
 5043TIP3   OH215069   0.005   3.058   4.683
 5043TIP3    H115070   0.098   3.038   4.692
 5043TIP3    H215071  -0.038   2.999   4.744
 5044TIP3   OH215072   1.523   4.621   0.977
 5044TIP3    H115073   1.445   4.590   1.023
 5044TIP3    H215074   1.565   4.681   1.039
 5045TIP3   OH215075   0.045   3.192   6.116
 5045TIP3    H115076   0.081   3.276   6.142
 5045TIP3    H215077   0.092   3.127   6.168
 5046TIP3   OH215078   4.987   6.189   2.212
 5046TIP3    H115079   4.927   6.246   2.260
 5046TIP3    H215080   5.074   6.212   2.245
 5047TIP3   OH215081   2.216   1.707   1.919
 5047TIP3    H115082   2.137   1.683   1.967
 5047TIP3    H215083   2.284   1.651   1.956
 5048TIP3   OH215084   6.913   6.133   2.553
 5048TIP3    H115085   6.971   6.095   2.619
 5048TIP3    H215086   6.826   6.128   2.592
 5049TIP3   OH215087   1.760   2.524   3.074
 5049TIP3    H115088   1.730   2.434   3.058
 5049TIP3    H215089   1.762   2.564   2.987
 5050TIP3   OH215090   5.729   6.630   4.770
 5050TIP3    H115091   5.791   6.622   4.697
 5050TIP3    H215092   5.651   6.583   4.741
 5051TIP3   OH215093   2.834   3.748   1.948
 5051TIP3    H115094   2.871   3.704   1.872
 5051TIP3    H215095   2.899   3.737   2.017
 5052TIP3   OH215096   2.143   7.132   4.086
 5052TIP3    H115097   2.070   7.166   4.138
 5052TIP3    H215098   2.220   7.179   4.118
 5053TIP3   OH215099   5.098   6.030   1.154
 5053TIP3    H115100   5.084   5.994   1.241
 5053TIP3    H215101   5.148   5.963   1.108
 5054TIP3   OH215102   6.376   0.339   1.364
 5054TIP3    H115103   6.333   0.404   1.308
 5054TIP3    H215104   6.438   0.389   1.416
 5055TIP3   OH215105   0.692   7.614   3.705
 5055TIP3    H115106   0.738   7.656   3.778
 5055TIP3    H215107   0.722   7.524   3.706
 5056TIP3   OH215108   6.663   7.129   3.042
 5056TIP3    H115109   6.735   7.089   3.089
 5056TIP3    H215110   6.591   7.066   3.049
 5057TIP3   OH215111   7.697   1.896   1.359
 5057TIP3    H115112   7.716   1.941   1.276
 5057TIP3    H215113   7.715   1.961   1.426
 5058TIP3   OH215114   4.874   1.015   6.158
 5058TIP3    H115115   4.782   1.013   6.182
 5058TIP3    H215116   4.918   0.962   6.224
 5059TIP3   OH215117   0.026   7.908   6.130
 5059TIP3    H115118   0.064   7.970   6.193
 5059TIP3    H215119   0.034   7.823   6.173
 5060TIP3   OH215120   1.409   2.142   1.180
 5060TIP3    H115121   1.320   2.143   1.216
 5060TIP3    H215122   1.430   2.235   1.166
 5061TIP3   OH215123   2.556   3.916   0.502
 5061TIP3    H115124   2.460   3.914   0.512
 5061TIP3    H215125   2.570   3.921   0.408
 5062TIP3   OH215126   7.738   1.337   0.391
 5062TIP3    H115127   7.655   1.383   0.403
 5062TIP3    H215128   7.790   1.358   0.469
 5063TIP3   OH215129   3.399   6.792   3.145
 5063TIP3    H115130   3.493   6.773   3.147
 5063TIP3    H215131   3.358   6.705   3.140
 5064TIP3   OH215132   4.910   0.461   2.991
 5064TIP3    H115133   4.819   0.481   3.013
 5064TIP3    H215134   4.959   0.479   3.071
 5065TIP3   OH215135   7.468   2.991   2.895
 5065TIP3    H115136   7.385   2.968   2.938
 5065TIP3    H215137   7.456   2.964   2.804
 5066TIP3   OH215138   0.889   0.186   5.754
 5066TIP3    H115139   0.808   0.228   5.783
 5066TIP3    H215140   0.873   0.164   5.663
 5067TIP3   OH215141   0.885   6.819   6.135
 5067TIP3    H115142   0.907   6.900   6.182
 5067TIP3    H215143   0.903   6.840   6.043
 5068TIP3   OH215144   7.880   5.457   1.370
 5068TIP3    H115145   7.889   5.477   1.277
 5068TIP3    H215146   7.909   5.366   1.378
 5069TIP3   OH215147   4.598   1.924   1.315
 5069TIP3    H115148   4.604   1.832   1.339
 5069TIP3    H215149   4.593   1.970   1.399
 5070TIP3   OH215150   4.435   6.360   1.553
 5070TIP3    H115151   4.340   6.353   1.563
 5070TIP3    H215152   4.470   6.282   1.596
 5071TIP3   OH215153   5.171   2.067   1.631
 5071TIP3    H115154   5.239   2.117   1.585
 5071TIP3    H215155   5.219   2.009   1.689
 5072TIP3   OH215156   2.912   0.924   1.169
 5072TIP3    H115157   2.903   1.000   1.226
 5072TIP3    H215158   2.997   0.936   1.126
 5073TIP3   OH215159   6.090   0.729   3.313
 5073TIP3    H115160   6.047   0.729   3.228
 5073TIP3    H215161   6.030   0.679   3.369
 5074TIP3   OH215162   6.945   5.219   5.397
 5074TIP3    H115163   6.872   5.259   5.445
 5074TIP3    H215164   7.018   5.220   5.458
 5075TIP3   OH215165   3.431   2.828   1.959
 5075TIP3    H115166   3.448   2.853   1.868
 5075TIP3    H215167   3.339   2.804   1.961
 5076TIP3   OH215168   5.424   5.848   5.904
 5076TIP3    H115169   5.360   5.841   5.834
 5076TIP3    H215170   5.387   5.912   5.965
 5077TIP3   OH215171   1.833   3.222   0.863
 5077TIP3    H115172   1.828   3.241   0.769
 5077TIP3    H215173   1.850   3.128   0.867
 5078TIP3   OH215174   7.332   1.276   1.940
 5078TIP3    H115175   7.313   1.365   1.969
 5078TIP3    H215176   7.247   1.232   1.939
 5079TIP3   OH215177   4.736   2.375   1.018
 5079TIP3    H115178   4.671   2.317   1.058
 5079TIP3    H215179   4.689   2.417   0.945
 5080TIP3   OH215180   8.019   7.286   0.610
 5080TIP3    H115181   8.020   7.266   0.704
 5080TIP3    H215182   8.000   7.202   0.568
 5081TIP3   OH215183   5.439   2.102   4.318
 5081TIP3    H115184   5.516   2.148   4.352
 5081TIP3    H215185   5.418   2.147   4.236
 5082TIP3   OH215186   5.104   5.755   4.677
 5082TIP3    H115187   5.158   5.774   4.754
 5082TIP3    H215188   5.030   5.815   4.685
 5083TIP3   OH215189   1.987   5.067   1.751
 5083TIP3    H115190   1.948   5.143   1.795
 5083TIP3    H215191   2.051   5.033   1.814
 5084TIP3   OH215192   3.904   5.246   5.554
 5084TIP3    H115193   3.958   5.305   5.501
 5084TIP3    H215194   3.897   5.290   5.639
 5085TIP3   OH215195   1.428   1.131   4.091
 5085TIP3    H115196   1.443   1.076   4.168
 5085TIP3    H215197   1.334   1.126   4.076
 5086TIP3   OH215198   4.060   4.121   2.758
 5086TIP3    H115199   4.047   4.034   2.720
 5086TIP3    H215200   4.106   4.106   2.840
 5087TIP3   OH215201   3.825   1.720   6.621
 5087TIP3    H115202   3.883   1.734   6.546
 5087TIP3    H215203   3.753   1.781   6.608
 5088TIP3   OH215204   2.848   4.085   0.777
 5088TIP3    H115205   2.774   4.113   0.724
 5088TIP3    H215206   2.880   4.165   0.819
 5089TIP3   OH215207   4.776   0.455   1.652
 5089TIP3    H115208   4.767   0.405   1.571
 5089TIP3    H215209   4.787   0.389   1.720
 5090TIP3   OH215210   5.049   7.119   1.431
 5090TIP3    H115211   5.017   7.210   1.430
 5090TIP3    H215212   5.004   7.078   1.357
 5091TIP3   OH215213   7.369   7.087   0.474
 5091TIP3    H115214   7.370   7.029   0.550
 5091TIP3    H215215   7.430   7.047   0.412
 5092TIP3   OH215216   7.085   6.143   4.497
 5092TIP3    H115217   7.152   6.125   4.431
 5092TIP3    H215218   7.091   6.237   4.513
 5093TIP3   OH215219   0.497   1.666   6.312
 5093TIP3    H115220   0.587   1.669   6.282
 5093TIP3    H215221   0.494   1.591   6.372
 5094TIP3   OH215222   6.599   7.887   5.323
 5094TIP3    H115223   6.612   7.793   5.332
 5094TIP3    H215224   6.586   7.900   5.229
 5095TIP3   OH215225   3.802   0.558   5.725
 5095TIP3    H115226   3.806   0.469   5.689
 5095TIP3    H215227   3.730   0.556   5.787
 5096TIP3   OH215228   3.128   4.261   6.754
 5096TIP3    H115229   3.091   4.189   6.704
 5096TIP3    H215230   3.222   4.257   6.736
 5097TIP3   OH215231   1.097   1.073   2.629
 5097TIP3    H115232   1.172   1.041   2.578
 5097TIP3    H215233   1.088   1.009   2.700
 5098TIP3   OH215234   5.798   0.558   1.378
 5098TIP3    H115235   5.890   0.573   1.399
 5098TIP3    H215236   5.800   0.489   1.311
 5099TIP3   OH215237   6.063   4.021   5.803
 5099TIP3    H115238   6.043   4.062   5.887
 5099TIP3    H215239   5.979   4.014   5.759
 5100TIP3   OH215240   3.891   7.269   6.042
 5100TIP3    H115241   3.973   7.284   6.090
 5100TIP3    H215242   3.919   7.236   5.956
 5101TIP3   OH215243   8.324   2.944   5.313
 5101TIP3    H115244   8.231   2.966   5.316
 5101TIP3    H215245   8.327   2.858   5.273
 5102TIP3   OH215246   4.180   2.412   1.400
 5102TIP3    H115247   4.234   2.354   1.347
 5102TIP3    H215248   4.115   2.447   1.339
 5103TIP3   OH215249   4.230   1.840   0.463
 5103TIP3    H115250   4.205   1.757   0.503
 5103TIP3    H215251   4.155   1.897   0.478
 5104TIP3   OH215252   8.261   0.826   3.568
 5104TIP3    H115253   8.291   0.740   3.539
 5104TIP3    H215254   8.166   0.817   3.577
 5105TIP3   OH215255   1.594   7.549   2.257
 5105TIP3    H115256   1.595   7.588   2.344
 5105TIP3    H215257   1.539   7.471   2.266
 5106TIP3   OH215258   4.650   2.818   3.733
 5106TIP3    H115259   4.635   2.731   3.770
 5106TIP3    H215260   4.745   2.826   3.727
 5107TIP3   OH215261   6.963   0.937   1.640
 5107TIP3    H115262   6.979   1.006   1.576
 5107TIP3    H215263   6.882   0.895   1.611
 5108TIP3   OH215264   3.593   4.805   6.205
 5108TIP3    H115265   3.621   4.888   6.244
 5108TIP3    H215266   3.514   4.780   6.253
 5109TIP3   OH215267   6.342   4.293   0.788
 5109TIP3    H115268   6.401   4.219   0.799
 5109TIP3    H215269   6.344   4.312   0.694
 5110TIP3   OH215270   5.088   3.632   3.348
 5110TIP3    H115271   5.060   3.642   3.439
 5110TIP3    H215272   5.008   3.644   3.297
 5111TIP3   OH215273   1.583   7.053   1.959
 5111TIP3    H115274   1.564   6.993   1.887
 5111TIP3    H215275   1.563   7.003   2.038
 5112TIP3   OH215276   6.037   2.408   2.961
 5112TIP3    H115277   6.076   2.475   3.017
 5112TIP3    H215278   6.102   2.339   2.957
 5113TIP3   OH215279   3.198   5.861   5.397
 5113TIP3    H115280   3.135   5.863   5.468
 5113TIP3    H215281   3.149   5.828   5.322
 5114TIP3   OH215282   2.296   5.096   4.437
 5114TIP3    H115283   2.377   5.057   4.470
 5114TIP3    H215284   2.315   5.189   4.430
 5115TIP3   OH215285   1.372   2.387   1.308
 5115TIP3    H115286   1.421   2.465   1.336
 5115TIP3    H215287   1.287   2.421   1.280
 5116TIP3   OH215288   0.418   3.427   1.188
 5116TIP3    H115289   0.329   3.395   1.198
 5116TIP3    H215290   0.460   3.410   1.273
 5117TIP3   OH215291   6.613   0.068   0.207
 5117TIP3    H115292   6.674  -0.005   0.195
 5117TIP3    H215293   6.551   0.038   0.273
 5118TIP3   OH215294   7.965   0.875   4.935
 5118TIP3    H115295   7.913   0.891   5.013
 5118TIP3    H215296   7.995   0.962   4.908
 5119TIP3   OH215297   0.825   7.068   1.593
 5119TIP3    H115298   0.768   7.048   1.519
 5119TIP3    H215299   0.849   6.982   1.629
 5120TIP3   OH215300   5.321   0.426   6.295
 5120TIP3    H115301   5.359   0.340   6.279
 5120TIP3    H215302   5.234   0.408   6.331
 5121TIP3   OH215303   0.247   7.231   4.115
 5121TIP3    H115304   0.294   7.296   4.063
 5121TIP3    H215305   0.154   7.249   4.097
 5122TIP3   OH215306   2.453   2.157   6.083
 5122TIP3    H115307   2.538   2.116   6.096
 5122TIP3    H215308   2.453   2.232   6.142
 5123TIP3   OH215309   0.335   0.517   6.648
 5123TIP3    H115310   0.239   0.516   6.658
 5123TIP3    H215311   0.364   0.437   6.693
 5124TIP3   OH215312   6.363   5.000   5.144
 5124TIP3    H115313   6.403   4.913   5.134
 5124TIP3    H215314   6.383   5.045   5.062
 5125TIP3   OH215315   4.017   1.991   0.562
 5125TIP3    H115316   4.051   2.042   0.636
 5125TIP3    H215317   3.972   1.917   0.603
 5126TIP3   OH215318   6.229   3.968   1.816
 5126TIP3    H115319   6.215   3.874   1.798
 5126TIP3    H215320   6.215   3.977   1.910
 5127TIP3   OH215321   0.704   2.857   0.878
 5127TIP3    H115322   0.648   2.785   0.906
 5127TIP3    H215323   0.744   2.826   0.797
 5128TIP3   OH215324   3.914   7.416   2.851
 5128TIP3    H115325   3.925   7.341   2.793
 5128TIP3    H215326   3.939   7.383   2.937
 5129TIP3   OH215327   7.010   3.571   2.682
 5129TIP3    H115328   7.081   3.555   2.744
 5129TIP3    H215329   7.004   3.489   2.632
 5130TIP3   OH215330   2.836   3.467   4.023
 5130TIP3    H115331   2.917   3.483   4.072
 5130TIP3    H215332   2.808   3.553   3.995
 5131TIP3   OH215333   1.683   3.609   6.047
 5131TIP3    H115334   1.670   3.567   5.962
 5131TIP3    H215335   1.596   3.610   6.086
 5132TIP3   OH215336   2.727   3.219   1.334
 5132TIP3    H115337   2.820   3.235   1.353
 5132TIP3    H215338   2.716   3.125   1.344
 5133TIP3   OH215339   6.980   2.407   0.062
 5133TIP3    H115340   7.047   2.340   0.064
 5133TIP3    H215341   6.907   2.368   0.013
 5134TIP3   OH215342   3.021   2.000   6.389
 5134TIP3    H115343   2.985   1.941   6.322
 5134TIP3    H215344   3.116   1.984   6.385
 5135TIP3   OH215345   3.098   5.916   1.117
 5135TIP3    H115346   3.059   5.886   1.035
 5135TIP3    H215347   3.060   5.859   1.184
 5136TIP3   OH215348   0.427   1.244   2.715
 5136TIP3    H115349   0.390   1.321   2.673
 5136TIP3    H215350   0.462   1.192   2.644
 5137TIP3   OH215351   5.865   1.532   0.956
 5137TIP3    H115352   5.811   1.576   0.890
 5137TIP3    H215353   5.930   1.483   0.904
 5138TIP3   OH215354   7.661   3.372   6.753
 5138TIP3    H115355   7.633   3.408   6.837
 5138TIP3    H215356   7.632   3.436   6.688
 5139TIP3   OH215357   0.062   5.716   1.078
 5139TIP3    H115358   0.036   5.808   1.088
 5139TIP3    H215359   0.056   5.680   1.166
 5140TIP3   OH215360   3.590   3.342   1.956
 5140TIP3    H115361   3.625   3.361   2.043
 5140TIP3    H215362   3.508   3.296   1.972
 5141TIP3   OH215363   1.240   0.635   1.099
 5141TIP3    H115364   1.192   0.707   1.057
 5141TIP3    H215365   1.329   0.668   1.110
 5142TIP3   OH215366   0.915   4.065   5.197
 5142TIP3    H115367   0.972   4.050   5.121
 5142TIP3    H215368   0.835   4.100   5.159
 5143TIP3   OH215369   0.855   2.096   2.651
 5143TIP3    H115370   0.862   2.094   2.746
 5143TIP3    H215371   0.838   2.006   2.626
 5144TIP3   OH215372   0.345   3.055   4.719
 5144TIP3    H115373   0.290   3.047   4.797
 5144TIP3    H215374   0.419   2.997   4.735
 5145TIP3   OH215375   7.218   0.516   0.115
 5145TIP3    H115376   7.248   0.575   0.045
 5145TIP3    H215377   7.223   0.569   0.194
 5146TIP3   OH215378   3.185   0.078   5.466
 5146TIP3    H115379   3.257   0.123   5.421
 5146TIP3    H215380   3.152   0.016   5.402
 5147TIP3   OH215381   7.609   2.244   5.143
 5147TIP3    H115382   7.667   2.168   5.149
 5147TIP3    H215383   7.604   2.263   5.050
 5148TIP3   OH215384   5.421   4.868   0.475
 5148TIP3    H115385   5.436   4.834   0.563
 5148TIP3    H215386   5.509   4.877   0.438
 5149TIP3   OH215387   1.271   2.450   1.702
 5149TIP3    H115388   1.277   2.365   1.658
 5149TIP3    H215389   1.299   2.433   1.791
 5150TIP3   OH215390   5.719   5.461   1.331
 5150TIP3    H115391   5.725   5.396   1.261
 5150TIP3    H215392   5.792   5.440   1.389
 5151TIP3   OH215393   4.980   5.360   4.734
 5151TIP3    H115394   4.894   5.374   4.694
 5151TIP3    H215395   4.983   5.266   4.753
 5152TIP3   OH215396   0.339   6.879   6.091
 5152TIP3    H115397   0.337   6.798   6.040
 5152TIP3    H215398   0.269   6.932   6.054
 5153TIP3   OH215399   4.762   4.669   3.511
 5153TIP3    H115400   4.803   4.589   3.544
 5153TIP3    H215401   4.735   4.716   3.590
 5154TIP3   OH215402   1.608   7.434   4.350
 5154TIP3    H115403   1.516   7.460   4.339
 5154TIP3    H215404   1.657   7.500   4.301
 5155TIP3   OH215405   2.823   0.495   4.848
 5155TIP3    H115406   2.887   0.547   4.896
 5155TIP3    H215407   2.738   0.519   4.886
 5156TIP3   OH215408   2.760   7.043   2.699
 5156TIP3    H115409   2.844   6.996   2.696
 5156TIP3    H215410   2.722   7.028   2.612
 5157TIP3   OH215411   1.111  -0.015   0.015
 5157TIP3    H115412   1.107   0.050   0.085
 5157TIP3    H215413   1.043   0.013  -0.047
 5158TIP3   OH215414   1.239   4.773   0.650
 5158TIP3    H115415   1.208   4.706   0.590
 5158TIP3    H215416   1.332   4.752   0.664
 5159TIP3   OH215417   0.584   7.834   5.718
 5159TIP3    H115418   0.590   7.765   5.784
 5159TIP3    H215419   0.499   7.876   5.736
 5160TIP3   OH215420   4.312   2.975   0.831
 5160TIP3    H115421   4.378   2.913   0.860
 5160TIP3    H215422   4.257   2.925   0.771
 5161TIP3   OH215423   7.059   1.903   1.510
 5161TIP3    H115424   6.999   1.974   1.487
 5161TIP3    H215425   7.146   1.939   1.492
 5162TIP3   OH215426   3.837   1.185   5.073
 5162TIP3    H115427   3.745   1.173   5.048
 5162TIP3    H215428   3.843   1.146   5.160
 5163TIP3   OH215429   2.640   4.867   2.197
 5163TIP3    H115430   2.595   4.806   2.138
 5163TIP3    H215431   2.718   4.819   2.225
 5164TIP3   OH215432   1.036   3.904   4.596
 5164TIP3    H115433   0.957   3.856   4.621
 5164TIP3    H215434   1.108   3.847   4.621
 5165TIP3   OH215435   6.755   1.436   4.999
 5165TIP3    H115436   6.677   1.480   4.965
 5165TIP3    H215437   6.825   1.499   4.989
 5166TIP3   OH215438   6.941   7.778   2.429
 5166TIP3    H115439   7.022   7.823   2.450
 5166TIP3    H215440   6.967   7.707   2.371
 5167TIP3   OH215441   4.519   3.313   0.636
 5167TIP3    H115442   4.611   3.339   0.647
 5167TIP3    H215443   4.482   3.380   0.579
 5168TIP3   OH215444   7.077   4.081   4.847
 5168TIP3    H115445   7.126   4.001   4.867
 5168TIP3    H215446   7.141   4.138   4.804
 5169TIP3   OH215447   1.721   7.899   1.395
 5169TIP3    H115448   1.761   7.859   1.472
 5169TIP3    H215449   1.752   7.846   1.321
 5170TIP3   OH215450   7.255   4.102   6.080
 5170TIP3    H115451   7.287   4.048   6.152
 5170TIP3    H215452   7.270   4.048   6.002
 5171TIP3   OH215453   3.085   7.837   4.240
 5171TIP3    H115454   3.088   7.887   4.158
 5171TIP3    H215455   3.174   7.804   4.250
 5172TIP3   OH215456   1.265   3.247   4.601
 5172TIP3    H115457   1.327   3.183   4.566
 5172TIP3    H215458   1.181   3.199   4.604
 5173TIP3   OH215459   2.144   7.051   1.758
 5173TIP3    H115460   2.113   7.118   1.819
 5173TIP3    H215461   2.227   7.022   1.795
 5174TIP3   OH215462   4.102   6.981   4.798
 5174TIP3    H115463   4.028   7.015   4.748
 5174TIP3    H215464   4.067   6.969   4.887
 5175TIP3   OH215465   1.802   1.624   6.352
 5175TIP3    H115466   1.804   1.669   6.268
 5175TIP3    H215467   1.732   1.669   6.401
 5176TIP3   OH215468   0.208   3.813   3.872
 5176TIP3    H115469   0.243   3.768   3.795
 5176TIP3    H215470   0.157   3.746   3.917
 5177TIP3   OH215471   7.959   7.013   0.609
 5177TIP3    H115472   7.880   6.968   0.578
 5177TIP3    H215473   8.027   6.946   0.605
 5178TIP3   OH215474   1.644   1.245   0.888
 5178TIP3    H115475   1.654   1.339   0.898
 5178TIP3    H215476   1.644   1.230   0.793
 5179TIP3   OH215477   5.816   2.658   2.377
 5179TIP3    H115478   5.736   2.662   2.430
 5179TIP3    H215479   5.852   2.571   2.395
 5180TIP3   OH215480   7.071   4.064   5.280
 5180TIP3    H115481   7.002   4.128   5.261
 5180TIP3    H215482   7.148   4.098   5.235
 5181TIP3   OH215483   2.622   2.968   1.218
 5181TIP3    H115484   2.577   2.885   1.200
 5181TIP3    H215485   2.571   3.034   1.172
 5182TIP3   OH215486   4.699   5.480   5.894
 5182TIP3    H115487   4.730   5.569   5.914
 5182TIP3    H215488   4.628   5.465   5.956
 5183TIP3   OH215489   2.357   2.443   4.942
 5183TIP3    H115490   2.430   2.493   4.980
 5183TIP3    H215491   2.369   2.450   4.848
 5184TIP3   OH215492   4.592   1.131   3.302
 5184TIP3    H115493   4.539   1.105   3.227
 5184TIP3    H215494   4.528   1.149   3.371
 5185TIP3   OH215495   5.747   3.157   2.653
 5185TIP3    H115496   5.679   3.092   2.669
 5185TIP3    H215497   5.752   3.163   2.557
 5186TIP3   OH215498   0.052   6.898   3.538
 5186TIP3    H115499   0.062   6.804   3.524
 5186TIP3    H215500   0.013   6.930   3.457
 5187TIP3   OH215501   6.087   7.884   2.165
 5187TIP3    H115502   6.152   7.907   2.231
 5187TIP3    H215503   6.122   7.805   2.123
 5188TIP3   OH215504   5.497   1.307   4.948
 5188TIP3    H115505   5.592   1.301   4.942
 5188TIP3    H215506   5.472   1.362   4.874
 5189TIP3   OH215507   4.282   5.710   1.873
 5189TIP3    H115508   4.290   5.656   1.795
 5189TIP3    H215509   4.359   5.688   1.926
 5190TIP3   OH215510   7.669   3.371   2.981
 5190TIP3    H115511   7.621   3.332   3.054
 5190TIP3    H215512   7.695   3.296   2.927
 5191TIP3   OH215513   1.714   0.577   6.405
 5191TIP3    H115514   1.742   0.520   6.476
 5191TIP3    H215515   1.726   0.666   6.440
 5192TIP3   OH215516   5.816   5.458   6.206
 5192TIP3    H115517   5.874   5.391   6.168
 5192TIP3    H215518   5.728   5.421   6.198
 5193TIP3   OH215519   0.859   5.772   4.558
 5193TIP3    H115520   0.908   5.734   4.486
 5193TIP3    H215521   0.862   5.867   4.542
 5194TIP3   OH215522   3.100   4.922   6.178
 5194TIP3    H115523   3.173   4.926   6.239
 5194TIP3    H215524   3.046   4.849   6.209
 5195TIP3   OH215525   7.654   5.287   1.174
 5195TIP3    H115526   7.650   5.272   1.268
 5195TIP3    H215527   7.620   5.375   1.162
 5196TIP3   OH215528   7.918   1.081   1.185
 5196TIP3    H115529   7.916   1.044   1.097
 5196TIP3    H215530   7.955   1.011   1.239
 5197TIP3   OH215531   2.777   3.557   0.832
 5197TIP3    H115532   2.689   3.594   0.823
 5197TIP3    H215533   2.836   3.631   0.818
 5198TIP3   OH215534   4.999   5.371   2.997
 5198TIP3    H115535   5.086   5.345   2.967
 5198TIP3    H215536   5.008   5.386   3.091
 5199TIP3   OH215537   5.671   6.770   2.179
 5199TIP3    H115538   5.702   6.855   2.148
 5199TIP3    H215539   5.703   6.708   2.113
 5200TIP3   OH215540   3.297   4.088   1.741
 5200TIP3    H115541   3.356   4.162   1.754
 5200TIP3    H215542   3.336   4.017   1.793
 5201TIP3   OH215543   7.574   1.757   6.481
 5201TIP3    H115544   7.531   1.824   6.534
 5201TIP3    H215545   7.601   1.690   6.544
 5202TIP3   OH215546   6.867   2.980   5.737
 5202TIP3    H115547   6.826   2.906   5.781
 5202TIP3    H215548   6.961   2.968   5.753
 5203TIP3   OH215549   3.647   6.895   6.627
 5203TIP3    H115550   3.613   6.806   6.635
 5203TIP3    H215551   3.654   6.910   6.532
 5204TIP3   OH215552   1.911   4.287   1.346
 5204TIP3    H115553   1.885   4.218   1.286
 5204TIP3    H215554   1.955   4.352   1.290
 5205TIP3   OH215555   1.375   6.615   5.844
 5205TIP3    H115556   1.459   6.647   5.878
 5205TIP3    H215557   1.374   6.522   5.869
 5206TIP3   OH215558   6.040   0.601   0.242
 5206TIP3    H115559   6.082   0.617   0.157
 5206TIP3    H215560   6.086   0.524   0.277
 5207TIP3   OH215561   0.352   0.203   0.438
 5207TIP3    H115562   0.287   0.137   0.461
 5207TIP3    H215563   0.321   0.283   0.480
 5208TIP3   OH215564   6.501   4.741   5.172
 5208TIP3    H115565   6.456   4.657   5.161
 5208TIP3    H215566   6.566   4.724   5.240
 5209TIP3   OH215567   5.026   0.613   0.383
 5209TIP3    H115568   4.979   0.565   0.315
 5209TIP3    H215569   5.119   0.595   0.367
 5210TIP3   OH215570   3.001   2.110   1.763
 5210TIP3    H115571   3.086   2.105   1.720
 5210TIP3    H215572   2.978   2.019   1.783
 5211TIP3   OH215573   6.825   6.062   4.651
 5211TIP3    H115574   6.737   6.027   4.662
 5211TIP3    H215575   6.819   6.121   4.576
 5212TIP3   OH215576   4.809   0.626   4.006
 5212TIP3    H115577   4.731   0.662   4.049
 5212TIP3    H215578   4.882   0.672   4.048
 5213TIP3   OH215579   5.208   5.820   5.726
 5213TIP3    H115580   5.131   5.842   5.673
 5213TIP3    H215581   5.186   5.737   5.768
 5214TIP3   OH215582   6.264   1.345   5.679
 5214TIP3    H115583   6.184   1.295   5.697
 5214TIP3    H215584   6.244   1.393   5.598
 5215TIP3   OH215585   2.356   7.258   0.448
 5215TIP3    H115586   2.361   7.229   0.540
 5215TIP3    H215587   2.266   7.237   0.422
 5216TIP3   OH215588   3.032   7.739   3.906
 5216TIP3    H115589   3.097   7.769   3.842
 5216TIP3    H215590   2.972   7.813   3.915
 5217TIP3   OH215591   3.943   6.018   5.607
 5217TIP3    H115592   3.939   5.994   5.700
 5217TIP3    H215593   3.889   6.097   5.600
 5218TIP3   OH215594   3.349   4.731   2.978
 5218TIP3    H115595   3.260   4.757   3.002
 5218TIP3    H215596   3.366   4.777   2.896
 5219TIP3   OH215597   3.597   3.585   5.152
 5219TIP3    H115598   3.628   3.658   5.206
 5219TIP3    H215599   3.674   3.557   5.102
 5220TIP3   OH215600   5.605   6.616   6.139
 5220TIP3    H115601   5.582   6.709   6.141
 5220TIP3    H215602   5.653   6.601   6.221
 5221TIP3   OH215603   4.654   2.347   6.399
 5221TIP3    H115604   4.606   2.268   6.371
 5221TIP3    H215605   4.713   2.316   6.467
 5222TIP3   OH215606   4.153   7.419   1.242
 5222TIP3    H115607   4.128   7.348   1.183
 5222TIP3    H215608   4.078   7.428   1.301
 5223TIP3   OH215609   7.594   3.073   1.089
 5223TIP3    H115610   7.566   2.989   1.052
 5223TIP3    H215611   7.557   3.138   1.029
 5224TIP3   OH215612   0.647   0.948   5.994
 5224TIP3    H115613   0.682   0.902   5.918
 5224TIP3    H215614   0.617   0.879   6.052
 5225TIP3   OH215615   7.103   5.908   3.365
 5225TIP3    H115616   7.034   5.906   3.431
 5225TIP3    H215617   7.115   6.001   3.346
 5226TIP3   OH215618   5.447   4.082   2.214
 5226TIP3    H115619   5.440   3.998   2.170
 5226TIP3    H215620   5.414   4.145   2.150
 5227TIP3   OH215621   4.702   7.642   2.351
 5227TIP3    H115622   4.685   7.650   2.257
 5227TIP3    H215623   4.681   7.729   2.387
 5228TIP3   OH215624   8.357   6.849   0.636
 5228TIP3    H115625   8.338   6.849   0.730
 5228TIP3    H215626   8.401   6.933   0.620
 5229TIP3   OH215627   3.902   3.875   4.980
 5229TIP3    H115628   3.807   3.883   4.972
 5229TIP3    H215629   3.925   3.934   5.052
 5230TIP3   OH215630   5.742   1.648   4.303
 5230TIP3    H115631   5.783   1.562   4.289
 5230TIP3    H215632   5.648   1.630   4.303
 5231TIP3   OH215633   8.140   7.485   0.838
 5231TIP3    H115634   8.150   7.575   0.869
 5231TIP3    H215635   8.219   7.470   0.785
 5232TIP3   OH215636   3.701   5.545   0.110
 5232TIP3    H115637   3.732   5.552   0.020
 5232TIP3    H215638   3.673   5.634   0.133
 5233TIP3   OH215639   6.243   4.697   5.311
 5233TIP3    H115640   6.209   4.627   5.366
 5233TIP3    H215641   6.299   4.749   5.369
 5234TIP3   OH215642   4.408   3.747   0.923
 5234TIP3    H115643   4.402   3.652   0.924
 5234TIP3    H215644   4.495   3.766   0.886
 5235TIP3   OH215645   6.865   6.096   0.827
 5235TIP3    H115646   6.871   6.152   0.904
 5235TIP3    H215647   6.856   6.008   0.862
 5236TIP3   OH215648   4.886   0.852   1.170
 5236TIP3    H115649   4.930   0.928   1.131
 5236TIP3    H215650   4.936   0.777   1.139
 5237TIP3   OH215651   3.585   1.402   2.294
 5237TIP3    H115652   3.572   1.470   2.227
 5237TIP3    H215653   3.641   1.443   2.359
 5238TIP3   OH215654   2.187   2.544   0.155
 5238TIP3    H115655   2.135   2.512   0.229
 5238TIP3    H215656   2.124   2.549   0.082
 5239TIP3   OH215657   0.252   1.105   1.410
 5239TIP3    H115658   0.318   1.039   1.431
 5239TIP3    H215659   0.278   1.182   1.460
 5240TIP3   OH215660   2.409   4.698   4.684
 5240TIP3    H115661   2.470   4.626   4.697
 5240TIP3    H215662   2.399   4.737   4.771
 5241TIP3   OH215663   1.976   7.786   2.746
 5241TIP3    H115664   2.031   7.741   2.681
 5241TIP3    H215665   2.021   7.771   2.829
 5242TIP3   OH215666   3.530   1.768   4.355
 5242TIP3    H115667   3.621   1.750   4.378
 5242TIP3    H215668   3.493   1.809   4.433
 5243TIP3   OH215669   5.402   5.895   1.273
 5243TIP3    H115670   5.414   5.806   1.239
 5243TIP3    H215671   5.325   5.889   1.329
 5244TIP3   OH215672   0.452   0.719   4.496
 5244TIP3    H115673   0.490   0.695   4.412
 5244TIP3    H215674   0.454   0.814   4.497
 5245TIP3   OH215675   5.536   1.835   6.725
 5245TIP3    H115676   5.527   1.746   6.691
 5245TIP3    H215677   5.454   1.851   6.771
 5246TIP3   OH215678   1.178   7.709   5.157
 5246TIP3    H115679   1.254   7.711   5.215
 5246TIP3    H215680   1.129   7.788   5.179
 5247TIP3   OH215681   4.520   6.945   4.521
 5247TIP3    H115682   4.425   6.939   4.533
 5247TIP3    H215683   4.530   6.994   4.439
 5248TIP3   OH215684   2.332   5.566   2.173
 5248TIP3    H115685   2.243   5.532   2.165
 5248TIP3    H215686   2.327   5.630   2.244
 5249TIP3   OH215687   6.688   2.562   1.219
 5249TIP3    H115688   6.751   2.492   1.239
 5249TIP3    H215689   6.602   2.519   1.226
 5250TIP3   OH215690   3.949   6.536   3.773
 5250TIP3    H115691   3.998   6.471   3.723
 5250TIP3    H215692   3.868   6.548   3.724
 5251TIP3   OH215693   7.956   0.430   3.438
 5251TIP3    H115694   7.875   0.465   3.402
 5251TIP3    H215695   7.974   0.351   3.386
 5252TIP3   OH215696   0.811   1.303   1.218
 5252TIP3    H115697   0.728   1.325   1.259
 5252TIP3    H215698   0.859   1.386   1.214
 5253TIP3   OH215699   2.628   3.616   4.480
 5253TIP3    H115700   2.719   3.586   4.487
 5253TIP3    H215701   2.595   3.574   4.401
 5254TIP3   OH215702   7.618   6.886   0.976
 5254TIP3    H115703   7.648   6.933   1.054
 5254TIP3    H215704   7.644   6.795   0.992
 5255TIP3   OH215705   5.793   5.009   6.016
 5255TIP3    H115706   5.775   4.918   6.039
 5255TIP3    H215707   5.717   5.036   5.964
 5256TIP3   OH215708   1.609   0.195   5.622
 5256TIP3    H115709   1.536   0.140   5.594
 5256TIP3    H215710   1.644   0.152   5.700
 5257TIP3   OH215711   0.859   1.063   1.488
 5257TIP3    H115712   0.877   1.153   1.460
 5257TIP3    H215713   0.833   1.071   1.580
 5258TIP3   OH215714   2.573   6.328   5.630
 5258TIP3    H115715   2.521   6.397   5.591
 5258TIP3    H215716   2.630   6.298   5.559
 5259TIP3   OH215717   0.109   6.635   5.233
 5259TIP3    H115718   0.108   6.566   5.167
 5259TIP3    H215719   0.017   6.656   5.247
 5260TIP3   OH215720   2.503   4.916   4.541
 5260TIP3    H115721   2.434   4.869   4.587
 5260TIP3    H215722   2.584   4.878   4.574
 5261TIP3   OH215723   3.917   1.663   0.446
 5261TIP3    H115724   3.996   1.642   0.496
 5261TIP3    H215725   3.918   1.603   0.372
 5262TIP3   OH215726   3.195   5.311   5.816
 5262TIP3    H115727   3.253   5.241   5.786
 5262TIP3    H215728   3.199   5.307   5.911
 5263TIP3   OH215729   2.509   1.049   0.260
 5263TIP3    H115730   2.470   0.966   0.286
 5263TIP3    H215731   2.603   1.037   0.273
 5264TIP3   OH215732   7.108   7.621   4.170
 5264TIP3    H115733   7.130   7.698   4.221
 5264TIP3    H215734   7.019   7.597   4.200
 5265TIP3   OH215735   4.947   5.517   4.087
 5265TIP3    H115736   4.934   5.495   3.995
 5265TIP3    H215737   4.991   5.602   4.085
 5266TIP3   OH215738   4.024   1.376   1.343
 5266TIP3    H115739   3.990   1.465   1.354
 5266TIP3    H215740   4.113   1.388   1.310
 5267TIP3   OH215741   6.738   0.711   6.491
 5267TIP3    H115742   6.824   0.677   6.464
 5267TIP3    H215743   6.700   0.641   6.545
 5268TIP3   OH215744   0.840   2.424   1.345
 5268TIP3    H115745   0.804   2.490   1.286
 5268TIP3    H215746   0.881   2.475   1.415
 5269TIP3   OH215747   5.494   6.421   5.309
 5269TIP3    H115748   5.520   6.496   5.362
 5269TIP3    H215749   5.546   6.348   5.343
 5270TIP3   OH215750   0.577   5.615   4.963
 5270TIP3    H115751   0.489   5.581   4.951
 5270TIP3    H215752   0.570   5.708   4.941
 5271TIP3   OH215753   1.101   6.025   1.149
 5271TIP3    H115754   1.097   5.976   1.067
 5271TIP3    H215755   1.145   6.106   1.126
 5272TIP3   OH215756   5.397   5.529   2.235
 5272TIP3    H115757   5.491   5.516   2.223
 5272TIP3    H215758   5.376   5.484   2.316
 5273TIP3   OH215759   7.542   2.741   4.989
 5273TIP3    H115760   7.591   2.728   5.070
 5273TIP3    H215761   7.582   2.680   4.927
 5274TIP3   OH215762   1.851   5.780   3.224
 5274TIP3    H115763   1.934   5.737   3.202
 5274TIP3    H215764   1.794   5.763   3.149
 5275TIP3   OH215765   1.174   0.129   1.260
 5275TIP3    H115766   1.210   0.046   1.228
 5275TIP3    H215767   1.246   0.169   1.309
 5276TIP3   OH215768   1.901   4.183   5.502
 5276TIP3    H115769   1.969   4.151   5.562
 5276TIP3    H215770   1.913   4.278   5.502
 5277TIP3   OH215771   5.113   2.348   4.417
 5277TIP3    H115772   5.146   2.285   4.353
 5277TIP3    H215773   5.087   2.295   4.492
 5278TIP3   OH215774   6.815   1.804   3.242
 5278TIP3    H115775   6.858   1.887   3.261
 5278TIP3    H215776   6.832   1.750   3.319
 5279TIP3   OH215777   5.713   3.735   2.028
 5279TIP3    H115778   5.703   3.641   2.017
 5279TIP3    H215779   5.789   3.758   1.975
 5280TIP3   OH215780   6.597   5.705   1.165
 5280TIP3    H115781   6.512   5.723   1.206
 5280TIP3    H215782   6.584   5.622   1.119
 5281TIP3   OH215783   0.061   6.905   6.064
 5281TIP3    H115784   0.007   6.837   6.023
 5281TIP3    H215785   0.048   6.892   6.158
 5282TIP3   OH215786   5.297   4.877   4.213
 5282TIP3    H115787   5.263   4.962   4.241
 5282TIP3    H215788   5.392   4.884   4.226
 5283TIP3   OH215789   7.622   3.236   2.041
 5283TIP3    H115790   7.623   3.248   2.136
 5283TIP3    H215791   7.637   3.324   2.006
 5284TIP3   OH215792   1.757   7.559   3.268
 5284TIP3    H115793   1.780   7.592   3.181
 5284TIP3    H215794   1.678   7.609   3.292
 5285TIP3   OH215795   6.162   2.297   3.502
 5285TIP3    H115796   6.225   2.322   3.570
 5285TIP3    H215797   6.177   2.204   3.488
 5286TIP3   OH215798   2.212   2.946   1.205
 5286TIP3    H115799   2.180   2.890   1.277
 5286TIP3    H215800   2.247   3.023   1.249
 5287TIP3   OH215801   6.751   4.303   3.867
 5287TIP3    H115802   6.840   4.281   3.893
 5287TIP3    H215803   6.734   4.387   3.910
 5288TIP3   OH215804   6.511   3.376   1.429
 5288TIP3    H115805   6.508   3.436   1.504
 5288TIP3    H215806   6.565   3.304   1.459
 5289TIP3   OH215807   6.864   3.219   5.916
 5289TIP3    H115808   6.872   3.148   5.852
 5289TIP3    H215809   6.944   3.270   5.905
 5290TIP3   OH215810   4.809   1.126   4.571
 5290TIP3    H115811   4.764   1.042   4.565
 5290TIP3    H215812   4.837   1.133   4.662
 5291TIP3   OH215813   0.927   2.445   4.657
 5291TIP3    H115814   0.868   2.389   4.607
 5291TIP3    H215815   1.008   2.394   4.666
 5292TIP3   OH215816   7.650   7.274   0.617
 5292TIP3    H115817   7.658   7.198   0.676
 5292TIP3    H215818   7.731   7.272   0.565
 5293TIP3   OH215819   7.246   3.475   1.725
 5293TIP3    H115820   7.295   3.478   1.807
 5293TIP3    H215821   7.162   3.516   1.746
 5294TIP3   OH215822   2.388   0.374   2.639
 5294TIP3    H115823   2.437   0.299   2.673
 5294TIP3    H215824   2.453   0.443   2.630
 5295TIP3   OH215825   1.373   0.407   5.471
 5295TIP3    H115826   1.349   0.331   5.523
 5295TIP3    H215827   1.317   0.403   5.394
 5296TIP3   OH215828   1.529   2.573   1.409
 5296TIP3    H115829   1.522   2.667   1.427
 5296TIP3    H215830   1.585   2.539   1.479
 5297TIP3   OH215831   5.644   1.102   6.578
 5297TIP3    H115832   5.687   1.028   6.620
 5297TIP3    H215833   5.554   1.073   6.564
 5298TIP3   OH215834   4.109   1.147   5.987
 5298TIP3    H115835   4.049   1.218   5.962
 5298TIP3    H215836   4.170   1.187   6.048
 5299TIP3   OH215837   2.845   3.270   4.947
 5299TIP3    H115838   2.804   3.186   4.926
 5299TIP3    H215839   2.936   3.248   4.965
 5300TIP3   OH215840   3.211   7.385   0.933
 5300TIP3    H115841   3.172   7.384   0.846
 5300TIP3    H215842   3.179   7.466   0.973
 5301TIP3   OH215843   2.896   5.700   4.222
 5301TIP3    H115844   2.868   5.629   4.280
 5301TIP3    H215845   2.955   5.657   4.159
 5302TIP3   OH215846   4.956   3.433   3.050
 5302TIP3    H115847   4.931   3.351   3.092
 5302TIP3    H215848   4.881   3.454   2.993
 5303TIP3   OH215849   8.192   6.253   3.992
 5303TIP3    H115850   8.271   6.296   3.961
 5303TIP3    H215851   8.149   6.219   3.913
 5304TIP3   OH215852   2.397   5.944   5.904
 5304TIP3    H115853   2.422   6.015   5.845
 5304TIP3    H215854   2.446   5.868   5.872
 5305TIP3   OH215855   7.025   6.277   1.790
 5305TIP3    H115856   7.049   6.335   1.862
 5305TIP3    H215857   6.941   6.312   1.759
 5306TIP3   OH215858   2.589   7.719   5.051
 5306TIP3    H115859   2.684   7.713   5.061
 5306TIP3    H215860   2.572   7.694   4.960
 5307TIP3   OH215861   7.739   0.595   2.507
 5307TIP3    H115862   7.739   0.667   2.445
 5307TIP3    H215863   7.664   0.541   2.481
 5308TIP3   OH215864   6.018   7.861   0.305
 5308TIP3    H115865   5.981   7.920   0.371
 5308TIP3    H215866   6.078   7.917   0.255
 5309TIP3   OH215867   5.229   1.988   3.747
 5309TIP3    H115868   5.172   2.038   3.805
 5309TIP3    H215869   5.300   1.958   3.804
 5310TIP3   OH215870   8.355   1.036   6.772
 5310TIP3    H115871   8.271   1.004   6.738
 5310TIP3    H215872   8.409   0.957   6.780
 5311TIP3   OH215873   4.747   1.191   0.159
 5311TIP3    H115874   4.657   1.161   0.167
 5311TIP3    H215875   4.760   1.206   0.065
 5312TIP3   OH215876   4.036   4.865   0.549
 5312TIP3    H115877   3.967   4.926   0.574
 5312TIP3    H215878   4.026   4.853   0.455
 5313TIP3   OH215879   5.682   0.298   1.076
 5313TIP3    H115880   5.693   0.218   1.128
 5313TIP3    H215881   5.631   0.356   1.132
 5314TIP3   OH215882   2.409   5.650   6.329
 5314TIP3    H115883   2.418   5.576   6.389
 5314TIP3    H215884   2.407   5.727   6.385
 5315TIP3   OH215885   5.841   0.657   6.665
 5315TIP3    H115886   5.830   0.747   6.697
 5315TIP3    H215887   5.853   0.605   6.745
 5316TIP3   OH215888   8.186   7.480   3.402
 5316TIP3    H115889   8.146   7.501   3.487
 5316TIP3    H215890   8.262   7.538   3.396
 5317TIP3   OH215891   6.753   2.504   2.362
 5317TIP3    H115892   6.837   2.506   2.407
 5317TIP3    H215893   6.722   2.595   2.364
 5318TIP3   OH215894   4.164   2.725   0.013
 5318TIP3    H115895   4.169   2.635   0.046
 5318TIP3    H215896   4.225   2.774   0.069
 5319TIP3   OH215897   0.263   7.135   0.706
 5319TIP3    H115898   0.268   7.069   0.775
 5319TIP3    H215899   0.355   7.152   0.682
 5320TIP3   OH215900   5.262   2.903  -0.001
 5320TIP3    H115901   5.217   2.868   0.076
 5320TIP3    H215902   5.277   2.995   0.020
 5321TIP3   OH215903   6.305   1.025   2.928
 5321TIP3    H115904   6.366   1.067   2.988
 5321TIP3    H215905   6.220   1.066   2.948
 5322TIP3   OH215906   0.061   0.561   4.530
 5322TIP3    H115907   0.039   0.470   4.512
 5322TIP3    H215908   0.039   0.607   4.449
 5323TIP3   OH215909   1.149   6.929   1.287
 5323TIP3    H115910   1.185   6.898   1.204
 5323TIP3    H215911   1.081   6.991   1.262
 5324TIP3   OH215912   5.550   4.878   6.783
 5324TIP3    H115913   5.531   4.969   6.765
 5324TIP3    H215914   5.634   4.880   6.829
 5325TIP3   OH215915   2.100   1.453   5.195
 5325TIP3    H115916   2.017   1.407   5.206
 5325TIP3    H215917   2.158   1.389   5.155
 5326TIP3   OH215918   7.631   2.300   0.521
 5326TIP3    H115919   7.691   2.299   0.595
 5326TIP3    H215920   7.555   2.250   0.551
 5327TIP3   OH215921   8.126   1.248   0.453
 5327TIP3    H115922   8.144   1.244   0.359
 5327TIP3    H215923   8.173   1.326   0.483
 5328TIP3   OH215924   1.270   1.779   4.240
 5328TIP3    H115925   1.294   1.835   4.314
 5328TIP3    H215926   1.198   1.725   4.272
 5329TIP3   OH215927   2.694   3.071   0.329
 5329TIP3    H115928   2.630   3.052   0.397
 5329TIP3    H215929   2.656   3.033   0.250
 5330TIP3   OH215930   1.060   4.613   0.193
 5330TIP3    H115931   1.136   4.587   0.141
 5330TIP3    H215932   1.000   4.654   0.130
 5331TIP3   OH215933   5.253   3.105   6.575
 5331TIP3    H115934   5.324   3.100   6.511
 5331TIP3    H215935   5.257   3.194   6.610
 5332TIP3   OH215936   3.777   5.441   4.828
 5332TIP3    H115937   3.820   5.527   4.827
 5332TIP3    H215938   3.845   5.381   4.858
 5333TIP3   OH215939   5.318   4.133   1.523
 5333TIP3    H115940   5.340   4.042   1.504
 5333TIP3    H215941   5.273   4.164   1.445
 5334TIP3   OH215942   8.087   1.643   0.900
 5334TIP3    H115943   8.031   1.717   0.877
 5334TIP3    H215944   8.144   1.631   0.824
 5335TIP3   OH215945   0.590   2.304   3.692
 5335TIP3    H115946   0.674   2.337   3.724
 5335TIP3    H215947   0.527   2.326   3.760
 5336TIP3   OH215948   1.354   5.345   5.402
 5336TIP3    H115949   1.341   5.257   5.436
 5336TIP3    H215950   1.369   5.333   5.308
 5337TIP3   OH215951   6.546   3.702   2.721
 5337TIP3    H115952   6.539   3.795   2.744
 5337TIP3    H215953   6.530   3.699   2.627
 5338TIP3   OH215954   0.312   4.211   4.333
 5338TIP3    H115955   0.335   4.277   4.268
 5338TIP3    H215956   0.252   4.152   4.287
 5339TIP3   OH215957   6.806   7.768   4.619
 5339TIP3    H115958   6.793   7.688   4.567
 5339TIP3    H215959   6.896   7.794   4.600
 5340TIP3   OH215960   0.554   3.854   4.540
 5340TIP3    H115961   0.584   3.939   4.508
 5340TIP3    H215962   0.489   3.874   4.607
 5341TIP3   OH215963   0.204   6.835   1.768
 5341TIP3    H115964   0.262   6.883   1.829
 5341TIP3    H215965   0.242   6.850   1.682
 5342TIP3   OH215966   4.837   5.779   2.028
 5342TIP3    H115967   4.780   5.763   2.103
 5342TIP3    H215968   4.879   5.694   2.012
 5343TIP3   OH215969   2.760   7.189   1.761
 5343TIP3    H115970   2.741   7.187   1.667
 5343TIP3    H215971   2.683   7.149   1.802
 5344TIP3   OH215972   0.988   6.314   4.462
 5344TIP3    H115973   1.006   6.399   4.501
 5344TIP3    H215974   0.946   6.334   4.379
 5345TIP3   OH215975   0.623   2.086   3.517
 5345TIP3    H115976   0.718   2.093   3.515
 5345TIP3    H215977   0.595   2.158   3.573
 5346TIP3   OH215978   6.747   7.150   0.144
 5346TIP3    H115979   6.721   7.180   0.057
 5346TIP3    H215980   6.691   7.200   0.204
 5347TIP3   OH215981   6.256   2.484   5.662
 5347TIP3    H115982   6.324   2.424   5.633
 5347TIP3    H215983   6.187   2.475   5.597
 5348TIP3   OH215984   4.135   3.363   0.490
 5348TIP3    H115985   4.106   3.369   0.399
 5348TIP3    H215986   4.126   3.451   0.524
 5349TIP3   OH215987   7.065   4.581   0.335
 5349TIP3    H115988   7.027   4.504   0.293
 5349TIP3    H215989   7.038   4.654   0.279
 5350TIP3   OH215990   1.626   0.407   4.267
 5350TIP3    H115991   1.632   0.320   4.228
 5350TIP3    H215992   1.708   0.450   4.243
 5351TIP3   OH215993   5.605   3.605   5.597
 5351TIP3    H115994   5.538   3.558   5.647
 5351TIP3    H215995   5.672   3.627   5.661
 5352TIP3   OH215996   5.887   6.558   3.435
 5352TIP3    H115997   5.804   6.605   3.446
 5352TIP3    H215998   5.875   6.476   3.482
 5353TIP3   OH215999   1.507   3.252   5.124
 5353TIP3    H116000   1.512   3.262   5.219
 5353TIP3    H216001   1.534   3.162   5.108
 5354TIP3   OH216002   7.415   2.398   4.474
 5354TIP3    H116003   7.356   2.455   4.423
 5354TIP3    H216004   7.372   2.312   4.472
 5355TIP3   OH216005   3.379   4.741   4.839
 5355TIP3    H116006   3.452   4.752   4.901
 5355TIP3    H216007   3.341   4.656   4.863
 5356TIP3   OH216008   6.965   7.663   6.229
 5356TIP3    H116009   7.044   7.714   6.210
 5356TIP3    H216010   6.991   7.608   6.304
 5357TIP3   OH216011   5.018   7.033   4.997
 5357TIP3    H116012   5.097   7.067   5.039
 5357TIP3    H216013   5.048   6.956   4.949
 5358TIP3   OH216014   4.472   3.864   1.516
 5358TIP3    H116015   4.436   3.780   1.546
 5358TIP3    H216016   4.434   3.877   1.430
 5359TIP3   OH216017   4.344   7.691   5.544
 5359TIP3    H116018   4.368   7.783   5.537
 5359TIP3    H216019   4.249   7.690   5.530
 5360TIP3   OH216020   3.612   4.239   2.818
 5360TIP3    H116021   3.559   4.312   2.785
 5360TIP3    H216022   3.702   4.271   2.814
 5361TIP3   OH216023   3.266   1.406   2.714
 5361TIP3    H116024   3.269   1.497   2.686
 5361TIP3    H216025   3.182   1.398   2.760
 5362TIP3   OH216026   4.013   5.299   4.040
 5362TIP3    H116027   4.077   5.352   3.993
 5362TIP3    H216028   4.044   5.300   4.131
 5363TIP3   OH216029   7.287   6.780   3.916
 5363TIP3    H116030   7.305   6.700   3.866
 5363TIP3    H216031   7.350   6.844   3.882
 5364TIP3   OH216032   8.123   7.606   4.297
 5364TIP3    H116033   8.120   7.510   4.294
 5364TIP3    H216034   8.209   7.628   4.261
 5365TIP3   OH216035   4.782   5.180   4.623
 5365TIP3    H116036   4.841   5.119   4.667
 5365TIP3    H216037   4.813   5.183   4.533
 5366TIP3   OH216038   5.094   3.454   2.069
 5366TIP3    H116039   5.030   3.508   2.022
 5366TIP3    H216040   5.117   3.385   2.006
 5367TIP3   OH216041   0.859   6.391   4.239
 5367TIP3    H116042   0.785   6.450   4.256
 5367TIP3    H216043   0.872   6.396   4.144
 5368TIP3   OH216044   6.299   4.133   3.726
 5368TIP3    H116045   6.269   4.068   3.789
 5368TIP3    H216046   6.394   4.133   3.734
 5369TIP3   OH216047   3.531   7.692   0.155
 5369TIP3    H116048   3.584   7.650   0.223
 5369TIP3    H216049   3.527   7.784   0.180
 5370TIP3   OH216050   1.891   4.416   2.646
 5370TIP3    H116051   1.903   4.330   2.685
 5370TIP3    H216052   1.802   4.415   2.612
 5371TIP3   OH216053   1.101   4.188   0.446
 5371TIP3    H116054   1.028   4.216   0.390
 5371TIP3    H216055   1.089   4.093   0.455
 5372TIP3   OH216056   7.890   4.716   2.962
 5372TIP3    H116057   7.816   4.745   2.908
 5372TIP3    H216058   7.959   4.779   2.942
 5373TIP3   OH216059   1.043   4.236   1.974
 5373TIP3    H116060   1.124   4.222   1.926
 5373TIP3    H216061   1.035   4.160   2.031
 5374TIP3   OH216062   6.141   3.566   6.779
 5374TIP3    H116063   6.192   3.563   6.698
 5374TIP3    H216064   6.196   3.615   6.840
 5375TIP3   OH216065   4.371   1.121   1.587
 5375TIP3    H116066   4.365   1.119   1.682
 5375TIP3    H216067   4.369   1.029   1.561
 5376TIP3   OH216068   4.306   4.896   0.621
 5376TIP3    H116069   4.217   4.869   0.599
 5376TIP3    H216070   4.297   4.988   0.648
 5377TIP3   OH216071   0.615   0.694   5.452
 5377TIP3    H116072   0.542   0.632   5.444
 5377TIP3    H216073   0.669   0.658   5.522
 5378TIP3   OH216074   7.897   6.486   0.463
 5378TIP3    H116075   7.830   6.434   0.507
 5378TIP3    H216076   7.975   6.476   0.518
 5379TIP3   OH216077   4.334   0.112   4.148
 5379TIP3    H116078   4.410   0.170   4.156
 5379TIP3    H216079   4.362   0.044   4.088
 5380TIP3   OH216080   7.833   7.503   1.599
 5380TIP3    H116081   7.761   7.439   1.598
 5380TIP3    H216082   7.911   7.450   1.614
 5381TIP3   OH216083   2.546   2.568   2.050
 5381TIP3    H116084   2.619   2.582   2.110
 5381TIP3    H216085   2.468   2.592   2.101
 5382TIP3   OH216086   0.972   1.465   3.149
 5382TIP3    H116087   0.967   1.498   3.239
 5382TIP3    H216088   0.890   1.495   3.108
 5383TIP3   OH216089   5.306   4.667   5.158
 5383TIP3    H116090   5.249   4.735   5.123
 5383TIP3    H216091   5.252   4.623   5.225
 5384TIP3   OH216092   7.984   3.875   1.909
 5384TIP3    H116093   7.915   3.809   1.915
 5384TIP3    H216094   8.022   3.863   1.822
 5385TIP3   OH216095   2.376   5.916   1.952
 5385TIP3    H116096   2.459   5.948   1.917
 5385TIP3    H216097   2.383   5.930   2.047
 5386TIP3   OH216098   4.524   0.838   3.597
 5386TIP3    H116099   4.439   0.794   3.588
 5386TIP3    H216100   4.513   0.922   3.552
 5387TIP3   OH216101   2.832   5.956   0.506
 5387TIP3    H116102   2.737   5.942   0.511
 5387TIP3    H216103   2.853   5.948   0.413
 5388TIP3   OH216104   5.922   0.723   5.668
 5388TIP3    H116105   5.899   0.802   5.618
 5388TIP3    H216106   5.937   0.754   5.757
 5389TIP3   OH216107   3.641   1.768   3.927
 5389TIP3    H116108   3.620   1.733   3.841
 5389TIP3    H216109   3.622   1.696   3.987
 5390TIP3   OH216110   1.912   4.973   6.682
 5390TIP3    H116111   1.977   4.929   6.628
 5390TIP3    H216112   1.923   5.066   6.663
 5391TIP3   OH216113   1.809   6.929   5.105
 5391TIP3    H116114   1.718   6.904   5.116
 5391TIP3    H216115   1.824   6.926   5.011
 5392TIP3   OH216116   5.930   6.208   5.353
 5392TIP3    H116117   5.975   6.169   5.278
 5392TIP3    H216118   5.881   6.282   5.316
 5393TIP3   OH216119   7.291   6.137   1.208
 5393TIP3    H116120   7.340   6.211   1.171
 5393TIP3    H216121   7.199   6.162   1.197
 5394TIP3   OH216122   3.971   3.107   2.601
 5394TIP3    H116123   4.065   3.097   2.618
 5394TIP3    H216124   3.929   3.096   2.686
 5395TIP3   OH216125   1.681   4.872   0.506
 5395TIP3    H116126   1.683   4.825   0.589
 5395TIP3    H216127   1.597   4.849   0.467
 5396TIP3   OH216128   6.142   4.042   1.113
 5396TIP3    H116129   6.119   4.117   1.058
 5396TIP3    H216130   6.158   4.079   1.199
 5397TIP3   OH216131   5.889   6.051   5.772
 5397TIP3    H116132   5.944   6.084   5.843
 5397TIP3    H216133   5.825   5.995   5.816
 5398TIP3   OH216134   7.220   1.792   3.727
 5398TIP3    H116135   7.242   1.718   3.785
 5398TIP3    H216136   7.231   1.757   3.639
 5399TIP3   OH216137   5.378   7.045   4.160
 5399TIP3    H116138   5.428   7.090   4.092
 5399TIP3    H216139   5.325   6.981   4.113
 5400TIP3   OH216140   3.359   6.638   0.865
 5400TIP3    H116141   3.363   6.568   0.929
 5400TIP3    H216142   3.390   6.716   0.913
 5401TIP3   OH216143   5.796   5.328   3.645
 5401TIP3    H116144   5.740   5.339   3.722
 5401TIP3    H216145   5.737   5.298   3.576
 5402TIP3   OH216146   8.425   4.565   0.564
 5402TIP3    H116147   8.332   4.541   0.555
 5402TIP3    H216148   8.424   4.649   0.610
 5403TIP3   OH216149   2.789   4.349   2.914
 5403TIP3    H116150   2.756   4.384   2.831
 5403TIP3    H216151   2.873   4.394   2.927
 5404TIP3   OH216152   4.942   3.872   5.799
 5404TIP3    H116153   4.978   3.960   5.793
 5404TIP3    H216154   4.886   3.863   5.722
 5405TIP3   OH216155   6.233   6.934   6.760
 5405TIP3    H116156   6.172   6.987   6.710
 5405TIP3    H216157   6.318   6.951   6.720
 5406TIP3   OH216158   4.900   7.679   5.361
 5406TIP3    H116159   4.948   7.607   5.320
 5406TIP3    H216160   4.822   7.690   5.307
 5407TIP3   OH216161   4.391   0.806   4.394
 5407TIP3    H116162   4.337   0.732   4.420
 5407TIP3    H216163   4.379   0.870   4.464
 5408TIP3   OH216164   0.253   7.258   1.868
 5408TIP3    H116165   0.318   7.214   1.813
 5408TIP3    H216166   0.182   7.194   1.877
 5409TIP3   OH216167   0.649   3.613   5.750
 5409TIP3    H116168   0.664   3.566   5.668
 5409TIP3    H216169   0.557   3.638   5.746
 5410TIP3   OH216170   3.135   4.142   2.081
 5410TIP3    H116171   3.226   4.123   2.107
 5410TIP3    H216172   3.141   4.159   1.987
 5411TIP3   OH216173   6.571   4.143   4.608
 5411TIP3    H116174   6.656   4.101   4.624
 5411TIP3    H216175   6.538   4.165   4.695
 5412TIP3   OH216176   3.234   5.556   6.172
 5412TIP3    H116177   3.225   5.472   6.127
 5412TIP3    H216178   3.326   5.578   6.163
 5413TIP3   OH216179   8.086   6.703   6.195
 5413TIP3    H116180   8.154   6.689   6.130
 5413TIP3    H216181   8.127   6.676   6.278
 5414TIP3   OH216182   5.165   3.001   4.569
 5414TIP3    H116183   5.209   3.075   4.612
 5414TIP3    H216184   5.236   2.944   4.540
 5415TIP3   OH216185   1.434   4.861   2.865
 5415TIP3    H116186   1.492   4.866   2.940
 5415TIP3    H216187   1.378   4.785   2.882
 5416TIP3   OH216188   0.271   4.356   3.501
 5416TIP3    H116189   0.346   4.335   3.557
 5416TIP3    H216190   0.279   4.296   3.427
 5417TIP3   OH216191   1.823   0.870   4.632
 5417TIP3    H116192   1.788   0.824   4.556
 5417TIP3    H216193   1.912   0.837   4.641
 5418TIP3   OH216194   6.080   1.733   3.732
 5418TIP3    H116195   6.120   1.773   3.809
 5418TIP3    H216196   6.108   1.641   3.736
 5419TIP3   OH216197   0.596   1.860   0.368
 5419TIP3    H116198   0.653   1.800   0.416
 5419TIP3    H216199   0.514   1.860   0.419
 5420TIP3   OH216200   6.742   2.792   4.430
 5420TIP3    H116201   6.727   2.821   4.340
 5420TIP3    H216202   6.669   2.828   4.479
 5421TIP3   OH216203   1.607   5.530   5.363
 5421TIP3    H116204   1.570   5.449   5.396
 5421TIP3    H216205   1.569   5.539   5.275
 5422TIP3   OH216206   2.968   6.360   5.944
 5422TIP3    H116207   2.924   6.275   5.938
 5422TIP3    H216208   2.896   6.423   5.954
 5423TIP3   OH216209   0.581   0.660   0.548
 5423TIP3    H116210   0.674   0.640   0.553
 5423TIP3    H216211   0.566   0.722   0.620
 5424TIP3   OH216212   2.130   0.081   2.630
 5424TIP3    H116213   2.057   0.142   2.622
 5424TIP3    H216214   2.089  -0.003   2.652
 5425TIP3   OH216215   1.332   4.606   2.896
 5425TIP3    H116216   1.331   4.552   2.817
 5425TIP3    H216217   1.281   4.556   2.960
 5426TIP3   OH216218   0.857   2.926   6.236
 5426TIP3    H116219   0.909   2.860   6.281
 5426TIP3    H216220   0.827   2.985   6.305
 5427TIP3   OH216221   6.357   3.191   1.655
 5427TIP3    H116222   6.299   3.201   1.580
 5427TIP3    H216223   6.442   3.170   1.617
 5428TIP3   OH216224   1.551   4.788   1.238
 5428TIP3    H116225   1.571   4.772   1.330
 5428TIP3    H216226   1.476   4.730   1.220
 5429TIP3   OH216227   0.733   0.110   1.581
 5429TIP3    H116228   0.688   0.191   1.603
 5429TIP3    H216229   0.716   0.051   1.654
 5430TIP3   OH216230   0.623   2.372   2.773
 5430TIP3    H116231   0.658   2.391   2.860
 5430TIP3    H216232   0.533   2.342   2.790
 5431TIP3   OH216233   0.863   6.515   5.962
 5431TIP3    H116234   0.828   6.506   6.051
 5431TIP3    H216235   0.956   6.532   5.976
 5432TIP3   OH216236   3.245   3.782   3.820
 5432TIP3    H116237   3.263   3.698   3.862
 5432TIP3    H216238   3.198   3.759   3.740
 5433TIP3   OH216239   3.315   7.373   1.396
 5433TIP3    H116240   3.273   7.288   1.380
 5433TIP3    H216241   3.402   7.350   1.429
 5434TIP3   OH216242   1.640   0.917   0.856
 5434TIP3    H116243   1.724   0.959   0.871
 5434TIP3    H216244   1.661   0.837   0.809
 5435TIP3   OH216245   5.237   6.205   5.752
 5435TIP3    H116246   5.166   6.146   5.778
 5435TIP3    H216247   5.315   6.148   5.751
 5436TIP3   OH216248   3.099   0.527   5.437
 5436TIP3    H116249   3.010   0.496   5.456
 5436TIP3    H216250   3.093   0.622   5.443
 5437TIP3   OH216251   1.167   7.195   5.954
 5437TIP3    H116252   1.094   7.134   5.943
 5437TIP3    H216253   1.151   7.238   6.038
 5438TIP3   OH216254   1.195   6.116   2.339
 5438TIP3    H116255   1.216   6.153   2.425
 5438TIP3    H216256   1.218   6.185   2.277
 5439TIP3   OH216257   6.112   6.814   4.804
 5439TIP3    H116258   6.158   6.731   4.812
 5439TIP3    H216259   6.124   6.840   4.713
 5440TIP3   OH216260   7.046   1.237   4.855
 5440TIP3    H116261   7.020   1.218   4.765
 5440TIP3    H216262   6.990   1.180   4.908
 5441TIP3   OH216263   6.622   1.788   5.194
 5441TIP3    H116264   6.665   1.872   5.204
 5441TIP3    H216265   6.647   1.757   5.107
 5442TIP3   OH216266   2.390   1.799   1.506
 5442TIP3    H116267   2.308   1.773   1.548
 5442TIP3    H216268   2.433   1.716   1.484
 5443TIP3   OH216269   7.148   6.537   3.664
 5443TIP3    H116270   7.237   6.550   3.632
 5443TIP3    H216271   7.108   6.624   3.660
 5444TIP3   OH216272   7.891   7.693   1.799
 5444TIP3    H116273   7.856   7.644   1.874
 5444TIP3    H216274   7.860   7.644   1.722
 5445TIP3   OH216275   6.196   0.680   4.047
 5445TIP3    H116276   6.182   0.604   3.991
 5445TIP3    H216277   6.195   0.644   4.136
 5446TIP3   OH216278   6.153   0.380   4.793
 5446TIP3    H116279   6.075   0.365   4.847
 5446TIP3    H216280   6.221   0.403   4.855
 5447TIP3   OH216281   1.586   4.188   3.383
 5447TIP3    H116282   1.618   4.121   3.443
 5447TIP3    H216283   1.600   4.151   3.296
 5448TIP3   OH216284   1.433   4.030   5.698
 5448TIP3    H116285   1.494   3.958   5.712
 5448TIP3    H216286   1.363   3.992   5.645
 5449TIP3   OH216287   2.765   7.731   2.934
 5449TIP3    H116288   2.776   7.793   3.006
 5449TIP3    H216289   2.828   7.662   2.952
 5450TIP3   OH216290   7.004   0.585   0.359
 5450TIP3    H116291   6.960   0.667   0.380
 5450TIP3    H216292   7.091   0.611   0.330
 5451TIP3   OH216293   0.023   4.908   6.319
 5451TIP3    H116294   0.003   4.974   6.385
 5451TIP3    H216295  -0.021   4.938   6.239
 5452TIP3   OH216296   1.995   7.478   1.621
 5452TIP3    H116297   1.950   7.554   1.658
 5452TIP3    H216298   2.085   7.508   1.606
 5453TIP3   OH216299   3.429   4.374   3.872
 5453TIP3    H116300   3.452   4.319   3.797
 5453TIP3    H216301   3.514   4.398   3.911
 5454TIP3   OH216302   5.005   6.637   2.189
 5454TIP3    H116303   5.014   6.556   2.139
 5454TIP3    H216304   5.042   6.617   2.275
 5455TIP3   OH216305   1.540   2.977   5.038
 5455TIP3    H116306   1.451   2.952   5.014
 5455TIP3    H216307   1.563   2.917   5.109
 5456TIP3   OH216308   4.602   4.082   5.630
 5456TIP3    H116309   4.663   4.050   5.563
 5456TIP3    H216310   4.658   4.122   5.696
 5457TIP3   OH216311   5.388   4.751   0.709
 5457TIP3    H116312   5.457   4.753   0.776
 5457TIP3    H216313   5.396   4.665   0.669
 5458TIP3   OH216314   7.882   1.694   6.647
 5458TIP3    H116315   7.976   1.678   6.657
 5458TIP3    H216316   7.872   1.719   6.555
 5459TIP3   OH216317   4.424   4.900   3.113
 5459TIP3    H116318   4.477   4.838   3.162
 5459TIP3    H216319   4.486   4.964   3.078
 5460TIP3   OH216320   1.642   2.876   2.372
 5460TIP3    H116321   1.645   2.867   2.467
 5460TIP3    H216322   1.706   2.813   2.339
 5461TIP3   OH216323   6.051   5.872   6.100
 5461TIP3    H116324   6.086   5.802   6.046
 5461TIP3    H216325   5.958   5.853   6.108
 5462TIP3   OH216326   2.742   2.825   1.441
 5462TIP3    H116327   2.672   2.868   1.491
 5462TIP3    H216328   2.717   2.837   1.350
 5463TIP3   OH216329   1.966   4.625   3.319
 5463TIP3    H116330   1.904   4.603   3.389
 5463TIP3    H216331   1.984   4.541   3.276
 5464TIP3   OH216332   4.242   1.222   4.828
 5464TIP3    H116333   4.163   1.265   4.861
 5464TIP3    H216334   4.272   1.277   4.757
 5465TIP3   OH216335   2.140   4.010   5.405
 5465TIP3    H116336   2.058   4.014   5.357
 5465TIP3    H216337   2.169   4.102   5.410
 5466TIP3   OH216338   6.884   5.668   3.952
 5466TIP3    H116339   6.842   5.727   3.890
 5466TIP3    H216340   6.976   5.694   3.952
 5467TIP3   OH216341   7.782   7.460   3.341
 5467TIP3    H116342   7.759   7.377   3.384
 5467TIP3    H216343   7.878   7.459   3.336
 5468TIP3   OH216344   7.793   5.361   4.769
 5468TIP3    H116345   7.728   5.313   4.718
 5468TIP3    H216346   7.745   5.433   4.809
 5469TIP3   OH216347   3.135   0.250   2.898
 5469TIP3    H116348   3.161   0.337   2.928
 5469TIP3    H216349   3.046   0.239   2.930
 5470TIP3   OH216350   7.052   0.274   4.165
 5470TIP3    H116351   7.048   0.342   4.097
 5470TIP3    H216352   7.022   0.195   4.120
 5471TIP3   OH216353   3.504   2.947   0.161
 5471TIP3    H116354   3.480   2.958   0.069
 5471TIP3    H216355   3.437   2.888   0.196
 5472TIP3   OH216356   1.167   0.783   4.905
 5472TIP3    H116357   1.175   0.716   4.973
 5472TIP3    H216358   1.127   0.858   4.949
 5473TIP3   OH216359   7.210   0.846   1.697
 5473TIP3    H116360   7.122   0.883   1.698
 5473TIP3    H216361   7.205   0.774   1.634
 5474TIP3   OH216362   6.788   1.340   1.672
 5474TIP3    H116363   6.720   1.282   1.638
 5474TIP3    H216364   6.746   1.389   1.742
 5475TIP3   OH216365   5.311   5.085   2.682
 5475TIP3    H116366   5.251   5.098   2.608
 5475TIP3    H216367   5.382   5.147   2.667
 5476TIP3   OH216368   5.921   1.934   3.636
 5476TIP3    H116369   5.838   1.890   3.651
 5476TIP3    H216370   5.987   1.865   3.646
 5477TIP3   OH216371   8.326   0.694   6.045
 5477TIP3    H116372   8.271   0.658   5.975
 5477TIP3    H216373   8.385   0.623   6.068
 5478TIP3   OH216374   0.445   2.867   5.650
 5478TIP3    H116375   0.506   2.931   5.613
 5478TIP3    H216376   0.386   2.919   5.704
 5479TIP3   OH216377   6.113   0.057   0.443
 5479TIP3    H116378   6.148  -0.002   0.510
 5479TIP3    H216379   6.074   0.129   0.493
 5480TIP3   OH216380   3.162   1.300   2.120
 5480TIP3    H116381   3.214   1.284   2.198
 5480TIP3    H216382   3.202   1.245   2.053
 5481TIP3   OH216383   6.087   1.305   3.204
 5481TIP3    H116384   6.128   1.377   3.156
 5481TIP3    H216385   6.109   1.322   3.296
 5482TIP3   OH216386   7.876   6.111   5.577
 5482TIP3    H116387   7.856   6.175   5.509
 5482TIP3    H216388   7.821   6.138   5.651
 5483TIP3   OH216389   6.570   5.432   0.681
 5483TIP3    H116390   6.503   5.443   0.614
 5483TIP3    H216391   6.630   5.366   0.645
 5484TIP3   OH216392   7.088   4.010   5.541
 5484TIP3    H116393   7.182   3.994   5.546
 5484TIP3    H216394   7.069   4.013   5.447
 5485TIP3   OH216395   5.417   4.831   3.736
 5485TIP3    H116396   5.347   4.818   3.800
 5485TIP3    H216397   5.386   4.785   3.658
 5486TIP3   OH216398   5.826   4.240   4.826
 5486TIP3    H116399   5.812   4.274   4.914
 5486TIP3    H216400   5.753   4.274   4.775
 5487TIP3   OH216401   2.439   1.415   4.987
 5487TIP3    H116402   2.411   1.338   5.036
 5487TIP3    H216403   2.484   1.470   5.052
 5488TIP3   OH216404   7.481   3.788   1.522
 5488TIP3    H116405   7.556   3.761   1.468
 5488TIP3    H216406   7.490   3.884   1.527
 5489TIP3   OH216407   4.684   0.641   0.285
 5489TIP3    H116408   4.659   0.675   0.371
 5489TIP3    H216409   4.620   0.573   0.267
 5490TIP3   OH216410   6.308   3.204   0.420
 5490TIP3    H116411   6.231   3.153   0.445
 5490TIP3    H216412   6.295   3.225   0.328
 5491TIP3   OH216413   0.224   1.110   3.771
 5491TIP3    H116414   0.207   1.194   3.728
 5491TIP3    H216415   0.186   1.045   3.713
 5492TIP3   OH216416   4.639   7.759   6.215
 5492TIP3    H116417   4.677   7.702   6.282
 5492TIP3    H216418   4.670   7.722   6.132
 5493TIP3   OH216419   5.997   3.846   1.478
 5493TIP3    H116420   6.010   3.848   1.383
 5493TIP3    H216421   6.042   3.925   1.509
 5494TIP3   OH216422   7.732   6.198   5.835
 5494TIP3    H116423   7.757   6.129   5.896
 5494TIP3    H216424   7.667   6.250   5.883
 5495TIP3   OH216425   1.503   3.990   0.393
 5495TIP3    H116426   1.530   4.060   0.334
 5495TIP3    H216427   1.584   3.959   0.434
 5496TIP3   OH216428   7.532   4.917   4.931
 5496TIP3    H116429   7.461   4.981   4.928
 5496TIP3    H216430   7.488   4.832   4.934
 5497TIP3   OH216431   3.825   4.090   5.455
 5497TIP3    H116432   3.833   4.021   5.522
 5497TIP3    H216433   3.739   4.129   5.472
 5498TIP3   OH216434   8.127   5.833   0.055
 5498TIP3    H116435   8.155   5.881   0.133
 5498TIP3    H216436   8.125   5.741   0.083
 5499TIP3   OH216437   6.739   4.688   1.434
 5499TIP3    H116438   6.795   4.721   1.363
 5499TIP3    H216439   6.796   4.688   1.511
 5500TIP3   OH216440   6.088   1.848   0.058
 5500TIP3    H116441   6.051   1.793  -0.011
 5500TIP3    H216442   6.149   1.790   0.104
 5501TIP3   OH216443   3.080   3.441   4.991
 5501TIP3    H116444   3.039   3.462   5.074
 5501TIP3    H216445   3.037   3.497   4.927
 5502TIP3   OH216446   3.804   6.479   2.390
 5502TIP3    H116447   3.816   6.573   2.404
 5502TIP3    H216448   3.893   6.444   2.382
 5503TIP3   OH216449   0.503   7.934   1.869
 5503TIP3    H116450   0.520   7.927   1.963
 5503TIP3    H216451   0.514   7.845   1.837
 5504TIP3   OH216452   0.935   3.225   6.764
 5504TIP3    H116453   0.881   3.149   6.740
 5504TIP3    H216454   1.019   3.208   6.721
 5505TIP3   OH216455   8.319   4.618   4.701
 5505TIP3    H116456   8.414   4.615   4.716
 5505TIP3    H216457   8.281   4.599   4.787
 5506TIP3   OH216458   7.925   3.495   2.219
 5506TIP3    H116459   7.933   3.534   2.306
 5506TIP3    H216460   7.915   3.401   2.235
 5507TIP3   OH216461   5.264   5.971   4.497
 5507TIP3    H116462   5.281   5.953   4.590
 5507TIP3    H216463   5.349   5.994   4.461
 5508TIP3   OH216464   7.397   7.428   0.854
 5508TIP3    H116465   7.380   7.474   0.937
 5508TIP3    H216466   7.406   7.336   0.879
 5509TIP3   OH216467   6.118   4.613   3.510
 5509TIP3    H116468   6.174   4.654   3.576
 5509TIP3    H216469   6.177   4.594   3.437
 5510TIP3   OH216470   1.075   1.924   6.873
 5510TIP3    H116471   0.983   1.927   6.850
 5510TIP3    H216472   1.113   1.858   6.815
 5511TIP3   OH216473   7.715   5.020   2.607
 5511TIP3    H116474   7.808   5.016   2.584
 5511TIP3    H216475   7.684   4.930   2.596
 5512TIP3   OH216476   2.994   0.568   3.036
 5512TIP3    H116477   3.041   0.629   2.979
 5512TIP3    H216478   2.998   0.608   3.123
 5513TIP3   OH216479   5.830   4.576   5.023
 5513TIP3    H116480   5.823   4.585   5.118
 5513TIP3    H216481   5.918   4.609   5.003
 5514TIP3   OH216482   6.419   0.599   2.566
 5514TIP3    H116483   6.398   0.663   2.635
 5514TIP3    H216484   6.383   0.638   2.486
 5515TIP3   OH216485   5.713   7.520   3.200
 5515TIP3    H116486   5.741   7.437   3.238
 5515TIP3    H216487   5.723   7.508   3.106
 5516TIP3   OH216488   2.129   5.891   5.849
 5516TIP3    H116489   2.118   5.859   5.760
 5516TIP3    H216490   2.215   5.934   5.850
 5517TIP3   OH216491   5.371   4.891   6.197
 5517TIP3    H116492   5.404   4.807   6.229
 5517TIP3    H216493   5.394   4.953   6.266
 5518TIP3   OH216494   7.300   5.248   0.686
 5518TIP3    H116495   7.295   5.306   0.610
 5518TIP3    H216496   7.351   5.173   0.656
 5519TIP3   OH216497   7.071   6.095   4.944
 5519TIP3    H116498   7.081   6.042   5.022
 5519TIP3    H216499   6.977   6.107   4.934
 5520TIP3   OH216500   5.275   4.875   3.282
 5520TIP3    H116501   5.288   4.787   3.248
 5520TIP3    H216502   5.277   4.864   3.377
 5521TIP3   OH216503   3.248   2.635   6.102
 5521TIP3    H116504   3.313   2.681   6.156
 5521TIP3    H216505   3.164   2.663   6.138
 5522TIP3   OH216506   3.271   1.461   4.000
 5522TIP3    H116507   3.300   1.372   3.979
 5522TIP3    H216508   3.333   1.491   4.067
 5523TIP3   OH216509   6.016   7.385   3.662
 5523TIP3    H116510   5.932   7.340   3.656
 5523TIP3    H216511   6.027   7.403   3.755
 5524TIP3   OH216512   6.224   7.655   2.107
 5524TIP3    H116513   6.244   7.582   2.048
 5524TIP3    H216514   6.237   7.619   2.195
 5525TIP3   OH216515   6.479   1.029   1.918
 5525TIP3    H116516   6.432   1.053   1.999
 5525TIP3    H216517   6.523   0.947   1.940
 5526TIP3   OH216518   3.642   1.224   4.751
 5526TIP3    H116519   3.706   1.294   4.768
 5526TIP3    H216520   3.567   1.269   4.714
 5527TIP3   OH216521   4.577   3.254   4.791
 5527TIP3    H116522   4.664   3.275   4.826
 5527TIP3    H216523   4.580   3.159   4.775
 5528TIP3   OH216524   1.639   3.515   5.084
 5528TIP3    H116525   1.702   3.502   5.154
 5528TIP3    H216526   1.565   3.459   5.107
 5529TIP3   OH216527   6.536   7.238   4.782
 5529TIP3    H116528   6.506   7.275   4.865
 5529TIP3    H216529   6.455   7.215   4.735
 5530TIP3   OH216530   6.402   6.974   2.333
 5530TIP3    H116531   6.306   6.967   2.335
 5530TIP3    H216532   6.432   6.886   2.353
 5531TIP3   OH216533   2.065   0.836   5.432
 5531TIP3    H116534   2.143   0.882   5.463
 5531TIP3    H216535   2.076   0.746   5.463
 5532TIP3   OH216536   6.963   3.057   2.116
 5532TIP3    H116537   6.977   3.144   2.154
 5532TIP3    H216538   6.881   3.064   2.069
 5533TIP3   OH216539   0.813   2.632  -0.019
 5533TIP3    H116540   0.751   2.668   0.044
 5533TIP3    H216541   0.878   2.586   0.035
 5534TIP3   OH216542   2.301   1.355   4.477
 5534TIP3    H116543   2.309   1.357   4.572
 5534TIP3    H216544   2.363   1.287   4.449
 5535TIP3   OH216545   6.077   3.169   2.476
 5535TIP3    H116546   6.003   3.160   2.417
 5535TIP3    H216547   6.111   3.258   2.459
 5536TIP3   OH216548   1.558   0.180   0.438
 5536TIP3    H116549   1.482   0.237   0.429
 5536TIP3    H216550   1.632   0.233   0.408
 5537TIP3   OH216551   5.398   6.734   6.331
 5537TIP3    H116552   5.376   6.803   6.394
 5537TIP3    H216553   5.407   6.655   6.385
 5538TIP3   OH216554   0.999   4.222   1.078
 5538TIP3    H116555   1.078   4.275   1.085
 5538TIP3    H216556   0.930   4.285   1.060
 5539TIP3   OH216557   5.151   2.129   4.685
 5539TIP3    H116558   5.202   2.209   4.695
 5539TIP3    H216559   5.187   2.087   4.607
 5540TIP3   OH216560   0.100   7.881   1.926
 5540TIP3    H116561   0.185   7.876   1.882
 5540TIP3    H216562   0.037   7.851   1.860
 5541TIP3   OH216563   3.161   4.320   3.548
 5541TIP3    H116564   3.096   4.305   3.480
 5541TIP3    H216565   3.163   4.415   3.560
 5542TIP3   OH216566   1.931   7.560   4.584
 5542TIP3    H116567   1.853   7.585   4.634
 5542TIP3    H216568   1.904   7.569   4.492
 5543TIP3   OH216569   3.123   1.280   0.757
 5543TIP3    H116570   3.094   1.252   0.844
 5543TIP3    H216571   3.115   1.376   0.760
 5544TIP3   OH216572   6.575   0.644   3.765
 5544TIP3    H116573   6.628   0.566   3.784
 5544TIP3    H216574   6.555   0.682   3.850
 5545TIP3   OH216575   8.179   0.841   5.485
 5545TIP3    H116576   8.106   0.902   5.498
 5545TIP3    H216577   8.222   0.871   5.405
 5546TIP3   OH216578   7.233   3.281   1.362
 5546TIP3    H116579   7.299   3.215   1.339
 5546TIP3    H216580   7.260   3.360   1.316
 5547TIP3   OH216581   5.949   0.198   6.061
 5547TIP3    H116582   5.946   0.131   6.129
 5547TIP3    H216583   5.907   0.274   6.100
 5548TIP3   OH216584   0.616   6.073   0.165
 5548TIP3    H116585   0.705   6.058   0.135
 5548TIP3    H216586   0.586   6.150   0.117
 5549TIP3   OH216587   5.419   6.195   1.111
 5549TIP3    H116588   5.448   6.113   1.150
 5549TIP3    H216589   5.339   6.171   1.063
 5550TIP3   OH216590   6.937   4.234   5.587
 5550TIP3    H116591   6.859   4.233   5.531
 5550TIP3    H216592   6.976   4.148   5.576
 5551TIP3   OH216593   4.116   6.963   1.976
 5551TIP3    H116594   4.161   7.025   1.918
 5551TIP3    H216595   4.026   6.997   1.982
 5552TIP3   OH216596   8.110   6.492   6.477
 5552TIP3    H116597   8.128   6.496   6.571
 5552TIP3    H216598   8.045   6.561   6.463
 5553TIP3   OH216599   7.188   0.442   6.330
 5553TIP3    H116600   7.222   0.359   6.298
 5553TIP3    H216601   7.229   0.453   6.416
 5554TIP3   OH216602   0.575   3.140   0.300
 5554TIP3    H116603   0.656   3.091   0.311
 5554TIP3    H216604   0.542   3.112   0.214
 5555TIP3   OH216605   5.133   1.397   5.040
 5555TIP3    H116606   5.154   1.393   4.947
 5555TIP3    H216607   5.041   1.374   5.045
 5556TIP3   OH216608   3.839   2.721   2.885
 5556TIP3    H116609   3.805   2.660   2.820
 5556TIP3    H216610   3.934   2.711   2.879
 5557TIP3   OH216611   7.680   1.811   3.093
 5557TIP3    H116612   7.627   1.740   3.058
 5557TIP3    H216613   7.728   1.846   3.018
 5558TIP3   OH216614   6.371   7.811   6.015
 5558TIP3    H116615   6.414   7.731   6.046
 5558TIP3    H216616   6.350   7.859   6.095
 5559TIP3   OH216617   2.942   0.212   3.570
 5559TIP3    H116618   2.909   0.151   3.504
 5559TIP3    H216619   3.021   0.170   3.603
 5560TIP3   OH216620   0.789   6.050   0.571
 5560TIP3    H116621   0.843   6.109   0.519
 5560TIP3    H216622   0.806   5.963   0.536
 5561TIP3   OH216623   6.808   5.083   3.938
 5561TIP3    H116624   6.746   5.101   3.868
 5561TIP3    H216625   6.860   5.010   3.905
 5562TIP3   OH216626   4.987   3.755   2.782
 5562TIP3    H116627   4.927   3.815   2.826
 5562TIP3    H216628   5.067   3.758   2.835
 5563TIP3   OH216629   4.016   0.704   1.196
 5563TIP3    H116630   4.043   0.688   1.105
 5563TIP3    H216631   3.923   0.725   1.191
 5564TIP3   OH216632   5.521   0.855   2.646
 5564TIP3    H116633   5.523   0.866   2.741
 5564TIP3    H216634   5.429   0.839   2.626
 5565TIP3   OH216635   0.314   2.301   4.197
 5565TIP3    H116636   0.262   2.332   4.123
 5565TIP3    H216637   0.250   2.260   4.255
 5566TIP3   OH216638   3.847   6.382   6.184
 5566TIP3    H116639   3.830   6.454   6.123
 5566TIP3    H216640   3.761   6.359   6.219
 5567TIP3   OH216641   2.120   4.005   0.311
 5567TIP3    H116642   2.192   4.010   0.374
 5567TIP3    H216643   2.092   4.096   0.299
 5568TIP3   OH216644   7.522   2.774   4.209
 5568TIP3    H116645   7.566   2.853   4.240
 5568TIP3    H216646   7.586   2.704   4.225
 5569TIP3   OH216647   4.456   1.187   0.958
 5569TIP3    H116648   4.548   1.167   0.942
 5569TIP3    H216649   4.444   1.173   1.052
 5570TIP3   OH216650   3.856   3.565   0.292
 5570TIP3    H116651   3.836   3.632   0.227
 5570TIP3    H216652   3.786   3.501   0.284
 5571TIP3   OH216653   0.990   2.629   0.962
 5571TIP3    H116654   0.943   2.588   0.889
 5571TIP3    H216655   1.018   2.713   0.928
 5572TIP3   OH216656   4.291   5.826   2.214
 5572TIP3    H116657   4.349   5.811   2.139
 5572TIP3    H216658   4.298   5.920   2.230
 5573TIP3   OH216659   3.806   6.186   5.261
 5573TIP3    H116660   3.814   6.280   5.277
 5573TIP3    H216661   3.876   6.146   5.314
 5574TIP3   OH216662   5.905   6.726   4.238
 5574TIP3    H116663   5.972   6.667   4.271
 5574TIP3    H216664   5.919   6.808   4.286
 5575TIP3   OH216665   5.532   6.489   3.444
 5575TIP3    H116666   5.606   6.445   3.485
 5575TIP3    H216667   5.543   6.474   3.350
 5576TIP3   OH216668   6.152   0.799   1.564
 5576TIP3    H116669   6.114   0.736   1.625
 5576TIP3    H216670   6.081   0.860   1.545
 5577TIP3   OH216671   7.774   2.885   6.469
 5577TIP3    H116672   7.830   2.877   6.392
 5577TIP3    H216673   7.685   2.880   6.434
 5578TIP3   OH216674   1.803   0.247   6.459
 5578TIP3    H116675   1.817   0.162   6.500
 5578TIP3    H216676   1.891   0.276   6.434
 5579TIP3   OH216677   6.116   6.883   3.115
 5579TIP3    H116678   6.143   6.930   3.194
 5579TIP3    H216679   6.153   6.934   3.043
 5580TIP3   OH216680   2.445   0.735   5.890
 5580TIP3    H116681   2.403   0.714   5.974
 5580TIP3    H216682   2.497   0.658   5.869
 5581TIP3   OH216683   1.891   6.181   6.724
 5581TIP3    H116684   1.823   6.248   6.727
 5581TIP3    H216685   1.973   6.230   6.722
 5582TIP3   OH216686   0.836   4.027   6.210
 5582TIP3    H116687   0.858   4.088   6.281
 5582TIP3    H216688   0.882   4.062   6.133
 5583TIP3   OH216689   0.480   3.344   1.606
 5583TIP3    H116690   0.410   3.319   1.545
 5583TIP3    H216691   0.515   3.261   1.638
 5584TIP3   OH216692   3.415   5.190   5.741
 5584TIP3    H116693   3.455   5.105   5.726
 5584TIP3    H216694   3.435   5.241   5.663
 5585TIP3   OH216695   3.448   3.319   5.247
 5585TIP3    H116696   3.511   3.274   5.303
 5585TIP3    H216697   3.489   3.404   5.227
 5586TIP3   OH216698   4.336   2.201   6.675
 5586TIP3    H116699   4.273   2.271   6.660
 5586TIP3    H216700   4.415   2.245   6.704
 5587TIP3   OH216701   6.215   1.887   6.291
 5587TIP3    H116702   6.308   1.905   6.277
 5587TIP3    H216703   6.214   1.811   6.349
 5588TIP3   OH216704   2.776   6.422   1.365
 5588TIP3    H116705   2.822   6.353   1.317
 5588TIP3    H216706   2.843   6.461   1.422
 5589TIP3   OH216707   2.963   5.449   2.699
 5589TIP3    H116708   2.880   5.404   2.718
 5589TIP3    H216709   2.937   5.530   2.656
 5590TIP3   OH216710   8.084   2.331   5.410
 5590TIP3    H116711   8.090   2.279   5.490
 5590TIP3    H216712   8.174   2.359   5.392
 5591TIP3   OH216713   3.191   0.674   4.325
 5591TIP3    H116714   3.225   0.640   4.243
 5591TIP3    H216715   3.258   0.653   4.390
 5592TIP3   OH216716   7.360   5.439   0.041
 5592TIP3    H116717   7.347   5.367   0.102
 5592TIP3    H216718   7.415   5.501   0.088
 5593TIP3   OH216719   0.805   6.927   4.626
 5593TIP3    H116720   0.791   6.857   4.562
 5593TIP3    H216721   0.779   7.007   4.580
 5594TIP3   OH216722   2.571   7.593   3.289
 5594TIP3    H116723   2.579   7.539   3.368
 5594TIP3    H216724   2.656   7.635   3.280
 5595TIP3   OH216725   3.625   4.241   1.876
 5595TIP3    H116726   3.634   4.182   1.802
 5595TIP3    H216727   3.556   4.302   1.850
 5596TIP3   OH216728   3.476   0.441   4.794
 5596TIP3    H116729   3.528   0.449   4.874
 5596TIP3    H216730   3.535   0.468   4.724
 5597TIP3   OH216731   2.819   7.334   4.273
 5597TIP3    H116732   2.777   7.306   4.192
 5597TIP3    H216733   2.819   7.256   4.329
 5598TIP3   OH216734   2.199   5.379   4.613
 5598TIP3    H116735   2.265   5.442   4.586
 5598TIP3    H216736   2.239   5.293   4.599
 5599TIP3   OH216737   3.304   0.715   1.098
 5599TIP3    H116738   3.281   0.623   1.082
 5599TIP3    H216739   3.397   0.721   1.076
 5600TIP3   OH216740   5.653   6.998   0.258
 5600TIP3    H116741   5.585   6.945   0.216
 5600TIP3    H216742   5.641   6.982   0.352
 5601TIP3   OH216743   0.139   6.758   1.301
 5601TIP3    H116744   0.095   6.674   1.290
 5601TIP3    H216745   0.231   6.735   1.316
 5602TIP3   OH216746   5.096   5.077   0.111
 5602TIP3    H116747   5.071   5.121   0.030
 5602TIP3    H216748   5.012   5.060   0.155
 5603TIP3   OH216749   3.396   0.909   4.153
 5603TIP3    H116750   3.334   0.873   4.090
 5603TIP3    H216751   3.342   0.961   4.213
 5604TIP3   OH216752   2.990   4.056   6.581
 5604TIP3    H116753   2.964   4.092   6.496
 5604TIP3    H216754   2.984   3.961   6.570
 5605TIP3   OH216755   2.488   6.897   4.960
 5605TIP3    H116756   2.476   6.899   5.055
 5605TIP3    H216757   2.541   6.819   4.944
 5606TIP3   OH216758   4.913   0.581   0.136
 5606TIP3    H116759   4.831   0.600   0.181
 5606TIP3    H216760   4.932   0.661   0.086
 5607TIP3   OH216761   5.237   2.364   1.763
 5607TIP3    H116762   5.203   2.355   1.674
 5607TIP3    H216763   5.294   2.288   1.775
 5608TIP3   OH216764   4.333   6.379   2.603
 5608TIP3    H116765   4.265   6.313   2.608
 5608TIP3    H216766   4.288   6.462   2.620
 5609TIP3   OH216767   0.687   2.297   2.184
 5609TIP3    H116768   0.745   2.311   2.259
 5609TIP3    H216769   0.737   2.239   2.126
 5610TIP3   OH216770   6.148   2.976   0.543
 5610TIP3    H116771   6.084   2.915   0.508
 5610TIP3    H216772   6.099   3.028   0.607
 5611TIP3   OH216773   5.238   6.272   2.488
 5611TIP3    H116774   5.252   6.257   2.395
 5611TIP3    H216775   5.225   6.185   2.525
 5612TIP3   OH216776   5.543   2.659   2.279
 5612TIP3    H116777   5.608   2.590   2.264
 5612TIP3    H216778   5.541   2.709   2.197
 5613TIP3   OH216779   0.874   1.269   2.688
 5613TIP3    H116780   0.942   1.319   2.732
 5613TIP3    H216781   0.919   1.192   2.654
 5614TIP3   OH216782   5.577   6.959   4.317
 5614TIP3    H116783   5.568   7.041   4.364
 5614TIP3    H216784   5.498   6.953   4.262
 5615TIP3   OH216785   4.590   1.633   3.595
 5615TIP3    H116786   4.683   1.609   3.595
 5615TIP3    H216787   4.585   1.714   3.645
 5616TIP3   OH216788   1.934   4.664   5.531
 5616TIP3    H116789   1.947   4.747   5.577
 5616TIP3    H216790   1.992   4.602   5.576
 5617TIP3   OH216791   6.112   3.183   5.970
 5617TIP3    H116792   6.187   3.133   5.938
 5617TIP3    H216793   6.071   3.126   6.035
 5618TIP3   OH216794   7.204   2.060   2.224
 5618TIP3    H116795   7.249   1.976   2.216
 5618TIP3    H216796   7.266   2.123   2.186
 5619TIP3   OH216797   1.004   1.193   0.891
 5619TIP3    H116798   1.050   1.129   0.945
 5619TIP3    H216799   0.994   1.270   0.947
 5620TIP3   OH216800   4.672   6.648   5.712
 5620TIP3    H116801   4.708   6.701   5.641
 5620TIP3    H216802   4.685   6.702   5.790
 5621TIP3   OH216803   7.043   5.306   1.102
 5621TIP3    H116804   7.038   5.364   1.178
 5621TIP3    H216805   7.099   5.353   1.040
 5622TIP3   OH216806   6.990   1.366   6.479
 5622TIP3    H116807   7.027   1.348   6.565
 5622TIP3    H216808   7.032   1.302   6.421
 5623TIP3   OH216809   2.277   5.932   2.532
 5623TIP3    H116810   2.185   5.914   2.511
 5623TIP3    H216811   2.281   6.028   2.539
 5624TIP3   OH216812   2.793   5.903   1.724
 5624TIP3    H116813   2.759   5.993   1.730
 5624TIP3    H216814   2.718   5.848   1.745
 5625TIP3   OH216815   2.224   1.573   4.341
 5625TIP3    H116816   2.237   1.495   4.395
 5625TIP3    H216817   2.295   1.569   4.277
 5626TIP3   OH216818   6.246   2.525   3.086
 5626TIP3    H116819   6.302   2.452   3.058
 5626TIP3    H216820   6.291   2.603   3.054
 5627TIP3   OH216821   5.321   0.823   0.693
 5627TIP3    H116822   5.382   0.878   0.742
 5627TIP3    H216823   5.367   0.805   0.610
 5628TIP3   OH216824   0.051   1.228   3.967
 5628TIP3    H116825   0.076   1.187   3.884
 5628TIP3    H216826   0.132   1.267   4.000
 5629TIP3   OH216827   7.013   2.495   0.647
 5629TIP3    H116828   6.944   2.454   0.594
 5629TIP3    H216829   7.000   2.458   0.735
 5630TIP3   OH216830   8.386   3.365   3.706
 5630TIP3    H116831   8.417   3.442   3.657
 5630TIP3    H216832   8.324   3.323   3.647
 5631TIP3   OH216833   7.802   2.303   4.326
 5631TIP3    H116834   7.764   2.387   4.299
 5631TIP3    H216835   7.778   2.294   4.419
 5632TIP3   OH216836   6.115   7.581   4.737
 5632TIP3    H116837   6.104   7.628   4.820
 5632TIP3    H216838   6.121   7.489   4.762
 5633TIP3   OH216839   6.499   6.284   3.812
 5633TIP3    H116840   6.414   6.320   3.785
 5633TIP3    H216841   6.564   6.344   3.774
 5634TIP3   OH216842   2.748   6.756   3.120
 5634TIP3    H116843   2.829   6.724   3.159
 5634TIP3    H216844   2.755   6.851   3.125
 5635TIP3   OH216845   7.728   2.995   6.720
 5635TIP3    H116846   7.785   3.072   6.728
 5635TIP3    H216847   7.747   2.960   6.633
 5636TIP3   OH216848   8.023   6.841   0.875
 5636TIP3    H116849   7.980   6.895   0.942
 5636TIP3    H216850   8.117   6.847   0.896
 5637TIP3   OH216851   4.123   0.464   4.379
 5637TIP3    H116852   4.043   0.469   4.432
 5637TIP3    H216853   4.136   0.370   4.365
 5638TIP3   OH216854   5.518   1.532   3.712
 5638TIP3    H116855   5.477   1.506   3.795
 5638TIP3    H216856   5.610   1.547   3.735
 5639TIP3   OH216857   8.253   0.294   4.884
 5639TIP3    H116858   8.346   0.317   4.884
 5639TIP3    H216859   8.234   0.274   4.792
 5640TIP3   OH216860   5.023   3.767   0.451
 5640TIP3    H116861   4.979   3.847   0.479
 5640TIP3    H216862   5.092   3.753   0.516
 5641TIP3   OH216863   3.829   3.367   6.459
 5641TIP3    H116864   3.906   3.393   6.509
 5641TIP3    H216865   3.850   3.279   6.426
 5642TIP3   OH216866   7.289   4.273   4.788
 5642TIP3    H116867   7.374   4.232   4.808
 5642TIP3    H216868   7.311   4.362   4.761
 5643TIP3   OH216869   0.842   1.947   6.222
 5643TIP3    H116870   0.805   2.016   6.167
 5643TIP3    H216871   0.793   1.955   6.305
 5644TIP3   OH216872   4.672   4.423   1.408
 5644TIP3    H116873   4.689   4.410   1.315
 5644TIP3    H216874   4.758   4.415   1.450
 5645TIP3   OH216875   4.208   2.964   1.993
 5645TIP3    H116876   4.298   2.947   1.966
 5645TIP3    H216877   4.163   2.992   1.913
 5646TIP3   OH216878   6.331   0.580   1.259
 5646TIP3    H116879   6.277   0.654   1.233
 5646TIP3    H216880   6.421   0.610   1.248
 5647TIP3   OH216881   2.537   3.729   0.807
 5647TIP3    H116882   2.445   3.709   0.791
 5647TIP3    H216883   2.566   3.773   0.727
 5648TIP3   OH216884   6.014   0.397   4.097
 5648TIP3    H116885   5.957   0.392   4.173
 5648TIP3    H216886   6.089   0.342   4.118
 5649TIP3   OH216887   6.296   1.095   1.261
 5649TIP3    H116888   6.367   1.149   1.296
 5649TIP3    H216889   6.216   1.134   1.295
 5650TIP3   OH216890   4.463   6.719   4.685
 5650TIP3    H116891   4.372   6.735   4.710
 5650TIP3    H216892   4.468   6.747   4.594
 5651TIP3   OH216893   3.577   2.563   0.196
 5651TIP3    H116894   3.534   2.609   0.269
 5651TIP3    H216895   3.617   2.633   0.145
 5652TIP3   OH216896   0.366   5.429   1.949
 5652TIP3    H116897   0.437   5.367   1.935
 5652TIP3    H216898   0.405   5.500   2.000
 5653TIP3   OH216899   3.739   6.296   0.217
 5653TIP3    H116900   3.694   6.228   0.266
 5653TIP3    H216901   3.756   6.365   0.281
 5654TIP3   OH216902   7.607   6.627   6.501
 5654TIP3    H116903   7.575   6.644   6.589
 5654TIP3    H216904   7.560   6.548   6.474
 5655TIP3   OH216905   0.545   7.260   1.301
 5655TIP3    H116906   0.510   7.306   1.377
 5655TIP3    H216907   0.512   7.308   1.226
 5656TIP3   OH216908   7.930   7.535   0.492
 5656TIP3    H116909   7.893   7.517   0.406
 5656TIP3    H216910   7.968   7.451   0.520
 5657TIP3   OH216911   1.877   6.544   2.440
 5657TIP3    H116912   1.960   6.503   2.413
 5657TIP3    H216913   1.813   6.473   2.433
 5658TIP3   OH216914   2.046   4.698   0.124
 5658TIP3    H116915   2.109   4.761   0.089
 5658TIP3    H216916   2.077   4.680   0.213
 5659TIP3   OH216917   1.596   2.640   2.776
 5659TIP3    H116918   1.616   2.725   2.737
 5659TIP3    H216919   1.650   2.577   2.729
 5660TIP3   OH216920   8.211   4.095   5.569
 5660TIP3    H116921   8.146   4.067   5.633
 5660TIP3    H216922   8.276   4.025   5.569
 5661TIP3   OH216923   3.058   2.666   2.331
 5661TIP3    H116924   3.004   2.727   2.381
 5661TIP3    H216925   3.039   2.687   2.239
 5662TIP3   OH216926   8.044   6.513   5.575
 5662TIP3    H116927   8.029   6.466   5.657
 5662TIP3    H216928   7.957   6.521   5.536
 5663TIP3   OH216929   0.871   7.366   3.704
 5663TIP3    H116930   0.879   7.405   3.617
 5663TIP3    H216931   0.901   7.276   3.693
 5664TIP3   OH216932   3.247   6.349   5.884
 5664TIP3    H116933   3.154   6.328   5.889
 5664TIP3    H216934   3.265   6.357   5.791
 5665TIP3   OH216935   0.073   7.339   4.811
 5665TIP3    H116936   0.060   7.377   4.724
 5665TIP3    H216937   0.041   7.250   4.803
 5666TIP3   OH216938   1.966   1.651   0.418
 5666TIP3    H116939   1.892   1.676   0.362
 5666TIP3    H216940   2.039   1.705   0.388
 5667TIP3   OH216941   0.593   0.322   3.463
 5667TIP3    H116942   0.587   0.291   3.553
 5667TIP3    H216943   0.661   0.389   3.465
 5668TIP3   OH216944   1.446   5.154   0.638
 5668TIP3    H116945   1.411   5.242   0.652
 5668TIP3    H216946   1.432   5.109   0.722
 5669TIP3   OH216947   3.046   5.370   2.287
 5669TIP3    H116948   3.135   5.400   2.267
 5669TIP3    H216949   3.038   5.286   2.242
 5670TIP3   OH216950   7.107   7.580   2.734
 5670TIP3    H116951   7.090   7.612   2.823
 5670TIP3    H216952   7.027   7.534   2.709
 5671TIP3   OH216953   4.214   0.257   6.270
 5671TIP3    H116954   4.168   0.226   6.348
 5671TIP3    H216955   4.149   0.311   6.225
 5672TIP3   OH216956   3.691   1.944   2.266
 5672TIP3    H116957   3.625   1.915   2.203
 5672TIP3    H216958   3.757   1.874   2.265
 5673TIP3   OH216959   1.673   5.490   6.096
 5673TIP3    H116960   1.703   5.477   6.187
 5673TIP3    H216961   1.741   5.449   6.043
 5674TIP3   OH216962   6.042   0.855   5.900
 5674TIP3    H116963   6.102   0.788   5.931
 5674TIP3    H216964   5.995   0.884   5.978
 5675TIP3   OH216965   4.072   3.092   0.494
 5675TIP3    H116966   4.124   3.069   0.417
 5675TIP3    H216967   4.109   3.176   0.524
 5676TIP3   OH216968   4.514   1.474   5.824
 5676TIP3    H116969   4.476   1.512   5.745
 5676TIP3    H216970   4.511   1.380   5.809
 5677TIP3   OH216971   2.257   1.926   1.195
 5677TIP3    H116972   2.286   1.945   1.284
 5677TIP3    H216973   2.261   1.831   1.188
 5678TIP3   OH216974   0.489   4.672   0.210
 5678TIP3    H116975   0.444   4.601   0.164
 5678TIP3    H216976   0.500   4.740   0.143
 5679TIP3   OH216977   3.111   7.706   2.205
 5679TIP3    H116978   3.089   7.789   2.164
 5679TIP3    H216979   3.085   7.717   2.297
 5680TIP3   OH216980   5.515   3.378   1.232
 5680TIP3    H116981   5.424   3.349   1.234
 5680TIP3    H216982   5.550   3.343   1.150
 5681TIP3   OH216983   5.109   3.705   2.546
 5681TIP3    H116984   5.065   3.721   2.629
 5681TIP3    H216985   5.052   3.744   2.480
 5682TIP3   OH216986   4.858   2.284   6.592
 5682TIP3    H116987   4.889   2.372   6.571
 5682TIP3    H216988   4.924   2.249   6.652
 5683TIP3   OH216989   6.392   5.344   0.166
 5683TIP3    H116990   6.463   5.292   0.128
 5683TIP3    H216991   6.401   5.430   0.126
 5684TIP3   OH216992   6.917   6.436   5.958
 5684TIP3    H116993   6.934   6.446   6.051
 5684TIP3    H216994   6.953   6.350   5.935
 5685TIP3   OH216995   5.806   0.955   5.558
 5685TIP3    H116996   5.761   1.013   5.619
 5685TIP3    H216997   5.756   0.963   5.476
 5686TIP3   OH216998   6.221   0.440   1.761
 5686TIP3    H116999   6.243   0.414   1.850
 5686TIP3    H217000   6.146   0.498   1.771
 5687TIP3   OH217001   7.316   5.915   4.312
 5687TIP3    H117002   7.402   5.923   4.353
 5687TIP3    H217003   7.329   5.946   4.222
 5688TIP3   OH217004   3.708   6.552   3.605
 5688TIP3    H117005   3.650   6.529   3.532
 5688TIP3    H217006   3.659   6.526   3.683
 5689TIP3   OH217007   0.214   5.577   3.522
 5689TIP3    H117008   0.241   5.502   3.469
 5689TIP3    H217009   0.276   5.646   3.498
 5690TIP3   OH217010   3.123   7.817   0.308
 5690TIP3    H117011   3.200   7.862   0.342
 5690TIP3    H217012   3.050   7.858   0.353
 5691TIP3   OH217013   8.148   0.630   3.265
 5691TIP3    H117014   8.104   0.694   3.321
 5691TIP3    H217015   8.078   0.597   3.207
 5692TIP3   OH217016   6.315   5.883   1.762
 5692TIP3    H117017   6.358   5.838   1.835
 5692TIP3    H217018   6.267   5.955   1.803
 5693TIP3   OH217019   0.838   0.178   5.475
 5693TIP3    H117020   0.896   0.254   5.475
 5693TIP3    H217021   0.871   0.122   5.406
 5694TIP3   OH217022   7.549   3.198   4.397
 5694TIP3    H117023   7.553   3.290   4.372
 5694TIP3    H217024   7.518   3.199   4.487
 5695TIP3   OH217025   6.637   2.843   3.107
 5695TIP3    H117026   6.632   2.929   3.149
 5695TIP3    H217027   6.546   2.816   3.098
 5696TIP3   OH217028   0.804   4.376   1.926
 5696TIP3    H117029   0.878   4.315   1.928
 5696TIP3    H217030   0.756   4.354   1.846
 5697TIP3   OH217031   4.102   3.161   4.415
 5697TIP3    H117032   4.027   3.123   4.461
 5697TIP3    H217033   4.173   3.099   4.430
 5698TIP3   OH217034   8.174   1.479   4.205
 5698TIP3    H117035   8.229   1.538   4.154
 5698TIP3    H217036   8.174   1.397   4.155
 5699TIP3   OH217037   4.863   5.829   1.232
 5699TIP3    H117038   4.922   5.893   1.273
 5699TIP3    H217039   4.900   5.814   1.145
 5700TIP3   OH217040   6.024   1.386   4.105
 5700TIP3    H117041   6.067   1.470   4.115
 5700TIP3    H217042   6.053   1.354   4.019
 5701TIP3   OH217043   3.129   4.655   6.298
 5701TIP3    H117044   3.130   4.640   6.392
 5701TIP3    H217045   3.063   4.595   6.265
 5702TIP3   OH217046   3.584   7.035   3.587
 5702TIP3    H117047   3.516   7.056   3.651
 5702TIP3    H217048   3.542   7.047   3.502
 5703TIP3   OH217049   3.577   7.024   1.162
 5703TIP3    H117050   3.672   7.034   1.174
 5703TIP3    H217051   3.544   6.998   1.248
 5704TIP3   OH217052   2.243   0.616   2.334
 5704TIP3    H117053   2.226   0.523   2.351
 5704TIP3    H217054   2.195   0.662   2.403
 5705TIP3   OH217055   2.651   5.392   5.078
 5705TIP3    H117056   2.605   5.345   5.008
 5705TIP3    H217057   2.606   5.364   5.158
 5706TIP3   OH217058   8.374   1.030   5.037
 5706TIP3    H117059   8.387   0.940   5.067
 5706TIP3    H217060   8.378   1.024   4.941
 5707TIP3   OH217061   2.740   7.696   6.045
 5707TIP3    H117062   2.742   7.791   6.042
 5707TIP3    H217063   2.652   7.674   6.074
 5708TIP3   OH217064   0.751   1.944   2.200
 5708TIP3    H117065   0.798   2.011   2.150
 5708TIP3    H217066   0.693   1.903   2.135
 5709TIP3   OH217067   1.976   0.834   1.262
 5709TIP3    H117068   2.050   0.881   1.225
 5709TIP3    H217069   2.010   0.747   1.282
 5710TIP3   OH217070   3.970   1.090   3.305
 5710TIP3    H117071   3.929   1.010   3.273
 5710TIP3    H217072   3.962   1.085   3.401
 5711TIP3   OH217073   2.227   2.213   6.666
 5711TIP3    H117074   2.163   2.282   6.688
 5711TIP3    H217075   2.280   2.204   6.744
 5712TIP3   OH217076   5.835   0.040   4.729
 5712TIP3    H117077   5.838  -0.039   4.675
 5712TIP3    H217078   5.907   0.029   4.792
 5713TIP3   OH217079   3.411   3.328   3.032
 5713TIP3    H117080   3.352   3.404   3.033
 5713TIP3    H217081   3.384   3.278   2.955
 5714TIP3   OH217082   0.043   7.083   0.542
 5714TIP3    H117083   0.103   7.111   0.611
 5714TIP3    H217084  -0.019   7.156   0.534
 5715TIP3   OH217085   0.762   7.189   1.049
 5715TIP3    H117086   0.794   7.166   1.137
 5715TIP3    H217087   0.709   7.267   1.062
 5716TIP3   OH217088   7.780   6.752   1.175
 5716TIP3    H117089   7.784   6.658   1.159
 5716TIP3    H217090   7.819   6.763   1.262
 5717TIP3   OH217091   2.245   1.509   6.185
 5717TIP3    H117092   2.340   1.496   6.178
 5717TIP3    H217093   2.228   1.591   6.140
 5718TIP3   OH217094   3.575   2.375   4.660
 5718TIP3    H117095   3.629   2.454   4.651
 5718TIP3    H217096   3.534   2.384   4.746
 5719TIP3   OH217097   6.825   2.622   0.004
 5719TIP3    H117098   6.785   2.642   0.088
 5719TIP3    H217099   6.882   2.546   0.021
 5720TIP3   OH217100   8.073   3.899   1.243
 5720TIP3    H117101   8.145   3.894   1.307
 5720TIP3    H217102   8.113   3.872   1.160
 5721TIP3   OH217103   6.612   5.160   0.599
 5721TIP3    H117104   6.633   5.130   0.511
 5721TIP3    H217105   6.669   5.107   0.656
 5722TIP3   OH217106   0.307   1.265   3.028
 5722TIP3    H117107   0.362   1.331   3.070
 5722TIP3    H217108   0.356   1.240   2.950
 5723TIP3   OH217109   3.725   1.741   6.248
 5723TIP3    H117110   3.710   1.755   6.154
 5723TIP3    H217111   3.662   1.799   6.291
 5724TIP3   OH217112   5.198   3.250   5.096
 5724TIP3    H117113   5.286   3.252   5.134
 5724TIP3    H217114   5.195   3.167   5.048
 5725TIP3   OH217115   1.846   4.064   1.139
 5725TIP3    H117116   1.835   3.991   1.078
 5725TIP3    H217117   1.937   4.057   1.168
 5726TIP3   OH217118   6.913   7.787   0.434
 5726TIP3    H117119   6.973   7.719   0.464
 5726TIP3    H217120   6.845   7.740   0.386
 5727TIP3   OH217121   1.248   5.728   4.869
 5727TIP3    H117122   1.250   5.726   4.965
 5727TIP3    H217123   1.157   5.746   4.847
 5728TIP3   OH217124   6.356   6.732   2.110
 5728TIP3    H117125   6.316   6.664   2.164
 5728TIP3    H217126   6.421   6.687   2.057
 5729TIP3   OH217127   7.410   5.602   0.356
 5729TIP3    H117128   7.461   5.559   0.287
 5729TIP3    H217129   7.474   5.653   0.406
 5730TIP3   OH217130   5.724   3.388   5.906
 5730TIP3    H117131   5.660   3.440   5.953
 5730TIP3    H217132   5.805   3.397   5.957
 5731TIP3   OH217133   6.638   4.206   0.126
 5731TIP3    H117134   6.633   4.300   0.138
 5731TIP3    H217135   6.643   4.193   0.032
 5732TIP3   OH217136   5.835   6.124   0.050
 5732TIP3    H117137   5.852   6.086  -0.036
 5732TIP3    H217138   5.888   6.072   0.111
 5733TIP3   OH217139   1.672   6.524   1.183
 5733TIP3    H117140   1.644   6.473   1.259
 5733TIP3    H217141   1.761   6.553   1.204
 5734TIP3   OH217142   3.178   4.386   3.102
 5734TIP3    H117143   3.141   4.437   3.174
 5734TIP3    H217144   3.137   4.422   3.023
 5735TIP3   OH217145   2.167   7.354   5.188
 5735TIP3    H117146   2.092   7.305   5.223
 5735TIP3    H217147   2.129   7.433   5.151
 5736TIP3   OH217148   0.252   0.271   2.675
 5736TIP3    H117149   0.328   0.318   2.708
 5736TIP3    H217150   0.288   0.192   2.634
 5737TIP3   OH217151  -0.016   0.029   6.288
 5737TIP3    H117152   0.078   0.045   6.291
 5737TIP3    H217153  -0.043   0.027   6.379
 5738TIP3   OH217154   4.323   1.265   4.545
 5738TIP3    H117155   4.414   1.280   4.570
 5738TIP3    H217156   4.319   1.172   4.523
 5739TIP3   OH217157   3.356   4.903   2.720
 5739TIP3    H117158   3.397   4.990   2.721
 5739TIP3    H217159   3.262   4.921   2.728
 5740TIP3   OH217160   7.152   2.253   3.633
 5740TIP3    H117161   7.231   2.206   3.660
 5740TIP3    H217162   7.184   2.342   3.614
 5741TIP3   OH217163   2.881   7.380   3.701
 5741TIP3    H117164   2.841   7.357   3.784
 5741TIP3    H217165   2.828   7.453   3.668
 5742TIP3   OH217166   1.897   0.888   0.959
 5742TIP3    H117167   1.887   0.833   1.037
 5742TIP3    H217168   1.947   0.834   0.897
 5743TIP3   OH217169   0.224   2.834   5.176
 5743TIP3    H117170   0.144   2.782   5.179
 5743TIP3    H217171   0.219   2.891   5.253
 5744TIP3   OH217172   1.949   2.628   5.513
 5744TIP3    H117173   2.031   2.583   5.496
 5744TIP3    H217174   1.886   2.557   5.529
 5745TIP3   OH217175   2.152   4.257   6.633
 5745TIP3    H117176   2.154   4.283   6.725
 5745TIP3    H217177   2.110   4.171   6.634
 5746TIP3   OH217178   4.694   0.798   1.815
 5746TIP3    H117179   4.770   0.851   1.794
 5746TIP3    H217180   4.650   0.845   1.886
 5747TIP3   OH217181   0.389   5.185   3.660
 5747TIP3    H117182   0.462   5.214   3.715
 5747TIP3    H217183   0.346   5.117   3.712
 5748TIP3   OH217184   5.825   1.362   2.842
 5748TIP3    H117185   5.776   1.282   2.859
 5748TIP3    H217186   5.832   1.405   2.927
 5749TIP3   OH217187   7.979   3.565   1.231
 5749TIP3    H117188   8.057   3.555   1.285
 5749TIP3    H217189   7.991   3.649   1.187
 5750TIP3   OH217190   1.297   3.934   5.475
 5750TIP3    H117191   1.339   3.904   5.395
 5750TIP3    H217192   1.220   3.982   5.445
 5751TIP3   OH217193   4.818   0.790   5.897
 5751TIP3    H117194   4.759   0.748   5.960
 5751TIP3    H217195   4.863   0.857   5.948
 5752TIP3   OH217196   1.415   7.705   4.979
 5752TIP3    H117197   1.455   7.619   4.970
 5752TIP3    H217198   1.346   7.693   5.045
 5753TIP3   OH217199   6.459   1.438   1.068
 5753TIP3    H117200   6.504   1.357   1.094
 5753TIP3    H217201   6.515   1.476   1.000
 5754TIP3   OH217202   0.486   7.429   3.121
 5754TIP3    H117203   0.410   7.393   3.165
 5754TIP3    H217204   0.555   7.363   3.134
 5755TIP3   OH217205   4.590   0.868   0.120
 5755TIP3    H117206   4.522   0.900   0.179
 5755TIP3    H217207   4.608   0.779   0.150
 5756TIP3   OH217208   1.396   1.755   0.289
 5756TIP3    H117209   1.398   1.736   0.383
 5756TIP3    H217210   1.449   1.686   0.250
 5757TIP3   OH217211   5.212   5.179   5.669
 5757TIP3    H117212   5.297   5.217   5.691
 5757TIP3    H217213   5.182   5.230   5.594
 5758TIP3   OH217214   2.405   5.190   0.648
 5758TIP3    H117215   2.481   5.243   0.626
 5758TIP3    H217216   2.433   5.100   0.630
 5759TIP3   OH217217   1.246   7.546   2.191
 5759TIP3    H117218   1.171   7.505   2.148
 5759TIP3    H217219   1.313   7.478   2.190
 5760TIP3   OH217220   3.527   6.135   5.204
 5760TIP3    H117221   3.613   6.159   5.239
 5760TIP3    H217222   3.547   6.077   5.130
 5761TIP3   OH217223   3.844   7.847   2.865
 5761TIP3    H117224   3.802   7.879   2.785
 5761TIP3    H217225   3.825   7.753   2.866
 5762TIP3   OH217226   3.965   6.618   2.063
 5762TIP3    H117227   4.044   6.671   2.073
 5762TIP3    H217228   3.995   6.535   2.027
 5763TIP3   OH217229   7.234   6.434   2.318
 5763TIP3    H117230   7.268   6.451   2.406
 5763TIP3    H217231   7.174   6.360   2.330
 5764TIP3   OH217232   7.644   2.115   6.014
 5764TIP3    H117233   7.723   2.089   5.968
 5764TIP3    H217234   7.628   2.205   5.986
 5765TIP3   OH217235   0.452   3.547   3.909
 5765TIP3    H117236   0.516   3.577   3.973
 5765TIP3    H217237   0.371   3.535   3.959
 5766TIP3   OH217238   7.112   3.041   5.180
 5766TIP3    H117239   7.017   3.033   5.172
 5766TIP3    H217240   7.146   2.970   5.126
 5767TIP3   OH217241   5.629   0.678   4.149
 5767TIP3    H117242   5.721   0.655   4.160
 5767TIP3    H217243   5.615   0.679   4.055
 5768TIP3   OH217244   0.569   4.410   4.258
 5768TIP3    H117245   0.657   4.408   4.296
 5768TIP3    H217246   0.568   4.336   4.197
 5769TIP3   OH217247   6.799   2.160   2.303
 5769TIP3    H117248   6.861   2.211   2.250
 5769TIP3    H217249   6.832   2.169   2.392
 5770TIP3   OH217250   4.885   1.806   6.544
 5770TIP3    H117251   4.923   1.781   6.459
 5770TIP3    H217252   4.940   1.761   6.608
 5771TIP3   OH217253   0.854   6.176   3.050
 5771TIP3    H117254   0.936   6.138   3.081
 5771TIP3    H217255   0.818   6.222   3.127
 5772TIP3   OH217256   4.796   0.781   1.417
 5772TIP3    H117257   4.819   0.817   1.331
 5772TIP3    H217258   4.720   0.725   1.399
 5773TIP3   OH217259   3.472   3.822   3.569
 5773TIP3    H117260   3.386   3.801   3.605
 5773TIP3    H217261   3.534   3.783   3.630
 5774TIP3   OH217262   4.628   5.957   3.952
 5774TIP3    H117263   4.709   5.976   3.998
 5774TIP3    H217264   4.573   6.034   3.966
 5775TIP3   OH217265   2.569   2.989   1.581
 5775TIP3    H117266   2.498   2.937   1.619
 5775TIP3    H217267   2.589   3.054   1.649
 5776TIP3   OH217268   2.782   3.014   4.217
 5776TIP3    H117269   2.843   3.069   4.266
 5776TIP3    H217270   2.709   3.072   4.197
 5777TIP3   OH217271   4.835   7.784   0.019
 5777TIP3    H117272   4.926   7.798   0.046
 5777TIP3    H217273   4.832   7.693  -0.010
 5778TIP3   OH217274   3.559   2.097   5.869
 5778TIP3    H117275   3.477   2.146   5.862
 5778TIP3    H217276   3.610   2.125   5.793
 5779TIP3   OH217277   7.405   2.151   2.767
 5779TIP3    H117278   7.486   2.199   2.750
 5779TIP3    H217279   7.336   2.216   2.759
 5780TIP3   OH217280   4.108   5.767   2.394
 5780TIP3    H117281   4.096   5.811   2.478
 5780TIP3    H217282   4.173   5.820   2.348
 5781TIP3   OH217283   1.840   6.117   1.704
 5781TIP3    H117284   1.802   6.103   1.791
 5781TIP3    H217285   1.795   6.054   1.648
 5782TIP3   OH217286   5.484   5.309   4.291
 5782TIP3    H117287   5.577   5.313   4.272
 5782TIP3    H217288   5.450   5.395   4.266
 5783TIP3   OH217289   5.489   7.208   6.638
 5783TIP3    H117290   5.412   7.157   6.665
 5783TIP3    H217291   5.475   7.295   6.675
 5784TIP3   OH217292   7.432   6.148   1.718
 5784TIP3    H117293   7.344   6.186   1.706
 5784TIP3    H217294   7.485   6.221   1.748
 5785TIP3   OH217295   2.165   5.075   0.753
 5785TIP3    H117296   2.250   5.101   0.716
 5785TIP3    H217297   2.139   4.999   0.701
 5786TIP3   OH217298   5.621   1.162   0.247
 5786TIP3    H117299   5.603   1.070   0.229
 5786TIP3    H217300   5.692   1.161   0.311
 5787TIP3   OH217301   7.329   2.809   0.896
 5787TIP3    H117302   7.247   2.849   0.926
 5787TIP3    H217303   7.389   2.882   0.885
 5788TIP3   OH217304   2.472   4.082   2.751
 5788TIP3    H117305   2.551   4.081   2.698
 5788TIP3    H217306   2.497   4.038   2.832
 5789TIP3   OH217307   4.866   3.670   3.210
 5789TIP3    H117308   4.877   3.764   3.192
 5789TIP3    H217309   4.881   3.628   3.126
 5790TIP3   OH217310   1.350   5.147   3.691
 5790TIP3    H117311   1.321   5.091   3.619
 5790TIP3    H217312   1.442   5.124   3.704
 5791TIP3   OH217313   6.133   3.616   4.109
 5791TIP3    H117314   6.065   3.672   4.147
 5791TIP3    H217315   6.143   3.648   4.019
 5792TIP3   OH217316   7.571   2.032   4.535
 5792TIP3    H117317   7.491   1.990   4.505
 5792TIP3    H217318   7.630   1.959   4.554
 5793TIP3   OH217319   4.845   3.535   2.585
 5793TIP3    H117320   4.906   3.518   2.513
 5793TIP3    H217321   4.898   3.526   2.664
 5794TIP3   OH217322   3.210   0.306   2.633
 5794TIP3    H117323   3.258   0.388   2.619
 5794TIP3    H217324   3.217   0.290   2.727
 5795TIP3   OH217325   1.807   6.340   5.720
 5795TIP3    H117326   1.831   6.250   5.745
 5795TIP3    H217327   1.881   6.393   5.749
 5796TIP3   OH217328   4.104   2.820   5.655
 5796TIP3    H117329   4.035   2.883   5.636
 5796TIP3    H217330   4.079   2.741   5.606
 5797TIP3   OH217331   7.413   2.216   0.894
 5797TIP3    H117332   7.419   2.191   0.802
 5797TIP3    H217333   7.436   2.136   0.942
 5798TIP3   OH217334   2.733   1.034   5.123
 5798TIP3    H117335   2.748   1.006   5.032
 5798TIP3    H217336   2.789   1.110   5.135
 5799TIP3   OH217337   6.696   6.020   2.689
 5799TIP3    H117338   6.710   5.927   2.672
 5799TIP3    H217339   6.609   6.024   2.729
 5800TIP3   OH217340   5.497   2.942   4.265
 5800TIP3    H117341   5.567   2.880   4.247
 5800TIP3    H217342   5.425   2.915   4.207
 5801TIP3   OH217343   2.532   6.707   5.353
 5801TIP3    H117344   2.492   6.620   5.347
 5801TIP3    H217345   2.614   6.692   5.401
 5802TIP3   OH217346   1.443   2.009   2.914
 5802TIP3    H117347   1.519   1.982   2.965
 5802TIP3    H217348   1.424   2.097   2.945
 5803TIP3   OH217349   4.974   4.321   4.580
 5803TIP3    H117350   4.915   4.314   4.655
 5803TIP3    H217351   4.917   4.341   4.506
 5804TIP3   OH217352   4.138   4.170   6.644
 5804TIP3    H117353   4.176   4.129   6.566
 5804TIP3    H217354   4.203   4.156   6.713
 5805TIP3   OH217355   6.863   6.158  -0.006
 5805TIP3    H117356   6.945   6.206  -0.007
 5805TIP3    H217357   6.864   6.111   0.078
 5806TIP3   OH217358   6.788   0.086   3.477
 5806TIP3    H117359   6.807   0.177   3.500
 5806TIP3    H217360   6.835   0.071   3.395
 5807TIP3   OH217361   0.529   4.080   6.351
 5807TIP3    H117362   0.488   4.060   6.435
 5807TIP3    H217363   0.495   4.012   6.291
 5808TIP3   OH217364   2.040   0.583   6.293
 5808TIP3    H117365   2.010   0.555   6.206
 5808TIP3    H217366   2.010   0.674   6.300
 5809TIP3   OH217367   0.798   3.028   0.067
 5809TIP3    H117368   0.794   2.983   0.151
 5809TIP3    H217369   0.846   2.968   0.010
 5810TIP3   OH217370   7.000   3.039   2.594
 5810TIP3    H117371   6.913   3.014   2.563
 5810TIP3    H217372   7.051   2.958   2.592
 5811TIP3   OH217373   1.160   4.457   3.057
 5811TIP3    H117374   1.150   4.362   3.066
 5811TIP3    H217375   1.168   4.489   3.147
 5812TIP3   OH217376   5.103   5.478   6.823
 5812TIP3    H117377   5.113   5.502   6.916
 5812TIP3    H217378   5.193   5.464   6.793
 5813TIP3   OH217379   0.084   6.741   4.813
 5813TIP3    H117380   0.042   6.660   4.782
 5813TIP3    H217381   0.032   6.767   4.889
 5814TIP3   OH217382   2.313   1.426   2.656
 5814TIP3    H117383   2.370   1.493   2.618
 5814TIP3    H217384   2.231   1.472   2.675
 5815TIP3   OH217385   1.532   7.621   1.132
 5815TIP3    H117386   1.615   7.664   1.154
 5815TIP3    H217387   1.553   7.564   1.058
 5816TIP3   OH217388   4.133   4.631   6.785
 5816TIP3    H117389   4.110   4.545   6.819
 5816TIP3    H217390   4.056   4.685   6.801
 5817TIP3   OH217391   6.203   0.147   5.244
 5817TIP3    H117392   6.235   0.214   5.304
 5817TIP3    H217393   6.142   0.095   5.296
 5818TIP3   OH217394   7.071   5.327   4.577
 5818TIP3    H117395   7.131   5.365   4.513
 5818TIP3    H217396   7.056   5.238   4.547
 5819TIP3   OH217397   6.124   2.064   5.173
 5819TIP3    H117398   6.102   1.979   5.210
 5819TIP3    H217399   6.134   2.121   5.249
 5820TIP3   OH217400   3.174   4.414   1.045
 5820TIP3    H117401   3.269   4.426   1.046
 5820TIP3    H217402   3.147   4.430   1.135
 5821TIP3   OH217403   0.158   2.480   4.084
 5821TIP3    H117404   0.121   2.568   4.080
 5821TIP3    H217405   0.084   2.423   4.103
 5822TIP3   OH217406   2.306   1.239   2.854
 5822TIP3    H117407   2.244   1.294   2.902
 5822TIP3    H217408   2.323   1.287   2.774
 5823TIP3   OH217409   4.004   3.476   4.692
 5823TIP3    H117410   4.026   3.397   4.741
 5823TIP3    H217411   3.916   3.460   4.658
 5824TIP3   OH217412   6.576   0.422   6.743
 5824TIP3    H117413   6.495   0.432   6.794
 5824TIP3    H217414   6.554   0.355   6.677
 5825TIP3   OH217415   4.485   1.883   4.868
 5825TIP3    H117416   4.396   1.885   4.832
 5825TIP3    H217417   4.522   1.800   4.835
 5826TIP3   OH217418   8.104   1.089   5.630
 5826TIP3    H117419   8.154   1.143   5.569
 5826TIP3    H217420   8.170   1.044   5.683
 5827TIP3   OH217421   6.734   3.464   6.034
 5827TIP3    H117422   6.768   3.475   6.123
 5827TIP3    H217423   6.760   3.376   6.008
 5828TIP3   OH217424   5.817   2.025   1.945
 5828TIP3    H117425   5.899   2.057   1.984
 5828TIP3    H217426   5.791   2.094   1.884
 5829TIP3   OH217427   2.134   6.547   2.084
 5829TIP3    H117428   2.114   6.641   2.082
 5829TIP3    H217429   2.138   6.522   1.991
 5830TIP3   OH217430   4.888   1.482   1.465
 5830TIP3    H117431   4.834   1.408   1.438
 5830TIP3    H217432   4.970   1.472   1.416
 5831TIP3   OH217433   2.897   6.918   5.729
 5831TIP3    H117434   2.928   6.916   5.638
 5831TIP3    H217435   2.899   6.826   5.756
 5832TIP3   OH217436   3.136   1.702   0.138
 5832TIP3    H117437   3.115   1.731   0.049
 5832TIP3    H217438   3.104   1.612   0.143
 5833TIP3   OH217439   1.235   7.326   0.751
 5833TIP3    H117440   1.189   7.351   0.671
 5833TIP3    H217441   1.291   7.401   0.771
 5834TIP3   OH217442   3.103   1.690   4.907
 5834TIP3    H117443   3.030   1.688   4.845
 5834TIP3    H217444   3.083   1.762   4.967
 5835TIP3   OH217445   5.575   3.554   3.386
 5835TIP3    H117446   5.640   3.613   3.348
 5835TIP3    H217447   5.494   3.572   3.339
 5836TIP3   OH217448   2.937   2.610   3.515
 5836TIP3    H117449   2.859   2.577   3.470
 5836TIP3    H217450   2.962   2.540   3.575
 5837TIP3   OH217451   7.095   3.277   2.255
 5837TIP3    H117452   7.045   3.326   2.320
 5837TIP3    H217453   7.166   3.237   2.305
 5838TIP3   OH217454   3.466   4.755   1.819
 5838TIP3    H117455   3.450   4.668   1.783
 5838TIP3    H217456   3.382   4.781   1.857
 5839TIP3   OH217457   6.773   1.161   4.872
 5839TIP3    H117458   6.820   1.087   4.833
 5839TIP3    H217459   6.736   1.208   4.797
 5840TIP3   OH217460   2.376   4.915   6.826
 5840TIP3    H117461   2.350   4.938   6.737
 5840TIP3    H217462   2.366   4.819   6.829
 5841TIP3   OH217463   7.790   4.367   3.517
 5841TIP3    H117464   7.760   4.455   3.495
 5841TIP3    H217465   7.787   4.364   3.613
 5842TIP3   OH217466   7.052   5.944   1.315
 5842TIP3    H117467   7.023   6.021   1.363
 5842TIP3    H217468   6.973   5.912   1.271
 5843TIP3   OH217469   6.738   5.184   2.477
 5843TIP3    H117470   6.679   5.200   2.402
 5843TIP3    H217471   6.694   5.225   2.551
 5844TIP3   OH217472   0.829   3.122   3.032
 5844TIP3    H117473   0.902   3.129   3.093
 5844TIP3    H217474   0.869   3.099   2.948
 5845TIP3   OH217475   6.985   4.647   2.194
 5845TIP3    H117476   7.050   4.645   2.124
 5845TIP3    H217477   7.000   4.731   2.238
 5846TIP3   OH217478   3.530   2.031   5.401
 5846TIP3    H117479   3.456   2.074   5.358
 5846TIP3    H217480   3.504   1.939   5.407
 5847TIP3   OH217481   6.089   7.715   4.997
 5847TIP3    H117482   6.026   7.786   4.989
 5847TIP3    H217483   6.097   7.701   5.091
 5848TIP3   OH217484   1.410   4.609   5.516
 5848TIP3    H117485   1.395   4.546   5.445
 5848TIP3    H217486   1.506   4.615   5.523
 5849TIP3   OH217487   2.616   6.004   3.185
 5849TIP3    H117488   2.598   5.962   3.268
 5849TIP3    H217489   2.533   6.044   3.159
 5850TIP3   OH217490   4.903   2.475   3.507
 5850TIP3    H117491   4.890   2.411   3.576
 5850TIP3    H217492   4.993   2.461   3.477
 5851TIP3   OH217493   1.098   1.759   6.282
 5851TIP3    H117494   1.021   1.807   6.314
 5851TIP3    H217495   1.172   1.803   6.324
 5852TIP3   OH217496   1.931   3.224   0.078
 5852TIP3    H117497   1.927   3.132   0.105
 5852TIP3    H217498   1.897   3.272   0.153
 5853TIP3   OH217499   2.864   6.715   3.714
 5853TIP3    H117500   2.789   6.669   3.752
 5853TIP3    H217501   2.938   6.692   3.772
 5854TIP3   OH217502   1.776   6.788   5.881
 5854TIP3    H117503   1.692   6.780   5.927
 5854TIP3    H217504   1.838   6.813   5.949
 5855TIP3   OH217505   7.512   0.494   5.378
 5855TIP3    H117506   7.501   0.553   5.453
 5855TIP3    H217507   7.494   0.549   5.302
 5856TIP3   OH217508   8.085   4.346   5.667
 5856TIP3    H117509   8.146   4.379   5.732
 5856TIP3    H217510   8.118   4.379   5.583
 5857TIP3   OH217511   0.900   2.353   5.848
 5857TIP3    H117512   0.945   2.342   5.931
 5857TIP3    H217513   0.898   2.447   5.833
 5858TIP3   OH217514   7.967   0.023   3.971
 5858TIP3    H117515   8.046   0.060   3.932
 5858TIP3    H217516   7.997  -0.058   4.013
 5859TIP3   OH217517   1.075   3.547   5.683
 5859TIP3    H117518   1.159   3.569   5.722
 5859TIP3    H217519   1.010   3.590   5.738
 5860TIP3   OH217520   7.980   6.109   2.502
 5860TIP3    H117521   7.921   6.113   2.426
 5860TIP3    H217522   7.921   6.111   2.578
 5861TIP3   OH217523   3.168   5.293   6.093
 5861TIP3    H117524   3.228   5.254   6.157
 5861TIP3    H217525   3.088   5.239   6.099
 5862TIP3   OH217526   7.150   3.222   6.564
 5862TIP3    H117527   7.059   3.193   6.565
 5862TIP3    H217528   7.168   3.239   6.471
 5863TIP3   OH217529   1.862   1.174   6.309
 5863TIP3    H117530   1.868   1.192   6.403
 5863TIP3    H217531   1.883   1.081   6.302
 5864TIP3   OH217532   8.150   6.876   3.451
 5864TIP3    H117533   8.225   6.912   3.403
 5864TIP3    H217534   8.128   6.795   3.404
 5865TIP3   OH217535   3.669   1.611   1.317
 5865TIP3    H117536   3.666   1.565   1.401
 5865TIP3    H217537   3.746   1.666   1.323
 5866TIP3   OH217538   2.063   2.662   4.651
 5866TIP3    H117539   2.020   2.610   4.719
 5866TIP3    H217540   2.127   2.714   4.698
 5867TIP3   OH217541   4.129   0.758   3.130
 5867TIP3    H117542   4.051   0.812   3.115
 5867TIP3    H217543   4.110   0.710   3.210
 5868TIP3   OH217544   1.256   6.694   6.626
 5868TIP3    H117545   1.252   6.676   6.719
 5868TIP3    H217546   1.279   6.610   6.586
 5869TIP3   OH217547   4.811   0.823   3.803
 5869TIP3    H117548   4.725   0.865   3.814
 5869TIP3    H217549   4.817   0.761   3.876
 5870TIP3   OH217550   2.111   7.778   3.941
 5870TIP3    H117551   2.092   7.868   3.967
 5870TIP3    H217552   2.028   7.743   3.910
 5871TIP3   OH217553   0.627   1.240   4.179
 5871TIP3    H117554   0.588   1.247   4.266
 5871TIP3    H217555   0.721   1.235   4.195
 5872TIP3   OH217556   8.280   6.314   2.051
 5872TIP3    H117557   8.307   6.291   1.963
 5872TIP3    H217558   8.191   6.279   2.059
 5873TIP3   OH217559   6.350   4.464   6.374
 5873TIP3    H117560   6.321   4.385   6.421
 5873TIP3    H217561   6.347   4.533   6.440
 5874TIP3   OH217562   2.150   4.624   6.814
 5874TIP3    H117563   2.160   4.607   6.908
 5874TIP3    H217564   2.088   4.557   6.784
 5875TIP3   OH217565   0.604   7.290   6.276
 5875TIP3    H117566   0.585   7.214   6.221
 5875TIP3    H217567   0.588   7.365   6.219
 5876TIP3   OH217568   7.049   6.971   5.581
 5876TIP3    H117569   7.141   6.976   5.554
 5876TIP3    H217570   7.053   6.948   5.674
 5877TIP3   OH217571   2.067   5.012   1.486
 5877TIP3    H117572   2.016   5.034   1.564
 5877TIP3    H217573   2.154   5.050   1.502
 5878TIP3   OH217574   6.964   7.169   3.410
 5878TIP3    H117575   6.928   7.146   3.495
 5878TIP3    H217576   7.034   7.232   3.429
 5879TIP3   OH217577   8.187   6.042   1.800
 5879TIP3    H117578   8.153   5.957   1.770
 5879TIP3    H217579   8.282   6.031   1.801
 5880TIP3   OH217580   4.626   2.349   1.964
 5880TIP3    H117581   4.597   2.438   1.947
 5880TIP3    H217582   4.547   2.296   1.955
 5881TIP3   OH217583   4.671   0.815   0.963
 5881TIP3    H117584   4.752   0.805   1.013
 5881TIP3    H217585   4.621   0.735   0.981
 5882TIP3   OH217586   1.727   4.472   1.419
 5882TIP3    H117587   1.794   4.533   1.389
 5882TIP3    H217588   1.773   4.388   1.428
 5883TIP3   OH217589   0.120   2.005   5.090
 5883TIP3    H117590   0.159   1.917   5.087
 5883TIP3    H217591   0.109   2.030   4.998
 5884TIP3   OH217592   4.010   5.621   3.571
 5884TIP3    H117593   3.944   5.562   3.535
 5884TIP3    H217594   4.005   5.607   3.666
 5885TIP3   OH217595   2.701   0.580   6.676
 5885TIP3    H117596   2.750   0.613   6.752
 5885TIP3    H217597   2.633   0.646   6.661
 5886TIP3   OH217598   7.223   4.866   6.291
 5886TIP3    H117599   7.187   4.787   6.332
 5886TIP3    H217600   7.168   4.937   6.323
 5887TIP3   OH217601   5.557   0.568   6.425
 5887TIP3    H117602   5.492   0.543   6.359
 5887TIP3    H217603   5.506   0.604   6.497
 5888TIP3   OH217604   7.353   7.066   2.600
 5888TIP3    H117605   7.258   7.066   2.611
 5888TIP3    H217606   7.386   7.092   2.686
 5889TIP3   OH217607   5.164   6.452   5.819
 5889TIP3    H117608   5.241   6.501   5.848
 5889TIP3    H217609   5.199   6.369   5.786
 5890TIP3   OH217610   4.419   0.268   2.882
 5890TIP3    H117611   4.467   0.349   2.899
 5890TIP3    H217612   4.458   0.203   2.941
 5891TIP3   OH217613   2.502   2.631   1.693
 5891TIP3    H117614   2.484   2.635   1.599
 5891TIP3    H217615   2.438   2.569   1.728
 5892TIP3   OH217616   3.327   4.273  -0.027
 5892TIP3    H117617   3.272   4.195  -0.029
 5892TIP3    H217618   3.315   4.309   0.061
 5893TIP3   OH217619   2.828   4.492   4.232
 5893TIP3    H117620   2.762   4.473   4.298
 5893TIP3    H217621   2.815   4.425   4.165
 5894TIP3   OH217622   2.926   6.432   3.565
 5894TIP3    H117623   2.940   6.521   3.530
 5894TIP3    H217624   2.858   6.443   3.631
 5895TIP3   OH217625   0.160   0.596   3.731
 5895TIP3    H117626   0.206   0.679   3.741
 5895TIP3    H217627   0.067   0.620   3.739
 5896TIP3   OH217628   6.212   2.908   2.558
 5896TIP3    H117629   6.183   2.989   2.600
 5896TIP3    H217630   6.136   2.878   2.508
 5897TIP3   OH217631   2.047   4.183   2.703
 5897TIP3    H117632   2.098   4.186   2.623
 5897TIP3    H217633   2.111   4.192   2.774
 5898TIP3   OH217634   2.102   4.764   2.787
 5898TIP3    H117635   2.185   4.789   2.747
 5898TIP3    H217636   2.118   4.678   2.826
 5899TIP3   OH217637   4.038   5.303   4.587
 5899TIP3    H117638   4.051   5.286   4.493
 5899TIP3    H217639   3.950   5.272   4.605
 5900TIP3   OH217640   7.767   2.128   6.775
 5900TIP3    H117641   7.861   2.145   6.780
 5900TIP3    H217642   7.733   2.199   6.720
 5901TIP3   OH217643   5.943   2.272   1.109
 5901TIP3    H117644   6.032   2.294   1.081
 5901TIP3    H217645   5.899   2.242   1.030
 5902TIP3   OH217646   2.963   1.996   3.572
 5902TIP3    H117647   3.027   2.066   3.559
 5902TIP3    H217648   2.971   1.973   3.665
 5903TIP3   OH217649   6.662   6.060   4.234
 5903TIP3    H117650   6.674   6.097   4.146
 5903TIP3    H217651   6.735   6.000   4.244
 5904TIP3   OH217652   5.814   4.590   2.407
 5904TIP3    H117653   5.796   4.515   2.350
 5904TIP3    H217654   5.909   4.597   2.409
 5905TIP3   OH217655   0.576   0.817   2.247
 5905TIP3    H117656   0.628   0.888   2.285
 5905TIP3    H217657   0.570   0.838   2.154
 5906TIP3   OH217658   5.077   4.161   3.036
 5906TIP3    H117659   5.099   4.184   2.946
 5906TIP3    H217660   4.996   4.207   3.054
 5907TIP3   OH217661   2.195   1.096   3.616
 5907TIP3    H117662   2.156   1.032   3.676
 5907TIP3    H217663   2.141   1.091   3.537
 5908TIP3   OH217664   4.700   7.881   1.781
 5908TIP3    H117665   4.647   7.960   1.790
 5908TIP3    H217666   4.744   7.890   1.697
 5909TIP3   OH217667   2.125   6.740   2.937
 5909TIP3    H117668   2.143   6.833   2.924
 5909TIP3    H217669   2.030   6.735   2.948
 5910TIP3   OH217670   0.964   5.698   5.853
 5910TIP3    H117671   0.924   5.785   5.849
 5910TIP3    H217672   1.055   5.713   5.827
 5911TIP3   OH217673   7.955   4.547   4.294
 5911TIP3    H117674   8.040   4.523   4.256
 5911TIP3    H217675   7.969   4.548   4.388
 5912TIP3   OH217676   4.649   4.439   4.238
 5912TIP3    H117677   4.635   4.350   4.207
 5912TIP3    H217678   4.730   4.435   4.288
 5913TIP3   OH217679   1.649   5.967   2.912
 5913TIP3    H117680   1.727   5.982   2.859
 5913TIP3    H217681   1.662   6.021   2.990
 5914TIP3   OH217682   8.319   7.261   6.606
 5914TIP3    H117683   8.272   7.191   6.560
 5914TIP3    H217684   8.279   7.342   6.574
 5915TIP3   OH217685   6.799   2.546   4.576
 5915TIP3    H117686   6.783   2.624   4.524
 5915TIP3    H217687   6.720   2.536   4.630
 5916TIP3   OH217688   2.153   0.917   1.772
 5916TIP3    H117689   2.218   0.932   1.841
 5916TIP3    H217690   2.153   0.822   1.759
 5917TIP3   OH217691   6.283   4.525   0.355
 5917TIP3    H117692   6.247   4.602   0.310
 5917TIP3    H217693   6.317   4.559   0.438
 5918TIP3   OH217694   0.394   0.949   3.333
 5918TIP3    H117695   0.336   1.001   3.277
 5918TIP3    H217696   0.336   0.890   3.380
 5919TIP3   OH217697   5.039   6.915   4.652
 5919TIP3    H117698   4.951   6.932   4.619
 5919TIP3    H217699   5.081   6.863   4.584
 5920TIP3   OH217700   2.733   0.364   3.205
 5920TIP3    H117701   2.729   0.445   3.255
 5920TIP3    H217702   2.715   0.295   3.269
 5921TIP3   OH217703   1.894   3.491   3.786
 5921TIP3    H117704   1.835   3.538   3.844
 5921TIP3    H217705   1.859   3.403   3.780
 5922TIP3   OH217706   4.826   4.633   0.421
 5922TIP3    H117707   4.756   4.631   0.356
 5922TIP3    H217708   4.791   4.687   0.492
 5923TIP3   OH217709   1.676   2.371   0.458
 5923TIP3    H117710   1.583   2.391   0.464
 5923TIP3    H217711   1.716   2.422   0.528
 5924TIP3   OH217712   6.520   3.054   2.719
 5924TIP3    H117713   6.432   3.075   2.750
 5924TIP3    H217714   6.509   3.031   2.627
 5925TIP3   OH217715   1.321   2.571   2.713
 5925TIP3    H117716   1.270   2.630   2.768
 5925TIP3    H217717   1.412   2.597   2.728
 5926TIP3   OH217718   0.804   2.888   4.617
 5926TIP3    H117719   0.782   2.811   4.669
 5926TIP3    H217720   0.767   2.962   4.665
 5927TIP3   OH217721   4.640   7.706   0.407
 5927TIP3    H117722   4.654   7.761   0.331
 5927TIP3    H217723   4.653   7.765   0.482
 5928TIP3   OH217724   7.921   4.082   0.158
 5928TIP3    H117725   7.875   4.089   0.075
 5928TIP3    H217726   7.983   4.010   0.144
 5929TIP3   OH217727   2.853   2.292   4.976
 5929TIP3    H117728   2.874   2.384   4.958
 5929TIP3    H217729   2.829   2.290   5.069
 5930TIP3   OH217730   3.541   1.785   5.157
 5930TIP3    H117731   3.508   1.874   5.142
 5930TIP3    H217732   3.473   1.743   5.209
 5931TIP3   OH217733   5.942   2.415   2.200
 5931TIP3    H117734   5.857   2.442   2.164
 5931TIP3    H217735   6.005   2.471   2.157
 5932TIP3   OH217736   0.455   3.779   1.489
 5932TIP3    H117737   0.504   3.757   1.569
 5932TIP3    H217738   0.500   3.731   1.420
 5933TIP3   OH217739   4.349   3.098   6.352
 5933TIP3    H117740   4.376   3.187   6.373
 5933TIP3    H217741   4.427   3.045   6.365
 5934TIP3   OH217742   7.177   2.558   5.074
 5934TIP3    H117743   7.211   2.548   4.985
 5934TIP3    H217744   7.252   2.538   5.130
 5935TIP3   OH217745   8.116   6.630   4.772
 5935TIP3    H117746   8.091   6.548   4.729
 5935TIP3    H217747   8.212   6.628   4.775
 5936TIP3   OH217748   6.169   1.673   4.122
 5936TIP3    H117749   6.212   1.721   4.051
 5936TIP3    H217750   6.077   1.700   4.117
 5937TIP3   OH217751   3.857   5.012   1.535
 5937TIP3    H117752   3.819   4.932   1.572
 5937TIP3    H217753   3.783   5.073   1.528
 5938TIP3   OH217754   8.048   0.958   0.482
 5938TIP3    H117755   8.095   1.032   0.444
 5938TIP3    H217756   7.978   0.939   0.419
 5939TIP3   OH217757   7.438   3.488   4.611
 5939TIP3    H117758   7.357   3.472   4.563
 5939TIP3    H217759   7.487   3.549   4.555
 5940TIP3   OH217760   1.719   3.822   2.092
 5940TIP3    H117761   1.671   3.746   2.123
 5940TIP3    H217762   1.799   3.786   2.054
 5941TIP3   OH217763   2.534   7.895   0.610
 5941TIP3    H117764   2.458   7.845   0.638
 5941TIP3    H217765   2.592   7.831   0.569
 5942TIP3   OH217766   3.917   1.680   0.944
 5942TIP3    H117767   3.881   1.711   1.027
 5942TIP3    H217768   4.012   1.681   0.957
 5943TIP3   OH217769   2.122   1.809   4.457
 5943TIP3    H117770   2.160   1.729   4.421
 5943TIP3    H217771   2.056   1.778   4.519
 5944TIP3   OH217772   3.962   6.792   6.537
 5944TIP3    H117773   3.972   6.737   6.616
 5944TIP3    H217774   3.928   6.732   6.471
 5945TIP3   OH217775   6.390   7.166   6.388
 5945TIP3    H117776   6.354   7.127   6.308
 5945TIP3    H217777   6.454   7.103   6.419
 5946TIP3   OH217778   4.124   4.879   3.750
 5946TIP3    H117779   4.102   4.910   3.662
 5946TIP3    H217780   4.134   4.959   3.802
 5947TIP3   OH217781   1.393   1.582   5.732
 5947TIP3    H117782   1.405   1.604   5.640
 5947TIP3    H217783   1.312   1.530   5.734
 5948TIP3   OH217784   3.862   5.914   1.302
 5948TIP3    H117785   3.801   5.985   1.280
 5948TIP3    H217786   3.817   5.834   1.273
 5949TIP3   OH217787   3.659   4.148   3.951
 5949TIP3    H117788   3.721   4.076   3.942
 5949TIP3    H217789   3.573   4.108   3.939
 5950TIP3   OH217790   0.374   5.224   5.316
 5950TIP3    H117791   0.437   5.249   5.248
 5950TIP3    H217792   0.367   5.302   5.371
 5951TIP3   OH217793   3.172   7.601   1.319
 5951TIP3    H117794   3.153   7.653   1.397
 5951TIP3    H217795   3.169   7.510   1.350
 5952TIP3   OH217796   0.856   5.057   6.315
 5952TIP3    H117797   0.902   5.092   6.391
 5952TIP3    H217798   0.921   5.002   6.270
 5953TIP3   OH217799   5.028   2.640   0.152
 5953TIP3    H117800   5.023   2.549   0.123
 5953TIP3    H217801   4.999   2.637   0.243
 5954TIP3   OH217802   1.369   0.755   5.957
 5954TIP3    H117803   1.283   0.768   5.917
 5954TIP3    H217804   1.357   0.683   6.019
 5955TIP3   OH217805   6.737   4.222   2.946
 5955TIP3    H117806   6.818   4.248   2.902
 5955TIP3    H217807   6.736   4.126   2.940
 5956TIP3   OH217808   1.275   1.197   4.392
 5956TIP3    H117809   1.320   1.117   4.417
 5956TIP3    H217810   1.341   1.266   4.399
 5957TIP3   OH217811   5.878   3.672   6.771
 5957TIP3    H117812   5.855   3.582   6.748
 5957TIP3    H217813   5.973   3.669   6.787
 5958TIP3   OH217814   1.473   4.661   0.704
 5958TIP3    H117815   1.549   4.609   0.676
 5958TIP3    H217816   1.468   4.648   0.798
 5959TIP3   OH217817   6.920   3.526   0.929
 5959TIP3    H117818   6.908   3.435   0.957
 5959TIP3    H217819   7.015   3.538   0.930
 5960TIP3   OH217820   5.226   5.824   2.421
 5960TIP3    H117821   5.279   5.824   2.341
 5960TIP3    H217822   5.182   5.909   2.421
 5961TIP3   OH217823   5.347   0.791   4.459
 5961TIP3    H117824   5.383   0.842   4.386
 5961TIP3    H217825   5.411   0.801   4.529
 5962TIP3   OH217826   0.381   4.864   5.010
 5962TIP3    H117827   0.308   4.803   5.025
 5962TIP3    H217828   0.396   4.905   5.095
 5963TIP3   OH217829   2.095   2.365   2.636
 5963TIP3    H117830   2.184   2.392   2.614
 5963TIP3    H217831   2.050   2.359   2.551
 5964TIP3   OH217832   1.803   7.708   2.995
 5964TIP3    H117833   1.715   7.701   2.957
 5964TIP3    H217834   1.861   7.701   2.919
 5965TIP3   OH217835   2.901   2.089   6.621
 5965TIP3    H117836   2.933   2.058   6.536
 5965TIP3    H217837   2.898   2.184   6.612
 5966TIP3   OH217838   1.212   3.505   0.274
 5966TIP3    H117839   1.284   3.555   0.237
 5966TIP3    H217840   1.174   3.563   0.340
 5967TIP3   OH217841   7.788   3.406   3.346
 5967TIP3    H117842   7.879   3.436   3.341
 5967TIP3    H217843   7.736   3.487   3.347
 5968TIP3   OH217844   5.324   5.207   2.125
 5968TIP3    H117845   5.291   5.258   2.199
 5968TIP3    H217846   5.320   5.116   2.154
 5969TIP3   OH217847   3.103   5.686   6.663
 5969TIP3    H117848   3.111   5.650   6.575
 5969TIP3    H217849   3.011   5.674   6.686
 5970TIP3   OH217850   5.822   1.193   0.019
 5970TIP3    H117851   5.882   1.236   0.081
 5970TIP3    H217852   5.742   1.179   0.070
 5971TIP3   OH217853   5.812   0.684   0.837
 5971TIP3    H117854   5.747   0.623   0.872
 5971TIP3    H217855   5.816   0.664   0.743
 5972TIP3   OH217856   2.051   6.423   5.779
 5972TIP3    H117857   2.116   6.353   5.764
 5972TIP3    H217858   2.101   6.493   5.820
 5973TIP3   OH217859   2.968   5.062   3.850
 5973TIP3    H117860   2.918   5.000   3.903
 5973TIP3    H217861   2.902   5.103   3.794
 5974TIP3   OH217862   2.874   5.525   0.435
 5974TIP3    H117863   2.838   5.588   0.498
 5974TIP3    H217864   2.950   5.570   0.398
 5975TIP3   OH217865   4.823   7.807   3.960
 5975TIP3    H117866   4.840   7.898   3.985
 5975TIP3    H217867   4.768   7.813   3.882
 5976TIP3   OH217868   1.539   6.247   2.745
 5976TIP3    H117869   1.576   6.232   2.658
 5976TIP3    H217870   1.616   6.267   2.800
 5977TIP3   OH217871   1.730   2.185   1.112
 5977TIP3    H117872   1.744   2.258   1.171
 5977TIP3    H217873   1.697   2.115   1.168
 5978TIP3   OH217874   8.382   7.045   4.039
 5978TIP3    H117875   8.343   7.131   4.057
 5978TIP3    H217876   8.379   7.036   3.944
 5979TIP3   OH217877   6.225   7.092   3.925
 5979TIP3    H117878   6.142   7.108   3.880
 5979TIP3    H217879   6.274   7.174   3.914
 5980TIP3   OH217880   2.298   4.731   0.431
 5980TIP3    H117881   2.323   4.807   0.378
 5980TIP3    H217882   2.381   4.694   0.460
 5981TIP3   OH217883   7.093   5.002   0.964
 5981TIP3    H117884   7.072   5.071   0.902
 5981TIP3    H217885   7.012   4.952   0.973
 5982TIP3   OH217886   6.659   0.658   5.475
 5982TIP3    H117887   6.714   0.652   5.397
 5982TIP3    H217888   6.575   0.620   5.449
 5983TIP3   OH217889   4.204   5.750   1.076
 5983TIP3    H117890   4.291   5.788   1.065
 5983TIP3    H217891   4.153   5.820   1.118
 5984TIP3   OH217892   1.160   7.122   5.194
 5984TIP3    H117893   1.229   7.106   5.259
 5984TIP3    H217894   1.081   7.083   5.232
 5985TIP3   OH217895   3.151   1.173   1.860
 5985TIP3    H117896   3.138   1.093   1.911
 5985TIP3    H217897   3.080   1.231   1.887
 5986TIP3   OH217898   2.930   6.294   1.076
 5986TIP3    H117899   2.863   6.252   1.021
 5986TIP3    H217900   3.013   6.265   1.039
 5987TIP3   OH217901   0.237   4.003   0.338
 5987TIP3    H117902   0.151   4.024   0.374
 5987TIP3    H217903   0.270   3.932   0.393
 5988TIP3   OH217904   4.382   7.673   0.312
 5988TIP3    H117905   4.466   7.686   0.356
 5988TIP3    H217906   4.352   7.762   0.293
 5989TIP3   OH217907   2.332   2.204   5.069
 5989TIP3    H117908   2.241   2.181   5.048
 5989TIP3    H217909   2.339   2.296   5.046
 5990TIP3   OH217910   3.243   5.789   2.277
 5990TIP3    H117911   3.157   5.798   2.235
 5990TIP3    H217912   3.242   5.853   2.348
 5991TIP3   OH217913   4.618   0.534   3.628
 5991TIP3    H117914   4.545   0.513   3.570
 5991TIP3    H217915   4.686   0.569   3.570
 5992TIP3   OH217916   1.662   1.282   4.133
 5992TIP3    H117917   1.715   1.208   4.103
 5992TIP3    H217918   1.572   1.256   4.117
 5993TIP3   OH217919   4.660   5.921   2.212
 5993TIP3    H117920   4.614   5.891   2.291
 5993TIP3    H217921   4.616   6.002   2.188
 5994TIP3   OH217922   4.102   7.596   2.108
 5994TIP3    H117923   4.074   7.672   2.057
 5994TIP3    H217924   4.195   7.587   2.088
 5995TIP3   OH217925   0.497   2.573   3.149
 5995TIP3    H117926   0.544   2.558   3.231
 5995TIP3    H217927   0.476   2.485   3.117
 5996TIP3   OH217928   2.381   7.882   5.091
 5996TIP3    H117929   2.339   7.813   5.142
 5996TIP3    H217930   2.463   7.843   5.061
 5997TIP3   OH217931   1.601   1.790   6.424
 5997TIP3    H117932   1.588   1.883   6.410
 5997TIP3    H217933   1.534   1.747   6.372
 5998TIP3   OH217934   2.334   2.682   6.707
 5998TIP3    H117935   2.291   2.604   6.743
 5998TIP3    H217936   2.359   2.657   6.618
 5999TIP3   OH217937   1.980   1.545   1.724
 5999TIP3    H117938   1.901   1.561   1.775
 5999TIP3    H217939   1.953   1.481   1.658
 6000TIP3   OH217940   7.153   1.085   3.359
 6000TIP3    H117941   7.111   1.159   3.403
 6000TIP3    H217942   7.242   1.084   3.393
 6001TIP3   OH217943   2.363   4.651   1.925
 6001TIP3    H117944   2.403   4.673   1.841
 6001TIP3    H217945   2.430   4.598   1.969
 6002TIP3   OH217946   1.005   3.288   4.202
 6002TIP3    H117947   1.040   3.267   4.115
 6002TIP3    H217948   1.015   3.207   4.252
 6003TIP3   OH217949   5.656   0.835   3.760
 6003TIP3    H117950   5.628   0.746   3.780
 6003TIP3    H217951   5.697   0.829   3.673
 6004TIP3   OH217952   2.380   5.441   1.113
 6004TIP3    H117953   2.307   5.403   1.065
 6004TIP3    H217954   2.450   5.448   1.048
 6005TIP3   OH217955   0.429   1.530   2.589
 6005TIP3    H117956   0.425   1.533   2.493
 6005TIP3    H217957   0.347   1.571   2.617
 6006TIP3   OH217958   4.142   5.998   0.791
 6006TIP3    H117959   4.057   6.041   0.782
 6006TIP3    H217960   4.121   5.905   0.800
 6007TIP3   OH217961   5.864   3.715   3.788
 6007TIP3    H117962   5.954   3.734   3.761
 6007TIP3    H217963   5.812   3.782   3.744
 6008TIP3   OH217964   7.587   3.588   3.264
 6008TIP3    H117965   7.532   3.534   3.207
 6008TIP3    H217966   7.645   3.635   3.205
 6009TIP3   OH217967   2.913   4.445   1.930
 6009TIP3    H117968   2.901   4.351   1.947
 6009TIP3    H217969   3.008   4.455   1.919
 6010TIP3   OH217970   0.124   5.533   1.269
 6010TIP3    H117971   0.215   5.516   1.294
 6010TIP3    H217972   0.112   5.483   1.188
 6011TIP3   OH217973   5.938   0.089   4.030
 6011TIP3    H117974   5.975   0.158   4.085
 6011TIP3    H217975   5.981   0.101   3.945
 6012TIP3   OH217976   6.292   2.987  -0.005
 6012TIP3    H117977   6.208   3.002  -0.050
 6012TIP3    H217978   6.267   2.962   0.084
 6013TIP3   OH217979   6.930   7.017   5.013
 6013TIP3    H117980   6.975   6.982   5.090
 6013TIP3    H217981   6.837   7.005   5.034
 6014TIP3   OH217982   2.416   5.597   4.485
 6014TIP3    H117983   2.411   5.632   4.574
 6014TIP3    H217984   2.428   5.674   4.429
 6015TIP3   OH217985   1.615   3.420   1.871
 6015TIP3    H117986   1.603   3.362   1.795
 6015TIP3    H217987   1.581   3.369   1.945
 6016TIP3   OH217988   7.043   0.115   6.364
 6016TIP3    H117989   7.013   0.161   6.442
 6016TIP3    H217990   6.969   0.120   6.304
 6017TIP3   OH217991   5.002   0.617   3.243
 6017TIP3    H117992   5.048   0.699   3.220
 6017TIP3    H217993   5.070   0.562   3.281
 6018TIP3   OH217994   4.793   3.629   3.645
 6018TIP3    H117995   4.701   3.649   3.662
 6018TIP3    H217996   4.805   3.541   3.681
 6019TIP3   OH217997   3.395   5.653   4.510
 6019TIP3    H117998   3.434   5.671   4.595
 6019TIP3    H217999   3.310   5.614   4.531
 6020TIP3   OH218000   8.301   0.394   6.381
 6020TIP3    H118001   8.298   0.422   6.290
 6020TIP3    H218002   8.390   0.413   6.409
 6021TIP3   OH218003   7.322   4.021   0.146
 6021TIP3    H118004   7.339   4.038   0.238
 6021TIP3    H218005   7.252   3.955   0.145
 6022TIP3   OH218006   2.385   3.447   3.338
 6022TIP3    H118007   2.321   3.510   3.305
 6022TIP3    H218008   2.470   3.484   3.314
 6023TIP3   OH218009   2.491   0.605   0.911
 6023TIP3    H118010   2.525   0.674   0.968
 6023TIP3    H218011   2.489   0.527   0.966
 6024TIP3   OH218012   8.152   2.776   4.937
 6024TIP3    H118013   8.234   2.824   4.934
 6024TIP3    H218014   8.084   2.843   4.934
 6025TIP3   OH218015   1.445   6.795   4.901
 6025TIP3    H118016   1.387   6.854   4.949
 6025TIP3    H218017   1.516   6.776   4.963
 6026TIP3   OH218018   3.714   1.734   2.777
 6026TIP3    H118019   3.643   1.774   2.828
 6026TIP3    H218020   3.689   1.642   2.769
 6027TIP3   OH218021   2.036   4.506   0.608
 6027TIP3    H118022   1.992   4.591   0.600
 6027TIP3    H218023   1.976   4.453   0.660
 6028TIP3   OH218024   5.682   5.329   4.899
 6028TIP3    H118025   5.748   5.265   4.870
 6028TIP3    H218026   5.635   5.352   4.819
 6029TIP3   OH218027   8.235   0.497   2.064
 6029TIP3    H118028   8.309   0.459   2.111
 6029TIP3    H218029   8.179   0.533   2.132
 6030TIP3   OH218030   1.512   1.193   1.124
 6030TIP3    H118031   1.541   1.183   1.034
 6030TIP3    H218032   1.487   1.285   1.131
 6031TIP3   OH218033   5.429   4.230   3.488
 6031TIP3    H118034   5.525   4.235   3.487
 6031TIP3    H218035   5.408   4.173   3.561
 6032TIP3   OH218036   5.248   2.015   3.082
 6032TIP3    H118037   5.259   2.037   3.174
 6032TIP3    H218038   5.312   2.069   3.036
 6033TIP3   OH218039   4.698   7.457   1.998
 6033TIP3    H118040   4.666   7.369   2.017
 6033TIP3    H218041   4.658   7.480   1.914
 6034TIP3   OH218042   2.313   1.229   0.253
 6034TIP3    H118043   2.284   1.236   0.162
 6034TIP3    H218044   2.389   1.171   0.251
 6035TIP3   OH218045   3.215   0.599   0.736
 6035TIP3    H118046   3.266   0.631   0.662
 6035TIP3    H218047   3.145   0.662   0.747
 6036TIP3   OH218048   6.899   2.129   1.369
 6036TIP3    H118049   6.899   2.211   1.321
 6036TIP3    H218050   6.890   2.155   1.461
 6037TIP3   OH218051   1.167   2.739   6.007
 6037TIP3    H118052   1.183   2.797   6.081
 6037TIP3    H218053   1.092   2.778   5.961
 6038TIP3   OH218054   4.926   3.934   3.143
 6038TIP3    H118055   4.896   3.965   3.229
 6038TIP3    H218056   5.007   3.984   3.127
 6039TIP3   OH218057   6.917   2.359   1.213
 6039TIP3    H118058   6.881   2.330   1.129
 6039TIP3    H218059   7.005   2.391   1.191
 6040TIP3   OH218060   4.422   3.248   6.060
 6040TIP3    H118061   4.464   3.334   6.057
 6040TIP3    H218062   4.398   3.236   6.152
 6041TIP3   OH218063   1.278   0.586   3.074
 6041TIP3    H118064   1.288   0.644   3.150
 6041TIP3    H218065   1.361   0.538   3.070
 6042TIP3   OH218066   2.026   5.874   2.352
 6042TIP3    H118067   2.047   5.781   2.357
 6042TIP3    H218068   1.957   5.879   2.285
 6043TIP3   OH218069   3.053   6.498   0.042
 6043TIP3    H118070   3.139   6.457   0.031
 6043TIP3    H218071   2.992   6.425   0.052
 6044TIP3   OH218072   1.663   7.350   1.134
 6044TIP3    H118073   1.663   7.421   1.197
 6044TIP3    H218074   1.583   7.300   1.153
 6045TIP3   OH218075   8.328   6.629   2.113
 6045TIP3    H118076   8.358   6.635   2.204
 6045TIP3    H218077   8.312   6.536   2.099
 6046TIP3   OH218078   1.507   2.727   1.913
 6046TIP3    H118079   1.475   2.731   1.823
 6046TIP3    H218080   1.473   2.645   1.947
 6047TIP3   OH218081   5.376   2.070   1.046
 6047TIP3    H118082   5.467   2.085   1.073
 6047TIP3    H218083   5.325   2.079   1.126
 6048TIP3   OH218084   6.551   6.729   5.469
 6048TIP3    H118085   6.640   6.730   5.504
 6048TIP3    H218086   6.562   6.713   5.375
 6049TIP3   OH218087   5.125   6.367   4.368
 6049TIP3    H118088   5.141   6.275   4.344
 6049TIP3    H218089   5.182   6.382   4.443
 6050TIP3   OH218090   1.806   6.629   0.457
 6050TIP3    H118091   1.842   6.671   0.535
 6050TIP3    H218092   1.712   6.633   0.469
 6051TIP3   OH218093   6.705   7.355   2.105
 6051TIP3    H118094   6.639   7.320   2.165
 6051TIP3    H218095   6.708   7.292   2.033
 6052TIP3   OH218096   2.330   3.861   2.076
 6052TIP3    H118097   2.364   3.772   2.085
 6052TIP3    H218098   2.356   3.905   2.157
 6053TIP3   OH218099   1.759   3.581   4.176
 6053TIP3    H118100   1.702   3.630   4.234
 6053TIP3    H218101   1.741   3.489   4.197
 6054TIP3   OH218102   5.531   6.312   2.214
 6054TIP3    H118103   5.534   6.330   2.120
 6054TIP3    H218104   5.553   6.219   2.221
 6055TIP3   OH218105   7.339   4.482   0.501
 6055TIP3    H118106   7.403   4.539   0.457
 6055TIP3    H218107   7.316   4.416   0.435
 6056TIP3   OH218108   2.991   2.582   6.802
 6056TIP3    H118109   2.921   2.525   6.833
 6056TIP3    H218110   3.051   2.590   6.875
 6057TIP3   OH218111   3.347   6.418   1.039
 6057TIP3    H118112   3.310   6.351   0.982
 6057TIP3    H218113   3.294   6.414   1.118
 6058TIP3   OH218114   3.458   1.928   1.079
 6058TIP3    H118115   3.459   1.965   1.167
 6058TIP3    H218116   3.529   1.972   1.033
 6059TIP3   OH218117   5.034   7.586   3.838
 6059TIP3    H118118   5.108   7.593   3.778
 6059TIP3    H218119   4.978   7.661   3.816
 6060TIP3   OH218120   5.079   1.835   4.326
 6060TIP3    H118121   5.005   1.880   4.365
 6060TIP3    H218122   5.043   1.754   4.290
 6061TIP3   OH218123   0.612   3.110   1.677
 6061TIP3    H118124   0.699   3.146   1.661
 6061TIP3    H218125   0.627   3.034   1.733
 6062TIP3   OH218126   7.404   5.022   2.668
 6062TIP3    H118127   7.479   5.080   2.660
 6062TIP3    H218128   7.364   5.045   2.752
 6063TIP3   OH218129   7.408   5.811   2.984
 6063TIP3    H118130   7.475   5.746   3.003
 6063TIP3    H218131   7.401   5.811   2.889
 6064TIP3   OH218132   1.483   7.147   4.970
 6064TIP3    H118133   1.532   7.119   4.893
 6064TIP3    H218134   1.402   7.096   4.968
 6065TIP3   OH218135   1.116   0.630   3.445
 6065TIP3    H118136   1.107   0.549   3.395
 6065TIP3    H218137   1.183   0.680   3.397
 6066TIP3   OH218138   2.696   1.689   5.794
 6066TIP3    H118139   2.777   1.651   5.829
 6066TIP3    H218140   2.670   1.629   5.724
 6067TIP3   OH218141   4.859   2.763   2.826
 6067TIP3    H118142   4.903   2.775   2.742
 6067TIP3    H218143   4.927   2.776   2.892
 6068TIP3   OH218144   7.339   4.139   2.906
 6068TIP3    H118145   7.322   4.099   2.991
 6068TIP3    H218146   7.376   4.069   2.853
 6069TIP3   OH218147   1.414   3.591   6.064
 6069TIP3    H118148   1.360   3.514   6.047
 6069TIP3    H218149   1.387   3.620   6.151
 6070TIP3   OH218150   8.129   6.121   4.896
 6070TIP3    H118151   8.132   6.132   4.991
 6070TIP3    H218152   8.119   6.027   4.883
 6071TIP3   OH218153   4.292   6.648   3.509
 6071TIP3    H118154   4.326   6.622   3.424
 6071TIP3    H218155   4.248   6.570   3.543
 6072TIP3   OH218156   4.165   6.412   2.960
 6072TIP3    H118157   4.113   6.412   3.040
 6072TIP3    H218158   4.256   6.419   2.990
 6073TIP3   OH218159   1.446   1.767   2.571
 6073TIP3    H118160   1.528   1.794   2.531
 6073TIP3    H218161   1.405   1.710   2.506
 6074TIP3   OH218162   1.772   3.988   0.430
 6074TIP3    H118163   1.799   3.901   0.403
 6074TIP3    H218164   1.823   4.005   0.510
 6075TIP3   OH218165   5.392   2.073   5.342
 6075TIP3    H118166   5.332   2.096   5.271
 6075TIP3    H218167   5.337   2.071   5.420
 6076TIP3   OH218168   7.045   1.543   3.362
 6076TIP3    H118169   7.041   1.468   3.422
 6076TIP3    H218170   7.003   1.614   3.410
 6077TIP3   OH218171   5.268   7.413   6.004
 6077TIP3    H118172   5.265   7.328   5.961
 6077TIP3    H218173   5.237   7.396   6.093
 6078TIP3   OH218174   0.956   5.055   6.804
 6078TIP3    H118175   1.033   5.000   6.818
 6078TIP3    H218176   0.959   5.078   6.711
 6079TIP3   OH218177   6.093   4.974   6.663
 6079TIP3    H118178   6.143   5.029   6.603
 6079TIP3    H218179   6.001   4.995   6.643
 6080TIP3   OH218180   5.557   0.906   4.272
 6080TIP3    H118181   5.632   0.956   4.240
 6080TIP3    H218182   5.571   0.817   4.238
 6081TIP3   OH218183   2.344   1.635   3.006
 6081TIP3    H118184   2.411   1.678   2.953
 6081TIP3    H218185   2.267   1.691   2.996
 6082TIP3   OH218186   0.759   3.845   0.647
 6082TIP3    H118187   0.844   3.803   0.660
 6082TIP3    H218188   0.696   3.786   0.690
 6083TIP3   OH218189   4.083   3.113   2.332
 6083TIP3    H118190   4.162   3.148   2.290
 6083TIP3    H218191   4.107   3.106   2.424
 6084TIP3   OH218192   7.957   3.382   3.648
 6084TIP3    H118193   7.937   3.425   3.731
 6084TIP3    H218194   7.880   3.329   3.629
 6085TIP3   OH218195   3.261   0.258   2.225
 6085TIP3    H118196   3.238   0.178   2.272
 6085TIP3    H218197   3.177   0.301   2.208
 6086TIP3   OH218198   0.031   5.148   5.635
 6086TIP3    H118199   0.014   5.056   5.618
 6086TIP3    H218200  -0.043   5.177   5.688
 6087TIP3   OH218201   2.619   5.488   0.363
 6087TIP3    H118202   2.709   5.516   0.346
 6087TIP3    H218203   2.573   5.568   0.388
 6088TIP3   OH218204   2.465   7.435   5.177
 6088TIP3    H118205   2.386   7.384   5.162
 6088TIP3    H218206   2.437   7.510   5.230
 6089TIP3   OH218207   2.001   3.307   2.506
 6089TIP3    H118208   1.995   3.368   2.433
 6089TIP3    H218209   1.996   3.220   2.467
 6090TIP3   OH218210   6.582   7.608   1.059
 6090TIP3    H118211   6.526   7.661   1.116
 6090TIP3    H218212   6.601   7.665   0.985
 6091TIP3   OH218213   3.630   1.030   3.846
 6091TIP3    H118214   3.675   0.949   3.823
 6091TIP3    H218215   3.546   1.024   3.802
 6092TIP3   OH218216   7.312   3.920   4.647
 6092TIP3    H118217   7.388   3.974   4.628
 6092TIP3    H218218   7.316   3.849   4.583
 6093TIP3   OH218219   6.535   7.335   6.570
 6093TIP3    H118220   6.472   7.307   6.636
 6093TIP3    H218221   6.491   7.318   6.486
 6094TIP3   OH218222   8.148   0.270   3.953
 6094TIP3    H118223   8.217   0.277   3.888
 6094TIP3    H218224   8.071   0.307   3.909
 6095TIP3   OH218225   2.381   2.562   2.295
 6095TIP3    H118226   2.445   2.516   2.350
 6095TIP3    H218227   2.385   2.653   2.325
 6096TIP3   OH218228   7.891   4.329   2.144
 6096TIP3    H118229   7.867   4.395   2.078
 6096TIP3    H218230   7.877   4.245   2.099
 6097TIP3   OH218231   1.435   2.034   2.637
 6097TIP3    H118232   1.441   1.939   2.623
 6097TIP3    H218233   1.428   2.044   2.731
 6098TIP3   OH218234   3.912   1.144   2.605
 6098TIP3    H118235   3.841   1.209   2.608
 6098TIP3    H218236   3.980   1.180   2.662
 6099TIP3   OH218237   7.543   2.809   6.819
 6099TIP3    H118238   7.570   2.805   6.911
 6099TIP3    H218239   7.623   2.833   6.772
 6100TIP3   OH218240   0.246   1.184   5.388
 6100TIP3    H118241   0.268   1.099   5.427
 6100TIP3    H218242   0.262   1.171   5.294
 6101TIP3   OH218243   3.604   6.887   6.092
 6101TIP3    H118244   3.508   6.879   6.089
 6101TIP3    H218245   3.633   6.810   6.140
 6102TIP3   OH218246   4.940   4.987   4.175
 6102TIP3    H118247   5.003   4.986   4.102
 6102TIP3    H218248   4.855   4.976   4.133
 6103TIP3   OH218249   4.877   2.169   3.279
 6103TIP3    H118250   4.928   2.222   3.217
 6103TIP3    H218251   4.914   2.190   3.365
 6104TIP3   OH218252   1.565   6.043   3.545
 6104TIP3    H118253   1.508   5.994   3.604
 6104TIP3    H218254   1.507   6.071   3.474
 6105TIP3   OH218255   3.800   5.000   5.687
 6105TIP3    H118256   3.845   4.938   5.629
 6105TIP3    H218257   3.799   5.082   5.639
 6106TIP3   OH218258   5.681   0.601   5.986
 6106TIP3    H118259   5.750   0.661   6.016
 6106TIP3    H218260   5.688   0.525   6.043
 6107TIP3   OH218261   5.519   7.177   3.356
 6107TIP3    H118262   5.613   7.193   3.347
 6107TIP3    H218263   5.510   7.082   3.345
 6108TIP3   OH218264   4.185   2.219   6.320
 6108TIP3    H118265   4.163   2.285   6.254
 6108TIP3    H218266   4.259   2.256   6.369
 6109TIP3   OH218267   6.463   4.782   0.283
 6109TIP3    H118268   6.488   4.739   0.201
 6109TIP3    H218269   6.367   4.779   0.283
 6110TIP3   OH218270   0.574   0.321   0.351
 6110TIP3    H118271   0.555   0.270   0.273
 6110TIP3    H218272   0.491   0.321   0.400
 6111TIP3   OH218273   1.931   7.649   1.834
 6111TIP3    H118274   1.867   7.625   1.900
 6111TIP3    H218275   2.004   7.687   1.883
 6112TIP3   OH218276   3.018   5.164   5.637
 6112TIP3    H118277   3.085   5.231   5.628
 6112TIP3    H218278   2.956   5.199   5.700
 6113TIP3   OH218279   3.236   0.914   3.531
 6113TIP3    H118280   3.196   0.985   3.480
 6113TIP3    H218281   3.263   0.850   3.465
 6114TIP3   OH218282   5.032   6.431   2.030
 6114TIP3    H118283   5.017   6.427   1.936
 6114TIP3    H218284   5.008   6.344   2.062
 6115TIP3   OH218285   6.913   0.161   1.852
 6115TIP3    H118286   6.942   0.140   1.763
 6115TIP3    H218287   6.876   0.249   1.845
 6116TIP3   OH218288   0.992   1.054   4.709
 6116TIP3    H118289   1.080   1.058   4.747
 6116TIP3    H218290   0.933   1.068   4.783
 6117TIP3   OH218291   5.996   7.325   6.758
 6117TIP3    H118292   5.909   7.299   6.730
 6117TIP3    H218293   6.034   7.246   6.796
 6118TIP3   OH218294   7.223   1.046   6.730
 6118TIP3    H118295   7.201   1.090   6.648
 6118TIP3    H218296   7.138   1.033   6.773
 6119TIP3   OH218297   1.594   0.338   4.793
 6119TIP3    H118298   1.529   0.269   4.787
 6119TIP3    H218299   1.622   0.353   4.703
 6120TIP3   OH218300   8.082   0.857   0.736
 6120TIP3    H118301   8.062   0.763   0.738
 6120TIP3    H218302   8.068   0.883   0.645
 6121TIP3   OH218303   5.735   5.263   4.187
 6121TIP3    H118304   5.752   5.224   4.101
 6121TIP3    H218305   5.760   5.195   4.250
 6122TIP3   OH218306   6.145   7.354   4.881
 6122TIP3    H118307   6.233   7.372   4.913
 6122TIP3    H218308   6.146   7.262   4.855
 6123TIP3   OH218309   8.391   5.052   4.095
 6123TIP3    H118310   8.302   5.022   4.082
 6123TIP3    H218311   8.400   5.127   4.036
 6124TIP3   OH218312   1.892   0.537   1.600
 6124TIP3    H118313   1.863   0.475   1.667
 6124TIP3    H218314   1.880   0.490   1.517
 6125TIP3   OH218315   6.342   2.390   3.980
 6125TIP3    H118316   6.281   2.326   3.943
 6125TIP3    H218317   6.315   2.473   3.942
 6126TIP3   OH218318   0.843   4.087   3.592
 6126TIP3    H118319   0.929   4.061   3.626
 6126TIP3    H218320   0.782   4.027   3.634
 6127TIP3   OH218321   2.412   6.281   5.920
 6127TIP3    H118322   2.372   6.255   5.837
 6127TIP3    H218323   2.467   6.207   5.944
 6128TIP3   OH218324   6.565   5.880   0.911
 6128TIP3    H118325   6.535   5.834   0.989
 6128TIP3    H218326   6.513   5.844   0.839
 6129TIP3   OH218327   3.936   0.768   2.824
 6129TIP3    H118328   3.908   0.839   2.766
 6129TIP3    H218329   3.855   0.741   2.868
 6130TIP3   OH218330   1.742   6.580   1.635
 6130TIP3    H118331   1.790   6.562   1.716
 6130TIP3    H218332   1.785   6.658   1.598
 6131TIP3   OH218333   1.465   6.964   3.193
 6131TIP3    H118334   1.534   7.003   3.139
 6131TIP3    H218335   1.465   7.018   3.272
 6132TIP3   OH218336   8.080   6.223   0.497
 6132TIP3    H118337   8.060   6.224   0.591
 6132TIP3    H218338   8.143   6.294   0.485
 6133TIP3   OH218339   1.831   6.320   4.108
 6133TIP3    H118340   1.761   6.383   4.127
 6133TIP3    H218341   1.785   6.240   4.080
 6134TIP3   OH218342   0.400   7.476   5.612
 6134TIP3    H118343   0.410   7.408   5.678
 6134TIP3    H218344   0.462   7.453   5.543
 6135TIP3   OH218345   7.947   7.576   5.262
 6135TIP3    H118346   8.001   7.628   5.203
 6135TIP3    H218347   7.863   7.568   5.217
 6136TIP3   OH218348   7.015   4.265   6.073
 6136TIP3    H118349   7.079   4.195   6.087
 6136TIP3    H218350   6.935   4.232   6.114
 6137TIP3   OH218351   0.359   4.179   6.847
 6137TIP3    H118352   0.288   4.201   6.786
 6137TIP3    H218353   0.436   4.222   6.810
 6138TIP3   OH218354   3.988   3.461   2.005
 6138TIP3    H118355   4.039   3.392   1.962
 6138TIP3    H218356   3.928   3.492   1.938
 6139TIP3   OH218357   5.563   7.464   4.809
 6139TIP3    H118358   5.523   7.381   4.837
 6139TIP3    H218359   5.493   7.528   4.816
 6140TIP3   OH218360   5.628   7.722   5.935
 6140TIP3    H118361   5.551   7.773   5.962
 6140TIP3    H218362   5.698   7.751   5.993
 6141TIP3   OH218363   2.902   7.531   2.152
 6141TIP3    H118364   2.869   7.535   2.063
 6141TIP3    H218365   2.980   7.586   2.151
 6142TIP3   OH218366   2.925   0.608   1.870
 6142TIP3    H118367   2.980   0.628   1.794
 6142TIP3    H218368   2.986   0.575   1.936
 6143TIP3   OH218369   7.936   4.836   1.956
 6143TIP3    H118370   7.853   4.832   2.004
 6143TIP3    H218371   7.910   4.855   1.866
 6144TIP3   OH218372   0.437   5.583   0.638
 6144TIP3    H118373   0.409   5.674   0.633
 6144TIP3    H218374   0.516   5.578   0.583
 6145TIP3   OH218375   6.546   7.562   2.737
 6145TIP3    H118376   6.554   7.539   2.829
 6145TIP3    H218377   6.634   7.593   2.712
 6146TIP3   OH218378   0.469   2.148   0.812
 6146TIP3    H118379   0.432   2.236   0.814
 6146TIP3    H218380   0.451   2.112   0.899
 6147TIP3   OH218381   5.761   4.876   0.114
 6147TIP3    H118382   5.823   4.934   0.071
 6147TIP3    H218383   5.816   4.813   0.161
 6148TIP3   OH218384   2.981   5.289   1.771
 6148TIP3    H118385   2.997   5.275   1.678
 6148TIP3    H218386   3.061   5.331   1.803
 6149TIP3   OH218387   8.169   3.284   1.683
 6149TIP3    H118388   8.191   3.376   1.693
 6149TIP3    H218389   8.077   3.284   1.656
 6150TIP3   OH218390   7.518   6.138   4.666
 6150TIP3    H118391   7.525   6.229   4.637
 6150TIP3    H218392   7.427   6.130   4.695
 6151TIP3   OH218393   4.895   1.828   3.842
 6151TIP3    H118394   4.867   1.802   3.930
 6151TIP3    H218395   4.982   1.866   3.855
 6152TIP3   OH218396   5.649   2.990   3.863
 6152TIP3    H118397   5.720   2.955   3.810
 6152TIP3    H218398   5.685   3.071   3.901
 6153TIP3   OH218399   3.364   7.306   4.797
 6153TIP3    H118400   3.371   7.245   4.870
 6153TIP3    H218401   3.286   7.358   4.816
 6154TIP3   OH218402   2.822   1.033   6.484
 6154TIP3    H118403   2.858   0.962   6.430
 6154TIP3    H218404   2.888   1.047   6.552
 6155TIP3   OH218405   0.521   3.671   4.785
 6155TIP3    H118406   0.446   3.658   4.726
 6155TIP3    H218407   0.483   3.672   4.872
 6156TIP3   OH218408   2.459   2.424   2.779
 6156TIP3    H118409   2.415   2.449   2.861
 6156TIP3    H218410   2.461   2.504   2.727
 6157TIP3   OH218411   8.183   3.725   4.679
 6157TIP3    H118412   8.128   3.782   4.733
 6157TIP3    H218413   8.172   3.757   4.590
 6158TIP3   OH218414   0.462   1.864   3.572
 6158TIP3    H118415   0.451   1.858   3.666
 6158TIP3    H218416   0.530   1.931   3.559
 6159TIP3   OH218417   4.354   2.684   2.113
 6159TIP3    H118418   4.375   2.744   2.184
 6159TIP3    H218419   4.439   2.652   2.082
 6160TIP3   OH218420   1.456   4.388   4.973
 6160TIP3    H118421   1.476   4.444   5.048
 6160TIP3    H218422   1.522   4.411   4.908
 6161TIP3   OH218423   5.982   1.765   6.178
 6161TIP3    H118424   6.024   1.719   6.105
 6161TIP3    H218425   6.054   1.810   6.222
 6162TIP3   OH218426   4.541   7.928   3.157
 6162TIP3    H118427   4.564   7.837   3.139
 6162TIP3    H218428   4.592   7.951   3.234
 6163TIP3   OH218429   3.442   6.958   1.380
 6163TIP3    H118430   3.387   6.881   1.394
 6163TIP3    H218431   3.490   6.969   1.462
 6164TIP3   OH218432   0.014   4.705   2.771
 6164TIP3    H118433   0.036   4.646   2.699
 6164TIP3    H218434   0.090   4.764   2.777
 6165TIP3   OH218435   4.697   1.300   1.452
 6165TIP3    H118436   4.710   1.212   1.488
 6165TIP3    H218437   4.644   1.345   1.518
 6166TIP3   OH218438   5.904   1.703   4.100
 6166TIP3    H118439   5.827   1.708   4.158
 6166TIP3    H218440   5.899   1.783   4.047
 6167TIP3   OH218441   7.299   3.526   3.815
 6167TIP3    H118442   7.244   3.515   3.892
 6167TIP3    H218443   7.241   3.511   3.740
 6168TIP3   OH218444   6.301   0.360   2.592
 6168TIP3    H118445   6.310   0.357   2.687
 6168TIP3    H218446   6.343   0.442   2.566
 6169TIP3   OH218447   2.418   2.979   5.871
 6169TIP3    H118448   2.440   2.970   5.964
 6169TIP3    H218449   2.392   2.890   5.844
 6170TIP3   OH218450   2.419   1.014   0.777
 6170TIP3    H118451   2.410   1.077   0.705
 6170TIP3    H218452   2.512   1.013   0.796
 6171TIP3   OH218453   7.636   5.918   2.235
 6171TIP3    H118454   7.676   5.864   2.167
 6171TIP3    H218455   7.677   6.004   2.225
 6172TIP3   OH218456   1.267   3.193   3.074
 6172TIP3    H118457   1.340   3.193   3.012
 6172TIP3    H218458   1.200   3.248   3.033
 6173TIP3   OH218459   5.730   1.811   4.586
 6173TIP3    H118460   5.718   1.906   4.589
 6173TIP3    H218461   5.702   1.786   4.497
 6174TIP3   OH218462   4.750   4.222   1.659
 6174TIP3    H118463   4.662   4.197   1.634
 6174TIP3    H218464   4.747   4.229   1.754
 6175TIP3   OH218465   5.122   3.326   0.337
 6175TIP3    H118466   5.184   3.388   0.298
 6175TIP3    H218467   5.042   3.376   0.350
 6176TIP3   OH218468   3.063   6.496   2.661
 6176TIP3    H118469   3.102   6.522   2.578
 6176TIP3    H218470   3.112   6.418   2.688
 6177TIP3   OH218471   2.878   7.533   3.980
 6177TIP3    H118472   2.929   7.603   3.939
 6177TIP3    H218473   2.920   7.521   4.066
 6178TIP3   OH218474   1.882   0.790   3.838
 6178TIP3    H118475   1.788   0.803   3.830
 6178TIP3    H218476   1.907   0.839   3.917
 6179TIP3   OH218477   3.626   2.654   5.818
 6179TIP3    H118478   3.664   2.733   5.779
 6179TIP3    H218479   3.548   2.636   5.764
 6180TIP3   OH218480   1.842   7.238   0.937
 6180TIP3    H118481   1.918   7.283   0.976
 6180TIP3    H218482   1.773   7.247   1.003
 6181TIP3   OH218483   2.210   0.349   4.991
 6181TIP3    H118484   2.184   0.436   5.021
 6181TIP3    H218485   2.305   0.349   4.997
 6182TIP3   OH218486   5.074   6.594   2.997
 6182TIP3    H118487   5.001   6.656   2.992
 6182TIP3    H218488   5.085   6.562   2.907
 6183TIP3   OH218489   7.886   7.375   2.318
 6183TIP3    H118490   7.935   7.371   2.400
 6183TIP3    H218491   7.914   7.457   2.277
 6184TIP3   OH218492   0.866   3.284   1.961
 6184TIP3    H118493   0.909   3.347   1.903
 6184TIP3    H218494   0.933   3.217   1.977
 6185TIP3   OH218495   2.953   5.965   0.237
 6185TIP3    H118496   3.001   5.951   0.156
 6185TIP3    H218497   3.012   5.933   0.306
 6186TIP3   OH218498   3.761   3.393   4.984
 6186TIP3    H118499   3.696   3.381   4.915
 6186TIP3    H218500   3.800   3.306   4.996
 6187TIP3   OH218501   1.039   5.494   4.683
 6187TIP3    H118502   1.000   5.412   4.652
 6187TIP3    H218503   0.981   5.524   4.753
 6188TIP3   OH218504   7.946   2.125   2.052
 6188TIP3    H118505   8.028   2.124   2.003
 6188TIP3    H218506   7.882   2.087   1.992
 6189TIP3   OH218507   1.188   7.736   3.833
 6189TIP3    H118508   1.241   7.676   3.886
 6189TIP3    H218509   1.179   7.692   3.749
 6190TIP3   OH218510   0.472   3.872   3.385
 6190TIP3    H118511   0.444   3.831   3.303
 6190TIP3    H218512   0.566   3.857   3.389
 6191TIP3   OH218513   6.630   7.892   5.840
 6191TIP3    H118514   6.571   7.967   5.831
 6191TIP3    H218515   6.630   7.851   5.754
 6192TIP3   OH218516   1.843   0.200   2.199
 6192TIP3    H118517   1.748   0.194   2.199
 6192TIP3    H218518   1.862   0.286   2.161
 6193TIP3   OH218519   0.880   2.461   3.522
 6193TIP3    H118520   0.942   2.510   3.468
 6193TIP3    H218521   0.867   2.516   3.600
 6194TIP3   OH218522   1.045   1.294   4.976
 6194TIP3    H118523   1.061   1.326   5.065
 6194TIP3    H218524   1.072   1.367   4.919
 6195TIP3   OH218525   2.563   1.170   4.506
 6195TIP3    H118526   2.564   1.174   4.602
 6195TIP3    H218527   2.654   1.180   4.481
 6196TIP3   OH218528   0.830   1.013   3.932
 6196TIP3    H118529   0.832   0.983   4.023
 6196TIP3    H218530   0.881   0.947   3.884
 6197TIP3   OH218531   5.724   2.272   1.267
 6197TIP3    H118532   5.661   2.302   1.202
 6197TIP3    H218533   5.809   2.291   1.228
 6198TIP3   OH218534   1.837   2.289   4.032
 6198TIP3    H118535   1.802   2.318   4.116
 6198TIP3    H218536   1.932   2.295   4.043
 6199TIP3   OH218537   6.131   5.365   5.824
 6199TIP3    H118538   6.221   5.358   5.791
 6199TIP3    H218539   6.099   5.275   5.824
 6200TIP3   OH218540   7.310   2.715   3.466
 6200TIP3    H118541   7.332   2.757   3.549
 6200TIP3    H218542   7.215   2.702   3.470
 6201TIP3   OH218543   7.855   5.555   4.509
 6201TIP3    H118544   7.871   5.609   4.586
 6201TIP3    H218545   7.787   5.494   4.536
 6202TIP3   OH218546   8.260   1.424   3.901
 6202TIP3    H118547   8.296   1.501   3.856
 6202TIP3    H218548   8.336   1.368   3.918
 6203TIP3   OH218549   4.477   7.779   5.259
 6203TIP3    H118550   4.455   7.709   5.320
 6203TIP3    H218551   4.571   7.771   5.245
 6204TIP3   OH218552   5.116   4.541   2.538
 6204TIP3    H118553   5.139   4.612   2.478
 6204TIP3    H218554   5.080   4.584   2.615
 6205TIP3   OH218555   1.203   1.665   3.538
 6205TIP3    H118556   1.226   1.659   3.445
 6205TIP3    H218557   1.232   1.753   3.564
 6206TIP3   OH218558   4.903   1.056   3.683
 6206TIP3    H118559   4.993   1.035   3.660
 6206TIP3    H218560   4.868   0.976   3.721
 6207TIP3   OH218561   6.352   7.342   3.478
 6207TIP3    H118562   6.409   7.365   3.552
 6207TIP3    H218563   6.319   7.427   3.447
 6208TIP3   OH218564   2.715   1.810   4.864
 6208TIP3    H118565   2.751   1.738   4.812
 6208TIP3    H218566   2.791   1.856   4.898
 6209TIP3   OH218567   7.527   5.272   2.692
 6209TIP3    H118568   7.553   5.298   2.604
 6209TIP3    H218569   7.588   5.317   2.750
 6210TIP3   OH218570   6.748   5.427   0.313
 6210TIP3    H118571   6.720   5.398   0.226
 6210TIP3    H218572   6.822   5.371   0.335
 6211TIP3   OH218573   0.873   6.727   4.421
 6211TIP3    H118574   0.951   6.694   4.377
 6211TIP3    H218575   0.833   6.786   4.357
 6212TIP3   OH218576   6.364   1.827   2.739
 6212TIP3    H118577   6.419   1.760   2.780
 6212TIP3    H218578   6.342   1.887   2.810
 6213TIP3   OH218579   1.981   0.742   5.692
 6213TIP3    H118580   2.025   0.722   5.775
 6213TIP3    H218581   1.932   0.662   5.672
 6214TIP3   OH218582   5.264   4.018   1.929
 6214TIP3    H118583   5.211   3.939   1.917
 6214TIP3    H218584   5.349   3.986   1.959
 6215TIP3   OH218585   1.390   2.502   4.361
 6215TIP3    H118586   1.421   2.526   4.449
 6215TIP3    H218587   1.298   2.480   4.373
 6216TIP3   OH218588   0.303   1.039   6.699
 6216TIP3    H118589   0.269   1.007   6.615
 6216TIP3    H218590   0.234   1.019   6.762
 6217TIP3   OH218591   2.574   7.198   5.371
 6217TIP3    H118592   2.535   7.181   5.457
 6217TIP3    H218593   2.500   7.205   5.311
 6218TIP3   OH218594   6.680   4.858   2.979
 6218TIP3    H118595   6.611   4.796   2.953
 6218TIP3    H218596   6.637   4.914   3.045
 6219TIP3   OH218597   4.681   2.801   4.306
 6219TIP3    H118598   4.611   2.822   4.243
 6219TIP3    H218599   4.760   2.798   4.253
 6220TIP3   OH218600   2.348   5.008   2.856
 6220TIP3    H118601   2.417   5.018   2.921
 6220TIP3    H218602   2.267   5.023   2.904
 6221TIP3   OH218603   0.806   1.571   4.413
 6221TIP3    H118604   0.730   1.600   4.462
 6221TIP3    H218605   0.778   1.573   4.321
 6222TIP3   OH218606   2.329   2.357   6.358
 6222TIP3    H118607   2.338   2.421   6.429
 6222TIP3    H218608   2.248   2.382   6.314
 6223TIP3   OH218609   7.045   7.843   0.179
 6223TIP3    H118610   7.008   7.857   0.266
 6223TIP3    H218611   6.979   7.878   0.119
 6224TIP3   OH218612   3.933   1.288   3.132
 6224TIP3    H118613   3.969   1.228   3.197
 6224TIP3    H218614   4.008   1.312   3.077
 6225TIP3   OH218615   1.530   6.545   2.578
 6225TIP3    H118616   1.607   6.494   2.552
 6225TIP3    H218617   1.493   6.577   2.496
 6226TIP3   OH218618   3.531   4.743   3.870
 6226TIP3    H118619   3.621   4.751   3.839
 6226TIP3    H218620   3.502   4.834   3.881
 6227TIP3   OH218621   5.031   3.840   2.131
 6227TIP3    H118622   5.008   3.905   2.065
 6227TIP3    H218623   5.064   3.765   2.081
 6228TIP3   OH218624   2.064   4.059   2.105
 6228TIP3    H118625   2.067   3.978   2.155
 6228TIP3    H218626   2.001   4.042   2.035
 6229TIP3   OH218627   6.027   4.059   5.004
 6229TIP3    H118628   5.999   4.074   4.913
 6229TIP3    H218629   6.077   3.977   5.000
 6230TIP3   OH218630   0.190   0.259   4.165
 6230TIP3    H118631   0.262   0.322   4.175
 6230TIP3    H218632   0.121   0.309   4.122
 6231TIP3   OH218633   0.350   3.051   5.846
 6231TIP3    H118634   0.410   3.053   5.921
 6231TIP3    H218635   0.327   3.143   5.831
 6232TIP3   OH218636   7.348   3.543   2.555
 6232TIP3    H118637   7.275   3.604   2.546
 6232TIP3    H218638   7.410   3.587   2.613
 6233TIP3   OH218639   8.208   6.870   6.584
 6233TIP3    H118640   8.173   6.827   6.662
 6233TIP3    H218641   8.131   6.896   6.534
 6234TIP3   OH218642   5.874   5.633   5.338
 6234TIP3    H118643   5.795   5.579   5.328
 6234TIP3    H218644   5.907   5.612   5.425
 6235TIP3   OH218645   6.263   6.238   4.010
 6235TIP3    H118646   6.250   6.213   4.102
 6235TIP3    H218647   6.317   6.167   3.974
 6236TIP3   OH218648   6.042   4.289   2.567
 6236TIP3    H118649   6.046   4.381   2.540
 6236TIP3    H218650   6.092   4.285   2.649
 6237TIP3   OH218651   3.061   3.313   0.620
 6237TIP3    H118652   2.980   3.263   0.609
 6237TIP3    H218653   3.039   3.401   0.588
 6238TIP3   OH218654   6.719   0.448   2.288
 6238TIP3    H118655   6.687   0.384   2.352
 6238TIP3    H218656   6.763   0.515   2.341
 6239TIP3   OH218657   5.662   2.655   6.223
 6239TIP3    H118658   5.715   2.641   6.302
 6239TIP3    H218659   5.580   2.691   6.255
 6240TIP3   OH218660   1.185   1.839   1.186
 6240TIP3    H118661   1.177   1.922   1.233
 6240TIP3    H218662   1.274   1.839   1.152
 6241TIP3   OH218663   6.070   1.344   6.455
 6241TIP3    H118664   6.075   1.432   6.493
 6241TIP3    H218665   6.010   1.353   6.381
 6242TIP3   OH218666   3.303   4.494   5.190
 6242TIP3    H118667   3.342   4.574   5.225
 6242TIP3    H218668   3.272   4.447   5.268
 6243TIP3   OH218669   5.463   4.620   6.736
 6243TIP3    H118670   5.507   4.704   6.722
 6243TIP3    H218671   5.433   4.593   6.649
 6244TIP3   OH218672   0.779   4.686   5.651
 6244TIP3    H118673   0.832   4.608   5.636
 6244TIP3    H218674   0.815   4.752   5.591
 6245TIP3   OH218675   4.278   4.203   3.508
 6245TIP3    H118676   4.303   4.273   3.447
 6245TIP3    H218677   4.199   4.166   3.470
 6246TIP3   OH218678   5.561   3.252   0.862
 6246TIP3    H118679   5.559   3.337   0.817
 6246TIP3    H218680   5.565   3.188   0.791
 6247TIP3   OH218681   1.108   2.988   5.746
 6247TIP3    H118682   1.125   3.080   5.768
 6247TIP3    H218683   1.035   2.963   5.802
 6248TIP3   OH218684   4.844   6.626   2.432
 6248TIP3    H118685   4.901   6.560   2.470
 6248TIP3    H218686   4.853   6.614   2.337
 6249TIP3   OH218687   7.860   2.460   2.012
 6249TIP3    H118688   7.878   2.397   2.082
 6249TIP3    H218689   7.946   2.480   1.975
 6250TIP3   OH218690   7.577   2.322   1.244
 6250TIP3    H118691   7.505   2.261   1.259
 6250TIP3    H218692   7.647   2.268   1.209
 6251TIP3   OH218693   5.050   4.754   6.047
 6251TIP3    H118694   4.978   4.696   6.024
 6251TIP3    H218695   5.119   4.735   5.983
 6252TIP3   OH218696   1.862   1.000   0.638
 6252TIP3    H118697   1.883   1.091   0.662
 6252TIP3    H218698   1.799   1.008   0.567
 6253TIP3   OH218699   8.231   7.550   6.603
 6253TIP3    H118700   8.300   7.559   6.668
 6253TIP3    H218701   8.255   7.612   6.534
 6254TIP3   OH218702   7.572   5.348   6.429
 6254TIP3    H118703   7.612   5.393   6.354
 6254TIP3    H218704   7.558   5.417   6.493
 6255TIP3   OH218705   7.661   4.628   5.105
 6255TIP3    H118706   7.574   4.627   5.064
 6255TIP3    H218707   7.667   4.715   5.145
 6256TIP3   OH218708   2.349   5.677   3.281
 6256TIP3    H118709   2.349   5.693   3.187
 6256TIP3    H218710   2.435   5.639   3.299
 6257TIP3   OH218711   3.888   3.561   1.108
 6257TIP3    H118712   3.863   3.599   1.023
 6257TIP3    H218713   3.955   3.496   1.086
 6258TIP3   OH218714   0.550   2.029   3.143
 6258TIP3    H118715   0.498   2.020   3.223
 6258TIP3    H218716   0.485   2.025   3.072
 6259TIP3   OH218717   6.466   4.051   3.410
 6259TIP3    H118718   6.531   4.083   3.472
 6259TIP3    H218719   6.482   4.101   3.330
 6260TIP3   OH218720   2.573   2.919   0.154
 6260TIP3    H118721   2.496   2.931   0.098
 6260TIP3    H218722   2.571   2.826   0.177
 6261TIP3   OH218723   6.026   6.215   2.439
 6261TIP3    H118724   6.104   6.230   2.493
 6261TIP3    H218725   6.045   6.135   2.391
 6262TIP3   OH218726   7.940   4.786   0.536
 6262TIP3    H118727   7.986   4.707   0.509
 6262TIP3    H218728   7.945   4.844   0.460
 6263TIP3   OH218729   4.752   6.556   3.304
 6263TIP3    H118730   4.838   6.516   3.300
 6263TIP3    H218731   4.692   6.486   3.278
 6264TIP3   OH218732   6.918   6.054   3.543
 6264TIP3    H118733   6.927   6.148   3.561
 6264TIP3    H218734   6.984   6.013   3.599
 6265TIP3   OH218735   6.705   6.410   1.745
 6265TIP3    H118736   6.663   6.449   1.669
 6265TIP3    H218737   6.706   6.316   1.727
 6266TIP3   OH218738   0.626   1.312   2.882
 6266TIP3    H118739   0.566   1.289   2.810
 6266TIP3    H218740   0.708   1.336   2.838
 6267TIP3   OH218741   3.541   5.703   5.532
 6267TIP3    H118742   3.502   5.696   5.445
 6267TIP3    H218743   3.546   5.797   5.549
 6268TIP3   OH218744   5.574   2.916   2.661
 6268TIP3    H118745   5.519   2.891   2.735
 6268TIP3    H218746   5.520   2.899   2.584
 6269TIP3   OH218747   6.872   6.736   5.845
 6269TIP3    H118748   6.957   6.697   5.868
 6269TIP3    H218749   6.830   6.671   5.790
 6270TIP3   OH218750   1.366   1.251   0.823
 6270TIP3    H118751   1.460   1.257   0.806
 6270TIP3    H218752   1.331   1.333   0.788
 6271TIP3   OH218753   7.762   6.565   3.150
 6271TIP3    H118754   7.777   6.561   3.244
 6271TIP3    H218755   7.850   6.577   3.113
 6272TIP3   OH218756   4.617   2.051   1.880
 6272TIP3    H118757   4.595   1.974   1.828
 6272TIP3    H218758   4.538   2.105   1.878
 6273TIP3   OH218759   7.931   5.927   4.701
 6273TIP3    H118760   7.879   6.008   4.698
 6273TIP3    H218761   7.909   5.888   4.786
 6274TIP3   OH218762   7.831   1.349   4.755
 6274TIP3    H118763   7.874   1.358   4.670
 6274TIP3    H218764   7.770   1.276   4.743
 6275TIP3   OH218765   0.837   3.148   5.319
 6275TIP3    H118766   0.878   3.213   5.376
 6275TIP3    H218767   0.885   3.155   5.236
 6276TIP3   OH218768   0.506   3.069   0.059
 6276TIP3    H118769   0.537   2.979   0.071
 6276TIP3    H218770   0.560   3.103  -0.013
 6277TIP3   OH218771   5.592   3.925   3.962
 6277TIP3    H118772   5.655   3.902   4.030
 6277TIP3    H218773   5.550   4.004   3.995
 6278TIP3   OH218774   8.084   7.332   1.620
 6278TIP3    H118775   8.161   7.363   1.668
 6278TIP3    H218776   8.119   7.294   1.540
 6279TIP3   OH218777   6.615   0.954   4.264
 6279TIP3    H118778   6.572   0.871   4.285
 6279TIP3    H218779   6.601   1.008   4.342
 6280TIP3   OH218780   3.836   4.431   4.240
 6280TIP3    H118781   3.849   4.524   4.218
 6280TIP3    H218782   3.909   4.386   4.197
 6281TIP3   OH218783   2.218   4.378   1.754
 6281TIP3    H118784   2.220   4.461   1.803
 6281TIP3    H218785   2.216   4.311   1.822
 6282TIP3   OH218786   2.472   3.364   0.153
 6282TIP3    H118787   2.410   3.292   0.144
 6282TIP3    H218788   2.506   3.377   0.065
 6283TIP3   OH218789   2.137   1.440   1.423
 6283TIP3    H118790   2.179   1.393   1.351
 6283TIP3    H218791   2.140   1.532   1.396
 6284TIP3   OH218792   6.764   7.090   2.518
 6284TIP3    H118793   6.852   7.054   2.515
 6284TIP3    H218794   6.730   7.065   2.604
 6285TIP3   OH218795   7.345   5.971   5.119
 6285TIP3    H118796   7.376   5.935   5.036
 6285TIP3    H218797   7.309   5.896   5.166
 6286TIP3   OH218798   0.756   2.753   1.430
 6286TIP3    H118799   0.803   2.820   1.380
 6286TIP3    H218800   0.703   2.707   1.365
 6287TIP3   OH218801   7.030   6.527   1.047
 6287TIP3    H118802   6.950   6.578   1.035
 6287TIP3    H218803   7.050   6.534   1.140
 6288TIP3   OH218804   5.686   4.349   4.101
 6288TIP3    H118805   5.772   4.312   4.122
 6288TIP3    H218806   5.667   4.316   4.013
 6289TIP3   OH218807   3.486   5.664   4.763
 6289TIP3    H118808   3.473   5.597   4.830
 6289TIP3    H218809   3.501   5.744   4.812
 6290TIP3   OH218810   4.733   5.289   0.325
 6290TIP3    H118811   4.742   5.324   0.414
 6290TIP3    H218812   4.673   5.215   0.335
 6291TIP3   OH218813   2.182   6.468   0.732
 6291TIP3    H118814   2.263   6.422   0.713
 6291TIP3    H218815   2.202   6.523   0.808
 6292TIP3   OH218816   5.065   4.783   2.711
 6292TIP3    H118817   5.051   4.726   2.786
 6292TIP3    H218818   5.159   4.796   2.708
 6293TIP3   OH218819   5.666   2.396   3.037
 6293TIP3    H118820   5.657   2.476   2.985
 6293TIP3    H218821   5.589   2.344   3.013
 6294TIP3   OH218822   3.724   6.242   2.949
 6294TIP3    H118823   3.811   6.217   2.978
 6294TIP3    H218824   3.711   6.330   2.984
 6295TIP3   OH218825   6.990   0.196   1.237
 6295TIP3    H118826   7.023   0.279   1.271
 6295TIP3    H218827   6.895   0.205   1.240
 6296TIP3   OH218828   5.810   5.715   1.175
 6296TIP3    H118829   5.742   5.654   1.147
 6296TIP3    H218830   5.884   5.696   1.118
 6297TIP3   OH218831   2.923   0.848   6.323
 6297TIP3    H118832   3.008   0.828   6.284
 6297TIP3    H218833   2.863   0.788   6.280
 6298TIP3   OH218834   5.330   5.140   4.983
 6298TIP3    H118835   5.354   5.048   4.969
 6298TIP3    H218836   5.380   5.166   5.060
 6299TIP3   OH218837   7.093   2.764   1.451
 6299TIP3    H118838   7.094   2.744   1.544
 6299TIP3    H218839   7.173   2.725   1.417
 6300TIP3   OH218840   2.020   2.707   1.034
 6300TIP3    H118841   2.077   2.630   1.027
 6300TIP3    H218842   2.011   2.739   0.945
 6301TIP3   OH218843   3.608   5.425   4.605
 6301TIP3    H118844   3.562   5.508   4.618
 6301TIP3    H218845   3.675   5.424   4.674
 6302TIP3   OH218846   6.526   4.442   3.695
 6302TIP3    H118847   6.604   4.397   3.663
 6302TIP3    H218848   6.537   4.445   3.789
 6303TIP3   OH218849   4.639   5.840   1.426
 6303TIP3    H118850   4.635   5.934   1.447
 6303TIP3    H218851   4.725   5.829   1.384
 6304TIP3   OH218852   6.763   0.990   3.166
 6304TIP3    H118853   6.754   0.965   3.258
 6304TIP3    H218854   6.829   1.060   3.166
 6305TIP3   OH218855   1.971   0.103   6.813
 6305TIP3    H118856   1.886   0.118   6.854
 6305TIP3    H218857   2.034   0.137   6.876
 6306TIP3   OH218858   1.372   6.534   3.559
 6306TIP3    H118859   1.425   6.482   3.620
 6306TIP3    H218860   1.427   6.610   3.538
 6307TIP3   OH218861   0.595   5.177   6.396
 6307TIP3    H118862   0.582   5.235   6.471
 6307TIP3    H218863   0.686   5.194   6.369
 6308TIP3   OH218864   7.847   0.547   4.384
 6308TIP3    H118865   7.833   0.452   4.376
 6308TIP3    H218866   7.788   0.574   4.455
 6309TIP3   OH218867   7.464   2.559   4.679
 6309TIP3    H118868   7.453   2.495   4.609
 6309TIP3    H218869   7.545   2.533   4.723
 6310TIP3   OH218870   0.160   2.526   4.889
 6310TIP3    H118871   0.069   2.558   4.890
 6310TIP3    H218872   0.158   2.446   4.941
 6311TIP3   OH218873   1.498   7.869   6.733
 6311TIP3    H118874   1.404   7.857   6.726
 6311TIP3    H218875   1.515   7.876   6.827
 6312TIP3   OH218876   2.629   7.493   1.146
 6312TIP3    H118877   2.723   7.488   1.167
 6312TIP3    H218878   2.626   7.501   1.051
 6313TIP3   OH218879   2.376   7.891   4.077
 6313TIP3    H118880   2.308   7.825   4.090
 6313TIP3    H218881   2.449   7.843   4.037
 6314TIP3   OH218882   2.828   0.958   5.597
 6314TIP3    H118883   2.758   0.903   5.563
 6314TIP3    H218884   2.908   0.919   5.561
 6315TIP3   OH218885   7.391   4.582   6.047
 6315TIP3    H118886   7.422   4.536   6.126
 6315TIP3    H218887   7.324   4.524   6.010
 6316TIP3   OH218888   7.428   2.545   6.502
 6316TIP3    H118889   7.431   2.558   6.597
 6316TIP3    H218890   7.495   2.479   6.485
 6317TIP3   OH218891   4.699   5.244   0.811
 6317TIP3    H118892   4.775   5.197   0.846
 6317TIP3    H218893   4.677   5.197   0.730
 6318TIP3   OH218894   5.311   0.631   3.581
 6318TIP3    H118895   5.270   0.620   3.666
 6318TIP3    H218896   5.387   0.572   3.583
 6319TIP3   OH218897   5.068   2.099   5.296
 6319TIP3    H118898   5.050   2.193   5.293
 6319TIP3    H218899   5.111   2.085   5.380
 6320TIP3   OH218900   7.940   3.811   4.789
 6320TIP3    H118901   7.916   3.780   4.701
 6320TIP3    H218902   7.856   3.833   4.830
 6321TIP3   OH218903   6.994   2.350   5.449
 6321TIP3    H118904   7.023   2.441   5.442
 6321TIP3    H218905   7.075   2.299   5.451
 6322TIP3   OH218906   0.272   5.647   2.495
 6322TIP3    H118907   0.367   5.654   2.505
 6322TIP3    H218908   0.256   5.660   2.402
 6323TIP3   OH218909   6.813   5.149   2.799
 6323TIP3    H118910   6.782   5.177   2.885
 6323TIP3    H218911   6.772   5.209   2.737
 6324TIP3   OH218912   4.787   1.067   2.382
 6324TIP3    H118913   4.860   1.062   2.444
 6324TIP3    H218914   4.793   1.155   2.345
 6325TIP3   OH218915   7.089   4.417   0.887
 6325TIP3    H118916   7.124   4.376   0.966
 6325TIP3    H218917   7.112   4.356   0.816
 6326TIP3   OH218918   0.273   2.158   1.567
 6326TIP3    H118919   0.358   2.169   1.523
 6326TIP3    H218920   0.270   2.065   1.590
 6327TIP3   OH218921   7.987   1.334   6.161
 6327TIP3    H118922   7.973   1.413   6.213
 6327TIP3    H218923   7.925   1.341   6.088
 6328TIP3   OH218924   6.087   0.145   3.794
 6328TIP3    H118925   6.105   0.057   3.761
 6328TIP3    H218926   6.160   0.198   3.763
 6329TIP3   OH218927   8.363   6.107   3.741
 6329TIP3    H118928   8.318   6.025   3.721
 6329TIP3    H218929   8.454   6.081   3.756
 6330TIP3   OH218930   4.006   4.384   3.243
 6330TIP3    H118931   3.981   4.351   3.330
 6330TIP3    H218932   3.924   4.388   3.194
 6331TIP3   OH218933   4.474   3.527   2.155
 6331TIP3    H118934   4.563   3.562   2.151
 6331TIP3    H218935   4.419   3.603   2.177
 6332TIP3   OH218936   3.695   6.975   3.991
 6332TIP3    H118937   3.737   6.977   4.077
 6332TIP3    H218938   3.742   6.906   3.944
 6333TIP3   OH218939   5.131   1.654   0.334
 6333TIP3    H118940   5.082   1.734   0.353
 6333TIP3    H218941   5.203   1.683   0.279
 6334TIP3   OH218942   1.515   5.048   0.905
 6334TIP3    H118943   1.589   5.083   0.954
 6334TIP3    H218944   1.454   5.017   0.972
 6335TIP3   OH218945   6.397   1.301   2.112
 6335TIP3    H118946   6.413   1.386   2.154
 6335TIP3    H218947   6.303   1.302   2.093
 6336TIP3   OH218948   0.142   0.836   4.611
 6336TIP3    H118949   0.154   0.841   4.516
 6336TIP3    H218950   0.093   0.755   4.624
 6337TIP3   OH218951   6.300   7.209   4.612
 6337TIP3    H118952   6.249   7.181   4.536
 6337TIP3    H218953   6.259   7.165   4.686
 6338TIP3   OH218954   7.245   6.132   3.993
 6338TIP3    H118955   7.236   6.223   3.966
 6338TIP3    H218956   7.338   6.120   4.010
 6339TIP3   OH218957   7.138   2.413   6.546
 6339TIP3    H118958   7.189   2.469   6.489
 6339TIP3    H218959   7.118   2.336   6.494
 6340TIP3   OH218960   3.317   4.949   5.509
 6340TIP3    H118961   3.363   4.930   5.591
 6340TIP3    H218962   3.342   5.039   5.488
 6341TIP3   OH218963   1.628   5.875   5.361
 6341TIP3    H118964   1.636   5.966   5.386
 6341TIP3    H218965   1.672   5.869   5.276
 6342TIP3   OH218966   5.340   5.039   1.490
 6342TIP3    H118967   5.405   4.969   1.495
 6342TIP3    H218968   5.269   5.002   1.437
 6343TIP3   OH218969   7.876   2.507   5.321
 6343TIP3    H118970   7.885   2.529   5.414
 6343TIP3    H218971   7.966   2.508   5.288
 6344TIP3   OH218972   1.079   0.392   0.769
 6344TIP3    H118973   1.059   0.408   0.861
 6344TIP3    H218974   1.019   0.322   0.743
 6345TIP3   OH218975   2.468   3.594   4.269
 6345TIP3    H118976   2.402   3.655   4.302
 6345TIP3    H218977   2.458   3.598   4.174
 6346TIP3   OH218978   5.956   7.507   1.108
 6346TIP3    H118979   6.034   7.511   1.053
 6346TIP3    H218980   5.984   7.545   1.192
 6347TIP3   OH218981   6.578   3.822   2.309
 6347TIP3    H118982   6.652   3.811   2.369
 6347TIP3    H218983   6.528   3.894   2.346
 6348TIP3   OH218984   2.520   0.585   3.523
 6348TIP3    H118985   2.446   0.525   3.524
 6348TIP3    H218986   2.537   0.604   3.615
 6349TIP3   OH218987   0.414   1.444   3.205
 6349TIP3    H118988   0.482   1.402   3.258
 6349TIP3    H218989   0.416   1.536   3.233
 6350TIP3   OH218990   6.535   6.657   6.329
 6350TIP3    H118991   6.440   6.671   6.331
 6350TIP3    H218992   6.565   6.707   6.254
 6351TIP3   OH218993   2.683   7.060   5.062
 6351TIP3    H118994   2.611   7.017   5.016
 6351TIP3    H218995   2.663   7.049   5.155
 6352TIP3   OH218996   2.216   6.684   0.933
 6352TIP3    H118997   2.147   6.745   0.910
 6352TIP3    H218998   2.290   6.740   0.959
 6353TIP3   OH218999   4.400   3.947   5.701
 6353TIP3    H119000   4.386   4.009   5.772
 6353TIP3    H219001   4.486   3.970   5.666
 6354TIP3   OH219002   6.315   2.455   0.439
 6354TIP3    H119003   6.332   2.365   0.467
 6354TIP3    H219004   6.318   2.506   0.521
 6355TIP3   OH219005   0.369   6.097   3.097
 6355TIP3    H119006   0.351   6.118   3.005
 6355TIP3    H219007   0.283   6.086   3.137
 6356TIP3   OH219008   3.663   1.713   4.766
 6356TIP3    H119009   3.615   1.649   4.820
 6356TIP3    H219010   3.659   1.794   4.817
 6357TIP3   OH219011   4.577   4.711   4.901
 6357TIP3    H119012   4.619   4.678   4.980
 6357TIP3    H219013   4.647   4.717   4.836
 6358TIP3   OH219014   7.496   6.024   4.086
 6358TIP3    H119015   7.576   6.020   4.139
 6358TIP3    H219016   7.517   5.974   4.007
 6359TIP3   OH219017   7.481   3.408   6.293
 6359TIP3    H119018   7.512   3.439   6.378
 6359TIP3    H219019   7.537   3.332   6.273
 6360TIP3   OH219020   4.342   6.277   0.000
 6360TIP3    H119021   4.437   6.275  -0.009
 6360TIP3    H219022   4.326   6.326   0.080
 6361TIP3   OH219023   8.010   6.213   1.215
 6361TIP3    H119024   8.053   6.235   1.298
 6361TIP3    H219025   7.917   6.226   1.232
 6362TIP3   OH219026   0.379   5.821   1.721
 6362TIP3    H119027   0.367   5.732   1.689
 6362TIP3    H219028   0.445   5.859   1.663
 6363TIP3   OH219029   0.417   4.844   6.149
 6363TIP3    H119030   0.341   4.793   6.120
 6363TIP3    H219031   0.391   4.880   6.233
 6364TIP3   OH219032   1.812   0.185   4.773
 6364TIP3    H119033   1.851   0.213   4.690
 6364TIP3    H219034   1.751   0.256   4.795
 6365TIP3   OH219035   2.117   2.449   0.981
 6365TIP3    H119036   2.057   2.416   0.914
 6365TIP3    H219037   2.144   2.371   1.029
 6366TIP3   OH219038   2.057   7.929   3.030
 6366TIP3    H119039   2.047   7.850   3.082
 6366TIP3    H219040   1.973   7.974   3.037
 6367TIP3   OH219041   8.134   1.668   6.704
 6367TIP3    H119042   8.204   1.625   6.753
 6367TIP3    H219043   8.173   1.749   6.671
 6368TIP3   OH219044   5.337   0.978   6.035
 6368TIP3    H119045   5.339   0.973   5.940
 6368TIP3    H219046   5.322   0.888   6.064
 6369TIP3   OH219047   4.405   1.399   1.991
 6369TIP3    H119048   4.365   1.485   1.983
 6369TIP3    H219049   4.499   1.416   1.995
 6370TIP3   OH219050   5.704   1.095   1.727
 6370TIP3    H119051   5.778   1.149   1.756
 6370TIP3    H219052   5.635   1.112   1.790
 6371TIP3   OH219053   1.350   6.330   5.715
 6371TIP3    H119054   1.422   6.347   5.776
 6371TIP3    H219055   1.384   6.265   5.654
 6372TIP3   OH219056   5.816   6.366   0.428
 6372TIP3    H119057   5.774   6.450   0.406
 6372TIP3    H219058   5.910   6.386   0.428
 6373TIP3   OH219059   5.340   0.669   3.034
 6373TIP3    H119060   5.405   0.712   3.090
 6373TIP3    H219061   5.345   0.577   3.061
 6374TIP3   OH219062   2.718   6.408   5.154
 6374TIP3    H119063   2.799   6.397   5.203
 6374TIP3    H219064   2.727   6.350   5.079
 6375TIP3   OH219065   0.640   2.142   6.696
 6375TIP3    H119066   0.666   2.051   6.688
 6375TIP3    H219067   0.544   2.140   6.701
 6376TIP3   OH219068   2.588   3.015   3.029
 6376TIP3    H119069   2.512   2.971   3.066
 6376TIP3    H219070   2.657   3.004   3.094
 6377TIP3   OH219071   0.344   0.743   2.863
 6377TIP3    H119072   0.365   0.732   2.957
 6377TIP3    H219073   0.374   0.831   2.842
 6378TIP3   OH219074   7.043   6.216   2.320
 6378TIP3    H119075   7.113   6.158   2.350
 6378TIP3    H219076   6.972   6.201   2.382
 6379TIP3   OH219077   2.975   2.731   5.639
 6379TIP3    H119078   2.956   2.674   5.714
 6379TIP3    H219079   2.893   2.778   5.623
 6380TIP3   OH219080   1.141   2.662   3.690
 6380TIP3    H119081   1.129   2.731   3.755
 6380TIP3    H219082   1.097   2.586   3.726
 6381TIP3   OH219083   7.642   7.943   5.893
 6381TIP3    H119084   7.594   7.914   5.970
 6381TIP3    H219085   7.621   7.878   5.826
 6382TIP3   OH219086   4.779   6.997   4.539
 6382TIP3    H119087   4.685   7.010   4.542
 6382TIP3    H219088   4.809   7.055   4.469
 6383TIP3   OH219089   3.050   1.611   5.394
 6383TIP3    H119090   3.004   1.569   5.466
 6383TIP3    H219091   2.989   1.678   5.363
 6384TIP3   OH219092   2.344   2.805   1.000
 6384TIP3    H119093   2.374   2.863   0.930
 6384TIP3    H219094   2.299   2.863   1.061
 6385TIP3   OH219095   2.970   0.531   5.980
 6385TIP3    H119096   2.944   0.439   5.981
 6385TIP3    H219097   3.065   0.529   5.992
 6386TIP3   OH219098   0.425   1.888   3.872
 6386TIP3    H119099   0.349   1.830   3.875
 6386TIP3    H219100   0.411   1.949   3.944
 6387TIP3   OH219101   6.422   3.872   5.612
 6387TIP3    H119102   6.358   3.814   5.654
 6387TIP3    H219103   6.484   3.894   5.681
 6388TIP3   OH219104   7.329   2.846   0.188
 6388TIP3    H119105   7.254   2.790   0.207
 6388TIP3    H219106   7.293   2.917   0.135
 6389TIP3   OH219107   4.578   6.788   0.280
 6389TIP3    H119108   4.613   6.757   0.364
 6389TIP3    H219109   4.560   6.708   0.231
 6390TIP3   OH219110   7.124   5.289   5.610
 6390TIP3    H119111   7.102   5.360   5.670
 6390TIP3    H219112   7.113   5.209   5.661
 6391TIP3   OH219113   6.558   2.780   1.038
 6391TIP3    H119114   6.578   2.868   1.069
 6391TIP3    H219115   6.607   2.722   1.095
 6392TIP3   OH219116   4.945   2.643   4.181
 6392TIP3    H119117   4.983   2.667   4.266
 6392TIP3    H219118   5.020   2.628   4.124
 6393TIP3   OH219119   0.925   7.103   4.367
 6393TIP3    H119120   0.859   7.147   4.419
 6393TIP3    H219121   0.875   7.057   4.299
 6394TIP3   OH219122   7.654   4.559   2.398
 6394TIP3    H119123   7.634   4.466   2.412
 6394TIP3    H219124   7.622   4.578   2.310
 6395TIP3   OH219125   6.384   2.004   0.770
 6395TIP3    H119126   6.443   1.969   0.837
 6395TIP3    H219127   6.346   1.926   0.729
 6396TIP3   OH219128   1.002   1.572   4.882
 6396TIP3    H119129   1.015   1.554   4.789
 6396TIP3    H219130   1.089   1.570   4.919
 6397TIP3   OH219131   5.420   7.247   6.358
 6397TIP3    H119132   5.440   7.224   6.448
 6397TIP3    H219133   5.426   7.342   6.355
 6398TIP3   OH219134   5.245   3.401   3.297
 6398TIP3    H119135   5.208   3.488   3.315
 6398TIP3    H219136   5.302   3.414   3.222
 6399TIP3   OH219137   1.499   2.106   5.136
 6399TIP3    H119138   1.556   2.171   5.178
 6399TIP3    H219139   1.415   2.115   5.180
 6400TIP3   OH219140   7.026   1.011   2.731
 6400TIP3    H119141   6.951   1.054   2.691
 6400TIP3    H219142   7.049   1.067   2.805
 6401TIP3   OH219143   1.474   7.348   6.259
 6401TIP3    H119144   1.395   7.360   6.207
 6401TIP3    H219145   1.509   7.437   6.269
 6402TIP3   OH219146   4.394   0.901   0.294
 6402TIP3    H119147   4.442   0.973   0.334
 6402TIP3    H219148   4.367   0.846   0.368
 6403TIP3   OH219149   4.825   7.627   6.389
 6403TIP3    H119150   4.847   7.538   6.418
 6403TIP3    H219151   4.908   7.664   6.359
 6404TIP3   OH219152   0.122   4.037   3.197
 6404TIP3    H119153   0.028   4.055   3.201
 6404TIP3    H219154   0.127   3.945   3.170
 6405TIP3   OH219155   3.655   3.456   0.877
 6405TIP3    H119156   3.570   3.451   0.921
 6405TIP3    H219157   3.670   3.550   0.866
 6406TIP3   OH219158   8.384   0.729   4.318
 6406TIP3    H119159   8.429   0.731   4.234
 6406TIP3    H219160   8.325   0.805   4.316
 6407TIP3   OH219161   5.426   7.883   6.054
 6407TIP3    H119162   5.494   7.915   6.114
 6407TIP3    H219163   5.405   7.795   6.086
 6408TIP3   OH219164   3.821   4.786   3.798
 6408TIP3    H119165   3.893   4.842   3.768
 6408TIP3    H219166   3.839   4.700   3.760
 6409TIP3   OH219167   2.167   7.281   4.366
 6409TIP3    H119168   2.138   7.230   4.442
 6409TIP3    H219169   2.261   7.263   4.360
 6410TIP3   OH219170   3.587   6.373   6.610
 6410TIP3    H119171   3.567   6.389   6.702
 6410TIP3    H219172   3.623   6.456   6.579
 6411TIP3   OH219173   7.808   4.176   5.407
 6411TIP3    H119174   7.738   4.240   5.393
 6411TIP3    H219175   7.889   4.226   5.396
 6412TIP3   OH219176   3.283   5.623   3.294
 6412TIP3    H119177   3.341   5.576   3.355
 6412TIP3    H219178   3.249   5.697   3.345
 6413TIP3   OH219179   3.457   4.242   2.521
 6413TIP3    H119180   3.385   4.189   2.488
 6413TIP3    H219181   3.505   4.268   2.442
 6414TIP3   OH219182   0.135   6.847   4.113
 6414TIP3    H119183   0.192   6.890   4.178
 6414TIP3    H219184   0.079   6.917   4.081
 6415TIP3   OH219185   2.745   0.321   6.568
 6415TIP3    H119186   2.731   0.414   6.587
 6415TIP3    H219187   2.753   0.280   6.654
 6416TIP3   OH219188   3.969   0.723   2.228
 6416TIP3    H119189   4.000   0.645   2.274
 6416TIP3    H219190   3.877   0.704   2.209
 6417TIP3   OH219191   7.610   3.076   1.567
 6417TIP3    H119192   7.652   3.072   1.653
 6417TIP3    H219193   7.555   3.154   1.570
 6418TIP3   OH219194   4.125   4.122   0.418
 6418TIP3    H119195   4.042   4.168   0.406
 6418TIP3    H219196   4.103   4.045   0.471
 6419TIP3   OH219197   4.590   5.282   6.792
 6419TIP3    H119198   4.495   5.277   6.784
 6419TIP3    H219199   4.610   5.374   6.771
 6420TIP3   OH219200   7.980   7.836   1.090
 6420TIP3    H119201   7.887   7.817   1.101
 6420TIP3    H219202   7.986   7.932   1.090
 6421TIP3   OH219203   4.199   1.323   3.052
 6421TIP3    H119204   4.293   1.343   3.056
 6421TIP3    H219205   4.194   1.228   3.046
 6422TIP3   OH219206   8.137   3.673   2.950
 6422TIP3    H119207   8.073   3.736   2.984
 6422TIP3    H219208   8.085   3.594   2.933
 6423TIP3   OH219209   0.080   5.172   0.428
 6423TIP3    H119210   0.171   5.144   0.437
 6423TIP3    H219211   0.085   5.260   0.389
 6424TIP3   OH219212   5.371   7.909   6.462
 6424TIP3    H119213   5.409   7.878   6.380
 6424TIP3    H219214   5.425   7.869   6.531
 6425TIP3   OH219215   4.084   3.281   1.766
 6425TIP3    H119216   4.028   3.298   1.690
 6425TIP3    H219217   4.026   3.243   1.831
 6426TIP3   OH219218   8.075   0.451   6.160
 6426TIP3    H119219   8.072   0.356   6.169
 6426TIP3    H219220   8.126   0.466   6.080
 6427TIP3   OH219221   6.320   4.457   4.379
 6427TIP3    H119222   6.390   4.394   4.393
 6427TIP3    H219223   6.277   4.428   4.298
 6428TIP3   OH219224   0.570   7.134   5.548
 6428TIP3    H119225   0.656   7.150   5.509
 6428TIP3    H219226   0.574   7.179   5.633
 6429TIP3   OH219227   0.901   4.210   0.729
 6429TIP3    H119228   0.927   4.182   0.642
 6429TIP3    H219229   0.955   4.159   0.789
 6430TIP3   OH219230   0.888   2.463   0.746
 6430TIP3    H119231   0.885   2.383   0.693
 6430TIP3    H219232   0.797   2.478   0.773
 6431TIP3   OH219233   0.117   4.538   3.791
 6431TIP3    H119234   0.029   4.573   3.803
 6431TIP3    H219235   0.169   4.579   3.860
 6432TIP3   OH219236   2.707   6.399   6.331
 6432TIP3    H119237   2.767   6.327   6.311
 6432TIP3    H219238   2.623   6.371   6.294
 6433TIP3   OH219239   3.317   7.293   2.652
 6433TIP3    H119240   3.316   7.389   2.653
 6433TIP3    H219241   3.381   7.269   2.719
 6434TIP3   OH219242   2.318   6.241   4.124
 6434TIP3    H119243   2.257   6.307   4.155
 6434TIP3    H219244   2.265   6.162   4.114
 6435TIP3   OH219245   0.388   2.339   3.871
 6435TIP3    H119246   0.423   2.410   3.925
 6435TIP3    H219247   0.321   2.298   3.926
 6436TIP3   OH219248   4.158   7.775   4.946
 6436TIP3    H119249   4.119   7.737   4.867
 6436TIP3    H219250   4.247   7.799   4.919
 6437TIP3   OH219251   4.358   5.749   5.683
 6437TIP3    H119252   4.317   5.685   5.625
 6437TIP3    H219253   4.452   5.744   5.662
 6438TIP3   OH219254   6.241   1.153   4.354
 6438TIP3    H119255   6.263   1.237   4.314
 6438TIP3    H219256   6.271   1.088   4.290
 6439TIP3   OH219257   4.344   4.297   0.855
 6439TIP3    H119258   4.314   4.210   0.881
 6439TIP3    H219259   4.430   4.282   0.815
 6440TIP3   OH219260   3.940   7.701   5.699
 6440TIP3    H119261   3.850   7.717   5.728
 6440TIP3    H219262   3.986   7.672   5.779
 6441TIP3   OH219263   6.860   2.751   2.600
 6441TIP3    H119264   6.895   2.662   2.600
 6441TIP3    H219265   6.770   2.740   2.631
 6442TIP3   OH219266   5.305   1.407   3.437
 6442TIP3    H119267   5.314   1.312   3.422
 6442TIP3    H219268   5.394   1.441   3.427
 6443TIP3   OH219269   5.262   4.878   0.064
 6443TIP3    H119270   5.320   4.935   0.013
 6443TIP3    H219271   5.181   4.928   0.074
 6444TIP3   OH219272   3.575   3.754   1.550
 6444TIP3    H119273   3.656   3.803   1.532
 6444TIP3    H219274   3.541   3.733   1.463
 6445TIP3   OH219275   7.678   1.745   2.035
 6445TIP3    H119276   7.704   1.824   2.083
 6445TIP3    H219277   7.595   1.768   1.994
 6446TIP3   OH219278   2.886   6.084   3.942
 6446TIP3    H119279   2.945   6.103   4.015
 6446TIP3    H219280   2.940   6.093   3.864
 6447TIP3   OH219281   5.897   4.128   2.876
 6447TIP3    H119282   5.983   4.165   2.856
 6447TIP3    H219283   5.915   4.040   2.908
 6448TIP3   OH219284   2.826   1.625   1.118
 6448TIP3    H119285   2.759   1.567   1.081
 6448TIP3    H219286   2.907   1.600   1.073
 6449TIP3   OH219287   3.577   1.691   1.072
 6449TIP3    H119288   3.528   1.771   1.088
 6449TIP3    H219289   3.610   1.665   1.158
 6450TIP3   OH219290   7.484   3.135   2.390
 6450TIP3    H119291   7.450   3.193   2.458
 6450TIP3    H219292   7.406   3.101   2.346
 6451TIP3   OH219293   1.923   3.797   0.309
 6451TIP3    H119294   1.977   3.720   0.326
 6451TIP3    H219295   1.986   3.869   0.301
 6452TIP3   OH219296   3.461   0.955   3.153
 6452TIP3    H119297   3.542   0.981   3.197
 6452TIP3    H219298   3.441   1.027   3.094
 6453TIP3   OH219299   6.392   2.321   5.373
 6453TIP3    H119300   6.421   2.282   5.290
 6453TIP3    H219301   6.322   2.264   5.403
 6454TIP3   OH219302   1.315   1.039   2.088
 6454TIP3    H119303   1.394   1.060   2.138
 6454TIP3    H219304   1.262   0.986   2.147
 6455TIP3   OH219305   1.344   2.888   0.035
 6455TIP3    H119306   1.321   2.966  -0.016
 6455TIP3    H219307   1.342   2.917   0.126
 6456TIP3   OH219308   7.880   1.317   2.383
 6456TIP3    H119309   7.795   1.341   2.346
 6456TIP3    H219310   7.931   1.398   2.381
 6457TIP3   OH219311   3.182   2.701   4.045
 6457TIP3    H119312   3.277   2.691   4.042
 6457TIP3    H219313   3.148   2.612   4.044
 6458TIP3   OH219314   4.905   4.803   1.965
 6458TIP3    H119315   4.927   4.895   1.978
 6458TIP3    H219316   4.977   4.755   2.006
 6459TIP3   OH219317   3.084   3.777   3.597
 6459TIP3    H119318   3.111   3.868   3.586
 6459TIP3    H219319   2.995   3.773   3.560
 6460TIP3   OH219320   5.451   2.869   2.936
 6460TIP3    H119321   5.390   2.937   2.963
 6460TIP3    H219322   5.416   2.788   2.974
 6461TIP3   OH219323   5.548   1.611   1.925
 6461TIP3    H119324   5.630   1.613   1.874
 6461TIP3    H219325   5.550   1.525   1.968
 6462TIP3   OH219326   3.352   5.795   5.078
 6462TIP3    H119327   3.415   5.829   5.015
 6462TIP3    H219328   3.272   5.845   5.063
 6463TIP3   OH219329   1.719   4.397   6.159
 6463TIP3    H119330   1.734   4.476   6.108
 6463TIP3    H219331   1.806   4.359   6.172
 6464TIP3   OH219332   8.394   5.802   6.146
 6464TIP3    H119333   8.353   5.736   6.089
 6464TIP3    H219334   8.381   5.768   6.234
 6465TIP3   OH219335   3.772   3.314   1.337
 6465TIP3    H119336   3.766   3.409   1.330
 6465TIP3    H219337   3.820   3.287   1.259
 6466TIP3   OH219338   0.112   0.352   5.674
 6466TIP3    H119339   0.152   0.421   5.620
 6466TIP3    H219340   0.019   0.356   5.652
 6467TIP3   OH219341   7.525   4.986   5.845
 6467TIP3    H119342   7.489   4.965   5.932
 6467TIP3    H219343   7.590   4.918   5.829
 6468TIP3   OH219344   3.371   7.749   4.407
 6468TIP3    H119345   3.448   7.798   4.380
 6468TIP3    H219346   3.322   7.809   4.463
 6469TIP3   OH219347   7.604   4.746   2.579
 6469TIP3    H119348   7.529   4.701   2.617
 6469TIP3    H219349   7.642   4.682   2.519
 6470TIP3   OH219350   8.158   2.595   5.292
 6470TIP3    H119351   8.183   2.592   5.385
 6470TIP3    H219352   8.137   2.688   5.277
 6471TIP3   OH219353   8.219   5.792   3.081
 6471TIP3    H119354   8.304   5.833   3.095
 6471TIP3    H219355   8.232   5.736   3.004
 6472TIP3   OH219356   1.859   5.429   5.891
 6472TIP3    H119357   1.861   5.398   5.800
 6472TIP3    H219358   1.850   5.524   5.884
 6473TIP3   OH219359   5.148   3.230   5.854
 6473TIP3    H119360   5.150   3.200   5.945
 6473TIP3    H219361   5.121   3.153   5.804
 6474TIP3   OH219362   6.938   1.836   1.117
 6474TIP3    H119363   6.851   1.867   1.143
 6474TIP3    H219364   6.927   1.807   1.027
 6475TIP3   OH219365   4.295   6.693   5.540
 6475TIP3    H119366   4.304   6.636   5.463
 6475TIP3    H219367   4.228   6.757   5.515
 6476TIP3   OH219368   4.880   2.936   5.446
 6476TIP3    H119369   4.907   2.972   5.531
 6476TIP3    H219370   4.825   2.860   5.469
 6477TIP3   OH219371   2.876   6.577   1.814
 6477TIP3    H119372   2.919   6.523   1.881
 6477TIP3    H219373   2.793   6.532   1.797
 6478TIP3   OH219374   6.592   2.735   4.962
 6478TIP3    H119375   6.541   2.764   5.038
 6478TIP3    H219376   6.637   2.813   4.932
 6479TIP3   OH219377   5.242   7.206   1.617
 6479TIP3    H119378   5.224   7.161   1.534
 6479TIP3    H219379   5.258   7.135   1.679
 6480TIP3   OH219380   3.586   3.111   1.442
 6480TIP3    H119381   3.593   3.194   1.394
 6480TIP3    H219382   3.503   3.074   1.413
 6481TIP3   OH219383   2.167   3.454   2.660
 6481TIP3    H119384   2.115   3.398   2.602
 6481TIP3    H219385   2.143   3.543   2.636
 6482TIP3   OH219386   5.818   4.725   4.273
 6482TIP3    H119387   5.912   4.733   4.258
 6482TIP3    H219388   5.798   4.634   4.254
 6483TIP3   OH219389   5.220   3.021   4.919
 6483TIP3    H119390   5.166   2.947   4.888
 6483TIP3    H219391   5.273   2.984   4.989
 6484TIP3   OH219392   2.268   6.032   4.344
 6484TIP3    H119393   2.262   6.046   4.249
 6484TIP3    H219394   2.342   5.972   4.355
 6485TIP3   OH219395   2.960   0.287   5.848
 6485TIP3    H119396   3.055   0.289   5.841
 6485TIP3    H219397   2.933   0.222   5.783
 6486TIP3   OH219398   4.416   4.826   6.484
 6486TIP3    H119399   4.399   4.915   6.514
 6486TIP3    H219400   4.511   4.825   6.469
 6487TIP3   OH219401   1.701   4.501   0.607
 6487TIP3    H119402   1.756   4.456   0.672
 6487TIP3    H219403   1.734   4.471   0.522
 6488TIP3   OH219404   7.750   2.093   1.559
 6488TIP3    H119405   7.787   2.173   1.596
 6488TIP3    H219406   7.787   2.022   1.611
 6489TIP3   OH219407   7.246   2.989   2.342
 6489TIP3    H119408   7.158   2.951   2.338
 6489TIP3    H219409   7.304   2.919   2.309
 6490TIP3   OH219410   0.728   7.600   4.113
 6490TIP3    H119411   0.789   7.558   4.175
 6490TIP3    H219412   0.738   7.693   4.130
 6491TIP3   OH219413   2.449   6.890   0.516
 6491TIP3    H119414   2.369   6.940   0.532
 6491TIP3    H219415   2.468   6.903   0.424
 6492TIP3   OH219416   5.462   1.664   5.871
 6492TIP3    H119417   5.492   1.723   5.940
 6492TIP3    H219418   5.450   1.580   5.916
 6493TIP3   OH219419   0.360   5.310   2.779
 6493TIP3    H119420   0.269   5.298   2.751
 6493TIP3    H219421   0.360   5.395   2.823
 6494TIP3   OH219422   1.446   3.390   4.741
 6494TIP3    H119423   1.378   3.341   4.695
 6494TIP3    H219424   1.404   3.417   4.823
 6495TIP3   OH219425   2.320   2.836   0.549
 6495TIP3    H119426   2.320   2.768   0.616
 6495TIP3    H219427   2.228   2.857   0.535
 6496TIP3   OH219428   5.999   1.740   4.564
 6496TIP3    H119429   5.999   1.834   4.545
 6496TIP3    H219430   5.908   1.719   4.583
 6497TIP3   OH219431   5.983   5.692   0.299
 6497TIP3    H119432   6.056   5.629   0.299
 6497TIP3    H219433   6.001   5.749   0.224
 6498TIP3   OH219434   5.472   5.712   4.749
 6498TIP3    H119435   5.442   5.684   4.835
 6498TIP3    H219436   5.465   5.807   4.751
 6499TIP3   OH219437   7.177   6.011   6.425
 6499TIP3    H119438   7.142   6.080   6.480
 6499TIP3    H219439   7.223   5.953   6.485
 6500TIP3   OH219440   8.067   6.560   0.876
 6500TIP3    H119441   8.051   6.654   0.870
 6500TIP3    H219442   8.080   6.544   0.970
 6501TIP3   OH219443   8.127   6.296   1.477
 6501TIP3    H119444   8.157   6.378   1.516
 6501TIP3    H219445   8.063   6.262   1.540
 6502TIP3   OH219446   5.963   2.730   4.924
 6502TIP3    H119447   6.041   2.739   4.870
 6502TIP3    H219448   5.973   2.796   4.992
 6503TIP3   OH219449   0.775   5.733   2.357
 6503TIP3    H119450   0.843   5.737   2.425
 6503TIP3    H219451   0.747   5.824   2.346
 6504TIP3   OH219452   5.228   5.853   3.808
 6504TIP3    H119453   5.307   5.809   3.777
 6504TIP3    H219454   5.171   5.857   3.731
 6505TIP3   OH219455   7.858   7.619   4.233
 6505TIP3    H119456   7.948   7.644   4.254
 6505TIP3    H219457   7.846   7.535   4.276
 6506TIP3   OH219458   6.022   7.126   0.585
 6506TIP3    H119459   6.008   7.136   0.491
 6506TIP3    H219460   6.092   7.188   0.606
 6507TIP3   OH219461   1.651   4.406   3.222
 6507TIP3    H119462   1.587   4.335   3.230
 6507TIP3    H219463   1.713   4.375   3.156
 6508TIP3   OH219464   3.669   0.670   0.000
 6508TIP3    H119465   3.709   0.676   0.087
 6508TIP3    H219466   3.743   0.667  -0.060
 6509TIP3   OH219467   7.777   0.782   6.645
 6509TIP3    H119468   7.812   0.870   6.651
 6509TIP3    H219469   7.686   0.794   6.616
 6510TIP3   OH219470   6.212   6.514   5.028
 6510TIP3    H119471   6.126   6.499   4.990
 6510TIP3    H219472   6.228   6.608   5.019
 6511TIP3   OH219473   5.277   0.279   1.466
 6511TIP3    H119474   5.363   0.313   1.491
 6511TIP3    H219475   5.289   0.248   1.376
 6512TIP3   OH219476   0.268   2.262   5.191
 6512TIP3    H119477   0.225   2.211   5.123
 6512TIP3    H219478   0.347   2.211   5.212
 6513TIP3   OH219479   2.187   2.858   4.796
 6513TIP3    H119480   2.155   2.907   4.720
 6513TIP3    H219481   2.282   2.869   4.793
 6514TIP3   OH219482   6.156   1.209   1.516
 6514TIP3    H119483   6.121   1.272   1.579
 6514TIP3    H219484   6.204   1.146   1.570
 6515TIP3   OH219485   6.713   2.334   5.428
 6515TIP3    H119486   6.699   2.310   5.336
 6515TIP3    H219487   6.806   2.354   5.434
 6516TIP3   OH219488   5.888   2.464   1.862
 6516TIP3    H119489   5.909   2.557   1.869
 6516TIP3    H219490   5.807   2.454   1.913
 6517TIP3   OH219491   3.777   7.131   0.175
 6517TIP3    H119492   3.858   7.080   0.167
 6517TIP3    H219493   3.746   7.143   0.086
 6518TIP3   OH219494   7.163   2.245   1.966
 6518TIP3    H119495   7.155   2.180   1.897
 6518TIP3    H219496   7.257   2.252   1.982
 6519TIP3   OH219497   0.673   4.188   2.444
 6519TIP3    H119498   0.733   4.222   2.379
 6519TIP3    H219499   0.701   4.097   2.458
 6520TIP3   OH219500   5.050   0.251   1.149
 6520TIP3    H119501   5.083   0.174   1.103
 6520TIP3    H219502   5.047   0.319   1.081
 6521TIP3   OH219503   1.133   7.738   4.127
 6521TIP3    H119504   1.096   7.752   4.039
 6521TIP3    H219505   1.122   7.645   4.143
 6522TIP3   OH219506   5.128   6.095   5.209
 6522TIP3    H119507   5.222   6.092   5.189
 6522TIP3    H219508   5.125   6.107   5.304
 6523TIP3   OH219509   0.982   5.933   2.342
 6523TIP3    H119510   0.975   5.897   2.254
 6523TIP3    H219511   1.030   6.015   2.331
 6524TIP3   OH219512   7.587   7.388   2.463
 6524TIP3    H119513   7.657   7.361   2.403
 6524TIP3    H219514   7.511   7.337   2.437
 6525TIP3   OH219515   6.285   7.492   1.407
 6525TIP3    H119516   6.314   7.404   1.429
 6525TIP3    H219517   6.190   7.490   1.421
 6526TIP3   OH219518   3.443   3.401   2.368
 6526TIP3    H119519   3.423   3.472   2.430
 6526TIP3    H219520   3.481   3.445   2.292
 6527TIP3   OH219521   6.248   2.190   1.018
 6527TIP3    H119522   6.324   2.248   1.012
 6527TIP3    H219523   6.198   2.208   0.938
 6528TIP3   OH219524   7.705   6.904   0.509
 6528TIP3    H119525   7.664   6.926   0.425
 6528TIP3    H219526   7.731   6.813   0.499
 6529TIP3   OH219527   4.686   4.450   2.784
 6529TIP3    H119528   4.619   4.454   2.716
 6529TIP3    H219529   4.678   4.533   2.831
 6530TIP3   OH219530   2.688   0.301   3.751
 6530TIP3    H119531   2.705   0.393   3.728
 6530TIP3    H219532   2.749   0.251   3.696
 6531TIP3   OH219533   1.594   0.106   3.545
 6531TIP3    H119534   1.676   0.150   3.565
 6531TIP3    H219535   1.600   0.022   3.590
 6532TIP3   OH219536   7.934   4.797   0.058
 6532TIP3    H119537   7.910   4.760   0.143
 6532TIP3    H219538   8.029   4.781   0.051
 6533TIP3   OH219539   4.480   6.889   2.891
 6533TIP3    H119540   4.502   6.868   2.982
 6533TIP3    H219541   4.494   6.983   2.884
 6534TIP3   OH219542   5.363   1.303   5.192
 6534TIP3    H119543   5.376   1.331   5.101
 6534TIP3    H219544   5.271   1.322   5.211
 6535TIP3   OH219545   6.636   3.665   6.562
 6535TIP3    H119546   6.720   3.629   6.534
 6535TIP3    H219547   6.635   3.755   6.528
 6536TIP3   OH219548   0.244   6.710   2.081
 6536TIP3    H119549   0.315   6.731   2.020
 6536TIP3    H219550   0.212   6.625   2.051
 6537TIP3   OH219551   0.829   6.244   5.896
 6537TIP3    H119552   0.873   6.248   5.981
 6537TIP3    H219553   0.833   6.334   5.863
 6538TIP3   OH219554   5.271   7.378   5.585
 6538TIP3    H119555   5.315   7.299   5.551
 6538TIP3    H219556   5.343   7.433   5.617
 6539TIP3   OH219557   7.649   4.441   5.955
 6539TIP3    H119558   7.706   4.502   6.001
 6539TIP3    H219559   7.598   4.495   5.895
 6540TIP3   OH219560   5.893   2.924   3.737
 6540TIP3    H119561   5.886   2.966   3.651
 6540TIP3    H219562   5.878   2.831   3.720
 6541TIP3   OH219563   6.931   6.163   1.541
 6541TIP3    H119564   6.845   6.182   1.579
 6541TIP3    H219565   6.993   6.188   1.610
 6542TIP3   OH219566   5.009   5.935   3.001
 6542TIP3    H119567   4.994   5.842   3.017
 6542TIP3    H219568   5.040   5.939   2.910
 6543TIP3   OH219569   3.577   0.331   1.386
 6543TIP3    H119570   3.494   0.338   1.340
 6543TIP3    H219571   3.553   0.333   1.479
 6544TIP3   OH219572   5.804   3.951   4.752
 6544TIP3    H119573   5.724   3.911   4.717
 6544TIP3    H219574   5.778   4.040   4.777
 6545TIP3   OH219575   4.336   0.490   6.822
 6545TIP3    H119576   4.378   0.406   6.838
 6545TIP3    H219577   4.337   0.499   6.727
 6546TIP3   OH219578   1.891   4.828   4.163
 6546TIP3    H119579   1.877   4.898   4.100
 6546TIP3    H219580   1.986   4.828   4.177
 6547TIP3   OH219581   5.243   4.641   5.874
 6547TIP3    H119582   5.290   4.588   5.939
 6547TIP3    H219583   5.252   4.592   5.792
 6548TIP3   OH219584   2.114   7.596   2.944
 6548TIP3    H119585   2.158   7.515   2.969
 6548TIP3    H219586   2.085   7.635   3.027
 6549TIP3   OH219587   4.786   2.418   2.591
 6549TIP3    H119588   4.708   2.410   2.536
 6549TIP3    H219589   4.853   2.366   2.547
 6550TIP3   OH219590   5.998   5.664   4.300
 6550TIP3    H119591   5.923   5.613   4.270
 6550TIP3    H219592   5.965   5.715   4.374
 6551TIP3   OH219593   2.847   5.370   1.231
 6551TIP3    H119594   2.838   5.463   1.251
 6551TIP3    H219595   2.760   5.343   1.202
 6552TIP3   OH219596   2.586   6.711   2.902
 6552TIP3    H119597   2.615   6.704   2.992
 6552TIP3    H219598   2.666   6.703   2.850
 6553TIP3   OH219599   3.308   1.153   6.567
 6553TIP3    H119600   3.376   1.167   6.501
 6553TIP3    H219601   3.245   1.223   6.552
 6554TIP3   OH219602   8.273   3.179   5.898
 6554TIP3    H119603   8.185   3.198   5.931
 6554TIP3    H219604   8.331   3.210   5.968
 6555TIP3   OH219605   5.824   5.165   4.432
 6555TIP3    H119606   5.762   5.208   4.490
 6555TIP3    H219607   5.891   5.231   4.415
 6556TIP3   OH219608   0.034   7.423   3.152
 6556TIP3    H119609  -0.030   7.494   3.145
 6556TIP3    H219610   0.055   7.400   3.061
 6557TIP3   OH219611   4.720   5.544   4.460
 6557TIP3    H119612   4.664   5.500   4.524
 6557TIP3    H219613   4.803   5.559   4.506
 6558TIP3   OH219614   8.226   0.713   1.747
 6558TIP3    H119615   8.174   0.788   1.775
 6558TIP3    H219616   8.317   0.742   1.758
 6559TIP3   OH219617   2.297   1.139   1.378
 6559TIP3    H119618   2.365   1.193   1.417
 6559TIP3    H219619   2.255   1.096   1.453
 6560TIP3   OH219620   6.250   6.159   3.087
 6560TIP3    H119621   6.343   6.165   3.111
 6560TIP3    H219622   6.247   6.191   2.997
 6561TIP3   OH219623   6.664   2.095   6.700
 6561TIP3    H119624   6.649   2.158   6.629
 6561TIP3    H219625   6.697   2.017   6.656
 6562TIP3   OH219626   5.316   6.014   6.580
 6562TIP3    H119627   5.263   5.952   6.531
 6562TIP3    H219628   5.354   6.071   6.514
 6563TIP3   OH219629   3.227   4.790   0.866
 6563TIP3    H119630   3.269   4.803   0.951
 6563TIP3    H219631   3.208   4.696   0.863
 6564TIP3   OH219632   1.753   7.402   3.479
 6564TIP3    H119633   1.839   7.429   3.512
 6564TIP3    H219634   1.745   7.447   3.395
 6565TIP3   OH219635   2.696   4.459   0.115
 6565TIP3    H119636   2.671   4.367   0.111
 6565TIP3    H219637   2.777   4.464   0.065
 6566TIP3   OH219638   7.536   5.136   3.385
 6566TIP3    H119639   7.513   5.168   3.298
 6566TIP3    H219640   7.562   5.045   3.371
 6567TIP3   OH219641   0.399   2.022   4.134
 6567TIP3    H119642   0.376   2.114   4.120
 6567TIP3    H219643   0.394   2.010   4.229
 6568TIP3   OH219644   2.645   0.727   0.695
 6568TIP3    H119645   2.715   0.662   0.702
 6568TIP3    H219646   2.589   0.710   0.770
 6569TIP3   OH219647   6.962   7.380   5.101
 6569TIP3    H119648   6.952   7.336   5.016
 6569TIP3    H219649   6.875   7.375   5.140
 6570TIP3   OH219650   0.949   0.509   3.158
 6570TIP3    H119651   0.910   0.436   3.109
 6570TIP3    H219652   1.002   0.467   3.226
 6571TIP3   OH219653   8.245   7.451   6.180
 6571TIP3    H119654   8.183   7.430   6.110
 6571TIP3    H219655   8.274   7.365   6.212
 6572TIP3   OH219656   6.760   2.052   1.863
 6572TIP3    H119657   6.720   1.965   1.863
 6572TIP3    H219658   6.818   2.051   1.939
 6573TIP3   OH219659   1.567   4.590   3.464
 6573TIP3    H119660   1.650   4.542   3.467
 6573TIP3    H219661   1.592   4.681   3.450
 6574TIP3   OH219662   3.451   2.512   1.262
 6574TIP3    H119663   3.470   2.589   1.208
 6574TIP3    H219664   3.357   2.520   1.282
 6575TIP3   OH219665   4.783   1.667   1.656
 6575TIP3    H119666   4.832   1.625   1.584
 6575TIP3    H219667   4.838   1.654   1.733
 6576TIP3   OH219668   4.563   3.416   4.018
 6576TIP3    H119669   4.542   3.502   4.054
 6576TIP3    H219670   4.484   3.364   4.031
 6577TIP3   OH219671   0.484   7.701   0.674
 6577TIP3    H119672   0.510   7.739   0.590
 6577TIP3    H219673   0.461   7.610   0.653
 6578TIP3   OH219674   5.172   3.851   3.600
 6578TIP3    H119675   5.254   3.813   3.630
 6578TIP3    H219676   5.125   3.874   3.680
 6579TIP3   OH219677   4.816   6.358   1.312
 6579TIP3    H119678   4.849   6.393   1.230
 6579TIP3    H219679   4.821   6.432   1.373
 6580TIP3   OH219680   3.356   0.193   3.186
 6580TIP3    H119681   3.263   0.192   3.162
 6580TIP3    H219682   3.356   0.182   3.281
 6581TIP3   OH219683   4.027   0.730   1.650
 6581TIP3    H119684   3.957   0.761   1.593
 6581TIP3    H219685   4.017   0.781   1.730
 6582TIP3   OH219686   1.729   7.612   5.965
 6582TIP3    H119687   1.651   7.610   5.910
 6582TIP3    H219688   1.708   7.674   6.034
 6583TIP3   OH219689   0.554   7.065   4.953
 6583TIP3    H119690   0.557   7.025   4.866
 6583TIP3    H219691   0.624   7.022   5.002
 6584TIP3   OH219692   6.121   3.309   3.166
 6584TIP3    H119693   6.114   3.214   3.165
 6584TIP3    H219694   6.177   3.328   3.242
 6585TIP3   OH219695   4.047   5.616   5.789
 6585TIP3    H119696   3.992   5.690   5.814
 6585TIP3    H219697   4.122   5.620   5.848
 6586TIP3   OH219698   7.080   7.645   3.871
 6586TIP3    H119699   7.121   7.587   3.935
 6586TIP3    H219700   6.989   7.652   3.899
 6587TIP3   OH219701   6.161   1.969   4.450
 6587TIP3    H119702   6.157   1.998   4.359
 6587TIP3    H219703   6.141   2.047   4.501
 6588TIP3   OH219704   1.453   1.740   3.088
 6588TIP3    H119705   1.399   1.806   3.131
 6588TIP3    H219706   1.540   1.751   3.128
 6589TIP3   OH219707   3.804   1.477   2.918
 6589TIP3    H119708   3.893   1.498   2.888
 6589TIP3    H219709   3.802   1.504   3.009
 6590TIP3   OH219710   5.803   5.796   0.504
 6590TIP3    H119711   5.727   5.738   0.495
 6590TIP3    H219712   5.876   5.742   0.474
 6591TIP3   OH219713   6.109   5.198   2.238
 6591TIP3    H119714   6.126   5.139   2.164
 6591TIP3    H219715   6.018   5.181   2.262
 6592TIP3   OH219716   8.232   3.451   4.171
 6592TIP3    H119717   8.186   3.394   4.233
 6592TIP3    H219718   8.257   3.393   4.099
 6593TIP3   OH219719   5.596   4.995   3.394
 6593TIP3    H119720   5.665   4.980   3.329
 6593TIP3    H219721   5.550   5.072   3.362
 6594TIP3   OH219722   7.360   0.970   4.525
 6594TIP3    H119723   7.427   0.971   4.457
 6594TIP3    H219724   7.278   0.955   4.478
 6595TIP3   OH219725   6.946   1.977   6.814
 6595TIP3    H119726   6.947   2.068   6.786
 6595TIP3    H219727   6.989   1.978   6.900
 6596TIP3   OH219728   1.359   5.414   1.344
 6596TIP3    H119729   1.276   5.440   1.304
 6596TIP3    H219730   1.342   5.328   1.382
 6597TIP3   OH219731   4.973   2.172   3.541
 6597TIP3    H119732   4.958   2.188   3.634
 6597TIP3    H219733   4.952   2.079   3.529
 6598TIP3   OH219734   5.772   4.982   1.642
 6598TIP3    H119735   5.677   4.984   1.657
 6598TIP3    H219736   5.808   5.039   1.710
 6599TIP3   OH219737   4.246   6.355   3.887
 6599TIP3    H119738   4.168   6.392   3.927
 6599TIP3    H219739   4.318   6.384   3.943
 6600TIP3   OH219740   3.928   6.694   4.600
 6600TIP3    H119741   3.887   6.619   4.557
 6600TIP3    H219742   3.872   6.712   4.676
 6601TIP3   OH219743   4.612   4.711   0.600
 6601TIP3    H119744   4.637   4.718   0.692
 6601TIP3    H219745   4.541   4.647   0.599
 6602TIP3   OH219746   1.479   3.270   2.873
 6602TIP3    H119747   1.530   3.313   2.805
 6602TIP3    H219748   1.537   3.266   2.949
 6603TIP3   OH219749   6.372   7.799   4.394
 6603TIP3    H119750   6.316   7.784   4.469
 6603TIP3    H219751   6.450   7.843   4.430
 6604TIP3   OH219752   5.636   3.568   0.986
 6604TIP3    H119753   5.596   3.600   1.067
 6604TIP3    H219754   5.648   3.647   0.933
 6605TIP3   OH219755   3.017   2.896   1.434
 6605TIP3    H119756   3.082   2.834   1.399
 6605TIP3    H219757   2.939   2.843   1.450
 6606TIP3   OH219758   5.535   7.673   0.251
 6606TIP3    H119759   5.624   7.637   0.257
 6606TIP3    H219760   5.546   7.760   0.214
 6607TIP3   OH219761   4.882   5.181   4.361
 6607TIP3    H119762   4.952   5.244   4.345
 6607TIP3    H219763   4.888   5.119   4.289
 6608TIP3   OH219764   3.924   2.843   6.742
 6608TIP3    H119765   3.968   2.772   6.790
 6608TIP3    H219766   3.905   2.805   6.656
 6609TIP3   OH219767   1.550   6.007   2.364
 6609TIP3    H119768   1.634   5.961   2.356
 6609TIP3    H219769   1.574   6.096   2.391
 6610TIP3   OH219770   1.347   0.102   6.230
 6610TIP3    H119771   1.325   0.014   6.198
 6610TIP3    H219772   1.275   0.125   6.288
 6611TIP3   OH219773   2.631   6.697   3.861
 6611TIP3    H119774   2.567   6.694   3.932
 6611TIP3    H219775   2.580   6.720   3.783
 6612TIP3   OH219776   3.614   6.881   1.835
 6612TIP3    H119777   3.541   6.837   1.792
 6612TIP3    H219778   3.658   6.813   1.886
 6613TIP3   OH219779   7.238   1.893   5.459
 6613TIP3    H119780   7.202   1.875   5.546
 6613TIP3    H219781   7.331   1.874   5.468
 6614TIP3   OH219782   5.700   2.259   1.768
 6614TIP3    H119783   5.694   2.220   1.681
 6614TIP3    H219784   5.788   2.295   1.772
 6615TIP3   OH219785   7.130   6.063   5.317
 6615TIP3    H119786   7.167   6.008   5.248
 6615TIP3    H219787   7.206   6.101   5.361
 6616TIP3   OH219788   7.332   0.415   3.275
 6616TIP3    H119789   7.420   0.414   3.314
 6616TIP3    H219790   7.273   0.404   3.350
 6617TIP3   OH219791   6.467   6.786   2.892
 6617TIP3    H119792   6.464   6.691   2.889
 6617TIP3    H219793   6.461   6.813   2.800
 6618TIP3   OH219794   0.675   5.113   4.162
 6618TIP3    H119795   0.628   5.115   4.245
 6618TIP3    H219796   0.696   5.021   4.148
 6619TIP3   OH219797   7.296   5.171   0.152
 6619TIP3    H119798   7.230   5.120   0.199
 6619TIP3    H219799   7.328   5.113   0.083
 6620TIP3   OH219800   0.588   0.171   0.768
 6620TIP3    H119801   0.579   0.137   0.857
 6620TIP3    H219802   0.581   0.266   0.778
 6621TIP3   OH219803   3.519   1.262   1.952
 6621TIP3    H119804   3.608   1.245   1.919
 6621TIP3    H219805   3.505   1.355   1.937
 6622TIP3   OH219806   2.360   4.476   1.310
 6622TIP3    H119807   2.443   4.478   1.261
 6622TIP3    H219808   2.383   4.436   1.394
 6623TIP3   OH219809   2.957   6.582   0.778
 6623TIP3    H119810   2.877   6.530   0.782
 6623TIP3    H219811   2.926   6.673   0.782
 6624TIP3   OH219812   6.830   6.365   5.488
 6624TIP3    H119813   6.819   6.397   5.577
 6624TIP3    H219814   6.796   6.276   5.490
 6625TIP3   OH219815   3.218   1.766   3.797
 6625TIP3    H119816   3.200   1.714   3.719
 6625TIP3    H219817   3.138   1.760   3.849
 6626TIP3   OH219818   5.935   5.489   3.942
 6626TIP3    H119819   5.954   5.495   4.035
 6626TIP3    H219820   5.970   5.570   3.905
 6627TIP3   OH219821   1.133   4.153   3.322
 6627TIP3    H119822   1.176   4.097   3.387
 6627TIP3    H219823   1.079   4.092   3.271
 6628TIP3   OH219824   0.193   1.351   3.651
 6628TIP3    H119825   0.223   1.352   3.560
 6628TIP3    H219826   0.182   1.443   3.674
 6629TIP3   OH219827   6.172   1.472   3.770
 6629TIP3    H119828   6.265   1.473   3.750
 6629TIP3    H219829   6.152   1.380   3.785
 6630TIP3   OH219830   7.003   5.342   0.423
 6630TIP3    H119831   7.098   5.357   0.420
 6630TIP3    H219832   6.971   5.403   0.489
 6631TIP3   OH219833   2.617   0.215   3.414
 6631TIP3    H119834   2.525   0.239   3.402
 6631TIP3    H219835   2.621   0.178   3.502
 6632TIP3   OH219836   1.196   6.187   0.940
 6632TIP3    H119837   1.283   6.220   0.916
 6632TIP3    H219838   1.158   6.159   0.857
 6633TIP3   OH219839   2.019   3.477   5.488
 6633TIP3    H119840   2.071   3.418   5.542
 6633TIP3    H219841   2.061   3.562   5.499
 6634TIP3   OH219842   5.066   0.988   1.021
 6634TIP3    H119843   5.080   0.933   0.944
 6634TIP3    H219844   5.106   1.071   0.999
 6635TIP3   OH219845   1.821   4.824   4.570
 6635TIP3    H119846   1.859   4.737   4.582
 6635TIP3    H219847   1.727   4.809   4.571
 6636TIP3   OH219848   6.833   5.245   6.259
 6636TIP3    H119849   6.923   5.221   6.283
 6636TIP3    H219850   6.821   5.205   6.173
 6637TIP3   OH219851   5.229   1.573   1.427
 6637TIP3    H119852   5.259   1.517   1.498
 6637TIP3    H219853   5.309   1.603   1.384
 6638TIP3   OH219854   7.149   2.260   6.043
 6638TIP3    H119855   7.173   2.203   5.970
 6638TIP3    H219856   7.106   2.202   6.106
 6639TIP3   OH219857   6.680   4.280   5.024
 6639TIP3    H119858   6.658   4.340   4.953
 6639TIP3    H219859   6.735   4.214   4.983
 6640TIP3   OH219860   6.607   0.226   4.364
 6640TIP3    H119861   6.604   0.130   4.364
 6640TIP3    H219862   6.667   0.248   4.436
 6641TIP3   OH219863   1.347   0.965   2.511
 6641TIP3    H119864   1.400   1.034   2.550
 6641TIP3    H219865   1.389   0.884   2.539
 6642TIP3   OH219866   8.358   3.770   6.558
 6642TIP3    H119867   8.293   3.792   6.491
 6642TIP3    H219868   8.322   3.693   6.602
 6643TIP3   OH219869   4.823   2.754   1.264
 6643TIP3    H119870   4.890   2.801   1.314
 6643TIP3    H219871   4.796   2.683   1.322
 6644TIP3   OH219872   1.806   0.506   3.520
 6644TIP3    H119873   1.783   0.475   3.432
 6644TIP3    H219874   1.731   0.560   3.546
 6645TIP3   OH219875   0.690   5.104   3.443
 6645TIP3    H119876   0.772   5.152   3.435
 6645TIP3    H219877   0.626   5.169   3.471
 6646TIP3   OH219878   1.824   3.654   5.746
 6646TIP3    H119879   1.902   3.599   5.741
 6646TIP3    H219880   1.751   3.592   5.747
 6647TIP3   OH219881   1.538   2.093   0.612
 6647TIP3    H119882   1.574   2.170   0.656
 6647TIP3    H219883   1.569   2.100   0.522
 6648TIP3   OH219884   3.284   4.110   2.367
 6648TIP3    H119885   3.349   4.118   2.298
 6648TIP3    H219886   3.231   4.035   2.342
 6649TIP3   OH219887   8.184   5.304   5.167
 6649TIP3    H119888   8.172   5.359   5.089
 6649TIP3    H219889   8.099   5.262   5.180
 6650TIP3   OH219890   7.537   7.060   6.146
 6650TIP3    H119891   7.598   7.030   6.214
 6650TIP3    H219892   7.451   7.032   6.176
 6651TIP3   OH219893   5.173   6.366   0.727
 6651TIP3    H119894   5.136   6.301   0.786
 6651TIP3    H219895   5.263   6.338   0.712
 6652TIP3   OH219896   0.912   6.664   2.531
 6652TIP3    H119897   0.841   6.654   2.468
 6652TIP3    H219898   0.916   6.758   2.548
 6653TIP3   OH219899   5.170   2.890   0.257
 6653TIP3    H119900   5.241   2.842   0.300
 6653TIP3    H219901   5.091   2.858   0.301
 6654TIP3   OH219902   1.266   0.618   4.497
 6654TIP3    H119903   1.206   0.693   4.497
 6654TIP3    H219904   1.240   0.568   4.575
 6655TIP3   OH219905   0.631   4.369   0.508
 6655TIP3    H119906   0.565   4.308   0.474
 6655TIP3    H219907   0.676   4.401   0.430
 6656TIP3   OH219908   6.750   7.345   5.269
 6656TIP3    H119909   6.782   7.270   5.319
 6656TIP3    H219910   6.657   7.327   5.256
 6657TIP3   OH219911   6.589   1.136   2.297
 6657TIP3    H119912   6.559   1.074   2.363
 6657TIP3    H219913   6.511   1.155   2.244
 6658TIP3   OH219914   0.757   1.598   2.439
 6658TIP3    H119915   0.741   1.512   2.399
 6658TIP3    H219916   0.747   1.583   2.533
 6659TIP3   OH219917   4.768   0.305   0.641
 6659TIP3    H119918   4.685   0.317   0.595
 6659TIP3    H219919   4.832   0.291   0.571
 6660TIP3   OH219920   3.241   7.691   3.030
 6660TIP3    H119921   3.254   7.734   2.945
 6660TIP3    H219922   3.224   7.763   3.091
 6661TIP3   OH219923   4.837   6.170   6.122
 6661TIP3    H119924   4.758   6.138   6.079
 6661TIP3    H219925   4.874   6.233   6.060
 6662TIP3   OH219926   1.731   6.179   0.855
 6662TIP3    H119927   1.789   6.162   0.928
 6662TIP3    H219928   1.787   6.216   0.787
 6663TIP3   OH219929   7.249   5.193   2.365
 6663TIP3    H119930   7.260   5.161   2.455
 6663TIP3    H219931   7.155   5.211   2.357
 6664TIP3   OH219932   5.665   2.283   3.422
 6664TIP3    H119933   5.680   2.273   3.328
 6664TIP3    H219934   5.746   2.255   3.463
 6665TIP3   OH219935   1.818   3.389   3.244
 6665TIP3    H119936   1.822   3.440   3.164
 6665TIP3    H219937   1.909   3.373   3.267
 6666TIP3   OH219938   5.798   7.739   2.891
 6666TIP3    H119939   5.762   7.827   2.883
 6666TIP3    H219940   5.844   7.739   2.975
 6667TIP3   OH219941   2.895   6.626   4.981
 6667TIP3    H119942   2.931   6.659   5.063
 6667TIP3    H219943   2.923   6.534   4.978
 6668TIP3   OH219944   3.346   0.816   5.704
 6668TIP3    H119945   3.333   0.909   5.723
 6668TIP3    H219946   3.369   0.777   5.788
 6669TIP3   OH219947   2.859   3.489   4.432
 6669TIP3    H119948   2.903   3.405   4.447
 6669TIP3    H219949   2.930   3.553   4.430
 6670TIP3   OH219950   7.284   3.924   0.604
 6670TIP3    H119951   7.272   3.830   0.586
 6670TIP3    H219952   7.281   3.930   0.700
 6671TIP3   OH219953   1.556   6.815   5.176
 6671TIP3    H119954   1.534   6.722   5.173
 6671TIP3    H219955   1.551   6.838   5.269
 6672TIP3   OH219956   4.266   0.839   6.480
 6672TIP3    H119957   4.223   0.925   6.483
 6672TIP3    H219958   4.266   0.810   6.571
 6673TIP3   OH219959   1.407   3.831   1.251
 6673TIP3    H119960   1.423   3.915   1.209
 6673TIP3    H219961   1.376   3.853   1.339
 6674TIP3   OH219962   2.203   7.069   6.159
 6674TIP3    H119963   2.114   7.102   6.171
 6674TIP3    H219964   2.229   7.100   6.072
 6675TIP3   OH219965   6.973   1.528   4.150
 6675TIP3    H119966   6.967   1.451   4.093
 6675TIP3    H219967   7.061   1.523   4.187
 6676TIP3   OH219968   7.954   1.241   3.316
 6676TIP3    H119969   8.021   1.212   3.254
 6676TIP3    H219970   7.993   1.228   3.402
 6677TIP3   OH219971   3.651   7.170   0.587
 6677TIP3    H119972   3.746   7.157   0.591
 6677TIP3    H219973   3.631   7.227   0.661
 6678TIP3   OH219974   3.182   7.634   1.867
 6678TIP3    H119975   3.104   7.688   1.881
 6678TIP3    H219976   3.161   7.581   1.791
 6679TIP3   OH219977   4.444   6.305   4.280
 6679TIP3    H119978   4.452   6.240   4.350
 6679TIP3    H219979   4.461   6.389   4.323
 6680TIP3   OH219980   1.970   6.717   3.665
 6680TIP3    H119981   1.978   6.635   3.713
 6680TIP3    H219982   1.995   6.785   3.728
 6681TIP3   OH219983   3.762   3.151   3.303
 6681TIP3    H119984   3.692   3.087   3.313
 6681TIP3    H219985   3.717   3.231   3.275
 6682TIP3   OH219986   3.735   4.864   2.086
 6682TIP3    H119987   3.738   4.772   2.113
 6682TIP3    H219988   3.782   4.911   2.154
 6683TIP3   OH219989   7.006   5.429   6.618
 6683TIP3    H119990   6.953   5.351   6.634
 6683TIP3    H219991   7.045   5.449   6.703
 6684TIP3   OH219992   7.687   5.775   5.688
 6684TIP3    H119993   7.703   5.815   5.774
 6684TIP3    H219994   7.705   5.682   5.701
 6685TIP3   OH219995   1.919   3.282   3.512
 6685TIP3    H119996   1.892   3.247   3.597
 6685TIP3    H219997   1.876   3.225   3.448
 6686TIP3   OH219998   2.149   0.929   1.495
 6686TIP3    H119999   2.059   0.960   1.480
 6686TIP3    H220000   2.159   0.933   1.590
 6687TIP3   OH220001   6.813   7.485   0.952
 6687TIP3    H120002   6.729   7.505   0.994
 6687TIP3    H220003   6.793   7.483   0.859
 6688TIP3   OH220004   6.399   6.082   6.679
 6688TIP3    H120005   6.359   6.080   6.592
 6688TIP3    H220006   6.453   6.002   6.682
 6689TIP3   OH220007   5.602   5.788   1.609
 6689TIP3    H120008   5.603   5.870   1.560
 6689TIP3    H220009   5.544   5.731   1.559
 6690TIP3   OH220010   6.852   0.063   0.955
 6690TIP3    H120011   6.824   0.073   0.864
 6690TIP3    H220012   6.944   0.089   0.956
 6691TIP3   OH220013   6.503   4.959   5.977
 6691TIP3    H120014   6.547   4.937   5.895
 6691TIP3    H220015   6.505   4.878   6.027
 6692TIP3   OH220016   4.209   5.993   4.761
 6692TIP3    H120017   4.301   5.996   4.789
 6692TIP3    H220018   4.206   6.052   4.686
 6693TIP3   OH220019   3.716   7.170   4.216
 6693TIP3    H120020   3.760   7.148   4.299
 6693TIP3    H220021   3.640   7.112   4.214
 6694TIP3   OH220022   4.661   4.012   3.835
 6694TIP3    H120023   4.574   4.037   3.806
 6694TIP3    H220024   4.699   3.965   3.760
 6695TIP3   OH220025   5.280   4.021   3.145
 6695TIP3    H120026   5.221   4.004   3.219
 6695TIP3    H220027   5.231   4.080   3.089
 6696TIP3   OH220028   5.059   0.853   6.336
 6696TIP3    H120029   5.132   0.817   6.386
 6696TIP3    H220030   5.054   0.800   6.257
 6697TIP3   OH220031   1.542   7.134   2.370
 6697TIP3    H120032   1.537   7.138   2.465
 6697TIP3    H220033   1.620   7.082   2.352
 6698TIP3   OH220034   8.134   6.499   0.627
 6698TIP3    H120035   8.224   6.504   0.661
 6698TIP3    H220036   8.079   6.494   0.705
 6699TIP3   OH220037   0.542   1.723   2.938
 6699TIP3    H120038   0.598   1.801   2.944
 6699TIP3    H220039   0.454   1.756   2.954
 6700TIP3   OH220040   1.263   1.532   4.948
 6700TIP3    H120041   1.290   1.471   4.879
 6700TIP3    H220042   1.331   1.526   5.014
 6701TIP3   OH220043   1.190   1.524   0.388
 6701TIP3    H120044   1.139   1.464   0.332
 6701TIP3    H220045   1.125   1.563   0.446
 6702TIP3   OH220046   2.652   1.492   4.446
 6702TIP3    H120047   2.714   1.423   4.469
 6702TIP3    H220048   2.623   1.469   4.358
 6703TIP3   OH220049   3.428   6.000   5.490
 6703TIP3    H120050   3.355   5.948   5.456
 6703TIP3    H220051   3.415   6.087   5.453
 6704TIP3   OH220052   8.038   6.341   4.183
 6704TIP3    H120053   8.039   6.263   4.238
 6704TIP3    H220054   8.088   6.315   4.105
 6705TIP3   OH220055   0.345   5.079   0.465
 6705TIP3    H120056   0.436   5.096   0.441
 6705TIP3    H220057   0.344   4.988   0.495
 6706TIP3   OH220058   5.176   2.841   6.242
 6706TIP3    H120059   5.201   2.929   6.271
 6706TIP3    H220060   5.099   2.855   6.187
 6707TIP3   OH220061   5.497   2.681   6.559
 6707TIP3    H120062   5.541   2.598   6.576
 6707TIP3    H220063   5.521   2.737   6.633
 6708TIP3   OH220064   5.931   3.311   0.532
 6708TIP3    H120065   5.863   3.369   0.498
 6708TIP3    H220066   6.013   3.357   0.515
 6709TIP3   OH220067   4.514   3.679   4.039
 6709TIP3    H120068   4.552   3.757   4.078
 6709TIP3    H220069   4.423   3.703   4.020
 6710TIP3   OH220070   6.595   2.873   1.356
 6710TIP3    H120071   6.537   2.800   1.378
 6710TIP3    H220072   6.678   2.852   1.399
 6711TIP3   OH220073   6.529   3.688   1.007
 6711TIP3    H120074   6.570   3.698   1.092
 6711TIP3    H220075   6.450   3.743   1.011
 6712TIP3   OH220076   3.904   4.805   3.514
 6712TIP3    H120077   3.842   4.732   3.508
 6712TIP3    H220078   3.885   4.858   3.437
 6713TIP3   OH220079   5.043   0.593   1.352
 6713TIP3    H120080   5.038   0.505   1.389
 6713TIP3    H220081   5.001   0.650   1.417
 6714TIP3   OH220082   3.000   7.777   6.043
 6714TIP3    H120083   3.045   7.695   6.022
 6714TIP3    H220084   2.909   7.751   6.061
 6715TIP3   OH220085   1.145   6.775   3.622
 6715TIP3    H120086   1.128   6.699   3.567
 6715TIP3    H220087   1.237   6.767   3.646
 6716TIP3   OH220088   1.163   6.441   5.155
 6716TIP3    H120089   1.099   6.428   5.085
 6716TIP3    H220090   1.116   6.494   5.220
 6717TIP3   OH220091   2.180   5.496   5.734
 6717TIP3    H120092   2.273   5.510   5.712
 6717TIP3    H220093   2.175   5.517   5.828
 6718TIP3   OH220094   4.903   6.788   3.242
 6718TIP3    H120095   4.985   6.758   3.281
 6718TIP3    H220096   4.844   6.714   3.250
 6719TIP3   OH220097   1.298   2.805   3.084
 6719TIP3    H120098   1.207   2.820   3.108
 6719TIP3    H220099   1.302   2.712   3.062
 6720TIP3   OH220100   7.131   3.800   4.208
 6720TIP3    H120101   7.045   3.842   4.218
 6720TIP3    H220102   7.187   3.870   4.172
 6721TIP3   OH220103   2.986   4.352   3.349
 6721TIP3    H120104   2.905   4.309   3.321
 6721TIP3    H220105   2.986   4.436   3.303
 6722TIP3   OH220106   4.756   1.383   2.443
 6722TIP3    H120107   4.667   1.363   2.474
 6722TIP3    H220108   4.809   1.382   2.523
 6723TIP3   OH220109   0.093   6.921   2.147
 6723TIP3    H120110   0.126   6.834   2.125
 6723TIP3    H220111   0.051   6.910   2.233
 6724TIP3   OH220112   1.900   2.422   0.688
 6724TIP3    H120113   1.863   2.333   0.684
 6724TIP3    H220114   1.993   2.408   0.704
 6725TIP3   OH220115   2.021   0.034   1.444
 6725TIP3    H120116   2.080   0.106   1.423
 6725TIP3    H220117   2.048   0.005   1.532
 6726TIP3   OH220118   0.288   7.790   3.271
 6726TIP3    H120119   0.378   7.787   3.239
 6726TIP3    H220120   0.293   7.755   3.360
 6727TIP3   OH220121   5.101   2.402   3.962
 6727TIP3    H120122   5.186   2.395   3.918
 6727TIP3    H220123   5.110   2.346   4.039
 6728TIP3   OH220124   1.102   7.411   5.695
 6728TIP3    H120125   1.147   7.460   5.764
 6728TIP3    H220126   1.137   7.322   5.701
 6729TIP3   OH220127   6.429   6.226   1.519
 6729TIP3    H120128   6.451   6.172   1.443
 6729TIP3    H220129   6.485   6.304   1.509
 6730TIP3   OH220130   6.064   5.869   0.858
 6730TIP3    H120131   6.059   5.934   0.789
 6730TIP3    H220132   6.134   5.901   0.915
 6731TIP3   OH220133   3.678   1.951   6.820
 6731TIP3    H120134   3.768   1.963   6.789
 6731TIP3    H220135   3.633   1.906   6.749
 6732TIP3   OH220136   1.204   0.157   4.378
 6732TIP3    H120137   1.134   0.101   4.411
 6732TIP3    H220138   1.220   0.220   4.449
 6733TIP3   OH220139   5.990   4.915   2.415
 6733TIP3    H120140   6.019   4.856   2.346
 6733TIP3    H220141   6.071   4.940   2.460
 6734TIP3   OH220142   0.406   6.280   0.444
 6734TIP3    H120143   0.491   6.277   0.400
 6734TIP3    H220144   0.346   6.316   0.379
 6735TIP3   OH220145   5.517   7.417   0.751
 6735TIP3    H120146   5.458   7.353   0.710
 6735TIP3    H220147   5.460   7.473   0.802
 6736TIP3   OH220148   3.042   0.351   4.118
 6736TIP3    H120149   3.060   0.329   4.209
 6736TIP3    H220150   2.966   0.409   4.122
 6737TIP3   OH220151   2.183   4.505   2.906
 6737TIP3    H120152   2.209   4.414   2.888
 6737TIP3    H220153   2.264   4.548   2.933
 6738TIP3   OH220154   5.909   2.378   5.708
 6738TIP3    H120155   5.965   2.329   5.647
 6738TIP3    H220156   5.821   2.345   5.692
 6739TIP3   OH220157   3.816   0.549   1.012
 6739TIP3    H120158   3.847   0.507   1.093
 6739TIP3    H220159   3.738   0.499   0.988
 6740TIP3   OH220160   6.244   3.636   2.789
 6740TIP3    H120161   6.314   3.609   2.848
 6740TIP3    H220162   6.164   3.603   2.829
 6741TIP3   OH220163   3.665   2.636   2.655
 6741TIP3    H120164   3.727   2.670   2.590
 6741TIP3    H220165   3.583   2.624   2.607
 6742TIP3   OH220166   7.572   4.300   4.830
 6742TIP3    H120167   7.658   4.285   4.791
 6742TIP3    H220168   7.583   4.276   4.922
 6743TIP3   OH220169   2.434   2.015   0.554
 6743TIP3    H120170   2.442   2.093   0.499
 6743TIP3    H220171   2.375   2.041   0.625
 6744TIP3   OH220172   8.144   6.072   6.386
 6744TIP3    H120173   8.140   6.096   6.293
 6744TIP3    H220174   8.237   6.078   6.409
 6745TIP3   OH220175   6.997   1.521   4.937
 6745TIP3    H120176   6.996   1.426   4.925
 6745TIP3    H220177   7.087   1.546   4.916
 6746TIP3   OH220178   8.116   1.135   0.179
 6746TIP3    H120179   8.080   1.081   0.110
 6746TIP3    H220180   8.203   1.099   0.195
 6747TIP3   OH220181   7.221   2.895   2.962
 6747TIP3    H120182   7.261   2.846   3.034
 6747TIP3    H220183   7.180   2.971   3.004
 6748TIP3   OH220184   6.907   4.695   1.204
 6748TIP3    H120185   6.996   4.718   1.232
 6748TIP3    H220186   6.913   4.603   1.178
 6749TIP3   OH220187   7.015   2.324   2.163
 6749TIP3    H120188   6.947   2.364   2.108
 6749TIP3    H220189   7.078   2.289   2.100
 6750TIP3   OH220190   6.894   3.852   5.203
 6750TIP3    H120191   6.850   3.881   5.283
 6750TIP3    H220192   6.977   3.900   5.204
 6751TIP3   OH220193   8.267   2.087   6.634
 6751TIP3    H120194   8.314   2.130   6.562
 6751TIP3    H220195   8.336   2.052   6.690
 6752TIP3   OH220196   1.112   6.622   5.363
 6752TIP3    H120197   1.206   6.613   5.378
 6752TIP3    H220198   1.073   6.614   5.450
 6753TIP3   OH220199   6.493   0.740   4.949
 6753TIP3    H120200   6.582   0.740   4.913
 6753TIP3    H220201   6.476   0.831   4.971
 6754TIP3   OH220202   4.922   6.046   3.727
 6754TIP3    H120203   4.872   6.106   3.671
 6754TIP3    H220204   4.880   5.961   3.713
 6755TIP3   OH220205   2.460   6.282   6.502
 6755TIP3    H120206   2.501   6.201   6.532
 6755TIP3    H220207   2.475   6.283   6.407
 6756TIP3   OH220208   6.021   0.933   1.860
 6756TIP3    H120209   5.999   0.900   1.772
 6756TIP3    H220210   6.002   0.859   1.918
 6757TIP3   OH220211   6.506   6.802   4.051
 6757TIP3    H120212   6.436   6.786   3.988
 6757TIP3    H220213   6.561   6.869   4.009
 6758TIP3   OH220214   7.107   0.268   1.566
 6758TIP3    H120215   7.015   0.290   1.581
 6758TIP3    H220216   7.117   0.272   1.471
 6759TIP3   OH220217   4.258   6.401   0.244
 6759TIP3    H120218   4.282   6.360   0.328
 6759TIP3    H220219   4.192   6.342   0.208
 6760TIP3   OH220220   1.052   0.596   1.286
 6760TIP3    H120221   1.003   0.677   1.273
 6760TIP3    H220222   1.143   0.621   1.271
 6761TIP3   OH220223   2.250   3.883   6.519
 6761TIP3    H120224   2.295   3.890   6.435
 6761TIP3    H220225   2.304   3.822   6.570
 6762TIP3   OH220226   7.556   6.501   3.924
 6762TIP3    H120227   7.547   6.553   4.004
 6762TIP3    H220228   7.625   6.438   3.943
 6763TIP3   OH220229   0.027   6.596   4.462
 6763TIP3    H120230   0.113   6.561   4.438
 6763TIP3    H220231  -0.028   6.580   4.385
 6764TIP3   OH220232   3.732   5.634   5.179
 6764TIP3    H120233   3.638   5.647   5.168
 6764TIP3    H220234   3.772   5.681   5.105
 6765TIP3   OH220235   5.168   1.172   6.523
 6765TIP3    H120236   5.228   1.242   6.497
 6765TIP3    H220237   5.099   1.218   6.572
 6766TIP3   OH220238   7.665   4.963   1.016
 6766TIP3    H120239   7.590   4.987   1.070
 6766TIP3    H220240   7.688   5.044   0.970
 6767TIP3   OH220241   4.066   4.204   6.363
 6767TIP3    H120242   4.051   4.281   6.418
 6767TIP3    H220243   4.137   4.229   6.304
 6768TIP3   OH220244   6.363   2.751   0.509
 6768TIP3    H120245   6.309   2.826   0.533
 6768TIP3    H220246   6.353   2.744   0.414
 6769TIP3   OH220247   4.738   6.106   1.400
 6769TIP3    H120248   4.765   6.189   1.360
 6769TIP3    H220249   4.820   6.059   1.415
 6770TIP3   OH220250   3.949   7.634   5.112
 6770TIP3    H120251   4.020   7.698   5.111
 6770TIP3    H220252   3.993   7.550   5.097
 6771TIP3   OH220253   5.697   6.590   0.329
 6771TIP3    H120254   5.689   6.667   0.385
 6771TIP3    H220255   5.622   6.595   0.271
 6772TIP3   OH220256   3.108   2.607   3.045
 6772TIP3    H120257   3.062   2.552   3.108
 6772TIP3    H220258   3.047   2.615   2.972
 6773TIP3   OH220259   1.050   3.698   2.453
 6773TIP3    H120260   1.067   3.785   2.417
 6773TIP3    H220261   0.962   3.704   2.491
 6774TIP3   OH220262   6.748   7.847   6.076
 6774TIP3    H120263   6.700   7.859   5.993
 6774TIP3    H220264   6.807   7.773   6.058
 6775TIP3   OH220265   0.928   5.396   2.603
 6775TIP3    H120266   0.906   5.469   2.660
 6775TIP3    H220267   1.010   5.422   2.561
 6776TIP3   OH220268   1.747   1.593   5.017
 6776TIP3    H120269   1.756   1.515   5.072
 6776TIP3    H220270   1.733   1.664   5.079
 6777TIP3   OH220271   0.098   0.828   6.411
 6777TIP3    H120272   0.159   0.901   6.421
 6777TIP3    H220273   0.018   0.867   6.377
 6778TIP3   OH220274   1.453   4.453   3.778
 6778TIP3    H120275   1.368   4.492   3.795
 6778TIP3    H220276   1.480   4.489   3.694
 6779TIP3   OH220277   7.461   0.258   0.558
 6779TIP3    H120278   7.412   0.326   0.511
 6779TIP3    H220279   7.529   0.306   0.606
 6780TIP3   OH220280   1.701   0.368   4.541
 6780TIP3    H120281   1.792   0.344   4.521
 6780TIP3    H220282   1.655   0.364   4.457
 6781TIP3   OH220283   5.077   6.427   3.603
 6781TIP3    H120284   4.997   6.387   3.638
 6781TIP3    H220285   5.134   6.354   3.584
 6782TIP3   OH220286   7.456   7.298   0.275
 6782TIP3    H120287   7.492   7.276   0.361
 6782TIP3    H220288   7.423   7.387   0.286
 6783TIP3   OH220289   2.634   1.138   2.060
 6783TIP3    H120290   2.639   1.049   2.095
 6783TIP3    H220291   2.589   1.188   2.128
 6784TIP3   OH220292   4.577   3.593   5.048
 6784TIP3    H120293   4.570   3.561   4.959
 6784TIP3    H220294   4.537   3.525   5.102
 6785TIP3   OH220295   5.878   5.785   6.737
 6785TIP3    H120296   5.786   5.807   6.732
 6785TIP3    H220297   5.923   5.858   6.694
 6786TIP3   OH220298   6.626   5.662   4.690
 6786TIP3    H120299   6.703   5.681   4.635
 6786TIP3    H220300   6.609   5.569   4.675
 6787TIP3   OH220301   1.700   3.177   5.578
 6787TIP3    H120302   1.761   3.161   5.650
 6787TIP3    H220303   1.717   3.106   5.516
 6788TIP3   OH220304   1.977   2.163   0.988
 6788TIP3    H120305   1.907   2.188   1.048
 6788TIP3    H220306   1.934   2.113   0.919
 6789TIP3   OH220307   4.653   6.182   5.197
 6789TIP3    H120308   4.701   6.106   5.164
 6789TIP3    H220309   4.565   6.172   5.162
 6790TIP3   OH220310   8.193   1.377   2.598
 6790TIP3    H120311   8.238   1.298   2.628
 6790TIP3    H220312   8.250   1.414   2.531
 6791TIP3   OH220313   7.900   6.823   1.415
 6791TIP3    H120314   7.903   6.802   1.508
 6791TIP3    H220315   7.881   6.917   1.412
 6792TIP3   OH220316   3.087   2.631   6.535
 6792TIP3    H120317   3.183   2.638   6.536
 6792TIP3    H220318   3.062   2.634   6.627
 6793TIP3   OH220319   4.885   4.956   5.932
 6793TIP3    H120320   4.922   4.907   6.006
 6793TIP3    H220321   4.802   4.912   5.913
 6794TIP3   OH220322   1.042   3.254   0.717
 6794TIP3    H120323   1.080   3.224   0.800
 6794TIP3    H220324   0.965   3.198   0.704
 6795TIP3   OH220325   6.798   1.908   6.204
 6795TIP3    H120326   6.888   1.941   6.211
 6795TIP3    H220327   6.782   1.900   6.110
 6796TIP3   OH220328   6.057   1.358   6.801
 6796TIP3    H120329   6.152   1.350   6.804
 6796TIP3    H220330   6.025   1.269   6.813
 6797TIP3   OH220331   4.025   4.816   4.603
 6797TIP3    H120332   4.039   4.858   4.688
 6797TIP3    H220333   4.020   4.723   4.624
 6798TIP3   OH220334   5.080   7.613   2.640
 6798TIP3    H120335   5.075   7.693   2.588
 6798TIP3    H220336   5.014   7.555   2.601
 6799TIP3   OH220337   1.957   1.013   2.875
 6799TIP3    H120338   2.041   0.988   2.913
 6799TIP3    H220339   1.915   1.066   2.943
 6800TIP3   OH220340   1.795   2.935   5.482
 6800TIP3    H120341   1.834   2.906   5.565
 6800TIP3    H220342   1.839   2.881   5.416
 6801TIP3   OH220343   6.226   1.519   3.103
 6801TIP3    H120344   6.320   1.511   3.119
 6801TIP3    H220345   6.216   1.606   3.065
 6802TIP3   OH220346   1.752   5.900   4.921
 6802TIP3    H120347   1.847   5.906   4.933
 6802TIP3    H220348   1.715   5.958   4.986
 6803TIP3   OH220349   5.023   4.394   6.652
 6803TIP3    H120350   4.979   4.426   6.730
 6803TIP3    H220351   5.055   4.473   6.609
 6804TIP3   OH220352   0.299   0.995   6.366
 6804TIP3    H120353   0.260   1.079   6.343
 6804TIP3    H220354   0.320   0.955   6.281
 6805TIP3   OH220355   6.459   6.157   0.703
 6805TIP3    H120356   6.410   6.075   0.704
 6805TIP3    H220357   6.404   6.218   0.751
 6806TIP3   OH220358   6.936   2.817   4.937
 6806TIP3    H120359   6.901   2.745   4.989
 6806TIP3    H220360   6.898   2.895   4.976
 6807TIP3   OH220361   3.985   7.279   5.628
 6807TIP3    H120362   4.050   7.350   5.624
 6807TIP3    H220363   4.019   7.219   5.695
 6808TIP3   OH220364   0.560   4.864   5.239
 6808TIP3    H120365   0.523   4.837   5.323
 6808TIP3    H220366   0.591   4.953   5.254
 6809TIP3   OH220367   2.576   0.247   4.714
 6809TIP3    H120368   2.610   0.333   4.686
 6809TIP3    H220369   2.649   0.187   4.701
 6810TIP3   OH220370   7.951   4.101   5.639
 6810TIP3    H120371   7.884   4.117   5.572
 6810TIP3    H220372   8.003   4.181   5.639
 6811TIP3   OH220373   5.926   3.565   2.676
 6811TIP3    H120374   5.867   3.639   2.692
 6811TIP3    H220375   5.998   3.577   2.738
 6812TIP3   OH220376   5.160   6.792   0.078
 6812TIP3    H120377   5.073   6.784   0.117
 6812TIP3    H220378   5.149   6.760  -0.011
 6813TIP3   OH220379   6.285   6.086   6.411
 6813TIP3    H120380   6.207   6.142   6.410
 6813TIP3    H220381   6.350   6.134   6.360
 6814TIP3   OH220382   0.020   3.300   6.404
 6814TIP3    H120383   0.098   3.343   6.437
 6814TIP3    H220384   0.009   3.333   6.315
 6815TIP3   OH220385   6.720   4.828   2.211
 6815TIP3    H120386   6.731   4.817   2.306
 6815TIP3    H220387   6.777   4.901   2.188
 6816TIP3   OH220388   7.994   3.343   3.065
 6816TIP3    H120389   7.946   3.383   2.992
 6816TIP3    H220390   7.937   3.272   3.095
 6817TIP3   OH220391   7.077   1.233   2.912
 6817TIP3    H120392   7.016   1.247   2.984
 6817TIP3    H220393   7.125   1.316   2.905
 6818TIP3   OH220394   4.766   5.676   5.307
 6818TIP3    H120395   4.690   5.624   5.332
 6818TIP3    H220396   4.751   5.762   5.345
 6819TIP3   OH220397   3.933   0.121   4.883
 6819TIP3    H120398   4.009   0.135   4.939
 6819TIP3    H220399   3.961   0.149   4.796
 6820TIP3   OH220400   5.245   3.994   4.607
 6820TIP3    H120401   5.241   4.075   4.658
 6820TIP3    H220402   5.328   3.954   4.630
 6821TIP3   OH220403   1.201   1.765   6.636
 6821TIP3    H120404   1.252   1.685   6.646
 6821TIP3    H220405   1.113   1.735   6.616
 6822TIP3   OH220406   2.883   6.195   6.549
 6822TIP3    H120407   2.874   6.177   6.455
 6822TIP3    H220408   2.910   6.286   6.553
 6823TIP3   OH220409   6.650   4.479   0.114
 6823TIP3    H120410   6.659   4.532   0.192
 6823TIP3    H220411   6.712   4.517   0.051
 6824TIP3   OH220412   1.254   4.283   1.228
 6824TIP3    H120413   1.175   4.320   1.266
 6824TIP3    H220414   1.320   4.291   1.297
 6825TIP3   OH220415   5.034   0.002   1.761
 6825TIP3    H120416   4.985   0.071   1.717
 6825TIP3    H220417   5.125   0.015   1.734
 6826TIP3   OH220418   0.982   4.391   4.098
 6826TIP3    H120419   1.010   4.307   4.133
 6826TIP3    H220420   0.916   4.369   4.032
 6827TIP3   OH220421   5.180   2.867   5.368
 6827TIP3    H120422   5.145   2.954   5.385
 6827TIP3    H220423   5.238   2.849   5.442
 6828TIP3   OH220424   3.083   6.703   4.710
 6828TIP3    H120425   2.990   6.725   4.715
 6828TIP3    H220426   3.128   6.787   4.716
 6829TIP3   OH220427   2.906   5.402   3.322
 6829TIP3    H120428   2.901   5.313   3.289
 6829TIP3    H220429   2.981   5.402   3.380
 6830TIP3   OH220430   1.806   3.446   5.310
 6830TIP3    H120431   1.763   3.373   5.354
 6830TIP3    H220432   1.887   3.459   5.359
 6831TIP3   OH220433   5.327   4.314   4.043
 6831TIP3    H120434   5.419   4.295   4.022
 6831TIP3    H220435   5.295   4.363   3.967
 6832TIP3   OH220436   5.738   7.316   1.355
 6832TIP3    H120437   5.706   7.387   1.299
 6832TIP3    H220438   5.662   7.260   1.369
 6833TIP3   OH220439   6.226   1.298   2.627
 6833TIP3    H120440   6.321   1.310   2.615
 6833TIP3    H220441   6.213   1.306   2.721
 6834TIP3   OH220442   7.522   0.689   4.453
 6834TIP3    H120443   7.522   0.776   4.414
 6834TIP3    H220444   7.479   0.633   4.388
 6835TIP3   OH220445   2.799   7.332   3.198
 6835TIP3    H120446   2.885   7.367   3.177
 6835TIP3    H220447   2.749   7.341   3.117
 6836TIP3   OH220448   8.370   4.322   5.562
 6836TIP3    H120449   8.319   4.242   5.573
 6836TIP3    H220450   8.389   4.326   5.468
 6837TIP3   OH220451   8.090   4.235   1.488
 6837TIP3    H120452   8.155   4.305   1.488
 6837TIP3    H220453   8.064   4.225   1.397
 6838TIP3   OH220454   5.122   1.549   2.962
 6838TIP3    H120455   5.162   1.628   2.926
 6838TIP3    H220456   5.044   1.536   2.908
 6839TIP3   OH220457   1.203   7.281   3.940
 6839TIP3    H120458   1.128   7.225   3.922
 6839TIP3    H220459   1.203   7.346   3.870
 6840TIP3   OH220460   0.973   4.912   1.852
 6840TIP3    H120461   0.946   4.973   1.921
 6840TIP3    H220462   1.042   4.860   1.893
 6841TIP3   OH220463   0.298   4.051   1.661
 6841TIP3    H120464   0.234   3.982   1.677
 6841TIP3    H220465   0.273   4.087   1.576
 6842TIP3   OH220466   0.474   6.548   3.241
 6842TIP3    H120467   0.478   6.635   3.201
 6842TIP3    H220468   0.548   6.501   3.202
 6843TIP3   OH220469   2.429   0.349   5.555
 6843TIP3    H120470   2.447   0.256   5.540
 6843TIP3    H220471   2.505   0.380   5.603
 6844TIP3   OH220472   0.342   5.569   0.086
 6844TIP3    H120473   0.351   5.599   0.177
 6844TIP3    H220474   0.396   5.629   0.036
 6845TIP3   OH220475   3.367   2.042   2.622
 6845TIP3    H120476   3.385   2.014   2.533
 6845TIP3    H220477   3.279   2.079   2.619
 6846TIP3   OH220478   5.189   7.684   5.147
 6846TIP3    H120479   5.168   7.645   5.062
 6846TIP3    H220480   5.157   7.622   5.211
 6847TIP3   OH220481   5.608   1.130   3.653
 6847TIP3    H120482   5.618   1.040   3.682
 6847TIP3    H220483   5.519   1.155   3.678
 6848TIP3   OH220484   6.654   5.664   1.495
 6848TIP3    H120485   6.622   5.619   1.416
 6848TIP3    H220486   6.749   5.663   1.486
 6849TIP3   OH220487   3.052   6.903   3.943
 6849TIP3    H120488   3.143   6.913   3.916
 6849TIP3    H220489   3.034   6.810   3.933
 6850TIP3   OH220490   4.388   5.155   5.944
 6850TIP3    H120491   4.330   5.120   5.876
 6850TIP3    H220492   4.464   5.188   5.895
 6851TIP3   OH220493   0.621   2.568   4.715
 6851TIP3    H120494   0.623   2.476   4.690
 6851TIP3    H220495   0.605   2.615   4.633
 6852TIP3   OH220496   2.985   0.410   0.272
 6852TIP3    H120497   2.903   0.396   0.320
 6852TIP3    H220498   2.959   0.449   0.189
 6853TIP3   OH220499   5.407   5.566   4.197
 6853TIP3    H120500   5.482   5.625   4.188
 6853TIP3    H220501   5.344   5.614   4.250
 6854TIP3   OH220502   7.759   4.620   3.490
 6854TIP3    H120503   7.778   4.661   3.406
 6854TIP3    H220504   7.719   4.690   3.542
 6855TIP3   OH220505   2.247   3.704   3.266
 6855TIP3    H120506   2.293   3.779   3.228
 6855TIP3    H220507   2.174   3.743   3.315
 6856TIP3   OH220508   2.358   4.441   6.639
 6856TIP3    H120509   2.367   4.485   6.554
 6856TIP3    H220510   2.288   4.377   6.626
 6857TIP3   OH220511   5.625   5.384   3.404
 6857TIP3    H120512   5.708   5.399   3.359
 6857TIP3    H220513   5.605   5.467   3.447
 6858TIP3   OH220514   6.980   0.847   0.849
 6858TIP3    H120515   6.926   0.907   0.799
 6858TIP3    H220516   6.992   0.771   0.791
 6859TIP3   OH220517   4.443   6.753   2.080
 6859TIP3    H120518   4.389   6.714   2.011
 6859TIP3    H220519   4.533   6.736   2.052
 6860TIP3   OH220520   3.699   7.866   0.913
 6860TIP3    H120521   3.719   7.891   0.824
 6860TIP3    H220522   3.669   7.775   0.906
 6861TIP3   OH220523   0.298   1.456   0.666
 6861TIP3    H120524   0.366   1.524   0.660
 6861TIP3    H220525   0.321   1.406   0.744
 6862TIP3   OH220526   3.145   7.296   3.922
 6862TIP3    H120527   3.059   7.288   3.883
 6862TIP3    H220528   3.143   7.381   3.967
 6863TIP3   OH220529   7.404   3.463   3.077
 6863TIP3    H120530   7.398   3.425   2.990
 6863TIP3    H220531   7.358   3.402   3.134
 6864TIP3   OH220532   0.846   2.583   5.499
 6864TIP3    H120533   0.844   2.677   5.522
 6864TIP3    H220534   0.887   2.580   5.413
 6865TIP3   OH220535   7.861   2.480   3.404
 6865TIP3    H120536   7.953   2.472   3.426
 6865TIP3    H220537   7.836   2.568   3.433
 6866TIP3   OH220538   5.959   3.488   2.112
 6866TIP3    H120539   5.874   3.444   2.106
 6866TIP3    H220540   5.963   3.520   2.202
 6867TIP3   OH220541   3.050   6.136   2.015
 6867TIP3    H120542   3.097   6.118   2.097
 6867TIP3    H220543   3.111   6.106   1.947
 6868TIP3   OH220544   1.392   6.050   4.831
 6868TIP3    H120545   1.431   6.096   4.757
 6868TIP3    H220546   1.364   6.120   4.890
 6869TIP3   OH220547   3.641   3.355   3.162
 6869TIP3    H120548   3.552   3.327   3.139
 6869TIP3    H220549   3.641   3.449   3.147
 6870TIP3   OH220550   7.898   1.479   1.531
 6870TIP3    H120551   7.943   1.538   1.591
 6870TIP3    H220552   7.826   1.532   1.496
 6871TIP3   OH220553   6.497   7.455   3.723
 6871TIP3    H120554   6.518   7.509   3.647
 6871TIP3    H220555   6.567   7.474   3.785
 6872TIP3   OH220556   7.857   0.956   5.759
 6872TIP3    H120557   7.917   1.024   5.729
 6872TIP3    H220558   7.780   0.965   5.703
 6873TIP3   OH220559   8.291   2.707   4.641
 6873TIP3    H120560   8.272   2.701   4.735
 6873TIP3    H220561   8.242   2.635   4.601
 6874TIP3   OH220562   7.223   0.243   6.805
 6874TIP3    H120563   7.194   0.331   6.829
 6874TIP3    H220564   7.294   0.224   6.867
 6875TIP3   OH220565   2.022   4.480   3.991
 6875TIP3    H120566   1.988   4.433   3.915
 6875TIP3    H220567   2.086   4.541   3.954
 6876TIP3   OH220568   1.620   1.385   3.354
 6876TIP3    H120569   1.616   1.358   3.263
 6876TIP3    H220570   1.531   1.371   3.387
 6877TIP3   OH220571   2.722   2.381   6.022
 6877TIP3    H120572   2.742   2.372   6.115
 6877TIP3    H220573   2.660   2.454   6.017
 6878TIP3   OH220574   6.480   3.020   5.105
 6878TIP3    H120575   6.485   3.038   5.199
 6878TIP3    H220576   6.436   2.935   5.099
 6879TIP3   OH220577   1.601   1.458   2.399
 6879TIP3    H120578   1.578   1.539   2.355
 6879TIP3    H220579   1.587   1.476   2.492
 6880TIP3   OH220580   7.352   1.919   4.397
 6880TIP3    H120581   7.268   1.927   4.442
 6880TIP3    H220582   7.363   2.004   4.353
 6881TIP3   OH220583   1.613   5.160   1.905
 6881TIP3    H120584   1.645   5.079   1.945
 6881TIP3    H220585   1.640   5.229   1.966
 6882TIP3   OH220586   8.013   4.950   2.898
 6882TIP3    H120587   8.059   5.011   2.957
 6882TIP3    H220588   8.072   4.940   2.824
 6883TIP3   OH220589   8.360  -0.023   3.514
 6883TIP3    H120590   8.441  -0.042   3.469
 6883TIP3    H220591   8.352   0.073   3.512
 6884TIP3   OH220592   0.779   6.286   6.528
 6884TIP3    H120593   0.761   6.380   6.524
 6884TIP3    H220594   0.692   6.246   6.527
 6885TIP3   OH220595   4.072   6.470   4.081
 6885TIP3    H120596   4.025   6.387   4.095
 6885TIP3    H220597   4.088   6.504   4.169
 6886TIP3   OH220598   3.984   5.468   6.201
 6886TIP3    H120599   4.066   5.444   6.243
 6886TIP3    H220600   3.939   5.384   6.186
 6887TIP3   OH220601   0.757   6.748   1.641
 6887TIP3    H120602   0.784   6.708   1.558
 6887TIP3    H220603   0.663   6.761   1.632
 6888TIP3   OH220604   6.877   6.030   5.403
 6888TIP3    H120605   6.972   6.041   5.406
 6888TIP3    H220606   6.852   6.062   5.316
 6889TIP3   OH220607   4.591   4.947   5.454
 6889TIP3    H120608   4.631   4.876   5.404
 6889TIP3    H220609   4.512   4.969   5.406
 6890TIP3   OH220610   0.877   4.689   0.535
 6890TIP3    H120611   0.937   4.735   0.476
 6890TIP3    H220612   0.851   4.756   0.598
 6891TIP3   OH220613   7.264   2.241   5.471
 6891TIP3    H120614   7.293   2.156   5.436
 6891TIP3    H220615   7.254   2.226   5.565
 6892TIP3   OH220616   6.426   1.548   2.793
 6892TIP3    H120617   6.428   1.471   2.737
 6892TIP3    H220618   6.509   1.546   2.840
 6893TIP3   OH220619   3.359   6.952   2.314
 6893TIP3    H120620   3.390   6.865   2.288
 6893TIP3    H220621   3.270   6.957   2.279
 6894TIP3   OH220622   0.670   5.985   2.977
 6894TIP3    H120623   0.686   6.074   3.008
 6894TIP3    H220624   0.756   5.950   2.956
 6895TIP3   OH220625   6.939   2.071   5.465
 6895TIP3    H120626   7.022   2.039   5.430
 6895TIP3    H220627   6.940   2.165   5.446
 6896TIP3   OH220628   5.968   3.816   4.189
 6896TIP3    H120629   5.931   3.871   4.120
 6896TIP3    H220630   6.012   3.878   4.247
 6897TIP3   OH220631   7.330   0.098   4.506
 6897TIP3    H120632   7.319   0.174   4.563
 6897TIP3    H220633   7.402   0.049   4.545
 6898TIP3   OH220634   4.953   0.227   5.556
 6898TIP3    H120635   4.966   0.304   5.501
 6898TIP3    H220636   5.019   0.165   5.527
 6899TIP3   OH220637   7.152   3.158   3.476
 6899TIP3    H120638   7.111   3.087   3.428
 6899TIP3    H220639   7.241   3.128   3.492
 6900TIP3   OH220640   3.950   5.746   2.927
 6900TIP3    H120641   3.962   5.781   2.839
 6900TIP3    H220642   3.862   5.708   2.927
 6901TIP3   OH220643   5.362   4.520   3.550
 6901TIP3    H120644   5.424   4.592   3.566
 6901TIP3    H220645   5.418   4.445   3.531
 6902TIP3   OH220646   7.198   3.669   0.520
 6902TIP3    H120647   7.104   3.678   0.536
 6902TIP3    H220648   7.220   3.583   0.557
 6903TIP3   OH220649   6.415   5.563   3.061
 6903TIP3    H120650   6.437   5.654   3.078
 6903TIP3    H220651   6.334   5.567   3.010
 6904TIP3   OH220652   5.381   1.906   0.680
 6904TIP3    H120653   5.360   1.932   0.770
 6904TIP3    H220654   5.301   1.927   0.630
 6905TIP3   OH220655   1.501   4.904   3.128
 6905TIP3    H120656   1.554   4.832   3.163
 6905TIP3    H220657   1.411   4.874   3.137
 6906TIP3   OH220658   5.604   0.912   0.103
 6906TIP3    H120659   5.562   0.828   0.089
 6906TIP3    H220660   5.691   0.891   0.137
 6907TIP3   OH220661   6.714   6.914   4.839
 6907TIP3    H120662   6.655   6.977   4.880
 6907TIP3    H220663   6.656   6.855   4.790
 6908TIP3   OH220664   2.871   0.230   4.430
 6908TIP3    H120665   2.961   0.232   4.400
 6908TIP3    H220666   2.878   0.221   4.526
 6909TIP3   OH220667   2.496   4.822   3.823
 6909TIP3    H120668   2.522   4.738   3.860
 6909TIP3    H220669   2.539   4.825   3.737
 6910TIP3   OH220670   7.227   2.515   0.150
 6910TIP3    H120671   7.296   2.484   0.090
 6910TIP3    H220672   7.153   2.535   0.093
 6911TIP3   OH220673   2.664   5.262   1.456
 6911TIP3    H120674   2.661   5.227   1.545
 6911TIP3    H220675   2.650   5.187   1.399
 6912TIP3   OH220676   6.659   6.511   2.289
 6912TIP3    H120677   6.593   6.495   2.221
 6912TIP3    H220678   6.729   6.448   2.269
 6913TIP3   OH220679   2.342   6.819   4.223
 6913TIP3    H120680   2.431   6.826   4.189
 6913TIP3    H220681   2.341   6.876   4.300
 6914TIP3   OH220682   1.504   0.301   6.446
 6914TIP3    H120683   1.592   0.317   6.413
 6914TIP3    H220684   1.478   0.218   6.405
 6915TIP3   OH220685   6.163   4.941   4.850
 6915TIP3    H120686   6.086   4.914   4.799
 6915TIP3    H220687   6.162   4.883   4.927
 6916TIP3   OH220688   7.917   6.472   3.920
 6916TIP3    H120689   7.892   6.442   4.008
 6916TIP3    H220690   8.008   6.498   3.929
 6917TIP3   OH220691   6.643   5.533   3.527
 6917TIP3    H120692   6.643   5.598   3.458
 6917TIP3    H220693   6.736   5.516   3.545
 6918TIP3   OH220694   2.775   5.017   5.426
 6918TIP3    H120695   2.855   5.012   5.374
 6918TIP3    H220696   2.784   5.096   5.478
 6919TIP3   OH220697   1.609   1.138   5.065
 6919TIP3    H120698   1.633   1.112   4.976
 6919TIP3    H220699   1.520   1.173   5.056
 6920TIP3   OH220700   1.705   7.191   6.379
 6920TIP3    H120701   1.751   7.265   6.419
 6920TIP3    H220702   1.628   7.230   6.339
 6921TIP3   OH220703   6.976   2.427   0.357
 6921TIP3    H120704   6.954   2.378   0.278
 6921TIP3    H220705   7.067   2.453   0.344
 6922TIP3   OH220706   6.958   6.376   6.218
 6922TIP3    H120707   6.883   6.365   6.276
 6922TIP3    H220708   7.010   6.296   6.231
 6923TIP3   OH220709   1.353   5.128   2.818
 6923TIP3    H120710   1.366   5.038   2.848
 6923TIP3    H220711   1.314   5.119   2.731
 6924TIP3   OH220712   0.059   2.743   6.324
 6924TIP3    H120713   0.146   2.744   6.364
 6924TIP3    H220714   0.020   2.827   6.350
 6925TIP3   OH220715   1.661   1.049   0.466
 6925TIP3    H120716   1.655   1.105   0.389
 6925TIP3    H220717   1.609   1.095   0.532
 6926TIP3   OH220718   0.307   7.647   6.633
 6926TIP3    H120719   0.402   7.655   6.622
 6926TIP3    H220720   0.281   7.583   6.567
 6927TIP3   OH220721   8.006   4.592   4.888
 6927TIP3    H120722   8.026   4.648   4.963
 6927TIP3    H220723   8.052   4.510   4.907
 6928TIP3   OH220724   2.163   6.521   2.367
 6928TIP3    H120725   2.248   6.477   2.365
 6928TIP3    H220726   2.134   6.520   2.275
 6929TIP3   OH220727   5.630   4.652   3.775
 6929TIP3    H120728   5.566   4.723   3.778
 6929TIP3    H220729   5.627   4.615   3.863
 6930TIP3   OH220730   0.787   4.441   1.412
 6930TIP3    H120731   0.764   4.531   1.433
 6930TIP3    H220732   0.721   4.414   1.349
 6931TIP3   OH220733   7.935   0.522   4.663
 6931TIP3    H120734   7.954   0.525   4.757
 6931TIP3    H220735   7.864   0.584   4.651
 6932TIP3   OH220736   0.294   1.663   6.597
 6932TIP3    H120737   0.266   1.579   6.562
 6932TIP3    H220738   0.349   1.701   6.528
 6933TIP3   OH220739   5.666   3.440   2.018
 6933TIP3    H120740   5.664   3.357   2.065
 6933TIP3    H220741   5.588   3.439   1.963
 6934TIP3   OH220742   6.377   5.799   4.167
 6934TIP3    H120743   6.410   5.813   4.256
 6934TIP3    H220744   6.453   5.767   4.119
 6935TIP3   OH220745   7.427   7.202   1.682
 6935TIP3    H120746   7.481   7.138   1.727
 6935TIP3    H220747   7.340   7.193   1.721
 6936TIP3   OH220748   1.050   7.025   0.697
 6936TIP3    H120749   0.954   7.019   0.701
 6936TIP3    H220750   1.071   6.995   0.608
 6937TIP3   OH220751   1.949   2.942   3.596
 6937TIP3    H120752   1.993   2.860   3.576
 6937TIP3    H220753   1.956   2.994   3.515
 6938TIP3   OH220754   6.354   0.558   3.630
 6938TIP3    H120755   6.395   0.593   3.550
 6938TIP3    H220756   6.407   0.594   3.701
 6939TIP3   OH220757   4.648   3.459   5.430
 6939TIP3    H120758   4.620   3.402   5.502
 6939TIP3    H220759   4.588   3.439   5.359
 6940TIP3   OH220760   8.207   1.724   5.145
 6940TIP3    H120761   8.270   1.705   5.075
 6940TIP3    H220762   8.262   1.746   5.221
 6941TIP3   OH220763   4.563   1.834   5.161
 6941TIP3    H120764   4.609   1.794   5.087
 6941TIP3    H220765   4.632   1.882   5.208
 6942TIP3   OH220766   5.814   3.117   6.134
 6942TIP3    H120767   5.848   3.093   6.220
 6942TIP3    H220768   5.864   3.062   6.073
 6943TIP3   OH220769   1.440   5.420   1.768
 6943TIP3    H120770   1.406   5.437   1.680
 6943TIP3    H220771   1.518   5.475   1.774
 6944TIP3   OH220772   5.903   7.128   2.306
 6944TIP3    H120773   5.889   7.083   2.223
 6944TIP3    H220774   5.830   7.101   2.361
 6945TIP3   OH220775   6.049   7.236   1.274
 6945TIP3    H120776   6.048   7.298   1.201
 6945TIP3    H220777   5.993   7.276   1.341
 6946TIP3   OH220778   2.795   4.585   0.343
 6946TIP3    H120779   2.787   4.501   0.388
 6946TIP3    H220780   2.769   4.567   0.253
 6947TIP3   OH220781   4.396   1.147   3.527
 6947TIP3    H120782   4.330   1.093   3.571
 6947TIP3    H220783   4.445   1.188   3.599
 6948TIP3   OH220784   6.713   1.912   2.163
 6948TIP3    H120785   6.656   1.979   2.200
 6948TIP3    H220786   6.777   1.962   2.111
 6949TIP3   OH220787   7.082   3.919   0.147
 6949TIP3    H120788   6.991   3.941   0.164
 6949TIP3    H220789   7.108   3.863   0.220
 6950TIP3   OH220790   2.818   1.376   6.320
 6950TIP3    H120791   2.870   1.298   6.338
 6950TIP3    H220792   2.753   1.379   6.390
 6951TIP3   OH220793   8.310   1.599   4.941
 6951TIP3    H120794   8.220   1.575   4.959
 6951TIP3    H220795   8.337   1.540   4.870
 6952TIP3   OH220796   3.950   1.630   1.370
 6952TIP3    H120797   3.963   1.668   1.283
 6952TIP3    H220798   4.001   1.687   1.428
 6953TIP3   OH220799   3.581   5.004   0.592
 6953TIP3    H120800   3.650   5.043   0.538
 6953TIP3    H220801   3.521   4.964   0.529
 6954TIP3   OH220802   3.325   4.730   6.604
 6954TIP3    H120803   3.363   4.648   6.636
 6954TIP3    H220804   3.387   4.797   6.632
 6955TIP3   OH220805   2.021   6.929   1.017
 6955TIP3    H120806   1.951   6.873   1.050
 6955TIP3    H220807   1.993   6.954   0.929
 6956TIP3   OH220808   8.008   4.996   4.643
 6956TIP3    H120809   7.958   4.929   4.689
 6956TIP3    H220810   8.002   5.073   4.699
 6957TIP3   OH220811   1.561   6.612   4.634
 6957TIP3    H120812   1.507   6.544   4.592
 6957TIP3    H220813   1.504   6.690   4.635
 6958TIP3   OH220814   5.407   7.878   2.554
 6958TIP3    H120815   5.469   7.818   2.594
 6958TIP3    H220816   5.461   7.947   2.517
 6959TIP3   OH220817   4.939   1.584   2.366
 6959TIP3    H120818   4.905   1.495   2.365
 6959TIP3    H220819   4.885   1.630   2.430
 6960TIP3   OH220820   2.089   1.633   3.339
 6960TIP3    H120821   2.010   1.608   3.386
 6960TIP3    H220822   2.160   1.617   3.401
 6961TIP3   OH220823   7.840   4.241   4.850
 6961TIP3    H120824   7.906   4.188   4.805
 6961TIP3    H220825   7.887   4.320   4.877
 6962TIP3   OH220826   1.119   1.320   0.217
 6962TIP3    H120827   1.039   1.295   0.171
 6962TIP3    H220828   1.150   1.240   0.259
 6963TIP3   OH220829   6.912   1.558   4.552
 6963TIP3    H120830   6.869   1.485   4.506
 6963TIP3    H220831   7.005   1.546   4.532
 6964TIP3   OH220832   0.245   7.779   3.543
 6964TIP3    H120833   0.302   7.737   3.608
 6964TIP3    H220834   0.256   7.873   3.558
 6965TIP3   OH220835   0.054   7.661   6.742
 6965TIP3    H120836   0.058   7.752   6.713
 6965TIP3    H220837   0.143   7.628   6.732
 6966TIP3   OH220838   1.425   1.191   2.640
 6966TIP3    H120839   1.460   1.276   2.665
 6966TIP3    H220840   1.365   1.168   2.712
 6967TIP3   OH220841   8.201   4.634   5.613
 6967TIP3    H120842   8.189   4.560   5.554
 6967TIP3    H220843   8.289   4.667   5.594
 6968TIP3   OH220844   4.094   5.974   1.191
 6968TIP3    H120845   4.008   5.958   1.229
 6968TIP3    H220846   4.118   6.061   1.223
 6969TIP3   OH220847   3.265   3.027   5.004
 6969TIP3    H120848   3.252   2.950   5.060
 6969TIP3    H220849   3.216   3.097   5.048
 6970TIP3   OH220850   6.196   3.033   6.647
 6970TIP3    H120851   6.175   2.979   6.572
 6970TIP3    H220852   6.243   2.975   6.707
 6971TIP3   OH220853   5.344   4.496   3.824
 6971TIP3    H120854   5.300   4.578   3.848
 6971TIP3    H220855   5.338   4.493   3.729
 6972TIP3   OH220856   3.843   6.637   5.463
 6972TIP3    H120857   3.810   6.592   5.541
 6972TIP3    H220858   3.764   6.657   5.412
 6973TIP3   OH220859   4.428   7.269   6.826
 6973TIP3    H120860   4.482   7.254   6.748
 6973TIP3    H220861   4.491   7.291   6.895
 6974TIP3   OH220862   0.528   6.143   5.402
 6974TIP3    H120863   0.487   6.060   5.379
 6974TIP3    H220864   0.532   6.143   5.498
 6975TIP3   OH220865   3.131   2.738   3.754
 6975TIP3    H120866   3.114   2.830   3.733
 6975TIP3    H220867   3.052   2.709   3.800
 6976TIP3   OH220868   4.567   2.490   0.807
 6976TIP3    H120869   4.483   2.505   0.764
 6976TIP3    H220870   4.616   2.572   0.793
 6977TIP3   OH220871   4.465   7.502   5.056
 6977TIP3    H120872   4.434   7.504   5.147
 6977TIP3    H220873   4.471   7.595   5.031
 6978TIP3   OH220874   8.308   7.346   4.063
 6978TIP3    H120875   8.288   7.404   3.989
 6978TIP3    H220876   8.242   7.367   4.129
 6979TIP3   OH220877   4.106   6.212   5.108
 6979TIP3    H120878   4.116   6.194   5.201
 6979TIP3    H220879   4.063   6.297   5.104
 6980TIP3   OH220880   1.104  -0.005   2.718
 6980TIP3    H120881   1.078  -0.029   2.807
 6980TIP3    H220882   1.180   0.052   2.729
 6981TIP3   OH220883   7.871   0.494   5.297
 6981TIP3    H120884   7.828   0.466   5.216
 6981TIP3    H220885   7.895   0.412   5.341
 6982TIP3   OH220886   0.122   6.615   0.920
 6982TIP3    H120887   0.150   6.542   0.974
 6982TIP3    H220888   0.191   6.624   0.854
 6983TIP3   OH220889   3.510   6.017   0.142
 6983TIP3    H120890   3.494   6.090   0.203
 6983TIP3    H220891   3.562   5.955   0.193
 6984TIP3   OH220892   1.837   7.685   3.979
 6984TIP3    H120893   1.825   7.752   4.047
 6984TIP3    H220894   1.780   7.714   3.907
 6985TIP3   OH220895   4.866   5.898   4.667
 6985TIP3    H120896   4.803   5.857   4.608
 6985TIP3    H220897   4.813   5.945   4.730
 6986TIP3   OH220898   3.676   7.874   1.610
 6986TIP3    H120899   3.592   7.831   1.626
 6986TIP3    H220900   3.665   7.962   1.645
 6987TIP3   OH220901   2.630   4.925   2.994
 6987TIP3    H120902   2.611   4.933   3.088
 6987TIP3    H220903   2.618   4.832   2.976
 6988TIP3   OH220904   5.898   0.273   2.067
 6988TIP3    H120905   5.988   0.243   2.077
 6988TIP3    H220906   5.860   0.267   2.155
 6989TIP3   OH220907   2.709   2.050   5.202
 6989TIP3    H120908   2.617   2.037   5.225
 6989TIP3    H220909   2.722   2.145   5.204
 6990TIP3   OH220910   2.771   1.443   4.981
 6990TIP3    H120911   2.832   1.421   5.052
 6990TIP3    H220912   2.700   1.491   5.023
 6991TIP3   OH220913   6.718   7.729   6.656
 6991TIP3    H120914   6.714   7.693   6.568
 6991TIP3    H220915   6.711   7.824   6.644
 6992TIP3   OH220916   1.143   2.561   0.696
 6992TIP3    H120917   1.152   2.605   0.612
 6992TIP3    H220918   1.064   2.508   0.688
 6993TIP3   OH220919   5.236   6.812   3.085
 6993TIP3    H120920   5.198   6.835   3.170
 6993TIP3    H220921   5.186   6.736   3.057
 6994TIP3   OH220922   1.519   5.783   2.011
 6994TIP3    H120923   1.427   5.760   2.000
 6994TIP3    H220924   1.567   5.703   1.987
 6995TIP3   OH220925   7.706   2.680   0.664
 6995TIP3    H120926   7.617   2.649   0.683
 6995TIP3    H220927   7.747   2.692   0.749
 6996TIP3   OH220928   7.400   3.910   5.926
 6996TIP3    H120929   7.469   3.954   5.876
 6996TIP3    H220930   7.437   3.825   5.949
 6997TIP3   OH220931   1.162   1.885   2.597
 6997TIP3    H120932   1.250   1.848   2.605
 6997TIP3    H220933   1.140   1.911   2.687
 6998TIP3   OH220934   5.326   4.710   1.058
 6998TIP3    H120935   5.340   4.799   1.026
 6998TIP3    H220936   5.395   4.697   1.123
 6999TIP3   OH220937   5.962   0.376   5.578
 6999TIP3    H120938   6.049   0.348   5.550
 6999TIP3    H220939   5.908   0.297   5.572
 7000TIP3   OH220940   5.594   3.879   4.346
 7000TIP3    H120941   5.508   3.846   4.370
 7000TIP3    H220942   5.577   3.942   4.276
 7001TIP3   OH220943   5.908   1.136   1.436
 7001TIP3    H120944   5.988   1.180   1.467
 7001TIP3    H220945   5.859   1.205   1.392
 7002TIP3   OH220946   7.371   7.840   0.299
 7002TIP3    H120947   7.349   7.747   0.311
 7002TIP3    H220948   7.286   7.883   0.287
 7003TIP3   OH220949   2.513   7.616   1.544
 7003TIP3    H120950   2.550   7.574   1.622
 7003TIP3    H220951   2.492   7.544   1.486
 7004TIP3   OH220952   1.457   1.262   3.712
 7004TIP3    H120953   1.472   1.181   3.760
 7004TIP3    H220954   1.371   1.252   3.673
 7005TIP3   OH220955   2.006   7.236   1.320
 7005TIP3    H120956   2.055   7.317   1.336
 7005TIP3    H220957   2.069   7.177   1.280
 7006TIP3   OH220958   5.195   3.377   6.184
 7006TIP3    H120959   5.249   3.455   6.184
 7006TIP3    H220960   5.105   3.410   6.192
 7007TIP3   OH220961   2.440   5.033   6.577
 7007TIP3    H120962   2.512   4.971   6.586
 7007TIP3    H220963   2.471   5.113   6.621
 7008TIP3   OH220964   7.399   1.897   2.908
 7008TIP3    H120965   7.316   1.877   2.865
 7008TIP3    H220966   7.424   1.983   2.873
 7009TIP3   OH220967   8.354   0.851   0.752
 7009TIP3    H120968   8.376   0.830   0.843
 7009TIP3    H220969   8.261   0.877   0.756
 7010TIP3   OH220970   2.047   0.253   5.528
 7010TIP3    H120971   2.095   0.304   5.462
 7010TIP3    H220972   1.975   0.214   5.479
 7011TIP3   OH220973   2.473   7.848   2.274
 7011TIP3    H120974   2.396   7.832   2.220
 7011TIP3    H220975   2.484   7.769   2.326
 7012TIP3   OH220976   7.508   4.144   6.821
 7012TIP3    H120977   7.546   4.059   6.799
 7012TIP3    H220978   7.583   4.203   6.829
 7013TIP3   OH220979   2.309   1.395   6.517
 7013TIP3    H120980   2.236   1.414   6.459
 7013TIP3    H220981   2.351   1.480   6.532
 7014TIP3   OH220982   3.179   5.199   0.794
 7014TIP3    H120983   3.197   5.186   0.888
 7014TIP3    H220984   3.245   5.263   0.766
 7015TIP3   OH220985   7.691   7.695   4.878
 7015TIP3    H120986   7.759   7.667   4.817
 7015TIP3    H220987   7.708   7.788   4.891
 7016TIP3   OH220988   8.273   3.289   3.451
 7016TIP3    H120989   8.196   3.235   3.467
 7016TIP3    H220990   8.264   3.317   3.360
 7017TIP3   OH220991   6.230   4.900   3.431
 7017TIP3    H120992   6.310   4.848   3.421
 7017TIP3    H220993   6.194   4.873   3.515
 7018TIP3   OH220994   1.919   3.936   4.638
 7018TIP3    H120995   1.828   3.936   4.668
 7018TIP3    H220996   1.915   3.902   4.549
 7019TIP3   OH220997   6.580   7.738   5.621
 7019TIP3    H120998   6.569   7.645   5.602
 7019TIP3    H220999   6.496   7.777   5.598
 7020TIP3   OH221000   1.121   5.637   0.503
 7020TIP3    H121001   1.100   5.571   0.436
 7020TIP3    H221002   1.175   5.701   0.458
 7021TIP3   OH221003   2.896   2.352   1.724
 7021TIP3    H121004   2.830   2.341   1.793
 7021TIP3    H221005   2.940   2.267   1.720
 7022TIP3   OH221006   2.924   0.326   5.283
 7022TIP3    H121007   2.858   0.287   5.227
 7022TIP3    H221008   2.891   0.415   5.300
 7023TIP3   OH221009   4.752   3.115   0.793
 7023TIP3    H121010   4.797   3.199   0.782
 7023TIP3    H221011   4.697   3.106   0.715
 7024TIP3   OH221012   4.043   2.935   3.685
 7024TIP3    H121013   4.057   2.906   3.595
 7024TIP3    H221014   3.988   3.013   3.676
 7025TIP3   OH221015   6.792   1.251   0.787
 7025TIP3    H121016   6.733   1.211   0.850
 7025TIP3    H221017   6.735   1.308   0.735
 7026TIP3   OH221018   3.443   4.463   1.153
 7026TIP3    H121019   3.509   4.451   1.084
 7026TIP3    H221020   3.476   4.412   1.227
 7027TIP3   OH221021   4.951   3.809   1.022
 7027TIP3    H121022   4.993   3.726   1.044
 7027TIP3    H221023   4.886   3.822   1.091
 7028TIP3   OH221024   7.307   5.468   1.192
 7028TIP3    H121025   7.400   5.489   1.200
 7028TIP3    H221026   7.300   5.422   1.109
 7029TIP3   OH221027   7.493   0.947   3.852
 7029TIP3    H121028   7.522   0.864   3.889
 7029TIP3    H221029   7.543   1.013   3.900
 7030TIP3   OH221030   3.292   4.527   2.268
 7030TIP3    H121031   3.242   4.575   2.334
 7030TIP3    H221032   3.375   4.576   2.260
 7031TIP3   OH221033   4.033   7.411   2.413
 7031TIP3    H121034   4.127   7.416   2.427
 7031TIP3    H221035   4.006   7.501   2.396
 7032TIP3   OH221036   7.762   7.868   3.660
 7032TIP3    H121037   7.785   7.848   3.569
 7032TIP3    H221038   7.822   7.814   3.712
 7033TIP3   OH221039   7.063   6.656   6.197
 7033TIP3    H121040   7.030   6.570   6.224
 7033TIP3    H221041   7.070   6.650   6.102
 7034TIP3   OH221042   8.067   6.606   4.236
 7034TIP3    H121043   8.127   6.667   4.193
 7034TIP3    H221044   8.083   6.522   4.191
 7035TIP3   OH221045   5.789   0.042   5.166
 7035TIP3    H121046   5.872  -0.005   5.156
 7035TIP3    H221047   5.755   0.015   5.251
 7036TIP3   OH221048   0.830   0.741   6.892
 7036TIP3    H121049   0.866   0.795   6.822
 7036TIP3    H221050   0.798   0.662   6.849
 7037TIP3   OH221051   6.734   7.290   4.165
 7037TIP3    H121052   6.776   7.332   4.240
 7037TIP3    H221053   6.798   7.227   4.134
 7038TIP3   OH221054   2.967   6.441   6.629
 7038TIP3    H121055   3.030   6.431   6.557
 7038TIP3    H221056   2.929   6.528   6.616
 7039TIP3   OH221057   3.857   0.602   4.128
 7039TIP3    H121058   3.767   0.623   4.105
 7039TIP3    H221059   3.884   0.673   4.187
 7040TIP3   OH221060   1.996   6.830   6.060
 7040TIP3    H121061   1.998   6.814   6.154
 7040TIP3    H221062   2.071   6.781   6.026
 7041TIP3   OH221063   3.806   2.973   3.006
 7041TIP3    H121064   3.821   2.949   3.097
 7041TIP3    H221065   3.826   2.893   2.956
 7042TIP3   OH221066   8.210   0.912   2.504
 7042TIP3    H121067   8.239   0.875   2.420
 7042TIP3    H221068   8.133   0.964   2.481
 7043TIP3   OH221069   1.243   4.830   1.349
 7043TIP3    H121070   1.153   4.800   1.363
 7043TIP3    H221071   1.273   4.855   1.437
 7044TIP3   OH221072   5.509   0.904   2.371
 7044TIP3    H121073   5.593   0.913   2.327
 7044TIP3    H221074   5.528   0.921   2.463
 7045TIP3   OH221075   1.912   5.682   4.429
 7045TIP3    H121076   1.947   5.770   4.420
 7045TIP3    H221077   1.983   5.624   4.403
 7046TIP3   OH221078   5.391   2.574   6.013
 7046TIP3    H121079   5.450   2.572   5.938
 7046TIP3    H221080   5.445   2.603   6.086
 7047TIP3   OH221081   7.872   6.868   2.036
 7047TIP3    H121082   7.878   6.963   2.043
 7047TIP3    H221083   7.953   6.835   2.074
 7048TIP3   OH221084   6.772   3.743   6.251
 7048TIP3    H121085   6.836   3.773   6.187
 7048TIP3    H221086   6.825   3.708   6.323
 7049TIP3   OH221087   4.080   5.185   0.395
 7049TIP3    H121088   4.165   5.189   0.441
 7049TIP3    H221089   4.102   5.152   0.308
 7050TIP3   OH221090   2.158   0.405   5.307
 7050TIP3    H121091   2.202   0.489   5.321
 7050TIP3    H221092   2.230   0.342   5.295
 7051TIP3   OH221093   2.167   3.726   2.551
 7051TIP3    H121094   2.180   3.795   2.617
 7051TIP3    H221095   2.254   3.716   2.511
 7052TIP3   OH221096   3.071   0.517   1.490
 7052TIP3    H121097   3.087   0.567   1.570
 7052TIP3    H221098   2.979   0.490   1.498
 7053TIP3   OH221099   6.030   4.243   3.647
 7053TIP3    H121100   6.111   4.238   3.697
 7053TIP3    H221101   5.961   4.251   3.714
 7054TIP3   OH221102   5.748   6.323   4.488
 7054TIP3    H121103   5.760   6.376   4.409
 7054TIP3    H221104   5.658   6.291   4.482
 7055TIP3   OH221105   8.013   5.978   3.116
 7055TIP3    H121106   8.081   5.911   3.107
 7055TIP3    H221107   7.946   5.952   3.053
 7056TIP3   OH221108   2.716   7.359   5.056
 7056TIP3    H121109   2.698   7.265   5.046
 7056TIP3    H221110   2.638   7.394   5.099
 7057TIP3   OH221111   7.304   1.242   0.163
 7057TIP3    H121112   7.359   1.240   0.085
 7057TIP3    H221113   7.251   1.162   0.157
 7058TIP3   OH221114   7.088   2.744   1.731
 7058TIP3    H121115   7.015   2.691   1.764
 7058TIP3    H221116   7.054   2.833   1.730
 7059TIP3   OH221117   3.365   2.353   1.613
 7059TIP3    H121118   3.407   2.268   1.609
 7059TIP3    H221119   3.429   2.409   1.658
 7060TIP3   OH221120   0.738   2.366   6.244
 7060TIP3    H121121   0.777   2.335   6.325
 7060TIP3    H221122   0.737   2.462   6.253
 7061TIP3   OH221123   6.433   5.555   4.914
 7061TIP3    H121124   6.368   5.625   4.912
 7061TIP3    H221125   6.514   5.596   4.885
 7062TIP3   OH221126   5.692   0.879   6.742
 7062TIP3    H121127   5.609   0.858   6.699
 7062TIP3    H221128   5.675   0.864   6.835
 7063TIP3   OH221129   1.216   0.574   6.829
 7063TIP3    H121130   1.250   0.539   6.747
 7063TIP3    H221131   1.159   0.646   6.803
 7064TIP3   OH221132   1.104   0.315   2.353
 7064TIP3    H121133   1.033   0.282   2.297
 7064TIP3    H221134   1.134   0.238   2.402
 7065TIP3   OH221135   3.450   5.645   5.297
 7065TIP3    H121136   3.451   5.559   5.255
 7065TIP3    H221137   3.422   5.705   5.228
 7066TIP3   OH221138   0.661   7.454   4.788
 7066TIP3    H121139   0.613   7.537   4.792
 7066TIP3    H221140   0.689   7.447   4.697
 7067TIP3   OH221141   0.986   2.813   3.840
 7067TIP3    H121142   0.921   2.744   3.828
 7067TIP3    H221143   0.942   2.879   3.893
 7068TIP3   OH221144   0.557   7.132   1.968
 7068TIP3    H121145   0.550   7.223   1.999
 7068TIP3    H221146   0.506   7.081   2.031
 7069TIP3   OH221147   2.656   2.715   4.532
 7069TIP3    H121148   2.585   2.682   4.476
 7069TIP3    H221149   2.731   2.659   4.512
 7070TIP3   OH221150   0.987   2.610   1.895
 7070TIP3    H121151   1.057   2.650   1.947
 7070TIP3    H221152   0.986   2.662   1.814
 7071TIP3   OH221153   4.904   4.903   6.598
 7071TIP3    H121154   4.858   4.897   6.514
 7071TIP3    H221155   4.977   4.963   6.582
 7072TIP3   OH221156   8.204   2.243   4.863
 7072TIP3    H121157   8.166   2.156   4.870
 7072TIP3    H221158   8.187   2.283   4.949
 7073TIP3   OH221159   3.943   0.298   6.650
 7073TIP3    H121160   3.996   0.233   6.696
 7073TIP3    H221161   4.006   0.364   6.621
 7074TIP3   OH221162   5.818   3.473   3.973
 7074TIP3    H121163   5.852   3.539   3.912
 7074TIP3    H221164   5.752   3.520   4.024
 7075TIP3   OH221165   8.138   3.215   2.790
 7075TIP3    H121166   8.196   3.189   2.718
 7075TIP3    H221167   8.138   3.311   2.787
 7076TIP3   OH221168   2.739   0.825   4.420
 7076TIP3    H121169   2.829   0.858   4.430
 7076TIP3    H221170   2.727   0.767   4.496
 7077TIP3   OH221171   5.047   6.909   2.012
 7077TIP3    H121172   5.034   6.815   2.005
 7077TIP3    H221173   5.002   6.934   2.093
 7078TIP3   OH221174   4.841   2.518   4.565
 7078TIP3    H121175   4.759   2.495   4.521
 7078TIP3    H221176   4.846   2.457   4.639
 7079TIP3   OH221177   1.553   1.784   0.809
 7079TIP3    H121178   1.547   1.793   0.714
 7079TIP3    H221179   1.549   1.873   0.842
 7080TIP3   OH221180   8.208   0.468   4.195
 7080TIP3    H121181   8.276   0.401   4.203
 7080TIP3    H221182   8.255   0.549   4.174
 7081TIP3   OH221183   5.264   6.194   2.220
 7081TIP3    H121184   5.266   6.132   2.148
 7081TIP3    H221185   5.351   6.235   2.218
 7082TIP3   OH221186   1.957   0.994   0.310
 7082TIP3    H121187   1.976   1.033   0.224
 7082TIP3    H221188   1.908   1.062   0.356
 7083TIP3   OH221189   4.694   3.631   0.794
 7083TIP3    H121190   4.636   3.576   0.847
 7083TIP3    H221191   4.781   3.597   0.811
 7084TIP3   OH221192   3.902   6.467   1.488
 7084TIP3    H121193   3.850   6.538   1.450
 7084TIP3    H221194   3.951   6.430   1.414
 7085TIP3   OH221195   5.838   4.891   1.080
 7085TIP3    H121196   5.903   4.825   1.056
 7085TIP3    H221197   5.872   4.972   1.043
 7086TIP3   OH221198   0.810   4.005   5.738
 7086TIP3    H121199   0.877   4.051   5.687
 7086TIP3    H221200   0.847   4.000   5.826
 7087TIP3   OH221201   4.465   2.103   3.978
 7087TIP3    H121202   4.528   2.140   3.916
 7087TIP3    H221203   4.383   2.101   3.929
 7088TIP3   OH221204   0.882   7.061   2.796
 7088TIP3    H121205   0.804   7.025   2.838
 7088TIP3    H221206   0.867   7.156   2.796
 7089TIP3   OH221207   5.430   3.838   3.785
 7089TIP3    H121208   5.448   3.749   3.756
 7089TIP3    H221209   5.475   3.845   3.869
 7090TIP3   OH221210   6.234   0.091   2.828
 7090TIP3    H121211   6.313   0.088   2.774
 7090TIP3    H221212   6.265   0.067   2.916
 7091TIP3   OH221213   7.097   0.925   6.417
 7091TIP3    H121214   7.019   0.938   6.363
 7091TIP3    H221215   7.076   0.848   6.471
 7092TIP3   OH221216   5.003   2.451   2.904
 7092TIP3    H121217   4.954   2.474   2.983
 7092TIP3    H221218   4.943   2.473   2.832
 7093TIP3   OH221219   3.639   4.384   4.054
 7093TIP3    H121220   3.711   4.415   4.109
 7093TIP3    H221221   3.663   4.295   4.030
 7094TIP3   OH221222   0.707   0.381   2.291
 7094TIP3    H121223   0.651   0.458   2.296
 7094TIP3    H221224   0.699   0.340   2.378
 7095TIP3   OH221225   1.796   3.510   2.995
 7095TIP3    H121226   1.724   3.534   2.937
 7095TIP3    H221227   1.874   3.541   2.950
 7096TIP3   OH221228   4.097   5.622   6.834
 7096TIP3    H121229   4.159   5.695   6.827
 7096TIP3    H221230   4.039   5.633   6.759
 7097TIP3   OH221231   3.826   7.873   4.476
 7097TIP3    H121232   3.755   7.812   4.498
 7097TIP3    H221233   3.877   7.880   4.556
 7098TIP3   OH221234   7.107   0.162   2.057
 7098TIP3    H121235   7.159   0.082   2.045
 7098TIP3    H221236   7.063   0.175   1.973
 7099TIP3   OH221237   3.599   2.087   3.640
 7099TIP3    H121238   3.582   2.014   3.582
 7099TIP3    H221239   3.648   2.150   3.587
 7100TIP3   OH221240   1.554   6.346   4.843
 7100TIP3    H121241   1.551   6.273   4.781
 7100TIP3    H221242   1.486   6.406   4.813
 7101TIP3   OH221243   4.688   7.659   3.099
 7101TIP3    H121244   4.774   7.673   3.058
 7101TIP3    H221245   4.671   7.566   3.089
 7102TIP3   OH221246   1.455   1.185   1.731
 7102TIP3    H121247   1.535   1.234   1.709
 7102TIP3    H221248   1.425   1.148   1.648
 7103TIP3   OH221249   2.704   5.750   0.190
 7103TIP3    H121250   2.635   5.816   0.194
 7103TIP3    H221251   2.785   5.800   0.188
 7104TIP3   OH221252   4.123   4.652   3.584
 7104TIP3    H121253   4.173   4.722   3.625
 7104TIP3    H221254   4.035   4.689   3.572
 7105TIP3   OH221255   5.890   5.586   3.524
 7105TIP3    H121256   5.818   5.649   3.530
 7105TIP3    H221257   5.857   5.508   3.569
 7106TIP3   OH221258   4.732   5.369   6.257
 7106TIP3    H121259   4.643   5.399   6.238
 7106TIP3    H221260   4.721   5.284   6.299
 7107TIP3   OH221261   0.554   1.350   2.267
 7107TIP3    H121262   0.605   1.398   2.201
 7107TIP3    H221263   0.619   1.326   2.333
 7108TIP3   OH221264   1.992   2.183   1.429
 7108TIP3    H121265   2.072   2.131   1.429
 7108TIP3    H221266   2.022   2.274   1.424
 7109TIP3   OH221267   8.059   5.354   3.315
 7109TIP3    H121268   8.030   5.428   3.262
 7109TIP3    H221269   8.068   5.389   3.404
 7110TIP3   OH221270   2.100   5.629   3.007
 7110TIP3    H121271   2.129   5.539   3.021
 7110TIP3    H221272   2.007   5.622   2.988
 7111TIP3   OH221273   1.126   6.025   4.729
 7111TIP3    H121274   1.209   6.002   4.771
 7111TIP3    H221275   1.072   5.946   4.737
 7112TIP3   OH221276   2.579   6.398   0.963
 7112TIP3    H121277   2.643   6.439   0.905
 7112TIP3    H221278   2.549   6.469   1.020
 7113TIP3   OH221279   0.284   7.476   4.898
 7113TIP3    H121280   0.204   7.425   4.885
 7113TIP3    H221281   0.348   7.413   4.930
 7114TIP3   OH221282   1.351   7.202   1.952
 7114TIP3    H121283   1.423   7.139   1.944
 7114TIP3    H221284   1.291   7.178   1.881
 7115TIP3   OH221285   2.262   0.712   3.730
 7115TIP3    H121286   2.251   0.621   3.758
 7115TIP3    H221287   2.257   0.709   3.634
 7116TIP3   OH221288   6.046   1.043   6.119
 7116TIP3    H121289   6.067   1.133   6.095
 7116TIP3    H221290   6.131   1.002   6.135
 7117TIP3   OH221291   6.384   3.202   0.837
 7117TIP3    H121292   6.387   3.266   0.908
 7117TIP3    H221293   6.361   3.119   0.881
 7118TIP3   OH221294   5.058   2.798   4.805
 7118TIP3    H121295   5.043   2.834   4.717
 7118TIP3    H221296   4.974   2.809   4.850
 7119TIP3   OH221297   4.306   2.400   0.574
 7119TIP3    H121298   4.216   2.377   0.550
 7119TIP3    H221299   4.301   2.493   0.596
 7120TIP3   OH221300   6.324   2.535   4.255
 7120TIP3    H121301   6.334   2.519   4.162
 7120TIP3    H221302   6.230   2.550   4.268
 7121TIP3   OH221303   7.652   5.696   3.055
 7121TIP3    H121304   7.741   5.710   3.023
 7121TIP3    H221305   7.659   5.623   3.116
 7122TIP3   OH221306   3.295   5.926   2.541
 7122TIP3    H121307   3.320   5.858   2.605
 7122TIP3    H221308   3.370   5.984   2.538
 7123TIP3   OH221309   2.131   1.486   0.576
 7123TIP3    H121310   2.206   1.525   0.623
 7123TIP3    H221311   2.091   1.560   0.530
 7124TIP3   OH221312   3.359   6.782   6.201
 7124TIP3    H121313   3.295   6.846   6.169
 7124TIP3    H221314   3.346   6.781   6.296
 7125TIP3   OH221315   7.442   5.502   4.632
 7125TIP3    H121316   7.407   5.590   4.625
 7125TIP3    H221317   7.382   5.457   4.692
 7126TIP3   OH221318   6.290   5.624   6.756
 7126TIP3    H121319   6.221   5.659   6.699
 7126TIP3    H221320   6.256   5.636   6.844
 7127TIP3   OH221321   7.456   7.877   0.022
 7127TIP3    H121322   7.449   7.801   0.081
 7127TIP3    H221323   7.447   7.953   0.080
 7128TIP3   OH221324   3.174   4.510   3.860
 7128TIP3    H121325   3.260   4.468   3.863
 7128TIP3    H221326   3.186   4.591   3.910
 7129TIP3   OH221327   4.716   6.790   5.068
 7129TIP3    H121328   4.767   6.868   5.090
 7129TIP3    H221329   4.725   6.783   4.973
 7130TIP3   OH221330   3.990   6.042   2.161
 7130TIP3    H121331   3.953   6.114   2.109
 7130TIP3    H221332   4.011   5.974   2.097
 7131TIP3   OH221333   5.883   7.743   3.136
 7131TIP3    H121334   5.876   7.816   3.197
 7131TIP3    H221335   5.823   7.677   3.171
 7132TIP3   OH221336   7.245   7.510   1.072
 7132TIP3    H121337   7.202   7.445   1.128
 7132TIP3    H221338   7.186   7.585   1.072
 7133TIP3   OH221339   1.330   6.215   0.522
 7133TIP3    H121340   1.292   6.297   0.492
 7133TIP3    H221341   1.424   6.225   0.508
 7134TIP3   OH221342   5.923   6.995   0.804
 7134TIP3    H121343   5.828   7.006   0.802
 7134TIP3    H221344   5.955   7.043   0.728
 7135TIP3   OH221345   1.871   7.772   2.420
 7135TIP3    H121346   1.821   7.754   2.500
 7135TIP3    H221347   1.804   7.789   2.354
 7136TIP3   OH221348   6.964   4.718   3.694
 7136TIP3    H121349   7.011   4.729   3.612
 7136TIP3    H221350   6.877   4.754   3.678
 7137TIP3   OH221351   1.614   3.064   1.297
 7137TIP3    H121352   1.612   2.984   1.246
 7137TIP3    H221353   1.707   3.082   1.312
 7138TIP3   OH221354   2.930   7.194   1.972
 7138TIP3    H121355   2.865   7.245   2.020
 7138TIP3    H221356   2.898   7.193   1.882
 7139TIP3   OH221357   5.191   6.602   4.636
 7139TIP3    H121358   5.139   6.667   4.588
 7139TIP3    H221359   5.146   6.595   4.721
 7140TIP3   OH221360   1.956   1.727   4.159
 7140TIP3    H121361   1.985   1.636   4.153
 7140TIP3    H221362   1.891   1.727   4.228
 7141TIP3   OH221363   5.274   0.880   1.215
 7141TIP3    H121364   5.213   0.937   1.169
 7141TIP3    H221365   5.223   0.843   1.287
 7142TIP3   OH221366   3.622   0.627   6.612
 7142TIP3    H121367   3.664   0.683   6.546
 7142TIP3    H221368   3.634   0.538   6.579
 7143TIP3   OH221369   0.570   5.268   3.975
 7143TIP3    H121370   0.641   5.218   4.017
 7143TIP3    H221371   0.500   5.204   3.962
 7144TIP3   OH221372   6.798   5.246   0.957
 7144TIP3    H121373   6.886   5.283   0.957
 7144TIP3    H221374   6.804   5.171   0.899
 7145TIP3   OH221375   5.349   5.266   5.901
 7145TIP3    H121376   5.443   5.252   5.888
 7145TIP3    H221377   5.310   5.180   5.892
 7146TIP3   OH221378   5.089   6.317   1.127
 7146TIP3    H121379   5.102   6.355   1.214
 7146TIP3    H221380   5.095   6.222   1.141
 7147TIP3   OH221381   4.794   6.724   6.448
 7147TIP3    H121382   4.836   6.803   6.480
 7147TIP3    H221383   4.742   6.693   6.522
 7148TIP3   OH221384   7.292   6.848   3.528
 7148TIP3    H121385   7.204   6.834   3.563
 7148TIP3    H221386   7.350   6.820   3.599
 7149TIP3   OH221387   2.307   7.169   5.339
 7149TIP3    H121388   2.250   7.246   5.339
 7149TIP3    H221389   2.313   7.144   5.431
 7150TIP3   OH221390   4.838   0.199   5.954
 7150TIP3    H121391   4.812   0.113   5.985
 7150TIP3    H221392   4.912   0.182   5.895
 7151TIP3   OH221393   8.288   5.648   2.862
 7151TIP3    H121394   8.330   5.659   2.777
 7151TIP3    H221395   8.218   5.586   2.846
 7152TIP3   OH221396   0.268   4.329   3.874
 7152TIP3    H121397   0.206   4.261   3.848
 7152TIP3    H221398   0.241   4.406   3.824
 7153TIP3   OH221399   4.182   3.793   6.583
 7153TIP3    H121400   4.271   3.766   6.606
 7153TIP3    H221401   4.129   3.767   6.659
 7154TIP3   OH221402   1.028   0.973   3.331
 7154TIP3    H121403   1.074   0.893   3.307
 7154TIP3    H221404   1.037   0.978   3.426
 7155TIP3   OH221405   1.892   3.150   4.787
 7155TIP3    H121406   1.952   3.217   4.820
 7155TIP3    H221407   1.805   3.183   4.808
 7156TIP3   OH221408   7.389   1.022   2.146
 7156TIP3    H121409   7.406   0.966   2.070
 7156TIP3    H221410   7.468   1.076   2.155
 7157TIP3   OH221411   0.516   5.908   3.193
 7157TIP3    H121412   0.456   5.978   3.167
 7157TIP3    H221413   0.583   5.907   3.125
 7158TIP3   OH221414   0.488   5.489   4.184
 7158TIP3    H121415   0.498   5.422   4.116
 7158TIP3    H221416   0.393   5.502   4.190
 7159TIP3   OH221417   0.511   5.182   1.413
 7159TIP3    H121418   0.546   5.096   1.388
 7159TIP3    H221419   0.517   5.234   1.333
 7160TIP3   OH221420   6.955   4.679   6.733
 7160TIP3    H121421   7.021   4.631   6.782
 7160TIP3    H221422   6.952   4.765   6.775
 7161TIP3   OH221423   0.577   4.903   2.693
 7161TIP3    H121424   0.668   4.878   2.704
 7161TIP3    H221425   0.527   4.822   2.706
 7162TIP3   OH221426   5.063   1.684   6.280
 7162TIP3    H121427   5.007   1.696   6.204
 7162TIP3    H221428   5.089   1.591   6.277
 7163TIP3   OH221429   3.847   6.457   5.252
 7163TIP3    H121430   3.867   6.513   5.177
 7163TIP3    H221431   3.854   6.515   5.328
 7164TIP3   OH221432   7.804   5.239   0.200
 7164TIP3    H121433   7.825   5.197   0.117
 7164TIP3    H221434   7.724   5.196   0.229
 7165TIP3   OH221435   1.748   6.661   0.962
 7165TIP3    H121436   1.726   6.610   1.040
 7165TIP3    H221437   1.740   6.752   0.991
 7166TIP3   OH221438   1.590   3.342   0.993
 7166TIP3    H121439   1.596   3.389   1.077
 7166TIP3    H221440   1.677   3.306   0.980
 7167TIP3   OH221441   6.163   5.698   2.136
 7167TIP3    H121442   6.240   5.679   2.189
 7167TIP3    H221443   6.182   5.662   2.050
 7168TIP3   OH221444   6.792   2.152   0.172
 7168TIP3    H121445   6.781   2.131   0.080
 7168TIP3    H221446   6.750   2.237   0.183
 7169TIP3   OH221447   0.621   2.740   6.245
 7169TIP3    H121448   0.661   2.733   6.332
 7169TIP3    H221449   0.695   2.727   6.184
 7170TIP3   OH221450   5.156   7.490   2.341
 7170TIP3    H121451   5.163   7.585   2.325
 7170TIP3    H221452   5.064   7.477   2.364
 7171TIP3   OH221453   7.408   7.665   4.472
 7171TIP3    H121454   7.351   7.737   4.446
 7171TIP3    H221455   7.372   7.635   4.556
 7172TIP3   OH221456   8.077   3.219   1.008
 7172TIP3    H121457   8.006   3.192   1.067
 7172TIP3    H221458   8.037   3.218   0.921
 7173TIP3   OH221459   7.327   5.401   1.904
 7173TIP3    H121460   7.294   5.418   1.992
 7173TIP3    H221461   7.389   5.330   1.915
 7174TIP3   OH221462   4.465   1.892   4.581
 7174TIP3    H121463   4.526   1.954   4.622
 7174TIP3    H221464   4.422   1.944   4.513
 7175TIP3   OH221465   4.204   1.706   3.712
 7175TIP3    H121466   4.261   1.719   3.787
 7175TIP3    H221467   4.218   1.782   3.656
 7176TIP3   OH221468   5.905   1.541   5.024
 7176TIP3    H121469   5.982   1.570   5.072
 7176TIP3    H221470   5.938   1.475   4.963
 7177TIP3   OH221471   6.429   3.639   2.464
 7177TIP3    H121472   6.480   3.696   2.406
 7177TIP3    H221473   6.442   3.551   2.428
 7178TIP3   OH221474   1.528   1.535   3.717
 7178TIP3    H121475   1.495   1.446   3.704
 7178TIP3    H221476   1.547   1.567   3.629
 7179TIP3   OH221477   3.506   0.415   0.449
 7179TIP3    H121478   3.425   0.366   0.430
 7179TIP3    H221479   3.487   0.463   0.529
 7180TIP3   OH221480   1.671   1.342   1.677
 7180TIP3    H121481   1.691   1.337   1.770
 7180TIP3    H221482   1.753   1.319   1.634
 7181TIP3   OH221483   4.500   6.003   4.567
 7181TIP3    H121484   4.579   5.975   4.522
 7181TIP3    H221485   4.431   5.948   4.532
 7182TIP3   OH221486   7.110   7.622   6.566
 7182TIP3    H121487   7.043   7.669   6.616
 7182TIP3    H221488   7.171   7.690   6.537
 7183TIP3   OH221489   7.622   4.873   0.326
 7183TIP3    H121490   7.705   4.899   0.365
 7183TIP3    H221491   7.572   4.955   0.319
 7184TIP3   OH221492   2.765   3.930   4.996
 7184TIP3    H121493   2.779   4.022   4.973
 7184TIP3    H221494   2.783   3.926   5.090
 7185TIP3   OH221495   6.530   1.902   1.466
 7185TIP3    H121496   6.586   1.829   1.494
 7185TIP3    H221497   6.534   1.964   1.540
 7186TIP3   OH221498   5.656   3.430   0.481
 7186TIP3    H121499   5.581   3.376   0.502
 7186TIP3    H221500   5.688   3.462   0.566
 7187TIP3   OH221501   8.013   4.296   0.956
 7187TIP3    H121502   7.949   4.312   0.887
 7187TIP3    H221503   8.098   4.312   0.914
 7188TIP3   OH221504   5.621   0.599   2.556
 7188TIP3    H121505   5.579   0.524   2.598
 7188TIP3    H221506   5.601   0.673   2.613
 7189TIP3   OH221507   7.527   6.725   0.055
 7189TIP3    H121508   7.461   6.758   0.116
 7189TIP3    H221509   7.602   6.783   0.069
 7190TIP3   OH221510   1.490   2.835   1.457
 7190TIP3    H121511   1.555   2.904   1.470
 7190TIP3    H221512   1.456   2.850   1.369
 7191TIP3   OH221513   3.205   1.049   4.295
 7191TIP3    H121514   3.178   1.138   4.320
 7191TIP3    H221515   3.127   0.995   4.313
 7192TIP3   OH221516   1.805   6.579   4.461
 7192TIP3    H121517   1.866   6.629   4.515
 7192TIP3    H221518   1.718   6.610   4.488
 7193TIP3   OH221519   7.631   1.564   3.768
 7193TIP3    H121520   7.617   1.619   3.691
 7193TIP3    H221521   7.726   1.548   3.770
 7194TIP3   OH221522   6.632   2.224   2.945
 7194TIP3    H121523   6.612   2.297   3.003
 7194TIP3    H221524   6.669   2.264   2.866
 7195TIP3   OH221525   0.736   4.343   2.805
 7195TIP3    H121526   0.737   4.373   2.714
 7195TIP3    H221527   0.677   4.268   2.805
 7196TIP3   OH221528   0.949   3.710   3.575
 7196TIP3    H121529   0.961   3.672   3.663
 7196TIP3    H221530   0.976   3.640   3.516
 7197TIP3   OH221531   5.792   1.770   1.829
 7197TIP3    H121532   5.822   1.835   1.893
 7197TIP3    H221533   5.845   1.787   1.751
 7198TIP3   OH221534   7.458   2.842   6.068
 7198TIP3    H121535   7.473   2.758   6.024
 7198TIP3    H221536   7.518   2.840   6.143
 7199TIP3   OH221537   4.455   1.203   2.255
 7199TIP3    H121538   4.428   1.282   2.208
 7199TIP3    H221539   4.497   1.236   2.334
 7200TIP3   OH221540   6.648   5.059   4.772
 7200TIP3    H121541   6.686   5.146   4.757
 7200TIP3    H221542   6.580   5.052   4.705
 7201TIP3   OH221543   6.679   7.797   3.377
 7201TIP3    H121544   6.643   7.735   3.441
 7201TIP3    H221545   6.774   7.793   3.390
 7202TIP3   OH221546   1.615   2.781   1.132
 7202TIP3    H121547   1.636   2.784   1.039
 7202TIP3    H221548   1.521   2.800   1.136
 7203TIP3   OH221549   5.502   3.886   2.022
 7203TIP3    H121550   5.502   3.897   1.927
 7203TIP3    H221551   5.561   3.812   2.037
 7204TIP3   OH221552   1.463   7.192   4.009
 7204TIP3    H121553   1.494   7.279   3.987
 7204TIP3    H221554   1.367   7.197   3.999
 7205TIP3   OH221555   0.987   6.539   4.651
 7205TIP3    H121556   0.912   6.571   4.700
 7205TIP3    H221557   1.030   6.618   4.618
 7206TIP3   OH221558   4.107   4.753   1.618
 7206TIP3    H121559   4.036   4.816   1.629
 7206TIP3    H221560   4.185   4.807   1.607
 7207TIP3   OH221561   1.794   1.107   4.433
 7207TIP3    H121562   1.810   1.012   4.435
 7207TIP3    H221563   1.701   1.115   4.411
 7208TIP3   OH221564   2.982   1.333   5.533
 7208TIP3    H121565   2.988   1.397   5.604
 7208TIP3    H221566   2.934   1.260   5.572
 7209TIP3   OH221567   3.636   2.843   4.705
 7209TIP3    H121568   3.702   2.888   4.759
 7209TIP3    H221569   3.645   2.882   4.619
 7210TIP3   OH221570   5.171   5.706   6.605
 7210TIP3    H121571   5.132   5.774   6.550
 7210TIP3    H221572   5.107   5.692   6.674
 7211TIP3   OH221573   1.985   1.141   0.051
 7211TIP3    H121574   2.073   1.179   0.044
 7211TIP3    H221575   1.931   1.195  -0.007
 7212TIP3   OH221576   2.305   2.245   0.172
 7212TIP3    H121577   2.300   2.340   0.169
 7212TIP3    H221578   2.308   2.217   0.081
 7213TIP3   OH221579   4.630   2.678   2.981
 7213TIP3    H121580   4.706   2.706   2.931
 7213TIP3    H221581   4.586   2.759   3.007
 7214TIP3   OH221582   0.849   3.765   4.728
 7214TIP3    H121583   0.779   3.812   4.684
 7214TIP3    H221584   0.815   3.749   4.816
 7215TIP3   OH221585   8.009   1.994   3.526
 7215TIP3    H121586   7.975   2.083   3.517
 7215TIP3    H221587   7.940   1.946   3.571
 7216TIP3   OH221588   3.085   5.688   0.385
 7216TIP3    H121589   3.136   5.764   0.413
 7216TIP3    H221590   3.114   5.672   0.295
 7217TIP3   OH221591   4.183   5.066   3.947
 7217TIP3    H121592   4.179   5.012   4.026
 7217TIP3    H221593   4.135   5.146   3.971
 7218TIP3   OH221594   4.164   6.200   6.416
 7218TIP3    H121595   4.155   6.178   6.323
 7218TIP3    H221596   4.258   6.212   6.428
 7219TIP3   OH221597   7.734   3.623   5.766
 7219TIP3    H121598   7.757   3.688   5.699
 7219TIP3    H221599   7.752   3.539   5.725
 7220TIP3   OH221600   4.010   2.625   0.694
 7220TIP3    H121601   3.932   2.576   0.719
 7220TIP3    H221602   4.059   2.635   0.776
 7221TIP3   OH221603   4.810   7.622   1.143
 7221TIP3    H121604   4.897   7.595   1.116
 7221TIP3    H221605   4.750   7.573   1.087
 7222TIP3   OH221606   1.980   0.282   4.547
 7222TIP3    H121607   2.031   0.284   4.466
 7222TIP3    H221608   1.991   0.369   4.585
 7223TIP3   OH221609   0.974   3.975   0.891
 7223TIP3    H121610   1.000   4.017   0.974
 7223TIP3    H221611   0.879   3.965   0.899
 7224TIP3   OH221612   5.497   3.041   1.809
 7224TIP3    H121613   5.419   2.987   1.795
 7224TIP3    H221614   5.471   3.129   1.783
 7225TIP3   OH221615   5.364   4.598   4.884
 7225TIP3    H121616   5.459   4.614   4.888
 7225TIP3    H221617   5.336   4.598   4.975
 7226TIP3   OH221618   1.601   7.793   2.036
 7226TIP3    H121619   1.682   7.837   2.061
 7226TIP3    H221620   1.610   7.704   2.071
 7227TIP3   OH221621   5.187   1.513   3.652
 7227TIP3    H121622   5.226   1.600   3.659
 7227TIP3    H221623   5.221   1.478   3.570
 7228TIP3   OH221624   3.830   2.726   1.347
 7228TIP3    H121625   3.919   2.704   1.321
 7228TIP3    H221626   3.818   2.816   1.319
 7229TIP3   OH221627   4.727   4.506   5.489
 7229TIP3    H121628   4.801   4.555   5.525
 7229TIP3    H221629   4.664   4.574   5.463
 7230TIP3   OH221630   7.099   4.598   4.255
 7230TIP3    H121631   7.097   4.688   4.223
 7230TIP3    H221632   7.167   4.555   4.204
 7231TIP3   OH221633   4.462   1.149   1.254
 7231TIP3    H121634   4.494   1.059   1.260
 7231TIP3    H221635   4.466   1.182   1.344
 7232TIP3   OH221636   7.055   1.459   1.846
 7232TIP3    H121637   7.132   1.490   1.895
 7232TIP3    H221638   7.015   1.539   1.812
 7233TIP3   OH221639   6.567   1.192   5.107
 7233TIP3    H121640   6.477   1.224   5.115
 7233TIP3    H221641   6.561   1.100   5.133
 7234TIP3   OH221642   7.164   4.271   0.684
 7234TIP3    H121643   7.146   4.182   0.712
 7234TIP3    H221644   7.130   4.276   0.594
 7235TIP3   OH221645   4.301   3.208   2.201
 7235TIP3    H121646   4.263   3.196   2.114
 7235TIP3    H221647   4.395   3.190   2.189
 7236TIP3   OH221648   0.290   3.821   4.924
 7236TIP3    H121649   0.209   3.770   4.916
 7236TIP3    H221650   0.283   3.864   5.010
 7237TIP3   OH221651   5.465   3.510   2.662
 7237TIP3    H121652   5.543   3.494   2.715
 7237TIP3    H221653   5.450   3.426   2.617
 7238TIP3   OH221654   5.145   1.444   6.183
 7238TIP3    H121655   5.095   1.365   6.162
 7238TIP3    H221656   5.161   1.487   6.099
 7239TIP3   OH221657   2.419   3.939   2.366
 7239TIP3    H121658   2.504   3.980   2.351
 7239TIP3    H221659   2.375   3.997   2.429
 7240TIP3   OH221660   0.673   6.121   4.493
 7240TIP3    H121661   0.609   6.082   4.433
 7240TIP3    H221662   0.753   6.071   4.480
 7241TIP3   OH221663   5.182   0.689   5.318
 7241TIP3    H121664   5.260   0.689   5.263
 7241TIP3    H221665   5.206   0.636   5.394
 7242TIP3   OH221666   0.349   5.217   0.973
 7242TIP3    H121667   0.327   5.127   0.998
 7242TIP3    H221668   0.385   5.210   0.885
 7243TIP3   OH221669   2.855   3.828   0.886
 7243TIP3    H121670   2.832   3.903   0.830
 7243TIP3    H221671   2.920   3.863   0.947
 7244TIP3   OH221672   7.633   7.308   6.234
 7244TIP3    H121673   7.595   7.223   6.213
 7244TIP3    H221674   7.719   7.308   6.190
 7245TIP3   OH221675   4.280   2.902   6.170
 7245TIP3    H121676   4.348   2.900   6.103
 7245TIP3    H221677   4.307   2.971   6.230
 7246TIP3   OH221678   4.303   6.545   2.262
 7246TIP3    H121679   4.259   6.623   2.228
 7246TIP3    H221680   4.377   6.580   2.312
 7247TIP3   OH221681   6.435   0.039   1.939
 7247TIP3    H121682   6.450  -0.049   1.907
 7247TIP3    H221683   6.446   0.095   1.862
 7248TIP3   OH221684   6.177   1.387   0.511
 7248TIP3    H121685   6.102   1.433   0.474
 7248TIP3    H221686   6.213   1.337   0.438
 7249TIP3   OH221687   7.752   3.086   4.750
 7249TIP3    H121688   7.671   3.130   4.723
 7249TIP3    H221689   7.738   3.065   4.843
 7250TIP3   OH221690   5.435   0.160   6.566
 7250TIP3    H121691   5.467   0.073   6.591
 7250TIP3    H221692   5.351   0.168   6.611
 7251TIP3   OH221693   0.630   3.718   1.702
 7251TIP3    H121694   0.666   3.701   1.789
 7251TIP3    H221695   0.679   3.660   1.644
 7252TIP3   OH221696   3.543   5.195   3.297
 7252TIP3    H121697   3.553   5.152   3.382
 7252TIP3    H221698   3.620   5.252   3.290
 7253TIP3   OH221699   3.581   5.877   4.926
 7253TIP3    H121700   3.575   5.958   4.875
 7253TIP3    H221701   3.675   5.860   4.933
 7254TIP3   OH221702   7.511   2.647   0.036
 7254TIP3    H121703   7.591   2.663   0.087
 7254TIP3    H221704   7.442   2.693   0.085
 7255TIP3   OH221705   4.715   0.498   6.145
 7255TIP3    H121706   4.795   0.504   6.093
 7255TIP3    H221707   4.649   0.465   6.084
 7256TIP3   OH221708   3.374   6.927   2.914
 7256TIP3    H121709   3.372   6.912   3.009
 7256TIP3    H221710   3.371   6.839   2.876
 7257TIP3   OH221711   4.909   2.670   2.094
 7257TIP3    H121712   4.851   2.680   2.169
 7257TIP3    H221713   4.851   2.667   2.018
 7258TIP3   OH221714   7.787   1.930   2.492
 7258TIP3    H121715   7.861   1.982   2.462
 7258TIP3    H221716   7.741   1.987   2.554
 7259TIP3   OH221717   0.438   0.044   3.620
 7259TIP3    H121718   0.521   0.011   3.585
 7259TIP3    H221719   0.459   0.131   3.653
 7260TIP3   OH221720   5.627   3.069   1.298
 7260TIP3    H121721   5.626   3.149   1.351
 7260TIP3    H221722   5.535   3.041   1.295
 7261TIP3   OH221723   6.462   7.063   4.390
 7261TIP3    H121724   6.446   6.973   4.361
 7261TIP3    H221725   6.385   7.111   4.359
 7262TIP3   OH221726   0.964   3.323   6.489
 7262TIP3    H121727   0.962   3.278   6.404
 7262TIP3    H221728   0.872   3.336   6.512
 7263TIP3   OH221729   2.375   0.510   1.947
 7263TIP3    H121730   2.367   0.416   1.963
 7263TIP3    H221731   2.469   0.524   1.932
 7264TIP3   OH221732   1.351   1.417   0.072
 7264TIP3    H121733   1.278   1.394   0.130
 7264TIP3    H221734   1.329   1.504   0.039
 7265TIP3   OH221735   5.597   6.915   6.144
 7265TIP3    H121736   5.527   6.896   6.206
 7265TIP3    H221737   5.595   7.010   6.135
 7266TIP3   OH221738   2.949   2.119   1.022
 7266TIP3    H121739   2.867   2.118   1.072
 7266TIP3    H221740   2.925   2.160   0.938
 7267TIP3   OH221741   1.591   0.100   2.881
 7267TIP3    H121742   1.572   0.120   2.789
 7267TIP3    H221743   1.686   0.109   2.888
 7268TIP3   OH221744   5.524   6.919   3.317
 7268TIP3    H121745   5.554   6.875   3.237
 7268TIP3    H221746   5.551   6.860   3.388
 7269TIP3   OH221747   6.224   6.309   1.683
 7269TIP3    H121748   6.171   6.338   1.609
 7269TIP3    H221749   6.307   6.281   1.644
 7270TIP3   OH221750   4.820   2.325   4.772
 7270TIP3    H121751   4.884   2.322   4.844
 7270TIP3    H221752   4.739   2.356   4.813
 7271TIP3   OH221753   4.568   2.139   5.201
 7271TIP3    H121754   4.536   2.099   5.282
 7271TIP3    H221755   4.658   2.107   5.193
 7272TIP3   OH221756   2.724   4.312   3.265
 7272TIP3    H121757   2.714   4.217   3.278
 7272TIP3    H221758   2.671   4.331   3.188
 7273TIP3   OH221759   8.210   7.278   5.048
 7273TIP3    H121760   8.149   7.234   4.988
 7273TIP3    H221761   8.295   7.273   5.004
 7274TIP3   OH221762   7.598   1.312   0.087
 7274TIP3    H121763   7.556   1.334   0.004
 7274TIP3    H221764   7.645   1.391   0.113
 7275TIP3   OH221765   7.511   6.723   3.138
 7275TIP3    H121766   7.600   6.728   3.175
 7275TIP3    H221767   7.457   6.773   3.200
 7276TIP3   OH221768   1.158   5.840   3.733
 7276TIP3    H121769   1.165   5.752   3.697
 7276TIP3    H221770   1.088   5.881   3.683
 7277TIP3   OH221771   3.272   2.183   0.112
 7277TIP3    H121772   3.296   2.238   0.186
 7277TIP3    H221773   3.346   2.123   0.101
 7278TIP3   OH221774   0.165   1.563   0.338
 7278TIP3    H121775   0.086   1.574   0.284
 7278TIP3    H221776   0.169   1.469   0.355
 7279TIP3   OH221777   0.809   4.673   3.100
 7279TIP3    H121778   0.883   4.623   3.065
 7279TIP3    H221779   0.734   4.615   3.088
 7280TIP3   OH221780   2.695   5.094   5.151
 7280TIP3    H121781   2.776   5.053   5.181
 7280TIP3    H221782   2.673   5.158   5.218
 7281TIP3   OH221783   7.656   1.119   2.540
 7281TIP3    H121784   7.639   1.069   2.460
 7281TIP3    H221785   7.597   1.193   2.535
 7282TIP3   OH221786   8.312   7.507   0.291
 7282TIP3    H121787   8.323   7.594   0.330
 7282TIP3    H221788   8.373   7.506   0.217
 7283TIP3   OH221789   1.941   7.853   6.593
 7283TIP3    H121790   1.932   7.852   6.688
 7283TIP3    H221791   2.034   7.871   6.578
 7284TIP3   OH221792   7.558   6.641   1.312
 7284TIP3    H121793   7.580   6.729   1.280
 7284TIP3    H221794   7.638   6.590   1.301
 7285TIP3   OH221795   7.735   2.734   6.040
 7285TIP3    H121796   7.738   2.829   6.050
 7285TIP3    H221797   7.813   2.712   5.989
 7286TIP3   OH221798   7.168   5.417   2.138
 7286TIP3    H121799   7.200   5.496   2.181
 7286TIP3    H221800   7.093   5.390   2.190
 7287TIP3   OH221801   3.529   4.492   5.480
 7287TIP3    H121802   3.520   4.554   5.407
 7287TIP3    H221803   3.583   4.421   5.445
 7288TIP3   OH221804   3.481   5.503   6.056
 7288TIP3    H121805   3.497   5.409   6.059
 7288TIP3    H221806   3.568   5.542   6.056
 7289TIP3   OH221807   3.157   6.942   5.047
 7289TIP3    H121808   3.205   6.898   4.976
 7289TIP3    H221809   3.082   6.982   5.003
 7290TIP3   OH221810   3.683   6.192   4.549
 7290TIP3    H121811   3.706   6.284   4.560
 7290TIP3    H221812   3.607   6.193   4.492
 7291TIP3   OH221813   8.314   5.629   1.728
 7291TIP3    H121814   8.249   5.660   1.666
 7291TIP3    H221815   8.340   5.543   1.695
 7292TIP3   OH221816   2.597   1.246   3.414
 7292TIP3    H121817   2.587   1.162   3.458
 7292TIP3    H221818   2.607   1.309   3.485
 7293TIP3   OH221819   3.654   0.907   3.431
 7293TIP3    H121820   3.723   0.959   3.473
 7293TIP3    H221821   3.577   0.918   3.488
 7294TIP3   OH221822   7.348   5.398   4.359
 7294TIP3    H121823   7.403   5.439   4.426
 7294TIP3    H221824   7.410   5.351   4.303
 7295TIP3   OH221825   6.913   3.998   6.339
 7295TIP3    H121826   6.891   4.066   6.275
 7295TIP3    H221827   7.005   4.014   6.361
 7296TIP3   OH221828   4.903   2.593   5.041
 7296TIP3    H121829   4.966   2.531   5.003
 7296TIP3    H221830   4.957   2.653   5.092
 7297TIP3   OH221831   0.802   2.626   3.761
 7297TIP3    H121832   0.768   2.554   3.813
 7297TIP3    H221833   0.726   2.683   3.746
 7298TIP3   OH221834   6.475   2.272   2.131
 7298TIP3    H121835   6.427   2.344   2.172
 7298TIP3    H221836   6.436   2.265   2.044
 7299TIP3   OH221837   3.639   5.422   5.695
 7299TIP3    H121838   3.554   5.465   5.710
 7299TIP3    H221839   3.652   5.428   5.600
 7300TIP3   OH221840   5.534   6.567   6.727
 7300TIP3    H121841   5.601   6.616   6.680
 7300TIP3    H221842   5.533   6.606   6.815
 7301TIP3   OH221843   5.329   2.569   4.224
 7301TIP3    H121844   5.246   2.617   4.229
 7301TIP3    H221845   5.339   2.549   4.131
 7302TIP3   OH221846   1.996   6.080   5.486
 7302TIP3    H121847   1.901   6.089   5.492
 7302TIP3    H221848   2.023   6.051   5.574
 7303TIP3   OH221849   7.146   7.313   3.562
 7303TIP3    H121850   7.184   7.312   3.650
 7303TIP3    H221851   7.192   7.384   3.517
 7304TIP3   OH221852   2.917   1.657   2.282
 7304TIP3    H121853   2.991   1.660   2.342
 7304TIP3    H221854   2.901   1.563   2.270
 7305TIP3   OH221855   5.190   1.813   2.880
 7305TIP3    H121856   5.109   1.860   2.899
 7305TIP3    H221857   5.259   1.866   2.919
 7306TIP3   OH221858   4.748   6.428   4.254
 7306TIP3    H121859   4.791   6.351   4.218
 7306TIP3    H221860   4.677   6.393   4.309
 7307TIP3   OH221861   8.229   4.342   4.517
 7307TIP3    H121862   8.219   4.260   4.469
 7307TIP3    H221863   8.319   4.340   4.548
 7308TIP3   OH221864   0.567   4.559   6.845
 7308TIP3    H121865   0.566   4.463   6.850
 7308TIP3    H221866   0.660   4.581   6.838
 7309TIP3   OH221867   2.110   5.021   2.992
 7309TIP3    H121868   2.040   4.979   2.943
 7309TIP3    H221869   2.115   4.972   3.075
 7310TIP3   OH221870   6.310   3.383   4.798
 7310TIP3    H121871   6.289   3.470   4.830
 7310TIP3    H221872   6.239   3.327   4.829
 7311TIP3   OH221873   2.857   4.083   6.020
 7311TIP3    H121874   2.930   4.124   5.975
 7311TIP3    H221875   2.782   4.100   5.963
 7312TIP3   OH221876   0.991   1.734   3.956
 7312TIP3    H121877   1.055   1.801   3.974
 7312TIP3    H221878   1.035   1.673   3.896
 7313TIP3   OH221879   1.253   2.112   5.239
 7313TIP3    H121880   1.245   2.191   5.292
 7313TIP3    H221881   1.191   2.051   5.278
 7314TIP3   OH221882   5.483   0.358   0.068
 7314TIP3    H121883   5.401   0.330   0.108
 7314TIP3    H221884   5.474   0.334  -0.025
 7315TIP3   OH221885   3.741   2.445   3.301
 7315TIP3    H121886   3.772   2.424   3.389
 7315TIP3    H221887   3.728   2.360   3.259
 7316TIP3   OH221888   1.897   3.804   0.994
 7316TIP3    H121889   1.834   3.749   1.040
 7316TIP3    H221890   1.907   3.763   0.908
 7317TIP3   OH221891   7.327   4.040   3.779
 7317TIP3    H121892   7.250   3.996   3.744
 7317TIP3    H221893   7.353   4.102   3.710
 7318TIP3   OH221894   2.113   3.913   3.350
 7318TIP3    H121895   2.094   3.941   3.440
 7318TIP3    H221896   2.045   3.953   3.297
 7319TIP3   OH221897   0.853   3.589   4.128
 7319TIP3    H121898   0.903   3.568   4.206
 7319TIP3    H221899   0.827   3.681   4.140
 7320TIP3   OH221900   0.022   1.059   5.679
 7320TIP3    H121901  -0.012   0.970   5.679
 7320TIP3    H221902   0.009   1.090   5.769
 7321TIP3   OH221903   0.780   1.877   3.373
 7321TIP3    H121904   0.743   1.790   3.388
 7321TIP3    H221905   0.711   1.937   3.399
 7322TIP3   OH221906   1.931   3.004   3.889
 7322TIP3    H121907   1.911   2.923   3.936
 7322TIP3    H221908   1.972   2.975   3.808
 7323TIP3   OH221909   2.429   7.180   6.800
 7323TIP3    H121910   2.352   7.151   6.750
 7323TIP3    H221911   2.503   7.159   6.744
 7324TIP3   OH221912   7.910   3.307   4.247
 7324TIP3    H121913   7.983   3.247   4.235
 7324TIP3    H221914   7.838   3.267   4.198
 7325TIP3   OH221915   3.349   0.733   1.545
 7325TIP3    H121916   3.438   0.757   1.518
 7325TIP3    H221917   3.293   0.769   1.476
 7326TIP3   OH221918   0.517   0.239   6.047
 7326TIP3    H121919   0.550   0.162   6.091
 7326TIP3    H221920   0.450   0.274   6.106
 7327TIP3   OH221921   6.518   6.685   1.341
 7327TIP3    H121922   6.454   6.751   1.367
 7327TIP3    H221923   6.591   6.735   1.304
 7328TIP3   OH221924   4.578   1.539   1.785
 7328TIP3    H121925   4.540   1.484   1.717
 7328TIP3    H221926   4.649   1.586   1.742
 7329TIP3   OH221927   5.438   0.846   0.447
 7329TIP3    H121928   5.495   0.777   0.413
 7329TIP3    H221929   5.364   0.848   0.385
 7330TIP3   OH221930   4.103   6.521   6.713
 7330TIP3    H121931   4.045   6.592   6.741
 7330TIP3    H221932   4.044   6.458   6.671
 7331TIP3   OH221933   7.258   5.846   2.566
 7331TIP3    H121934   7.260   5.800   2.483
 7331TIP3    H221935   7.225   5.781   2.629
 7332TIP3   OH221936   0.897   6.181   6.749
 7332TIP3    H121937   0.879   6.223   6.664
 7332TIP3    H221938   0.944   6.101   6.727
 7333TIP3   OH221939   1.868   5.463   1.471
 7333TIP3    H121940   1.793   5.413   1.505
 7333TIP3    H221941   1.908   5.404   1.406
 7334TIP3   OH221942   7.795   3.465   6.245
 7334TIP3    H121943   7.841   3.454   6.328
 7334TIP3    H221944   7.830   3.547   6.209
 7335TIP3   OH221945   2.621   4.670   2.871
 7335TIP3    H121946   2.716   4.665   2.867
 7335TIP3    H221947   2.592   4.661   2.780
 7336TIP3   OH221948   1.294   4.901   1.834
 7336TIP3    H121949   1.268   4.993   1.845
 7336TIP3    H221950   1.293   4.887   1.740
 7337TIP3   OH221951   0.461   5.305   4.548
 7337TIP3    H121952   0.385   5.302   4.605
 7337TIP3    H221953   0.526   5.356   4.597
 7338TIP3   OH221954   7.615   6.056   0.067
 7338TIP3    H121955   7.537   6.043   0.013
 7338TIP3    H221956   7.687   6.062   0.004
 7339TIP3   OH221957   8.089   3.513   0.118
 7339TIP3    H121958   8.163   3.561   0.155
 7339TIP3    H221959   8.038   3.580   0.073
 7340TIP3   OH221960   6.883   0.327   3.558
 7340TIP3    H121961   6.946   0.341   3.628
 7340TIP3    H221962   6.850   0.414   3.537
 7341TIP3   OH221963   8.325   6.896   5.496
 7341TIP3    H121964   8.361   6.868   5.412
 7341TIP3    H221965   8.243   6.939   5.475
 7342TIP3   OH221966   4.949   7.805   3.690
 7342TIP3    H121967   4.862   7.837   3.665
 7342TIP3    H221968   5.007   7.879   3.673
 7343TIP3   OH221969   2.823   1.302   3.264
 7343TIP3    H121970   2.735   1.284   3.300
 7343TIP3    H221971   2.883   1.270   3.332
 7344TIP3   OH221972   1.852   0.926   5.053
 7344TIP3    H121973   1.765   0.914   5.013
 7344TIP3    H221974   1.835   0.976   5.133
 7345TIP3   OH221975   1.153   2.914   5.413
 7345TIP3    H121976   1.137   3.008   5.424
 7345TIP3    H221977   1.126   2.896   5.323
 7346TIP3   OH221978   4.297   4.747   2.587
 7346TIP3    H121979   4.335   4.827   2.624
 7346TIP3    H221980   4.212   4.775   2.553
 7347TIP3   OH221981   4.619   1.860   3.767
 7347TIP3    H121982   4.709   1.833   3.789
 7347TIP3    H221983   4.622   1.956   3.769
 7348TIP3   OH221984   8.331   7.346   1.739
 7348TIP3    H121985   8.336   7.419   1.801
 7348TIP3    H221986   8.355   7.269   1.791
 7349TIP3   OH221987   6.142   6.470   3.098
 7349TIP3    H121988   6.155   6.535   3.029
 7349TIP3    H221989   6.089   6.401   3.056
 7350TIP3   OH221990   8.338   0.220   6.767
 7350TIP3    H121991   8.258   0.214   6.820
 7350TIP3    H221992   8.403   0.169   6.816
 7351TIP3   OH221993   7.710   2.754   2.535
 7351TIP3    H121994   7.788   2.798   2.500
 7351TIP3    H221995   7.706   2.782   2.626
 7352TIP3   OH221996   5.429   4.865   2.380
 7352TIP3    H121997   5.481   4.807   2.436
 7352TIP3    H221998   5.449   4.953   2.412
 7353TIP3   OH221999   5.188   7.699   5.593
 7353TIP3    H122000   5.125   7.753   5.546
 7353TIP3    H222001   5.270   7.710   5.544
 7354TIP3   OH222002   5.234   3.347   1.360
 7354TIP3    H122003   5.272   3.272   1.405
 7354TIP3    H222004   5.249   3.421   1.418
 7355TIP3   OH222005   5.058   3.314   2.645
 7355TIP3    H122006   5.056   3.251   2.574
 7355TIP3    H222007   4.971   3.312   2.683
 7356TIP3   OH222008   5.074   0.325   4.779
 7356TIP3    H122009   5.084   0.245   4.728
 7356TIP3    H222010   5.084   0.298   4.870
 7357TIP3   OH222011   3.198   4.176   3.783
 7357TIP3    H122012   3.281   4.173   3.830
 7357TIP3    H222013   3.212   4.237   3.710
 7358TIP3   OH222014   5.000   5.438   0.202
 7358TIP3    H122015   4.952   5.361   0.231
 7358TIP3    H222016   4.954   5.512   0.241
 7359TIP3   OH222017   4.776   4.561   6.836
 7359TIP3    H122018   4.802   4.646   6.873
 7359TIP3    H222019   4.719   4.584   6.763
 7360TIP3   OH222020   5.095   4.077   5.431
 7360TIP3    H122021   5.081   4.106   5.341
 7360TIP3    H222022   5.127   3.987   5.423
 7361TIP3   OH222023   2.048   2.070   4.565
 7361TIP3    H122024   2.029   1.981   4.536
 7361TIP3    H222025   2.137   2.087   4.534
 7362TIP3   OH222026   5.654   0.529   2.214
 7362TIP3    H122027   5.655   0.471   2.290
 7362TIP3    H222028   5.573   0.578   2.222
 7363TIP3   OH222029   7.623   4.966   4.669
 7363TIP3    H122030   7.705   4.918   4.678
 7363TIP3    H222031   7.579   4.954   4.754
 7364TIP3   OH222032   7.694   1.608   0.162
 7364TIP3    H122033   7.724   1.599   0.252
 7364TIP3    H222034   7.649   1.693   0.160
 7365TIP3   OH222035   3.127   1.151   2.493
 7365TIP3    H122036   3.037   1.183   2.506
 7365TIP3    H222037   3.176   1.229   2.466
 7366TIP3   OH222038   1.948   3.114   5.786
 7366TIP3    H122039   1.979   3.051   5.722
 7366TIP3    H222040   1.987   3.085   5.869
 7367TIP3   OH222041   1.712   1.097   3.005
 7367TIP3    H122042   1.700   1.048   3.086
 7367TIP3    H222043   1.686   1.186   3.028
 7368TIP3   OH222044   4.577   3.048   4.454
 7368TIP3    H122045   4.639   2.998   4.401
 7368TIP3    H222046   4.606   3.035   4.544
 7369TIP3   OH222047   2.185   6.496   1.812
 7369TIP3    H122048   2.104   6.501   1.761
 7369TIP3    H222049   2.248   6.455   1.753
 7370TIP3   OH222050   6.665   0.199   6.351
 7370TIP3    H122051   6.739   0.139   6.351
 7370TIP3    H222052   6.704   0.286   6.342
 7371TIP3   OH222053   7.575   3.789   4.381
 7371TIP3    H122054   7.483   3.769   4.401
 7371TIP3    H222055   7.598   3.728   4.311
 7372TIP3   OH222056   1.852   5.944   2.139
 7372TIP3    H122057   1.941   5.923   2.110
 7372TIP3    H222058   1.809   5.981   2.062
 7373TIP3   OH222059   1.615   4.094   0.685
 7373TIP3    H122060   1.668   4.014   0.684
 7373TIP3    H222061   1.620   4.127   0.596
 7374TIP3   OH222062   5.907   7.480   2.557
 7374TIP3    H122063   5.953   7.446   2.480
 7374TIP3    H222064   5.910   7.409   2.620
 7375TIP3   OH222065   6.632   1.869   4.273
 7375TIP3    H122066   6.668   1.876   4.361
 7375TIP3    H222067   6.673   1.791   4.236
 7376TIP3   OH222068   1.212   6.225   6.775
 7376TIP3    H122069   1.118   6.213   6.759
 7376TIP3    H222070   1.255   6.172   6.709
 7377TIP3   OH222071   6.121   6.280   3.289
 7377TIP3    H122072   6.111   6.366   3.246
 7377TIP3    H222073   6.189   6.236   3.237
 7378TIP3   OH222074   4.598   7.204   1.953
 7378TIP3    H122075   4.514   7.183   1.995
 7378TIP3    H222076   4.588   7.172   1.864
 7379TIP3   OH222077   5.015   1.515   0.142
 7379TIP3    H122078   4.998   1.431   0.185
 7379TIP3    H222079   5.041   1.574   0.213
 7380TIP3   OH222080   3.619   4.799   0.752
 7380TIP3    H122081   3.625   4.888   0.716
 7380TIP3    H222082   3.530   4.770   0.730
 7381TIP3   OH222083   1.305   3.511   3.112
 7381TIP3    H122084   1.364   3.564   3.058
 7381TIP3    H222085   1.275   3.441   3.054
 7382TIP3   OH222086   7.236   6.722   3.277
 7382TIP3    H122087   7.289   6.745   3.352
 7382TIP3    H222088   7.216   6.805   3.234
 7383TIP3   OH222089   7.797   4.667   6.074
 7383TIP3    H122090   7.885   4.638   6.097
 7383TIP3    H222091   7.745   4.653   6.153
 7384TIP3   OH222092   4.693   5.761   6.020
 7384TIP3    H122093   4.684   5.726   6.108
 7384TIP3    H222094   4.688   5.856   6.030
 7385TIP3   OH222095   8.082   7.210   6.468
 7385TIP3    H122096   8.034   7.128   6.454
 7385TIP3    H222097   8.028   7.276   6.425
 7386TIP3   OH222098   5.100   3.112   2.474
 7386TIP3    H122099   5.132   3.022   2.477
 7386TIP3    H222100   5.088   3.130   2.381
 7387TIP3   OH222101   1.236   2.208   2.213
 7387TIP3    H122102   1.198   2.178   2.296
 7387TIP3    H222103   1.230   2.303   2.216
 7388TIP3   OH222104   2.469   0.143   6.464
 7388TIP3    H122105   2.511   0.119   6.381
 7388TIP3    H222106   2.429   0.228   6.446
 7389TIP3   OH222107   2.879   1.266   2.485
 7389TIP3    H122108   2.887   1.353   2.524
 7389TIP3    H222109   2.805   1.226   2.530
 7390TIP3   OH222110   3.162   4.312   1.336
 7390TIP3    H122111   3.184   4.225   1.368
 7390TIP3    H222112   3.192   4.371   1.405
 7391TIP3   OH222113   8.136   0.287   2.395
 7391TIP3    H122114   8.053   0.271   2.351
 7391TIP3    H222115   8.120   0.265   2.486
 7392TIP3   OH222116   7.035   3.996   3.670
 7392TIP3    H122117   7.073   4.068   3.620
 7392TIP3    H222118   6.983   3.947   3.607
 7393TIP3   OH222119   0.547   3.367   6.553
 7393TIP3    H122120   0.617   3.377   6.618
 7393TIP3    H222121   0.586   3.310   6.486
 7394TIP3   OH222122   1.583   2.392   3.968
 7394TIP3    H122123   1.678   2.399   3.953
 7394TIP3    H222124   1.565   2.457   4.035
 7395TIP3   OH222125   8.322   0.683   0.293
 7395TIP3    H122126   8.314   0.664   0.199
 7395TIP3    H222127   8.234   0.669   0.327
 7396TIP3   OH222128   0.405   7.443   5.227
 7396TIP3    H122129   0.471   7.461   5.294
 7396TIP3    H222130   0.451   7.394   5.159
 7397TIP3   OH222131   8.119   0.882   3.046
 7397TIP3    H122132   8.041   0.934   3.023
 7397TIP3    H222133   8.094   0.792   3.026
 7398TIP3   OH222134   5.163   7.398   0.264
 7398TIP3    H122135   5.238   7.422   0.318
 7398TIP3    H222136   5.153   7.304   0.277
 7399TIP3   OH222137   8.206   2.128   4.363
 7399TIP3    H122138   8.206   2.134   4.458
 7399TIP3    H222139   8.115   2.115   4.339
 7400TIP3   OH222140   8.055   4.335   5.062
 7400TIP3    H122141   7.968   4.359   5.095
 7400TIP3    H222142   8.053   4.239   5.058
 7401TIP3   OH222143   2.652   0.880   2.131
 7401TIP3    H122144   2.574   0.825   2.145
 7401TIP3    H222145   2.720   0.839   2.184
 7402TIP3   OH222146   6.034   3.164   1.001
 7402TIP3    H122147   6.013   3.117   0.920
 7402TIP3    H222148   5.950   3.198   1.031
 7403TIP3   OH222149   4.303   1.509   4.944
 7403TIP3    H122150   4.232   1.453   4.913
 7403TIP3    H222151   4.264   1.597   4.948
 7404TIP3   OH222152   7.809   5.333   5.141
 7404TIP3    H122153   7.877   5.395   5.119
 7404TIP3    H222154   7.855   5.250   5.156
 7405TIP3   OH222155   6.001   5.082   0.050
 7405TIP3    H122156   6.079   5.035   0.080
 7405TIP3    H222157   6.034   5.163   0.012
 7406TIP3   OH222158   2.045   0.824   2.028
 7406TIP3    H122159   2.077   0.736   2.050
 7406TIP3    H222160   1.977   0.810   1.963
 7407TIP3   OH222161   7.244   0.844   3.714
 7407TIP3    H122162   7.209   0.769   3.762
 7407TIP3    H222163   7.322   0.870   3.763
 7408TIP3   OH222164   4.544   6.156   3.666
 7408TIP3    H122165   4.557   6.063   3.648
 7408TIP3    H222166   4.474   6.158   3.731
 7409TIP3   OH222167   2.285   4.029   1.663
 7409TIP3    H122168   2.236   3.989   1.735
 7409TIP3    H222169   2.223   4.091   1.624
 7410TIP3   OH222170   2.507   4.896   1.511
 7410TIP3    H122171   2.418   4.929   1.499
 7410TIP3    H222172   2.557   4.936   1.440
 7411TIP3   OH222173   1.379   3.007   3.235
 7411TIP3    H122174   1.357   2.941   3.170
 7411TIP3    H222175   1.341   3.088   3.201
 7412TIP3   OH222176   3.710   1.468   5.814
 7412TIP3    H122177   3.758   1.416   5.879
 7412TIP3    H222178   3.649   1.520   5.866
 7413TIP3   OH222179   1.028   6.903   5.382
 7413TIP3    H122180   1.038   6.818   5.425
 7413TIP3    H222181   0.995   6.882   5.294
 7414TIP3   OH222182   3.542   5.819   2.911
 7414TIP3    H122183   3.613   5.755   2.903
 7414TIP3    H222184   3.522   5.822   3.004
 7415TIP3   OH222185   2.363   7.679   0.618
 7415TIP3    H122186   2.426   7.618   0.657
 7415TIP3    H222187   2.304   7.701   0.691
 7416TIP3   OH222188   2.419   7.824   1.220
 7416TIP3    H122189   2.375   7.862   1.144
 7416TIP3    H222190   2.498   7.877   1.231
 7417TIP3   OH222191   5.689   6.981   1.300
 7417TIP3    H122192   5.599   6.983   1.268
 7417TIP3    H222193   5.739   6.944   1.227
 7418TIP3   OH222194   3.293   2.163   4.014
 7418TIP3    H122195   3.308   2.116   3.932
 7418TIP3    H222196   3.380   2.176   4.052
 7419TIP3   OH222197   0.283   4.463   2.008
 7419TIP3    H122198   0.323   4.539   1.968
 7419TIP3    H222199   0.306   4.390   1.951
 7420TIP3   OH222200   7.273   4.981   5.179
 7420TIP3    H122201   7.219   4.912   5.141
 7420TIP3    H222202   7.242   5.062   5.139
 7421TIP3   OH222203   4.432   5.367   3.742
 7421TIP3    H122204   4.428   5.273   3.760
 7421TIP3    H222205   4.458   5.372   3.650
 7422TIP3   OH222206   6.887   1.753   3.496
 7422TIP3    H122207   6.820   1.818   3.513
 7422TIP3    H222208   6.916   1.724   3.583
 7423TIP3   OH222209   3.676   0.145   0.514
 7423TIP3    H122210   3.683   0.230   0.557
 7423TIP3    H222211   3.766   0.114   0.507
 7424TIP3   OH222212   0.416   2.796   0.189
 7424TIP3    H122213   0.374   2.718   0.225
 7424TIP3    H222214   0.343   2.857   0.175
 7425TIP3   OH222215   8.267   7.276   1.022
 7425TIP3    H122216   8.208   7.230   1.082
 7425TIP3    H222217   8.236   7.252   0.935
 7426TIP3   OH222218   5.391  -0.015   0.102
 7426TIP3    H122219   5.340   0.066   0.100
 7426TIP3    H222220   5.456  -0.004   0.033
 7427TIP3   OH222221   1.658   1.727   3.990
 7427TIP3    H122222   1.591   1.679   4.039
 7427TIP3    H222223   1.738   1.677   4.005
 7428TIP3   OH222224   2.924   1.931   4.621
 7428TIP3    H122225   2.920   1.969   4.708
 7428TIP3    H222226   3.015   1.906   4.609
 7429TIP3   OH222227   1.593   0.108   1.308
 7429TIP3    H122228   1.675   0.144   1.273
 7429TIP3    H222229   1.525   0.165   1.273
 7430TIP3   OH222230   7.026   2.723   3.533
 7430TIP3    H122231   7.044   2.816   3.549
 7430TIP3    H222232   6.952   2.724   3.471
 7431TIP3   OH222233   0.825   0.772   4.109
 7431TIP3    H122234   0.854   0.773   4.200
 7431TIP3    H222235   0.857   0.689   4.074
 7432TIP3   OH222236   3.891   2.472   0.311
 7432TIP3    H122237   3.799   2.465   0.286
 7432TIP3    H222238   3.939   2.455   0.230
 7433TIP3   OH222239   3.514   3.247   0.561
 7433TIP3    H122240   3.601   3.276   0.587
 7433TIP3    H222241   3.529   3.169   0.508
 7434TIP3   OH222242   4.653   7.501   0.939
 7434TIP3    H122243   4.628   7.553   0.863
 7434TIP3    H222244   4.570   7.474   0.979
 7435TIP3   OH222245   2.281   7.589   4.076
 7435TIP3    H122246   2.315   7.529   4.009
 7435TIP3    H222247   2.221   7.646   4.028
 7436TIP3   OH222248   3.810   4.431   1.252
 7436TIP3    H122249   3.753   4.435   1.328
 7436TIP3    H222250   3.858   4.514   1.253
 7437TIP3   OH222251   3.439   6.672   5.725
 7437TIP3    H122252   3.358   6.722   5.717
 7437TIP3    H222253   3.439   6.642   5.816
 7438TIP3   OH222254   3.610   5.312   1.893
 7438TIP3    H122255   3.582   5.403   1.906
 7438TIP3    H222256   3.545   5.260   1.941
 7439TIP3   OH222257   5.249   5.118   4.287
 7439TIP3    H122258   5.332   5.164   4.284
 7439TIP3    H222259   5.184   5.184   4.263
 7440TIP3   OH222260   1.332   5.641   0.060
 7440TIP3    H122261   1.272   5.584   0.011
 7440TIP3    H222262   1.380   5.689  -0.007
 7441TIP3   OH222263   1.617   6.299   0.545
 7441TIP3    H122264   1.703   6.317   0.507
 7441TIP3    H222265   1.593   6.381   0.589
 7442TIP3   OH222266   1.531   6.662   0.529
 7442TIP3    H122267   1.505   6.667   0.621
 7442TIP3    H222268   1.539   6.754   0.502
 7443TIP3   OH222269   2.610   0.888   4.189
 7443TIP3    H122270   2.673   0.870   4.119
 7443TIP3    H222271   2.655   0.859   4.269
 7444TIP3   OH222272   7.746   5.817   0.106
 7444TIP3    H122273   7.772   5.813   0.198
 7444TIP3    H222274   7.697   5.899   0.099
 7445TIP3   OH222275   0.857   7.148   6.808
 7445TIP3    H122276   0.832   7.181   6.722
 7445TIP3    H222277   0.807   7.067   6.818
 7446TIP3   OH222278   8.375   3.307   1.134
 7446TIP3    H122279   8.318   3.374   1.095
 7446TIP3    H222280   8.410   3.259   1.058
 7447TIP3   OH222281   0.750   2.267   4.532
 7447TIP3    H122282   0.739   2.258   4.438
 7447TIP3    H222283   0.726   2.181   4.567
 7448TIP3   OH222284   7.096   3.430   5.339
 7448TIP3    H122285   7.066   3.417   5.429
 7448TIP3    H222286   7.146   3.350   5.319
 7449TIP3   OH222287   3.474   5.718   1.135
 7449TIP3    H122288   3.511   5.789   1.082
 7449TIP3    H222289   3.457   5.648   1.072
 7450TIP3   OH222290   0.647   2.101   2.418
 7450TIP3    H122291   0.669   2.037   2.349
 7450TIP3    H222292   0.726   2.106   2.472
 7451TIP3   OH222293   0.858   0.915   5.769
 7451TIP3    H122294   0.855   0.930   5.674
 7451TIP3    H222295   0.937   0.863   5.783
 7452TIP3   OH222296   0.902   0.502   4.393
 7452TIP3    H122297   0.863   0.434   4.448
 7452TIP3    H222298   0.984   0.463   4.361
 7453TIP3   OH222299   6.013   4.453   0.629
 7453TIP3    H122300   6.038   4.409   0.548
 7453TIP3    H222301   6.041   4.544   0.617
 7454TIP3   OH222302   2.247   2.101   6.382
 7454TIP3    H122303   2.283   2.190   6.380
 7454TIP3    H222304   2.203   2.094   6.467
 7455TIP3   OH222305   5.871   1.285   2.574
 7455TIP3    H122306   5.869   1.344   2.650
 7455TIP3    H222307   5.855   1.198   2.611
 7456TIP3   OH222308   1.890   6.721   4.679
 7456TIP3    H122309   1.816   6.671   4.712
 7456TIP3    H222310   1.955   6.717   4.749
 7457TIP3   OH222311   0.889   4.871   3.857
 7457TIP3    H122312   0.976   4.893   3.892
 7457TIP3    H222313   0.831   4.878   3.933
 7458TIP3   OH222314   1.768   0.706   2.497
 7458TIP3    H122315   1.783   0.751   2.580
 7458TIP3    H222316   1.770   0.613   2.520
 7459TIP3   OH222317   5.601   2.940   5.683
 7459TIP3    H122318   5.593   3.026   5.722
 7459TIP3    H222319   5.649   2.888   5.748
 7460TIP3   OH222320   2.032   5.165   4.853
 7460TIP3    H122321   2.002   5.256   4.858
 7460TIP3    H222322   1.989   5.129   4.776
 7461TIP3   OH222323   2.175   1.838   6.725
 7461TIP3    H122324   2.192   1.893   6.802
 7461TIP3    H222325   2.125   1.893   6.666
 7462TIP3   OH222326   3.768   5.424   3.943
 7462TIP3    H122327   3.855   5.403   3.908
 7462TIP3    H222328   3.780   5.425   4.038
 7463TIP3   OH222329   2.608   5.093   0.376
 7463TIP3    H122330   2.658   5.016   0.348
 7463TIP3    H222331   2.535   5.058   0.427
 7464TIP3   OH222332   1.357   6.430   3.818
 7464TIP3    H122333   1.323   6.508   3.861
 7464TIP3    H222334   1.451   6.431   3.838
 7465TIP3   OH222335   6.714   7.306   6.146
 7465TIP3    H122336   6.688   7.317   6.054
 7465TIP3    H222337   6.702   7.213   6.164
 7466TIP3   OH222338   6.499   6.153   3.185
 7466TIP3    H122339   6.542   6.072   3.211
 7466TIP3    H222340   6.566   6.221   3.196
 7467TIP3   OH222341   6.476   1.554   6.637
 7467TIP3    H122342   6.518   1.592   6.560
 7467TIP3    H222343   6.535   1.575   6.710
 7468TIP3   OH222344   5.767   6.509   1.995
 7468TIP3    H122345   5.805   6.421   1.999
 7468TIP3    H222346   5.841   6.567   1.976
 7469TIP3   OH222347   8.072   7.070   4.050
 7469TIP3    H122348   8.146   7.060   4.110
 7469TIP3    H222349   8.052   6.981   4.022
 7470TIP3   OH222350   5.399   0.326   2.380
 7470TIP3    H122351   5.364   0.415   2.384
 7470TIP3    H222352   5.324   0.270   2.398
 7471TIP3   OH222353   8.284   2.296   2.640
 7471TIP3    H122354   8.250   2.319   2.554
 7471TIP3    H222355   8.379   2.295   2.629
 7472TIP3   OH222356   7.114   1.988   2.489
 7472TIP3    H122357   7.208   1.971   2.479
 7472TIP3    H222358   7.094   2.052   2.421
 7473TIP3   OH222359   1.634   4.430   0.128
 7473TIP3    H122360   1.683   4.449   0.208
 7473TIP3    H222361   1.658   4.501   0.068
 7474TIP3   OH222362   6.311   6.560   3.312
 7474TIP3    H122363   6.269   6.531   3.230
 7474TIP3    H222364   6.238   6.588   3.367
 7475TIP3   OH222365   0.961   5.990   5.790
 7475TIP3    H122366   1.033   6.013   5.730
 7475TIP3    H222367   0.899   6.062   5.780
 7476TIP3   OH222368   7.541   5.748   1.558
 7476TIP3    H122369   7.512   5.788   1.477
 7476TIP3    H222370   7.472   5.768   1.621
 7477TIP3   OH222371   2.147   4.855   2.269
 7477TIP3    H122372   2.078   4.823   2.327
 7477TIP3    H222373   2.132   4.809   2.186
 7478TIP3   OH222374   8.122   7.740   0.894
 7478TIP3    H122375   8.064   7.768   0.824
 7478TIP3    H222376   8.077   7.765   0.974
 7479TIP3   OH222377   7.409   0.204   5.849
 7479TIP3    H122378   7.499   0.181   5.828
 7479TIP3    H222379   7.388   0.276   5.790
 7480TIP3   OH222380   6.866   3.940   0.683
 7480TIP3    H122381   6.840   3.866   0.738
 7480TIP3    H222382   6.918   3.996   0.742
 7481TIP3   OH222383   8.064   2.300   1.855
 7481TIP3    H122384   8.118   2.355   1.912
 7481TIP3    H222385   8.121   2.279   1.781
 7482TIP3   OH222386   3.339   3.898   1.930
 7482TIP3    H122387   3.271   3.834   1.907
 7482TIP3    H222388   3.393   3.852   1.994
 7483TIP3   OH222389   8.306   5.492   2.188
 7483TIP3    H122390   8.301   5.555   2.260
 7483TIP3    H222391   8.399   5.487   2.166
 7484TIP3   OH222392   6.698   4.880   2.719
 7484TIP3    H122393   6.685   4.884   2.814
 7484TIP3    H222394   6.675   4.967   2.688
 7485TIP3   OH222395   4.162   4.343   6.042
 7485TIP3    H122396   4.241   4.362   6.093
 7485TIP3    H222397   4.090   4.370   6.098
 7486TIP3   OH222398   5.760   4.705   1.354
 7486TIP3    H122399   5.836   4.749   1.391
 7486TIP3    H222400   5.729   4.646   1.424
 7487TIP3   OH222401   6.270   5.589   3.717
 7487TIP3    H122402   6.215   5.645   3.772
 7487TIP3    H222403   6.359   5.619   3.734
 7488TIP3   OH222404   4.602   3.448   0.983
 7488TIP3    H122405   4.653   3.399   1.048
 7488TIP3    H222406   4.533   3.387   0.957
 7489TIP3   OH222407   0.233   1.069   2.456
 7489TIP3    H122408   0.292   1.049   2.384
 7489TIP3    H222409   0.254   1.005   2.523
 7490TIP3   OH222410   6.639   2.275   3.730
 7490TIP3    H122411   6.733   2.261   3.739
 7490TIP3    H222412   6.610   2.298   3.818
 7491TIP3   OH222413   5.831   0.538   0.003
 7491TIP3    H122414   5.817   0.453  -0.037
 7491TIP3    H222415   5.869   0.519   0.089
 7492TIP3   OH222416   4.704   4.294   5.120
 7492TIP3    H122417   4.694   4.272   5.212
 7492TIP3    H222418   4.667   4.219   5.073
 7493TIP3   OH222419   2.780   6.225   0.858
 7493TIP3    H122420   2.689   6.227   0.887
 7493TIP3    H222421   2.775   6.223   0.763
 7494TIP3   OH222422   7.359   4.449   4.146
 7494TIP3    H122423   7.379   4.501   4.224
 7494TIP3    H222424   7.443   4.434   4.104
 7495TIP3   OH222425   8.286   0.938   6.235
 7495TIP3    H122426   8.226   1.009   6.258
 7495TIP3    H222427   8.230   0.873   6.191
 7496TIP3   OH222428   1.560   6.915   3.802
 7496TIP3    H122429   1.564   7.001   3.844
 7496TIP3    H222430   1.636   6.913   3.745
 7497TIP3   OH222431   1.772   3.247   3.768
 7497TIP3    H122432   1.681   3.243   3.738
 7497TIP3    H222433   1.778   3.178   3.835
 7498TIP3   OH222434   5.260   5.894   0.917
 7498TIP3    H122435   5.222   5.815   0.878
 7498TIP3    H222436   5.353   5.874   0.925
 7499TIP3   OH222437   1.260   1.306   1.926
 7499TIP3    H122438   1.302   1.295   1.841
 7499TIP3    H222439   1.307   1.246   1.984
 7500TIP3   OH222440   4.608   6.113   1.058
 7500TIP3    H122441   4.619   6.205   1.032
 7500TIP3    H222442   4.691   6.088   1.098
 7501TIP3   OH222443   3.152   1.290   6.221
 7501TIP3    H122444   3.124   1.210   6.176
 7501TIP3    H222445   3.139   1.270   6.314
 7502TIP3   OH222446   6.147   4.323   5.775
 7502TIP3    H122447   6.183   4.259   5.714
 7502TIP3    H222448   6.055   4.332   5.749
 7503TIP3   OH222449   8.085   6.481   5.073
 7503TIP3    H122450   8.017   6.524   5.124
 7503TIP3    H222451   8.067   6.506   4.982
 7504TIP3   OH222452   7.815   4.339   0.375
 7504TIP3    H122453   7.800   4.432   0.388
 7504TIP3    H222454   7.763   4.316   0.298
 7505TIP3   OH222455   5.908   4.387   1.433
 7505TIP3    H122456   5.979   4.352   1.380
 7505TIP3    H222457   5.942   4.470   1.468
 7506TIP3   OH222458   0.862   4.477   4.955
 7506TIP3    H122459   0.946   4.458   4.912
 7506TIP3    H222460   0.863   4.422   5.033
 7507TIP3   OH222461   3.037   3.713   4.389
 7507TIP3    H122462   3.025   3.786   4.329
 7507TIP3    H222463   3.111   3.739   4.444
 7508TIP3   OH222464   6.162   5.975   3.595
 7508TIP3    H122465   6.123   6.009   3.515
 7508TIP3    H222466   6.086   5.952   3.650
 7509TIP3   OH222467   8.363   4.330   1.349
 7509TIP3    H122468   8.296   4.392   1.379
 7509TIP3    H222469   8.321   4.281   1.279
 7510TIP3   OH222470   5.920   6.987   6.668
 7510TIP3    H122471   5.850   7.049   6.687
 7510TIP3    H222472   5.993   7.042   6.637
 7511TIP3   OH222473   0.506   6.459   4.930
 7511TIP3    H122474   0.458   6.382   4.898
 7511TIP3    H222475   0.471   6.532   4.878
 7512TIP3   OH222476   1.764   3.906   5.968
 7512TIP3    H122477   1.762   3.810   5.979
 7512TIP3    H222478   1.782   3.939   6.056
 7513TIP3   OH222479   1.300   3.805   4.202
 7513TIP3    H122480   1.335   3.735   4.147
 7513TIP3    H222481   1.363   3.877   4.191
 7514TIP3   OH222482   3.850   1.629   5.459
 7514TIP3    H122483   3.890   1.566   5.400
 7514TIP3    H222484   3.768   1.654   5.416
 7515TIP3   OH222485   1.792   6.007   3.711
 7515TIP3    H122486   1.717   6.017   3.652
 7515TIP3    H222487   1.862   6.057   3.669
 7516TIP3   OH222488   7.459   2.854   4.552
 7516TIP3    H122489   7.478   2.761   4.564
 7516TIP3    H222490   7.543   2.898   4.563
 7517TIP3   OH222491   0.207   4.864   5.683
 7517TIP3    H122492   0.188   4.915   5.762
 7517TIP3    H222493   0.146   4.897   5.617
 7518TIP3   OH222494   3.723   5.437   2.194
 7518TIP3    H122495   3.659   5.484   2.248
 7518TIP3    H222496   3.807   5.478   2.214
 7519TIP3   OH222497   6.539   4.302   2.757
 7519TIP3    H122498   6.610   4.282   2.817
 7519TIP3    H222499   6.484   4.365   2.805
 7520TIP3   OH222500   2.346   7.307   0.100
 7520TIP3    H122501   2.340   7.260   0.017
 7520TIP3    H222502   2.287   7.382   0.089
 7521TIP3   OH222503   2.416   7.837   3.476
 7521TIP3    H122504   2.329   7.812   3.509
 7521TIP3    H222505   2.467   7.856   3.554
 7522TIP3   OH222506   6.067   7.563   5.844
 7522TIP3    H122507   6.021   7.535   5.924
 7522TIP3    H222508   6.050   7.657   5.838
 7523TIP3   OH222509   0.466   6.314   2.412
 7523TIP3    H122510   0.529   6.285   2.478
 7523TIP3    H222511   0.504   6.286   2.329
 7524TIP3   OH222512   8.184   6.954   0.371
 7524TIP3    H122513   8.235   7.029   0.341
 7524TIP3    H222514   8.237   6.915   0.440
 7525TIP3   OH222515   5.847   1.948   3.250
 7525TIP3    H122516   5.875   2.033   3.284
 7525TIP3    H222517   5.846   1.890   3.326
 7526TIP3   OH222518   3.740   2.434   5.603
 7526TIP3    H122519   3.738   2.410   5.695
 7526TIP3    H222520   3.650   2.459   5.582
 7527TIP3   OH222521   4.047   6.833   5.459
 7527TIP3    H122522   4.044   6.866   5.549
 7527TIP3    H222523   3.978   6.766   5.456
 7528TIP3   OH222524   1.910   0.423   2.831
 7528TIP3    H122525   1.878   0.488   2.893
 7528TIP3    H222526   2.005   0.428   2.836
 7529TIP3   OH222527   1.108   5.659   5.395
 7529TIP3    H122528   1.161   5.699   5.465
 7529TIP3    H222529   1.101   5.567   5.421
 7530TIP3   OH222530   6.479   0.009   6.800
 7530TIP3    H122531   6.539   0.066   6.752
 7530TIP3    H222532   6.535  -0.049   6.852
 7531TIP3   OH222533   0.628   1.877   4.461
 7531TIP3    H122534   0.548   1.928   4.448
 7531TIP3    H222535   0.600   1.799   4.509
 7532TIP3   OH222536   6.649   6.742   4.387
 7532TIP3    H122537   6.744   6.747   4.402
 7532TIP3    H222538   6.639   6.673   4.321
 7533TIP3   OH222539   2.813   1.734   0.718
 7533TIP3    H122540   2.806   1.743   0.623
 7533TIP3    H222541   2.903   1.759   0.738
 7534TIP3   OH222542   8.369   0.215   5.130
 7534TIP3    H122543   8.322   0.215   5.047
 7534TIP3    H222544   8.420   0.296   5.129
 7535TIP3   OH222545   7.947   6.400   5.800
 7535TIP3    H122546   7.862   6.368   5.768
 7535TIP3    H222547   7.926   6.448   5.880
 7536TIP3   OH222548   5.465   1.372   2.041
 7536TIP3    H122549   5.535   1.338   2.097
 7536TIP3    H222550   5.447   1.302   1.979
 7537TIP3   OH222551   5.371   3.235   5.660
 7537TIP3    H122552   5.444   3.289   5.692
 7537TIP3    H222553   5.307   3.237   5.731
 7538TIP3   OH222554   7.787   7.086   1.420
 7538TIP3    H122555   7.703   7.043   1.435
 7538TIP3    H222556   7.821   7.106   1.507
 7539TIP3   OH222557   8.052   1.896   1.928
 7539TIP3    H122558   8.054   1.926   2.019
 7539TIP3    H222559   8.034   1.802   1.934
 7540TIP3   OH222560   7.985   5.475   6.030
 7540TIP3    H122561   8.040   5.401   6.004
 7540TIP3    H222562   8.045   5.535   6.074
 7541TIP3   OH222563   4.225   3.444   3.405
 7541TIP3    H122564   4.261   3.392   3.333
 7541TIP3    H222565   4.147   3.396   3.433
 7542TIP3   OH222566   4.859   7.620   4.888
 7542TIP3    H122567   4.788   7.582   4.836
 7542TIP3    H222568   4.923   7.550   4.896
 7543TIP3   OH222569   0.272   7.936   4.856
 7543TIP3    H122570   0.247   7.869   4.793
 7543TIP3    H222571   0.291   7.888   4.937
 7544TIP3   OH222572   8.141   7.339   4.287
 7544TIP3    H122573   8.062   7.291   4.260
 7544TIP3    H222574   8.185   7.280   4.347
 7545TIP3   OH222575   7.027   3.637   1.646
 7545TIP3    H122576   7.036   3.644   1.551
 7545TIP3    H222577   6.965   3.566   1.659
 7546TIP3   OH222578   5.428   6.041   1.933
 7546TIP3    H122579   5.420   5.991   1.852
 7546TIP3    H222580   5.460   6.127   1.905
 7547TIP3   OH222581   4.305   4.960   1.445
 7547TIP3    H122582   4.349   4.960   1.530
 7547TIP3    H222583   4.373   4.988   1.383
 7548TIP3   OH222584   5.351   5.563   5.540
 7548TIP3    H122585   5.329   5.528   5.627
 7548TIP3    H222586   5.439   5.599   5.551
 7549TIP3   OH222587   1.025   3.505   5.013
 7549TIP3    H122588   0.955   3.440   5.004
 7549TIP3    H222589   0.988   3.572   5.070
 7550TIP3   OH222590   3.178   1.896   4.517
 7550TIP3    H122591   3.220   1.944   4.588
 7550TIP3    H222592   3.226   1.922   4.439
 7551TIP3   OH222593   3.712   4.445   0.709
 7551TIP3    H122594   3.622   4.415   0.691
 7551TIP3    H222595   3.707   4.486   0.795
 7552TIP3   OH222596   1.674   5.447   2.741
 7552TIP3    H122597   1.694   5.359   2.709
 7552TIP3    H222598   1.593   5.471   2.695
 7553TIP3   OH222599   3.448   4.120   3.171
 7553TIP3    H122600   3.464   4.094   3.262
 7553TIP3    H222601   3.533   4.115   3.129
 7554TIP3   OH222602   6.428   7.624   1.774
 7554TIP3    H122603   6.443   7.596   1.865
 7554TIP3    H222604   6.449   7.547   1.722
 7555TIP3   OH222605   8.257   1.818   0.089
 7555TIP3    H122606   8.257   1.913   0.100
 7555TIP3    H222607   8.196   1.786   0.155
 7556TIP3   OH222608   0.278   1.983   5.967
 7556TIP3    H122609   0.270   1.972   6.062
 7556TIP3    H222610   0.208   1.929   5.931
 7557TIP3   OH222611   3.642   0.092   0.212
 7557TIP3    H122612   3.646   0.134   0.298
 7557TIP3    H222613   3.684   0.007   0.225
 7558TIP3   OH222614   1.290   4.824   3.800
 7558TIP3    H122615   1.370   4.811   3.850
 7558TIP3    H222616   1.235   4.878   3.856
 7559TIP3   OH222617   3.796   5.128   1.921
 7559TIP3    H122618   3.755   5.215   1.916
 7559TIP3    H222619   3.791   5.105   2.014
 7560TIP3   OH222620   0.055   4.773   4.189
 7560TIP3    H122621   0.006   4.754   4.269
 7560TIP3    H222622   0.024   4.860   4.163
 7561TIP3   OH222623   5.650   0.300   4.210
 7561TIP3    H122624   5.585   0.323   4.276
 7561TIP3    H222625   5.729   0.348   4.235
 7562TIP3   OH222626   4.204   7.144   5.454
 7562TIP3    H122627   4.118   7.127   5.414
 7562TIP3    H222628   4.199   7.235   5.484
 7563TIP3   OH222629   4.349   1.792   1.228
 7563TIP3    H122630   4.284   1.819   1.163
 7563TIP3    H222631   4.430   1.835   1.200
 7564TIP3   OH222632   4.126   1.834   2.656
 7564TIP3    H122633   4.038   1.833   2.694
 7564TIP3    H222634   4.181   1.871   2.725
 7565TIP3   OH222635   1.447   4.283   2.895
 7565TIP3    H122636   1.367   4.230   2.902
 7565TIP3    H222637   1.417   4.365   2.855
 7566TIP3   OH222638   8.007   0.060   3.590
 7566TIP3    H122639   8.049  -0.026   3.590
 7566TIP3    H222640   8.049   0.108   3.518
 7567TIP3   OH222641   0.656   5.769   0.802
 7567TIP3    H122642   0.578   5.768   0.857
 7567TIP3    H222643   0.625   5.801   0.717
 7568TIP3   OH222644   1.813   1.229   4.671
 7568TIP3    H122645   1.736   1.191   4.714
 7568TIP3    H222646   1.831   1.170   4.599
 7569TIP3   OH222647   2.322   6.922   3.625
 7569TIP3    H122648   2.409   6.961   3.621
 7569TIP3    H222649   2.337   6.831   3.649
 7570TIP3   OH222650   6.074   6.368   1.020
 7570TIP3    H122651   6.114   6.454   1.015
 7570TIP3    H222652   6.071   6.337   0.930
 7571TIP3   OH222653   3.577   4.615   4.501
 7571TIP3    H122654   3.640   4.683   4.476
 7571TIP3    H222655   3.492   4.649   4.473
 7572TIP3   OH222656   4.588   5.125   0.546
 7572TIP3    H122657   4.585   5.032   0.522
 7572TIP3    H222658   4.496   5.153   0.544
 7573TIP3   OH222659   0.519   1.187   6.114
 7573TIP3    H122660   0.529   1.118   6.049
 7573TIP3    H222661   0.424   1.193   6.129
 7574TIP3   OH222662   8.027   5.776   1.804
 7574TIP3    H122663   8.069   5.728   1.876
 7574TIP3    H222664   8.018   5.710   1.735
 7575TIP3   OH222665   6.445   4.827   3.772
 7575TIP3    H122666   6.384   4.894   3.802
 7575TIP3    H222667   6.419   4.748   3.819
 7576TIP3   OH222668   4.870   1.140   6.467
 7576TIP3    H122669   4.939   1.109   6.409
 7576TIP3    H222670   4.900   1.226   6.496
 7577TIP3   OH222671   0.562   0.592   1.537
 7577TIP3    H122672   0.596   0.677   1.564
 7577TIP3    H222673   0.624   0.561   1.471
 7578TIP3   OH222674   1.046   3.971   4.930
 7578TIP3    H122675   0.993   4.047   4.905
 7578TIP3    H222676   1.012   3.900   4.874
 7579TIP3   OH222677   6.996   0.970   5.177
 7579TIP3    H122678   7.024   0.892   5.225
 7579TIP3    H222679   7.002   0.945   5.085
 7580TIP3   OH222680   2.408   6.318   0.026
 7580TIP3    H122681   2.369   6.403   0.046
 7580TIP3    H222682   2.493   6.339  -0.011
 7581TIP3   OH222683   6.958   5.577   2.216
 7581TIP3    H122684   6.876   5.588   2.265
 7581TIP3    H222685   6.944   5.622   2.133
 7582TIP3   OH222686   5.687   2.813   4.076
 7582TIP3    H122687   5.643   2.874   4.017
 7582TIP3    H222688   5.772   2.854   4.093
 7583TIP3   OH222689   7.493   7.434   6.429
 7583TIP3    H122690   7.531   7.405   6.346
 7583TIP3    H222691   7.569   7.464   6.480
 7584TIP3   OH222692   5.038   6.576   6.414
 7584TIP3    H122693   5.093   6.609   6.342
 7584TIP3    H222694   4.953   6.617   6.399
 7585TIP3   OH222695   7.793   3.647   1.790
 7585TIP3    H122696   7.735   3.716   1.759
 7585TIP3    H222697   7.838   3.616   1.711
 7586TIP3   OH222698   3.558   2.219   6.310
 7586TIP3    H122699   3.507   2.300   6.307
 7586TIP3    H222700   3.565   2.199   6.404
 7587TIP3   OH222701   2.963   1.404   1.821
 7587TIP3    H122702   2.967   1.398   1.726
 7587TIP3    H222703   2.915   1.326   1.848
 7588TIP3   OH222704   5.657   5.421   2.274
 7588TIP3    H122705   5.682   5.405   2.182
 7588TIP3    H222706   5.678   5.339   2.318
 7589TIP3   OH222707   3.967   1.475   6.366
 7589TIP3    H122708   3.983   1.501   6.276
 7589TIP3    H222709   3.995   1.550   6.418
 7590TIP3   OH222710   7.935   2.340   5.763
 7590TIP3    H122711   7.932   2.411   5.699
 7590TIP3    H222712   7.871   2.276   5.731
 7591TIP3   OH222713   6.426   3.854   3.073
 7591TIP3    H122714   6.446   3.944   3.048
 7591TIP3    H222715   6.353   3.829   3.016
 7592TIP3   OH222716   2.566   5.402   3.398
 7592TIP3    H122717   2.640   5.457   3.372
 7592TIP3    H222718   2.592   5.313   3.374
 7593TIP3   OH222719   2.512   7.610   0.044
 7593TIP3    H122720   2.418   7.596   0.047
 7593TIP3    H222721   2.525   7.697   0.082
 7594TIP3   OH222722   6.503   6.906   0.102
 7594TIP3    H122723   6.586   6.920   0.057
 7594TIP3    H222724   6.523   6.920   0.195
 7595TIP3   OH222725   7.264   6.203   4.299
 7595TIP3    H122726   7.224   6.192   4.213
 7595TIP3    H222727   7.329   6.133   4.304
 7596TIP3   OH222728   3.081   2.153   4.345
 7596TIP3    H122729   3.044   2.117   4.426
 7596TIP3    H222730   3.169   2.116   4.341
 7597TIP3   OH222731   4.456   3.959   0.537
 7597TIP3    H122732   4.482   3.943   0.446
 7597TIP3    H222733   4.534   3.940   0.588
 7598TIP3   OH222734   3.909   2.539   3.884
 7598TIP3    H122735   3.917   2.452   3.923
 7598TIP3    H222736   3.996   2.577   3.894
 7599TIP3   OH222737   2.031   1.666   5.938
 7599TIP3    H122738   2.044   1.572   5.931
 7599TIP3    H222739   1.951   1.676   5.989
 7600TIP3   OH222740   2.481   0.883   6.173
 7600TIP3    H122741   2.475   0.931   6.256
 7600TIP3    H222742   2.549   0.929   6.124
 7601TIP3   OH222743   0.508   1.292   0.506
 7601TIP3    H122744   0.594   1.259   0.529
 7601TIP3    H222745   0.447   1.229   0.544
 7602TIP3   OH222746   6.537   7.637   3.182
 7602TIP3    H122747   6.590   7.713   3.208
 7602TIP3    H222748   6.448   7.661   3.206
 7603TIP3   OH222749   6.335   1.371   6.801
 7603TIP3    H122750   6.389   1.405   6.730
 7603TIP3    H222751   6.396   1.322   6.857
 7604TIP3   OH222752   2.401   5.770   1.474
 7604TIP3    H122753   2.368   5.815   1.552
 7604TIP3    H222754   2.454   5.698   1.509
 7605TIP3   OH222755   5.032   4.500   4.787
 7605TIP3    H122756   5.035   4.450   4.706
 7605TIP3    H222757   5.091   4.573   4.773
 7606TIP3   OH222758   3.393   7.022   1.989
 7606TIP3    H122759   3.440   7.104   1.972
 7606TIP3    H222760   3.456   6.968   2.037
 7607TIP3   OH222761   6.255   2.547   6.488
 7607TIP3    H122762   6.339   2.592   6.475
 7607TIP3    H222763   6.274   2.455   6.471
 7608TIP3   OH222764   0.772   3.661   2.614
 7608TIP3    H122765   0.755   3.567   2.627
 7608TIP3    H222766   0.686   3.699   2.596
 7609TIP3   OH222767   5.927   5.903   1.931
 7609TIP3    H122768   5.891   5.991   1.923
 7609TIP3    H222769   5.955   5.880   1.842
 7610TIP3   OH222770   7.083   7.207   2.601
 7610TIP3    H122771   7.012   7.270   2.613
 7610TIP3    H222772   7.068   7.141   2.668
 7611TIP3   OH222773   1.983   5.171   5.720
 7611TIP3    H122774   1.993   5.257   5.681
 7611TIP3    H222775   2.068   5.153   5.761
 7612TIP3   OH222776   0.486   3.625   2.029
 7612TIP3    H122777   0.479   3.645   2.122
 7612TIP3    H222778   0.412   3.566   2.011
 7613TIP3   OH222779   6.136   1.659   2.789
 7613TIP3    H122780   6.145   1.740   2.739
 7613TIP3    H222781   6.224   1.623   2.792
 7614TIP3   OH222782   6.259   1.650   0.160
 7614TIP3    H122783   6.202   1.573   0.162
 7614TIP3    H222784   6.321   1.632   0.089
 7615TIP3   OH222785   4.916   0.294   1.876
 7615TIP3    H122786   5.004   0.306   1.839
 7615TIP3    H222787   4.921   0.333   1.963
 7616TIP3   OH222788   4.932   0.858   2.738
 7616TIP3    H122789   4.851   0.906   2.755
 7616TIP3    H222790   4.955   0.818   2.821
 7617TIP3   OH222791   4.840   6.915   0.500
 7617TIP3    H122792   4.832   7.002   0.460
 7617TIP3    H222793   4.780   6.860   0.448
 7618TIP3   OH222794   3.224   7.119   1.296
 7618TIP3    H122795   3.140   7.082   1.326
 7618TIP3    H222796   3.289   7.054   1.323
 7619TIP3   OH222797   0.906   0.260   2.158
 7619TIP3    H122798   0.901   0.165   2.170
 7619TIP3    H222799   0.829   0.294   2.204
 7620TIP3   OH222800   7.135   2.786   2.541
 7620TIP3    H122801   7.146   2.715   2.478
 7620TIP3    H222802   7.040   2.793   2.553
 7621TIP3   OH222803   0.859   6.724   0.903
 7621TIP3    H122804   0.763   6.725   0.899
 7621TIP3    H222805   0.882   6.815   0.922
 7622TIP3   OH222806   5.117   0.023   5.460
 7622TIP3    H122807   5.177   0.074   5.404
 7622TIP3    H222808   5.116  -0.064   5.421
 7623TIP3   OH222809   1.204   4.549   4.856
 7623TIP3    H122810   1.278   4.607   4.841
 7623TIP3    H222811   1.220   4.511   4.943
 7624TIP3   OH222812   1.908   1.053   3.552
 7624TIP3    H122813   1.865   0.969   3.567
 7624TIP3    H222814   1.837   1.113   3.532
 7625TIP3   OH222815   6.733   3.557   3.313
 7625TIP3    H122816   6.801   3.506   3.358
 7625TIP3    H222817   6.663   3.565   3.378
 7626TIP3   OH222818   6.024   1.144   3.541
 7626TIP3    H122819   6.021   1.085   3.465
 7626TIP3    H222820   6.015   1.085   3.616
 7627TIP3   OH222821   1.524   4.332   6.772
 7627TIP3    H122822   1.442   4.285   6.790
 7627TIP3    H222823   1.548   4.372   6.856
 7628TIP3   OH222824   5.094   7.245   5.243
 7628TIP3    H122825   5.052   7.190   5.309
 7628TIP3    H222826   5.154   7.187   5.198
 7629TIP3   OH222827   1.759   0.456   5.806
 7629TIP3    H122828   1.672   0.482   5.775
 7629TIP3    H222829   1.818   0.482   5.735
 7630TIP3   OH222830   4.669   2.698   5.192
 7630TIP3    H122831   4.694   2.761   5.260
 7630TIP3    H222832   4.751   2.657   5.164
 7631TIP3   OH222833   4.860   0.686   5.315
 7631TIP3    H122834   4.871   0.749   5.385
 7631TIP3    H222835   4.947   0.650   5.300
 7632TIP3   OH222836   0.968   3.801   6.828
 7632TIP3    H122837   0.915   3.814   6.907
 7632TIP3    H222838   0.944   3.714   6.797
 7633TIP3   OH222839   5.875   1.102   0.390
 7633TIP3    H122840   5.936   1.041   0.432
 7633TIP3    H222841   5.928   1.179   0.369
 7634TIP3   OH222842   3.562   3.608   3.052
 7634TIP3    H122843   3.520   3.681   3.007
 7634TIP3    H222844   3.524   3.607   3.139
 7635TIP3   OH222845   1.742   1.231   2.439
 7635TIP3    H122846   1.741   1.216   2.533
 7635TIP3    H222847   1.680   1.302   2.425
 7636TIP3   OH222848   3.391   7.526   1.129
 7636TIP3    H122849   3.316   7.539   1.187
 7636TIP3    H222850   3.404   7.431   1.126
 7637TIP3   OH222851   1.888   1.503   4.602
 7637TIP3    H122852   1.828   1.434   4.628
 7637TIP3    H222853   1.949   1.512   4.676
 7638TIP3   OH222854   5.079   1.940   5.779
 7638TIP3    H122855   5.009   2.001   5.803
 7638TIP3    H222856   5.033   1.859   5.755
 7639TIP3   OH222857   5.525   5.669   0.287
 7639TIP3    H122858   5.511   5.593   0.229
 7639TIP3    H222859   5.619   5.666   0.307
 7640TIP3   OH222860   6.652   7.054   4.007
 7640TIP3    H122861   6.654   7.137   4.053
 7640TIP3    H222862   6.642   7.077   3.914
 7641TIP3   OH222863   4.103   6.101   5.366
 7641TIP3    H122864   4.056   6.017   5.365
 7641TIP3    H222865   4.132   6.111   5.456
 7642TIP3   OH222866   4.341   4.384   3.342
 7642TIP3    H122867   4.381   4.466   3.372
 7642TIP3    H222868   4.324   4.399   3.249
 7643TIP3   OH222869   7.432   4.653   4.948
 7643TIP3    H122870   7.441   4.576   4.892
 7643TIP3    H222871   7.342   4.648   4.982
 7644TIP3   OH222872   7.030   5.102   1.317
 7644TIP3    H122873   7.078   5.151   1.251
 7644TIP3    H222874   6.938   5.124   1.302
 7645TIP3   OH222875   2.143   4.813   3.761
 7645TIP3    H122876   2.145   4.796   3.667
 7645TIP3    H222877   2.198   4.745   3.799
 7646TIP3   OH222878   6.994   2.880   6.532
 7646TIP3    H122879   6.986   2.870   6.437
 7646TIP3    H222880   6.926   2.942   6.556
 7647TIP3   OH222881   0.161   1.694   4.231
 7647TIP3    H122882   0.224   1.710   4.160
 7647TIP3    H222883   0.080   1.671   4.185
 7648TIP3   OH222884   6.680   4.965   0.128
 7648TIP3    H122885   6.612   4.952   0.194
 7648TIP3    H222886   6.710   5.055   0.142
 7649TIP3   OH222887   4.088   0.043   0.581
 7649TIP3    H122888   4.069   0.090   0.661
 7649TIP3    H222889   4.145   0.102   0.531
 7650TIP3   OH222890   6.730   6.836   1.294
 7650TIP3    H122891   6.773   6.885   1.364
 7650TIP3    H222892   6.748   6.886   1.215
 7651TIP3   OH222893   8.297   1.909   1.512
 7651TIP3    H122894   8.284   1.910   1.606
 7651TIP3    H222895   8.211   1.886   1.476
 7652TIP3   OH222896   5.558   4.582   5.851
 7652TIP3    H122897   5.516   4.667   5.861
 7652TIP3    H222898   5.631   4.585   5.913
 7653TIP3   OH222899   0.541   4.605   5.043
 7653TIP3    H122900   0.506   4.693   5.055
 7653TIP3    H222901   0.464   4.548   5.048
 7654TIP3   OH222902   3.792   0.807   3.825
 7654TIP3    H122903   3.887   0.818   3.832
 7654TIP3    H222904   3.780   0.718   3.794
 7655TIP3   OH222905   0.742   2.383   3.060
 7655TIP3    H122906   0.774   2.340   3.139
 7655TIP3    H222907   0.797   2.461   3.050
 7656TIP3   OH222908   4.925   1.912   2.367
 7656TIP3    H122909   4.990   1.865   2.314
 7656TIP3    H222910   4.944   2.004   2.352
 7657TIP3   OH222911   5.319   4.328   3.221
 7657TIP3    H122912   5.363   4.291   3.145
 7657TIP3    H222913   5.344   4.271   3.293
 7658TIP3   OH222914   6.957   6.333   3.577
 7658TIP3    H122915   7.022   6.400   3.597
 7658TIP3    H222916   6.877   6.364   3.621
 7659TIP3   OH222917   2.447   4.538   2.641
 7659TIP3    H122918   2.410   4.626   2.645
 7659TIP3    H222919   2.373   4.482   2.616
 7660TIP3   OH222920   1.718   7.046   0.216
 7660TIP3    H122921   1.666   7.076   0.141
 7660TIP3    H222922   1.809   7.065   0.191
 7661TIP3   OH222923   0.287   7.014   4.789
 7661TIP3    H122924   0.354   6.951   4.762
 7661TIP3    H222925   0.323   7.055   4.868
 7662TIP3   OH222926   3.896   3.365   3.024
 7662TIP3    H122927   3.967   3.309   3.054
 7662TIP3    H222928   3.832   3.363   3.095
 7663TIP3   OH222929   3.647   4.571   2.046
 7663TIP3    H122930   3.643   4.633   1.973
 7663TIP3    H222931   3.571   4.514   2.033
 7664TIP3   OH222932   8.186   1.221   3.172
 7664TIP3    H122933   8.241   1.299   3.178
 7664TIP3    H222934   8.246   1.150   3.153
 7665TIP3   OH222935   7.989   5.807   6.686
 7665TIP3    H122936   7.976   5.715   6.660
 7665TIP3    H222937   7.904   5.848   6.673
 7666TIP3   OH222938   2.900   1.615   5.965
 7666TIP3    H122939   2.831   1.566   6.011
 7666TIP3    H222940   2.895   1.704   6.001
 7667TIP3   OH222941   3.368   0.302   1.204
 7667TIP3    H122942   3.295   0.255   1.243
 7667TIP3    H222943   3.333   0.336   1.122
 7668TIP3   OH222944   1.966   6.265   2.667
 7668TIP3    H122945   1.888   6.281   2.614
 7668TIP3    H222946   1.970   6.339   2.728
 7669TIP3   OH222947   2.718   0.662   1.688
 7669TIP3    H122948   2.773   0.701   1.620
 7669TIP3    H222949   2.780   0.631   1.754
 7670TIP3   OH222950   7.108   2.561   1.191
 7670TIP3    H122951   7.038   2.611   1.149
 7670TIP3    H222952   7.178   2.559   1.125
 7671TIP3   OH222953   3.525   0.565   3.662
 7671TIP3    H122954   3.453   0.535   3.606
 7671TIP3    H222955   3.481   0.607   3.736
 7672TIP3   OH222956   5.192   6.873   4.872
 7672TIP3    H122957   5.285   6.897   4.872
 7672TIP3    H222958   5.162   6.891   4.783
 7673TIP3   OH222959   3.980   5.446   2.354
 7673TIP3    H122960   4.019   5.485   2.433
 7673TIP3    H222961   4.028   5.364   2.341
 7674TIP3   OH222962   3.701   0.440   2.601
 7674TIP3    H122963   3.768   0.507   2.588
 7674TIP3    H222964   3.714   0.412   2.692
 7675TIP3   OH222965   1.683   4.572   5.498
 7675TIP3    H122966   1.656   4.510   5.431
 7675TIP3    H222967   1.779   4.573   5.493
 7676TIP3   OH222968   0.708   4.237   5.554
 7676TIP3    H122969   0.718   4.149   5.591
 7676TIP3    H222970   0.624   4.267   5.588
 7677TIP3   OH222971   2.921   1.508   0.808
 7677TIP3    H122972   2.986   1.540   0.870
 7677TIP3    H222973   2.864   1.584   0.792
 7678TIP3   OH222974   6.907   1.830   0.497
 7678TIP3    H122975   6.956   1.901   0.455
 7678TIP3    H222976   6.830   1.873   0.534
 7679TIP3   OH222977   7.338   5.557   0.793
 7679TIP3    H122978   7.428   5.527   0.789
 7679TIP3    H222979   7.335   5.634   0.736
 7680TIP3   OH222980   7.221   2.508   4.805
 7680TIP3    H122981   7.224   2.413   4.794
 7680TIP3    H222982   7.310   2.537   4.783
 7681TIP3   OH222983   2.827   2.824   6.618
 7681TIP3    H122984   2.815   2.915   6.592
 7681TIP3    H222985   2.879   2.830   6.698
 7682TIP3   OH222986   3.151   4.345   2.517
 7682TIP3    H122987   3.204   4.290   2.460
 7682TIP3    H222988   3.083   4.286   2.550
 7683TIP3   OH222989   6.862   5.045   2.139
 7683TIP3    H122990   6.790   5.106   2.121
 7683TIP3    H222991   6.940   5.091   2.109
 7684TIP3   OH222992   3.582   7.536   1.524
 7684TIP3    H122993   3.548   7.612   1.572
 7684TIP3    H222994   3.572   7.560   1.432
 7685TIP3   OH222995   0.549   4.365   0.172
 7685TIP3    H122996   0.573   4.279   0.138
 7685TIP3    H222997   0.505   4.346   0.255
 7686TIP3   OH222998   6.344   0.256   6.107
 7686TIP3    H122999   6.348   0.190   6.177
 7686TIP3    H223000   6.289   0.215   6.040
 7687TIP3   OH223001   6.608   1.309   2.984
 7687TIP3    H123002   6.647   1.369   2.920
 7687TIP3    H223003   6.573   1.238   2.931
 7688TIP3   OH223004   5.618   2.288   3.785
 7688TIP3    H123005   5.693   2.282   3.844
 7688TIP3    H223006   5.638   2.361   3.726
 7689TIP3   OH223007   1.310   0.179   2.203
 7689TIP3    H123008   1.267   0.096   2.220
 7689TIP3    H223009   1.276   0.238   2.270
 7690TIP3   OH223010   8.374   2.376   1.321
 7690TIP3    H123011   8.399   2.384   1.413
 7690TIP3    H223012   8.371   2.282   1.304
 7691TIP3   OH223013   0.854   7.476   0.495
 7691TIP3    H123014   0.797   7.414   0.541
 7691TIP3    H223015   0.941   7.438   0.503
 7692TIP3   OH223016   3.945   6.713   6.819
 7692TIP3    H123017   4.020   6.763   6.852
 7692TIP3    H223018   3.905   6.676   6.898
 7693TIP3   OH223019   6.931   4.400   1.740
 7693TIP3    H123020   6.877   4.339   1.791
 7693TIP3    H223021   6.916   4.485   1.782
 7694TIP3   OH223022   7.897   4.057   4.218
 7694TIP3    H123023   7.885   3.964   4.200
 7694TIP3    H223024   7.898   4.098   4.131
 7695TIP3   OH223025   5.521   0.952   1.354
 7695TIP3    H123026   5.444   0.906   1.320
 7695TIP3    H223027   5.555   0.895   1.423
 7696TIP3   OH223028   6.567   4.112   3.727
 7696TIP3    H123029   6.621   4.176   3.774
 7696TIP3    H223030   6.599   4.027   3.757
 7697TIP3   OH223031   5.696   7.581   6.805
 7697TIP3    H123032   5.738   7.530   6.875
 7697TIP3    H223033   5.708   7.672   6.831
 7698TIP3   OH223034   6.549   5.114   6.756
 7698TIP3    H123035   6.523   5.063   6.679
 7698TIP3    H223036   6.476   5.105   6.817
 7699TIP3   OH223037   4.471   0.863   6.259
 7699TIP3    H123038   4.411   0.871   6.334
 7699TIP3    H223039   4.558   0.862   6.299
 7700TIP3   OH223040   5.385   3.458   3.061
 7700TIP3    H123041   5.480   3.467   3.064
 7700TIP3    H223042   5.368   3.407   2.982
 7701TIP3   OH223043   3.492   6.792   5.099
 7701TIP3    H123044   3.512   6.865   5.040
 7701TIP3    H223045   3.521   6.714   5.052
 7702TIP3   OH223046   2.152   1.721   1.622
 7702TIP3    H123047   2.160   1.781   1.696
 7702TIP3    H223048   2.104   1.646   1.658
 7703TIP3   OH223049   5.632   3.178   2.069
 7703TIP3    H123050   5.665   3.124   1.997
 7703TIP3    H223051   5.688   3.156   2.143
 7704TIP3   OH223052   0.413   1.103   0.145
 7704TIP3    H123053   0.354   1.087   0.071
 7704TIP3    H223054   0.366   1.068   0.221
 7705TIP3   OH223055   4.158   7.028   3.835
 7705TIP3    H123056   4.159   6.936   3.858
 7705TIP3    H223057   4.068   7.044   3.805
 7706TIP3   OH223058   5.152   7.488   3.137
 7706TIP3    H123059   5.165   7.582   3.127
 7706TIP3    H223060   5.060   7.479   3.160
 7707TIP3   OH223061   3.765   5.435   0.869
 7707TIP3    H123062   3.818   5.405   0.794
 7707TIP3    H223063   3.755   5.356   0.923
 7708TIP3   OH223064   4.140   7.159   2.758
 7708TIP3    H123065   4.104   7.138   2.845
 7708TIP3    H223066   4.063   7.184   2.706
 7709TIP3   OH223067   6.386   2.758   5.150
 7709TIP3    H123068   6.360   2.727   5.237
 7709TIP3    H223069   6.377   2.682   5.094
 7710TIP3   OH223070   2.879   7.765   4.985
 7710TIP3    H123071   2.972   7.786   4.975
 7710TIP3    H223072   2.834   7.848   4.974
 7711TIP3   OH223073   0.757   3.736   4.992
 7711TIP3    H123074   0.667   3.733   5.022
 7711TIP3    H223075   0.809   3.733   5.072
 7712TIP3   OH223076   7.433   2.514   6.794
 7712TIP3    H123077   7.484   2.434   6.803
 7712TIP3    H223078   7.478   2.578   6.848
 7713TIP3   OH223079   7.199   0.377   1.860
 7713TIP3    H123080   7.184   0.381   1.766
 7713TIP3    H223081   7.164   0.460   1.893
 7714TIP3   OH223082   6.947   6.846   1.934
 7714TIP3    H123083   7.005   6.912   1.897
 7714TIP3    H223084   6.916   6.795   1.859
 7715TIP3   OH223085   3.266   7.414   3.035
 7715TIP3    H123086   3.265   7.503   2.999
 7715TIP3    H223087   3.318   7.363   2.972
 7716TIP3   OH223088   1.844   5.639   0.417
 7716TIP3    H123089   1.930   5.653   0.456
 7716TIP3    H223090   1.827   5.719   0.368
 7717TIP3   OH223091   6.751   6.501   5.761
 7717TIP3    H123092   6.672   6.486   5.812
 7717TIP3    H223093   6.823   6.483   5.823
 7718TIP3   OH223094   7.053   3.894   0.436
 7718TIP3    H123095   7.134   3.914   0.482
 7718TIP3    H223096   6.988   3.881   0.505
 7719TIP3   OH223097   8.069   3.484   5.602
 7719TIP3    H123098   8.055   3.482   5.507
 7719TIP3    H223099   8.118   3.404   5.620
 7720TIP3   OH223100   1.891   1.071   1.482
 7720TIP3    H123101   1.862   1.040   1.568
 7720TIP3    H223102   1.844   1.016   1.419
 7721TIP3   OH223103   4.940   4.680   3.794
 7721TIP3    H123104   4.987   4.641   3.867
 7721TIP3    H223105   4.999   4.670   3.719
 7722TIP3   OH223106   6.683   4.423   4.228
 7722TIP3    H123107   6.730   4.434   4.310
 7722TIP3    H223108   6.697   4.331   4.204
 7723TIP3   OH223109   5.161   6.816   5.145
 7723TIP3    H123110   5.193   6.816   5.055
 7723TIP3    H223111   5.093   6.748   5.147
 7724TIP3   OH223112   4.679   6.666   4.027
 7724TIP3    H123113   4.750   6.603   4.042
 7724TIP3    H223114   4.721   6.738   3.980
 7725TIP3   OH223115   3.123   0.707   1.701
 7725TIP3    H123116   3.067   0.772   1.744
 7725TIP3    H223117   3.205   0.753   1.684
 7726TIP3   OH223118   6.319   1.065   0.073
 7726TIP3    H123119   6.408   1.090   0.047
 7726TIP3    H223120   6.265   1.091  -0.002
 7727TIP3   OH223121   7.134   2.028   1.799
 7727TIP3    H123122   7.154   1.934   1.798
 7727TIP3    H223123   7.142   2.054   1.707
 7728TIP3   OH223124   3.219   1.010   0.081
 7728TIP3    H123125   3.124   1.004   0.092
 7728TIP3    H223126   3.232   1.022  -0.013
 7729TIP3   OH223127   5.107   4.606   0.587
 7729TIP3    H123128   5.050   4.661   0.534
 7729TIP3    H223129   5.191   4.652   0.587
 7730TIP3   OH223130   6.608   3.352   6.415
 7730TIP3    H123131   6.593   3.415   6.344
 7730TIP3    H223132   6.695   3.373   6.449
 7731TIP3   OH223133   3.636   7.908   1.288
 7731TIP3    H123134   3.688   7.949   1.219
 7731TIP3    H223135   3.700   7.870   1.348
 7732TIP3   OH223136   2.459   5.693   1.168
 7732TIP3    H123137   2.430   5.713   1.257
 7732TIP3    H223138   2.414   5.612   1.145
 7733TIP3   OH223139   3.862   4.309   2.830
 7733TIP3    H123140   3.928   4.249   2.795
 7733TIP3    H223141   3.913   4.384   2.861
 7734TIP3   OH223142   6.215   3.414   2.578
 7734TIP3    H123143   6.161   3.479   2.623
 7734TIP3    H223144   6.303   3.453   2.578
 7735TIP3   OH223145   0.045   0.256   0.317
 7735TIP3    H123146   0.075   0.254   0.408
 7735TIP3    H223147   0.103   0.319   0.274
 7736TIP3   OH223148   2.165   3.221   1.944
 7736TIP3    H123149   2.117   3.152   1.989
 7736TIP3    H223150   2.233   3.175   1.894
 7737TIP3   OH223151   2.312   2.034   4.496
 7737TIP3    H123152   2.277   1.972   4.431
 7737TIP3    H223153   2.370   2.091   4.446
 7738TIP3   OH223154   2.201   6.186   6.139
 7738TIP3    H123155   2.272   6.199   6.076
 7738TIP3    H223156   2.131   6.245   6.109
 7739TIP3   OH223157   3.779   2.089   6.521
 7739TIP3    H123158   3.828   2.088   6.603
 7739TIP3    H223159   3.708   2.025   6.535
 7740TIP3   OH223160   4.588   2.231   1.450
 7740TIP3    H123161   4.598   2.322   1.423
 7740TIP3    H223162   4.527   2.235   1.524
 7741TIP3   OH223163   4.786   6.713   4.428
 7741TIP3    H123164   4.786   6.804   4.458
 7741TIP3    H223165   4.706   6.706   4.375
 7742TIP3   OH223166   2.388   5.498   0.579
 7742TIP3    H123167   2.377   5.469   0.669
 7742TIP3    H223168   2.304   5.482   0.537
 7743TIP3   OH223169   1.378   3.960   4.761
 7743TIP3    H123170   1.326   4.036   4.735
 7743TIP3    H223171   1.319   3.886   4.749
 7744TIP3   OH223172   1.703   6.845   3.311
 7744TIP3    H123173   1.608   6.845   3.302
 7744TIP3    H223174   1.735   6.799   3.233
 7745TIP3   OH223175   1.998   3.155   5.083
 7745TIP3    H123176   2.083   3.155   5.040
 7745TIP3    H223177   1.948   3.224   5.039
 7746TIP3   OH223178   6.962   7.391   6.014
 7746TIP3    H123179   6.908   7.380   6.092
 7746TIP3    H223180   7.003   7.476   6.025
 7747TIP3   OH223181   7.233   5.514   3.054
 7747TIP3    H123182   7.150   5.472   3.032
 7747TIP3    H223183   7.208   5.602   3.082
 7748TIP3   OH223184   3.729   1.321   4.232
 7748TIP3    H123185   3.709   1.247   4.175
 7748TIP3    H223186   3.824   1.331   4.227
 7749TIP3   OH223187   2.525   4.570   3.920
 7749TIP3    H123188   2.603   4.546   3.869
 7749TIP3    H223189   2.536   4.526   4.004
 7750TIP3   OH223190   3.808   2.262   4.029
 7750TIP3    H123191   3.719   2.258   4.065
 7750TIP3    H223192   3.812   2.188   3.967
 7751TIP3   OH223193   1.786   0.904   5.583
 7751TIP3    H123194   1.787   0.988   5.630
 7751TIP3    H223195   1.868   0.862   5.608
 7752TIP3   OH223196   8.167   4.600   3.281
 7752TIP3    H123197   8.194   4.539   3.212
 7752TIP3    H223198   8.170   4.547   3.361
 7753TIP3   OH223199   7.899   5.169   1.153
 7753TIP3    H123200   7.959   5.179   1.078
 7753TIP3    H223201   7.853   5.252   1.159
 7754TIP3   OH223202   8.376   4.284   6.004
 7754TIP3    H123203   8.388   4.201   5.958
 7754TIP3    H223204   8.428   4.347   5.953
 7755TIP3   OH223205   4.184   2.227   4.808
 7755TIP3    H123206   4.136   2.306   4.834
 7755TIP3    H223207   4.205   2.184   4.891
 7756TIP3   OH223208   7.130   2.679   2.282
 7756TIP3    H123209   7.157   2.711   2.196
 7756TIP3    H223210   7.034   2.680   2.278
 7757TIP3   OH223211   2.881   1.971   2.255
 7757TIP3    H123212   2.903   1.886   2.218
 7757TIP3    H223213   2.905   2.034   2.186
 7758TIP3   OH223214   8.027   0.263   4.676
 7758TIP3    H123215   8.051   0.254   4.584
 7758TIP3    H223216   7.993   0.352   4.683
 7759TIP3   OH223217   0.877   7.268   0.093
 7759TIP3    H123218   0.890   7.360   0.071
 7759TIP3    H223219   0.796   7.244   0.048
 7760TIP3   OH223220   2.824   5.210   5.836
 7760TIP3    H123221   2.734   5.187   5.814
 7760TIP3    H223222   2.817   5.296   5.877
 7761TIP3   OH223223   6.437   2.938   0.725
 7761TIP3    H123224   6.449   3.032   0.734
 7761TIP3    H223225   6.481   2.916   0.642
 7762TIP3   OH223226   0.573   1.589   1.193
 7762TIP3    H123227   0.525   1.590   1.110
 7762TIP3    H223228   0.544   1.668   1.239
 7763TIP3   OH223229   7.587   6.016   1.020
 7763TIP3    H123230   7.510   6.054   1.063
 7763TIP3    H223231   7.563   5.924   1.005
 7764TIP3   OH223232   2.519   6.781   2.290
 7764TIP3    H123233   2.529   6.704   2.346
 7764TIP3    H223234   2.518   6.855   2.351
 7765TIP3   OH223235   3.506   5.503   0.906
 7765TIP3    H123236   3.503   5.433   0.971
 7765TIP3    H223237   3.594   5.498   0.870
 7766TIP3   OH223238   0.091   2.998   0.930
 7766TIP3    H123239   0.097   3.094   0.921
 7766TIP3    H223240   0.003   2.977   0.899
 7767TIP3   OH223241   4.574   0.536   1.010
 7767TIP3    H123242   4.528   0.501   1.087
 7767TIP3    H223243   4.626   0.463   0.978
 7768TIP3   OH223244   6.550   2.004   0.290
 7768TIP3    H123245   6.461   2.015   0.257
 7768TIP3    H223246   6.586   2.093   0.292
 7769TIP3   OH223247   6.362   0.974   6.835
 7769TIP3    H123248   6.268   0.980   6.819
 7769TIP3    H223249   6.402   0.972   6.748
 7770TIP3   OH223250   0.115   6.342   0.554
 7770TIP3    H123251   0.124   6.419   0.499
 7770TIP3    H223252   0.055   6.369   0.623
 7771TIP3   OH223253   1.953   3.806   4.417
 7771TIP3    H123254   2.007   3.785   4.341
 7771TIP3    H223255   1.892   3.733   4.423
 7772TIP3   OH223256   1.748   3.271   1.537
 7772TIP3    H123257   1.772   3.228   1.456
 7772TIP3    H223258   1.656   3.247   1.551
 7773TIP3   OH223259   3.906   7.329   0.637
 7773TIP3    H123260   3.874   7.391   0.572
 7773TIP3    H223261   3.980   7.285   0.595
 7774TIP3   OH223262   3.205   7.656   5.433
 7774TIP3    H123263   3.140   7.690   5.495
 7774TIP3    H223264   3.244   7.580   5.478
 7775TIP3   OH223265   4.604   4.697   0.254
 7775TIP3    H123266   4.531   4.636   0.250
 7775TIP3    H223267   4.567   4.776   0.293
 7776TIP3   OH223268   5.501   1.561   4.160
 7776TIP3    H123269   5.549   1.618   4.100
 7776TIP3    H223270   5.486   1.481   4.110
 7777TIP3   OH223271   5.062   6.812   1.734
 7777TIP3    H123272   5.107   6.896   1.747
 7777TIP3    H223273   4.983   6.819   1.788
 7778TIP3   OH223274   6.359   0.524   6.073
 7778TIP3    H123275   6.327   0.534   5.983
 7778TIP3    H223276   6.348   0.431   6.092
 7779TIP3   OH223277   2.726   2.112   3.972
 7779TIP3    H123278   2.684   2.116   4.057
 7779TIP3    H223279   2.785   2.187   3.970
 7780TIP3   OH223280   8.179   1.001   1.835
 7780TIP3    H123281   8.243   1.008   1.906
 7780TIP3    H223282   8.199   1.074   1.777
 7781TIP3   OH223283   1.896   0.435   2.092
 7781TIP3    H123284   1.832   0.506   2.081
 7781TIP3    H223285   1.980   0.477   2.075
 7782TIP3   OH223286   1.178   5.908   3.380
 7782TIP3    H123287   1.132   5.902   3.464
 7782TIP3    H223288   1.133   5.844   3.324
 7783TIP3   OH223289   6.323   5.358   2.398
 7783TIP3    H123290   6.337   5.438   2.346
 7783TIP3    H223291   6.244   5.319   2.361
 7784TIP3   OH223292   2.657   6.809   1.315
 7784TIP3    H123293   2.617   6.796   1.401
 7784TIP3    H223294   2.741   6.764   1.321
 7785TIP3   OH223295   8.340   2.643   1.640
 7785TIP3    H123296   8.341   2.715   1.577
 7785TIP3    H223297   8.278   2.580   1.604
 7786TIP3   OH223298   4.711   1.109   0.990
 7786TIP3    H123299   4.750   1.025   1.013
 7786TIP3    H223300   4.717   1.161   1.070
 7787TIP3   OH223301   1.184   5.378   2.479
 7787TIP3    H123302   1.133   5.332   2.412
 7787TIP3    H223303   1.195   5.466   2.444
 7788TIP3   OH223304   4.427   4.025   1.051
 7788TIP3    H123305   4.464   4.061   1.131
 7788TIP3    H223306   4.498   3.973   1.013
 7789TIP3   OH223307   2.110   3.087   6.010
 7789TIP3    H123308   2.181   3.134   5.966
 7789TIP3    H223309   2.135   3.088   6.103
 7790TIP3   OH223310   7.906   3.234   0.798
 7790TIP3    H123311   7.868   3.153   0.763
 7790TIP3    H223312   7.924   3.287   0.721
 7791TIP3   OH223313   0.479   5.821   4.363
 7791TIP3    H123314   0.451   5.912   4.374
 7791TIP3    H223315   0.438   5.775   4.436
 7792TIP3   OH223316   0.374   6.984   5.212
 7792TIP3    H123317   0.464   7.006   5.232
 7792TIP3    H223318   0.359   6.899   5.254
 7793TIP3   OH223319   3.297   0.776   2.120
 7793TIP3    H123320   3.368   0.797   2.181
 7793TIP3    H223321   3.323   0.816   2.038
 7794TIP3   OH223322   2.241   4.103   5.150
 7794TIP3    H123323   2.237   4.015   5.188
 7794TIP3    H223324   2.320   4.103   5.097
 7795TIP3   OH223325   2.458   5.038   2.025
 7795TIP3    H123326   2.496   5.014   2.110
 7795TIP3    H223327   2.511   5.112   1.996
 7796TIP3   OH223328   6.942   5.059   5.843
 7796TIP3    H123329   6.995   5.001   5.898
 7796TIP3    H223330   6.901   5.001   5.779
 7797TIP3   OH223331   7.338   3.848   5.620
 7797TIP3    H123332   7.385   3.841   5.703
 7797TIP3    H223333   7.389   3.911   5.568
 7798TIP3   OH223334   7.846   5.107   5.816
 7798TIP3    H123335   7.809   5.020   5.831
 7798TIP3    H223336   7.776   5.167   5.841
 7799TIP3   OH223337   5.101   4.596   1.293
 7799TIP3    H123338   5.035   4.558   1.234
 7799TIP3    H223339   5.170   4.529   1.297
 7800TIP3   OH223340   1.335   2.872   1.127
 7800TIP3    H123341   1.257   2.852   1.180
 7800TIP3    H223342   1.312   2.841   1.039
 7801TIP3   OH223343   5.793   4.936   4.916
 7801TIP3    H123344   5.829   5.006   4.862
 7801TIP3    H223345   5.827   4.855   4.877
 7802TIP3   OH223346   1.089   4.483   4.569
 7802TIP3    H123347   1.180   4.459   4.584
 7802TIP3    H223348   1.093   4.574   4.539
 7803TIP3   OH223349   8.004   1.526   2.963
 7803TIP3    H123350   8.008   1.590   2.892
 7803TIP3    H223351   7.913   1.496   2.962
 7804TIP3   OH223352   0.485   3.905   5.892
 7804TIP3    H123353   0.508   3.871   5.805
 7804TIP3    H223354   0.392   3.928   5.885
 7805TIP3   OH223355   4.921   1.590   4.294
 7805TIP3    H123356   4.946   1.600   4.386
 7805TIP3    H223357   4.916   1.496   4.280
 7806TIP3   OH223358   8.322   6.908   6.329
 7806TIP3    H123359   8.277   6.826   6.309
 7806TIP3    H223360   8.307   6.920   6.423
 7807TIP3   OH223361   7.439   5.626   5.224
 7807TIP3    H123362   7.406   5.565   5.290
 7807TIP3    H223363   7.532   5.635   5.244
 7808TIP3   OH223364   3.350   3.447   0.788
 7808TIP3    H123365   3.426   3.413   0.742
 7808TIP3    H223366   3.308   3.505   0.725
 7809TIP3   OH223367   7.756   5.264   3.146
 7809TIP3    H123368   7.668   5.296   3.166
 7809TIP3    H223369   7.814   5.320   3.198
 7810TIP3   OH223370   3.436   1.372   4.663
 7810TIP3    H123371   3.488   1.383   4.583
 7810TIP3    H223372   3.428   1.461   4.699
 7811TIP3   OH223373   8.289   7.090   2.256
 7811TIP3    H123374   8.328   7.019   2.307
 7811TIP3    H223375   8.352   7.162   2.261
 7812TIP3   OH223376   0.739   2.756   3.168
 7812TIP3    H123377   0.692   2.675   3.154
 7812TIP3    H223378   0.671   2.823   3.173
 7813TIP3   OH223379   4.084   5.916   4.443
 7813TIP3    H123380   4.086   5.998   4.493
 7813TIP3    H223381   3.997   5.879   4.460
 7814TIP3   OH223382   4.829   0.228   3.432
 7814TIP3    H123383   4.916   0.241   3.470
 7814TIP3    H223384   4.818   0.133   3.430
 7815TIP3   OH223385   0.962   7.130   3.976
 7815TIP3    H123386   0.875   7.165   3.997
 7815TIP3    H223387   0.957   7.107   3.884
 7816TIP3   OH223388   0.234   7.444   3.756
 7816TIP3    H123389   0.252   7.536   3.775
 7816TIP3    H223390   0.153   7.446   3.704
 7817TIP3   OH223391   4.232   1.441   5.689
 7817TIP3    H123392   4.278   1.382   5.748
 7817TIP3    H223393   4.164   1.388   5.649
 7818TIP3   OH223394   7.903   0.613   5.544
 7818TIP3    H123395   7.880   0.595   5.453
 7818TIP3    H223396   7.997   0.630   5.542
 7819TIP3   OH223397   6.761   7.468   0.640
 7819TIP3    H123398   6.745   7.438   0.551
 7819TIP3    H223399   6.841   7.520   0.635
 7820TIP3   OH223400   7.164   4.829   4.137
 7820TIP3    H123401   7.197   4.858   4.052
 7820TIP3    H223402   7.078   4.870   4.144
 7821TIP3   OH223403   6.204   0.382   0.338
 7821TIP3    H123404   6.279   0.441   0.343
 7821TIP3    H223405   6.239   0.302   0.299
 7822TIP3   OH223406   5.009   2.887   2.308
 7822TIP3    H123407   4.930   2.941   2.307
 7822TIP3    H223408   4.986   2.808   2.259
 7823TIP3   OH223409   0.450   2.538   5.669
 7823TIP3    H123410   0.453   2.570   5.579
 7823TIP3    H223411   0.433   2.616   5.722
 7824TIP3   OH223412   1.029   1.056   2.891
 7824TIP3    H123413   1.031   0.971   2.934
 7824TIP3    H223414   0.959   1.104   2.935
 7825TIP3   OH223415   4.060   2.297   0.481
 7825TIP3    H123416   4.010   2.355   0.424
 7825TIP3    H223417   4.014   2.213   0.476
 7826TIP3   OH223418   0.897   5.493   6.382
 7826TIP3    H123419   0.977   5.443   6.368
 7826TIP3    H223420   0.889   5.548   6.304
 7827TIP3   OH223421   3.416   7.047   0.193
 7827TIP3    H123422   3.330   7.033   0.230
 7827TIP3    H223423   3.477   7.020   0.261
 7828TIP3   OH223424   2.297   5.712   2.391
 7828TIP3    H123425   2.293   5.636   2.450
 7828TIP3    H223426   2.303   5.787   2.449
 7829TIP3   OH223427   5.451   2.188   0.107
 7829TIP3    H123428   5.500   2.107   0.100
 7829TIP3    H223429   5.361   2.164   0.082
 7830TIP3   OH223430   2.495   6.607   0.528
 7830TIP3    H123431   2.511   6.695   0.562
 7830TIP3    H223432   2.554   6.599   0.453
 7831TIP3   OH223433   7.416   0.052   1.448
 7831TIP3    H123434   7.412   0.055   1.353
 7831TIP3    H223435   7.408  -0.041   1.469
 7832TIP3   OH223436   4.648   7.036   1.418
 7832TIP3    H123437   4.730   6.993   1.444
 7832TIP3    H223438   4.675   7.125   1.395
 7833TIP3   OH223439   4.276   0.975   2.721
 7833TIP3    H123440   4.359   0.982   2.674
 7833TIP3    H223441   4.274   0.885   2.753
 7834TIP3   OH223442   1.341   1.403   6.051
 7834TIP3    H123443   1.311   1.492   6.068
 7834TIP3    H223444   1.434   1.411   6.032
 7835TIP3   OH223445   2.261   0.094   0.530
 7835TIP3    H123446   2.176   0.059   0.504
 7835TIP3    H223447   2.281   0.161   0.464
 7836TIP3   OH223448   3.548   7.641   0.882
 7836TIP3    H123449   3.525   7.605   0.968
 7836TIP3    H223450   3.481   7.707   0.865
 7837TIP3   OH223451   1.317   7.509   4.224
 7837TIP3    H123452   1.282   7.428   4.262
 7837TIP3    H223453   1.285   7.578   4.283
 7838TIP3   OH223454   4.739   6.517   1.512
 7838TIP3    H123455   4.738   6.592   1.572
 7838TIP3    H223456   4.752   6.442   1.569
 7839TIP3   OH223457   5.344   0.930   3.952
 7839TIP3    H123458   5.356   0.837   3.969
 7839TIP3    H223459   5.432   0.966   3.947
 7840TIP3   OH223460   1.351   7.853   4.275
 7840TIP3    H123461   1.403   7.918   4.229
 7840TIP3    H223462   1.274   7.840   4.219
 7841TIP3   OH223463   0.223   1.489   2.055
 7841TIP3    H123464   0.286   1.556   2.081
 7841TIP3    H223465   0.166   1.479   2.131
 7842TIP3   OH223466   2.003   4.816   2.535
 7842TIP3    H123467   2.020   4.830   2.628
 7842TIP3    H223468   1.914   4.848   2.521
 7843TIP3   OH223469   3.116   3.467   5.965
 7843TIP3    H123470   3.106   3.539   6.028
 7843TIP3    H223471   3.127   3.389   6.018
 7844TIP3   OH223472   2.247   5.209   3.780
 7844TIP3    H123473   2.232   5.162   3.698
 7844TIP3    H223474   2.280   5.142   3.840
 7845TIP3   OH223475   0.533   1.070   2.543
 7845TIP3    H123476   0.500   0.986   2.510
 7845TIP3    H223477   0.602   1.094   2.482
 7846TIP3   OH223478   2.829   4.792   3.814
 7846TIP3    H123479   2.760   4.814   3.751
 7846TIP3    H223480   2.806   4.704   3.844
 7847TIP3   OH223481   0.904   5.730   3.346
 7847TIP3    H123482   0.958   5.753   3.271
 7847TIP3    H223483   0.836   5.672   3.310
 7848TIP3   OH223484   4.978   1.421   4.619
 7848TIP3    H123485   4.993   1.342   4.568
 7848TIP3    H223486   5.019   1.404   4.703
 7849TIP3   OH223487   8.352   1.866   2.148
 7849TIP3    H123488   8.327   1.838   2.060
 7849TIP3    H223489   8.433   1.819   2.166
 7850TIP3   OH223490   0.534   1.366   6.497
 7850TIP3    H123491   0.570   1.312   6.427
 7850TIP3    H223492   0.568   1.328   6.578
 7851TIP3   OH223493   4.633   7.203   6.112
 7851TIP3    H123494   4.616   7.155   6.031
 7851TIP3    H223495   4.546   7.226   6.145
 7852TIP3   OH223496   0.859   0.623   4.679
 7852TIP3    H123497   0.954   0.635   4.672
 7852TIP3    H223498   0.841   0.541   4.634
 7853TIP3   OH223499   5.896   7.439   5.334
 7853TIP3    H123500   5.859   7.515   5.288
 7853TIP3    H223501   5.873   7.453   5.426
 7854TIP3   OH223502   2.479   6.772   1.526
 7854TIP3    H123503   2.434   6.692   1.553
 7854TIP3    H223504   2.541   6.789   1.597
 7855TIP3   OH223505   6.498   5.168   2.329
 7855TIP3    H123506   6.468   5.096   2.385
 7855TIP3    H223507   6.447   5.243   2.358
 7856TIP3   OH223508   0.764   5.996   6.604
 7856TIP3    H123509   0.820   5.979   6.529
 7856TIP3    H223510   0.758   6.092   6.609
 7857TIP3   OH223511   0.944   4.909   2.455
 7857TIP3    H123512   0.886   4.984   2.471
 7857TIP3    H223513   0.974   4.921   2.365
 7858TIP3   OH223514   4.445   4.353   5.342
 7858TIP3    H123515   4.372   4.404   5.378
 7858TIP3    H223516   4.518   4.371   5.401
 7859TIP3   OH223517   2.173   7.314   3.415
 7859TIP3    H123518   2.203   7.321   3.324
 7859TIP3    H223519   2.138   7.225   3.422
 7860TIP3   OH223520   1.768   7.013   6.196
 7860TIP3    H123521   1.680   6.981   6.175
 7860TIP3    H223522   1.753   7.087   6.256
 7861TIP3   OH223523   1.357   6.146   3.401
 7861TIP3    H123524   1.286   6.084   3.421
 7861TIP3    H223525   1.334   6.182   3.316
 7862TIP3   OH223526   5.926   1.152   4.328
 7862TIP3    H123527   6.016   1.153   4.295
 7862TIP3    H223528   5.927   1.212   4.403
 7863TIP3   OH223529   3.759   3.402   4.648
 7863TIP3    H123530   3.740   3.372   4.559
 7863TIP3    H223531   3.696   3.355   4.703
 7864TIP3   OH223532   1.248   7.803   6.722
 7864TIP3    H123533   1.181   7.794   6.655
 7864TIP3    H223534   1.199   7.810   6.804
 7865TIP3   OH223535   2.409   5.203   3.062
 7865TIP3    H123536   2.422   5.136   3.129
 7865TIP3    H223537   2.468   5.274   3.088
 7866TIP3   OH223538   0.442   7.619   2.186
 7866TIP3    H123539   0.394   7.536   2.179
 7866TIP3    H223540   0.501   7.606   2.261
 7867TIP3   OH223541   2.878   1.214   0.165
 7867TIP3    H123542   2.837   1.176   0.243
 7867TIP3    H223543   2.805   1.236   0.107
 7868TIP3   OH223544   4.260   5.903   0.084
 7868TIP3    H123545   4.225   5.817   0.062
 7868TIP3    H223546   4.183   5.960   0.089
 7869TIP3   OH223547   1.739   3.830   5.028
 7869TIP3    H123548   1.833   3.818   5.041
 7869TIP3    H223549   1.704   3.741   5.024
 7870TIP3   OH223550   5.720   0.436   1.962
 7870TIP3    H123551   5.778   0.370   1.999
 7870TIP3    H223552   5.692   0.488   2.037
 7871TIP3   OH223553   6.083   6.482   6.487
 7871TIP3    H123554   6.026   6.557   6.506
 7871TIP3    H223555   6.170   6.510   6.514
 7872TIP3   OH223556   5.460   4.964   0.994
 7872TIP3    H123557   5.494   4.983   1.082
 7872TIP3    H223558   5.529   4.912   0.953
 7873TIP3   OH223559   6.120   5.823   3.140
 7873TIP3    H123560   6.185   5.832   3.209
 7873TIP3    H223561   6.130   5.902   3.087
 7874TIP3   OH223562   4.139   1.437   3.627
 7874TIP3    H123563   4.143   1.526   3.662
 7874TIP3    H223564   4.167   1.446   3.536
 7875TIP3   OH223565   3.887   4.261   0.479
 7875TIP3    H123566   3.923   4.247   0.567
 7875TIP3    H223567   3.792   4.264   0.493
 7876TIP3   OH223568   4.101   3.216   5.683
 7876TIP3    H123569   4.137   3.208   5.772
 7876TIP3    H223570   4.073   3.307   5.677
 7877TIP3   OH223571   4.804   6.431   3.888
 7877TIP3    H123572   4.773   6.418   3.799
 7877TIP3    H223573   4.759   6.363   3.939
 7878TIP3   OH223574   7.913   5.971   4.378
 7878TIP3    H123575   7.967   5.989   4.301
 7878TIP3    H223576   7.974   5.966   4.451
 7879TIP3   OH223577   4.815   6.466   6.783
 7879TIP3    H123578   4.789   6.403   6.716
 7879TIP3    H223579   4.842   6.544   6.734
 7880TIP3   OH223580   6.759   5.148   4.469
 7880TIP3    H123581   6.776   5.055   4.486
 7880TIP3    H223582   6.783   5.191   4.551
 7881TIP3   OH223583   7.039   1.849   6.556
 7881TIP3    H123584   7.070   1.759   6.568
 7881TIP3    H223585   7.057   1.892   6.640
 7882TIP3   OH223586   6.649   1.474   5.291
 7882TIP3    H123587   6.673   1.417   5.364
 7882TIP3    H223588   6.556   1.493   5.304
 7883TIP3   OH223589   2.110   5.902   1.954
 7883TIP3    H123590   2.204   5.914   1.942
 7883TIP3    H223591   2.072   5.987   1.931
 7884TIP3   OH223592   5.570   5.231   4.551
 7884TIP3    H123593   5.518   5.220   4.630
 7884TIP3    H223594   5.538   5.311   4.511
 7885TIP3   OH223595   4.769   7.028   3.114
 7885TIP3    H123596   4.832   6.965   3.149
 7885TIP3    H223597   4.793   7.037   3.022
 7886TIP3   OH223598   6.309   7.055   6.151
 7886TIP3    H123599   6.363   7.099   6.085
 7886TIP3    H223600   6.219   7.066   6.119
 7887TIP3   OH223601   7.234   3.886   1.842
 7887TIP3    H123602   7.195   3.827   1.778
 7887TIP3    H223603   7.205   3.853   1.927
 7888TIP3   OH223604   4.858   6.918   1.555
 7888TIP3    H123605   4.881   6.893   1.645
 7888TIP3    H223606   4.908   6.998   1.539
 7889TIP3   OH223607   2.362   0.233   3.373
 7889TIP3    H123608   2.340   0.185   3.294
 7889TIP3    H223609   2.279   0.271   3.402
 7890TIP3   OH223610   8.144   5.391   5.458
 7890TIP3    H123611   8.162   5.350   5.374
 7890TIP3    H223612   8.049   5.387   5.467
 7891TIP3   OH223613   0.595   1.789   2.358
 7891TIP3    H123614   0.651   1.718   2.390
 7891TIP3    H223615   0.654   1.846   2.309
 7892TIP3   OH223616   3.212   6.281   5.556
 7892TIP3    H123617   3.117   6.287   5.545
 7892TIP3    H223618   3.248   6.310   5.472
 7893TIP3   OH223619   8.183   1.220   5.398
 7893TIP3    H123620   8.238   1.292   5.428
 7893TIP3    H223621   8.122   1.261   5.337
 7894TIP3   OH223622   0.029   0.088   1.288
 7894TIP3    H123623  -0.054   0.054   1.255
 7894TIP3    H223624   0.032   0.061   1.380
 7895TIP3   OH223625  -0.025   5.895   3.453
 7895TIP3    H123626  -0.016   5.839   3.376
 7895TIP3    H223627   0.064   5.922   3.473
 7896TIP3   OH223628   6.937   3.862   6.020
 7896TIP3    H123629   6.986   3.859   5.938
 7896TIP3    H223630   7.004   3.874   6.087
 7897TIP3   OH223631   1.624   6.411   3.756
 7897TIP3    H123632   1.661   6.383   3.672
 7897TIP3    H223633   1.669   6.494   3.775
 7898TIP3   OH223634   0.080   4.514   1.677
 7898TIP3    H123635   0.157   4.548   1.633
 7898TIP3    H223636   0.010   4.575   1.653
 7899TIP3   OH223637   4.869   3.510   5.745
 7899TIP3    H123638   4.833   3.583   5.695
 7899TIP3    H223639   4.817   3.434   5.717
 7900TIP3   OH223640   8.325   4.958   0.467
 7900TIP3    H123641   8.362   5.046   0.454
 7900TIP3    H223642   8.273   4.966   0.547
 7901TIP3   OH223643   3.414   7.829   0.640
 7901TIP3    H123644   3.495   7.875   0.622
 7901TIP3    H223645   3.384   7.865   0.724
 7902TIP3   OH223646   5.290   4.278   5.440
 7902TIP3    H123647   5.255   4.191   5.461
 7902TIP3    H223648   5.217   4.324   5.399
 7903TIP3   OH223649   6.187   7.095   4.849
 7903TIP3    H123650   6.104   7.049   4.837
 7903TIP3    H223651   6.222   7.060   4.931
 7904TIP3   OH223652   5.989   5.575   6.382
 7904TIP3    H123653   5.935   5.525   6.322
 7904TIP3    H223654   6.077   5.538   6.371
 7905TIP3   OH223655   2.889   0.302   2.995
 7905TIP3    H123656   2.841   0.335   3.072
 7905TIP3    H223657   2.864   0.362   2.925
 7906TIP3   OH223658   1.027   3.519   3.403
 7906TIP3    H123659   1.034   3.425   3.391
 7906TIP3    H223660   0.979   3.550   3.326
 7907TIP3   OH223661   1.489   5.656   3.490
 7907TIP3    H123662   1.482   5.622   3.401
 7907TIP3    H223663   1.541   5.736   3.480
 7908TIP3   OH223664   3.045   1.000   1.664
 7908TIP3    H123665   3.054   1.068   1.731
 7908TIP3    H223666   3.047   1.048   1.581
 7909TIP3   OH223667   5.451   0.602   1.707
 7909TIP3    H123668   5.445   0.551   1.627
 7909TIP3    H223669   5.394   0.557   1.769
 7910TIP3   OH223670   5.364   2.154   5.043
 7910TIP3    H123671   5.446   2.179   5.002
 7910TIP3    H223672   5.327   2.236   5.075
 7911TIP3   OH223673   3.392   6.343   1.453
 7911TIP3    H123674   3.362   6.327   1.542
 7911TIP3    H223675   3.387   6.257   1.410
 7912TIP3   OH223676   5.699   6.825   5.691
 7912TIP3    H123677   5.688   6.830   5.596
 7912TIP3    H223678   5.722   6.914   5.717
 7913TIP3   OH223679   4.483   6.227   3.397
 7913TIP3    H123680   4.507   6.217   3.489
 7913TIP3    H223681   4.409   6.168   3.385
 7914TIP3   OH223682   7.776   6.493   1.252
 7914TIP3    H123683   7.742   6.405   1.234
 7914TIP3    H223684   7.817   6.486   1.338
 7915TIP3   OH223685   1.112   2.977   4.823
 7915TIP3    H123686   1.042   2.913   4.831
 7915TIP3    H223687   1.185   2.940   4.872
 7916TIP3   OH223688   3.715   3.601   5.971
 7916TIP3    H123689   3.662   3.665   6.020
 7916TIP3    H223690   3.754   3.546   6.039
 7917TIP3   OH223691   2.770   3.729   6.374
 7917TIP3    H123692   2.707   3.662   6.401
 7917TIP3    H223693   2.763   3.731   6.279
 7918TIP3   OH223694   1.762   2.627   0.555
 7918TIP3    H123695   1.830   2.681   0.513
 7918TIP3    H223696   1.810   2.576   0.620
 7919TIP3   OH223697   7.705   3.645   0.578
 7919TIP3    H123698   7.700   3.739   0.596
 7919TIP3    H223699   7.614   3.617   0.571
 7920TIP3   OH223700   4.959   0.092   2.605
 7920TIP3    H123701   4.942   0.135   2.688
 7920TIP3    H223702   4.899   0.134   2.543
 7921TIP3   OH223703   6.008   5.362   4.463
 7921TIP3    H123704   6.022   5.447   4.507
 7921TIP3    H223705   5.996   5.385   4.371
 7922TIP3   OH223706   6.348   1.648   5.953
 7922TIP3    H123707   6.414   1.581   5.936
 7922TIP3    H223708   6.384   1.728   5.914
 7923TIP3   OH223709   7.718   2.199   5.636
 7923TIP3    H123710   7.652   2.225   5.571
 7923TIP3    H223711   7.762   2.123   5.597
 7924TIP3   OH223712   2.103   2.402   6.190
 7924TIP3    H123713   2.100   2.464   6.116
 7924TIP3    H223714   2.068   2.321   6.154
 7925TIP3   OH223715   0.492   5.310   2.209
 7925TIP3    H123716   0.472   5.229   2.161
 7925TIP3    H223717   0.457   5.296   2.297
 7926TIP3   OH223718   6.432   4.354   4.806
 7926TIP3    H123719   6.389   4.273   4.832
 7926TIP3    H223720   6.436   4.405   4.887
 7927TIP3   OH223721   3.559   6.567   4.940
 7927TIP3    H123722   3.512   6.505   4.996
 7927TIP3    H223723   3.520   6.555   4.853
 7928TIP3   OH223724   4.968   5.567   4.546
 7928TIP3    H123725   5.028   5.500   4.579
 7928TIP3    H223726   4.991   5.646   4.595
 7929TIP3   OH223727   1.654   3.248   4.854
 7929TIP3    H123728   1.575   3.288   4.820
 7929TIP3    H223729   1.639   3.241   4.949
 7930TIP3   OH223730   7.589   7.153   0.092
 7930TIP3    H123731   7.559   7.150   0.002
 7930TIP3    H223732   7.529   7.215   0.135
 7931TIP3   OH223733   5.286   1.529   2.537
 7931TIP3    H123734   5.223   1.462   2.565
 7931TIP3    H223735   5.360   1.478   2.503
 7932TIP3   OH223736   4.980   1.910   1.501
 7932TIP3    H123737   5.050   1.970   1.529
 7932TIP3    H223738   4.968   1.851   1.575
 7933TIP3   OH223739   4.952   4.126   1.115
 7933TIP3    H123740   4.891   4.097   1.047
 7933TIP3    H223741   5.012   4.186   1.070
 7934TIP3   OH223742   2.925   3.114   3.402
 7934TIP3    H123743   2.994   3.146   3.344
 7934TIP3    H223744   2.844   3.152   3.366
 7935TIP3   OH223745   0.073   3.881   0.983
 7935TIP3    H123746   0.107   3.907   0.898
 7935TIP3    H223747   0.115   3.797   1.002
 7936TIP3   OH223748   6.840   4.347   0.597
 7936TIP3    H123749   6.872   4.366   0.685
 7936TIP3    H223750   6.857   4.428   0.548
 7937TIP3   OH223751   1.896   0.344   1.832
 7937TIP3    H123752   1.987   0.355   1.804
 7937TIP3    H223753   1.898   0.361   1.927
 7938TIP3   OH223754   6.162   2.476   4.735
 7938TIP3    H123755   6.095   2.540   4.712
 7938TIP3    H223756   6.237   2.499   4.680
 7939TIP3   OH223757   5.006   3.240   0.907
 7939TIP3    H123758   5.073   3.193   0.857
 7939TIP3    H223759   4.981   3.180   0.977
 7940TIP3   OH223760   2.027   1.046   2.196
 7940TIP3    H123761   1.963   1.020   2.262
 7940TIP3    H223762   2.031   0.972   2.136
 7941TIP3   OH223763   0.839   2.628   6.087
 7941TIP3    H123764   0.882   2.685   6.024
 7941TIP3    H223765   0.910   2.572   6.120
 7942TIP3   OH223766   3.151   4.561   0.136
 7942TIP3    H123767   3.136   4.468   0.118
 7942TIP3    H223768   3.118   4.574   0.225
 7943TIP3   OH223769   5.901   0.538   2.764
 7943TIP3    H123770   5.891   0.449   2.731
 7943TIP3    H223771   5.817   0.558   2.806
 7944TIP3   OH223772   7.542   7.741   3.032
 7944TIP3    H123773   7.637   7.743   3.025
 7944TIP3    H223774   7.523   7.651   3.060
 7945TIP3   OH223775   5.694   5.778   3.490
 7945TIP3    H123776   5.688   5.849   3.428
 7945TIP3    H223777   5.660   5.701   3.443
 7946TIP3   OH223778   8.236   2.151   2.861
 7946TIP3    H123779   8.180   2.074   2.852
 7946TIP3    H223780   8.255   2.178   2.772
 7947TIP3   OH223781   7.411   2.147   2.060
 7947TIP3    H123782   7.411   2.057   2.028
 7947TIP3    H223783   7.503   2.170   2.070
 7948TIP3   OH223784   3.506   5.946   1.384
 7948TIP3    H123785   3.470   6.025   1.423
 7948TIP3    H223786   3.433   5.885   1.380
 7949TIP3   OH223787   2.854   2.927   2.921
 7949TIP3    H123788   2.795   3.001   2.911
 7949TIP3    H223789   2.841   2.897   3.010
 7950TIP3   OH223790   5.428   3.876   1.443
 7950TIP3    H123791   5.516   3.879   1.480
 7950TIP3    H223792   5.442   3.874   1.348
 7951TIP3   OH223793   4.632   6.029   6.000
 7951TIP3    H123794   4.540   6.025   6.027
 7951TIP3    H223795   4.629   6.030   5.904
 7952TIP3   OH223796   5.185   3.951   2.673
 7952TIP3    H123797   5.189   3.870   2.622
 7952TIP3    H223798   5.251   3.939   2.741
 7953TIP3   OH223799   0.742   1.402   3.783
 7953TIP3    H123800   0.693   1.332   3.740
 7953TIP3    H223801   0.683   1.477   3.783
 7954TIP3   OH223802   3.869   3.997   0.217
 7954TIP3    H123803   3.949   3.952   0.242
 7954TIP3    H223804   3.801   3.958   0.272
 7955TIP3   OH223805   7.566   5.236   4.338
 7955TIP3    H123806   7.599   5.248   4.427
 7955TIP3    H223807   7.522   5.151   4.341
 7956TIP3   OH223808   6.230   1.552   5.486
 7956TIP3    H123809   6.307   1.591   5.445
 7956TIP3    H223810   6.204   1.482   5.425
 7957TIP3   OH223811   2.090   5.176   6.557
 7957TIP3    H123812   2.107   5.270   6.561
 7957TIP3    H223813   2.124   5.142   6.639
 7958TIP3   OH223814   0.654   0.997   2.000
 7958TIP3    H123815   0.744   0.973   1.976
 7958TIP3    H223816   0.619   1.042   1.923
 7959TIP3   OH223817   6.029   1.776   1.689
 7959TIP3    H123818   6.101   1.820   1.645
 7959TIP3    H223819   6.016   1.694   1.640
 7960TIP3   OH223820   3.309   4.731   4.460
 7960TIP3    H123821   3.256   4.787   4.516
 7960TIP3    H223822   3.276   4.748   4.371
 7961TIP3   OH223823   0.167   3.691   0.268
 7961TIP3    H123824   0.191   3.731   0.351
 7961TIP3    H223825   0.200   3.602   0.274
 7962TIP3   OH223826   1.216   6.019   2.651
 7962TIP3    H123827   1.230   6.111   2.628
 7962TIP3    H223828   1.272   6.004   2.727
 7963TIP3   OH223829   4.976   3.438   2.337
 7963TIP3    H123830   4.957   3.516   2.286
 7963TIP3    H223831   5.048   3.395   2.289
 7964TIP3   OH223832   7.961   3.036   5.579
 7964TIP3    H123833   7.918   3.069   5.500
 7964TIP3    H223834   7.892   2.994   5.629
 7965TIP3   OH223835   6.563   3.563   6.251
 7965TIP3    H123836   6.617   3.635   6.284
 7965TIP3    H223837   6.560   3.576   6.157
 7966TIP3   OH223838   8.022   0.618   2.215
 7966TIP3    H123839   7.995   0.707   2.195
 7966TIP3    H223840   8.047   0.621   2.307
 7967TIP3   OH223841   6.263   0.104   6.344
 7967TIP3    H123842   6.269   0.175   6.408
 7967TIP3    H223843   6.351   0.067   6.341
 7968TIP3   OH223844   3.471   5.395   6.430
 7968TIP3    H123845   3.386   5.396   6.387
 7968TIP3    H223846   3.509   5.481   6.412
 7969TIP3   OH223847   0.746   2.575   1.121
 7969TIP3    H123848   0.819   2.611   1.072
 7969TIP3    H223849   0.668   2.615   1.083
 7970TIP3   OH223850   0.333   1.600   1.741
 7970TIP3    H123851   0.296   1.657   1.809
 7970TIP3    H223852   0.257   1.569   1.691
 7971TIP3   OH223853   5.535   5.173   0.164
 7971TIP3    H123854   5.549   5.136   0.077
 7971TIP3    H223855   5.592   5.122   0.221
 7972TIP3   OH223856   4.396   3.357   2.578
 7972TIP3    H123857   4.474   3.409   2.559
 7972TIP3    H223858   4.333   3.383   2.511
 7973TIP3   OH223859   8.109   0.154   5.707
 7973TIP3    H123860   8.043   0.092   5.738
 7973TIP3    H223861   8.129   0.209   5.783
 7974TIP3   OH223862   2.447   2.350   0.689
 7974TIP3    H123863   2.426   2.335   0.597
 7974TIP3    H223864   2.514   2.418   0.687
 7975TIP3   OH223865   3.172   6.192   6.532
 7975TIP3    H123866   3.144   6.116   6.479
 7975TIP3    H223867   3.090   6.230   6.564
 7976TIP3   OH223868   6.170   0.457   3.867
 7976TIP3    H123869   6.219   0.381   3.834
 7976TIP3    H223870   6.131   0.427   3.948
 7977TIP3   OH223871   4.219   6.960   4.544
 7977TIP3    H123872   4.225   7.055   4.541
 7977TIP3    H223873   4.152   6.942   4.610
 7978TIP3   OH223874   6.414   0.862   1.366
 7978TIP3    H123875   6.389   0.941   1.318
 7978TIP3    H223876   6.332   0.828   1.402
 7979TIP3   OH223877   4.325   5.819   4.460
 7979TIP3    H123878   4.321   5.725   4.441
 7979TIP3    H223879   4.235   5.848   4.455
 7980TIP3   OH223880   1.953   0.172   3.736
 7980TIP3    H123881   1.980   0.106   3.672
 7980TIP3    H223882   2.004   0.150   3.815
 7981TIP3   OH223883   7.567   1.451   2.801
 7981TIP3    H123884   7.545   1.507   2.875
 7981TIP3    H223885   7.543   1.502   2.724
 7982TIP3   OH223886   2.132   7.477   1.344
 7982TIP3    H123887   2.113   7.566   1.375
 7982TIP3    H223888   2.217   7.484   1.300
 7983TIP3   OH223889   1.961   2.479   6.420
 7983TIP3    H123890   2.009   2.428   6.354
 7983TIP3    H223891   1.893   2.524   6.370
 7984TIP3   OH223892   2.960   0.265   1.697
 7984TIP3    H123893   2.920   0.289   1.780
 7984TIP3    H223894   3.041   0.220   1.721
 7985TIP3   OH223895   5.194   2.351   5.971
 7985TIP3    H123896   5.160   2.276   6.020
 7985TIP3    H223897   5.276   2.320   5.934
 7986TIP3   OH223898   5.127   4.683   2.049
 7986TIP3    H123899   5.193   4.702   2.116
 7986TIP3    H223900   5.163   4.610   2.000
 7987TIP3   OH223901   7.431   2.607   0.761
 7987TIP3    H123902   7.381   2.586   0.681
 7987TIP3    H223903   7.378   2.673   0.806
 7988TIP3   OH223904   3.833   4.060   4.253
 7988TIP3    H123905   3.761   4.061   4.315
 7988TIP3    H223906   3.912   4.072   4.306
 7989TIP3   OH223907   2.937   4.700   1.049
 7989TIP3    H123908   2.958   4.764   1.117
 7989TIP3    H223909   2.993   4.625   1.069
 7990TIP3   OH223910   1.715   1.766   3.160
 7990TIP3    H123911   1.765   1.788   3.238
 7990TIP3    H223912   1.733   1.837   3.098
 7991TIP3   OH223913   5.696   2.086   4.659
 7991TIP3    H123914   5.644   2.119   4.732
 7991TIP3    H223915   5.764   2.032   4.700
 7992TIP3   OH223916   3.211   5.383   1.905
 7992TIP3    H123917   3.256   5.428   1.977
 7992TIP3    H223918   3.279   5.334   1.860
 7993TIP3   OH223919   5.197   6.214   3.247
 7993TIP3    H123920   5.244   6.246   3.170
 7993TIP3    H223921   5.189   6.120   3.233
 7994TIP3   OH223922   7.963   6.967   6.417
 7994TIP3    H123923   7.934   7.021   6.344
 7994TIP3    H223924   7.896   6.898   6.423
 7995TIP3   OH223925   6.023   5.351   4.191
 7995TIP3    H123926   5.988   5.281   4.136
 7995TIP3    H223927   6.097   5.386   4.140
 7996TIP3   OH223928   2.095   5.715   4.785
 7996TIP3    H123929   2.035   5.789   4.770
 7996TIP3    H223930   2.157   5.720   4.712
 7997TIP3   OH223931   4.718   0.285   3.153
 7997TIP3    H123932   4.710   0.288   3.248
 7997TIP3    H223933   4.656   0.217   3.126
 7998TIP3   OH223934   7.526   1.428   3.300
 7998TIP3    H123935   7.500   1.380   3.379
 7998TIP3    H223936   7.585   1.368   3.254
 7999TIP3   OH223937   6.787   6.705   5.006
 7999TIP3    H123938   6.724   6.638   4.980
 7999TIP3    H223939   6.777   6.775   4.941
 8000TIP3   OH223940   0.634   7.891   6.174
 8000TIP3    H123941   0.592   7.969   6.136
 8000TIP3    H223942   0.712   7.878   6.120
 8001TIP3   OH223943   8.036   2.060   2.541
 8001TIP3    H123944   8.126   2.072   2.511
 8001TIP3    H223945   7.991   2.141   2.516
 8002TIP3   OH223946   4.268   2.778   0.272
 8002TIP3    H123947   4.242   2.740   0.356
 8002TIP3    H223948   4.290   2.869   0.292
 8003TIP3   OH223949   4.848   7.932   4.274
 8003TIP3    H123950   4.854   7.838   4.254
 8003TIP3    H223951   4.779   7.964   4.216
 8004TIP3   OH223952   2.012   6.149   3.635
 8004TIP3    H123953   2.025   6.216   3.568
 8004TIP3    H223954   2.049   6.070   3.597
 8005TIP3   OH223955   3.218   6.243   4.872
 8005TIP3    H123956   3.217   6.182   4.798
 8005TIP3    H223957   3.269   6.318   4.840
 8006TIP3   OH223958   4.645   1.900   2.390
 8006TIP3    H123959   4.632   1.964   2.321
 8006TIP3    H223960   4.735   1.913   2.419
 8007TIP3   OH223961   2.691   7.355   3.465
 8007TIP3    H123962   2.755   7.325   3.400
 8007TIP3    H223963   2.721   7.443   3.489
 8008TIP3   OH223964   2.600   4.595   5.296
 8008TIP3    H123965   2.608   4.526   5.230
 8008TIP3    H223966   2.544   4.556   5.364
 8009TIP3   OH223967   3.339   3.795   2.217
 8009TIP3    H123968   3.364   3.740   2.290
 8009TIP3    H223969   3.273   3.745   2.170
 8010TIP3   OH223970   1.871   6.697   5.205
 8010TIP3    H123971   1.805   6.639   5.168
 8010TIP3    H223972   1.841   6.785   5.183
 8011TIP3   OH223973   4.472   5.063   0.190
 8011TIP3    H123974   4.438   4.999   0.128
 8011TIP3    H223975   4.472   5.017   0.274
 8012TIP3   OH223976   2.969   2.070   3.122
 8012TIP3    H123977   2.975   2.130   3.048
 8012TIP3    H223978   3.060   2.051   3.146
 8013TIP3   OH223979   3.280   2.482   5.870
 8013TIP3    H123980   3.260   2.545   5.939
 8013TIP3    H223981   3.282   2.535   5.790
 8014TIP3   OH223982   4.430   6.120   1.293
 8014TIP3    H123983   4.416   6.111   1.199
 8014TIP3    H223984   4.524   6.129   1.302
 8015TIP3   OH223985   6.728   4.630   2.443
 8015TIP3    H123986   6.774   4.581   2.375
 8015TIP3    H223987   6.637   4.635   2.411
 8016TIP3   OH223988   8.225   3.839  -0.017
 8016TIP3    H123989   8.148   3.843   0.039
 8016TIP3    H223990   8.290   3.792   0.036
 8017TIP3   OH223991   0.274   2.628   2.300
 8017TIP3    H123992   0.184   2.640   2.329
 8017TIP3    H223993   0.306   2.716   2.284
 8018TIP3   OH223994   7.466   5.256   3.139
 8018TIP3    H123995   7.399   5.302   3.189
 8018TIP3    H223996   7.427   5.245   3.052
 8019TIP3   OH223997   2.248   3.489   2.002
 8019TIP3    H123998   2.266   3.398   2.023
 8019TIP3    H223999   2.255   3.494   1.907
 8020TIP3   OH224000   3.244   0.539   4.061
 8020TIP3    H124001   3.327   0.491   4.051
 8020TIP3    H224002   3.178   0.480   4.025
 8021TIP3   OH224003   2.027   1.489   4.839
 8021TIP3    H124004   2.050   1.400   4.866
 8021TIP3    H224005   1.996   1.531   4.920
 8022TIP3   OH224006   4.924   4.435   0.276
 8022TIP3    H124007   4.833   4.429   0.248
 8022TIP3    H224008   4.927   4.511   0.334
 8023TIP3   OH224009   3.732   2.589   6.218
 8023TIP3    H124010   3.800   2.523   6.234
 8023TIP3    H224011   3.656   2.558   6.267
 8024TIP3   OH224012   5.746   6.588   1.709
 8024TIP3    H124013   5.699   6.560   1.788
 8024TIP3    H224014   5.706   6.672   1.686
 8025TIP3   OH224015   7.450   3.966   6.491
 8025TIP3    H124016   7.456   3.981   6.397
 8025TIP3    H224017   7.532   3.923   6.514
 8026TIP3   OH224018   3.615   1.060   6.603
 8026TIP3    H124019   3.608   0.998   6.529
 8026TIP3    H224020   3.646   1.141   6.563
 8027TIP3   OH224021   6.217   5.155   6.521
 8027TIP3    H124022   6.293   5.103   6.492
 8027TIP3    H224023   6.255   5.226   6.572
 8028TIP3   OH224024   3.403   6.057   1.970
 8028TIP3    H124025   3.378   6.110   2.045
 8028TIP3    H224026   3.487   6.018   1.994
 8029TIP3   OH224027   0.026   3.282   0.826
 8029TIP3    H124028   0.086   3.340   0.777
 8029TIP3    H224029  -0.027   3.240   0.758
 8030TIP3   OH224030   3.471   6.205   0.321
 8030TIP3    H124031   3.429   6.290   0.308
 8030TIP3    H224032   3.443   6.177   0.408
 8031TIP3   OH224033   7.354   7.798   0.835
 8031TIP3    H124034   7.290   7.766   0.772
 8031TIP3    H224035   7.302   7.824   0.911
 8032TIP3   OH224036   2.467   4.380   0.378
 8032TIP3    H124037   2.426   4.329   0.448
 8032TIP3    H224038   2.398   4.393   0.314
 8033TIP3   OH224039   7.842   7.185   1.660
 8033TIP3    H124040   7.909   7.251   1.645
 8033TIP3    H224041   7.785   7.222   1.727
 8034TIP3   OH224042   8.195   7.568   3.678
 8034TIP3    H124043   8.122   7.515   3.711
 8034TIP3    H224044   8.228   7.614   3.755
 8035TIP3   OH224045   6.325   7.620   0.476
 8035TIP3    H124046   6.349   7.592   0.564
 8035TIP3    H224047   6.288   7.708   0.488
 8036TIP3   OH224048   5.472   2.501   1.633
 8036TIP3    H124049   5.505   2.504   1.723
 8036TIP3    H224050   5.377   2.503   1.642
 8037TIP3   OH224051   0.411   7.716   5.470
 8037TIP3    H124052   0.385   7.642   5.525
 8037TIP3    H224053   0.492   7.748   5.509
 8038TIP3   OH224054   4.859   3.668   4.644
 8038TIP3    H124055   4.855   3.581   4.603
 8038TIP3    H224056   4.840   3.729   4.572
 8039TIP3   OH224057   6.178   4.832   6.290
 8039TIP3    H124058   6.095   4.880   6.293
 8039TIP3    H224059   6.245   4.900   6.282
 8040TIP3   OH224060   7.237   6.890   4.166
 8040TIP3    H124061   7.235   6.842   4.083
 8040TIP3    H224062   7.164   6.952   4.160
 8041TIP3   OH224063   1.698   2.502   1.610
 8041TIP3    H124064   1.715   2.560   1.684
 8041TIP3    H224065   1.705   2.414   1.647
 8042TIP3   OH224066   5.072   7.491   1.135
 8042TIP3    H124067   5.109   7.515   1.050
 8042TIP3    H224068   5.037   7.403   1.121
 8043TIP3   OH224069   6.291   6.820   3.853
 8043TIP3    H124070   6.230   6.841   3.783
 8043TIP3    H224071   6.294   6.899   3.907
 8044TIP3   OH224072   7.430   5.054   1.177
 8044TIP3    H124073   7.443   5.034   1.270
 8044TIP3    H224074   7.473   5.138   1.164
 8045TIP3   OH224075   7.902   1.078   3.770
 8045TIP3    H124076   7.972   1.144   3.772
 8045TIP3    H224077   7.830   1.121   3.724
 8046TIP3   OH224078   0.167   5.319   4.557
 8046TIP3    H124079   0.130   5.237   4.588
 8046TIP3    H224080   0.176   5.308   4.463
 8047TIP3   OH224081   8.127   5.701   2.062
 8047TIP3    H124082   8.078   5.619   2.060
 8047TIP3    H224083   8.212   5.676   2.099
 8048TIP3   OH224084   7.066   0.250   5.896
 8048TIP3    H124085   7.127   0.183   5.926
 8048TIP3    H224086   7.098   0.276   5.810
 8049TIP3   OH224087   3.155   4.226   4.069
 8049TIP3    H124088   3.179   4.135   4.083
 8049TIP3    H224089   3.114   4.227   3.982
 8050TIP3   OH224090   7.116   7.476   4.742
 8050TIP3    H124091   7.041   7.472   4.801
 8050TIP3    H224092   7.180   7.414   4.779
 8051TIP3   OH224093   4.253   0.062   6.052
 8051TIP3    H124094   4.224   0.091   6.138
 8051TIP3    H224095   4.242   0.139   5.996
 8052TIP3   OH224096   0.710   1.720   0.779
 8052TIP3    H124097   0.787   1.769   0.809
 8052TIP3    H224098   0.653   1.787   0.741
 8053TIP3   OH224099   5.593   7.814   6.580
 8053TIP3    H124100   5.611   7.839   6.670
 8053TIP3    H224101   5.678   7.788   6.544
 8054TIP3   OH224102   2.579   3.670   1.377
 8054TIP3    H124103   2.504   3.728   1.391
 8054TIP3    H224104   2.644   3.698   1.441
 8055TIP3   OH224105   6.196   4.409   2.250
 8055TIP3    H124106   6.245   4.469   2.193
 8055TIP3    H224107   6.115   4.392   2.201
 8056TIP3   OH224108   6.210   3.341   2.066
 8056TIP3    H124109   6.175   3.255   2.091
 8056TIP3    H224110   6.144   3.403   2.094
 8057TIP3   OH224111   5.384   3.520   0.671
 8057TIP3    H124112   5.397   3.597   0.615
 8057TIP3    H224113   5.361   3.450   0.611
 8058TIP3   OH224114   6.038   3.977   2.606
 8058TIP3    H124115   5.984   4.053   2.586
 8058TIP3    H224116   6.004   3.908   2.550
 8059TIP3   OH224117   4.841   6.450   0.532
 8059TIP3    H124118   4.767   6.409   0.576
 8059TIP3    H224119   4.900   6.476   0.603
 8060TIP3   OH224120   1.539   4.203   1.828
 8060TIP3    H124121   1.541   4.248   1.743
 8060TIP3    H224122   1.622   4.226   1.870
 8061TIP3   OH224123   0.696   1.345   2.506
 8061TIP3    H124124   0.763   1.303   2.560
 8061TIP3    H224125   0.643   1.395   2.567
 8062TIP3   OH224126   1.984   3.067   6.458
 8062TIP3    H124127   2.071   3.040   6.488
 8062TIP3    H224128   1.952   2.991   6.410
 8063TIP3   OH224129   4.477   7.589   5.982
 8063TIP3    H124130   4.417   7.657   5.950
 8063TIP3    H224131   4.563   7.617   5.952
 8064TIP3   OH224132   4.005   4.580   0.270
 8064TIP3    H124133   4.013   4.562   0.176
 8064TIP3    H224134   4.091   4.558   0.306
 8065TIP3   OH224135   7.846   2.952   1.443
 8065TIP3    H124136   7.771   2.983   1.493
 8065TIP3    H224137   7.821   2.964   1.352
 8066TIP3   OH224138   6.017   1.606   1.435
 8066TIP3    H124139   5.983   1.646   1.356
 8066TIP3    H224140   6.107   1.581   1.413
 8067TIP3   OH224141   0.486   7.344   4.543
 8067TIP3    H124142   0.398   7.347   4.505
 8067TIP3    H224143   0.520   7.432   4.531
 8068TIP3   OH224144   0.563   0.718   6.123
 8068TIP3    H124145   0.534   0.682   6.206
 8068TIP3    H224146   0.572   0.642   6.065
 8069TIP3   OH224147   2.377   3.673   6.153
 8069TIP3    H124148   2.469   3.666   6.179
 8069TIP3    H224149   2.364   3.601   6.092
 8070TIP3   OH224150   5.846   7.618   1.678
 8070TIP3    H124151   5.788   7.672   1.731
 8070TIP3    H224152   5.914   7.678   1.647
 8071TIP3   OH224153   2.527   7.185   2.515
 8071TIP3    H124154   2.502   7.272   2.546
 8071TIP3    H224155   2.495   7.181   2.425
 8072TIP3   OH224156   1.365   0.434   1.324
 8072TIP3    H124157   1.458   0.443   1.344
 8072TIP3    H224158   1.321   0.448   1.408
 8073TIP3   OH224159   0.383   5.294   0.227
 8073TIP3    H124160   0.371   5.320   0.136
 8073TIP3    H224161   0.422   5.207   0.222
 8074TIP3   OH224162   6.622   3.931   6.392
 8074TIP3    H124163   6.671   4.013   6.382
 8074TIP3    H224164   6.677   3.865   6.349
 8075TIP3   OH224165   7.946   0.909   3.344
 8075TIP3    H124166   8.012   0.975   3.366
 8075TIP3    H224167   7.886   0.955   3.285
 8076TIP3   OH224168   1.876   1.667   0.735
 8076TIP3    H124169   1.837   1.649   0.649
 8076TIP3    H224170   1.940   1.736   0.718
 8077TIP3   OH224171   6.434   2.882   3.722
 8077TIP3    H124172   6.460   2.849   3.636
 8077TIP3    H224173   6.366   2.823   3.752
 8078TIP3   OH224174   8.010   2.068   4.957
 8078TIP3    H124175   7.968   2.141   5.002
 8078TIP3    H224176   7.938   2.015   4.924
 8079TIP3   OH224177   1.666   1.891   3.762
 8079TIP3    H124178   1.664   1.817   3.824
 8079TIP3    H224179   1.758   1.916   3.757
 8080TIP3   OH224180   0.201   0.120   3.905
 8080TIP3    H124181   0.192   0.196   3.848
 8080TIP3    H224182   0.175   0.152   3.992
 8081TIP3   OH224183   2.584   2.684   5.421
 8081TIP3    H124184   2.653   2.732   5.374
 8081TIP3    H224185   2.542   2.632   5.354
 8082TIP3   OH224186   0.444   7.151   1.722
 8082TIP3    H124187   0.508   7.137   1.791
 8082TIP3    H224188   0.453   7.074   1.665
 8083TIP3   OH224189   7.446   3.055   6.720
 8083TIP3    H124190   7.486   2.968   6.725
 8083TIP3    H224191   7.520   3.115   6.713
 8084TIP3   OH224192   6.099   4.332   3.376
 8084TIP3    H124193   6.192   4.346   3.395
 8084TIP3    H224194   6.057   4.328   3.461
 8085TIP3   OH224195   0.323   6.468   1.737
 8085TIP3    H124196   0.283   6.481   1.651
 8085TIP3    H224197   0.399   6.526   1.737
 8086TIP3   OH224198   7.837   2.541   2.905
 8086TIP3    H124199   7.782   2.558   2.982
 8086TIP3    H224200   7.914   2.595   2.919
 8087TIP3   OH224201   1.547   0.207   2.608
 8087TIP3    H124202   1.452   0.200   2.615
 8087TIP3    H224203   1.561   0.283   2.552
 8088TIP3   OH224204   5.816   1.256   3.792
 8088TIP3    H124205   5.785   1.347   3.790
 8088TIP3    H224206   5.739   1.204   3.770
 8089TIP3   OH224207   0.902   1.351   6.472
 8089TIP3    H124208   0.887   1.335   6.379
 8089TIP3    H224209   0.833   1.303   6.517
 8090TIP3   OH224210   3.643   3.927   4.892
 8090TIP3    H124211   3.642   3.876   4.811
 8090TIP3    H224212   3.551   3.954   4.905
 8091TIP3   OH224213   1.264   6.827   1.052
 8091TIP3    H124214   1.344   6.774   1.054
 8091TIP3    H224215   1.219   6.799   0.973
 8092TIP3   OH224216   0.068   5.729   6.810
 8092TIP3    H124217   0.131   5.658   6.818
 8092TIP3    H224218   0.092   5.774   6.729
 8093TIP3   OH224219   5.302   5.452   1.790
 8093TIP3    H124220   5.379   5.417   1.835
 8093TIP3    H224221   5.279   5.385   1.726
 8094TIP3   OH224222   6.326   5.961   3.840
 8094TIP3    H124223   6.258   5.919   3.893
 8094TIP3    H224224   6.354   5.893   3.779
 8095TIP3   OH224225   2.598   4.447   2.215
 8095TIP3    H124226   2.608   4.526   2.269
 8095TIP3    H224227   2.503   4.440   2.202
 8096TIP3   OH224228   5.380   6.780   2.293
 8096TIP3    H124229   5.388   6.818   2.205
 8096TIP3    H224230   5.468   6.750   2.314
 8097TIP3   OH224231   3.502   6.147   4.363
 8097TIP3    H124232   3.460   6.233   4.368
 8097TIP3    H224233   3.432   6.084   4.382
 8098TIP3   OH224234   0.371   0.295   6.266
 8098TIP3    H124235   0.312   0.339   6.327
 8098TIP3    H224236   0.456   0.295   6.310
 8099TIP3   OH224237   6.967   7.412   0.245
 8099TIP3    H124238   6.970   7.318   0.266
 8099TIP3    H224239   6.890   7.421   0.189
 8100TIP3   OH224240   0.436   0.122   4.516
 8100TIP3    H124241   0.463   0.118   4.424
 8100TIP3    H224242   0.503   0.071   4.562
 8101TIP3   OH224243   7.720   3.019   6.147
 8101TIP3    H124244   7.813   3.043   6.150
 8101TIP3    H224245   7.674   3.103   6.144
 8102TIP3   OH224246   5.904   7.204   2.627
 8102TIP3    H124247   5.836   7.150   2.587
 8102TIP3    H224248   5.978   7.199   2.567
 8103TIP3   OH224249   2.226   4.467   3.583
 8103TIP3    H124250   2.146   4.436   3.625
 8103TIP3    H224251   2.287   4.482   3.655
 8104TIP3   OH224252   2.579   3.929   0.982
 8104TIP3    H124253   2.557   3.850   0.933
 8104TIP3    H224254   2.658   3.963   0.939
 8105TIP3   OH224255   4.966   4.925   0.333
 8105TIP3    H124256   4.941   4.947   0.422
 8105TIP3    H224257   5.012   4.841   0.341
 8106TIP3   OH224258   2.433   7.512   4.296
 8106TIP3    H124259   2.367   7.525   4.227
 8106TIP3    H224260   2.517   7.513   4.250
 8107TIP3   OH224261   6.976   0.659   5.493
 8107TIP3    H124262   7.043   0.727   5.489
 8107TIP3    H224263   7.021   0.580   5.463
 8108TIP3   OH224264   1.333   5.812   1.123
 8108TIP3    H124265   1.323   5.839   1.031
 8108TIP3    H224266   1.416   5.764   1.125
 8109TIP3   OH224267   3.704   4.422   1.001
 8109TIP3    H124268   3.729   4.515   0.995
 8109TIP3    H224269   3.732   4.395   1.088
 8110TIP3   OH224270   6.014   0.918   3.702
 8110TIP3    H124271   6.000   0.933   3.795
 8110TIP3    H224272   6.048   0.828   3.698
 8111TIP3   OH224273   8.268   6.664   2.562
 8111TIP3    H124274   8.291   6.572   2.546
 8111TIP3    H224275   8.227   6.663   2.648
 8112TIP3   OH224276   6.315   6.455   3.664
 8112TIP3    H124277   6.253   6.500   3.607
 8112TIP3    H224278   6.272   6.372   3.686
 8113TIP3   OH224279   1.695   5.275   0.535
 8113TIP3    H124280   1.626   5.229   0.583
 8113TIP3    H224281   1.719   5.214   0.464
 8114TIP3   OH224282   4.459   2.586   4.532
 8114TIP3    H124283   4.455   2.492   4.549
 8114TIP3    H224284   4.416   2.598   4.447
 8115TIP3   OH224285   5.440   7.160   2.002
 8115TIP3    H124286   5.378   7.224   2.037
 8115TIP3    H224287   5.462   7.194   1.915
 8116TIP3   OH224288   2.250   5.873   0.580
 8116TIP3    H124289   2.186   5.939   0.608
 8116TIP3    H224290   2.261   5.888   0.487
 8117TIP3   OH224291   6.898   7.417   2.694
 8117TIP3    H124292   6.863   7.396   2.780
 8117TIP3    H224293   6.850   7.496   2.667
 8118TIP3   OH224294   8.179   3.781   0.991
 8118TIP3    H124295   8.202   3.690   1.008
 8118TIP3    H224296   8.263   3.827   0.991
 8119TIP3   OH224297   3.975   6.310   6.581
 8119TIP3    H124298   3.898   6.267   6.542
 8119TIP3    H224299   4.042   6.304   6.513
 8120TIP3   OH224300   1.348   4.385   4.602
 8120TIP3    H124301   1.437   4.416   4.590
 8120TIP3    H224302   1.340   4.372   4.697
 8121TIP3   OH224303   6.241   6.931   0.659
 8121TIP3    H124304   6.321   6.916   0.710
 8121TIP3    H224305   6.212   7.018   0.685
 8122TIP3   OH224306   4.677   5.730   6.272
 8122TIP3    H124307   4.653   5.806   6.326
 8122TIP3    H224308   4.631   5.657   6.312
 8123TIP3   OH224309   4.294   0.702   4.781
 8123TIP3    H124310   4.287   0.788   4.822
 8123TIP3    H224311   4.383   0.698   4.747
 8124TIP3   OH224312   0.166   3.424   4.696
 8124TIP3    H124313   0.135   3.396   4.610
 8124TIP3    H224314   0.257   3.397   4.700
 8125TIP3   OH224315   3.351   6.981   5.233
 8125TIP3    H124316   3.268   6.960   5.190
 8125TIP3    H224317   3.414   6.920   5.197
 8126TIP3   OH224318   3.663   6.852   5.579
 8126TIP3    H124319   3.677   6.946   5.578
 8126TIP3    H224320   3.583   6.838   5.528
 8127TIP3   OH224321   7.939   0.081   0.029
 8127TIP3    H124322   7.934  -0.004   0.073
 8127TIP3    H224323   8.018   0.076  -0.024
 8128TIP3   OH224324   6.443   7.558   6.108
 8128TIP3    H124325   6.535   7.560   6.135
 8128TIP3    H224326   6.398   7.515   6.180
 8129TIP3   OH224327   2.057   1.146   0.929
 8129TIP3    H124328   1.997   1.072   0.929
 8129TIP3    H224329   2.129   1.118   0.986
 8130TIP3   OH224330   0.598   5.775   5.628
 8130TIP3    H124331   0.613   5.852   5.682
 8130TIP3    H224332   0.553   5.713   5.685
 8131TIP3   OH224333   5.830   4.739   3.112
 8131TIP3    H124334   5.740   4.709   3.110
 8131TIP3    H224335   5.828   4.819   3.165
 8132TIP3   OH224336   2.774   0.206   5.032
 8132TIP3    H124337   2.775   0.111   5.020
 8132TIP3    H224338   2.804   0.242   4.948
 8133TIP3   OH224339   0.204   3.086   6.307
 8133TIP3    H124340   0.219   3.132   6.391
 8133TIP3    H224341   0.272   3.018   6.305
 8134TIP3   OH224342   4.337   6.053   0.613
 8134TIP3    H124343   4.414   6.022   0.662
 8134TIP3    H224344   4.266   6.049   0.677
 8135TIP3   OH224345   2.214   5.027   6.365
 8135TIP3    H124346   2.144   5.071   6.414
 8135TIP3    H224347   2.275   4.996   6.432
 8136TIP3   OH224348   4.773   7.448   0.134
 8136TIP3    H124349   4.805   7.529   0.174
 8136TIP3    H224350   4.757   7.389   0.208
 8137TIP3   OH224351   5.099   2.474   0.512
 8137TIP3    H124352   5.036   2.404   0.494
 8137TIP3    H224353   5.125   2.459   0.602
 8138TIP3   OH224354   0.058   0.468   6.100
 8138TIP3    H124355   0.119   0.500   6.167
 8138TIP3    H224356   0.113   0.419   6.039
 8139TIP3   OH224357   4.591   2.002   6.803
 8139TIP3    H124358   4.532   2.047   6.742
 8139TIP3    H224359   4.610   1.918   6.761
 8140TIP3   OH224360   0.741   5.457   1.664
 8140TIP3    H124361   0.764   5.378   1.712
 8140TIP3    H224362   0.775   5.443   1.576
 8141TIP3   OH224363   5.136   7.115   2.729
 8141TIP3    H124364   5.218   7.069   2.710
 8141TIP3    H224365   5.132   7.185   2.664
 8142TIP3   OH224366   2.419   0.254   2.002
 8142TIP3    H124367   2.418   0.236   2.096
 8142TIP3    H224368   2.424   0.168   1.961
 8143TIP3   OH224369   5.352   1.832   3.296
 8143TIP3    H124370   5.259   1.835   3.278
 8143TIP3    H224371   5.358   1.831   3.392
 8144TIP3   OH224372   0.666   5.039   1.246
 8144TIP3    H124373   0.688   5.131   1.228
 8144TIP3    H224374   0.627   5.007   1.165
 8145TIP3   OH224375   7.874   6.714   4.402
 8145TIP3    H124376   7.940   6.673   4.346
 8145TIP3    H224377   7.845   6.791   4.353
 8146TIP3   OH224378   1.515   0.574   3.360
 8146TIP3    H124379   1.509   0.666   3.387
 8146TIP3    H224380   1.511   0.577   3.265
 8147TIP3   OH224381   3.315   6.744   6.781
 8147TIP3    H124382   3.306   6.751   6.876
 8147TIP3    H224383   3.226   6.760   6.748
 8148TIP3   OH224384   0.035   1.298   5.508
 8148TIP3    H124385   0.051   1.235   5.579
 8148TIP3    H224386   0.111   1.287   5.450
 8149TIP3   OH224387   1.327   0.306   3.687
 8149TIP3    H124388   1.331   0.325   3.593
 8149TIP3    H224389   1.350   0.213   3.693
 8150TIP3   OH224390   5.720   0.793   1.834
 8150TIP3    H124391   5.635   0.786   1.878
 8150TIP3    H224392   5.725   0.884   1.805
 8151TIP3   OH224393   6.364   6.673   6.752
 8151TIP3    H124394   6.440   6.722   6.783
 8151TIP3    H224395   6.306   6.739   6.714
 8152TIP3   OH224396   2.160   4.874   4.579
 8152TIP3    H124397   2.064   4.878   4.582
 8152TIP3    H224398   2.187   4.963   4.556
 8153TIP3   OH224399   4.087   7.671   0.548
 8153TIP3    H124400   4.067   7.587   0.507
 8153TIP3    H224401   4.153   7.710   0.491
 8154TIP3   OH224402   1.258   3.763   2.711
 8154TIP3    H124403   1.296   3.676   2.723
 8154TIP3    H224404   1.188   3.750   2.648
 8155TIP3   OH224405   3.099   0.154   6.419
 8155TIP3    H124406   3.008   0.127   6.408
 8155TIP3    H224407   3.149   0.072   6.418
 8156TIP3   OH224408   5.035   3.795   6.461
 8156TIP3    H124409   5.120   3.822   6.496
 8156TIP3    H224410   5.003   3.873   6.415
 8157TIP3   OH224411   0.105   6.242   6.237
 8157TIP3    H124412   0.175   6.299   6.206
 8157TIP3    H224413   0.095   6.264   6.329
 8158TIP3   OH224414   7.943   1.313   2.683
 8158TIP3    H124415   7.876   1.293   2.618
 8158TIP3    H224416   8.019   1.340   2.631
 8159TIP3   OH224417   5.302   6.670   4.255
 8159TIP3    H124418   5.390   6.663   4.293
 8159TIP3    H224419   5.294   6.591   4.201
 8160TIP3   OH224420   2.661   0.827   1.370
 8160TIP3    H124421   2.660   0.745   1.321
 8160TIP3    H224422   2.730   0.815   1.435
 8161TIP3   OH224423   5.207   3.457   5.287
 8161TIP3    H124424   5.193   3.430   5.197
 8161TIP3    H224425   5.149   3.400   5.338
 8162TIP3   OH224426   7.404   2.049   3.143
 8162TIP3    H124427   7.433   1.990   3.073
 8162TIP3    H224428   7.309   2.038   3.145
 8163TIP3   OH224429   6.061   7.281   6.303
 8163TIP3    H124430   6.065   7.206   6.245
 8163TIP3    H224431   5.972   7.280   6.338
 8164TIP3   OH224432   3.593   7.194   3.865
 8164TIP3    H124433   3.642   7.221   3.787
 8164TIP3    H224434   3.632   7.109   3.890
 8165TIP3   OH224435   5.925   6.865   0.272
 8165TIP3    H124436   5.935   6.960   0.278
 8165TIP3    H224437   5.865   6.843   0.343
 8166TIP3   OH224438   1.483   5.967   4.016
 8166TIP3    H124439   1.425   5.954   4.091
 8166TIP3    H224440   1.484   6.062   4.002
 8167TIP3   OH224441   0.798   0.038   2.664
 8167TIP3    H124442   0.872  -0.016   2.692
 8167TIP3    H224443   0.809   0.121   2.710
 8168TIP3   OH224444   5.131   0.173   2.173
 8168TIP3    H124445   5.125   0.172   2.268
 8168TIP3    H224446   5.189   0.247   2.154
 8169TIP3   OH224447   7.262   4.717   1.727
 8169TIP3    H124448   7.214   4.736   1.807
 8169TIP3    H224449   7.354   4.723   1.751
 8170TIP3   OH224450   0.680   1.150   6.347
 8170TIP3    H124451   0.626   1.142   6.269
 8170TIP3    H224452   0.764   1.183   6.315
 8171TIP3   OH224453   7.978   7.135   4.637
 8171TIP3    H124454   7.963   7.229   4.632
 8171TIP3    H224455   8.072   7.125   4.625
 8172TIP3   OH224456   7.382   5.241   5.886
 8172TIP3    H124457   7.418   5.152   5.885
 8172TIP3    H224458   7.364   5.261   5.794
 8173TIP3   OH224459   1.605   1.456   5.380
 8173TIP3    H124460   1.572   1.384   5.433
 8173TIP3    H224461   1.660   1.414   5.314
 8174TIP3   OH224462   4.290   5.219   1.194
 8174TIP3    H124463   4.381   5.194   1.211
 8174TIP3    H224464   4.291   5.315   1.197
 8175TIP3   OH224465   0.463   6.567   1.071
 8175TIP3    H124466   0.423   6.578   1.157
 8175TIP3    H224467   0.487   6.474   1.067
 8176TIP3   OH224468   6.662   7.614   5.309
 8176TIP3    H124469   6.712   7.533   5.322
 8176TIP3    H224470   6.574   7.583   5.285
 8177TIP3   OH224471   5.396   7.648   6.150
 8177TIP3    H124472   5.478   7.605   6.128
 8177TIP3    H224473   5.362   7.598   6.224
 8178TIP3   OH224474   1.529   7.269   5.775
 8178TIP3    H124475   1.578   7.266   5.857
 8178TIP3    H224476   1.583   7.219   5.713
 8179TIP3   OH224477   8.145   2.352   0.963
 8179TIP3    H124478   8.114   2.367   1.052
 8179TIP3    H224479   8.180   2.437   0.935
 8180TIP3   OH224480   1.295   1.081   4.768
 8180TIP3    H124481   1.291   1.064   4.862
 8180TIP3    H224482   1.331   1.170   4.761
 8181TIP3   OH224483   7.648   0.812   2.317
 8181TIP3    H124484   7.729   0.832   2.271
 8181TIP3    H224485   7.606   0.745   2.262
 8182TIP3   OH224486   0.225   4.419   2.262
 8182TIP3    H124487   0.264   4.413   2.175
 8182TIP3    H224488   0.299   4.415   2.323
 8183TIP3   OH224489   1.898   3.266   4.388
 8183TIP3    H124490   1.820   3.221   4.420
 8183TIP3    H224491   1.903   3.244   4.295
 8184TIP3   OH224492   2.417   5.226   4.067
 8184TIP3    H124493   2.375   5.153   4.021
 8184TIP3    H224494   2.345   5.276   4.103
 8185TIP3   OH224495   5.241   3.123   0.757
 8185TIP3    H124496   5.204   3.131   0.669
 8185TIP3    H224497   5.286   3.039   0.756
 8186TIP3   OH224498   2.572   0.050   6.225
 8186TIP3    H124499   2.643   0.022   6.167
 8186TIP3    H224500   2.547   0.137   6.192
 8187TIP3   OH224501   4.227   3.771   0.117
 8187TIP3    H124502   4.245   3.808   0.031
 8187TIP3    H224503   4.219   3.677   0.103
 8188TIP3   OH224504   5.719   3.784   2.654
 8188TIP3    H124505   5.685   3.834   2.728
 8188TIP3    H224506   5.642   3.765   2.600
 8189TIP3   OH224507   5.699   3.869   6.119
 8189TIP3    H124508   5.608   3.894   6.137
 8189TIP3    H224509   5.711   3.888   6.026
 8190TIP3   OH224510   7.623   4.381   5.370
 8190TIP3    H124511   7.553   4.378   5.304
 8190TIP3    H224512   7.592   4.442   5.436
 8191TIP3   OH224513   3.898   7.670   2.269
 8191TIP3    H124514   3.933   7.750   2.308
 8191TIP3    H224515   3.962   7.645   2.202
 8192TIP3   OH224516   4.451   1.772   0.082
 8192TIP3    H124517   4.501   1.748   0.160
 8192TIP3    H224518   4.360   1.767   0.110
 8193TIP3   OH224519   4.978   5.791   3.505
 8193TIP3    H124520   4.917   5.778   3.579
 8193TIP3    H224521   4.922   5.818   3.433
 8194TIP3   OH224522   2.610   3.718   4.864
 8194TIP3    H124523   2.688   3.774   4.866
 8194TIP3    H224524   2.538   3.777   4.887
 8195TIP3   OH224525   6.148   7.586   4.142
 8195TIP3    H124526   6.204   7.618   4.072
 8195TIP3    H224527   6.115   7.666   4.184
 8196TIP3   OH224528   3.306   5.540   2.115
 8196TIP3    H124529   3.286   5.625   2.153
 8196TIP3    H224530   3.395   5.550   2.081
 8197TIP3   OH224531   5.967   3.887   0.860
 8197TIP3    H124532   5.954   3.792   0.855
 8197TIP3    H224533   6.061   3.898   0.872
 8198TIP3   OH224534   0.422   2.241   4.865
 8198TIP3    H124535   0.413   2.291   4.783
 8198TIP3    H224536   0.346   2.184   4.867
 8199TIP3   OH224537   3.582   5.795   3.894
 8199TIP3    H124538   3.563   5.765   3.805
 8199TIP3    H224539   3.566   5.889   3.892
 8200TIP3   OH224540   1.441   5.262   5.080
 8200TIP3    H124541   1.508   5.223   5.023
 8200TIP3    H224542   1.477   5.347   5.105
 8201TIP3   OH224543   2.968   0.501   1.215
 8201TIP3    H124544   2.989   0.477   1.306
 8201TIP3    H224545   3.050   0.488   1.168
 8202TIP3   OH224546   4.327   0.472   5.746
 8202TIP3    H124547   4.379   0.484   5.667
 8202TIP3    H224548   4.275   0.552   5.753
 8203TIP3   OH224549   2.373   5.425   3.661
 8203TIP3    H124550   2.314   5.377   3.719
 8203TIP3    H224551   2.425   5.480   3.720
 8204TIP3   OH224552   0.996   7.401   0.880
 8204TIP3    H124553   0.988   7.480   0.826
 8204TIP3    H224554   1.065   7.350   0.837
 8205TIP3   OH224555   2.082   2.070   1.931
 8205TIP3    H124556   2.173   2.047   1.949
 8205TIP3    H224557   2.050   1.998   1.876
 8206TIP3   OH224558   7.962   5.159   4.883
 8206TIP3    H124559   7.892   5.104   4.917
 8206TIP3    H224560   7.918   5.237   4.849
 8207TIP3   OH224561   6.534   3.959   4.255
 8207TIP3    H124562   6.478   3.925   4.185
 8207TIP3    H224563   6.542   3.886   4.317
 8208TIP3   OH224564   7.058   5.767   6.293
 8208TIP3    H124565   6.962   5.768   6.291
 8208TIP3    H224566   7.081   5.835   6.356
 8209TIP3   OH224567   5.522   0.843   2.910
 8209TIP3    H124568   5.475   0.883   2.983
 8209TIP3    H224569   5.541   0.754   2.940
 8210TIP3   OH224570   1.809   4.717   5.246
 8210TIP3    H124571   1.896   4.697   5.211
 8210TIP3    H224572   1.824   4.729   5.340
 8211TIP3   OH224573   6.688   4.679   0.612
 8211TIP3    H124574   6.770   4.656   0.656
 8211TIP3    H224575   6.705   4.664   0.519
 8212TIP3   OH224576   1.426   2.418   5.074
 8212TIP3    H124577   1.342   2.462   5.077
 8212TIP3    H224578   1.429   2.365   5.154
 8213TIP3   OH224579   1.621   5.989   0.481
 8213TIP3    H124580   1.658   6.077   0.487
 8213TIP3    H224581   1.574   5.978   0.564
 8214TIP3   OH224582   5.911   2.106   5.004
 8214TIP3    H124583   5.985   2.107   5.065
 8214TIP3    H224584   5.861   2.028   5.029
 8215TIP3   OH224585   4.949   5.477   6.143
 8215TIP3    H124586   4.964   5.419   6.068
 8215TIP3    H224587   4.873   5.439   6.188
 8216TIP3   OH224588   2.897   4.937   2.957
 8216TIP3    H124589   2.931   4.983   3.034
 8216TIP3    H224590   2.802   4.953   2.960
 8217TIP3   OH224591   5.301   1.407   0.112
 8217TIP3    H124592   5.214   1.440   0.087
 8217TIP3    H224593   5.361   1.476   0.084
 8218TIP3   OH224594   0.504   2.115   5.516
 8218TIP3    H124595   0.431   2.165   5.551
 8218TIP3    H224596   0.565   2.105   5.589
 8219TIP3   OH224597   2.404   1.171   0.522
 8219TIP3    H124598   2.387   1.206   0.434
 8219TIP3    H224599   2.322   1.183   0.570
 8220TIP3   OH224600   2.519   7.170   4.816
 8220TIP3    H124601   2.518   7.264   4.797
 8220TIP3    H224602   2.451   7.159   4.883
 8221TIP3   OH224603   6.892   2.671   6.671
 8221TIP3    H124604   6.909   2.673   6.765
 8221TIP3    H224605   6.961   2.726   6.633
 8222TIP3   OH224606   8.150   3.461   4.636
 8222TIP3    H124607   8.062   3.464   4.674
 8222TIP3    H224608   8.186   3.548   4.653
 8223TIP3   OH224609   5.783   5.469   0.196
 8223TIP3    H124610   5.734   5.438   0.273
 8223TIP3    H224611   5.868   5.495   0.230
 8224TIP3   OH224612   7.750   3.388   0.962
 8224TIP3    H124613   7.758   3.472   0.916
 8224TIP3    H224614   7.809   3.330   0.914
 8225TIP3   OH224615   2.085   7.553   5.456
 8225TIP3    H124616   2.022   7.593   5.516
 8225TIP3    H224617   2.039   7.476   5.421
 8226TIP3   OH224618   0.706   2.204   1.172
 8226TIP3    H124619   0.778   2.144   1.192
 8226TIP3    H224620   0.723   2.281   1.226
 8227TIP3   OH224621   7.572   3.882   0.537
 8227TIP3    H124622   7.628   3.956   0.515
 8227TIP3    H224623   7.499   3.920   0.586
 8228TIP3   OH224624   5.175   5.991   5.997
 8228TIP3    H124625   5.134   5.990   6.083
 8228TIP3    H224626   5.112   5.948   5.940
 8229TIP3   OH224627   4.899   4.562   5.935
 8229TIP3    H124628   4.903   4.481   5.986
 8229TIP3    H224629   4.809   4.567   5.905
 8230TIP3   OH224630   3.051   4.798   4.209
 8230TIP3    H124631   3.078   4.873   4.262
 8230TIP3    H224632   2.960   4.782   4.235
 8231TIP3   OH224633   7.787   7.354   6.481
 8231TIP3    H124634   7.869   7.401   6.465
 8231TIP3    H224635   7.744   7.351   6.396
 8232TIP3   OH224636   5.880   1.967   4.302
 8232TIP3    H124637   5.873   1.874   4.323
 8232TIP3    H224638   5.955   1.974   4.243
 8233TIP3   OH224639   5.050   2.369   4.947
 8233TIP3    H124640   5.127   2.348   5.001
 8233TIP3    H224641   5.087   2.402   4.865
 8234TIP3   OH224642   4.657   6.551   2.985
 8234TIP3    H124643   4.660   6.564   2.890
 8234TIP3    H224644   4.682   6.636   3.022
 8235TIP3   OH224645   2.789   5.796   3.004
 8235TIP3    H124646   2.785   5.716   3.056
 8235TIP3    H224647   2.709   5.844   3.027
 8236TIP3   OH224648   5.122   4.276   0.982
 8236TIP3    H124649   5.211   4.308   0.969
 8236TIP3    H224650   5.083   4.277   0.894
 8237TIP3   OH224651   3.627   7.309   2.599
 8237TIP3    H124652   3.635   7.404   2.602
 8237TIP3    H224653   3.543   7.293   2.556
 8238TIP3   OH224654   0.134   2.078   6.799
 8238TIP3    H124655   0.230   2.080   6.794
 8238TIP3    H224656   0.106   2.144   6.735
 8239TIP3   OH224657   6.995   7.136   2.074
 8239TIP3    H124658   6.920   7.078   2.090
 8239TIP3    H224659   7.036   7.145   2.160
 8240TIP3   OH224660   7.319   2.437   3.403
 8240TIP3    H124661   7.314   2.527   3.433
 8240TIP3    H224662   7.329   2.443   3.308
 8241TIP3   OH224663   6.734   3.924   6.708
 8241TIP3    H124664   6.648   3.919   6.750
 8241TIP3    H224665   6.750   4.018   6.697
 8242TIP3   OH224666   3.408   2.861   3.574
 8242TIP3    H124667   3.440   2.900   3.492
 8242TIP3    H224668   3.357   2.785   3.546
 8243TIP3   OH224669   7.147   1.462   5.313
 8243TIP3    H124670   7.161   1.472   5.407
 8243TIP3    H224671   7.064   1.507   5.296
 8244TIP3   OH224672   4.878   6.649   0.103
 8244TIP3    H124673   4.895   6.638   0.196
 8244TIP3    H224674   4.786   6.624   0.092
 8245TIP3   OH224675   7.399   5.323   5.611
 8245TIP3    H124676   7.438   5.273   5.539
 8245TIP3    H224677   7.305   5.309   5.602
 8246TIP3   OH224678   3.463   6.368   4.022
 8246TIP3    H124679   3.452   6.280   3.986
 8246TIP3    H224680   3.374   6.403   4.028
 8247TIP3   OH224681   1.151   0.246   6.375
 8247TIP3    H124682   1.126   0.308   6.306
 8247TIP3    H224683   1.188   0.301   6.444
 8248TIP3   OH224684   4.688   0.758   3.050
 8248TIP3    H124685   4.649   0.784   2.966
 8248TIP3    H224686   4.764   0.816   3.060
 8249TIP3   OH224687   1.365   0.184   6.668
 8249TIP3    H124688   1.424   0.233   6.611
 8249TIP3    H224689   1.339   0.247   6.735
 8250TIP3   OH224690   0.653   0.830   1.636
 8250TIP3    H124691   0.742   0.805   1.662
 8250TIP3    H224692   0.620   0.882   1.710
 8251TIP3   OH224693   0.303   7.098   6.351
 8251TIP3    H124694   0.284   7.015   6.393
 8251TIP3    H224695   0.371   7.077   6.287
 8252TIP3   OH224696   3.342   3.084   1.257
 8252TIP3    H124697   3.281   3.158   1.270
 8252TIP3    H224698   3.314   3.046   1.174
 8253TIP3   OH224699   1.639   3.836   5.728
 8253TIP3    H124700   1.664   3.881   5.809
 8253TIP3    H224701   1.705   3.768   5.717
 8254TIP3   OH224702   2.364   4.444   5.716
 8254TIP3    H124703   2.438   4.411   5.665
 8254TIP3    H224704   2.378   4.408   5.804
 8255TIP3   OH224705   5.944   0.977   1.192
 8255TIP3    H124706   5.961   1.051   1.133
 8255TIP3    H224707   5.926   1.019   1.277
 8256TIP3   OH224708   7.114   2.692   3.220
 8256TIP3    H124709   7.040   2.651   3.175
 8256TIP3    H224710   7.188   2.633   3.205
 8257TIP3   OH224711   1.671   3.002   1.732
 8257TIP3    H124712   1.713   2.934   1.679
 8257TIP3    H224713   1.742   3.063   1.754
 8258TIP3   OH224714   2.393   6.505   2.812
 8258TIP3    H124715   2.443   6.576   2.851
 8258TIP3    H224716   2.338   6.547   2.746
 8259TIP3   OH224717   6.006   2.740   0.587
 8259TIP3    H124718   6.022   2.646   0.597
 8259TIP3    H224719   6.030   2.778   0.671
 8260TIP3   OH224720   4.013   0.784   3.620
 8260TIP3    H124721   4.038   0.794   3.712
 8260TIP3    H224722   3.955   0.708   3.620
 8261TIP3   OH224723   6.919   2.195   4.116
 8261TIP3    H124724   6.880   2.278   4.142
 8261TIP3    H224725   6.984   2.177   4.184
 8262TIP3   OH224726   6.314   1.349   6.061
 8262TIP3    H124727   6.230   1.388   6.035
 8262TIP3    H224728   6.293   1.297   6.138
 8263TIP3   OH224729   2.386   5.781   4.691
 8263TIP3    H124730   2.333   5.852   4.727
 8263TIP3    H224731   2.438   5.750   4.766
 8264TIP3   OH224732   4.546   2.810   0.500
 8264TIP3    H124733   4.532   2.904   0.506
 8264TIP3    H224734   4.577   2.796   0.410
 8265TIP3   OH224735   1.437   6.648   4.158
 8265TIP3    H124736   1.449   6.742   4.171
 8265TIP3    H224737   1.522   6.610   4.180
 8266TIP3   OH224738   6.702   3.009   1.105
 8266TIP3    H124739   6.703   3.105   1.102
 8266TIP3    H224740   6.690   2.988   1.198
 8267TIP3   OH224741   0.362   5.042   4.079
 8267TIP3    H124742   0.313   5.082   4.150
 8267TIP3    H224743   0.383   4.954   4.111
 8268TIP3   OH224744   5.248   5.330   2.892
 8268TIP3    H124745   5.319   5.267   2.900
 8268TIP3    H224746   5.281   5.394   2.828
 8269TIP3   OH224747   2.377   5.701   6.821
 8269TIP3    H124748   2.346   5.780   6.865
 8269TIP3    H224749   2.456   5.729   6.774
 8270TIP3   OH224750   0.481   0.479   1.208
 8270TIP3    H124751   0.571   0.485   1.241
 8270TIP3    H224752   0.473   0.549   1.144
 8271TIP3   OH224753   3.070   5.881   1.569
 8271TIP3    H124754   3.086   5.787   1.563
 8271TIP3    H224755   2.982   5.893   1.533
 8272TIP3   OH224756   3.576   2.651   0.855
 8272TIP3    H124757   3.629   2.730   0.844
 8272TIP3    H224758   3.522   2.668   0.931
 8273TIP3   OH224759   5.973   3.217   2.824
 8273TIP3    H124760   5.932   3.147   2.874
 8273TIP3    H224761   5.918   3.226   2.746
 8274TIP3   OH224762   8.166   6.400   3.075
 8274TIP3    H124763   8.148   6.331   3.011
 8274TIP3    H224764   8.116   6.374   3.153
 8275TIP3   OH224765   0.583   4.936   0.467
 8275TIP3    H124766   0.606   4.933   0.560
 8275TIP3    H224767   0.650   4.884   0.424
 8276TIP3   OH224768   7.720   3.205   5.827
 8276TIP3    H124769   7.734   3.261   5.750
 8276TIP3    H224770   7.645   3.151   5.803
 8277TIP3   OH224771   3.111   5.087   3.106
 8277TIP3    H124772   3.169   5.161   3.088
 8277TIP3    H224773   3.165   5.026   3.157
 8278TIP3   OH224774   0.259   1.365   4.082
 8278TIP3    H124775   0.283   1.311   4.158
 8278TIP3    H224776   0.329   1.429   4.075
 8279TIP3   OH224777   2.486   5.602   3.842
 8279TIP3    H124778   2.435   5.642   3.912
 8279TIP3    H224779   2.513   5.675   3.787
 8280TIP3   OH224780   6.480   3.153   6.595
 8280TIP3    H124781   6.506   3.208   6.521
 8280TIP3    H224782   6.385   3.141   6.584
 8281TIP3   OH224783   0.297   5.339   0.597
 8281TIP3    H124784   0.363   5.408   0.591
 8281TIP3    H224785   0.339   5.262   0.557
 8282TIP3   OH224786   4.560   7.096   1.719
 8282TIP3    H124787   4.561   7.002   1.736
 8282TIP3    H224788   4.580   7.105   1.626
 8283TIP3   OH224789   1.555   2.865   4.608
 8283TIP3    H124790   1.637   2.857   4.655
 8283TIP3    H224791   1.509   2.782   4.625
 8284TIP3   OH224792   6.385   0.469   4.910
 8284TIP3    H124793   6.452   0.456   4.842
 8284TIP3    H224794   6.405   0.554   4.948
 8285TIP3   OH224795   0.602   3.367   0.033
 8285TIP3    H124796   0.522   3.404  -0.003
 8285TIP3    H224797   0.612   3.282  -0.011
 8286TIP3   OH224798   1.806   2.371   0.201
 8286TIP3    H124799   1.755   2.452   0.197
 8286TIP3    H224800   1.815   2.352   0.294
 8287TIP3   OH224801   3.657   5.565   0.596
 8287TIP3    H124802   3.664   5.491   0.534
 8287TIP3    H224803   3.735   5.617   0.580
 8288TIP3   OH224804   4.364   6.276   4.733
 8288TIP3    H124805   4.340   6.365   4.757
 8288TIP3    H224806   4.454   6.266   4.764
 8289TIP3   OH224807   6.577   7.185   2.305
 8289TIP3    H124808   6.637   7.146   2.369
 8289TIP3    H224809   6.512   7.117   2.288
 8290TIP3   OH224810   4.108   6.498   4.494
 8290TIP3    H124811   4.101   6.441   4.570
 8290TIP3    H224812   4.036   6.471   4.437
 8291TIP3   OH224813   4.604   5.569   2.301
 8291TIP3    H124814   4.567   5.653   2.327
 8291TIP3    H224815   4.635   5.583   2.212
 8292TIP3   OH224816   6.672   1.071   3.485
 8292TIP3    H124817   6.692   1.106   3.572
 8292TIP3    H224818   6.731   0.996   3.475
 8293TIP3   OH224819   7.098   3.129   3.063
 8293TIP3    H124820   7.056   3.206   3.027
 8293TIP3    H224821   7.044   3.105   3.139
 8294TIP3   OH224822   2.909   2.018   4.870
 8294TIP3    H124823   2.860   2.095   4.899
 8294TIP3    H224824   2.982   2.012   4.931
 8295TIP3   OH224825   6.422   7.777   5.039
 8295TIP3    H124826   6.441   7.871   5.050
 8295TIP3    H224827   6.332   7.775   5.006
 8296TIP3   OH224828   4.590   5.238   4.821
 8296TIP3    H124829   4.645   5.221   4.744
 8296TIP3    H224830   4.504   5.258   4.784
 8297TIP3   OH224831   1.292   7.538   6.764
 8297TIP3    H124832   1.296   7.551   6.859
 8297TIP3    H224833   1.289   7.626   6.728
 8298TIP3   OH224834   6.536   6.998   5.818
 8298TIP3    H124835   6.465   6.947   5.779
 8298TIP3    H224836   6.608   6.936   5.828
 8299TIP3   OH224837   2.711   2.307   3.071
 8299TIP3    H124838   2.714   2.339   2.981
 8299TIP3    H224839   2.673   2.219   3.064
 8300TIP3   OH224840   1.574   4.221   0.303
 8300TIP3    H124841   1.554   4.268   0.384
 8300TIP3    H224842   1.587   4.290   0.238
 8301TIP3   OH224843   1.970   1.359   3.704
 8301TIP3    H124844   1.995   1.311   3.783
 8301TIP3    H224845   1.938   1.291   3.644
 8302TIP3   OH224846   0.566   2.649   2.429
 8302TIP3    H124847   0.563   2.555   2.449
 8302TIP3    H224848   0.623   2.655   2.352
 8303TIP3   OH224849   1.218   2.126   1.794
 8303TIP3    H124850   1.185   2.198   1.848
 8303TIP3    H224851   1.310   2.148   1.779
 8304TIP3   OH224852   4.091   0.888   5.912
 8304TIP3    H124853   4.010   0.880   5.963
 8304TIP3    H224854   4.111   0.982   5.915
 8305TIP3   OH224855   1.876   2.722   1.273
 8305TIP3    H124856   1.783   2.730   1.252
 8305TIP3    H224857   1.916   2.689   1.193
 8306TIP3   OH224858   1.600   1.720   3.529
 8306TIP3    H124859   1.679   1.713   3.583
 8306TIP3    H224860   1.601   1.809   3.496
 8307TIP3   OH224861   3.627   1.504   4.040
 8307TIP3    H124862   3.622   1.448   4.117
 8307TIP3    H224863   3.640   1.443   3.967
 8308TIP3   OH224864   3.747   5.186   2.296
 8308TIP3    H124865   3.763   5.276   2.266
 8308TIP3    H224866   3.671   5.194   2.354
 8309TIP3   OH224867   4.181   6.710   4.764
 8309TIP3    H124868   4.144   6.786   4.809
 8309TIP3    H224869   4.120   6.691   4.694
 8310TIP3   OH224870   1.982   5.246   3.816
 8310TIP3    H124871   1.967   5.219   3.906
 8310TIP3    H224872   2.076   5.235   3.803
 8311TIP3   OH224873   0.613   6.658   0.171
 8311TIP3    H124874   0.574   6.616   0.248
 8311TIP3    H224875   0.703   6.677   0.197
 8312TIP3   OH224876   1.633   0.503   0.169
 8312TIP3    H124877   1.549   0.463   0.192
 8312TIP3    H224878   1.687   0.492   0.246
 8313TIP3   OH224879   7.443   7.360   2.967
 8313TIP3    H124880   7.505   7.380   2.897
 8313TIP3    H224881   7.495   7.369   3.047
 8314TIP3   OH224882   3.789   2.966   5.941
 8314TIP3    H124883   3.827   2.891   5.985
 8314TIP3    H224884   3.703   2.976   5.982
 8315TIP3   OH224885   5.073   2.354   5.401
 8315TIP3    H124886   5.040   2.444   5.392
 8315TIP3    H224887   5.079   2.340   5.496
 8316TIP3   OH224888   2.509   3.804   4.621
 8316TIP3    H124889   2.511   3.755   4.539
 8316TIP3    H224890   2.529   3.739   4.689
 8317TIP3   OH224891   2.757   5.609   3.248
 8317TIP3    H124892   2.823   5.542   3.267
 8317TIP3    H224893   2.768   5.674   3.318
 8318TIP3   OH224894   5.285   6.937   6.472
 8318TIP3    H124895   5.209   6.969   6.422
 8318TIP3    H224896   5.289   6.995   6.548
 8319TIP3   OH224897   2.284   1.011   4.956
 8319TIP3    H124898   2.282   0.955   5.033
 8319TIP3    H224899   2.191   1.023   4.933
 8320TIP3   OH224900   3.221   2.648   3.480
 8320TIP3    H124901   3.206   2.637   3.574
 8320TIP3    H224902   3.140   2.688   3.448
 8321TIP3   OH224903   2.241   1.339   4.030
 8321TIP3    H124904   2.163   1.389   4.054
 8321TIP3    H224905   2.236   1.329   3.935
 8322TIP3   OH224906   3.552   1.156   5.018
 8322TIP3    H124907   3.539   1.170   4.924
 8322TIP3    H224908   3.489   1.214   5.060
 8323TIP3   OH224909   7.517   3.190   1.327
 8323TIP3    H124910   7.514   3.123   1.396
 8323TIP3    H224911   7.528   3.141   1.246
 8324TIP3   OH224912   5.611   2.099   2.815
 8324TIP3    H124913   5.636   2.121   2.725
 8324TIP3    H224914   5.596   2.005   2.813
 8325TIP3   OH224915   3.616   1.948   0.709
 8325TIP3    H124916   3.692   1.891   0.713
 8325TIP3    H224917   3.545   1.897   0.748
 8326TIP3   OH224918   5.804   0.243   0.231
 8326TIP3    H124919   5.886   0.250   0.181
 8326TIP3    H224920   5.737   0.230   0.165
 8327TIP3   OH224921   1.835   6.030   2.660
 8327TIP3    H124922   1.767   6.069   2.605
 8327TIP3    H224923   1.886   6.104   2.693
 8328TIP3   OH224924   2.767   3.400   6.289
 8328TIP3    H124925   2.778   3.367   6.200
 8328TIP3    H224926   2.674   3.420   6.296
 8329TIP3   OH224927   7.644   6.728   2.789
 8329TIP3    H124928   7.725   6.678   2.794
 8329TIP3    H224929   7.668   6.808   2.743
 8330TIP3   OH224930   6.313   5.447   0.567
 8330TIP3    H124931   6.312   5.514   0.498
 8330TIP3    H224932   6.327   5.497   0.648
 8331TIP3   OH224933   6.673   3.237   6.780
 8331TIP3    H124934   6.589   3.227   6.735
 8331TIP3    H224935   6.651   3.235   6.873
 8332TIP3   OH224936   4.118   7.725   1.777
 8332TIP3    H124937   4.109   7.771   1.861
 8332TIP3    H224938   4.135   7.795   1.713
 8333TIP3   OH224939   3.451   1.146   4.399
 8333TIP3    H124940   3.387   1.217   4.407
 8333TIP3    H224941   3.476   1.147   4.306
 8334TIP3   OH224942   2.364   1.206   3.218
 8334TIP3    H124943   2.316   1.288   3.207
 8334TIP3    H224944   2.431   1.226   3.283
 8335TIP3   OH224945   7.269   3.869   4.908
 8335TIP3    H124946   7.289   3.884   4.816
 8335TIP3    H224947   7.232   3.780   4.910
 8336TIP3   OH224948   0.897   5.819   5.443
 8336TIP3    H124949   0.965   5.759   5.413
 8336TIP3    H224950   0.861   5.777   5.521
 8337TIP3   OH224951   3.916   0.476   5.182
 8337TIP3    H124952   3.870   0.486   5.099
 8337TIP3    H224953   3.848   0.460   5.246
 8338TIP3   OH224954   6.291   2.252   1.462
 8338TIP3    H124955   6.221   2.314   1.446
 8338TIP3    H224956   6.250   2.180   1.510
 8339TIP3   OH224957   8.032   3.311   5.976
 8339TIP3    H124958   7.942   3.279   5.980
 8339TIP3    H224959   8.024   3.405   5.961
 8340TIP3   OH224960   7.137   6.826   2.388
 8340TIP3    H124961   7.045   6.810   2.369
 8340TIP3    H224962   7.156   6.772   2.464
 8341TIP3   OH224963   5.818   4.607   3.383
 8341TIP3    H124964   5.901   4.590   3.427
 8341TIP3    H224965   5.833   4.688   3.334
 8342TIP3   OH224966   4.084   2.878   3.408
 8342TIP3    H124967   4.011   2.855   3.351
 8342TIP3    H224968   4.149   2.918   3.350
 8343TIP3   OH224969   1.395   0.350   3.423
 8343TIP3    H124970   1.445   0.430   3.413
 8343TIP3    H224971   1.461   0.281   3.436
 8344TIP3   OH224972   0.954   2.179   5.013
 8344TIP3    H124973   1.008   2.101   5.029
 8344TIP3    H224974   0.868   2.144   4.989
 8345TIP3   OH224975   3.154   2.082   0.842
 8345TIP3    H124976   3.118   2.052   0.925
 8345TIP3    H224977   3.078   2.114   0.792
 8346TIP3   OH224978   3.995   1.715   4.041
 8346TIP3    H124979   4.065   1.671   4.089
 8346TIP3    H224980   3.925   1.649   4.036
 8347TIP3   OH224981   0.603   7.265   3.778
 8347TIP3    H124982   0.689   7.307   3.776
 8347TIP3    H224983   0.619   7.177   3.810
 8348TIP3   OH224984   6.953   4.126   1.894
 8348TIP3    H124985   6.962   4.034   1.868
 8348TIP3    H224986   6.858   4.137   1.907
 8349TIP3   OH224987   7.073   6.128   6.186
 8349TIP3    H124988   7.062   6.049   6.240
 8349TIP3    H224989   7.074   6.095   6.096
 8350TIP3   OH224990   0.371   3.814   4.291
 8350TIP3    H124991   0.428   3.850   4.359
 8350TIP3    H224992   0.283   3.842   4.318
 8351TIP3   OH224993   7.371   5.957   2.166
 8351TIP3    H124994   7.456   5.943   2.208
 8351TIP3    H224995   7.391   5.963   2.073
 8352TIP3   OH224996   6.828   0.538   6.741
 8352TIP3    H124997   6.860   0.531   6.831
 8352TIP3    H224998   6.744   0.492   6.742
 8353TIP3   OH224999   3.405   3.964   6.595
 8353TIP3    H125000   3.401   4.050   6.635
 8353TIP3    H225001   3.408   3.902   6.668
 8354TIP3   OH225002   3.452   5.368   1.568
 8354TIP3    H125003   3.418   5.436   1.626
 8354TIP3    H225004   3.432   5.398   1.480
 8355TIP3   OH225005   2.745   3.833   3.232
 8355TIP3    H125006   2.802   3.785   3.291
 8355TIP3    H225007   2.774   3.807   3.144
 8356TIP3   OH225008   7.924   0.835   3.632
 8356TIP3    H125009   7.904   0.871   3.546
 8356TIP3    H225010   7.925   0.911   3.690
 8357TIP3   OH225011   4.054   3.219   4.762
 8357TIP3    H125012   4.057   3.185   4.852
 8357TIP3    H225013   4.146   3.233   4.739
 8358TIP3   OH225014   0.411   5.145   5.948
 8358TIP3    H125015   0.396   5.117   5.857
 8358TIP3    H225016   0.467   5.076   5.985
 8359TIP3   OH225017   1.027   7.473   5.442
 8359TIP3    H125018   1.040   7.426   5.524
 8359TIP3    H225019   1.098   7.537   5.440
 8360TIP3   OH225020   6.693   3.437   1.937
 8360TIP3    H125021   6.608   3.457   1.977
 8360TIP3    H225022   6.757   3.460   2.004
 8361TIP3   OH225023   1.729   4.644   6.773
 8361TIP3    H125024   1.808   4.591   6.782
 8361TIP3    H225025   1.736   4.683   6.686
 8362TIP3   OH225026   6.405   1.041   4.920
 8362TIP3    H125027   6.347   1.071   4.991
 8362TIP3    H225028   6.431   1.122   4.876
 8363TIP3   OH225029   5.646   4.481   3.566
 8363TIP3    H125030   5.631   4.551   3.630
 8363TIP3    H225031   5.692   4.524   3.494
 8364TIP3   OH225032   4.763   2.051   3.021
 8364TIP3    H125033   4.837   2.037   2.962
 8364TIP3    H225034   4.802   2.067   3.106
 8365TIP3   OH225035   5.344   5.935   5.497
 8365TIP3    H125036   5.437   5.926   5.476
 8365TIP3    H225037   5.333   5.888   5.580
 8366TIP3   OH225038   2.255   3.490   3.683
 8366TIP3    H125039   2.343   3.467   3.655
 8366TIP3    H225040   2.265   3.570   3.734
 8367TIP3   OH225041   0.476   0.987   4.914
 8367TIP3    H125042   0.517   0.910   4.874
 8367TIP3    H225043   0.414   1.018   4.848
 8368TIP3   OH225044   6.568   6.443   0.637
 8368TIP3    H125045   6.487   6.487   0.661
 8368TIP3    H225046   6.555   6.352   0.665
 8369TIP3   OH225047   1.751   5.060   5.779
 8369TIP3    H125048   1.834   5.109   5.784
 8369TIP3    H225049   1.710   5.091   5.699
 8370TIP3   OH225050   2.794   4.058   3.424
 8370TIP3    H125051   2.887   4.040   3.408
 8370TIP3    H225052   2.749   3.979   3.396
 8371TIP3   OH225053   2.779   5.741   3.490
 8371TIP3    H125054   2.723   5.765   3.564
 8371TIP3    H225055   2.827   5.664   3.521
 8372TIP3   OH225056   7.992   0.805   5.217
 8372TIP3    H125057   8.041   0.887   5.213
 8372TIP3    H225058   8.052   0.740   5.179
 8373TIP3   OH225059   8.319   2.265   6.070
 8373TIP3    H125060   8.340   2.257   6.163
 8373TIP3    H225061   8.403   2.280   6.028
 8374TIP3   OH225062   4.612   3.385   1.933
 8374TIP3    H125063   4.580   3.326   2.002
 8374TIP3    H225064   4.533   3.428   1.900
 8375TIP3   OH225065   0.136   0.751   5.337
 8375TIP3    H125066   0.092   0.789   5.261
 8375TIP3    H225067   0.161   0.827   5.390
 8376TIP3   OH225068   2.427   5.253   6.764
 8376TIP3    H125069   2.474   5.225   6.843
 8376TIP3    H225070   2.375   5.328   6.793
 8377TIP3   OH225071   7.443   1.586   3.053
 8377TIP3    H125072   7.473   1.534   3.127
 8377TIP3    H225073   7.373   1.641   3.088
 8378TIP3   OH225074   6.318   0.961   0.965
 8378TIP3    H125075   6.283   1.028   1.024
 8378TIP3    H225076   6.241   0.909   0.941
 8379TIP3   OH225077   4.544   0.298   0.490
 8379TIP3    H125078   4.567   0.245   0.414
 8379TIP3    H225079   4.454   0.274   0.510
 8380TIP3   OH225080   6.702   3.660   4.863
 8380TIP3    H125081   6.781   3.654   4.917
 8380TIP3    H225082   6.720   3.734   4.804
 8381TIP3   OH225083   4.053   3.625   0.502
 8381TIP3    H125084   4.032   3.682   0.575
 8381TIP3    H225085   3.973   3.621   0.450
 8382TIP3   OH225086   0.976   4.873   0.973
 8382TIP3    H125087   0.926   4.890   0.893
 8382TIP3    H225088   0.978   4.778   0.981
 8383TIP3   OH225089   2.957   5.690   2.214
 8383TIP3    H125090   2.885   5.675   2.275
 8383TIP3    H225091   2.965   5.608   2.165
 8384TIP3   OH225092   8.184   5.851   4.928
 8384TIP3    H125093   8.173   5.789   5.001
 8384TIP3    H225094   8.279   5.863   4.921
 8385TIP3   OH225095   3.641   6.186   0.884
 8385TIP3    H125096   3.623   6.195   0.790
 8385TIP3    H225097   3.680   6.269   0.909
 8386TIP3   OH225098   3.574   2.227   4.176
 8386TIP3    H125099   3.558   2.134   4.167
 8386TIP3    H225100   3.594   2.240   4.269
 8387TIP3   OH225101   5.383   5.464   6.782
 8387TIP3    H125102   5.408   5.543   6.734
 8387TIP3    H225103   5.456   5.449   6.842
 8388TIP3   OH225104   8.320   5.949   4.073
 8388TIP3    H125105   8.298   5.979   3.985
 8388TIP3    H225106   8.392   6.006   4.101
 8389TIP3   OH225107   1.622   0.133   6.051
 8389TIP3    H125108   1.619   0.206   6.112
 8389TIP3    H225109   1.670   0.167   5.976
 8390TIP3   OH225110   2.319   4.396   2.191
 8390TIP3    H125111   2.302   4.346   2.110
 8390TIP3    H225112   2.238   4.388   2.241
 8391TIP3   OH225113   7.607   0.197   3.626
 8391TIP3    H125114   7.633   0.251   3.700
 8391TIP3    H225115   7.641   0.243   3.549
 8392TIP3   OH225116   2.638   2.553   6.724
 8392TIP3    H125117   2.707   2.618   6.710
 8392TIP3    H225118   2.558   2.596   6.694
 8393TIP3   OH225119   2.909   3.592   1.724
 8393TIP3    H125120   2.891   3.499   1.730
 8393TIP3    H225121   2.832   3.629   1.681
 8394TIP3   OH225122   4.448   3.342   6.376
 8394TIP3    H125123   4.455   3.412   6.441
 8394TIP3    H225124   4.532   3.344   6.330
 8395TIP3   OH225125   7.432   6.521   5.793
 8395TIP3    H125126   7.504   6.581   5.812
 8395TIP3    H225127   7.454   6.442   5.842
 8396TIP3   OH225128   0.914   7.559   4.307
 8396TIP3    H125129   0.967   7.489   4.345
 8396TIP3    H225130   0.957   7.640   4.333
 8397TIP3   OH225131   8.255   3.917   5.805
 8397TIP3    H125132   8.258   3.848   5.739
 8397TIP3    H225133   8.168   3.908   5.845
 8398TIP3   OH225134   4.317   4.066   1.773
 8398TIP3    H125135   4.259   4.014   1.717
 8398TIP3    H225136   4.293   4.042   1.862
 8399TIP3   OH225137   5.872   5.150   4.766
 8399TIP3    H125138   5.953   5.188   4.799
 8399TIP3    H225139   5.861   5.188   4.678
 8400TIP3   OH225140   5.149   2.437   3.375
 8400TIP3    H125141   5.225   2.388   3.406
 8400TIP3    H225142   5.128   2.396   3.291
 8401TIP3   OH225143   5.115   3.512   5.842
 8401TIP3    H125144   5.141   3.428   5.879
 8401TIP3    H225145   5.023   3.501   5.818
 8402TIP3   OH225146   6.642   1.626   4.649
 8402TIP3    H125147   6.727   1.601   4.612
 8402TIP3    H225148   6.655   1.712   4.687
 8403TIP3   OH225149   2.785   7.120   3.574
 8403TIP3    H125150   2.854   7.100   3.510
 8403TIP3    H225151   2.791   7.215   3.585
 8404TIP3   OH225152   5.095   6.082   3.912
 8404TIP3    H125153   5.183   6.075   3.876
 8404TIP3    H225154   5.037   6.065   3.838
 8405TIP3   OH225155   5.198   4.820   4.695
 8405TIP3    H125156   5.144   4.817   4.775
 8405TIP3    H225157   5.231   4.910   4.692
 8406TIP3   OH225158   7.927   5.556   5.006
 8406TIP3    H125159   8.013   5.546   4.964
 8406TIP3    H225160   7.872   5.597   4.939
 8407TIP3   OH225161   8.326   7.299   5.600
 8407TIP3    H125162   8.363   7.250   5.526
 8407TIP3    H225163   8.251   7.346   5.562
 8408TIP3   OH225164   2.736   5.591   5.653
 8408TIP3    H125165   2.777   5.592   5.566
 8408TIP3    H225166   2.802   5.550   5.709
 8409TIP3   OH225167   2.202   5.965   4.077
 8409TIP3    H125168   2.143   5.902   4.118
 8409TIP3    H225169   2.155   5.995   3.999
 8410TIP3   OH225170   4.815   2.375   0.175
 8410TIP3    H125171   4.765   2.428   0.237
 8410TIP3    H225172   4.757   2.302   0.153
 8411TIP3   OH225173   8.318   2.751   1.927
 8411TIP3    H125174   8.371   2.672   1.918
 8411TIP3    H225175   8.282   2.766   1.839
 8412TIP3   OH225176   7.936   4.540   0.728
 8412TIP3    H125177   7.845   4.516   0.747
 8412TIP3    H225178   7.954   4.616   0.783
 8413TIP3   OH225179   1.680   6.031   1.181
 8413TIP3    H125180   1.659   6.006   1.091
 8413TIP3    H225181   1.757   6.088   1.173
 8414TIP3   OH225182   4.008   6.664   0.008
 8414TIP3    H125183   4.054   6.688   0.088
 8414TIP3    H225184   3.921   6.704   0.017
 8415TIP3   OH225185   1.026   4.776   4.728
 8415TIP3    H125186   1.061   4.710   4.787
 8415TIP3    H225187   0.938   4.794   4.760
 8416TIP3   OH225188   2.139   0.949   6.739
 8416TIP3    H125189   2.108   0.885   6.803
 8416TIP3    H225190   2.081   1.024   6.751
 8417TIP3   OH225191   2.099   0.263   3.486
 8417TIP3    H125192   2.039   0.253   3.559
 8417TIP3    H225193   2.043   0.262   3.408
 8418TIP3   OH225194   3.285   3.830   0.138
 8418TIP3    H125195   3.308   3.752   0.088
 8418TIP3    H225196   3.192   3.819   0.158
 8419TIP3   OH225197   1.922   2.284   1.919
 8419TIP3    H125198   1.971   2.208   1.952
 8419TIP3    H225199   1.984   2.356   1.920
 8420TIP3   OH225200   4.308   5.529   2.289
 8420TIP3    H125201   4.282   5.615   2.256
 8420TIP3    H225202   4.288   5.468   2.217
 8421TIP3   OH225203   4.281   7.143   1.816
 8421TIP3    H125204   4.224   7.193   1.758
 8421TIP3    H225205   4.365   7.140   1.772
 8422TIP3   OH225206   0.837   4.818   2.133
 8422TIP3    H125207   0.811   4.775   2.214
 8422TIP3    H225208   0.876   4.748   2.080
 8423TIP3   OH225209   4.279   1.857   2.367
 8423TIP3    H125210   4.293   1.765   2.344
 8423TIP3    H225211   4.268   1.901   2.283
 8424TIP3   OH225212   1.503   6.207   1.487
 8424TIP3    H125213   1.425   6.226   1.539
 8424TIP3    H225214   1.470   6.168   1.406
 8425TIP3   OH225215   4.639   5.798   0.684
 8425TIP3    H125216   4.627   5.706   0.708
 8425TIP3    H225217   4.630   5.846   0.766
 8426TIP3   OH225218   6.122   7.698   0.701
 8426TIP3    H125219   6.180   7.703   0.777
 8426TIP3    H225220   6.037   7.728   0.733
 8427TIP3   OH225221   3.322   0.450   3.049
 8427TIP3    H125222   3.337   0.544   3.049
 8427TIP3    H225223   3.381   0.416   2.981
 8428TIP3   OH225224   0.718   1.242   0.887
 8428TIP3    H125225   0.779   1.180   0.847
 8428TIP3    H225226   0.766   1.278   0.961
 8429TIP3   OH225227   4.860   5.756   2.573
 8429TIP3    H125228   4.787   5.728   2.629
 8429TIP3    H225229   4.879   5.679   2.519
 8430TIP3   OH225230   0.260   5.804   1.981
 8430TIP3    H125231   0.277   5.898   1.993
 8430TIP3    H225232   0.293   5.784   1.894
 8431TIP3   OH225233   7.440   4.153   3.333
 8431TIP3    H125234   7.510   4.137   3.271
 8431TIP3    H225235   7.377   4.208   3.285
 8432TIP3   OH225236   7.224   5.030   6.860
 8432TIP3    H125237   7.285   4.958   6.875
 8432TIP3    H225238   7.210   5.031   6.765
 8433TIP3   OH225239   2.101   5.016   6.118
 8433TIP3    H125240   2.065   5.097   6.083
 8433TIP3    H225241   2.131   5.038   6.206
 8434TIP3   OH225242   0.346   3.537   4.429
 8434TIP3    H125243   0.297   3.597   4.486
 8434TIP3    H225244   0.438   3.552   4.451
 8435TIP3   OH225245   2.298   0.574   6.079
 8435TIP3    H125246   2.316   0.535   5.993
 8435TIP3    H225247   2.257   0.503   6.129
 8436TIP3   OH225248   4.711   4.814   3.738
 8436TIP3    H125249   4.707   4.908   3.755
 8436TIP3    H225250   4.797   4.788   3.772
 8437TIP3   OH225251   6.955   0.755   1.309
 8437TIP3    H125252   7.032   0.808   1.286
 8437TIP3    H225253   6.932   0.710   1.227
 8438TIP3   OH225254   1.470   2.051   2.148
 8438TIP3    H125255   1.417   1.974   2.126
 8438TIP3    H225256   1.407   2.122   2.159
 8439TIP3   OH225257   5.330   3.156   0.180
 8439TIP3    H125258   5.326   3.251   0.193
 8439TIP3    H225259   5.295   3.120   0.262
 8440TIP3   OH225260   5.491   5.369   0.595
 8440TIP3    H125261   5.404   5.331   0.587
 8440TIP3    H225262   5.550   5.300   0.562
 8441TIP3   OH225263   4.897   3.978   1.726
 8441TIP3    H125264   4.867   3.991   1.816
 8441TIP3    H225265   4.862   4.053   1.678
 8442TIP3   OH225266   5.208   6.417   5.336
 8442TIP3    H125267   5.205   6.333   5.381
 8442TIP3    H225268   5.291   6.418   5.290
 8443TIP3   OH225269   6.786   3.166   5.516
 8443TIP3    H125270   6.879   3.179   5.499
 8443TIP3    H225271   6.783   3.099   5.583
 8444TIP3   OH225272   3.518   5.249   2.404
 8444TIP3    H125273   3.451   5.181   2.391
 8444TIP3    H225274   3.468   5.330   2.417
 8445TIP3   OH225275   6.332   3.030   5.851
 8445TIP3    H125276   6.347   2.970   5.925
 8445TIP3    H225277   6.412   3.081   5.845
 8446TIP3   OH225278   3.956   0.241   2.423
 8446TIP3    H125279   3.891   0.175   2.399
 8446TIP3    H225280   3.921   0.281   2.502
 8447TIP3   OH225281   2.645   3.798   5.887
 8447TIP3    H125282   2.585   3.723   5.888
 8447TIP3    H225283   2.642   3.830   5.797
 8448TIP3   OH225284   4.786   5.042   0.152
 8448TIP3    H125285   4.825   5.017   0.236
 8448TIP3    H225286   4.714   4.980   0.141
 8449TIP3   OH225287   2.530   2.462   3.855
 8449TIP3    H125288   2.439   2.454   3.827
 8449TIP3    H225289   2.539   2.555   3.878
 8450TIP3   OH225290   4.667   2.151   3.466
 8450TIP3    H125291   4.598   2.093   3.436
 8450TIP3    H225292   4.743   2.129   3.412
 8451TIP3   OH225293   7.585   5.985   1.346
 8451TIP3    H125294   7.630   5.999   1.430
 8451TIP3    H225295   7.495   5.963   1.370
 8452TIP3   OH225296   3.652   5.102   3.534
 8452TIP3    H125297   3.685   5.012   3.537
 8452TIP3    H225298   3.726   5.153   3.500
 8453TIP3   OH225299   4.924   5.195   1.145
 8453TIP3    H125300   4.913   5.172   1.053
 8453TIP3    H225301   5.007   5.242   1.149
 8454TIP3   OH225302   4.502   6.645   1.150
 8454TIP3    H125303   4.571   6.695   1.196
 8454TIP3    H225304   4.504   6.559   1.191
 8455TIP3   OH225305   4.179   2.882   5.181
 8455TIP3    H125306   4.194   2.852   5.091
 8455TIP3    H225307   4.228   2.821   5.235
 8456TIP3   OH225308   7.446   0.056   5.544
 8456TIP3    H125309   7.524   0.072   5.597
 8456TIP3    H225310   7.401  -0.015   5.589
 8457TIP3   OH225311   6.231   3.785   2.562
 8457TIP3    H125312   6.307   3.739   2.526
 8457TIP3    H225313   6.228   3.758   2.654
 8458TIP3   OH225314   7.483   5.904   2.684
 8458TIP3    H125315   7.396   5.884   2.649
 8458TIP3    H225316   7.481   5.998   2.700
 8459TIP3   OH225317   0.756   1.712   1.508
 8459TIP3    H125318   0.831   1.724   1.450
 8459TIP3    H225319   0.757   1.619   1.530
 8460TIP3   OH225320   5.624   1.044   1.109
 8460TIP3    H125321   5.714   1.012   1.106
 8460TIP3    H225322   5.593   1.023   1.197
 8461TIP3   OH225323   3.809   3.701   0.064
 8461TIP3    H125324   3.840   3.655  -0.014
 8461TIP3    H225325   3.825   3.793   0.046
 8462TIP3   OH225326   7.653   1.100   0.242
 8462TIP3    H125327   7.699   1.137   0.317
 8462TIP3    H225328   7.614   1.176   0.198
 8463TIP3   OH225329   2.847   5.006   0.925
 8463TIP3    H125330   2.786   4.941   0.892
 8463TIP3    H225331   2.882   5.049   0.846
 8464TIP3   OH225332   3.728   7.403   4.490
 8464TIP3    H125333   3.716   7.372   4.579
 8464TIP3    H225334   3.822   7.417   4.482
 8465TIP3   OH225335   6.508   6.517   5.907
 8465TIP3    H125336   6.483   6.587   5.967
 8465TIP3    H225337   6.439   6.518   5.840
 8466TIP3   OH225338   1.433   1.475   4.006
 8466TIP3    H125339   1.453   1.492   3.914
 8466TIP3    H225340   1.375   1.399   4.005
 8467TIP3   OH225341   2.498   6.954   2.772
 8467TIP3    H125342   2.589   6.981   2.764
 8467TIP3    H225343   2.500   6.878   2.830
 8468TIP3   OH225344   1.142   7.193   1.757
 8468TIP3    H125345   1.112   7.125   1.696
 8468TIP3    H225346   1.078   7.192   1.828
 8469TIP3   OH225347   5.649   5.527   3.913
 8469TIP3    H125348   5.741   5.535   3.938
 8469TIP3    H225349   5.602   5.580   3.978
 8470TIP3   OH225350   5.843   7.828   3.757
 8470TIP3    H125351   5.927   7.842   3.715
 8470TIP3    H225352   5.827   7.909   3.807
 8471TIP3   OH225353   7.331   6.788   0.219
 8471TIP3    H125354   7.267   6.734   0.266
 8471TIP3    H225355   7.278   6.854   0.174
 8472TIP3   OH225356   4.567   0.713   4.735
 8472TIP3    H125357   4.608   0.778   4.791
 8472TIP3    H225358   4.640   0.673   4.688
 8473TIP3   OH225359   0.534   7.615   6.250
 8473TIP3    H125360   0.609   7.659   6.209
 8473TIP3    H225361   0.560   7.603   6.341
 8474TIP3   OH225362   8.091   1.926   2.796
 8474TIP3    H125363   8.021   1.986   2.771
 8474TIP3    H225364   8.135   1.905   2.714
 8475TIP3   OH225365   3.085   1.804   0.766
 8475TIP3    H125366   3.111   1.824   0.856
 8475TIP3    H225367   3.117   1.878   0.714
 8476TIP3   OH225368   4.122   7.864   4.668
 8476TIP3    H125369   4.171   7.918   4.605
 8476TIP3    H225370   4.167   7.779   4.666
 8477TIP3   OH225371   7.045   5.786   5.591
 8477TIP3    H125372   6.990   5.810   5.665
 8477TIP3    H225373   7.093   5.865   5.569
 8478TIP3   OH225374   2.973   7.287   0.449
 8478TIP3    H125375   3.000   7.294   0.358
 8478TIP3    H225376   2.972   7.377   0.481
 8479TIP3   OH225377   6.785   5.948   2.135
 8479TIP3    H125378   6.766   5.877   2.073
 8479TIP3    H225379   6.881   5.957   2.133
 8480TIP3   OH225380   0.101   5.347   0.799
 8480TIP3    H125381   0.159   5.341   0.723
 8480TIP3    H225382   0.024   5.393   0.767
 8481TIP3   OH225383   4.290   0.168   0.086
 8481TIP3    H125384   4.270   0.075   0.100
 8481TIP3    H225385   4.282   0.181  -0.008
 8482TIP3   OH225386   1.243   0.921   4.291
 8482TIP3    H125387   1.252   0.931   4.385
 8482TIP3    H225388   1.154   0.950   4.272
 8483TIP3   OH225389   1.284   0.806   3.285
 8483TIP3    H125390   1.296   0.871   3.217
 8483TIP3    H225391   1.353   0.825   3.349
 8484TIP3   OH225392   3.339   7.611   3.275
 8484TIP3    H125393   3.299   7.606   3.188
 8484TIP3    H225394   3.409   7.676   3.266
 8485TIP3   OH225395   2.451   0.653   6.850
 8485TIP3    H125396   2.479   0.653   6.759
 8485TIP3    H225397   2.430   0.745   6.868
 8486TIP3   OH225398   2.435   2.199   1.340
 8486TIP3    H125399   2.470   2.286   1.358
 8486TIP3    H225400   2.354   2.195   1.392
 8487TIP3   OH225401   6.879   2.541   3.053
 8487TIP3    H125402   6.786   2.563   3.058
 8487TIP3    H225403   6.918   2.612   3.002
 8488TIP3   OH225404   4.468   7.173   2.606
 8488TIP3    H125405   4.498   7.083   2.595
 8488TIP3    H225406   4.454   7.205   2.516
 8489TIP3   OH225407   4.945   0.585   4.310
 8489TIP3    H125408   5.009   0.582   4.381
 8489TIP3    H225409   4.981   0.649   4.248
 8490TIP3   OH225410   8.334   0.990   3.182
 8490TIP3    H125411   8.272   0.958   3.115
 8490TIP3    H225412   8.420   0.970   3.146
 8491TIP3   OH225413   6.570   1.003   0.863
 8491TIP3    H125414   6.475   0.990   0.853
 8491TIP3    H225415   6.601   0.924   0.907
 8492TIP3   OH225416   3.339   2.005   3.802
 8492TIP3    H125417   3.423   1.996   3.756
 8492TIP3    H225418   3.299   1.919   3.798
 8493TIP3   OH225419   7.570   1.765   6.196
 8493TIP3    H125420   7.664   1.756   6.179
 8493TIP3    H225421   7.561   1.754   6.290
 8494TIP3   OH225422   7.294   4.192   2.508
 8494TIP3    H125423   7.203   4.217   2.520
 8494TIP3    H225424   7.339   4.226   2.586
 8495TIP3   OH225425   8.224   6.816   1.585
 8495TIP3    H125426   8.222   6.904   1.623
 8495TIP3    H225427   8.278   6.765   1.646
 8496TIP3   OH225428   3.716   4.523   0.265
 8496TIP3    H125429   3.808   4.510   0.288
 8496TIP3    H225430   3.685   4.436   0.241
 8497TIP3   OH225431   4.644   6.689   6.684
 8497TIP3    H125432   4.576   6.747   6.720
 8497TIP3    H225433   4.689   6.655   6.761
 8498TIP3   OH225434   5.546   4.194   0.179
 8498TIP3    H125435   5.457   4.229   0.181
 8498TIP3    H225436   5.541   4.112   0.228
 8499TIP3   OH225437   7.764   1.795   2.806
 8499TIP3    H125438   7.853   1.762   2.802
 8499TIP3    H225439   7.766   1.876   2.755
 8500TIP3   OH225440   8.286   7.666   3.089
 8500TIP3    H125441   8.224   7.619   3.035
 8500TIP3    H225442   8.240   7.746   3.114
 8501TIP3   OH225443   2.935   6.104   5.140
 8501TIP3    H125444   2.980   6.185   5.117
 8501TIP3    H225445   2.933   6.053   5.059
 8502TIP3   OH225446   1.433   3.029   5.557
 8502TIP3    H125447   1.358   3.078   5.524
 8502TIP3    H225448   1.395   2.960   5.611
 8503TIP3   OH225449   7.207   1.531   3.933
 8503TIP3    H125450   7.213   1.609   3.988
 8503TIP3    H225451   7.118   1.499   3.947
 8504TIP3   OH225452   8.003   1.141   4.913
 8504TIP3    H125453   7.977   1.231   4.894
 8504TIP3    H225454   8.071   1.150   4.980
 8505TIP3   OH225455   4.594   4.772   1.863
 8505TIP3    H125456   4.548   4.689   1.876
 8505TIP3    H225457   4.653   4.778   1.938
 8506TIP3   OH225458   6.143   6.673   2.921
 8506TIP3    H125459   6.097   6.744   2.965
 8506TIP3    H225460   6.168   6.710   2.836
 8507TIP3   OH225461   7.748   0.436   5.871
 8507TIP3    H125462   7.674   0.476   5.917
 8507TIP3    H225463   7.818   0.434   5.936
 8508TIP3   OH225464   2.479   0.155   0.824
 8508TIP3    H125465   2.574   0.159   0.833
 8508TIP3    H225466   2.463   0.083   0.762
 8509TIP3   OH225467   1.730   5.466   4.695
 8509TIP3    H125468   1.805   5.494   4.643
 8509TIP3    H225469   1.691   5.548   4.727
 8510TIP3   OH225470   7.436   0.509   4.256
 8510TIP3    H125471   7.388   0.428   4.276
 8510TIP3    H225472   7.499   0.483   4.189
 8511TIP3   OH225473   6.046   4.656   1.533
 8511TIP3    H125474   6.086   4.742   1.523
 8511TIP3    H225475   6.115   4.602   1.571
 8512TIP3   OH225476   2.957   5.513   5.809
 8512TIP3    H125477   3.037   5.461   5.818
 8512TIP3    H225478   2.987   5.604   5.812
 8513TIP3   OH225479   6.461   7.234   0.645
 8513TIP3    H125480   6.537   7.245   0.589
 8513TIP3    H225481   6.497   7.208   0.730
 8514TIP3   OH225482   5.544   4.397   2.638
 8514TIP3    H125483   5.536   4.324   2.576
 8514TIP3    H225484   5.619   4.373   2.692
 8515TIP3   OH225485   5.339   3.746   4.354
 8515TIP3    H125486   5.380   3.712   4.433
 8515TIP3    H225487   5.337   3.672   4.294
 8516TIP3   OH225488   3.379   4.989   1.506
 8516TIP3    H125489   3.463   4.986   1.459
 8516TIP3    H225490   3.404   4.997   1.598
 8517TIP3   OH225491   4.194   5.006   1.041
 8517TIP3    H125492   4.221   5.078   1.098
 8517TIP3    H225493   4.099   5.009   1.042
 8518TIP3   OH225494   7.594   5.348   2.425
 8518TIP3    H125495   7.584   5.258   2.394
 8518TIP3    H225496   7.563   5.402   2.352
 8519TIP3   OH225497   0.766   7.576   3.291
 8519TIP3    H125498   0.675   7.546   3.288
 8519TIP3    H225499   0.813   7.506   3.336
 8520TIP3   OH225500   2.610   7.470   1.746
 8520TIP3    H125501   2.652   7.384   1.751
 8520TIP3    H225502   2.555   7.474   1.824
 8521TIP3   OH225503   2.829   6.389   4.090
 8521TIP3    H125504   2.744   6.363   4.127
 8521TIP3    H225505   2.883   6.311   4.097
 8522TIP3   OH225506   0.896   7.088   1.266
 8522TIP3    H125507   0.923   7.111   1.355
 8522TIP3    H225508   0.817   7.035   1.278
 8523TIP3   OH225509   2.613   1.779   6.855
 8523TIP3    H125510   2.682   1.839   6.885
 8523TIP3    H225511   2.605   1.796   6.761
 8524TIP3   OH225512   0.705   1.101   5.371
 8524TIP3    H125513   0.672   1.097   5.281
 8524TIP3    H225514   0.631   1.075   5.425
 8525TIP3   OH225515   6.826   5.766   4.534
 8525TIP3    H125516   6.854   5.853   4.561
 8525TIP3    H225517   6.866   5.754   4.447
 8526TIP3   OH225518   1.126   0.862   0.982
 8526TIP3    H125519   1.195   0.918   0.945
 8526TIP3    H225520   1.075   0.921   1.037
 8527TIP3   OH225521   3.410   7.314   5.746
 8527TIP3    H125522   3.439   7.277   5.829
 8527TIP3    H225523   3.491   7.336   5.699
 8528TIP3   OH225524  -0.006   1.765   5.354
 8528TIP3    H125525   0.073   1.805   5.316
 8528TIP3    H225526   0.020   1.744   5.444
 8529TIP3   OH225527   4.510   2.117   5.464
 8529TIP3    H125528   4.598   2.127   5.500
 8529TIP3    H225529   4.485   2.027   5.485
 8530TIP3   OH225530   6.004   5.479   5.025
 8530TIP3    H125531   5.942   5.479   5.098
 8530TIP3    H225532   6.024   5.387   5.010
 8531TIP3   OH225533   4.366   2.697   0.681
 8531TIP3    H125534   4.441   2.712   0.625
 8531TIP3    H225535   4.299   2.758   0.650
 8532TIP3   OH225536   5.525   6.593   1.388
 8532TIP3    H125537   5.618   6.613   1.374
 8532TIP3    H225538   5.500   6.540   1.313
 8533TIP3   OH225539   8.379   1.670   3.825
 8533TIP3    H125540   8.333   1.669   3.741
 8533TIP3    H225541   8.452   1.731   3.811
 8534TIP3   OH225542   5.046   1.201   6.053
 8534TIP3    H125543   4.982   1.132   6.071
 8534TIP3    H225544   5.023   1.231   5.964
 8535TIP3   OH225545   3.939   4.975   6.202
 8535TIP3    H125546   3.906   5.055   6.244
 8535TIP3    H225547   4.008   5.007   6.144
 8536TIP3   OH225548   3.975   2.419   4.180
 8536TIP3    H125549   4.015   2.355   4.239
 8536TIP3    H225550   3.909   2.369   4.133
 8537TIP3   OH225551   4.621   0.589   1.355
 8537TIP3    H125552   4.660   0.502   1.367
 8537TIP3    H225553   4.527   0.574   1.362
 8538TIP3   OH225554   2.535   2.011   1.162
 8538TIP3    H125555   2.486   2.066   1.222
 8538TIP3    H225556   2.471   1.984   1.097
 8539TIP3   OH225557   1.100   5.433   4.281
 8539TIP3    H125558   1.138   5.349   4.306
 8539TIP3    H225559   1.116   5.441   4.187
 8540TIP3   OH225560   1.950   6.693   2.683
 8540TIP3    H125561   1.904   6.664   2.603
 8540TIP3    H225562   1.967   6.612   2.731
 8541TIP3   OH225563   2.568   5.485   3.073
 8541TIP3    H125564   2.517   5.564   3.059
 8541TIP3    H225565   2.621   5.503   3.151
 8542TIP3   OH225566   4.591   2.149   1.169
 8542TIP3    H125567   4.612   2.058   1.147
 8542TIP3    H225568   4.633   2.164   1.253
 8543TIP3   OH225569   6.731   4.836   3.257
 8543TIP3    H125570   6.699   4.925   3.243
 8543TIP3    H225571   6.790   4.819   3.184
 8544TIP3   OH225572   3.402   1.637   6.066
 8544TIP3    H125573   3.318   1.591   6.053
 8544TIP3    H225574   3.393   1.680   6.151
 8545TIP3   OH225575   6.725   2.393   3.299
 8545TIP3    H125576   6.815   2.385   3.268
 8545TIP3    H225577   6.688   2.466   3.249
 8546TIP3   OH225578   3.103   7.307   4.602
 8546TIP3    H125579   3.085   7.339   4.690
 8546TIP3    H225580   3.105   7.212   4.610
 8547TIP3   OH225581   0.858   0.067   1.919
 8547TIP3    H125582   0.862   0.018   2.001
 8547TIP3    H225583   0.775   0.115   1.924
 8548TIP3   OH225584   3.122   1.993   2.843
 8548TIP3    H125585   3.058   2.040   2.788
 8548TIP3    H225586   3.175   2.062   2.881
 8549TIP3   OH225587   2.414   7.895   6.376
 8549TIP3    H125588   2.506   7.897   6.403
 8549TIP3    H225589   2.413   7.942   6.293
 8550TIP3   OH225590   0.857   7.216   5.475
 8550TIP3    H125591   0.904   7.163   5.539
 8550TIP3    H225592   0.923   7.276   5.441
 8551TIP3   OH225593   2.216   4.765   0.737
 8551TIP3    H125594   2.145   4.713   0.775
 8551TIP3    H225595   2.179   4.800   0.656
 8552TIP3   OH225596   5.126   0.522   3.730
 8552TIP3    H125597   5.069   0.484   3.797
 8552TIP3    H225598   5.069   0.579   3.679
 8553TIP3   OH225599   8.353   2.636   0.137
 8553TIP3    H125600   8.404   2.561   0.108
 8553TIP3    H225601   8.331   2.616   0.228
 8554TIP3   OH225602   1.167   1.480   1.068
 8554TIP3    H125603   1.244   1.444   1.024
 8554TIP3    H225604   1.131   1.542   1.005
 8555TIP3   OH225605   8.052   4.902   6.790
 8555TIP3    H125606   8.113   4.975   6.802
 8555TIP3    H225607   7.987   4.914   6.859
 8556TIP3   OH225608   2.926   1.355   2.215
 8556TIP3    H125609   2.886   1.283   2.262
 8556TIP3    H225610   3.007   1.319   2.180
 8557TIP3   OH225611   7.512   2.652   3.800
 8557TIP3    H125612   7.536   2.600   3.724
 8557TIP3    H225613   7.539   2.599   3.875
 8558TIP3   OH225614   5.651   7.561   3.781
 8558TIP3    H125615   5.640   7.656   3.783
 8558TIP3    H225616   5.728   7.544   3.834
 8559TIP3   OH225617   5.679   0.751   4.892
 8559TIP3    H125618   5.750   0.691   4.915
 8559TIP3    H225619   5.603   0.718   4.941
 8560TIP3   OH225620   0.056   2.327   1.613
 8560TIP3    H125621   0.131   2.271   1.592
 8560TIP3    H225622   0.083   2.375   1.691
 8561TIP3   OH225623   4.622   2.564   5.704
 8561TIP3    H125624   4.638   2.527   5.617
 8561TIP3    H225625   4.613   2.488   5.761
 8562TIP3   OH225626   3.374   1.728   4.053
 8562TIP3    H125627   3.309   1.798   4.061
 8562TIP3    H225628   3.349   1.682   3.973
 8563TIP3   OH225629   8.125   0.142   1.747
 8563TIP3    H125630   8.089   0.219   1.790
 8563TIP3    H225631   8.220   0.151   1.755
 8564TIP3   OH225632   7.385   6.507   5.516
 8564TIP3    H125633   7.381   6.534   5.608
 8564TIP3    H225634   7.462   6.552   5.482
 8565TIP3   OH225635   4.659   2.492   4.348
 8565TIP3    H125636   4.631   2.583   4.365
 8565TIP3    H225637   4.662   2.486   4.253
 8566TIP3   OH225638   6.721   3.220   2.253
 8566TIP3    H125639   6.711   3.177   2.338
 8566TIP3    H225640   6.657   3.175   2.197
 8567TIP3   OH225641   1.451   2.389   3.450
 8567TIP3    H125642   1.530   2.358   3.494
 8567TIP3    H225643   1.481   2.460   3.393
 8568TIP3   OH225644   0.913   1.272   3.958
 8568TIP3    H125645   0.880   1.185   3.938
 8568TIP3    H225646   0.858   1.331   3.906
 8569TIP3   OH225647   7.731   4.007   5.189
 8569TIP3    H125648   7.639   4.007   5.161
 8569TIP3    H225649   7.735   4.076   5.255
 8570TIP3   OH225650   3.310   3.737   4.498
 8570TIP3    H125651   3.342   3.800   4.433
 8570TIP3    H225652   3.337   3.774   4.582
 8571TIP3   OH225653   1.444   6.106   6.078
 8571TIP3    H125654   1.398   6.032   6.039
 8571TIP3    H225655   1.537   6.083   6.071
 8572TIP3   OH225656   3.950   0.697   0.816
 8572TIP3    H125657   3.932   0.778   0.863
 8572TIP3    H225658   3.945   0.628   0.882
 8573TIP3   OH225659   4.782   3.951   5.424
 8573TIP3    H125660   4.734   3.928   5.345
 8573TIP3    H225661   4.849   4.013   5.394
 8574TIP3   OH225662   6.720   1.901   5.660
 8574TIP3    H125663   6.763   1.986   5.649
 8574TIP3    H225664   6.771   1.842   5.604
 8575TIP3   OH225665   5.237   6.129   1.428
 8575TIP3    H125666   5.314   6.144   1.374
 8575TIP3    H225667   5.246   6.192   1.500
 8576TIP3   OH225668   4.070   7.859   2.011
 8576TIP3    H125669   4.056   7.881   2.103
 8576TIP3    H225670   4.087   7.943   1.969
 8577TIP3   OH225671   5.567   0.362   4.663
 8577TIP3    H125672   5.497   0.323   4.714
 8577TIP3    H225673   5.526   0.380   4.578
 8578TIP3   OH225674   2.772   6.153   2.043
 8578TIP3    H125675   2.866   6.145   2.027
 8578TIP3    H225676   2.752   6.084   2.106
 8579TIP3   OH225677   4.819   3.205   3.437
 8579TIP3    H125678   4.781   3.292   3.427
 8579TIP3    H225679   4.810   3.186   3.530
 8580TIP3   OH225680   1.579   3.857   3.486
 8580TIP3    H125681   1.489   3.838   3.457
 8580TIP3    H225682   1.634   3.801   3.430
 8581TIP3   OH225683   1.103   0.057   2.467
 8581TIP3    H125684   1.090   0.043   2.561
 8581TIP3    H225685   1.164  -0.012   2.441
 8582TIP3   OH225686   5.271   6.577   1.722
 8582TIP3    H125687   5.331   6.587   1.796
 8582TIP3    H225688   5.185   6.595   1.758
 8583TIP3   OH225689   3.570   4.126   0.445
 8583TIP3    H125690   3.606   4.188   0.382
 8583TIP3    H225691   3.519   4.065   0.393
 8584TIP3   OH225692   6.227   1.461   1.247
 8584TIP3    H125693   6.176   1.380   1.244
 8584TIP3    H225694   6.306   1.441   1.196
 8585TIP3   OH225695   7.684   2.558   4.852
 8585TIP3    H125696   7.653   2.468   4.855
 8585TIP3    H225697   7.761   2.559   4.908
 8586TIP3   OH225698   5.131   1.125   0.485
 8586TIP3    H125699   5.190   1.182   0.435
 8586TIP3    H225700   5.126   1.045   0.433
 8587TIP3   OH225701   4.428   5.088   5.291
 8587TIP3    H125702   4.444   5.053   5.204
 8587TIP3    H225703   4.475   5.171   5.293
 8588TIP3   OH225704   0.872   7.473   5.838
 8588TIP3    H125705   0.855   7.392   5.886
 8588TIP3    H225706   0.943   7.450   5.778
 8589TIP3   OH225707   8.015   2.807   1.628
 8589TIP3    H125708   7.946   2.844   1.573
 8589TIP3    H225709   7.983   2.819   1.718
 8590TIP3   OH225710   0.262   7.367   0.874
 8590TIP3    H125711   0.226   7.300   0.932
 8590TIP3    H225712   0.197   7.375   0.803
 8591TIP3   OH225713   7.801   7.766   3.025
 8591TIP3    H125714   7.870   7.707   3.056
 8591TIP3    H225715   7.847   7.829   2.969
 8592TIP3   OH225716   0.746   3.748   0.397
 8592TIP3    H125717   0.682   3.696   0.445
 8592TIP3    H225718   0.794   3.796   0.465
 8593TIP3   OH225719   1.945   0.496   5.588
 8593TIP3    H125720   1.878   0.494   5.520
 8593TIP3    H225721   1.997   0.417   5.574
 8594TIP3   OH225722   6.604   0.242   2.419
 8594TIP3    H125723   6.596   0.199   2.334
 8594TIP3    H225724   6.677   0.197   2.461
 8595TIP3   OH225725   4.060   7.470   0.360
 8595TIP3    H125726   3.983   7.414   0.366
 8595TIP3    H225727   4.085   7.467   0.268
 8596TIP3   OH225728   1.317   2.153   4.767
 8596TIP3    H125729   1.294   2.098   4.842
 8596TIP3    H225730   1.354   2.092   4.703
 8597TIP3   OH225731   1.611   7.686   2.802
 8597TIP3    H125732   1.584   7.630   2.730
 8597TIP3    H225733   1.654   7.761   2.760
 8598TIP3   OH225734   4.626   1.816   6.591
 8598TIP3    H125735   4.720   1.810   6.577
 8598TIP3    H225736   4.587   1.787   6.508
 8599TIP3   OH225737   7.908   2.863   0.812
 8599TIP3    H125738   7.916   2.883   0.905
 8599TIP3    H225739   7.856   2.935   0.776
 8600TIP3   OH225740   3.215   1.989   5.444
 8600TIP3    H125741   3.200   1.917   5.506
 8600TIP3    H225742   3.146   1.978   5.379
 8601TIP3   OH225743   5.504   0.797   2.017
 8601TIP3    H125744   5.573   0.827   2.076
 8601TIP3    H225745   5.472   0.716   2.056
 8602TIP3   OH225746   5.525   1.286   2.425
 8602TIP3    H125747   5.558   1.361   2.475
 8602TIP3    H225748   5.586   1.279   2.351
 8603TIP3   OH225749   2.268   2.394   1.501
 8603TIP3    H125750   2.196   2.416   1.442
 8603TIP3    H225751   2.231   2.331   1.562
 8604TIP3   OH225752   7.877   1.490  -0.004
 8604TIP3    H125753   7.805   1.531   0.045
 8604TIP3    H225754   7.930   1.564  -0.033
 8605TIP3   OH225755   2.047   2.323   5.703
 8605TIP3    H125756   2.141   2.311   5.695
 8605TIP3    H225757   2.018   2.253   5.763
 8606TIP3   OH225758   3.373   1.056   0.962
 8606TIP3    H125759   3.414   1.030   0.880
 8606TIP3    H225760   3.431   1.022   1.030
 8607TIP3   OH225761   2.923   2.892   2.367
 8607TIP3    H125762   2.916   2.916   2.459
 8607TIP3    H225763   3.001   2.938   2.336
 8608TIP3   OH225764   6.314   4.143   0.087
 8608TIP3    H125765   6.265   4.125   0.006
 8608TIP3    H225766   6.330   4.238   0.084
 8609TIP3   OH225767   6.412   3.372   1.879
 8609TIP3    H125768   6.338   3.375   1.939
 8609TIP3    H225769   6.385   3.309   1.811
 8610TIP3   OH225770   4.286   0.710   2.898
 8610TIP3    H125771   4.203   0.719   2.852
 8610TIP3    H225772   4.262   0.705   2.991
 8611TIP3   OH225773   5.051   3.589   1.159
 8611TIP3    H125774   5.089   3.558   1.077
 8611TIP3    H225775   5.118   3.646   1.197
 8612TIP3   OH225776   2.708   2.738   4.189
 8612TIP3    H125777   2.704   2.831   4.210
 8612TIP3    H225778   2.800   2.714   4.205
 8613TIP3   OH225779   3.947   4.760   6.045
 8613TIP3    H125780   3.928   4.837   6.098
 8613TIP3    H225781   3.936   4.687   6.106
 8614TIP3   OH225782   1.364   6.561   6.160
 8614TIP3    H125783   1.442   6.510   6.183
 8614TIP3    H225784   1.380   6.648   6.196
 8615TIP3   OH225785   0.262   7.463   2.869
 8615TIP3    H125786   0.242   7.539   2.924
 8615TIP3    H225787   0.357   7.453   2.876
 8616TIP3   OH225788   7.328   5.903   1.396
 8616TIP3    H125789   7.279   5.879   1.475
 8616TIP3    H225790   7.271   5.878   1.323
 8617TIP3   OH225791   6.904   0.079   6.114
 8617TIP3    H125792   6.839   0.050   6.050
 8617TIP3    H225793   6.960   0.140   6.067
 8618TIP3   OH225794   2.745   3.103   2.507
 8618TIP3    H125795   2.692   3.167   2.554
 8618TIP3    H225796   2.769   3.147   2.426
 8619TIP3   OH225797   2.100   6.870   4.051
 8619TIP3    H125798   2.113   6.962   4.075
 8619TIP3    H225799   2.183   6.828   4.073
 8620TIP3   OH225800   4.232   2.272   1.648
 8620TIP3    H125801   4.215   2.306   1.560
 8620TIP3    H225802   4.151   2.289   1.697
 8621TIP3   OH225803   5.298   0.670   6.112
 8621TIP3    H125804   5.326   0.640   6.026
 8621TIP3    H225805   5.345   0.614   6.174
 8622TIP3   OH225806   3.123   1.086   0.378
 8622TIP3    H125807   3.137   1.165   0.430
 8622TIP3    H225808   3.202   1.079   0.324
 8623TIP3   OH225809   7.409   4.258   4.388
 8623TIP3    H125810   7.476   4.254   4.319
 8623TIP3    H225811   7.344   4.193   4.361
 8624TIP3   OH225812   1.852   1.771   5.662
 8624TIP3    H125813   1.901   1.846   5.627
 8624TIP3    H225814   1.909   1.735   5.729
 8625TIP3   OH225815   6.615   6.872   3.421
 8625TIP3    H125816   6.682   6.846   3.357
 8625TIP3    H225817   6.586   6.790   3.460
 8626TIP3   OH225818   0.933   1.056   5.520
 8626TIP3    H125819   0.998   1.033   5.454
 8626TIP3    H225820   0.860   1.094   5.470
 8627TIP3   OH225821   6.700   2.818   5.337
 8627TIP3    H125822   6.668   2.727   5.338
 8627TIP3    H225823   6.785   2.813   5.381
 8628TIP3   OH225824   2.461   6.297   2.029
 8628TIP3    H125825   2.537   6.278   2.083
 8628TIP3    H225826   2.408   6.357   2.081
 8629TIP3   OH225827   0.159   7.330   6.252
 8629TIP3    H125828   0.201   7.244   6.260
 8629TIP3    H225829   0.065   7.311   6.253
 8630TIP3   OH225830   1.022   3.611   0.474
 8630TIP3    H125831   1.055   3.536   0.523
 8630TIP3    H225832   0.927   3.600   0.475
 8631TIP3   OH225833   1.379   5.617   1.528
 8631TIP3    H125834   1.391   5.541   1.471
 8631TIP3    H225835   1.297   5.657   1.498
 8632TIP3   OH225836   6.335   6.796   4.292
 8632TIP3    H125837   6.349   6.802   4.198
 8632TIP3    H225838   6.376   6.714   4.317
 8633TIP3   OH225839   5.089   6.520   2.423
 8633TIP3    H125840   5.138   6.577   2.482
 8633TIP3    H225841   5.138   6.438   2.421
 8634TIP3   OH225842   4.926   6.191   3.449
 8634TIP3    H125843   5.007   6.140   3.449
 8634TIP3    H225844   4.872   6.152   3.380
 8635TIP3   OH225845   7.867   3.259   0.209
 8635TIP3    H125846   7.921   3.233   0.134
 8635TIP3    H225847   7.884   3.192   0.275
 8636TIP3   OH225848   7.516   4.624   5.505
 8636TIP3    H125849   7.520   4.643   5.598
 8636TIP3    H225850   7.445   4.678   5.472
 8637TIP3   OH225851   0.348   6.631   0.716
 8637TIP3    H125852   0.382   6.545   0.688
 8637TIP3    H225853   0.422   6.673   0.759
 8638TIP3   OH225854   0.166   2.031   1.876
 8638TIP3    H125855   0.080   2.067   1.854
 8638TIP3    H225856   0.180   2.055   1.967
 8639TIP3   OH225857   6.995   4.892   5.501
 8639TIP3    H125858   6.959   4.934   5.423
 8639TIP3    H225859   6.919   4.853   5.545
 8640TIP3   OH225860   0.830   6.626   1.394
 8640TIP3    H125861   0.755   6.568   1.382
 8640TIP3    H225862   0.889   6.577   1.452
 8641TIP3   OH225863   1.202   2.542   3.042
 8641TIP3    H125864   1.134   2.479   3.065
 8641TIP3    H225865   1.173   2.581   2.960
 8642TIP3   OH225866   1.020   0.405   1.467
 8642TIP3    H125867   0.963   0.342   1.421
 8642TIP3    H225868   1.029   0.478   1.406
 8643TIP3   OH225869   3.456   2.536   2.494
 8643TIP3    H125870   3.401   2.472   2.541
 8643TIP3    H225871   3.394   2.581   2.436
 8644TIP3   OH225872   2.938   1.704   3.912
 8644TIP3    H125873   2.940   1.667   4.001
 8644TIP3    H225874   2.847   1.694   3.885
 8645TIP3   OH225875   2.196   2.145   3.270
 8645TIP3    H125876   2.200   2.051   3.250
 8645TIP3    H225877   2.231   2.152   3.359
 8646TIP3   OH225878   4.804   3.226   1.745
 8646TIP3    H125879   4.721   3.268   1.768
 8646TIP3    H225880   4.867   3.298   1.745
 8647TIP3   OH225881   4.072   5.163   5.023
 8647TIP3    H125882   4.138   5.138   4.959
 8647TIP3    H225883   4.002   5.099   5.011
 8648TIP3   OH225884   5.918   5.938   4.844
 8648TIP3    H125885   5.925   5.976   4.931
 8648TIP3    H225886   5.882   5.850   4.859
 8649TIP3   OH225887   7.535   7.479   1.753
 8649TIP3    H125888   7.457   7.426   1.768
 8649TIP3    H225889   7.506   7.569   1.763
 8650TIP3   OH225890   6.760   5.845   3.811
 8650TIP3    H125891   6.754   5.894   3.729
 8650TIP3    H225892   6.726   5.905   3.877
 8651TIP3   OH225893   2.936   2.165   2.041
 8651TIP3    H125894   2.855   2.184   1.993
 8651TIP3    H225895   3.001   2.148   1.972
 8652TIP3   OH225896   7.809   1.862   6.426
 8652TIP3    H125897   7.802   1.950   6.388
 8652TIP3    H225898   7.719   1.840   6.452
 8653TIP3   OH225899   0.609   3.242   5.714
 8653TIP3    H125900   0.536   3.267   5.657
 8653TIP3    H225901   0.586   3.277   5.800
 8654TIP3   OH225902   0.985   6.283   6.150
 8654TIP3    H125903   1.039   6.351   6.110
 8654TIP3    H225904   0.909   6.330   6.186
 8655TIP3   OH225905   3.403   3.699   5.806
 8655TIP3    H125906   3.312   3.687   5.779
 8655TIP3    H225907   3.416   3.634   5.874
 8656TIP3   OH225908   7.009   6.197   5.844
 8656TIP3    H125909   7.030   6.250   5.767
 8656TIP3    H225910   6.972   6.116   5.808
 8657TIP3   OH225911   4.270   4.207   3.892
 8657TIP3    H125912   4.210   4.148   3.939
 8657TIP3    H225913   4.216   4.281   3.866
 8658TIP3   OH225914   6.295   3.643   6.324
 8658TIP3    H125915   6.390   3.632   6.321
 8658TIP3    H225916   6.279   3.691   6.406
 8659TIP3   OH225917   4.114   2.659   2.891
 8659TIP3    H125918   4.167   2.674   2.969
 8659TIP3    H225919   4.145   2.576   2.855
 8660TIP3   OH225920   2.267   6.533   0.031
 8660TIP3    H125921   2.273   6.625   0.054
 8660TIP3    H225922   2.263   6.532  -0.065
 8661TIP3   OH225923   4.165   2.346   6.026
 8661TIP3    H125924   4.097   2.405   6.060
 8661TIP3    H225925   4.151   2.345   5.932
 8662TIP3   OH225926   7.666   1.490   4.924
 8662TIP3    H125927   7.729   1.453   4.862
 8662TIP3    H225928   7.580   1.464   4.891
 8663TIP3   OH225929   5.752   0.236   2.677
 8663TIP3    H125930   5.842   0.205   2.676
 8663TIP3    H225931   5.706   0.183   2.612
 8664TIP3   OH225932   2.193   1.913   6.187
 8664TIP3    H125933   2.205   2.000   6.224
 8664TIP3    H225934   2.108   1.884   6.221
 8665TIP3   OH225935   2.858   4.295   3.590
 8665TIP3    H125936   2.803   4.225   3.556
 8665TIP3    H225937   2.874   4.352   3.515
 8666TIP3   OH225938   0.837   7.617   1.277
 8666TIP3    H125939   0.909   7.654   1.226
 8666TIP3    H225940   0.871   7.534   1.311
 8667TIP3   OH225941   1.083   0.372   6.102
 8667TIP3    H125942   1.005   0.317   6.105
 8667TIP3    H225943   1.152   0.313   6.073
 8668TIP3   OH225944   8.339   2.825   3.565
 8668TIP3    H125945   8.312   2.897   3.508
 8668TIP3    H225946   8.414   2.859   3.613
 8669TIP3   OH225947   7.900   3.667   2.474
 8669TIP3    H125948   7.862   3.755   2.475
 8669TIP3    H225949   7.841   3.615   2.529
 8670TIP3   OH225950   2.699   4.459   1.633
 8670TIP3    H125951   2.790   4.484   1.646
 8670TIP3    H225952   2.681   4.395   1.702
 8671TIP3   OH225953   6.850   0.914   3.736
 8671TIP3    H125954   6.798   0.872   3.804
 8671TIP3    H225955   6.882   0.842   3.682
 8672TIP3   OH225956   4.770   2.616   0.572
 8672TIP3    H125957   4.865   2.624   0.574
 8672TIP3    H225958   4.739   2.671   0.644
 8673TIP3   OH225959   1.668   4.201   4.250
 8673TIP3    H125960   1.744   4.190   4.193
 8673TIP3    H225961   1.638   4.290   4.235
 8674TIP3   OH225962   7.560   6.194   6.329
 8674TIP3    H125963   7.533   6.135   6.400
 8674TIP3    H225964   7.479   6.229   6.294
 8675TIP3   OH225965   6.082   7.437   3.917
 8675TIP3    H125966   6.168   7.400   3.899
 8675TIP3    H225967   6.088   7.472   4.006
 8676TIP3   OH225968   2.007   2.817   6.687
 8676TIP3    H125969   2.052   2.808   6.603
 8676TIP3    H225970   2.054   2.757   6.745
 8677TIP3   OH225971   1.214   2.434   6.792
 8677TIP3    H125972   1.207   2.529   6.800
 8677TIP3    H225973   1.259   2.407   6.872
 8678TIP3   OH225974   3.344   7.572   4.989
 8678TIP3    H125975   3.394   7.491   5.000
 8678TIP3    H225976   3.349   7.590   4.895
 8679TIP3   OH225977   5.011   7.209   1.099
 8679TIP3    H125978   4.962   7.139   1.141
 8679TIP3    H225979   5.015   7.183   1.006
 8680TIP3   OH225980   5.803   7.314   0.734
 8680TIP3    H125981   5.750   7.265   0.671
 8680TIP3    H225982   5.884   7.333   0.687
 8681TIP3   OH225983   8.128   3.361   6.369
 8681TIP3    H125984   8.068   3.295   6.405
 8681TIP3    H225985   8.214   3.335   6.400
 8682TIP3   OH225986   6.762   5.574   2.390
 8682TIP3    H125987   6.702   5.648   2.379
 8682TIP3    H225988   6.786   5.577   2.482
 8683TIP3   OH225989   6.136   5.362   3.372
 8683TIP3    H125990   6.119   5.307   3.449
 8683TIP3    H225991   6.208   5.418   3.399
 8684TIP3   OH225992   6.919   2.069   3.271
 8684TIP3    H125993   6.865   2.101   3.199
 8684TIP3    H225994   6.993   2.130   3.275
 8685TIP3   OH225995   0.345   5.176   5.655
 8685TIP3    H125996   0.270   5.137   5.611
 8685TIP3    H225997   0.365   5.255   5.604
 8686TIP3   OH225998   7.915   3.342   1.504
 8686TIP3    H125999   7.823   3.356   1.482
 8686TIP3    H226000   7.914   3.318   1.596
 8687TIP3   OH226001   4.202   5.456   2.522
 8687TIP3    H126002   4.248   5.496   2.449
 8687TIP3    H226003   4.194   5.363   2.499
 8688TIP3   OH226004   7.103   0.429   5.443
 8688TIP3    H126005   7.041   0.363   5.413
 8688TIP3    H226006   7.185   0.407   5.400
 8689TIP3   OH226007   7.778   5.828   4.150
 8689TIP3    H126008   7.839   5.758   4.125
 8689TIP3    H226009   7.816   5.864   4.231
 8690TIP3   OH226010   7.888   0.242   2.274
 8690TIP3    H126011   7.792   0.243   2.272
 8690TIP3    H226012   7.913   0.214   2.186
 8691TIP3   OH226013   2.647   2.924   2.237
 8691TIP3    H126014   2.735   2.959   2.244
 8691TIP3    H226015   2.658   2.829   2.240
 8692TIP3   OH226016   1.386   0.964   4.529
 8692TIP3    H126017   1.357   1.013   4.606
 8692TIP3    H226018   1.425   0.884   4.565
 8693TIP3   OH226019   1.349   3.514   6.601
 8693TIP3    H126020   1.425   3.460   6.581
 8693TIP3    H226021   1.345   3.578   6.530
 8694TIP3   OH226022   5.278   3.302   2.841
 8694TIP3    H126023   5.188   3.280   2.817
 8694TIP3    H226024   5.318   3.331   2.758
 8695TIP3   OH226025   8.088   0.367   5.077
 8695TIP3    H126026   8.055   0.291   5.125
 8695TIP3    H226027   8.128   0.331   4.998
 8696TIP3   OH226028   6.473   6.727   0.933
 8696TIP3    H126029   6.490   6.820   0.913
 8696TIP3    H226030   6.443   6.691   0.849
 8697TIP3   OH226031   0.415   7.652   1.193
 8697TIP3    H126032   0.363   7.578   1.163
 8697TIP3    H226033   0.505   7.628   1.173
 8698TIP3   OH226034   7.500   7.375   1.232
 8698TIP3    H126035   7.503   7.371   1.328
 8698TIP3    H226036   7.415   7.417   1.213
 8699TIP3   OH226037   3.160   6.693   3.761
 8699TIP3    H126038   3.238   6.727   3.716
 8699TIP3    H226039   3.196   6.632   3.826
 8700TIP3   OH226040   3.662   3.178   0.115
 8700TIP3    H126041   3.729   3.125   0.073
 8700TIP3    H226042   3.597   3.115   0.146
 8701TIP3   OH226043   0.724   4.384   3.155
 8701TIP3    H126044   0.734   4.318   3.088
 8701TIP3    H226045   0.736   4.337   3.238
 8702TIP3   OH226046   3.345   2.046   4.374
 8702TIP3    H126047   3.407   2.098   4.424
 8702TIP3    H226048   3.381   2.044   4.285
 8703TIP3   OH226049   8.393   1.143   5.935
 8703TIP3    H126050   8.419   1.232   5.911
 8703TIP3    H226051   8.302   1.151   5.961
 8704TIP3   OH226052   4.756   3.779   0.288
 8704TIP3    H126053   4.839   3.773   0.241
 8704TIP3    H226054   4.771   3.845   0.356
 8705TIP3   OH226055   8.287   3.701   0.244
 8705TIP3    H126056   8.379   3.676   0.253
 8705TIP3    H226057   8.276   3.773   0.306
 8706TIP3   OH226058   2.614   2.562   0.750
 8706TIP3    H126059   2.643   2.637   0.698
 8706TIP3    H226060   2.539   2.595   0.800
 8707TIP3   OH226061   6.179   5.696   4.979
 8707TIP3    H126062   6.112   5.629   4.995
 8707TIP3    H226063   6.171   5.757   5.052
 8708TIP3   OH226064   7.500   3.824   1.825
 8708TIP3    H126065   7.499   3.833   1.730
 8708TIP3    H226066   7.408   3.832   1.851
 8709TIP3   OH226067   0.407   7.576   5.988
 8709TIP3    H126068   0.435   7.615   6.072
 8709TIP3    H226069   0.482   7.590   5.930
 8710TIP3   OH226070   2.010   3.043   3.345
 8710TIP3    H126071   2.049   3.122   3.308
 8710TIP3    H226072   1.931   3.028   3.293
 8711TIP3   OH226073   1.927   3.798   3.064
 8711TIP3    H126074   1.961   3.768   2.980
 8711TIP3    H226075   1.832   3.801   3.052
 8712TIP3   OH226076   7.522   2.433   3.147
 8712TIP3    H126077   7.595   2.480   3.107
 8712TIP3    H226078   7.518   2.467   3.236
 8713TIP3   OH226079   5.619   5.025   3.709
 8713TIP3    H126080   5.596   5.113   3.739
 8713TIP3    H226081   5.542   4.971   3.729
 8714TIP3   OH226082   6.133   0.750   0.875
 8714TIP3    H126083   6.047   0.749   0.833
 8714TIP3    H226084   6.191   0.705   0.813
 8715TIP3   OH226085   3.642   0.799   6.251
 8715TIP3    H126086   3.573   0.830   6.192
 8715TIP3    H226087   3.681   0.724   6.204
 8716TIP3   OH226088   4.295   0.938   3.972
 8716TIP3    H126089   4.320   0.850   4.001
 8716TIP3    H226090   4.279   0.986   4.053
 8717TIP3   OH226091   6.879   5.500   6.360
 8717TIP3    H126092   6.906   5.495   6.451
 8717TIP3    H226093   6.874   5.409   6.331
 8718TIP3   OH226094   7.137   4.095   1.670
 8718TIP3    H126095   7.085   4.151   1.729
 8718TIP3    H226096   7.174   4.028   1.727
 8719TIP3   OH226097   0.041   4.443   6.412
 8719TIP3    H126098   0.057   4.526   6.458
 8719TIP3    H226099   0.013   4.382   6.481
 8720TIP3   OH226100   3.951   3.949   2.292
 8720TIP3    H126101   3.956   3.914   2.203
 8720TIP3    H226102   3.857   3.947   2.313
 8721TIP3   OH226103   8.028   2.653   6.191
 8721TIP3    H126104   8.044   2.673   6.099
 8721TIP3    H226105   8.103   2.689   6.237
 8722TIP3   OH226106   2.131   4.931   3.273
 8722TIP3    H126107   2.152   4.888   3.356
 8722TIP3    H226108   2.035   4.938   3.273
 8723TIP3   OH226109   2.275   3.533   6.605
 8723TIP3    H126110   2.321   3.611   6.637
 8723TIP3    H226111   2.260   3.480   6.683
 8724TIP3   OH226112   7.558   5.499   5.735
 8724TIP3    H126113   7.592   5.532   5.651
 8724TIP3    H226114   7.486   5.441   5.710
 8725TIP3   OH226115   6.488   3.262   0.604
 8725TIP3    H126116   6.438   3.243   0.525
 8725TIP3    H226117   6.434   3.228   0.676
 8726TIP3   OH226118   1.894   1.245   5.365
 8726TIP3    H126119   1.913   1.254   5.458
 8726TIP3    H226120   1.867   1.153   5.355
 8727TIP3   OH226121   2.891   4.831   1.626
 8727TIP3    H126122   2.875   4.832   1.721
 8727TIP3    H226123   2.935   4.748   1.611
 8728TIP3   OH226124   5.068   1.741   2.184
 8728TIP3    H126125   5.026   1.667   2.228
 8728TIP3    H226126   5.152   1.707   2.153
 8729TIP3   OH226127   6.558   2.478   4.363
 8729TIP3    H126128   6.531   2.409   4.424
 8729TIP3    H226129   6.477   2.505   4.319
 8730TIP3   OH226130   4.821   5.161   3.050
 8730TIP3    H126131   4.853   5.071   3.060
 8730TIP3    H226132   4.900   5.211   3.028
 8731TIP3   OH226133   4.508   5.567   5.375
 8731TIP3    H126134   4.431   5.622   5.364
 8731TIP3    H226135   4.492   5.518   5.455
 8732TIP3   OH226136   4.514   5.316   6.508
 8732TIP3    H126137   4.604   5.283   6.507
 8732TIP3    H226138   4.507   5.366   6.589
 8733TIP3   OH226139   2.706   3.663   0.487
 8733TIP3    H126140   2.664   3.749   0.493
 8733TIP3    H226141   2.644   3.609   0.438
 8734TIP3   OH226142   8.026   3.036   0.311
 8734TIP3    H126143   8.012   3.017   0.404
 8734TIP3    H226144   8.080   2.963   0.279
 8735TIP3   OH226145   3.766   1.905   0.402
 8735TIP3    H126146   3.841   1.963   0.415
 8735TIP3    H226147   3.800   1.817   0.420
 8736TIP3   OH226148   4.111   1.033   2.437
 8736TIP3    H126149   4.083   0.944   2.457
 8736TIP3    H226150   4.065   1.088   2.501
 8737TIP3   OH226151   1.273   6.369   5.407
 8737TIP3    H126152   1.332   6.299   5.434
 8737TIP3    H226153   1.266   6.359   5.312
 8738TIP3   OH226154   4.721   4.753   4.440
 8738TIP3    H126155   4.767   4.740   4.357
 8738TIP3    H226156   4.635   4.712   4.426
 8739TIP3   OH226157   2.619   1.247   0.808
 8739TIP3    H126158   2.646   1.160   0.777
 8739TIP3    H226159   2.676   1.264   0.883
 8740TIP3   OH226160   7.372   5.508   3.306
 8740TIP3    H126161   7.335   5.500   3.218
 8740TIP3    H226162   7.342   5.594   3.337
 8741TIP3   OH226163   5.735   2.791   0.559
 8741TIP3    H126164   5.743   2.833   0.474
 8741TIP3    H226165   5.820   2.750   0.573
 8742TIP3   OH226166   5.981   6.602   0.167
 8742TIP3    H126167   6.022   6.688   0.154
 8742TIP3    H226168   5.940   6.608   0.253
 8743TIP3   OH226169   5.578   1.482   3.448
 8743TIP3    H126170   5.529   1.473   3.530
 8743TIP3    H226171   5.627   1.400   3.441
 8744TIP3   OH226172   4.869   0.609   1.925
 8744TIP3    H126173   4.845   0.690   1.882
 8744TIP3    H226174   4.804   0.545   1.895
 8745TIP3   OH226175   7.105   6.386   5.673
 8745TIP3    H126176   7.043   6.459   5.680
 8745TIP3    H226177   7.144   6.395   5.587
 8746TIP3   OH226178   0.324   0.105   1.862
 8746TIP3    H126179   0.315   0.104   1.767
 8746TIP3    H226180   0.391   0.172   1.879
 8747TIP3   OH226181   3.177   5.881   3.323
 8747TIP3    H126182   3.207   5.963   3.286
 8747TIP3    H226183   3.085   5.896   3.344
 8748TIP3   OH226184   8.367   1.170   2.573
 8748TIP3    H126185   8.460   1.162   2.553
 8748TIP3    H226186   8.326   1.095   2.531
 8749TIP3   OH226187   5.199   4.285   6.480
 8749TIP3    H126188   5.228   4.193   6.480
 8749TIP3    H226189   5.150   4.294   6.562
 8750TIP3   OH226190   4.932   6.353   0.272
 8750TIP3    H126191   4.925   6.358   0.367
 8750TIP3    H226192   5.026   6.362   0.255
 8751TIP3   OH226193   5.611   1.199   1.461
 8751TIP3    H126194   5.666   1.171   1.535
 8751TIP3    H226195   5.583   1.117   1.420
 8752TIP3   OH226196   5.652   0.665   1.187
 8752TIP3    H126197   5.730   0.660   1.133
 8752TIP3    H226198   5.685   0.661   1.277
 8753TIP3   OH226199   5.365   3.060   1.263
 8753TIP3    H126200   5.353   3.116   1.187
 8753TIP3    H226201   5.316   2.980   1.243
 8754TIP3   OH226202   5.502   3.583   4.547
 8754TIP3    H126203   5.540   3.603   4.632
 8754TIP3    H226204   5.509   3.488   4.540
 8755TIP3   OH226205   3.186   6.067   1.359
 8755TIP3    H126206   3.162   6.024   1.277
 8755TIP3    H226207   3.192   5.997   1.423
 8756TIP3   OH226208   1.667   2.974   3.690
 8756TIP3    H126209   1.760   2.995   3.686
 8756TIP3    H226210   1.661   2.885   3.655
 8757TIP3   OH226211   7.863   5.976   1.871
 8757TIP3    H126212   7.943   5.935   1.839
 8757TIP3    H226213   7.891   6.026   1.948
 8758TIP3   OH226214   7.424   1.919   4.107
 8758TIP3    H126215   7.438   2.004   4.065
 8758TIP3    H226216   7.477   1.923   4.187
 8759TIP3   OH226217   6.578   2.754   2.205
 8759TIP3    H126218   6.514   2.749   2.134
 8759TIP3    H226219   6.526   2.749   2.285
 8760TIP3   OH226220   5.965   6.406   5.632
 8760TIP3    H126221   6.038   6.367   5.585
 8760TIP3    H226222   5.993   6.404   5.724
 8761TIP3   OH226223   3.419   2.915   5.342
 8761TIP3    H126224   3.345   2.876   5.295
 8761TIP3    H226225   3.452   2.981   5.282
 8762TIP3   OH226226   7.196   4.174   1.062
 8762TIP3    H126227   7.133   4.160   1.133
 8762TIP3    H226228   7.281   4.175   1.105
 8763TIP3   OH226229   6.160   0.658   4.363
 8763TIP3    H126230   6.193   0.668   4.452
 8763TIP3    H226231   6.080   0.710   4.361
 8764TIP3   OH226232   0.503   5.563   5.267
 8764TIP3    H126233   0.522   5.498   5.200
 8764TIP3    H226234   0.576   5.624   5.265
 8765TIP3   OH226235   7.298   1.248   5.202
 8765TIP3    H126236   7.249   1.328   5.223
 8765TIP3    H226237   7.383   1.261   5.242
 8766TIP3   OH226238   7.798   3.371   5.630
 8766TIP3    H126239   7.892   3.386   5.635
 8766TIP3    H226240   7.769   3.424   5.556
 8767TIP3   OH226241   1.574   0.782   2.296
 8767TIP3    H126242   1.565   0.875   2.280
 8767TIP3    H226243   1.625   0.776   2.377
 8768TIP3   OH226244   2.328   0.133   3.130
 8768TIP3    H126245   2.384   0.125   3.053
 8768TIP3    H226246   2.273   0.210   3.111
 8769TIP3   OH226247   5.194   1.488   6.712
 8769TIP3    H126248   5.254   1.496   6.637
 8769TIP3    H226249   5.146   1.570   6.714
 8770TIP3   OH226250   5.713   1.197   5.673
 8770TIP3    H126251   5.801   1.233   5.687
 8770TIP3    H226252   5.685   1.167   5.760
 8771TIP3   OH226253   6.918   5.992   4.287
 8771TIP3    H126254   6.979   6.009   4.216
 8771TIP3    H226255   6.935   6.061   4.351
 8772TIP3   OH226256   4.376   4.922   5.030
 8772TIP3    H126257   4.352   4.889   4.943
 8772TIP3    H226258   4.332   4.863   5.091
 8773TIP3   OH226259   2.744   7.326   2.391
 8773TIP3    H126260   2.674   7.271   2.425
 8773TIP3    H226261   2.798   7.347   2.467
 8774TIP3   OH226262   0.509   6.886   4.680
 8774TIP3    H126263   0.481   6.803   4.641
 8774TIP3    H226264   0.599   6.868   4.709
 8775TIP3   OH226265   2.230   3.949   2.698
 8775TIP3    H126266   2.320   3.981   2.693
 8775TIP3    H226267   2.183   4.016   2.746
 8776TIP3   OH226268   0.391   1.852   2.505
 8776TIP3    H126269   0.461   1.804   2.461
 8776TIP3    H226270   0.436   1.903   2.573
 8777TIP3   OH226271   3.994   2.904   2.195
 8777TIP3    H126272   4.054   2.927   2.124
 8777TIP3    H226273   4.004   2.975   2.259
 8778TIP3   OH226274   0.555   5.339   3.490
 8778TIP3    H126275   0.600   5.413   3.532
 8778TIP3    H226276   0.478   5.324   3.545
 8779TIP3   OH226277   0.922   2.409   4.028
 8779TIP3    H126278   0.922   2.328   4.080
 8779TIP3    H226279   0.989   2.463   4.068
 8780TIP3   OH226280   2.371   6.360   1.381
 8780TIP3    H126281   2.304   6.315   1.330
 8780TIP3    H226282   2.452   6.344   1.333
 8781TIP3   OH226283   0.611   6.525   1.814
 8781TIP3    H126284   0.703   6.552   1.809
 8781TIP3    H226285   0.613   6.430   1.805
 8782TIP3   OH226286   2.665   2.662   0.372
 8782TIP3    H126287   2.611   2.615   0.308
 8782TIP3    H226288   2.606   2.677   0.446
 8783TIP3   OH226289   5.626   4.924   5.158
 8783TIP3    H126290   5.624   4.828   5.159
 8783TIP3    H226291   5.680   4.947   5.082
 8784TIP3   OH226292   4.418   1.706   3.876
 8784TIP3    H126293   4.446   1.687   3.965
 8784TIP3    H226294   4.471   1.781   3.850
 8785TIP3   OH226295   3.831   5.066   0.863
 8785TIP3    H126296   3.816   5.089   0.954
 8785TIP3    H226297   3.858   4.974   0.866
 8786TIP3   OH226298   8.211   1.910   3.112
 8786TIP3    H126299   8.200   2.005   3.113
 8786TIP3    H226300   8.128   1.876   3.146
 8787TIP3   OH226301   0.942   5.016   5.022
 8787TIP3    H126302   0.911   5.045   5.108
 8787TIP3    H226303   0.986   4.933   5.039
 8788TIP3   OH226304   6.557   2.014   3.414
 8788TIP3    H126305   6.645   1.979   3.396
 8788TIP3    H226306   6.565   2.052   3.502
 8789TIP3   OH226307   2.241   7.625   1.657
 8789TIP3    H126308   2.327   7.624   1.615
 8789TIP3    H226309   2.190   7.687   1.605
 8790TIP3   OH226310   3.863   0.930   4.990
 8790TIP3    H126311   3.900   0.905   4.905
 8790TIP3    H226312   3.867   1.026   4.991
 8791TIP3   OH226313   8.314   2.302   6.356
 8791TIP3    H126314   8.299   2.396   6.350
 8791TIP3    H226315   8.226   2.264   6.349
 8792TIP3   OH226316   2.863   4.708   2.783
 8792TIP3    H126317   2.882   4.782   2.841
 8792TIP3    H226318   2.846   4.748   2.698
 8793TIP3   OH226319   3.056   5.270   1.500
 8793TIP3    H126320   3.104   5.201   1.455
 8793TIP3    H226321   2.976   5.282   1.448
 8794TIP3   OH226322   2.801   2.677   0.111
 8794TIP3    H126323   2.779   2.661   0.203
 8794TIP3    H226324   2.881   2.627   0.096
 8795TIP3   OH226325   0.610   0.944   6.722
 8795TIP3    H126326   0.604   0.868   6.779
 8795TIP3    H226327   0.560   0.919   6.644
 8796TIP3   OH226328   2.755   1.008   4.838
 8796TIP3    H126329   2.844   0.973   4.843
 8796TIP3    H226330   2.767   1.100   4.813
 8797TIP3   OH226331   1.456   2.984   0.553
 8797TIP3    H126332   1.469   3.049   0.622
 8797TIP3    H226333   1.469   2.900   0.597
 8798TIP3   OH226334   6.837   0.286   4.532
 8798TIP3    H126335   6.901   0.215   4.528
 8798TIP3    H226336   6.813   0.292   4.625
 8799TIP3   OH226337   2.776   6.339   2.416
 8799TIP3    H126338   2.731   6.385   2.487
 8799TIP3    H226339   2.722   6.262   2.398
 8800TIP3   OH226340   1.703   6.061   1.945
 8800TIP3    H126341   1.623   6.009   1.945
 8800TIP3    H226342   1.692   6.120   2.020
 8801TIP3   OH226343   4.008   6.839   2.943
 8801TIP3    H126344   4.019   6.744   2.942
 8801TIP3    H226345   4.052   6.867   3.023
 8802TIP3   OH226346   0.946   7.513   6.486
 8802TIP3    H126347   0.956   7.551   6.573
 8802TIP3    H226348   1.031   7.473   6.467
 8803TIP3   OH226349   1.952   2.385   2.399
 8803TIP3    H126350   1.888   2.344   2.341
 8803TIP3    H226351   2.033   2.385   2.349
 8804TIP3   OH226352   4.272   0.717   3.586
 8804TIP3    H126353   4.187   0.746   3.551
 8804TIP3    H226354   4.265   0.731   3.680
 8805TIP3   OH226355   1.809   2.374   5.619
 8805TIP3    H126356   1.797   2.318   5.543
 8805TIP3    H226357   1.902   2.364   5.641
 8806TIP3   OH226358   4.822   6.859   5.580
 8806TIP3    H126359   4.916   6.841   5.578
 8806TIP3    H226360   4.789   6.822   5.498
 8807TIP3   OH226361   1.287   1.687   1.414
 8807TIP3    H126362   1.236   1.754   1.460
 8807TIP3    H226363   1.265   1.698   1.322
 8808TIP3   OH226364   1.744   1.160   3.827
 8808TIP3    H126365   1.741   1.211   3.746
 8808TIP3    H226366   1.837   1.143   3.842
 8809TIP3   OH226367   6.389   2.556   1.758
 8809TIP3    H126368   6.479   2.589   1.754
 8809TIP3    H226369   6.398   2.461   1.752
 8810TIP3   OH226370   7.702   4.130   6.574
 8810TIP3    H126371   7.674   4.065   6.639
 8810TIP3    H226372   7.796   4.139   6.587
 8811TIP3   OH226373   7.046   7.107   4.246
 8811TIP3    H126374   7.015   7.157   4.322
 8811TIP3    H226375   6.978   7.041   4.232
 8812TIP3   OH226376   0.986   0.990   0.245
 8812TIP3    H126377   0.951   0.902   0.259
 8812TIP3    H226378   1.073   0.988   0.285
 8813TIP3   OH226379   4.906   7.480   2.448
 8813TIP3    H126380   4.857   7.427   2.510
 8813TIP3    H226381   4.840   7.533   2.404
 8814TIP3   OH226382   0.393   4.650   2.698
 8814TIP3    H126383   0.396   4.584   2.629
 8814TIP3    H226384   0.370   4.601   2.777
 8815TIP3   OH226385   1.651   7.210   3.674
 8815TIP3    H126386   1.725   7.154   3.692
 8815TIP3    H226387   1.679   7.265   3.601
 8816TIP3   OH226388   5.738   7.584   6.257
 8816TIP3    H126389   5.715   7.588   6.350
 8816TIP3    H226390   5.790   7.664   6.242
 8817TIP3   OH226391   2.975   6.812   4.448
 8817TIP3    H126392   3.032   6.737   4.468
 8817TIP3    H226393   2.965   6.810   4.353
 8818TIP3   OH226394   1.995   7.566   5.840
 8818TIP3    H126395   1.911   7.531   5.868
 8818TIP3    H226396   1.977   7.610   5.757
 8819TIP3   OH226397   4.015   6.424   1.244
 8819TIP3    H126398   4.011   6.408   1.150
 8819TIP3    H226399   4.076   6.359   1.277
 8820TIP3   OH226400   2.957   5.490   4.757
 8820TIP3    H126401   2.953   5.501   4.852
 8820TIP3    H226402   2.906   5.411   4.740
 8821TIP3   OH226403   4.342   5.755   5.952
 8821TIP3    H126404   4.424   5.705   5.959
 8821TIP3    H226405   4.334   5.773   5.858
 8822TIP3   OH226406   6.416   2.852   1.603
 8822TIP3    H126407   6.426   2.792   1.529
 8822TIP3    H226408   6.503   2.892   1.614
 8823TIP3   OH226409   6.815   7.065   0.783
 8823TIP3    H126410   6.901   7.087   0.818
 8823TIP3    H226411   6.834   7.003   0.712
 8824TIP3   OH226412   0.788   3.408   5.144
 8824TIP3    H126413   0.843   3.440   5.215
 8824TIP3    H226414   0.773   3.316   5.164
 8825TIP3   OH226415   8.039   2.850   5.255
 8825TIP3    H126416   8.013   2.882   5.168
 8825TIP3    H226417   7.960   2.859   5.309
 8826TIP3   OH226418   3.872   7.858   0.473
 8826TIP3    H126419   3.857   7.799   0.399
 8826TIP3    H226420   3.928   7.809   0.533
 8827TIP3   OH226421   6.765   5.554   6.739
 8827TIP3    H126422   6.856   5.572   6.715
 8827TIP3    H226423   6.745   5.615   6.810
 8828TIP3   OH226424   4.860   6.407   2.649
 8828TIP3    H126425   4.841   6.369   2.563
 8828TIP3    H226426   4.955   6.396   2.660
 8829TIP3   OH226427   0.387   2.046   4.406
 8829TIP3    H126428   0.311   2.001   4.444
 8829TIP3    H226429   0.366   2.139   4.413
 8830TIP3   OH226430   2.374   7.205   2.781
 8830TIP3    H126431   2.377   7.248   2.696
 8830TIP3    H226432   2.411   7.118   2.765
 8831TIP3   OH226433   6.897   1.133   4.276
 8831TIP3    H126434   6.836   1.157   4.207
 8831TIP3    H226435   6.924   1.044   4.254
 8832TIP3   OH226436   5.583   4.608   4.051
 8832TIP3    H126437   5.622   4.533   4.097
 8832TIP3    H226438   5.580   4.677   4.117
 8833TIP3   OH226439   0.099   5.029   5.101
 8833TIP3    H126440   0.136   5.043   5.014
 8833TIP3    H226441   0.005   5.022   5.087
 8834TIP3   OH226442   3.179   3.850   6.349
 8834TIP3    H126443   3.274   3.839   6.348
 8834TIP3    H226444   3.161   3.907   6.274
 8835TIP3   OH226445   4.316   6.285   1.999
 8835TIP3    H126446   4.234   6.329   2.022
 8835TIP3    H226447   4.370   6.354   1.962
 8836TIP3   OH226448   1.560   6.558   6.531
 8836TIP3    H126449   1.471   6.536   6.504
 8836TIP3    H226450   1.550   6.628   6.596
 8837TIP3   OH226451   6.192   7.878   3.028
 8837TIP3    H126452   6.129   7.948   3.041
 8837TIP3    H226453   6.272   7.909   3.069
 8838TIP3   OH226454   3.686   2.139   5.636
 8838TIP3    H126455   3.618   2.150   5.569
 8838TIP3    H226456   3.721   2.052   5.620
 8839TIP3   OH226457   5.186   1.000   4.898
 8839TIP3    H126458   5.214   1.047   4.819
 8839TIP3    H226459   5.267   0.987   4.948
 8840TIP3   OH226460   8.329   1.717   6.107
 8840TIP3    H126461   8.406   1.668   6.136
 8840TIP3    H226462   8.341   1.805   6.142
 8841TIP3   OH226463   2.322   5.279   0.379
 8841TIP3    H126464   2.323   5.277   0.475
 8841TIP3    H226465   2.385   5.348   0.356
 8842TIP3   OH226466   1.572   5.854   4.673
 8842TIP3    H126467   1.610   5.774   4.637
 8842TIP3    H226468   1.592   5.850   4.767
 8843TIP3   OH226469   8.119   5.688   6.116
 8843TIP3    H126470   8.129   5.758   6.052
 8843TIP3    H226471   8.084   5.731   6.194
 8844TIP3   OH226472   1.686   2.410   6.571
 8844TIP3    H126473   1.622   2.479   6.588
 8844TIP3    H226474   1.762   2.455   6.533
 8845TIP3   OH226475   0.967   1.614   0.632
 8845TIP3    H126476   0.880   1.643   0.602
 8845TIP3    H226477   0.967   1.520   0.614
 8846TIP3   OH226478   0.615   4.523   2.074
 8846TIP3    H126479   0.557   4.468   2.126
 8846TIP3    H226480   0.670   4.461   2.025
 8847TIP3   OH226481   5.829   0.166   4.436
 8847TIP3    H126482   5.814   0.106   4.510
 8847TIP3    H226483   5.759   0.146   4.375
 8848TIP3   OH226484   4.710   6.207   1.930
 8848TIP3    H126485   4.636   6.180   1.984
 8848TIP3    H226486   4.754   6.125   1.908
 8849TIP3   OH226487   1.918   7.890   5.321
 8849TIP3    H126488   1.903   7.984   5.310
 8849TIP3    H226489   1.831   7.851   5.320
 8850TIP3   OH226490   1.049   4.139   5.712
 8850TIP3    H126491   1.126   4.191   5.731
 8850TIP3    H226492   1.082   4.050   5.703
 8851TIP3   OH226493   8.127   7.526   5.774
 8851TIP3    H126494   8.155   7.533   5.683
 8851TIP3    H226495   8.053   7.588   5.781
 8852TIP3   OH226496   3.522   1.135   1.654
 8852TIP3    H126497   3.462   1.206   1.677
 8852TIP3    H226498   3.604   1.157   1.698
 8853TIP3   OH226499   5.773   7.460   4.131
 8853TIP3    H126500   5.820   7.496   4.206
 8853TIP3    H226501   5.782   7.526   4.062
 8854TIP3   OH226502   1.603   3.466   1.298
 8854TIP3    H126503   1.562   3.461   1.384
 8854TIP3    H226504   1.641   3.380   1.283
 8855TIP3   OH226505   7.323   7.111   1.267
 8855TIP3    H126506   7.274   7.192   1.278
 8855TIP3    H226507   7.258   7.047   1.239
 8856TIP3   OH226508   1.136   7.251   1.104
 8856TIP3    H126509   1.073   7.230   1.173
 8856TIP3    H226510   1.094   7.320   1.052
 8857TIP3   OH226511   0.107   1.636   6.319
 8857TIP3    H126512   0.024   1.632   6.367
 8857TIP3    H226513   0.161   1.569   6.359
 8858TIP3   OH226514   4.850   6.949   1.193
 8858TIP3    H126515   4.766   6.985   1.165
 8858TIP3    H226516   4.868   6.878   1.130
 8859TIP3   OH226517   8.236   1.174   2.251
 8859TIP3    H126518   8.315   1.120   2.253
 8859TIP3    H226519   8.180   1.135   2.319
 8860TIP3   OH226520   7.415   2.551   1.571
 8860TIP3    H126521   7.416   2.623   1.634
 8860TIP3    H226522   7.461   2.480   1.615
 8861TIP3   OH226523   4.723   3.969   6.568
 8861TIP3    H126524   4.733   4.059   6.598
 8861TIP3    H226525   4.784   3.919   6.622
 8862TIP3   OH226526   4.689   5.524   2.035
 8862TIP3    H126527   4.645   5.446   2.001
 8862TIP3    H226528   4.779   5.515   2.003
 8863TIP3   OH226529   2.269   4.844   5.234
 8863TIP3    H126530   2.275   4.899   5.312
 8863TIP3    H226531   2.355   4.851   5.194
 8864TIP3   OH226532   2.856   3.314   5.534
 8864TIP3    H126533   2.820   3.234   5.573
 8864TIP3    H226534   2.951   3.301   5.534
 8865TIP3   OH226535   7.842   6.302   6.244
 8865TIP3    H126536   7.864   6.292   6.337
 8865TIP3    H226537   7.749   6.282   6.239
 8866TIP3   OH226538   0.613   1.528   5.050
 8866TIP3    H126539   0.535   1.480   5.079
 8866TIP3    H226540   0.685   1.491   5.102
 8867TIP3   OH226541   5.186   4.142   6.773
 8867TIP3    H126542   5.109   4.186   6.809
 8867TIP3    H226543   5.181   4.053   6.807
 8868TIP3   OH226544   7.729   2.041   3.974
 8868TIP3    H126545   7.774   1.986   4.039
 8868TIP3    H226546   7.648   2.068   4.017
 8869TIP3   OH226547   1.730   4.348   3.774
 8869TIP3    H126548   1.678   4.271   3.795
 8869TIP3    H226549   1.680   4.421   3.812
 8870TIP3   OH226550   8.332   0.226   5.949
 8870TIP3    H126551   8.418   0.199   5.918
 8870TIP3    H226552   8.296   0.148   5.991
 8871TIP3   OH226553   2.067   2.145   2.822
 8871TIP3    H126554   2.157   2.112   2.828
 8871TIP3    H226555   2.063   2.186   2.735
 8872TIP3   OH226556   1.102   6.033   4.196
 8872TIP3    H126557   1.060   5.994   4.120
 8872TIP3    H226558   1.179   5.978   4.213
 8873TIP3   OH226559   2.364   1.277   0.890
 8873TIP3    H126560   2.317   1.207   0.844
 8873TIP3    H226561   2.453   1.274   0.855
 8874TIP3   OH226562   1.658   6.236   6.276
 8874TIP3    H126563   1.723   6.184   6.325
 8874TIP3    H226564   1.586   6.175   6.261
 8875TIP3   OH226565   3.915   1.449   2.214
 8875TIP3    H126566   4.001   1.431   2.177
 8875TIP3    H226567   3.880   1.362   2.236
 8876TIP3   OH226568   4.135   7.901   3.256
 8876TIP3    H126569   4.139   7.848   3.177
 8876TIP3    H226570   4.192   7.856   3.319
 8877TIP3   OH226571   0.015   0.024   4.604
 8877TIP3    H126572   0.051   0.015   4.515
 8877TIP3    H226573  -0.062  -0.033   4.604
 8878TIP3   OH226574   0.251   5.545   4.063
 8878TIP3    H126575   0.249   5.536   3.968
 8878TIP3    H226576   0.285   5.634   4.078
 8879TIP3   OH226577   5.171   1.978   2.102
 8879TIP3    H126578   5.137   1.899   2.144
 8879TIP3    H226579   5.260   1.954   2.075
 8880TIP3   OH226580   0.078   0.008   4.322
 8880TIP3    H126581   0.089   0.086   4.267
 8880TIP3    H226582   0.021  -0.050   4.271
 8881TIP3   OH226583   5.560   0.409   0.501
 8881TIP3    H126584   5.526   0.433   0.588
 8881TIP3    H226585   5.508   0.333   0.475
 8882TIP3   OH226586   0.517   2.856   4.815
 8882TIP3    H126587   0.473   2.811   4.887
 8882TIP3    H226588   0.535   2.786   4.751
 8883TIP3   OH226589   5.596   2.146   0.380
 8883TIP3    H126590   5.624   2.234   0.354
 8883TIP3    H226591   5.580   2.100   0.298
 8884TIP3   OH226592   2.203   4.376   5.140
 8884TIP3    H126593   2.193   4.282   5.156
 8884TIP3    H226594   2.195   4.385   5.046
 8885TIP3   OH226595   6.700   4.825   3.725
 8885TIP3    H126596   6.609   4.847   3.745
 8885TIP3    H226597   6.693   4.761   3.653
 8886TIP3   OH226598   8.358   2.600   3.407
 8886TIP3    H126599   8.351   2.675   3.466
 8886TIP3    H226600   8.269   2.585   3.377
 8887TIP3   OH226601   1.891   5.026   5.479
 8887TIP3    H126602   1.928   5.070   5.556
 8887TIP3    H226603   1.947   5.053   5.407
 8888TIP3   OH226604   3.739   7.560   0.644
 8888TIP3    H126605   3.670   7.593   0.702
 8888TIP3    H226606   3.803   7.521   0.703
 8889TIP3   OH226607   8.177   2.210   1.597
 8889TIP3    H126608   8.101   2.162   1.565
 8889TIP3    H226609   8.250   2.149   1.584
 8890TIP3   OH226610   3.615   4.184   6.457
 8890TIP3    H126611   3.699   4.172   6.501
 8890TIP3    H226612   3.636   4.183   6.363
 8891TIP3   OH226613   8.351   6.473   2.353
 8891TIP3    H126614   8.293   6.397   2.354
 8891TIP3    H226615   8.438   6.436   2.367
 8892TIP3   OH226616   7.082   6.376   0.095
 8892TIP3    H126617   7.148   6.310   0.073
 8892TIP3    H226618   7.075   6.430   0.016
 8893TIP3   OH226619   4.484   0.760   2.626
 8893TIP3    H126620   4.515   0.819   2.557
 8893TIP3    H226621   4.514   0.800   2.707
 8894TIP3   OH226622   5.530   4.671   4.555
 8894TIP3    H126623   5.588   4.657   4.481
 8894TIP3    H226624   5.533   4.766   4.570
 8895TIP3   OH226625   3.338   7.014   2.581
 8895TIP3    H126626   3.319   7.108   2.586
 8895TIP3    H226627   3.336   6.994   2.488
 8896TIP3   OH226628   5.092   7.114   3.280
 8896TIP3    H126629   5.168   7.154   3.239
 8896TIP3    H226630   5.125   7.034   3.322
 8897TIP3   OH226631   0.218   7.168   3.524
 8897TIP3    H126632   0.199   7.209   3.608
 8897TIP3    H226633   0.249   7.240   3.468
 8898TIP3   OH226634   1.457   6.385   2.205
 8898TIP3    H126635   1.400   6.316   2.172
 8898TIP3    H226636   1.544   6.347   2.206
 8899TIP3   OH226637   7.442   3.171   4.095
 8899TIP3    H126638   7.518   3.134   4.052
 8899TIP3    H226639   7.464   3.171   4.188
 8900TIP3   OH226640   4.961   5.147   3.821
 8900TIP3    H126641   4.998   5.205   3.754
 8900TIP3    H226642   5.031   5.086   3.842
 8901TIP3   OH226643   6.279   4.692   6.510
 8901TIP3    H126644   6.249   4.750   6.441
 8901TIP3    H226645   6.370   4.719   6.526
 8902TIP3   OH226646   7.500   2.817   2.379
 8902TIP3    H126647   7.493   2.907   2.410
 8902TIP3    H226648   7.549   2.771   2.447
 8903TIP3   OH226649   4.846   6.979   5.207
 8903TIP3    H126650   4.880   7.009   5.292
 8903TIP3    H226651   4.917   6.998   5.145
 8904TIP3   OH226652   4.612   0.921   2.819
 8904TIP3    H126653   4.682   0.982   2.842
 8904TIP3    H226654   4.539   0.946   2.875
 8905TIP3   OH226655   4.526   5.409   4.608
 8905TIP3    H126656   4.463   5.368   4.548
 8905TIP3    H226657   4.472   5.461   4.668
 8906TIP3   OH226658   6.699   4.664   5.342
 8906TIP3    H126659   6.665   4.605   5.409
 8906TIP3    H226660   6.782   4.625   5.316
 8907TIP3   OH226661   1.666   1.875   4.423
 8907TIP3    H126662   1.729   1.806   4.444
 8907TIP3    H226663   1.713   1.956   4.439
 8908TIP3   OH226664   5.057   6.643   3.424
 8908TIP3    H126665   5.056   6.572   3.359
 8908TIP3    H226666   5.069   6.598   3.508
 8909TIP3   OH226667   2.165   4.347   3.315
 8909TIP3    H126668   2.076   4.317   3.333
 8909TIP3    H226669   2.194   4.388   3.396
 8910TIP3   OH226670   7.162   5.740   0.374
 8910TIP3    H126671   7.152   5.814   0.313
 8910TIP3    H226672   7.241   5.695   0.344
 8911TIP3   OH226673   3.557   4.438   6.369
 8911TIP3    H126674   3.607   4.511   6.406
 8911TIP3    H226675   3.522   4.392   6.445
 8912TIP3   OH226676   8.029   1.211   6.718
 8912TIP3    H126677   8.003   1.123   6.744
 8912TIP3    H226678   7.947   1.260   6.714
 8913TIP3   OH226679   8.335   5.666   6.417
 8913TIP3    H126680   8.298   5.622   6.494
 8913TIP3    H226681   8.424   5.630   6.410
 8914TIP3   OH226682   3.584   6.579   0.722
 8914TIP3    H126683   3.533   6.571   0.642
 8914TIP3    H226684   3.527   6.625   0.783
 8915TIP3   OH226685   5.856   3.552   0.352
 8915TIP3    H126686   5.834   3.645   0.362
 8915TIP3    H226687   5.780   3.505   0.386
 8916TIP3   OH226688   1.630   1.341   3.088
 8916TIP3    H126689   1.553   1.365   3.036
 8916TIP3    H226690   1.693   1.411   3.071
 8917TIP3   OH226691   3.456   2.523   4.333
 8917TIP3    H126692   3.446   2.433   4.364
 8917TIP3    H226693   3.548   2.530   4.307
 8918TIP3   OH226694   6.481   6.379   2.074
 8918TIP3    H126695   6.552   6.316   2.085
 8918TIP3    H226696   6.412   6.348   2.132
 8919TIP3   OH226697   2.645   5.371   0.644
 8919TIP3    H126698   2.740   5.363   0.645
 8919TIP3    H226699   2.625   5.403   0.556
 8920TIP3   OH226700   7.964   1.534   6.344
 8920TIP3    H126701   8.024   1.510   6.414
 8920TIP3    H226702   7.881   1.493   6.369
 8921TIP3   OH226703   4.360   3.648   0.625
 8921TIP3    H126704   4.407   3.596   0.560
 8921TIP3    H226705   4.401   3.734   0.622
 8922TIP3   OH226706   4.342   7.396   5.828
 8922TIP3    H126707   4.409   7.433   5.885
 8922TIP3    H226708   4.345   7.302   5.844
 8923TIP3   OH226709   6.267   5.567   4.459
 8923TIP3    H126710   6.211   5.609   4.393
 8923TIP3    H226711   6.208   5.545   4.531
 8924TIP3   OH226712   4.233   2.750   1.166
 8924TIP3    H126713   4.167   2.805   1.209
 8924TIP3    H226714   4.307   2.748   1.228
 8925TIP3   OH226715   5.000   6.999   3.628
 8925TIP3    H126716   5.047   6.930   3.674
 8925TIP3    H226717   4.930   6.953   3.580
 8926TIP3   OH226718   0.967   3.521   1.829
 8926TIP3    H126719   0.916   3.600   1.847
 8926TIP3    H226720   0.942   3.495   1.740
 8927TIP3   OH226721   2.523   2.566   6.025
 8927TIP3    H126722   2.580   2.606   5.960
 8927TIP3    H226723   2.452   2.527   5.974
 8928TIP3   OH226724   6.611   2.540   3.087
 8928TIP3    H126725   6.540   2.571   3.142
 8928TIP3    H226726   6.576   2.543   2.998
 8929TIP3   OH226727   3.099   3.653   6.813
 8929TIP3    H126728   3.168   3.657   6.746
 8929TIP3    H226729   3.019   3.636   6.764
 8930TIP3   OH226730   1.484   4.602   6.063
 8930TIP3    H126731   1.530   4.518   6.060
 8930TIP3    H226732   1.462   4.621   5.972
 8931TIP3   OH226733   7.047   0.290   0.741
 8931TIP3    H126734   7.050   0.198   0.715
 8931TIP3    H226735   7.049   0.288   0.837
 8932TIP3   OH226736   5.012   6.583   5.224
 8932TIP3    H126737   4.930   6.537   5.239
 8932TIP3    H226738   5.077   6.533   5.273
 8933TIP3   OH226739   4.366   0.593   6.224
 8933TIP3    H126740   4.396   0.684   6.222
 8933TIP3    H226741   4.423   0.551   6.288
 8934TIP3   OH226742   2.231   2.442   3.366
 8934TIP3    H126743   2.278   2.366   3.333
 8934TIP3    H226744   2.144   2.436   3.326
 8935TIP3   OH226745   0.991   0.854   2.117
 8935TIP3    H126746   1.025   0.898   2.194
 8935TIP3    H226747   0.957   0.771   2.149
 8936TIP3   OH226748   1.738   0.806   6.757
 8936TIP3    H126749   1.742   0.815   6.662
 8936TIP3    H226750   1.829   0.792   6.784
 8937TIP3   OH226751   6.830   0.245   3.199
 8937TIP3    H126752   6.803   0.258   3.108
 8937TIP3    H226753   6.886   0.167   3.195
 8938TIP3   OH226754   0.993   7.469   3.921
 8938TIP3    H126755   1.060   7.421   3.970
 8938TIP3    H226756   0.969   7.411   3.849
 8939TIP3   OH226757   8.105   2.566   3.788
 8939TIP3    H126758   8.096   2.477   3.756
 8939TIP3    H226759   8.185   2.599   3.747
 8940TIP3   OH226760   2.646   7.276   2.935
 8940TIP3    H126761   2.635   7.220   2.858
 8940TIP3    H226762   2.573   7.338   2.930
 8941TIP3   OH226763   5.565   1.640   0.339
 8941TIP3    H126764   5.604   1.713   0.290
 8941TIP3    H226765   5.609   1.562   0.306
 8942TIP3   OH226766   5.850   5.692   4.941
 8942TIP3    H126767   5.918   5.625   4.950
 8942TIP3    H226768   5.771   5.652   4.978
 8943TIP3   OH226769   2.164   6.788   1.671
 8943TIP3    H126770   2.146   6.881   1.683
 8943TIP3    H226771   2.194   6.757   1.756
 8944TIP3   OH226772   6.974   5.753   6.809
 8944TIP3    H126773   6.982   5.741   6.904
 8944TIP3    H226774   6.893   5.803   6.799
 8945TIP3   OH226775   6.747   2.417   2.086
 8945TIP3    H126776   6.659   2.383   2.071
 8945TIP3    H226777   6.752   2.432   2.180
 8946TIP3   OH226778   0.456   7.077   4.481
 8946TIP3    H126779   0.452   7.012   4.551
 8946TIP3    H226780   0.462   7.161   4.527
 8947TIP3   OH226781   2.814   4.738   6.291
 8947TIP3    H126782   2.835   4.655   6.247
 8947TIP3    H226783   2.726   4.760   6.260
 8948TIP3   OH226784   0.052   3.684   4.962
 8948TIP3    H126785   0.000   3.618   4.917
 8948TIP3    H226786  -0.010   3.731   5.018
 8949TIP3   OH226787   2.508   2.161   2.760
 8949TIP3    H126788   2.560   2.171   2.680
 8949TIP3    H226789   2.506   2.249   2.798
 8950TIP3   OH226790   6.286   3.019   4.663
 8950TIP3    H126791   6.291   3.068   4.582
 8950TIP3    H226792   6.233   3.074   4.721
 8951TIP3   OH226793   1.581   7.726   1.764
 8951TIP3    H126794   1.526   7.752   1.837
 8951TIP3    H226795   1.569   7.631   1.757
 8952TIP3   OH226796   5.369   6.173   6.372
 8952TIP3    H126797   5.461   6.200   6.362
 8952TIP3    H226798   5.334   6.174   6.283
 8953TIP3   OH226799   4.755   6.394   2.159
 8953TIP3    H126800   4.683   6.353   2.110
 8953TIP3    H226801   4.734   6.487   2.160
 8954TIP3   OH226802   5.424   6.269   0.758
 8954TIP3    H126803   5.504   6.243   0.712
 8954TIP3    H226804   5.390   6.188   0.795
 8955TIP3   OH226805   4.955   2.509   6.015
 8955TIP3    H126806   4.865   2.483   5.994
 8955TIP3    H226807   5.000   2.426   6.032
 8956TIP3   OH226808   0.597   7.736   1.670
 8956TIP3    H126809   0.548   7.698   1.744
 8956TIP3    H226810   0.531   7.749   1.602
 8957TIP3   OH226811   2.465   6.091   5.676
 8957TIP3    H126812   2.515   6.173   5.678
 8957TIP3    H226813   2.417   6.095   5.593
 8958TIP3   OH226814   3.907   3.182   1.552
 8958TIP3    H126815   3.851   3.219   1.484
 8958TIP3    H226816   3.851   3.173   1.629
 8959TIP3   OH226817   3.826   7.489   1.204
 8959TIP3    H126818   3.739   7.527   1.219
 8959TIP3    H226819   3.859   7.471   1.292
 8960TIP3   OH226820   5.615   0.343   3.932
 8960TIP3    H126821   5.633   0.325   4.024
 8960TIP3    H226822   5.659   0.273   3.885
 8961TIP3   OH226823   8.111   6.065   5.810
 8961TIP3    H126824   8.168   6.140   5.791
 8961TIP3    H226825   8.035   6.077   5.753
 8962TIP3   OH226826   5.923   7.877   0.798
 8962TIP3    H126827   5.847   7.908   0.848
 8962TIP3    H226828   5.993   7.868   0.863
 8963TIP3   OH226829   7.024   7.693   1.030
 8963TIP3    H126830   6.977   7.616   0.999
 8963TIP3    H226831   7.025   7.753   0.955
 8964TIP3   OH226832   5.628   2.196   0.764
 8964TIP3    H126833   5.566   2.254   0.720
 8964TIP3    H226834   5.647   2.128   0.700
 8965TIP3   OH226835   0.816   5.650   0.263
 8965TIP3    H126836   0.801   5.700   0.182
 8965TIP3    H226837   0.753   5.578   0.258
 8966TIP3   OH226838   8.400   5.199   3.836
 8966TIP3    H126839   8.356   5.283   3.849
 8966TIP3    H226840   8.407   5.190   3.741
 8967TIP3   OH226841   2.548   7.167   0.196
 8967TIP3    H126842   2.461   7.189   0.164
 8967TIP3    H226843   2.607   7.221   0.143
 8968TIP3   OH226844   0.566   4.147   2.863
 8968TIP3    H126845   0.535   4.074   2.810
 8968TIP3    H226846   0.503   4.152   2.935
 8969TIP3   OH226847   1.508   2.221   1.539
 8969TIP3    H126848   1.498   2.282   1.466
 8969TIP3    H226849   1.483   2.136   1.503
 8970TIP3   OH226850   4.204   1.707   6.477
 8970TIP3    H126851   4.250   1.786   6.504
 8970TIP3    H226852   4.118   1.737   6.448
 8971TIP3   OH226853   7.234   0.270   0.226
 8971TIP3    H126854   7.150   0.307   0.251
 8971TIP3    H226855   7.278   0.340   0.178
 8972TIP3   OH226856   4.262   6.691   4.155
 8972TIP3    H126857   4.305   6.621   4.106
 8972TIP3    H226858   4.300   6.686   4.243
 8973TIP3   OH226859   2.115   2.351   4.080
 8973TIP3    H126860   2.146   2.278   4.026
 8973TIP3    H226861   2.168   2.426   4.053
 8974TIP3   OH226862   3.206   6.022   5.798
 8974TIP3    H126863   3.170   6.067   5.722
 8974TIP3    H226864   3.299   6.047   5.799
 8975TIP3   OH226865   1.080   0.770  -0.034
 8975TIP3    H126866   1.082   0.863  -0.013
 8975TIP3    H226867   1.079   0.725   0.050
 8976TIP3   OH226868   0.377   1.694   0.997
 8976TIP3    H126869   0.285   1.692   0.973
 8976TIP3    H226870   0.421   1.736   0.923
 8977TIP3   OH226871   3.021   1.463   2.858
 8977TIP3    H126872   3.059   1.527   2.919
 8977TIP3    H226873   2.956   1.416   2.910
 8978TIP3   OH226874   1.421   4.844   1.556
 8978TIP3    H126875   1.432   4.937   1.575
 8978TIP3    H226876   1.501   4.819   1.510
 8979TIP3   OH226877   6.403   4.940   2.468
 8979TIP3    H126878   6.414   4.845   2.473
 8979TIP3    H226879   6.338   4.960   2.536
 8980TIP3   OH226880   7.859   2.600   5.578
 8980TIP3    H126881   7.892   2.661   5.645
 8980TIP3    H226882   7.765   2.597   5.593
 8981TIP3   OH226883   0.488   2.945   2.820
 8981TIP3    H126884   0.450   2.882   2.880
 8981TIP3    H226885   0.413   2.994   2.786
 8982TIP3   OH226886   3.166   5.967   4.987
 8982TIP3    H126887   3.151   6.057   4.956
 8982TIP3    H226888   3.141   5.912   4.913
 8983TIP3   OH226889   8.367   3.534   2.917
 8983TIP3    H126890   8.348   3.440   2.926
 8983TIP3    H226891   8.284   3.577   2.939
 8984TIP3   OH226892   0.747   5.759   1.311
 8984TIP3    H126893   0.811   5.711   1.259
 8984TIP3    H226894   0.670   5.765   1.254
 8985TIP3   OH226895   1.809   0.656   4.908
 8985TIP3    H126896   1.726   0.688   4.945
 8985TIP3    H226897   1.872   0.726   4.927
 8986TIP3   OH226898   7.996   4.147   6.235
 8986TIP3    H126899   7.955   4.202   6.301
 8986TIP3    H226900   8.015   4.206   6.163
 8987TIP3   OH226901   4.466   7.862   1.989
 8987TIP3    H126902   4.514   7.923   1.933
 8987TIP3    H226903   4.533   7.824   2.046
 8988TIP3   OH226904   4.754   1.264   3.589
 8988TIP3    H126905   4.824   1.317   3.551
 8988TIP3    H226906   4.800   1.189   3.627
 8989TIP3   OH226907   1.274   2.280   4.023
 8989TIP3    H126908   1.248   2.368   4.050
 8989TIP3    H226909   1.263   2.226   4.101
 8990TIP3   OH226910   6.299   3.729   6.042
 8990TIP3    H126911   6.357   3.794   6.081
 8990TIP3    H226912   6.283   3.666   6.112
 8991TIP3   OH226913   1.954   2.275   5.283
 8991TIP3    H126914   1.942   2.366   5.258
 8991TIP3    H226915   1.960   2.227   5.201
 8992TIP3   OH226916   6.747   1.659   4.139
 8992TIP3    H126917   6.829   1.620   4.171
 8992TIP3    H226918   6.679   1.595   4.162
 8993TIP3   OH226919   5.813   1.444   1.586
 8993TIP3    H126920   5.878   1.480   1.526
 8993TIP3    H226921   5.729   1.465   1.545
 8994TIP3   OH226922   7.258   2.469   3.061
 8994TIP3    H126923   7.244   2.425   2.977
 8994TIP3    H226924   7.352   2.461   3.077
 8995TIP3   OH226925   1.241   0.150   0.485
 8995TIP3    H126926   1.232   0.055   0.479
 8995TIP3    H226927   1.283   0.165   0.569
 8996TIP3   OH226928   1.846   0.772   3.523
 8996TIP3    H126929   1.811   0.757   3.611
 8996TIP3    H226930   1.893   0.691   3.502
 8997TIP3   OH226931   5.978   3.024   4.747
 8997TIP3    H126932   5.884   3.034   4.764
 8997TIP3    H226933   5.981   2.963   4.673
 8998TIP3   OH226934   2.784   7.667   5.750
 8998TIP3    H126935   2.764   7.689   5.841
 8998TIP3    H226936   2.711   7.704   5.700
 8999TIP3   OH226937   2.719   2.650   6.428
 8999TIP3    H126938   2.779   2.702   6.481
 8999TIP3    H226939   2.774   2.583   6.388
 9000TIP3   OH226940   5.554   6.021   2.608
 9000TIP3    H126941   5.619   6.036   2.676
 9000TIP3    H226942   5.546   6.106   2.563
 9001TIP3   OH226943   5.808   7.184   4.057
 9001TIP3    H126944   5.721   7.157   4.087
 9001TIP3    H226945   5.801   7.278   4.044
 9002TIP3   OH226946   2.713   5.614   1.245
 9002TIP3    H126947   2.724   5.653   1.332
 9002TIP3    H226948   2.625   5.641   1.218
 9003TIP3   OH226949   7.313   7.281   4.579
 9003TIP3    H126950   7.235   7.332   4.555
 9003TIP3    H226951   7.278   7.201   4.618
 9004TIP3   OH226952   0.722   3.017   6.012
 9004TIP3    H126953   0.632   3.023   6.045
 9004TIP3    H226954   0.775   2.996   6.089
 9005TIP3   OH226955   7.792   1.919   5.587
 9005TIP3    H126956   7.770   1.829   5.608
 9005TIP3    H226957   7.888   1.920   5.584
 9006TIP3   OH226958   6.371   6.660   0.675
 9006TIP3    H126959   6.421   6.706   0.608
 9006TIP3    H226960   6.286   6.705   0.677
 9007TIP3   OH226961   1.726   1.785   6.682
 9007TIP3    H126962   1.672   1.853   6.722
 9007TIP3    H226963   1.715   1.796   6.588
 9008TIP3   OH226964   4.157   4.008   3.021
 9008TIP3    H126965   4.221   3.940   3.044
 9008TIP3    H226966   4.073   3.972   3.049
 9009TIP3   OH226967   2.502   4.188   6.651
 9009TIP3    H126968   2.457   4.186   6.566
 9009TIP3    H226969   2.445   4.241   6.707
 9010TIP3   OH226970   4.341   0.887   5.789
 9010TIP3    H126971   4.403   0.915   5.856
 9010TIP3    H226972   4.258   0.877   5.836
 9011TIP3   OH226973   7.937   1.987   4.454
 9011TIP3    H126974   7.945   2.074   4.492
 9011TIP3    H226975   7.861   1.948   4.498
 9012TIP3   OH226976   5.128   2.392   0.774
 9012TIP3    H126977   5.152   2.316   0.827
 9012TIP3    H226978   5.044   2.421   0.811
 9013TIP3   OH226979   0.661   7.044   0.248
 9013TIP3    H126980   0.630   7.134   0.243
 9013TIP3    H226981   0.582   6.992   0.265
 9014TIP3   OH226982   1.131   4.795   2.875
 9014TIP3    H126983   1.132   4.699   2.873
 9014TIP3    H226984   1.131   4.821   2.783
 9015TIP3   OH226985   5.402   2.305   3.442
 9015TIP3    H126986   5.485   2.257   3.434
 9015TIP3    H226987   5.336   2.236   3.457
 9016TIP3   OH226988   1.828   7.286   0.597
 9016TIP3    H126989   1.749   7.317   0.642
 9016TIP3    H226990   1.890   7.269   0.668
 9017TIP3   OH226991   5.517   3.606   1.742
 9017TIP3    H126992   5.588   3.630   1.682
 9017TIP3    H226993   5.473   3.688   1.763
 9018TIP3   OH226994   7.869   7.101   5.582
 9018TIP3    H126995   7.951   7.145   5.603
 9018TIP3    H226996   7.887   7.053   5.502
 9019TIP3   OH226997   0.358   6.699   4.904
 9019TIP3    H126998   0.333   6.621   4.954
 9019TIP3    H226999   0.275   6.735   4.872
 9020TIP3   OH227000   3.888   0.608   2.539
 9020TIP3    H127001   3.956   0.600   2.606
 9020TIP3    H227002   3.856   0.698   2.547
 9021TIP3   OH227003   3.196   4.751   1.925
 9021TIP3    H127004   3.158   4.751   2.013
 9021TIP3    H227005   3.199   4.843   1.900
 9022TIP3   OH227006   2.569   6.895   4.688
 9022TIP3    H127007   2.491   6.864   4.734
 9022TIP3    H227008   2.582   6.984   4.720
 9023TIP3   OH227009   2.427   1.893   4.719
 9023TIP3    H127010   2.395   1.959   4.657
 9023TIP3    H227011   2.440   1.815   4.665
 9024TIP3   OH227012   6.116   6.542   6.801
 9024TIP3    H127013   6.144   6.459   6.762
 9024TIP3    H227014   6.197   6.588   6.821
 9025TIP3   OH227015   2.237   7.345   1.705
 9025TIP3    H127016   2.155   7.327   1.658
 9025TIP3    H227017   2.264   7.431   1.675
 9026TIP3   OH227018   0.243   7.024   5.680
 9026TIP3    H127019   0.268   7.076   5.604
 9026TIP3    H227020   0.158   7.060   5.706
 9027TIP3   OH227021   4.583   3.554   2.602
 9027TIP3    H127022   4.576   3.618   2.673
 9027TIP3    H227023   4.672   3.519   2.610
 9028TIP3   OH227024   0.287   4.371   4.546
 9028TIP3    H127025   0.317   4.323   4.468
 9028TIP3    H227026   0.305   4.463   4.525
 9029TIP3   OH227027   0.661   3.740   2.899
 9029TIP3    H127028   0.719   3.793   2.845
 9029TIP3    H227029   0.706   3.732   2.982
 9030TIP3   OH227030   6.708   4.244   5.415
 9030TIP3    H127031   6.635   4.182   5.423
 9030TIP3    H227032   6.667   4.330   5.429
 9031TIP3   OH227033   5.854   6.935   1.090
 9031TIP3    H127034   5.811   6.974   1.014
 9031TIP3    H227035   5.873   6.845   1.063
 9032TIP3   OH227036   8.072   1.797   1.368
 9032TIP3    H127037   8.145   1.776   1.310
 9032TIP3    H227038   7.995   1.765   1.322
 9033TIP3   OH227039   5.913   2.262   2.780
 9033TIP3    H127040   5.926   2.336   2.839
 9033TIP3    H227041   5.847   2.208   2.822
 9034TIP3   OH227042   3.131   2.524   1.262
 9034TIP3    H127043   3.092   2.516   1.174
 9034TIP3    H227044   3.058   2.552   1.318
 9035TIP3   OH227045   6.347   2.698   0.873
 9035TIP3    H127046   6.364   2.773   0.815
 9035TIP3    H227047   6.397   2.717   0.952
 9036TIP3   OH227048   4.765   6.661   2.714
 9036TIP3    H127049   4.708   6.700   2.648
 9036TIP3    H227050   4.791   6.577   2.677
 9037TIP3   OH227051   8.304   2.583   0.973
 9037TIP3    H127052   8.311   2.647   1.044
 9037TIP3    H227053   8.394   2.551   0.961
 9038TIP3   OH227054   2.547   2.450   3.228
 9038TIP3    H127055   2.588   2.398   3.297
 9038TIP3    H227056   2.583   2.415   3.147
 9039TIP3   OH227057   4.287   6.782   6.224
 9039TIP3    H127058   4.312   6.709   6.280
 9039TIP3    H227059   4.360   6.792   6.163
 9040TIP3   OH227060   6.514   0.235   6.559
 9040TIP3    H127061   6.528   0.145   6.591
 9040TIP3    H227062   6.561   0.238   6.475
 9041TIP3   OH227063   4.195   5.071   6.132
 9041TIP3    H127064   4.258   5.116   6.076
 9041TIP3    H227065   4.237   4.987   6.152
 9042TIP3   OH227066   5.090   1.744   1.286
 9042TIP3    H127067   5.044   1.790   1.357
 9042TIP3    H227068   5.124   1.664   1.326
 9043TIP3   OH227069   5.016   5.001   5.665
 9043TIP3    H127070   5.093   5.055   5.685
 9043TIP3    H227071   4.958   5.014   5.740
 9044TIP3   OH227072   8.372   0.372   3.027
 9044TIP3    H127073   8.286   0.336   3.048
 9044TIP3    H227074   8.369   0.389   2.933
 9045TIP3   OH227075   7.171   6.670   4.746
 9045TIP3    H127076   7.115   6.602   4.784
 9045TIP3    H227077   7.235   6.623   4.693
 9046TIP3   OH227078   2.827   4.552   6.596
 9046TIP3    H127079   2.763   4.527   6.530
 9046TIP3    H227080   2.902   4.494   6.579
 9047TIP3   OH227081   2.984   4.617   5.115
 9047TIP3    H127082   3.008   4.611   5.207
 9047TIP3    H227083   3.057   4.576   5.068
 9048TIP3   OH227084   3.299   7.562   2.088
 9048TIP3    H127085   3.251   7.614   2.153
 9048TIP3    H227086   3.243   7.561   2.011
 9049TIP3   OH227087   7.632   3.900   6.692
 9049TIP3    H127088   7.707   3.896   6.752
 9049TIP3    H227089   7.576   3.828   6.718
 9050TIP3   OH227090   4.948   5.497   3.438
 9050TIP3    H127091   4.965   5.590   3.421
 9050TIP3    H227092   5.004   5.450   3.376
 9051TIP3   OH227093   5.636   4.489   0.902
 9051TIP3    H127094   5.690   4.432   0.848
 9051TIP3    H227095   5.670   4.478   0.991
 9052TIP3   OH227096   8.265   6.693   5.738
 9052TIP3    H127097   8.225   6.673   5.654
 9052TIP3    H227098   8.348   6.735   5.716
 9053TIP3   OH227099   4.273   7.208   4.929
 9053TIP3    H127100   4.238   7.128   4.890
 9053TIP3    H227101   4.328   7.178   5.001
 9054TIP3   OH227102   7.047   0.601   1.910
 9054TIP3    H127103   7.088   0.686   1.895
 9054TIP3    H227104   7.014   0.606   1.999
 9055TIP3   OH227105   2.617   1.471   1.004
 9055TIP3    H127106   2.575   1.469   1.091
 9055TIP3    H227107   2.667   1.389   1.000
 9056TIP3   OH227108   6.382   3.814   3.639
 9056TIP3    H127109   6.378   3.744   3.574
 9056TIP3    H227110   6.364   3.894   3.590
 9057TIP3   OH227111   8.174   0.598   2.468
 9057TIP3    H127112   8.147   0.676   2.517
 9057TIP3    H227113   8.183   0.529   2.535
 9058TIP3   OH227114   4.476   5.124   2.611
 9058TIP3    H127115   4.412   5.090   2.673
 9058TIP3    H227116   4.558   5.081   2.636
 9059TIP3   OH227117   4.316   6.601   5.297
 9059TIP3    H127118   4.336   6.507   5.295
 9059TIP3    H227119   4.358   6.636   5.219
 9060TIP3   OH227120   1.109   2.678   4.667
 9060TIP3    H127121   1.040   2.617   4.642
 9060TIP3    H227122   1.081   2.711   4.753
 9061TIP3   OH227123   6.667   5.707   5.128
 9061TIP3    H127124   6.595   5.770   5.120
 9061TIP3    H227125   6.741   5.751   5.087
 9062TIP3   OH227126   8.067   4.248   3.763
 9062TIP3    H127127   7.985   4.211   3.797
 9062TIP3    H227128   8.093   4.187   3.693
 9063TIP3   OH227129   5.348   3.235   2.579
 9063TIP3    H127130   5.412   3.171   2.547
 9063TIP3    H227131   5.263   3.193   2.565
 9064TIP3   OH227132   7.030   4.319   2.585
 9064TIP3    H127133   7.071   4.401   2.558
 9064TIP3    H227134   6.937   4.340   2.590
 9065TIP3   OH227135   7.056   3.921   1.476
 9065TIP3    H127136   7.115   3.977   1.526
 9065TIP3    H227137   6.968   3.947   1.503
 9066TIP3   OH227138   3.896   4.952   5.027
 9066TIP3    H127139   3.922   4.871   4.983
 9066TIP3    H227140   3.852   4.922   5.107
 9067TIP3   OH227141   5.802   6.740   1.426
 9067TIP3    H127142   5.805   6.821   1.376
 9067TIP3    H227143   5.765   6.766   1.511
 9068TIP3   OH227144   3.933   6.229   4.149
 9068TIP3    H127145   3.934   6.180   4.067
 9068TIP3    H227146   3.841   6.244   4.168
 9069TIP3   OH227147   1.124   0.991   1.351
 9069TIP3    H127148   1.053   1.015   1.410
 9069TIP3    H227149   1.161   1.074   1.321
 9070TIP3   OH227150   1.398   4.029   0.019
 9070TIP3    H127151   1.482   4.073   0.032
 9070TIP3    H227152   1.338   4.072   0.080
 9071TIP3   OH227153   2.936   7.512   2.982
 9071TIP3    H127154   3.028   7.540   2.986
 9071TIP3    H227155   2.935   7.443   2.916
 9072TIP3   OH227156   4.633   1.399   0.372
 9072TIP3    H127157   4.600   1.310   0.363
 9072TIP3    H227158   4.728   1.391   0.361
 9073TIP3   OH227159   3.256   3.279   6.121
 9073TIP3    H127160   3.321   3.223   6.164
 9073TIP3    H227161   3.173   3.254   6.162
 9074TIP3   OH227162   5.956   4.016   5.317
 9074TIP3    H127163   6.023   3.972   5.371
 9074TIP3    H227164   5.966   3.975   5.230
 9075TIP3   OH227165   2.765   5.627   2.584
 9075TIP3    H127166   2.778   5.718   2.608
 9075TIP3    H227167   2.718   5.630   2.501
 9076TIP3   OH227168   0.402   0.705   5.043
 9076TIP3    H127169   0.310   0.692   5.021
 9076TIP3    H227170   0.450   0.675   4.966
 9077TIP3   OH227171   8.301   1.722   6.477
 9077TIP3    H127172   8.367   1.790   6.474
 9077TIP3    H227173   8.219   1.766   6.452
 9078TIP3   OH227174   7.220   2.995   5.963
 9078TIP3    H127175   7.193   3.006   6.054
 9078TIP3    H227176   7.300   2.942   5.968
 9079TIP3   OH227177   1.842   3.271   1.180
 9079TIP3    H127178   1.919   3.263   1.236
 9079TIP3    H227179   1.858   3.209   1.109
 9080TIP3   OH227180   4.989   3.095   0.140
 9080TIP3    H127181   4.965   3.157   0.209
 9080TIP3    H227182   5.072   3.058   0.169
 9081TIP3   OH227183   6.732   2.490   3.596
 9081TIP3    H127184   6.723   2.426   3.525
 9081TIP3    H227185   6.709   2.442   3.675
 9082TIP3   OH227186   8.241   4.430   6.215
 9082TIP3    H127187   8.297   4.388   6.150
 9082TIP3    H227188   8.290   4.425   6.297
 9083TIP3   OH227189   8.421   5.107   4.658
 9083TIP3    H127190   8.402   5.036   4.719
 9083TIP3    H227191   8.347   5.106   4.597
 9084TIP3   OH227192   6.008   7.168   1.894
 9084TIP3    H127193   6.049   7.083   1.879
 9084TIP3    H227194   5.914   7.148   1.902
 9085TIP3   OH227195   6.078   3.754   0.098
 9085TIP3    H127196   6.161   3.750   0.146
 9085TIP3    H227197   6.093   3.821   0.031
 9086TIP3   OH227198   2.876   1.234   5.906
 9086TIP3    H127199   2.949   1.183   5.870
 9086TIP3    H227200   2.862   1.199   5.993
 9087TIP3   OH227201   8.010   7.483   6.410
 9087TIP3    H127202   7.999   7.556   6.350
 9087TIP3    H227203   8.102   7.486   6.435
 9088TIP3   OH227204   1.382   7.572   0.783
 9088TIP3    H127205   1.368   7.632   0.856
 9088TIP3    H227206   1.401   7.629   0.708
 9089TIP3   OH227207   6.424   6.775   5.703
 9089TIP3    H127208   6.457   6.765   5.614
 9089TIP3    H227209   6.366   6.700   5.715
 9090TIP3   OH227210   4.475   3.869   6.481
 9090TIP3    H127211   4.449   3.874   6.573
 9090TIP3    H227212   4.568   3.893   6.481
 9091TIP3   OH227213   1.184   6.024   1.450
 9091TIP3    H127214   1.271   6.033   1.410
 9091TIP3    H227215   1.127   6.079   1.396
 9092TIP3   OH227216   0.858   2.286   2.405
 9092TIP3    H127217   0.900   2.216   2.456
 9092TIP3    H227218   0.860   2.362   2.463
 9093TIP3   OH227219   8.211   6.303   5.870
 9093TIP3    H127220   8.133   6.358   5.862
 9093TIP3    H227221   8.215   6.280   5.962
 9094TIP3   OH227222   7.301   7.170   2.091
 9094TIP3    H127223   7.236   7.129   2.148
 9094TIP3    H227224   7.288   7.264   2.104
 9095TIP3   OH227225   2.381   5.967   2.843
 9095TIP3    H127226   2.447   5.988   2.778
 9095TIP3    H227227   2.334   5.892   2.807
 9096TIP3   OH227228   4.132   4.152   0.137
 9096TIP3    H127229   4.178   4.147   0.222
 9096TIP3    H227230   4.042   4.128   0.158
 9097TIP3   OH227231   6.811   5.302   4.721
 9097TIP3    H127232   6.889   5.327   4.673
 9097TIP3    H227233   6.771   5.385   4.747
 9098TIP3   OH227234   7.018   3.065   1.213
 9098TIP3    H127235   7.011   3.023   1.298
 9098TIP3    H227236   7.082   3.011   1.165
 9099TIP3   OH227237   4.103   7.607   2.842
 9099TIP3    H127238   4.034   7.549   2.811
 9099TIP3    H227239   4.119   7.580   2.932
 9100TIP3   OH227240   6.142   6.636   3.525
 9100TIP3    H127241   6.046   6.636   3.519
 9100TIP3    H227242   6.163   6.709   3.584
 9101TIP3   OH227243   1.919   5.237   4.311
 9101TIP3    H127244   1.830   5.232   4.346
 9101TIP3    H227245   1.953   5.148   4.320
 9102TIP3   OH227246   4.268   7.404   6.656
 9102TIP3    H127247   4.318   7.356   6.721
 9102TIP3    H227248   4.250   7.340   6.587
 9103TIP3   OH227249   7.212   5.853   6.663
 9103TIP3    H127250   7.283   5.811   6.711
 9103TIP3    H227251   7.132   5.826   6.708
 9104TIP3   OH227252   7.257   6.658   0.967
 9104TIP3    H127253   7.198   6.599   1.015
 9104TIP3    H227254   7.223   6.658   0.878
 9105TIP3   OH227255   5.969   6.370   0.752
 9105TIP3    H127256   5.922   6.444   0.791
 9105TIP3    H227257   5.990   6.398   0.663
 9106TIP3   OH227258   1.864   3.060   2.657
 9106TIP3    H127259   1.935   3.031   2.714
 9106TIP3    H227260   1.898   3.137   2.612
 9107TIP3   OH227261   0.324   3.796   3.601
 9107TIP3    H127262   0.232   3.821   3.594
 9107TIP3    H227263   0.369   3.850   3.536
 9108TIP3   OH227264   4.722   3.340   0.062
 9108TIP3    H127265   4.764   3.423   0.083
 9108TIP3    H227266   4.782   3.298   0.000
 9109TIP3   OH227267   2.214   0.966   3.268
 9109TIP3    H127268   2.269   0.888   3.273
 9109TIP3    H227269   2.276   1.039   3.264
 9110TIP3   OH227270   7.317   7.734   2.632
 9110TIP3    H127271   7.274   7.773   2.556
 9110TIP3    H227272   7.255   7.669   2.664
 9111TIP3   OH227273   7.769   4.083   0.428
 9111TIP3    H127274   7.777   4.178   0.420
 9111TIP3    H227275   7.812   4.048   0.351
 9112TIP3   OH227276   7.227   6.779   6.555
 9112TIP3    H127277   7.197   6.688   6.557
 9112TIP3    H227278   7.313   6.776   6.596
 9113TIP3   OH227279   2.516   7.526   0.883
 9113TIP3    H127280   2.528   7.617   0.910
 9113TIP3    H227281   2.600   7.501   0.844
 9114TIP3   OH227282   4.015   3.559   5.150
 9114TIP3    H127283   3.967   3.517   5.078
 9114TIP3    H227284   4.097   3.589   5.109
 9115TIP3   OH227285   2.003   1.597   0.112
 9115TIP3    H127286   2.032   1.559   0.030
 9115TIP3    H227287   2.074   1.579   0.174
 9116TIP3   OH227288   3.243   2.579   0.457
 9116TIP3    H127289   3.327   2.611   0.490
 9116TIP3    H227290   3.194   2.659   0.437
 9117TIP3   OH227291   1.864   1.279   2.200
 9117TIP3    H127292   1.826   1.261   2.286
 9117TIP3    H227293   1.909   1.199   2.175
 9118TIP3   OH227294   5.610   5.429   5.702
 9118TIP3    H127295   5.600   5.406   5.610
 9118TIP3    H227296   5.583   5.520   5.707
 9119TIP3   OH227297   0.393   4.605   4.791
 9119TIP3    H127298   0.368   4.587   4.882
 9119TIP3    H227299   0.484   4.578   4.785
 9120TIP3   OH227300   3.553   2.979   3.330
 9120TIP3    H127301   3.480   3.015   3.279
 9120TIP3    H227302   3.580   2.901   3.281
 9121TIP3   OH227303   6.166   2.202   3.875
 9121TIP3    H127304   6.163   2.121   3.824
 9121TIP3    H227305   6.174   2.174   3.966
 9122TIP3   OH227306   1.373   0.074   5.740
 9122TIP3    H127307   1.309   0.034   5.681
 9122TIP3    H227308   1.426   0.001   5.771
 9123TIP3   OH227309   3.068   6.019   3.748
 9123TIP3    H127310   3.066   6.002   3.654
 9123TIP3    H227311   3.139   6.083   3.759
 9124TIP3   OH227312   0.378   3.896   6.197
 9124TIP3    H127313   0.299   3.950   6.192
 9124TIP3    H227314   0.423   3.912   6.114
 9125TIP3   OH227315   3.924   4.823   1.871
 9125TIP3    H127316   3.866   4.847   1.942
 9125TIP3    H227317   4.009   4.861   1.895
 9126TIP3   OH227318   6.012   4.098   6.055
 9126TIP3    H127319   6.007   4.019   6.109
 9126TIP3    H227320   5.930   4.145   6.072
 9127TIP3   OH227321   4.362   1.120   1.902
 9127TIP3    H127322   4.270   1.122   1.928
 9127TIP3    H227323   4.403   1.189   1.954
 9128TIP3   OH227324   5.416   2.714   6.302
 9128TIP3    H127325   5.452   2.708   6.390
 9128TIP3    H227326   5.332   2.758   6.312
 9129TIP3   OH227327   4.039   7.571   6.661
 9129TIP3    H127328   4.080   7.656   6.646
 9129TIP3    H227329   4.105   7.507   6.635
 9130TIP3   OH227330   3.300   3.041   3.246
 9130TIP3    H127331   3.232   3.102   3.220
 9130TIP3    H227332   3.255   2.957   3.257
 9131TIP3   OH227333   4.461   0.129   6.349
 9131TIP3    H127334   4.380   0.174   6.326
 9131TIP3    H227335   4.484   0.164   6.435
 9132TIP3   OH227336   0.787   3.045   3.473
 9132TIP3    H127337   0.790   2.950   3.468
 9132TIP3    H227338   0.707   3.064   3.522
 9133TIP3   OH227339   6.916   1.004   6.846
 9133TIP3    H127340   6.853   0.970   6.783
 9133TIP3    H227341   6.966   0.927   6.874
 9134TIP3   OH227342   0.806   4.783   5.970
 9134TIP3    H127343   0.757   4.865   5.971
 9134TIP3    H227344   0.746   4.718   6.008
 9135TIP3   OH227345   3.562   3.619   3.767
 9135TIP3    H127346   3.530   3.554   3.830
 9135TIP3    H227347   3.573   3.570   3.686
 9136TIP3   OH227348   0.451   1.622   1.489
 9136TIP3    H127349   0.538   1.662   1.483
 9136TIP3    H227350   0.426   1.630   1.581
 9137TIP3   OH227351   0.945   7.462   3.089
 9137TIP3    H127352   1.036   7.462   3.119
 9137TIP3    H227353   0.898   7.508   3.159
 9138TIP3   OH227354   7.920   7.401   4.677
 9138TIP3    H127355   7.929   7.491   4.710
 9138TIP3    H227356   7.874   7.355   4.747
 9139TIP3   OH227357   3.863   1.352   6.024
 9139TIP3    H127358   3.781   1.370   6.071
 9139TIP3    H227359   3.916   1.430   6.039
 9140TIP3   OH227360   8.134   4.446   5.419
 9140TIP3    H127361   8.117   4.514   5.353
 9140TIP3    H227362   8.167   4.372   5.368
 9141TIP3   OH227363   5.751   5.420   3.063
 9141TIP3    H127364   5.781   5.402   3.152
 9141TIP3    H227365   5.825   5.393   3.007
 9142TIP3   OH227366   8.357   0.627   0.032
 9142TIP3    H127367   8.372   0.534   0.050
 9142TIP3    H227368   8.405   0.644  -0.049
 9143TIP3   OH227369   6.005   4.980   2.060
 9143TIP3    H127370   6.027   4.925   1.985
 9143TIP3    H227371   5.966   4.920   2.124
 9144TIP3   OH227372   5.484   6.167   0.070
 9144TIP3    H127373   5.526   6.084   0.049
 9144TIP3    H227374   5.518   6.190   0.157
 9145TIP3   OH227375   0.945   2.705   6.421
 9145TIP3    H127376   0.969   2.626   6.373
 9145TIP3    H227377   0.857   2.689   6.454
 9146TIP3   OH227378   3.776   5.997   0.558
 9146TIP3    H127379   3.765   5.906   0.529
 9146TIP3    H227380   3.825   5.990   0.640
 9147TIP3   OH227381   1.908   4.023   1.667
 9147TIP3    H127382   1.870   3.980   1.591
 9147TIP3    H227383   1.973   4.084   1.631
 9148TIP3   OH227384   1.634   5.545   0.665
 9148TIP3    H127385   1.553   5.556   0.616
 9148TIP3    H227386   1.679   5.471   0.624
 9149TIP3   OH227387   2.927   6.995   5.467
 9149TIP3    H127388   2.890   7.060   5.408
 9149TIP3    H227389   3.003   6.960   5.420
 9150TIP3   OH227390   0.309   1.797   5.026
 9150TIP3    H127391   0.381   1.834   4.974
 9150TIP3    H227392   0.260   1.743   4.964
 9151TIP3   OH227393   0.902   2.126   1.785
 9151TIP3    H127394   0.917   2.145   1.878
 9151TIP3    H227395   0.868   2.037   1.784
 9152TIP3   OH227396   4.027   6.665   5.748
 9152TIP3    H127397   4.093   6.639   5.814
 9152TIP3    H227398   4.048   6.611   5.672
 9153TIP3   OH227399   7.612   2.499   3.574
 9153TIP3    H127400   7.692   2.448   3.586
 9153TIP3    H227401   7.544   2.434   3.558
 9154TIP3   OH227402   0.459   5.965   2.512
 9154TIP3    H127403   0.514   5.977   2.435
 9154TIP3    H227404   0.374   5.939   2.477
 9155TIP3   OH227405   4.138   0.209   6.821
 9155TIP3    H127406   4.129   0.156   6.900
 9155TIP3    H227407   4.223   0.252   6.830
 9156TIP3   OH227408   4.727   1.552   4.601
 9156TIP3    H127409   4.759   1.621   4.659
 9156TIP3    H227410   4.795   1.485   4.604
 9157TIP3   OH227411   0.892   3.500   0.866
 9157TIP3    H127412   0.926   3.568   0.808
 9157TIP3    H227413   0.829   3.545   0.923
 9158TIP3   OH227414   7.507   3.234   4.663
 9158TIP3    H127415   7.457   3.216   4.743
 9158TIP3    H227416   7.484   3.325   4.640
 9159TIP3   OH227417   3.462   4.289   5.063
 9159TIP3    H127418   3.543   4.335   5.041
 9159TIP3    H227419   3.439   4.322   5.150
 9160TIP3   OH227420   1.622   6.295   5.339
 9160TIP3    H127421   1.542   6.244   5.355
 9160TIP3    H227422   1.638   6.341   5.421
 9161TIP3   OH227423   2.051   2.369   3.682
 9161TIP3    H127424   2.062   2.300   3.616
 9161TIP3    H227425   1.957   2.384   3.685
 9162TIP3   OH227426   0.307   0.533   0.066
 9162TIP3    H127427   0.316   0.457   0.007
 9162TIP3    H227428   0.283   0.495   0.150
 9163TIP3   OH227429   4.958   2.615   5.380
 9163TIP3    H127430   4.973   2.664   5.461
 9163TIP3    H227431   4.944   2.682   5.313
 9164TIP3   OH227432   6.070   0.795   0.451
 9164TIP3    H127433   6.054   0.729   0.384
 9164TIP3    H227434   6.108   0.869   0.404
 9165TIP3   OH227435   0.796   5.483   5.976
 9165TIP3    H127436   0.837   5.570   5.967
 9165TIP3    H227437   0.739   5.491   6.052
 9166TIP3   OH227438   1.157   1.512   6.385
 9166TIP3    H127439   1.078   1.469   6.419
 9166TIP3    H227440   1.125   1.581   6.327
 9167TIP3   OH227441   8.244   6.816   4.459
 9167TIP3    H127442   8.282   6.735   4.494
 9167TIP3    H227443   8.240   6.802   4.365
 9168TIP3   OH227444   8.133   5.807   1.164
 9168TIP3    H127445   8.056   5.797   1.221
 9168TIP3    H227446   8.139   5.723   1.118
 9169TIP3   OH227447   3.266   1.411   6.840
 9169TIP3    H127448   3.182   1.442   6.805
 9169TIP3    H227449   3.331   1.453   6.784
 9170TIP3   OH227450   5.592   5.596   5.013
 9170TIP3    H127451   5.627   5.558   5.094
 9170TIP3    H227452   5.530   5.531   4.981
 9171TIP3   OH227453   3.500   4.009   4.653
 9171TIP3    H127454   3.474   4.074   4.717
 9171TIP3    H227455   3.455   3.929   4.681
 9172TIP3   OH227456   4.042   1.561   4.701
 9172TIP3    H127457   4.072   1.491   4.643
 9172TIP3    H227458   4.019   1.633   4.642
 9173TIP3   OH227459   7.364   7.139   0.895
 9173TIP3    H127460   7.386   7.081   0.969
 9173TIP3    H227461   7.395   7.092   0.818
 9174TIP3   OH227462   6.985   6.443   4.806
 9174TIP3    H127463   6.923   6.375   4.835
 9174TIP3    H227464   7.029   6.404   4.731
 9175TIP3   OH227465   0.196   5.472   2.184
 9175TIP3    H127466   0.183   5.567   2.190
 9175TIP3    H227467   0.260   5.461   2.113
 9176TIP3   OH227468   8.330   5.384   3.192
 9176TIP3    H127469   8.346   5.351   3.103
 9176TIP3    H227470   8.252   5.337   3.221
 9177TIP3   OH227471   1.498   1.865   5.991
 9177TIP3    H127472   1.459   1.931   5.934
 9177TIP3    H227473   1.522   1.794   5.932
 9178TIP3   OH227474   5.044   4.471   3.141
 9178TIP3    H127475   4.954   4.463   3.173
 9178TIP3    H227476   5.076   4.381   3.136
 9179TIP3   OH227477   5.868   3.402   6.694
 9179TIP3    H127478   5.806   3.334   6.670
 9179TIP3    H227479   5.915   3.367   6.769
 9180TIP3   OH227480   4.290   0.605   4.533
 9180TIP3    H127481   4.253   0.633   4.616
 9180TIP3    H227482   4.218   0.562   4.488
 9181TIP3   OH227483   6.789   4.459   4.724
 9181TIP3    H127484   6.842   4.521   4.674
 9181TIP3    H227485   6.699   4.475   4.696
 9182TIP3   OH227486   2.128   0.674   4.192
 9182TIP3    H127487   2.203   0.627   4.229
 9182TIP3    H227488   2.163   0.760   4.170
 9183TIP3   OH227489   6.861   1.725   5.508
 9183TIP3    H127490   6.875   1.703   5.416
 9183TIP3    H227491   6.827   1.645   5.547
 9184TIP3   OH227492   7.121   1.692   2.462
 9184TIP3    H127493   7.136   1.693   2.556
 9184TIP3    H227494   7.065   1.768   2.446
 9185TIP3   OH227495   0.756   7.266   4.079
 9185TIP3    H127496   0.742   7.361   4.084
 9185TIP3    H227497   0.690   7.230   4.138
 9186TIP3   OH227498   6.080   0.566   1.396
 9186TIP3    H127499   6.112   0.644   1.441
 9186TIP3    H227500   6.146   0.549   1.328
 9187TIP3   OH227501   2.973   6.777   6.080
 9187TIP3    H127502   2.920   6.705   6.115
 9187TIP3    H227503   3.020   6.739   6.006
 9188TIP3   OH227504   8.127   0.029   0.498
 9188TIP3    H127505   8.052  -0.020   0.465
 9188TIP3    H227506   8.119   0.115   0.456
 9189TIP3   OH227507   5.605   7.447   2.197
 9189TIP3    H127508   5.636   7.429   2.108
 9189TIP3    H227509   5.664   7.516   2.229
 9190TIP3   OH227510   2.153   3.861   1.843
 9190TIP3    H127511   2.217   3.849   1.914
 9190TIP3    H227512   2.068   3.843   1.885
 9191TIP3   OH227513   7.349   0.946   5.256
 9191TIP3    H127514   7.429   0.997   5.270
 9191TIP3    H227515   7.304   0.991   5.184
 9192TIP3   OH227516   7.087   1.779   5.649
 9192TIP3    H127517   7.011   1.785   5.590
 9192TIP3    H227518   7.065   1.708   5.710
 9193TIP3   OH227519   7.400   0.301   2.619
 9193TIP3    H127520   7.450   0.359   2.561
 9193TIP3    H227521   7.322   0.278   2.569
 9194TIP3   OH227522   6.335   2.617   4.569
 9194TIP3    H127523   6.385   2.603   4.489
 9194TIP3    H227524   6.400   2.623   4.639
 9195TIP3   OH227525   1.084   6.870   0.182
 9195TIP3    H127526   1.123   6.785   0.200
 9195TIP3    H227527   0.991   6.859   0.203
 9196TIP3   OH227528   4.416   5.374   3.002
 9196TIP3    H127529   4.387   5.361   2.911
 9196TIP3    H227530   4.461   5.458   3.001
 9197TIP3   OH227531   4.620   7.365   1.530
 9197TIP3    H127532   4.698   7.409   1.562
 9197TIP3    H227533   4.547   7.418   1.563
 9198TIP3   OH227534   5.135   2.722   3.570
 9198TIP3    H127535   5.216   2.677   3.593
 9198TIP3    H227536   5.090   2.661   3.511
 9199TIP3   OH227537   3.323   0.001   2.846
 9199TIP3    H127538   3.315   0.090   2.880
 9199TIP3    H227539   3.324  -0.054   2.924
 9200TIP3   OH227540   2.347   2.083   5.623
 9200TIP3    H127541   2.402   2.049   5.694
 9200TIP3    H227542   2.403   2.146   5.578
 9201TIP3   OH227543   7.571   7.382   2.143
 9201TIP3    H127544   7.540   7.471   2.164
 9201TIP3    H227545   7.518   7.325   2.200
 9202TIP3   OH227546   6.022   1.557   2.018
 9202TIP3    H127547   5.936   1.588   2.047
 9202TIP3    H227548   6.073   1.637   2.003
 9203TIP3   OH227549   6.166   2.116  -0.005
 9203TIP3    H127550   6.150   2.021  -0.005
 9203TIP3    H227551   6.236   2.128   0.060
 9204TIP3   OH227552   2.954   0.123   2.501
 9204TIP3    H127553   2.921   0.107   2.589
 9204TIP3    H227554   3.000   0.042   2.478
 9205TIP3   OH227555   1.096   2.041   0.074
 9205TIP3    H127556   1.098   1.947   0.094
 9205TIP3    H227557   1.073   2.045  -0.019
 9206TIP3   OH227558   0.984   4.147   6.016
 9206TIP3    H127559   1.012   4.195   5.938
 9206TIP3    H227560   1.065   4.128   6.063
 9207TIP3   OH227561   2.208   7.840   6.570
 9207TIP3    H127562   2.289   7.859   6.523
 9207TIP3    H227563   2.232   7.772   6.633
 9208TIP3   OH227564   7.943   6.252   0.179
 9208TIP3    H127565   7.987   6.265   0.263
 9208TIP3    H227566   8.007   6.206   0.126
 9209TIP3   OH227567   1.256   5.325   3.207
 9209TIP3    H127568   1.188   5.279   3.157
 9209TIP3    H227569   1.338   5.284   3.179
 9210TIP3   OH227570   7.353   0.264   5.367
 9210TIP3    H127571   7.421   0.330   5.378
 9210TIP3    H227572   7.390   0.185   5.408
 9211TIP3   OH227573   8.352   6.214   3.439
 9211TIP3    H127574   8.406   6.175   3.507
 9211TIP3    H227575   8.273   6.160   3.437
 9212TIP3   OH227576   0.922   7.375   3.415
 9212TIP3    H127577   0.878   7.290   3.412
 9212TIP3    H227578   1.015   7.354   3.405
 9213TIP3   OH227579   0.709   6.374   4.607
 9213TIP3    H127580   0.698   6.281   4.588
 9213TIP3    H227581   0.803   6.390   4.595
 9214TIP3   OH227582   5.178   2.628   1.932
 9214TIP3    H127583   5.185   2.597   2.022
 9214TIP3    H227584   5.184   2.549   1.878
 9215TIP3   OH227585   7.638   5.969   5.223
 9215TIP3    H127586   7.621   5.896   5.283
 9215TIP3    H227587   7.558   6.020   5.224
 9216TIP3   OH227588   1.208   4.975   0.280
 9216TIP3    H127589   1.170   4.981   0.193
 9216TIP3    H227590   1.245   5.062   0.295
 9217TIP3   OH227591   8.402   2.661   2.378
 9217TIP3    H127592   8.369   2.722   2.313
 9217TIP3    H227593   8.375   2.699   2.462
 9218TIP3   OH227594   0.645   2.728   4.125
 9218TIP3    H127595   0.740   2.737   4.114
 9218TIP3    H227596   0.608   2.806   4.084
 9219TIP3   OH227597   6.301   2.668   5.398
 9219TIP3    H127598   6.294   2.717   5.480
 9219TIP3    H227599   6.228   2.606   5.400
 9220TIP3   OH227600   4.281   0.221   0.372
 9220TIP3    H127601   4.294   0.206   0.278
 9220TIP3    H227602   4.227   0.300   0.376
 9221TIP3   OH227603   5.736   4.413   0.233
 9221TIP3    H127604   5.655   4.365   0.214
 9221TIP3    H227605   5.798   4.382   0.167
 9222TIP3   OH227606   7.584   5.214   4.002
 9222TIP3    H127607   7.588   5.306   3.976
 9222TIP3    H227608   7.514   5.210   4.066
 9223TIP3   OH227609   8.178   4.692   0.388
 9223TIP3    H127610   8.208   4.775   0.424
 9223TIP3    H227611   8.225   4.682   0.306
 9224TIP3   OH227612   0.187   6.455   1.471
 9224TIP3    H127613   0.118   6.483   1.411
 9224TIP3    H227614   0.175   6.361   1.480
 9225TIP3   OH227615   3.936   6.007   3.066
 9225TIP3    H127616   4.032   6.001   3.064
 9225TIP3    H227617   3.907   5.922   3.033
 9226TIP3   OH227618   7.704   0.158   2.805
 9226TIP3    H127619   7.754   0.078   2.822
 9226TIP3    H227620   7.746   0.197   2.728
 9227TIP3   OH227621   0.942   7.161   1.938
 9227TIP3    H127622   0.852   7.176   1.964
 9227TIP3    H227623   0.982   7.116   2.013
 9228TIP3   OH227624   4.941   6.917   6.603
 9228TIP3    H127625   4.939   6.878   6.691
 9228TIP3    H227626   4.942   7.011   6.618
 9229TIP3   OH227627   2.105   5.447   6.525
 9229TIP3    H127628   2.033   5.486   6.575
 9229TIP3    H227629   2.183   5.493   6.556
 9230TIP3   OH227630   6.022   6.546   1.962
 9230TIP3    H127631   6.111   6.524   1.991
 9230TIP3    H227632   6.029   6.552   1.867
 9231TIP3   OH227633   7.067   4.424   4.902
 9231TIP3    H127634   6.989   4.479   4.898
 9231TIP3    H227635   7.077   4.389   4.814
 9232TIP3   OH227636   7.757   1.055   6.621
 9232TIP3    H127637   7.820   1.090   6.560
 9232TIP3    H227638   7.672   1.068   6.579
 9233TIP3   OH227639   1.900   4.780   1.900
 9233TIP3    H127640   1.959   4.753   1.970
 9233TIP3    H227641   1.950   4.766   1.819
 9234TIP3   OH227642   8.168   4.916   4.052
 9234TIP3    H127643   8.115   4.979   4.002
 9234TIP3    H227644   8.114   4.837   4.055
 9235TIP3   OH227645   1.344   4.569   4.170
 9235TIP3    H127646   1.398   4.645   4.192
 9235TIP3    H227647   1.298   4.595   4.090
 9236TIP3   OH227648   8.191   7.532   5.488
 9236TIP3    H127649   8.150   7.566   5.408
 9236TIP3    H227650   8.284   7.526   5.467
 9237TIP3   OH227651   0.390   4.072   1.127
 9237TIP3    H127652   0.298   4.072   1.152
 9237TIP3    H227653   0.404   4.158   1.086
 9238TIP3   OH227654   7.367   6.522   4.328
 9238TIP3    H127655   7.409   6.438   4.310
 9238TIP3    H227656   7.375   6.534   4.422
 9239TIP3   OH227657   6.909   7.167   0.445
 9239TIP3    H127658   6.844   7.234   0.423
 9239TIP3    H227659   6.861   7.105   0.499
 9240TIP3   OH227660   4.127   5.245   4.307
 9240TIP3    H127661   4.220   5.261   4.320
 9240TIP3    H227662   4.118   5.150   4.310
 9241TIP3   OH227663   5.904   4.675   0.240
 9241TIP3    H127664   5.886   4.581   0.246
 9241TIP3    H227665   5.997   4.681   0.221
 9242TIP3   OH227666   2.173   5.638   0.474
 9242TIP3    H127667   2.226   5.702   0.522
 9242TIP3    H227668   2.198   5.651   0.383
 9243TIP3   OH227669   1.991   5.411   5.557
 9243TIP3    H127670   2.062   5.452   5.608
 9243TIP3    H227671   1.996   5.453   5.471
 9244TIP3   OH227672   3.341   1.202   3.935
 9244TIP3    H127673   3.404   1.212   3.863
 9244TIP3    H227674   3.304   1.115   3.922
 9245TIP3   OH227675   7.966   7.014   5.861
 9245TIP3    H127676   7.994   6.926   5.887
 9245TIP3    H227677   7.872   7.006   5.847
 9246TIP3   OH227678   0.130   7.441   5.183
 9246TIP3    H127679   0.136   7.487   5.100
 9246TIP3    H227680   0.221   7.437   5.215
 9247TIP3   OH227681   3.378   0.613   5.031
 9247TIP3    H127682   3.387   0.708   5.028
 9247TIP3    H227683   3.291   0.598   5.069
 9248TIP3   OH227684   4.549   1.046   0.476
 9248TIP3    H127685   4.516   1.054   0.565
 9248TIP3    H227686   4.645   1.051   0.485
 9249TIP3   OH227687   0.403   5.808   0.933
 9249TIP3    H127688   0.350   5.729   0.925
 9249TIP3    H227689   0.345   5.873   0.970
 9250TIP3   OH227690   4.172   3.596   6.399
 9250TIP3    H127691   4.165   3.674   6.455
 9250TIP3    H227692   4.224   3.534   6.450
 9251TIP3   OH227693   2.763   6.884   6.410
 9251TIP3    H127694   2.719   6.895   6.325
 9251TIP3    H227695   2.691   6.881   6.473
 9252TIP3   OH227696   4.422   6.125   4.064
 9252TIP3    H127697   4.402   6.047   4.115
 9252TIP3    H227698   4.427   6.195   4.129
 9253TIP3   OH227699   0.044   6.053   6.025
 9253TIP3    H127700   0.078   5.966   6.049
 9253TIP3    H227701   0.067   6.109   6.099
 9254TIP3   OH227702   6.551   2.943   4.630
 9254TIP3    H127703   6.607   2.961   4.706
 9254TIP3    H227704   6.473   2.996   4.644
 9255TIP3   OH227705   0.995   1.494   4.614
 9255TIP3    H127706   1.030   1.415   4.572
 9255TIP3    H227707   0.944   1.537   4.546
 9256TIP3   OH227708   1.931   2.771   4.074
 9256TIP3    H127709   1.904   2.765   4.166
 9256TIP3    H227710   1.864   2.722   4.027
 9257TIP3   OH227711   4.477   4.655   1.506
 9257TIP3    H127712   4.471   4.690   1.418
 9257TIP3    H227713   4.508   4.728   1.559
 9258TIP3   OH227714   0.774   0.488   6.144
 9258TIP3    H127715   0.765   0.394   6.128
 9258TIP3    H227716   0.842   0.517   6.082
 9259TIP3   OH227717   7.931   7.138   4.326
 9259TIP3    H127718   7.937   7.103   4.415
 9259TIP3    H227719   7.919   7.061   4.270
 9260TIP3   OH227720   5.017   0.690   6.134
 9260TIP3    H127721   5.107   0.667   6.113
 9260TIP3    H227722   4.964   0.626   6.085
 9261TIP3   OH227723   0.966   0.839   3.772
 9261TIP3    H127724   0.981   0.761   3.825
 9261TIP3    H227725   0.929   0.805   3.690
 9262TIP3   OH227726   4.247   0.909   1.162
 9262TIP3    H127727   4.252   0.836   1.101
 9262TIP3    H227728   4.337   0.942   1.168
 9263TIP3   OH227729   2.163   3.527   2.313
 9263TIP3    H127730   2.183   3.497   2.224
 9263TIP3    H227731   2.248   3.541   2.354
 9264TIP3   OH227732   3.257   4.499   4.605
 9264TIP3    H127733   3.289   4.518   4.693
 9264TIP3    H227734   3.292   4.570   4.551
 9265TIP3   OH227735   2.112   6.671   4.262
 9265TIP3    H127736   2.067   6.722   4.331
 9265TIP3    H227737   2.186   6.726   4.237
 9266TIP3   OH227738   7.497   1.120   1.790
 9266TIP3    H127739   7.451   1.191   1.834
 9266TIP3    H227740   7.474   1.042   1.839
 9267TIP3   OH227741   8.114   1.859   3.785
 9267TIP3    H127742   8.021   1.883   3.790
 9267TIP3    H227743   8.116   1.785   3.724
 9268TIP3   OH227744   4.681   1.279   6.703
 9268TIP3    H127745   4.615   1.215   6.729
 9268TIP3    H227746   4.664   1.355   6.758
 9269TIP3   OH227747   3.191   7.735   5.154
 9269TIP3    H127748   3.244   7.674   5.102
 9269TIP3    H227749   3.211   7.713   5.244
 9270TIP3   OH227750   2.670   7.405   0.118
 9270TIP3    H127751   2.597   7.466   0.110
 9270TIP3    H227752   2.748   7.460   0.110
 9271TIP3   OH227753   6.756   5.731   2.783
 9271TIP3    H127754   6.679   5.765   2.828
 9271TIP3    H227755   6.829   5.750   2.842
 9272TIP3   OH227756   2.336   6.507   4.361
 9272TIP3    H127757   2.295   6.432   4.405
 9272TIP3    H227758   2.263   6.550   4.315
 9273TIP3   OH227759   2.587   1.225   6.704
 9273TIP3    H127760   2.639   1.149   6.729
 9273TIP3    H227761   2.645   1.278   6.649
 9274TIP3   OH227762   6.804   3.787   2.497
 9274TIP3    H127763   6.838   3.874   2.476
 9274TIP3    H227764   6.811   3.781   2.593
 9275TIP3   OH227765   2.868   7.566   5.181
 9275TIP3    H127766   2.873   7.628   5.108
 9275TIP3    H227767   2.818   7.492   5.146
 9276TIP3   OH227768   2.173   3.636   1.657
 9276TIP3    H127769   2.145   3.716   1.702
 9276TIP3    H227770   2.131   3.565   1.704
 9277TIP3   OH227771   2.157   4.747   3.481
 9277TIP3    H127772   2.218   4.672   3.479
 9277TIP3    H227773   2.088   4.722   3.419
 9278TIP3   OH227774   3.285   0.089   2.435
 9278TIP3    H127775   3.254   0.164   2.485
 9278TIP3    H227776   3.217   0.022   2.448
 9279TIP3   OH227777   2.030   7.457   3.602
 9279TIP3    H127778   2.084   7.427   3.528
 9279TIP3    H227779   2.069   7.415   3.679
 9280TIP3   OH227780   5.567   0.101   2.544
 9280TIP3    H127781   5.495   0.038   2.551
 9280TIP3    H227782   5.624   0.065   2.476
 9281TIP3   OH227783   6.183   1.033   0.336
 9281TIP3    H127784   6.207   1.035   0.243
 9281TIP3    H227785   6.267   1.033   0.383
 9282TIP3   OH227786   2.991   0.757   0.245
 9282TIP3    H127787   2.975   0.765   0.339
 9282TIP3    H227788   2.913   0.711   0.212
 9283TIP3   OH227789   6.534   6.290   6.400
 9283TIP3    H127790   6.553   6.315   6.310
 9283TIP3    H227791   6.613   6.245   6.430
 9284TIP3   OH227792   3.049   6.314   2.413
 9284TIP3    H127793   2.980   6.380   2.401
 9284TIP3    H227794   3.041   6.286   2.504
 9285TIP3   OH227795   4.032   4.478   5.061
 9285TIP3    H127796   4.070   4.545   5.003
 9285TIP3    H227797   4.076   4.397   5.036
 9286TIP3   OH227798   7.215   0.982   0.821
 9286TIP3    H127799   7.124   0.962   0.843
 9286TIP3    H227800   7.211   1.064   0.772
 9287TIP3   OH227801   1.529   6.017   0.767
 9287TIP3    H127802   1.601   6.064   0.809
 9287TIP3    H227803   1.467   6.085   0.742
 9288TIP3   OH227804   6.586   1.619   2.246
 9288TIP3    H127805   6.647   1.660   2.307
 9288TIP3    H227806   6.642   1.581   2.178
 9289TIP3   OH227807   7.462   3.120   0.821
 9289TIP3    H127808   7.386   3.112   0.764
 9289TIP3    H227809   7.453   3.205   0.863
 9290TIP3   OH227810   1.177   7.436   1.581
 9290TIP3    H127811   1.252   7.474   1.536
 9290TIP3    H227812   1.202   7.345   1.597
 9291TIP3   OH227813   1.940   1.190   6.597
 9291TIP3    H127814   2.008   1.135   6.560
 9291TIP3    H227815   1.972   1.212   6.684
 9292TIP3   OH227816   3.538   1.589   2.078
 9292TIP3    H127817   3.558   1.672   2.035
 9292TIP3    H227818   3.450   1.567   2.049
 9293TIP3   OH227819   0.380   7.020   4.009
 9293TIP3    H127820   0.337   7.041   3.926
 9293TIP3    H227821   0.327   7.065   4.075
 9294TIP3   OH227822   5.716   7.076   2.498
 9294TIP3    H127823   5.682   7.019   2.566
 9294TIP3    H227824   5.640   7.096   2.443
 9295TIP3   OH227825   3.901   0.749   4.394
 9295TIP3    H127826   3.920   0.710   4.480
 9295TIP3    H227827   3.960   0.824   4.389
 9296TIP3   OH227828   5.598   6.440   0.894
 9296TIP3    H127829   5.527   6.395   0.850
 9296TIP3    H227830   5.636   6.373   0.952
 9297TIP3   OH227831   3.069   6.318   1.434
 9297TIP3    H127832   3.126   6.242   1.418
 9297TIP3    H227833   3.111   6.390   1.387
 9298TIP3   OH227834   5.220   7.742   2.326
 9298TIP3    H127835   5.316   7.735   2.331
 9298TIP3    H227836   5.196   7.788   2.406
 9299TIP3   OH227837   0.585   3.601   6.099
 9299TIP3    H127838   0.674   3.607   6.134
 9299TIP3    H227839   0.582   3.665   6.028
 9300TIP3   OH227840   3.563   1.831   1.627
 9300TIP3    H127841   3.514   1.750   1.615
 9300TIP3    H227842   3.617   1.815   1.705
 9301TIP3   OH227843   3.253   7.818   2.781
 9301TIP3    H127844   3.311   7.894   2.780
 9301TIP3    H227845   3.172   7.850   2.742
 9302TIP3   OH227846   6.286   2.677   2.766
 9302TIP3    H127847   6.259   2.610   2.702
 9302TIP3    H227848   6.216   2.742   2.763
 9303TIP3   OH227849   0.885   4.104   6.471
 9303TIP3    H127850   0.842   4.018   6.477
 9303TIP3    H227851   0.970   4.091   6.513
 9304TIP3   OH227852   4.580   0.393   5.058
 9304TIP3    H127853   4.503   0.447   5.072
 9304TIP3    H227854   4.548   0.318   5.008
 9305TIP3   OH227855   7.707   3.504   5.003
 9305TIP3    H127856   7.637   3.454   5.045
 9305TIP3    H227857   7.661   3.560   4.940
 9306TIP3   OH227858   1.595   0.187   5.066
 9306TIP3    H127859   1.649   0.196   4.988
 9306TIP3    H227860   1.517   0.140   5.036
 9307TIP3   OH227861   2.602   7.809   0.936
 9307TIP3    H127862   2.522   7.860   0.943
 9307TIP3    H227863   2.655   7.836   1.011
 9308TIP3   OH227864   0.740   3.935   5.365
 9308TIP3    H127865   0.771   3.987   5.291
 9308TIP3    H227866   0.657   3.976   5.390
 9309TIP3   OH227867   6.567   3.104   3.106
 9309TIP3    H127868   6.487   3.152   3.083
 9309TIP3    H227869   6.636   3.171   3.107
 9310TIP3   OH227870   3.323   5.838   3.576
 9310TIP3    H127871   3.312   5.884   3.492
 9310TIP3    H227872   3.318   5.906   3.642
 9311TIP3   OH227873   6.054   1.590   3.346
 9311TIP3    H127874   6.114   1.516   3.360
 9311TIP3    H227875   6.062   1.609   3.252
 9312TIP3   OH227876   3.688   6.758   5.835
 9312TIP3    H127877   3.632   6.820   5.883
 9312TIP3    H227878   3.655   6.761   5.745
 9313TIP3   OH227879   5.505   7.878   5.602
 9313TIP3    H127880   5.471   7.962   5.632
 9313TIP3    H227881   5.466   7.866   5.515
 9314TIP3   OH227882   5.914   4.406   0.030
 9314TIP3    H127883   5.895   4.324  -0.015
 9314TIP3    H227884   6.001   4.431   0.000
 9315TIP3   OH227885   6.020   6.158   6.048
 9315TIP3    H127886   5.981   6.164   6.135
 9315TIP3    H227887   6.083   6.086   6.055
 9316TIP3   OH227888   3.368   6.323   2.114
 9316TIP3    H127889   3.406   6.322   2.202
 9316TIP3    H227890   3.282   6.364   2.126
 9317TIP3   OH227891   2.057   7.520   2.158
 9317TIP3    H127892   1.967   7.525   2.127
 9317TIP3    H227893   2.110   7.558   2.088
 9318TIP3   OH227894   6.595   2.880   6.574
 9318TIP3    H127895   6.651   2.873   6.651
 9318TIP3    H227896   6.571   2.973   6.569
 9319TIP3   OH227897   0.419   7.019   2.798
 9319TIP3    H127898   0.425   7.107   2.761
 9319TIP3    H227899   0.508   6.999   2.828
 9320TIP3   OH227900   8.241   1.586   3.156
 9320TIP3    H127901   8.181   1.556   3.088
 9320TIP3    H227902   8.185   1.631   3.220
 9321TIP3   OH227903   6.170   3.106   6.274
 9321TIP3    H127904   6.237   3.163   6.236
 9321TIP3    H227905   6.190   3.019   6.239
 9322TIP3   OH227906   1.613   2.535   5.734
 9322TIP3    H127907   1.664   2.462   5.699
 9322TIP3    H227908   1.605   2.595   5.660
 9323TIP3   OH227909   1.799   4.150   0.145
 9323TIP3    H127910   1.753   4.123   0.224
 9323TIP3    H227911   1.881   4.188   0.177
 9324TIP3   OH227912   6.229   4.802   6.825
 9324TIP3    H127913   6.210   4.846   6.908
 9324TIP3    H227914   6.200   4.864   6.758
 9325TIP3   OH227915   5.602   4.065   1.121
 9325TIP3    H127916   5.654   4.095   1.047
 9325TIP3    H227917   5.642   4.107   1.197
 9326TIP3   OH227918   5.109   7.860   6.523
 9326TIP3    H127919   5.201   7.882   6.506
 9326TIP3    H227920   5.113   7.794   6.593
 9327TIP3   OH227921   7.791   0.769   3.932
 9327TIP3    H127922   7.856   0.838   3.917
 9327TIP3    H227923   7.828   0.717   4.004
 9328TIP3   OH227924   0.192   4.502   1.020
 9328TIP3    H127925   0.255   4.551   0.966
 9328TIP3    H227926   0.162   4.432   0.962
 9329TIP3   OH227927   7.022   6.385   3.126
 9329TIP3    H127928   7.055   6.428   3.046
 9329TIP3    H227929   7.092   6.324   3.150
 9330TIP3   OH227930   7.163   6.575   4.126
 9330TIP3    H127931   7.181   6.523   4.048
 9330TIP3    H227932   7.231   6.550   4.188
 9331TIP3   OH227933   8.338   3.091   1.891
 9331TIP3    H127934   8.291   3.040   1.826
 9331TIP3    H227935   8.391   3.028   1.939
 9332TIP3   OH227936   5.373   3.151   1.522
 9332TIP3    H127937   5.382   3.096   1.444
 9332TIP3    H227938   5.458   3.195   1.530
 9333TIP3   OH227939   1.274   7.458   3.724
 9333TIP3    H127940   1.330   7.412   3.661
 9333TIP3    H227941   1.238   7.532   3.674
 9334TIP3   OH227942   1.563   0.825   2.980
 9334TIP3    H127943   1.494   0.857   3.037
 9334TIP3    H227944   1.598   0.905   2.939
 9335TIP3   OH227945   0.270   5.189   3.049
 9335TIP3    H127946   0.274   5.094   3.066
 9335TIP3    H227947   0.335   5.226   3.109
 9336TIP3   OH227948   3.510   7.247   2.847
 9336TIP3    H127949   3.540   7.167   2.890
 9336TIP3    H227950   3.586   7.277   2.797
 9337TIP3   OH227951   3.669   1.402   0.390
 9337TIP3    H127952   3.651   1.310   0.370
 9337TIP3    H227953   3.602   1.451   0.343
 9338TIP3   OH227954   2.793   1.890   3.026
 9338TIP3    H127955   2.860   1.943   3.071
 9338TIP3    H227956   2.737   1.955   2.983
 9339TIP3   OH227957   2.121   4.317   6.058
 9339TIP3    H127958   2.081   4.356   5.980
 9339TIP3    H227959   2.212   4.300   6.031
 9340TIP3   OH227960   1.309   4.110   4.466
 9340TIP3    H127961   1.223   4.140   4.438
 9340TIP3    H227962   1.353   4.189   4.496
 9341TIP3   OH227963   6.900   2.327   6.267
 9341TIP3    H127964   6.939   2.414   6.260
 9341TIP3    H227965   6.855   2.313   6.184
 9342TIP3   OH227966   0.682   5.620   6.548
 9342TIP3    H127967   0.749   5.571   6.501
 9342TIP3    H227968   0.731   5.687   6.597
 9343TIP3   OH227969   3.301   7.467   2.415
 9343TIP3    H127970   3.317   7.381   2.454
 9343TIP3    H227971   3.226   7.454   2.358
 9344TIP3   OH227972   2.989   0.799   0.542
 9344TIP3    H127973   3.082   0.821   0.547
 9344TIP3    H227974   2.968   0.765   0.629
 9345TIP3   OH227975   6.842   5.772   4.880
 9345TIP3    H127976   6.912   5.797   4.820
 9345TIP3    H227977   6.773   5.736   4.824
 9346TIP3   OH227978   4.660   7.194   5.812
 9346TIP3    H127979   4.676   7.289   5.813
 9346TIP3    H227980   4.683   7.167   5.723
 9347TIP3   OH227981   6.000   7.582   3.357
 9347TIP3    H127982   5.958   7.502   3.325
 9347TIP3    H227983   5.932   7.628   3.405
 9348TIP3   OH227984   4.980   7.808   4.560
 9348TIP3    H127985   5.006   7.863   4.487
 9348TIP3    H227986   5.062   7.782   4.601
 9349TIP3   OH227987   2.618   3.350   2.380
 9349TIP3    H127988   2.543   3.405   2.402
 9349TIP3    H227989   2.595   3.310   2.296
 9350TIP3   OH227990   6.477   4.188   1.356
 9350TIP3    H127991   6.402   4.234   1.319
 9350TIP3    H227992   6.439   4.122   1.414
 9351TIP3   OH227993   6.142   2.158   5.430
 9351TIP3    H127994   6.195   2.085   5.463
 9351TIP3    H227995   6.058   2.148   5.473
 9352TIP3   OH227996   1.525   1.347   4.382
 9352TIP3    H127997   1.590   1.308   4.324
 9352TIP3    H227998   1.516   1.437   4.351
 9353TIP3   OH227999   1.068   6.677   3.232
 9353TIP3    H128000   1.070   6.630   3.315
 9353TIP3    H228001   1.161   6.695   3.213
 9354TIP3   OH228002   8.074   0.159   4.398
 9354TIP3    H128003   8.108   0.074   4.426
 9354TIP3    H228004   8.142   0.194   4.341
 9355TIP3   OH228005   2.763   1.022   0.358
 9355TIP3    H128006   2.830   0.972   0.406
 9355TIP3    H228007   2.723   1.079   0.424
 9356TIP3   OH228008   8.212   6.366   6.144
 9356TIP3    H128009   8.253   6.303   6.203
 9356TIP3    H228010   8.198   6.444   6.197
 9357TIP3   OH228011   2.128   6.344   3.930
 9357TIP3    H128012   2.208   6.335   3.877
 9357TIP3    H228013   2.090   6.256   3.931
 9358TIP3   OH228014   7.849   1.742   6.176
 9358TIP3    H128015   7.894   1.678   6.230
 9358TIP3    H228016   7.827   1.813   6.237
 9359TIP3   OH228017   6.353   0.726   3.407
 9359TIP3    H128018   6.260   0.740   3.389
 9359TIP3    H228019   6.394   0.809   3.386
 9360TIP3   OH228020   4.492   5.390   3.472
 9360TIP3    H128021   4.522   5.337   3.398
 9360TIP3    H228022   4.423   5.446   3.435
 9361TIP3   OH228023   1.701   7.370   0.101
 9361TIP3    H128024   1.634   7.318   0.057
 9361TIP3    H228025   1.695   7.345   0.193
 9362TIP3   OH228026   3.050   3.517   2.618
 9362TIP3    H128027   2.984   3.452   2.595
 9362TIP3    H228028   3.134   3.473   2.602
 9363TIP3   OH228029   2.825   4.971   0.655
 9363TIP3    H128030   2.774   5.001   0.579
 9363TIP3    H228031   2.797   4.881   0.668
 9364TIP3   OH228032   5.464   3.650   0.424
 9364TIP3    H128033   5.534   3.585   0.416
 9364TIP3    H228034   5.404   3.631   0.352
 9365TIP3   OH228035   3.534   7.557   2.356
 9365TIP3    H128036   3.571   7.563   2.444
 9365TIP3    H228037   3.440   7.546   2.370
 9366TIP3   OH228038   2.493   1.018   3.528
 9366TIP3    H128039   2.402   1.046   3.530
 9366TIP3    H228040   2.498   0.948   3.593
 9367TIP3   OH228041   3.176   4.476   1.910
 9367TIP3    H128042   3.181   4.571   1.917
 9367TIP3    H228043   3.259   4.450   1.871
 9368TIP3   OH228044   0.498   4.846   3.448
 9368TIP3    H128045   0.426   4.845   3.511
 9368TIP3    H228046   0.496   4.760   3.407
 9369TIP3   OH228047   8.069   3.508   5.325
 9369TIP3    H128048   7.975   3.524   5.311
 9369TIP3    H228049   8.090   3.436   5.266
 9370TIP3   OH228050   2.232   3.751   3.792
 9370TIP3    H128051   2.279   3.809   3.852
 9370TIP3    H228052   2.146   3.792   3.780
 9371TIP3   OH228053   6.167   7.083   5.110
 9371TIP3    H128054   6.104   7.151   5.085
 9371TIP3    H228055   6.216   7.121   5.182
 9372TIP3   OH228056   6.967   7.890   5.162
 9372TIP3    H128057   7.026   7.817   5.142
 9372TIP3    H228058   6.890   7.875   5.108
 9373TIP3   OH228059   8.221   3.438   3.204
 9373TIP3    H128060   8.157   3.408   3.139
 9373TIP3    H228061   8.229   3.532   3.187
 9374TIP3   OH228062   5.638   4.524   1.927
 9374TIP3    H128063   5.646   4.481   1.842
 9374TIP3    H228064   5.582   4.601   1.910
 9375TIP3   OH228065   6.063   5.604   2.741
 9375TIP3    H128066   6.135   5.650   2.697
 9375TIP3    H228067   6.101   5.573   2.823
 9376TIP3   OH228068   2.193   1.731   5.174
 9376TIP3    H128069   2.201   1.731   5.269
 9376TIP3    H228070   2.149   1.649   5.154
 9377TIP3   OH228071   3.884   5.250   6.760
 9377TIP3    H128072   3.969   5.242   6.718
 9377TIP3    H228073   3.821   5.245   6.687
 9378TIP3   OH228074   2.834   6.791   4.740
 9378TIP3    H128075   2.742   6.805   4.721
 9378TIP3    H228076   2.835   6.730   4.813
 9379TIP3   OH228077   5.240   7.427   2.850
 9379TIP3    H128078   5.288   7.407   2.770
 9379TIP3    H228079   5.149   7.432   2.823
 9380TIP3   OH228080   5.800   7.743   2.516
 9380TIP3    H128081   5.711   7.743   2.551
 9380TIP3    H228082   5.838   7.661   2.548
 9381TIP3   OH228083   3.041   1.529   6.779
 9381TIP3    H128084   3.058   1.613   6.823
 9381TIP3    H228085   2.976   1.486   6.834
 9382TIP3   OH228086   2.051   7.594   5.086
 9382TIP3    H128087   1.969   7.643   5.077
 9382TIP3    H228088   2.106   7.650   5.141
 9383TIP3   OH228089   0.302   0.488   4.657
 9383TIP3    H128090   0.256   0.556   4.608
 9383TIP3    H228091   0.344   0.435   4.589
 9384TIP3   OH228092   8.354   5.605   5.860
 9384TIP3    H128093   8.299   5.544   5.811
 9384TIP3    H228094   8.299   5.682   5.872
 9385TIP3   OH228095   0.017   4.341   4.261
 9385TIP3    H128096   0.043   4.249   4.253
 9385TIP3    H228097   0.100   4.389   4.266
 9386TIP3   OH228098   5.960   2.876   2.485
 9386TIP3    H128099   5.913   2.804   2.443
 9386TIP3    H228100   5.929   2.955   2.441
 9387TIP3   OH228101   4.059   0.955   4.605
 9387TIP3    H128102   4.060   0.959   4.509
 9387TIP3    H228103   3.967   0.968   4.628
 9388TIP3   OH228104   1.353   7.454   2.857
 9388TIP3    H128105   1.413   7.503   2.913
 9388TIP3    H228106   1.366   7.363   2.882
 9389TIP3   OH228107   3.090   1.733   3.321
 9389TIP3    H128108   3.103   1.828   3.317
 9389TIP3    H228109   3.095   1.705   3.230
 9390TIP3   OH228110   2.632   0.389   1.750
 9390TIP3    H128111   2.683   0.468   1.732
 9390TIP3    H228112   2.624   0.387   1.846
 9391TIP3   OH228113   5.766   2.819   2.162
 9391TIP3    H128114   5.777   2.906   2.200
 9391TIP3    H228115   5.780   2.759   2.235
 9392TIP3   OH228116   4.586   2.975   4.723
 9392TIP3    H128117   4.656   2.910   4.715
 9392TIP3    H228118   4.538   2.949   4.801
 9393TIP3   OH228119   3.215   7.016   6.120
 9393TIP3    H128120   3.224   7.093   6.176
 9393TIP3    H228121   3.128   6.981   6.140
 9394TIP3   OH228122   5.429   3.477   5.793
 9394TIP3    H128123   5.449   3.484   5.886
 9394TIP3    H228124   5.338   3.506   5.785
 9395TIP3   OH228125   2.176   3.306   0.261
 9395TIP3    H128126   2.134   3.224   0.235
 9395TIP3    H228127   2.242   3.280   0.325
 9396TIP3   OH228128   1.428   5.891   3.743
 9396TIP3    H128129   1.424   5.975   3.789
 9396TIP3    H228130   1.340   5.855   3.750
 9397TIP3   OH228131   6.790   5.480   4.476
 9397TIP3    H128132   6.829   5.404   4.434
 9397TIP3    H228133   6.858   5.548   4.471
 9398TIP3   OH228134   6.478   3.908   0.052
 9398TIP3    H128135   6.539   3.902   0.125
 9398TIP3    H228136   6.436   3.994   0.062
 9399TIP3   OH228137   7.552   2.323   5.812
 9399TIP3    H128138   7.563   2.417   5.796
 9399TIP3    H228139   7.622   2.281   5.763
 9400TIP3   OH228140   3.279   0.746   2.546
 9400TIP3    H128141   3.364   0.701   2.544
 9400TIP3    H228142   3.283   0.806   2.472
 9401TIP3   OH228143   4.817   5.799   6.779
 9401TIP3    H128144   4.752   5.855   6.820
 9401TIP3    H228145   4.896   5.811   6.832
 9402TIP3   OH228146   4.395   6.475   3.301
 9402TIP3    H128147   4.423   6.449   3.213
 9402TIP3    H228148   4.406   6.397   3.354
 9403TIP3   OH228149   2.130   1.785   2.970
 9403TIP3    H128150   2.183   1.855   2.931
 9403TIP3    H228151   2.042   1.799   2.934
 9404TIP3   OH228152   1.496   3.560   0.274
 9404TIP3    H128153   1.468   3.631   0.216
 9404TIP3    H228154   1.576   3.527   0.234
 9405TIP3   OH228155   1.297   5.400   4.689
 9405TIP3    H128156   1.229   5.459   4.657
 9405TIP3    H228157   1.265   5.373   4.775
 9406TIP3   OH228158   1.094   5.884   0.271
 9406TIP3    H128159   1.174   5.833   0.259
 9406TIP3    H228160   1.108   5.963   0.219
 9407TIP3   OH228161   6.950   7.691   5.791
 9407TIP3    H128162   7.019   7.646   5.839
 9407TIP3    H228163   6.869   7.668   5.836
 9408TIP3   OH228164   5.394   6.144   4.185
 9408TIP3    H128165   5.442   6.104   4.113
 9408TIP3    H228166   5.304   6.115   4.173
 9409TIP3   OH228167   5.211   1.139   3.396
 9409TIP3    H128168   5.156   1.074   3.353
 9409TIP3    H228169   5.195   1.126   3.489
 9410TIP3   OH228170   5.789   7.306   1.050
 9410TIP3    H128171   5.788   7.237   1.116
 9410TIP3    H228172   5.843   7.375   1.088
 9411TIP3   OH228173   4.753   6.829   4.801
 9411TIP3    H128174   4.701   6.782   4.735
 9411TIP3    H228175   4.734   6.921   4.785
 9412TIP3   OH228176   7.151   3.392   2.008
 9412TIP3    H128177   7.101   3.356   2.081
 9412TIP3    H228178   7.222   3.442   2.049
 9413TIP3   OH228179   4.996   7.915   5.169
 9413TIP3    H128180   4.918   7.892   5.220
 9413TIP3    H228181   5.048   7.835   5.167
 9414TIP3   OH228182   5.254   6.198   3.625
 9414TIP3    H128183   5.341   6.161   3.613
 9414TIP3    H228184   5.195   6.131   3.591
 9415TIP3   OH228185   2.602   1.082   1.380
 9415TIP3    H128186   2.547   1.070   1.457
 9415TIP3    H228187   2.623   0.993   1.352
 9416TIP3   OH228188   3.792   1.351   5.387
 9416TIP3    H128189   3.730   1.279   5.378
 9416TIP3    H228190   3.772   1.409   5.313
 9417TIP3   OH228191   1.112   3.113   2.289
 9417TIP3    H128192   1.118   3.144   2.199
 9417TIP3    H228193   1.198   3.135   2.327
 9418TIP3   OH228194   2.178   1.912   3.565
 9418TIP3    H128195   2.252   1.950   3.613
 9418TIP3    H228196   2.213   1.831   3.527
 9419TIP3   OH228197   5.510   4.758   3.469
 9419TIP3    H128198   5.558   4.718   3.397
 9419TIP3    H228199   5.536   4.850   3.468
 9420TIP3   OH228200   7.823   0.510   6.119
 9420TIP3    H128201   7.916   0.496   6.136
 9420TIP3    H228202   7.784   0.519   6.206
 9421TIP3   OH228203   1.641   0.212   1.747
 9421TIP3    H128204   1.707   0.278   1.769
 9421TIP3    H228205   1.666   0.182   1.659
 9422TIP3   OH228206   1.668   7.706   6.623
 9422TIP3    H128207   1.748   7.751   6.597
 9422TIP3    H228208   1.615   7.773   6.665
 9423TIP3   OH228209   7.156   6.674   5.862
 9423TIP3    H128210   7.215   6.599   5.871
 9423TIP3    H228211   7.185   6.717   5.781
 9424TIP3   OH228212   7.793   6.134   2.694
 9424TIP3    H128213   7.700   6.144   2.717
 9424TIP3    H228214   7.814   6.044   2.720
 9425TIP3   OH228215   2.920   5.290   0.750
 9425TIP3    H128216   2.992   5.250   0.798
 9425TIP3    H228217   2.913   5.238   0.670
 9426TIP3   OH228218   2.720   0.292   5.996
 9426TIP3    H128219   2.791   0.317   6.055
 9426TIP3    H228220   2.762   0.241   5.927
 9427TIP3   OH228221   0.215   5.574   3.796
 9427TIP3    H128222   0.132   5.536   3.766
 9427TIP3    H228223   0.265   5.588   3.716
 9428TIP3   OH228224   8.099   4.344   4.761
 9428TIP3    H128225   8.120   4.252   4.781
 9428TIP3    H228226   8.117   4.352   4.667
 9429TIP3   OH228227   4.546   7.884   0.865
 9429TIP3    H128228   4.527   7.790   0.870
 9429TIP3    H228229   4.483   7.924   0.925
 9430TIP3   OH228230   7.420   5.377   6.713
 9430TIP3    H128231   7.482   5.449   6.715
 9430TIP3    H228232   7.474   5.298   6.720
 9431TIP3   OH228233   5.957   7.118   3.838
 9431TIP3    H128234   5.920   7.139   3.924
 9431TIP3    H228235   5.883   7.085   3.788
 9432TIP3   OH228236   2.519   1.996   5.828
 9432TIP3    H128237   2.522   1.941   5.907
 9432TIP3    H228238   2.546   2.083   5.859
 9433TIP3   OH228239   2.317   6.885   5.804
 9433TIP3    H128240   2.304   6.973   5.839
 9433TIP3    H228241   2.388   6.849   5.857
 9434TIP3   OH228242   6.593   5.392   3.154
 9434TIP3    H128243   6.516   5.438   3.121
 9434TIP3    H228244   6.566   5.357   3.239
 9435TIP3   OH228245   0.835   2.089   5.379
 9435TIP3    H128246   0.772   2.026   5.345
 9435TIP3    H228247   0.781   2.155   5.424
 9436TIP3   OH228248   6.026   2.076   3.060
 9436TIP3    H128249   5.996   2.166   3.076
 9436TIP3    H228250   5.959   2.021   3.100
 9437TIP3   OH228251   5.045   3.182   0.565
 9437TIP3    H128252   4.984   3.112   0.542
 9437TIP3    H228253   5.072   3.218   0.481
 9438TIP3   OH228254   4.366   3.679   5.379
 9438TIP3    H128255   4.414   3.657   5.459
 9438TIP3    H228256   4.312   3.755   5.403
 9439TIP3   OH228257   5.449   7.862   3.241
 9439TIP3    H128258   5.539   7.890   3.226
 9439TIP3    H228259   5.455   7.802   3.316
 9440TIP3   OH228260   1.286   6.225   5.016
 9440TIP3    H128261   1.298   6.320   5.007
 9440TIP3    H228262   1.308   6.206   5.107
 9441TIP3   OH228263   0.211   4.928   3.055
 9441TIP3    H128264   0.251   4.853   3.098
 9441TIP3    H228265   0.121   4.928   3.088
 9442TIP3   OH228266   8.350   6.000   1.195
 9442TIP3    H128267   8.351   6.021   1.288
 9442TIP3    H228268   8.281   5.935   1.185
 9443TIP3   OH228269   3.255   1.143   4.659
 9443TIP3    H128270   3.223   1.224   4.699
 9443TIP3    H228271   3.324   1.171   4.600
 9444TIP3   OH228272   4.117   7.858   1.333
 9444TIP3    H128273   4.151   7.938   1.294
 9444TIP3    H228274   4.121   7.793   1.262
 9445TIP3   OH228275   6.862   0.573   2.460
 9445TIP3    H128276   6.840   0.582   2.553
 9445TIP3    H228277   6.949   0.533   2.459
 9446TIP3   OH228278   1.006   1.096   1.926
 9446TIP3    H128279   1.001   1.159   1.998
 9446TIP3    H228280   0.996   1.010   1.968
 9447TIP3   OH228281   5.861   6.641   5.568
 9447TIP3    H128282   5.807   6.651   5.646
 9447TIP3    H228283   5.905   6.557   5.579
 9448TIP3   OH228284   4.873   4.211   2.234
 9448TIP3    H128285   4.789   4.182   2.270
 9448TIP3    H228286   4.907   4.274   2.298
 9449TIP3   OH228287   3.802   5.608   5.449
 9449TIP3    H128288   3.783   5.621   5.356
 9449TIP3    H228289   3.723   5.637   5.494
 9450TIP3   OH228290   0.655   3.307   3.816
 9450TIP3    H128291   0.587   3.239   3.814
 9450TIP3    H228292   0.612   3.382   3.858
 9451TIP3   OH228293   1.502   4.078   1.183
 9451TIP3    H128294   1.594   4.102   1.181
 9451TIP3    H228295   1.458   4.144   1.131
 9452TIP3   OH228296   0.453   0.761   3.117
 9452TIP3    H128297   0.423   0.708   3.190
 9452TIP3    H228298   0.441   0.851   3.145
 9453TIP3   OH228299   3.744   7.069   3.120
 9453TIP3    H128300   3.793   7.009   3.176
 9453TIP3    H228301   3.744   7.027   3.034
 9454TIP3   OH228302   4.734   0.735   6.300
 9454TIP3    H128303   4.802   0.697   6.356
 9454TIP3    H228304   4.697   0.660   6.254
 9455TIP3   OH228305   1.145   4.414   6.757
 9455TIP3    H128306   1.159   4.416   6.662
 9455TIP3    H228307   1.176   4.327   6.784
 9456TIP3   OH228308   3.720   2.516   4.279
 9456TIP3    H128309   3.815   2.506   4.291
 9456TIP3    H228310   3.712   2.564   4.197
 9457TIP3   OH228311   0.965   6.504   0.743
 9457TIP3    H128312   0.925   6.574   0.795
 9457TIP3    H228313   0.963   6.428   0.801
 9458TIP3   OH228314   7.872   1.877   1.079
 9458TIP3    H128315   7.958   1.917   1.071
 9458TIP3    H228316   7.880   1.814   1.151
 9459TIP3   OH228317   7.669   4.219   5.786
 9459TIP3    H128318   7.672   4.280   5.860
 9459TIP3    H228319   7.601   4.254   5.729
 9460TIP3   OH228320   0.946   3.295   2.421
 9460TIP3    H128321   1.009   3.226   2.401
 9460TIP3    H228322   0.862   3.260   2.391
 9461TIP3   OH228323   1.356   6.646   5.562
 9461TIP3    H128324   1.373   6.638   5.656
 9461TIP3    H228325   1.391   6.565   5.524
 9462TIP3   OH228326   3.193   6.371   3.608
 9462TIP3    H128327   3.101   6.398   3.603
 9462TIP3    H228328   3.240   6.435   3.556
 9463TIP3   OH228329   0.386   0.163   3.060
 9463TIP3    H128330   0.329   0.234   3.091
 9463TIP3    H228331   0.338   0.125   2.987
 9464TIP3   OH228332   4.314   0.103   1.722
 9464TIP3    H128333   4.284   0.170   1.784
 9464TIP3    H228334   4.361   0.040   1.776
 9465TIP3   OH228335   4.553   6.381   1.288
 9465TIP3    H128336   4.524   6.385   1.379
 9465TIP3    H228337   4.644   6.352   1.293
 9466TIP3   OH228338   1.695   2.853   2.662
 9466TIP3    H128339   1.764   2.787   2.665
 9466TIP3    H228340   1.742   2.936   2.663
 9467TIP3   OH228341   4.000   3.635   1.494
 9467TIP3    H128342   3.915   3.626   1.451
 9467TIP3    H228343   4.056   3.571   1.449
 9468TIP3   OH228344   2.861   6.839   0.770
 9468TIP3    H128345   2.827   6.840   0.681
 9468TIP3    H228346   2.800   6.894   0.820
 9469TIP3   OH228347   2.348   7.858   2.963
 9469TIP3    H128348   2.287   7.786   2.950
 9469TIP3    H228349   2.372   7.852   3.056
 9470TIP3   OH228350   3.660   3.398   0.269
 9470TIP3    H128351   3.669   3.322   0.212
 9470TIP3    H228352   3.655   3.361   0.357
 9471TIP3   OH228353   2.277   3.993   0.525
 9471TIP3    H128354   2.269   4.084   0.552
 9471TIP3    H228355   2.266   3.943   0.606
 9472TIP3   OH228356   2.258   1.861   0.041
 9472TIP3    H128357   2.318   1.791   0.069
 9472TIP3    H228358   2.295   1.941   0.078
 9473TIP3   OH228359   7.097   5.494   5.834
 9473TIP3    H128360   7.075   5.534   5.919
 9473TIP3    H228361   7.183   5.530   5.813
 9474TIP3   OH228362   4.219   2.203   2.366
 9474TIP3    H128363   4.149   2.163   2.314
 9474TIP3    H228364   4.177   2.229   2.448
 9475TIP3   OH228365   2.852   2.563   1.470
 9475TIP3    H128366   2.793   2.639   1.471
 9475TIP3    H228367   2.852   2.532   1.561
 9476TIP3   OH228368   6.033   1.399   0.782
 9476TIP3    H128369   6.114   1.366   0.822
 9476TIP3    H228370   6.053   1.405   0.689
 9477TIP3   OH228371   0.272   1.159   4.299
 9477TIP3    H128372   0.273   1.099   4.225
 9477TIP3    H228373   0.193   1.138   4.347
 9478TIP3   OH228374   0.260   1.434   6.425
 9478TIP3    H128375   0.215   1.370   6.369
 9478TIP3    H228376   0.350   1.403   6.429
 9479TIP3   OH228377   1.497   5.593   1.186
 9479TIP3    H128378   1.494   5.522   1.122
 9479TIP3    H228379   1.483   5.549   1.270
 9480TIP3   OH228380   1.150   5.547   6.862
 9480TIP3    H128381   1.096   5.614   6.904
 9480TIP3    H228382   1.097   5.516   6.788
 9481TIP3   OH228383   0.355   4.607   0.818
 9481TIP3    H128384   0.428   4.615   0.757
 9481TIP3    H228385   0.291   4.671   0.787
 9482TIP3   OH228386   2.008   4.342   3.722
 9482TIP3    H128387   2.029   4.255   3.689
 9482TIP3    H228388   1.912   4.344   3.727
 9483TIP3   OH228389   0.763   4.338   3.898
 9483TIP3    H128390   0.721   4.424   3.902
 9483TIP3    H228391   0.714   4.290   3.831
 9484TIP3   OH228392   5.265   6.923   0.368
 9484TIP3    H128393   5.310   6.884   0.443
 9484TIP3    H228394   5.306   6.882   0.291
 9485TIP3   OH228395   0.036   7.216   5.371
 9485TIP3    H128396   0.122   7.226   5.413
 9485TIP3    H228397   0.036   7.282   5.302
 9486TIP3   OH228398   4.867   1.771   4.751
 9486TIP3    H128399   4.864   1.867   4.753
 9486TIP3    H228400   4.960   1.750   4.749
 9487TIP3   OH228401   3.825   2.335   2.594
 9487TIP3    H128402   3.733   2.354   2.610
 9487TIP3    H228403   3.839   2.359   2.502
 9488TIP3   OH228404   2.473   0.072   5.479
 9488TIP3    H128405   2.530   0.077   5.402
 9488TIP3    H228406   2.523   0.022   5.543
 9489TIP3   OH228407   5.286   0.232   3.690
 9489TIP3    H128408   5.348   0.280   3.635
 9489TIP3    H228409   5.308   0.140   3.676
 9490TIP3   OH228410   7.887   3.236   6.707
 9490TIP3    H128411   7.942   3.278   6.641
 9490TIP3    H228412   7.802   3.280   6.700
 9491TIP3   OH228413   2.650   5.005   1.279
 9491TIP3    H128414   2.602   4.927   1.253
 9491TIP3    H228415   2.741   4.985   1.258
 9492TIP3   OH228416   1.575   0.215   2.288
 9492TIP3    H128417   1.481   0.217   2.270
 9492TIP3    H228418   1.600   0.307   2.295
 9493TIP3   OH228419   4.913   6.327   5.883
 9493TIP3    H128420   4.999   6.369   5.877
 9493TIP3    H228421   4.923   6.245   5.835
 9494TIP3   OH228422   4.960   4.261   4.082
 9494TIP3    H128423   4.900   4.217   4.022
 9494TIP3    H228424   5.034   4.200   4.091
 9495TIP3   OH228425   2.095   2.673   1.670
 9495TIP3    H128426   2.108   2.651   1.763
 9495TIP3    H228427   2.144   2.605   1.623
 9496TIP3   OH228428   4.289   2.216   5.780
 9496TIP3    H128429   4.276   2.135   5.730
 9496TIP3    H228430   4.207   2.264   5.769
 9497TIP3   OH228431   4.471   7.076   3.873
 9497TIP3    H128432   4.416   6.998   3.879
 9497TIP3    H228433   4.544   7.050   3.817
 9498TIP3   OH228434   5.251   7.075   6.712
 9498TIP3    H128435   5.214   7.155   6.674
 9498TIP3    H228436   5.191   7.051   6.782
 9499TIP3   OH228437   2.738   2.656   2.256
 9499TIP3    H128438   2.788   2.575   2.247
 9499TIP3    H228439   2.725   2.665   2.350
 9500TIP3   OH228440   3.991   2.993   4.982
 9500TIP3    H128441   3.964   2.933   5.051
 9500TIP3    H228442   4.084   3.010   5.000
 9501TIP3   OH228443   2.793   5.178   1.949
 9501TIP3    H128444   2.841   5.238   1.892
 9501TIP3    H228445   2.721   5.231   1.984
 9502TIP3   OH228446   3.554   5.128   6.258
 9502TIP3    H128447   3.493   5.195   6.287
 9502TIP3    H228448   3.520   5.101   6.172
 9503TIP3   OH228449   1.503   2.262   1.794
 9503TIP3    H128450   1.489   2.262   1.699
 9503TIP3    H228451   1.572   2.197   1.808
 9504TIP3   OH228452   2.735   3.243   5.296
 9504TIP3    H128453   2.819   3.208   5.267
 9504TIP3    H228454   2.752   3.275   5.384
 9505TIP3   OH228455   0.699   2.194   4.876
 9505TIP3    H128456   0.757   2.147   4.816
 9505TIP3    H228457   0.615   2.197   4.831
 9506TIP3   OH228458   3.899   3.020   0.088
 9506TIP3    H128459   3.954   2.986   0.018
 9506TIP3    H228460   3.946   2.999   0.168
 9507TIP3   OH228461   1.521   5.312   3.416
 9507TIP3    H128462   1.460   5.385   3.423
 9507TIP3    H228463   1.482   5.254   3.351
 9508TIP3   OH228464   5.998   1.141   0.973
 9508TIP3    H128465   6.013   1.208   0.908
 9508TIP3    H228466   5.964   1.066   0.924
 9509TIP3   OH228467   7.605   1.381   4.244
 9509TIP3    H128468   7.574   1.292   4.227
 9509TIP3    H228469   7.648   1.407   4.162
 9510TIP3   OH228470   3.983   0.309   3.163
 9510TIP3    H128471   3.910   0.258   3.199
 9510TIP3    H228472   4.050   0.306   3.232
 9511TIP3   OH228473   1.118   6.332   2.890
 9511TIP3    H128474   1.200   6.381   2.883
 9511TIP3    H228475   1.068   6.379   2.957
 9512TIP3   OH228476   3.555   3.578   2.142
 9512TIP3    H128477   3.560   3.673   2.132
 9512TIP3    H228478   3.635   3.555   2.189
 9513TIP3   OH228479   1.664   0.994   4.821
 9513TIP3    H128480   1.593   0.937   4.794
 9513TIP3    H228481   1.735   0.974   4.760
 9514TIP3   OH228482   5.188   5.788   2.006
 9514TIP3    H128483   5.116   5.841   2.040
 9514TIP3    H228484   5.266   5.826   2.045
 9515TIP3   OH228485   7.187   5.485   6.816
 9515TIP3    H128486   7.267   5.446   6.780
 9515TIP3    H228487   7.215   5.568   6.853
 9516TIP3   OH228488   6.098   3.126   3.788
 9516TIP3    H128489   6.030   3.076   3.833
 9516TIP3    H228490   6.063   3.214   3.782
 9517TIP3   OH228491   3.893   6.241   2.672
 9517TIP3    H128492   3.844   6.193   2.739
 9517TIP3    H228493   3.847   6.325   2.664
 9518TIP3   OH228494   6.718   0.456   6.246
 9518TIP3    H128495   6.810   0.480   6.252
 9518TIP3    H228496   6.670   0.536   6.269
 9519TIP3   OH228497   0.616   0.013   0.534
 9519TIP3    H128498   0.610   0.080   0.602
 9519TIP3    H228499   0.535  -0.038   0.542
 9520TIP3   OH228500   2.705   4.061   2.624
 9520TIP3    H128501   2.772   4.112   2.670
 9520TIP3    H228502   2.755   3.997   2.572
 9521TIP3   OH228503   5.935   6.228   5.030
 9521TIP3    H128504   5.985   6.224   4.949
 9521TIP3    H228505   5.943   6.319   5.059
 9522TIP3   OH228506   4.223   1.907   4.206
 9522TIP3    H128507   4.203   1.818   4.176
 9522TIP3    H228508   4.175   1.964   4.147
 9523TIP3   OH228509   2.493   1.833   2.321
 9523TIP3    H128510   2.565   1.884   2.358
 9523TIP3    H228511   2.533   1.781   2.252
 9524TIP3   OH228512   4.588   7.207   0.590
 9524TIP3    H128513   4.514   7.147   0.590
 9524TIP3    H228514   4.568   7.270   0.521
 9525TIP3   OH228515   1.649   7.395   5.484
 9525TIP3    H128516   1.601   7.363   5.408
 9525TIP3    H228517   1.671   7.316   5.534
 9526TIP3   OH228518   2.627   5.140   2.247
 9526TIP3    H128519   2.702   5.182   2.289
 9526TIP3    H228520   2.649   5.047   2.246
 9527TIP3   OH228521   3.499   2.610   0.585
 9527TIP3    H128522   3.502   2.634   0.678
 9527TIP3    H228523   3.591   2.601   0.560
 9528TIP3   OH228524   2.572   1.387   2.942
 9528TIP3    H128525   2.478   1.371   2.932
 9528TIP3    H228526   2.582   1.482   2.931
 9529TIP3   OH228527   6.577   5.680   4.003
 9529TIP3    H128528   6.539   5.682   3.915
 9529TIP3    H228529   6.671   5.673   3.989
 9530TIP3   OH228530   7.960   4.979   2.521
 9530TIP3    H128531   8.023   5.051   2.523
 9530TIP3    H228532   8.008   4.904   2.553
 9531TIP3   OH228533   6.038   0.066   3.173
 9531TIP3    H128534   5.959   0.105   3.212
 9531TIP3    H228535   6.104   0.136   3.177
 9532TIP3   OH228536   2.493   1.112   4.780
 9532TIP3    H128537   2.566   1.053   4.800
 9532TIP3    H228538   2.431   1.098   4.851
 9533TIP3   OH228539   6.421   0.708   0.014
 9533TIP3    H128540   6.516   0.719   0.009
 9533TIP3    H228541   6.387   0.798   0.022
 9534TIP3   OH228542   2.644   0.452   4.474
 9534TIP3    H128543   2.613   0.451   4.384
 9534TIP3    H228544   2.734   0.485   4.469
 9535TIP3   OH228545   6.061   7.357   2.378
 9535TIP3    H128546   6.141   7.305   2.387
 9535TIP3    H228547   6.004   7.305   2.323
 9536TIP3   OH228548   0.416   7.726   4.529
 9536TIP3    H128549   0.437   7.803   4.477
 9536TIP3    H228550   0.492   7.714   4.586
 9537TIP3   OH228551   6.185   2.728   1.720
 9537TIP3    H128552   6.226   2.646   1.747
 9537TIP3    H228553   6.257   2.784   1.691
 9538TIP3   OH228554   4.594   6.291   0.648
 9538TIP3    H128555   4.598   6.202   0.683
 9538TIP3    H228556   4.517   6.290   0.591
 9539TIP3   OH228557   3.703   6.261   3.795
 9539TIP3    H128558   3.690   6.352   3.820
 9539TIP3    H228559   3.788   6.237   3.832
 9540TIP3   OH228560   1.931   6.954   3.030
 9540TIP3    H128561   1.902   6.863   3.039
 9540TIP3    H228562   1.859   6.998   2.986
 9541TIP3   OH228563   1.312   1.802   3.929
 9541TIP3    H128564   1.300   1.805   4.024
 9541TIP3    H228565   1.278   1.716   3.903
 9542TIP3   OH228566   5.723   2.318   5.025
 9542TIP3    H128567   5.657   2.290   5.088
 9542TIP3    H228568   5.792   2.252   5.032
 9543TIP3   OH228569   6.310   3.917   0.475
 9543TIP3    H128570   6.326   3.998   0.426
 9543TIP3    H228571   6.373   3.920   0.547
 9544TIP3   OH228572  -0.017   7.677   3.385
 9544TIP3    H128573  -0.033   7.693   3.292
 9544TIP3    H228574   0.076   7.699   3.397
 9545TIP3   OH228575   4.058   7.160   1.094
 9545TIP3    H128576   3.981   7.127   1.141
 9545TIP3    H228577   4.132   7.138   1.152
 9546TIP3   OH228578   4.037   0.993   1.333
 9546TIP3    H128579   4.121   0.970   1.294
 9546TIP3    H228580   3.983   1.019   1.258
 9547TIP3   OH228581   6.076   7.074   4.520
 9547TIP3    H128582   6.018   7.111   4.586
 9547TIP3    H228583   6.025   7.075   4.439
 9548TIP3   OH228584   5.989   0.531   5.945
 9548TIP3    H128585   6.017   0.448   5.984
 9548TIP3    H228586   6.012   0.524   5.853
 9549TIP3   OH228587   1.098   1.194   3.200
 9549TIP3    H128588   1.029   1.249   3.162
 9549TIP3    H228589   1.050   1.119   3.236
 9550TIP3   OH228590   0.489   6.650   6.672
 9550TIP3    H128591   0.540   6.627   6.750
 9550TIP3    H228592   0.399   6.658   6.703
 9551TIP3   OH228593   8.062   7.232   2.813
 9551TIP3    H128594   8.111   7.152   2.834
 9551TIP3    H228595   7.975   7.200   2.789
 9552TIP3   OH228596   6.155   7.400   0.154
 9552TIP3    H128597   6.102   7.459   0.209
 9552TIP3    H228598   6.245   7.422   0.176
 9553TIP3   OH228599   7.014   2.242   4.583
 9553TIP3    H128600   6.968   2.226   4.665
 9553TIP3    H228601   6.947   2.235   4.515
 9554TIP3   OH228602   5.850   3.313   1.628
 9554TIP3    H128603   5.935   3.272   1.613
 9554TIP3    H228604   5.865   3.372   1.701
 9555TIP3   OH228605   3.071   6.823   5.304
 9555TIP3    H128606   3.096   6.840   5.214
 9555TIP3    H228607   3.151   6.790   5.345
 9556TIP3   OH228608   6.887   6.259   1.058
 9556TIP3    H128609   6.946   6.244   1.132
 9556TIP3    H228610   6.898   6.352   1.037
 9557TIP3   OH228611   4.548   1.667   2.272
 9557TIP3    H128612   4.570   1.722   2.347
 9557TIP3    H228613   4.632   1.631   2.244
 9558TIP3   OH228614   3.214   4.749   4.004
 9558TIP3    H128615   3.142   4.789   4.052
 9558TIP3    H228616   3.291   4.763   4.058
 9559TIP3   OH228617   3.941   3.553   6.265
 9559TIP3    H128618   4.026   3.580   6.302
 9559TIP3    H228619   3.896   3.512   6.339
 9560TIP3   OH228620   0.161   3.682   3.081
 9560TIP3    H128621   0.116   3.766   3.089
 9560TIP3    H228622   0.112   3.636   3.012
 9561TIP3   OH228623   8.326   5.597   5.510
 9561TIP3    H128624   8.262   5.528   5.494
 9561TIP3    H228625   8.364   5.615   5.424
 9562TIP3   OH228626   4.842   6.186   0.047
 9562TIP3    H128627   4.752   6.194   0.017
 9562TIP3    H228628   4.843   6.229   0.133
 9563TIP3   OH228629   2.109   2.639   3.029
 9563TIP3    H128630   2.025   2.614   3.069
 9563TIP3    H228631   2.123   2.729   3.058
 9564TIP3   OH228632   1.518   0.848   3.442
 9564TIP3    H128633   1.470   0.927   3.468
 9564TIP3    H228634   1.565   0.822   3.521
 9565TIP3   OH228635   1.139   2.128   2.462
 9565TIP3    H128636   1.151   2.184   2.539
 9565TIP3    H228637   1.137   2.039   2.496
 9566TIP3   OH228638   3.505   3.724   3.317
 9566TIP3    H128639   3.488   3.769   3.400
 9566TIP3    H228640   3.450   3.770   3.253
 9567TIP3   OH228641   0.472   5.749   3.583
 9567TIP3    H128642   0.525   5.821   3.550
 9567TIP3    H228643   0.535   5.683   3.611
 9568TIP3   OH228644   5.650   6.248   0.604
 9568TIP3    H128645   5.698   6.171   0.634
 9568TIP3    H228646   5.713   6.295   0.549
 9569TIP3   OH228647   2.358   3.077   1.829
 9569TIP3    H128648   2.367   2.986   1.800
 9569TIP3    H228649   2.435   3.093   1.882
 9570TIP3   OH228650   7.183   4.176   4.229
 9570TIP3    H128651   7.189   4.100   4.170
 9570TIP3    H228652   7.236   4.243   4.187
 9571TIP3   OH228653   0.828   5.544   4.891
 9571TIP3    H128654   0.751   5.594   4.920
 9571TIP3    H228655   0.872   5.518   4.971
 9572TIP3   OH228656   2.734   4.762   4.556
 9572TIP3    H128657   2.759   4.670   4.556
 9572TIP3    H228658   2.766   4.796   4.473
 9573TIP3   OH228659   2.719   2.851   6.253
 9573TIP3    H128660   2.701   2.928   6.307
 9573TIP3    H228661   2.738   2.781   6.315
 9574TIP3   OH228662   2.418   1.828   4.173
 9574TIP3    H128663   2.388   1.738   4.183
 9574TIP3    H228664   2.442   1.836   4.081
 9575TIP3   OH228665   4.949   4.372   2.762
 9575TIP3    H128666   4.855   4.390   2.768
 9575TIP3    H228667   4.959   4.318   2.684
 9576TIP3   OH228668   0.225   5.019   3.839
 9576TIP3    H128669   0.138   5.059   3.846
 9576TIP3    H228670   0.256   5.014   3.930
 9577TIP3   OH228671   3.518   2.814   6.193
 9577TIP3    H128672   3.532   2.836   6.285
 9577TIP3    H228673   3.556   2.726   6.184
 9578TIP3   OH228674   1.496   5.585   4.843
 9578TIP3    H128675   1.465   5.524   4.776
 9578TIP3    H228676   1.421   5.639   4.863
 9579TIP3   OH228677   7.662   2.735   2.165
 9579TIP3    H128678   7.602   2.671   2.126
 9579TIP3    H228679   7.629   2.747   2.254
 9580TIP3   OH228680   1.053   5.186   3.071
 9580TIP3    H128681   1.006   5.103   3.073
 9580TIP3    H228682   1.111   5.179   2.994
 9581TIP3   OH228683   7.388   3.549   2.013
 9581TIP3    H128684   7.415   3.582   2.099
 9581TIP3    H228685   7.468   3.550   1.961
 9582TIP3   OH228686   0.193   1.313   0.432
 9582TIP3    H128687   0.264   1.338   0.491
 9582TIP3    H228688   0.213   1.223   0.408
 9583TIP3   OH228689   4.517   4.312   3.978
 9583TIP3    H128690   4.587   4.327   3.915
 9583TIP3    H228691   4.448   4.270   3.927
 9584TIP3   OH228692   0.937   7.816   3.549
 9584TIP3    H128693   0.910   7.890   3.604
 9584TIP3    H228694   0.857   7.764   3.539
 9585TIP3   OH228695   3.568   0.664   1.045
 9585TIP3    H128696   3.648   0.672   1.097
 9585TIP3    H228697   3.600   0.652   0.955
 9586TIP3   OH228698   0.939   2.022   6.513
 9586TIP3    H128699   0.981   2.049   6.594
 9586TIP3    H228700   0.990   2.063   6.444
 9587TIP3   OH228701   3.663   6.313   4.206
 9587TIP3    H128702   3.600   6.373   4.168
 9587TIP3    H228703   3.612   6.234   4.226
 9588TIP3   OH228704   6.733   2.001   4.038
 9588TIP3    H128705   6.690   1.987   4.122
 9588TIP3    H228706   6.800   2.068   4.056
 9589TIP3   OH228707   3.276   1.813   1.365
 9589TIP3    H128708   3.243   1.723   1.366
 9589TIP3    H228709   3.228   1.854   1.292
 9590TIP3   OH228710   3.154   1.099   1.350
 9590TIP3    H128711   3.248   1.092   1.364
 9590TIP3    H228712   3.125   1.169   1.409
 9591TIP3   OH228713   2.363   1.736   5.599
 9591TIP3    H128714   2.324   1.808   5.647
 9591TIP3    H228715   2.453   1.763   5.582
 9592TIP3   OH228716   7.996   1.266   0.964
 9592TIP3    H128717   8.009   1.244   0.872
 9592TIP3    H228718   7.952   1.189   1.001
 9593TIP3   OH228719   0.932   3.604   3.839
 9593TIP3    H128720   0.899   3.590   3.928
 9593TIP3    H228721   0.972   3.691   3.842
 9594TIP3   OH228722   2.127   4.164   4.013
 9594TIP3    H128723   2.198   4.149   4.076
 9594TIP3    H228724   2.152   4.244   3.967
 9595TIP3   OH228725   5.966   6.686   0.582
 9595TIP3    H128726   6.011   6.716   0.661
 9595TIP3    H228727   5.887   6.740   0.577
 9596TIP3   OH228728   8.070   4.216   0.358
 9596TIP3    H128729   7.999   4.261   0.403
 9596TIP3    H228730   8.027   4.163   0.291
 9597TIP3   OH228731   3.413   1.073   1.404
 9597TIP3    H128732   3.457   1.121   1.474
 9597TIP3    H228733   3.449   0.984   1.410
 9598TIP3   OH228734   3.482   3.028   2.113
 9598TIP3    H128735   3.454   2.963   2.049
 9598TIP3    H228736   3.438   3.109   2.085
 9599TIP3   OH228737   7.662   1.067   5.343
 9599TIP3    H128738   7.735   1.005   5.348
 9599TIP3    H228739   7.703   1.152   5.329
 9600TIP3   OH228740   6.548   1.114   2.759
 9600TIP3    H128741   6.626   1.061   2.746
 9600TIP3    H228742   6.480   1.052   2.786
 9601TIP3   OH228743   6.614   0.662   4.137
 9601TIP3    H128744   6.610   0.573   4.101
 9601TIP3    H228745   6.534   0.670   4.190
 9602TIP3   OH228746   4.057   4.930   0.169
 9602TIP3    H128747   4.007   4.972   0.099
 9602TIP3    H228748   4.135   4.895   0.126
 9603TIP3   OH228749   4.603   2.957   1.649
 9603TIP3    H128750   4.618   3.037   1.598
 9603TIP3    H228751   4.679   2.951   1.706
 9604TIP3   OH228752   0.415   4.995   4.774
 9604TIP3    H128753   0.438   4.942   4.697
 9604TIP3    H228754   0.413   4.932   4.846
 9605TIP3   OH228755   0.482   7.240   3.522
 9605TIP3    H128756   0.434   7.157   3.519
 9605TIP3    H228757   0.513   7.247   3.612
 9606TIP3   OH228758   7.460   0.138   4.094
 9606TIP3    H128759   7.546   0.162   4.061
 9606TIP3    H228760   7.449   0.189   4.175
 9607TIP3   OH228761   1.984   5.773   3.902
 9607TIP3    H128762   2.045   5.801   3.834
 9607TIP3    H228763   1.921   5.845   3.908
 9608TIP3   OH228764   6.954   4.632   4.606
 9608TIP3    H128765   6.916   4.719   4.620
 9608TIP3    H228766   7.047   4.649   4.589
 9609TIP3   OH228767   7.491   3.251   0.504
 9609TIP3    H128768   7.544   3.271   0.427
 9609TIP3    H228769   7.512   3.160   0.525
 9610TIP3   OH228770   1.517   4.799   4.638
 9610TIP3    H128771   1.428   4.828   4.617
 9610TIP3    H228772   1.505   4.734   4.707
 9611TIP3   OH228773   4.889   7.797   1.533
 9611TIP3    H128774   4.812   7.814   1.478
 9611TIP3    H228775   4.884   7.704   1.552
 9612TIP3   OH228776   7.530   6.769   4.431
 9612TIP3    H128777   7.464   6.749   4.498
 9612TIP3    H228778   7.580   6.688   4.423
 9613TIP3   OH228779   2.544   1.004   2.787
 9613TIP3    H128780   2.455   1.025   2.760
 9613TIP3    H228781   2.559   1.059   2.864
 9614TIP3   OH228782   4.577   0.945   3.836
 9614TIP3    H128783   4.552   0.902   3.754
 9614TIP3    H228784   4.544   1.035   3.827
 9615TIP3   OH228785   4.867   2.652   1.014
 9615TIP3    H128786   4.847   2.561   1.035
 9615TIP3    H228787   4.861   2.698   1.098
 9616TIP3   OH228788   0.661   3.542   1.029
 9616TIP3    H128789   0.599   3.470   1.031
 9616TIP3    H228790   0.660   3.577   1.118
 9617TIP3   OH228791   1.917   2.035   0.178
 9617TIP3    H128792   1.968   2.095   0.123
 9617TIP3    H228793   1.982   1.996   0.237
 9618TIP3   OH228794   7.800   5.586   2.510
 9618TIP3    H128795   7.736   5.520   2.485
 9618TIP3    H228796   7.885   5.550   2.483
 9619TIP3   OH228797   1.801   6.241   0.175
 9619TIP3    H128798   1.884   6.271   0.138
 9619TIP3    H228799   1.810   6.257   0.269
 9620TIP3   OH228800   1.046   1.185   5.751
 9620TIP3    H128801   1.130   1.140   5.742
 9620TIP3    H228802   0.993   1.153   5.678
 9621TIP3   OH228803   0.754   7.303   1.717
 9621TIP3    H128804   0.694   7.329   1.647
 9621TIP3    H228805   0.787   7.218   1.691
 9622TIP3   OH228806   3.899   6.685   5.087
 9622TIP3    H128807   3.977   6.733   5.062
 9622TIP3    H228808   3.834   6.753   5.108
 9623TIP3   OH228809   5.592   6.937   6.772
 9623TIP3    H128810   5.582   7.032   6.774
 9623TIP3    H228811   5.523   6.904   6.830
 9624TIP3   OH228812   2.359   3.198   2.368
 9624TIP3    H128813   2.390   3.236   2.286
 9624TIP3    H228814   2.315   3.117   2.340
 9625TIP3   OH228815   1.331   6.375   4.185
 9625TIP3    H128816   1.286   6.452   4.220
 9625TIP3    H228817   1.265   6.331   4.131
 9626TIP3   OH228818   7.908   2.181   2.314
 9626TIP3    H128819   7.928   2.139   2.231
 9626TIP3    H228820   7.950   2.267   2.308
 9627TIP3   OH228821   5.796   2.921   1.494
 9627TIP3    H128822   5.880   2.962   1.472
 9627TIP3    H228823   5.731   2.975   1.450
 9628TIP3   OH228824   8.247   4.999   0.970
 9628TIP3    H128825   8.161   4.958   0.963
 9628TIP3    H228826   8.228   5.093   0.976
 9629TIP3   OH228827   6.296   5.873   5.561
 9629TIP3    H128828   6.334   5.961   5.554
 9629TIP3    H228829   6.202   5.887   5.560
 9630TIP3   OH228830   1.694   4.921   1.972
 9630TIP3    H128831   1.760   4.856   1.949
 9630TIP3    H228832   1.613   4.871   1.982
 9631TIP3   OH228833   3.427   6.106   1.683
 9631TIP3    H128834   3.455   6.099   1.774
 9631TIP3    H228835   3.331   6.098   1.687
 9632TIP3   OH228836   3.809   1.123   1.738
 9632TIP3    H128837   3.829   1.216   1.748
 9632TIP3    H228838   3.891   1.084   1.706
 9633TIP3   OH228839   2.333   6.353   3.614
 9633TIP3    H128840   2.351   6.371   3.706
 9633TIP3    H228841   2.415   6.319   3.579
 9634TIP3   OH228842   6.342   4.559   2.091
 9634TIP3    H128843   6.373   4.517   2.010
 9634TIP3    H228844   6.364   4.652   2.079
 9635TIP3   OH228845   2.413   3.374   0.732
 9635TIP3    H128846   2.419   3.311   0.804
 9635TIP3    H228847   2.501   3.374   0.693
 9636TIP3   OH228848   1.974   7.162   4.927
 9636TIP3    H128849   1.970   7.075   4.888
 9636TIP3    H228850   1.914   7.158   5.002
 9637TIP3   OH228851   7.301   6.830   5.626
 9637TIP3    H128852   7.385   6.819   5.581
 9637TIP3    H228853   7.320   6.888   5.699
 9638TIP3   OH228854   2.887   5.957   3.368
 9638TIP3    H128855   2.817   6.016   3.397
 9638TIP3    H228856   2.882   5.882   3.428
 9639TIP3   OH228857   5.045   2.973   4.294
 9639TIP3    H128858   5.002   3.058   4.300
 9639TIP3    H228859   5.078   2.956   4.382
 9640TIP3   OH228860   0.337   2.778   3.794
 9640TIP3    H128861   0.257   2.822   3.765
 9640TIP3    H228862   0.342   2.699   3.740
 9641TIP3   OH228863   2.622   1.833   6.040
 9641TIP3    H128864   2.649   1.800   5.955
 9641TIP3    H228865   2.704   1.843   6.089
 9642TIP3   OH228866   2.787   2.215   1.213
 9642TIP3    H128867   2.747   2.302   1.210
 9642TIP3    H228868   2.714   2.156   1.228
 9643TIP3   OH228869   1.421   7.598   3.097
 9643TIP3    H128870   1.461   7.570   3.179
 9643TIP3    H228871   1.451   7.689   3.085
 9644TIP3   OH228872   4.525   0.890   1.239
 9644TIP3    H128873   4.577   0.889   1.159
 9644TIP3    H228874   4.555   0.814   1.288
 9645TIP3   OH228875   5.711   6.669   2.765
 9645TIP3    H128876   5.759   6.649   2.685
 9645TIP3    H228877   5.775   6.657   2.835
 9646TIP3   OH228878   7.826   0.737   0.376
 9646TIP3    H128879   7.789   0.680   0.308
 9646TIP3    H228880   7.833   0.822   0.334
 9647TIP3   OH228881   7.101   1.531   2.254
 9647TIP3    H128882   7.021   1.484   2.278
 9647TIP3    H228883   7.113   1.595   2.324
 9648TIP3   OH228884   1.584   0.484   2.305
 9648TIP3    H128885   1.619   0.563   2.264
 9648TIP3    H228886   1.489   0.497   2.307
 9649TIP3   OH228887   5.508   0.603   3.871
 9649TIP3    H128888   5.575   0.534   3.873
 9649TIP3    H228889   5.428   0.560   3.898
 9650TIP3   OH228890   8.229   2.381   4.151
 9650TIP3    H128891   8.238   2.289   4.175
 9650TIP3    H228892   8.134   2.395   4.142
 9651TIP3   OH228893   5.534   1.297   5.493
 9651TIP3    H128894   5.532   1.393   5.500
 9651TIP3    H228895   5.599   1.270   5.557
 9652TIP3   OH228896   0.268   1.192   5.698
 9652TIP3    H128897   0.187   1.143   5.715
 9652TIP3    H228898   0.337   1.139   5.737
 9653TIP3   OH228899   8.193   4.513   1.477
 9653TIP3    H128900   8.162   4.556   1.397
 9653TIP3    H228901   8.202   4.583   1.541
 9654TIP3   OH228902   2.226   5.766   5.479
 9654TIP3    H128903   2.294   5.710   5.518
 9654TIP3    H228904   2.265   5.797   5.397
 9655TIP3   OH228905   2.673   6.189   5.391
 9655TIP3    H128906   2.628   6.248   5.331
 9655TIP3    H228907   2.631   6.104   5.377
 9656TIP3   OH228908   6.460   0.217   5.508
 9656TIP3    H128909   6.418   0.152   5.564
 9656TIP3    H228910   6.388   0.267   5.471
 9657TIP3   OH228911   7.606   5.795   3.937
 9657TIP3    H128912   7.661   5.797   4.015
 9657TIP3    H228913   7.666   5.781   3.864
 9658TIP3   OH228914   7.770   0.333   5.624
 9658TIP3    H128915   7.777   0.398   5.553
 9658TIP3    H228916   7.770   0.385   5.704
 9659TIP3   OH228917   4.211   0.946   5.182
 9659TIP3    H128918   4.228   0.930   5.275
 9659TIP3    H228919   4.134   0.893   5.162
 9660TIP3   OH228920   1.297   1.513   6.670
 9660TIP3    H128921   1.226   1.474   6.720
 9660TIP3    H228922   1.325   1.444   6.610
 9661TIP3   OH228923   7.974   7.774   0.364
 9661TIP3    H128924   7.887   7.813   0.372
 9661TIP3    H228925   7.963   7.683   0.392
 9662TIP3   OH228926   8.308   0.801   2.750
 9662TIP3    H128927   8.313   0.879   2.806
 9662TIP3    H228928   8.277   0.834   2.666
 9663TIP3   OH228929   6.030   3.388   3.803
 9663TIP3    H128930   5.935   3.396   3.797
 9663TIP3    H228931   6.064   3.463   3.754
 9664TIP3   OH228932   1.618   1.395   6.810
 9664TIP3    H128933   1.703   1.435   6.828
 9664TIP3    H228934   1.585   1.442   6.734
 9665TIP3   OH228935   4.563   0.169   6.611
 9665TIP3    H128936   4.611   0.252   6.603
 9665TIP3    H228937   4.630   0.104   6.629
 9666TIP3   OH228938   0.290   6.933   4.321
 9666TIP3    H128939   0.349   6.978   4.381
 9666TIP3    H228940   0.222   6.896   4.378
 9667TIP3   OH228941   6.444   4.744   2.826
 9667TIP3    H128942   6.375   4.810   2.817
 9667TIP3    H228943   6.480   4.735   2.738
 9668TIP3   OH228944   1.499   5.125   1.588
 9668TIP3    H128945   1.448   5.135   1.668
 9668TIP3    H228946   1.582   5.088   1.617
 9669TIP3   OH228947   0.785   3.045   5.734
 9669TIP3    H128948   0.753   3.025   5.821
 9669TIP3    H228949   0.723   3.109   5.700
 9670TIP3   OH228950   6.235   5.151   2.576
 9670TIP3    H128951   6.272   5.218   2.519
 9670TIP3    H228952   6.146   5.182   2.595
 9671TIP3   OH228953   1.779   4.160   2.777
 9671TIP3    H128954   1.861   4.155   2.728
 9671TIP3    H228955   1.711   4.144   2.712
 9672TIP3   OH228956   7.771   0.666   6.379
 9672TIP3    H128957   7.778   0.575   6.407
 9672TIP3    H228958   7.826   0.715   6.441
 9673TIP3   OH228959   3.622   7.847   4.281
 9673TIP3    H128960   3.675   7.872   4.205
 9673TIP3    H228961   3.686   7.825   4.349
 9674TIP3   OH228962   0.623   7.046   3.904
 9674TIP3    H128963   0.544   7.043   3.958
 9674TIP3    H228964   0.682   6.983   3.945
 9675TIP3   OH228965   5.918   2.540   6.358
 9675TIP3    H128966   5.888   2.571   6.443
 9675TIP3    H228967   5.911   2.445   6.363
 9676TIP3   OH228968   4.995   2.813   2.563
 9676TIP3    H128969   5.016   2.855   2.480
 9676TIP3    H228970   5.023   2.722   2.552
 9677TIP3   OH228971   7.585   5.535   2.180
 9677TIP3    H128972   7.616   5.624   2.196
 9677TIP3    H228973   7.491   5.538   2.198
 9678TIP3   OH228974  -0.006   0.138   1.719
 9678TIP3    H128975   0.008   0.107   1.809
 9678TIP3    H228976   0.038   0.073   1.664
 9679TIP3   OH228977   0.136   3.196   4.109
 9679TIP3    H128978   0.187   3.200   4.189
 9679TIP3    H228979   0.170   3.120   4.062
 9680TIP3   OH228980   7.908   3.268   5.303
 9680TIP3    H128981   7.861   3.185   5.293
 9680TIP3    H228982   7.848   3.324   5.352
 9681TIP3   OH228983   1.196   2.312   2.650
 9681TIP3    H128984   1.152   2.331   2.733
 9681TIP3    H228985   1.259   2.384   2.639
 9682TIP3   OH228986   1.302   4.626   5.779
 9682TIP3    H128987   1.333   4.599   5.692
 9682TIP3    H228988   1.248   4.704   5.761
 9683TIP3   OH228989   4.106   0.468   6.535
 9683TIP3    H128990   4.199   0.452   6.515
 9683TIP3    H228991   4.080   0.536   6.472
 9684TIP3   OH228992   5.715   2.836   0.259
 9684TIP3    H128993   5.658   2.895   0.210
 9684TIP3    H228994   5.701   2.750   0.219
 9685TIP3   OH228995   1.881   4.273   5.003
 9685TIP3    H128996   1.862   4.217   4.927
 9685TIP3    H228997   1.901   4.212   5.074
 9686TIP3   OH228998   7.506   4.439   6.595
 9686TIP3    H128999   7.602   4.432   6.591
 9686TIP3    H229000   7.476   4.348   6.586
 9687TIP3   OH229001   0.080   2.998   6.744
 9687TIP3    H129002   0.119   2.911   6.738
 9687TIP3    H229003   0.136   3.053   6.689
 9688TIP3   OH229004   3.252   7.581   0.281
 9688TIP3    H129005   3.275   7.595   0.373
 9688TIP3    H229006   3.222   7.667   0.252
 9689TIP3   OH229007   1.206   7.858   2.430
 9689TIP3    H129008   1.122   7.893   2.399
 9689TIP3    H229009   1.253   7.833   2.351
 9690TIP3   OH229010   0.454   2.371   6.826
 9690TIP3    H129011   0.465   2.276   6.820
 9690TIP3    H229012   0.511   2.405   6.758
 9691TIP3   OH229013   3.616   6.092   2.184
 9691TIP3    H129014   3.633   6.170   2.132
 9691TIP3    H229015   3.657   6.110   2.269
 9692TIP3   OH229016   7.330   2.187   1.225
 9692TIP3    H129017   7.277   2.231   1.291
 9692TIP3    H229018   7.286   2.204   1.142
 9693TIP3   OH229019   4.530   2.576   2.381
 9693TIP3    H129020   4.553   2.483   2.393
 9693TIP3    H229021   4.439   2.582   2.413
 9694TIP3   OH229022   5.275   1.177   5.526
 9694TIP3    H129023   5.360   1.219   5.527
 9694TIP3    H229024   5.222   1.232   5.468
 9695TIP3   OH229025   7.453   0.252   2.877
 9695TIP3    H129026   7.430   0.280   2.788
 9695TIP3    H229027   7.541   0.215   2.868
 9696TIP3   OH229028   3.468   2.752   1.112
 9696TIP3    H129029   3.534   2.821   1.115
 9696TIP3    H229030   3.386   2.798   1.098
 9697TIP3   OH229031   8.378   1.865   0.384
 9697TIP3    H129032   8.288   1.859   0.350
 9697TIP3    H229033   8.370   1.923   0.460
 9698TIP3   OH229034   5.634   0.556   2.849
 9698TIP3    H129035   5.545   0.556   2.812
 9698TIP3    H229036   5.625   0.506   2.931
 9699TIP3   OH229037   6.478   5.747   5.413
 9699TIP3    H129038   6.565   5.764   5.448
 9699TIP3    H229039   6.419   5.798   5.469
 9700TIP3   OH229040   1.724   1.981   2.106
 9700TIP3    H129041   1.634   2.000   2.130
 9700TIP3    H229042   1.737   2.025   2.022
 9701TIP3   OH229043   5.228   5.631   0.169
 9701TIP3    H129044   5.300   5.670   0.120
 9701TIP3    H229045   5.184   5.705   0.211
 9702TIP3   OH229046   2.932   4.330   3.851
 9702TIP3    H129047   3.022   4.359   3.844
 9702TIP3    H229048   2.916   4.284   3.768
 9703TIP3   OH229049   7.639   7.292   5.326
 9703TIP3    H129050   7.613   7.384   5.331
 9703TIP3    H229051   7.580   7.246   5.386
 9704TIP3   OH229052   8.088   0.258   6.444
 9704TIP3    H129053   8.173   0.302   6.435
 9704TIP3    H229054   8.110   0.165   6.441
 9705TIP3   OH229055   5.363   7.651   6.684
 9705TIP3    H129056   5.451   7.687   6.691
 9705TIP3    H229057   5.329   7.651   6.773
 9706TIP3   OH229058   1.741   5.169   2.722
 9706TIP3    H129059   1.796   5.134   2.791
 9706TIP3    H229060   1.791   5.156   2.642
 9707TIP3   OH229061   0.351   5.422   5.507
 9707TIP3    H129062   0.396   5.500   5.474
 9707TIP3    H229063   0.294   5.455   5.577
 9708TIP3   OH229064   4.725   2.949   6.156
 9708TIP3    H129065   4.785   2.878   6.132
 9708TIP3    H229066   4.722   3.006   6.079
 9709TIP3   OH229067   3.527   2.324   2.163
 9709TIP3    H129068   3.592   2.305   2.095
 9709TIP3    H229069   3.556   2.407   2.201
 9710TIP3   OH229070   5.586   3.507   4.115
 9710TIP3    H129071   5.530   3.440   4.077
 9710TIP3    H229072   5.564   3.509   4.208
 9711TIP3   OH229073   5.358   2.346   4.687
 9711TIP3    H129074   5.403   2.408   4.630
 9711TIP3    H229075   5.299   2.400   4.739
 9712TIP3   OH229076   6.607   7.167   5.452
 9712TIP3    H129077   6.635   7.077   5.468
 9712TIP3    H229078   6.611   7.209   5.538
 9713TIP3   OH229079   7.316   5.292   0.977
 9713TIP3    H129080   7.279   5.205   0.992
 9713TIP3    H229081   7.334   5.295   0.884
 9714TIP3   OH229082   2.618   0.437   0.673
 9714TIP3    H129083   2.539   0.439   0.726
 9714TIP3    H229084   2.606   0.507   0.609
 9715TIP3   OH229085   1.263   3.718   4.800
 9715TIP3    H129086   1.245   3.649   4.736
 9715TIP3    H229087   1.286   3.670   4.880
 9716TIP3   OH229088   0.914   4.921   1.245
 9716TIP3    H129089   0.954   4.876   1.170
 9716TIP3    H229090   0.822   4.932   1.219
 9717TIP3   OH229091   1.825   5.530   3.112
 9717TIP3    H129092   1.814   5.449   3.163
 9717TIP3    H229093   1.737   5.551   3.081
 9718TIP3   OH229094   2.610   3.585   3.231
 9718TIP3    H129095   2.615   3.680   3.223
 9718TIP3    H229096   2.700   3.557   3.245
 9719TIP3   OH229097   2.187   2.402   0.684
 9719TIP3    H129098   2.274   2.387   0.721
 9719TIP3    H229099   2.198   2.393   0.590
 9720TIP3   OH229100   2.088   1.698   1.355
 9720TIP3    H129101   2.099   1.701   1.450
 9720TIP3    H229102   2.077   1.790   1.329
 9721TIP3   OH229103   0.274   7.291   0.125
 9721TIP3    H129104   0.353   7.251   0.162
 9721TIP3    H229105   0.271   7.378   0.164
 9722TIP3   OH229106   5.235   2.402   5.158
 9722TIP3    H129107   5.203   2.379   5.245
 9722TIP3    H229108   5.251   2.496   5.162
 9723TIP3   OH229109   7.503   1.746   2.717
 9723TIP3    H129110   7.599   1.748   2.726
 9723TIP3    H229111   7.471   1.733   2.806
 9724TIP3   OH229112   7.840   3.946   2.415
 9724TIP3    H129113   7.767   3.917   2.360
 9724TIP3    H229114   7.857   4.036   2.387
 9725TIP3   OH229115   0.498   0.917   5.477
 9725TIP3    H129116   0.484   0.917   5.383
 9725TIP3    H229117   0.546   0.836   5.495
 9726TIP3   OH229118   2.866   6.272   0.076
 9726TIP3    H129119   2.939   6.274   0.137
 9726TIP3    H229120   2.843   6.180   0.068
 9727TIP3   OH229121   2.845   7.149   0.625
 9727TIP3    H129122   2.837   7.061   0.586
 9727TIP3    H229123   2.915   7.191   0.574
 9728TIP3   OH229124   3.521   6.658   6.570
 9728TIP3    H129125   3.437   6.685   6.533
 9728TIP3    H229126   3.501   6.636   6.661
 9729TIP3   OH229127   5.617   1.009   3.957
 9729TIP3    H129128   5.640   0.962   3.876
 9729TIP3    H229129   5.680   0.977   4.022
 9730TIP3   OH229130   0.093   5.306   6.173
 9730TIP3    H129131   0.101   5.278   6.082
 9730TIP3    H229132   0.174   5.277   6.215
 9731TIP3   OH229133   8.031   5.260   3.774
 9731TIP3    H129134   8.106   5.313   3.800
 9731TIP3    H229135   8.050   5.232   3.684
 9732TIP3   OH229136   0.468   5.250   3.245
 9732TIP3    H129137   0.515   5.193   3.183
 9732TIP3    H229138   0.523   5.250   3.323
 9733TIP3   OH229139   6.001   5.062   3.391
 9733TIP3    H129140   6.026   5.125   3.458
 9733TIP3    H229141   6.060   4.987   3.405
 9734TIP3   OH229142   0.074   6.139   4.192
 9734TIP3    H129143  -0.001   6.136   4.251
 9734TIP3    H229144   0.083   6.232   4.168
 9735TIP3   OH229145   5.452   4.648   2.584
 9735TIP3    H129146   5.476   4.561   2.615
 9735TIP3    H229147   5.429   4.697   2.663
 9736TIP3   OH229148   3.808   7.340   0.380
 9736TIP3    H129149   3.790   7.260   0.331
 9736TIP3    H229150   3.723   7.383   0.387
 9737TIP3   OH229151   1.180   4.436   5.108
 9737TIP3    H129152   1.091   4.428   5.141
 9737TIP3    H229153   1.233   4.384   5.168
 9738TIP3   OH229154   6.011   7.535   1.390
 9738TIP3    H129155   6.013   7.626   1.418
 9738TIP3    H229156   5.983   7.486   1.468
 9739TIP3   OH229157   3.081   4.610   5.371
 9739TIP3    H129158   3.090   4.640   5.462
 9739TIP3    H229159   3.120   4.522   5.371
 9740TIP3   OH229160   1.395   1.914   4.489
 9740TIP3    H129161   1.396   2.009   4.477
 9740TIP3    H229162   1.486   1.890   4.508
 9741TIP3   OH229163   3.171   6.194   0.976
 9741TIP3    H129164   3.104   6.144   0.931
 9741TIP3    H229165   3.252   6.144   0.962
 9742TIP3   OH229166   0.872   0.447   0.999
 9742TIP3    H129167   0.955   0.425   1.039
 9742TIP3    H229168   0.812   0.378   1.027
 9743TIP3   OH229169   6.496   7.299   1.818
 9743TIP3    H129170   6.506   7.233   1.887
 9743TIP3    H229171   6.450   7.253   1.748
 9744TIP3   OH229172   0.375   4.334   5.286
 9744TIP3    H129173   0.464   4.350   5.317
 9744TIP3    H229174   0.351   4.248   5.321
 9745TIP3   OH229175   6.001   0.855   2.765
 9745TIP3    H129176   5.919   0.881   2.724
 9745TIP3    H229177   5.978   0.780   2.820
 9746TIP3   OH229178   1.098   1.794   3.098
 9746TIP3    H129179   1.046   1.836   3.166
 9746TIP3    H229180   1.189   1.814   3.122
 9747TIP3   OH229181   2.448   0.718   2.172
 9747TIP3    H129182   2.454   0.649   2.106
 9747TIP3    H229183   2.375   0.692   2.228
 9748TIP3   OH229184   0.449   5.606   5.781
 9748TIP3    H129185   0.363   5.598   5.823
 9748TIP3    H229186   0.493   5.524   5.804
 9749TIP3   OH229187   6.982   2.049   2.031
 9749TIP3    H129188   7.028   2.081   1.953
 9749TIP3    H229189   7.044   2.064   2.103
 9750TIP3   OH229190   4.781   1.998   5.271
 9750TIP3    H129191   4.786   2.072   5.333
 9750TIP3    H229192   4.799   1.921   5.325
 9751TIP3   OH229193   6.471   1.002   0.429
 9751TIP3    H129194   6.520   0.974   0.353
 9751TIP3    H229195   6.471   0.926   0.488
 9752TIP3   OH229196   1.025   4.672   1.467
 9752TIP3    H129197   0.991   4.654   1.555
 9752TIP3    H229198   0.949   4.703   1.418
 9753TIP3   OH229199   0.139   1.881   3.735
 9753TIP3    H129200   0.188   1.962   3.748
 9753TIP3    H229201   0.062   1.907   3.685
 9754TIP3   OH229202   3.507   4.701   2.657
 9754TIP3    H129203   3.575   4.744   2.606
 9754TIP3    H229204   3.456   4.773   2.695
 9755TIP3   OH229205   1.234   6.680   1.803
 9755TIP3    H129206   1.290   6.756   1.819
 9755TIP3    H229207   1.148   6.717   1.784
 9756TIP3   OH229208   0.948   4.438   5.248
 9756TIP3    H129209   0.957   4.442   5.343
 9756TIP3    H229210   0.880   4.502   5.228
 9757TIP3   OH229211   5.941   5.174   0.373
 9757TIP3    H129212   6.005   5.228   0.326
 9757TIP3    H229213   5.878   5.149   0.305
 9758TIP3   OH229214   0.549   1.436   1.830
 9758TIP3    H129215   0.490   1.377   1.877
 9758TIP3    H229216   0.491   1.494   1.781
 9759TIP3   OH229217   0.247   6.205   6.485
 9759TIP3    H129218   0.219   6.121   6.522
 9759TIP3    H229219   0.342   6.205   6.497
 9760TIP3   OH229220   3.301   1.621   4.730
 9760TIP3    H129221   3.250   1.615   4.650
 9760TIP3    H229222   3.238   1.645   4.798
 9761TIP3   OH229223   7.664   3.354   2.331
 9761TIP3    H129224   7.637   3.278   2.382
 9761TIP3    H229225   7.709   3.410   2.394
 9762TIP3   OH229226   0.735   4.074   1.081
 9762TIP3    H129227   0.757   4.165   1.061
 9762TIP3    H229228   0.663   4.080   1.144
 9763TIP3   OH229229   3.715   7.139   5.628
 9763TIP3    H129230   3.807   7.162   5.641
 9763TIP3    H229231   3.679   7.130   5.716
 9764TIP3   OH229232   0.504   4.541   1.655
 9764TIP3    H129233   0.526   4.449   1.642
 9764TIP3    H229234   0.577   4.588   1.613
 9765TIP3   OH229235   1.359   3.745   0.116
 9765TIP3    H129236   1.300   3.806   0.160
 9765TIP3    H229237   1.378   3.785   0.032
 9766TIP3   OH229238   1.353   2.446   5.625
 9766TIP3    H129239   1.336   2.538   5.606
 9766TIP3    H229240   1.429   2.447   5.683
 9767TIP3   OH229241   2.988   7.254   5.094
 9767TIP3    H129242   3.030   7.216   5.171
 9767TIP3    H229243   2.897   7.268   5.121
 9768TIP3   OH229244   7.348   2.141   5.756
 9768TIP3    H129245   7.401   2.217   5.782
 9768TIP3    H229246   7.411   2.069   5.752
 9769TIP3   OH229247   3.019   6.938   6.289
 9769TIP3    H129248   3.004   6.862   6.232
 9769TIP3    H229249   2.961   6.924   6.363
 9770TIP3   OH229250   6.371   2.778   3.106
 9770TIP3    H129251   6.292   2.832   3.118
 9770TIP3    H229252   6.392   2.748   3.195
 9771TIP3   OH229253   6.069   7.597   6.802
 9771TIP3    H129254   6.004   7.533   6.775
 9771TIP3    H229255   6.126   7.549   6.863
 9772TIP3   OH229256   2.971   6.347   5.283
 9772TIP3    H129257   2.975   6.261   5.325
 9772TIP3    H229258   3.057   6.357   5.241
 9773TIP3   OH229259   2.575   5.977   0.584
 9773TIP3    H129260   2.541   6.012   0.666
 9773TIP3    H229261   2.514   5.908   0.560
 9774TIP3   OH229262   5.238   6.692   6.115
 9774TIP3    H129263   5.264   6.604   6.085
 9774TIP3    H229264   5.297   6.710   6.188
 9775TIP3   OH229265   6.696   7.256   1.628
 9775TIP3    H129266   6.632   7.292   1.690
 9775TIP3    H229267   6.646   7.193   1.576
 9776TIP3   OH229268   7.164   3.192   1.604
 9776TIP3    H129269   7.190   3.240   1.525
 9776TIP3    H229270   7.211   3.109   1.599
 9777TIP3   OH229271   8.058   7.721   6.217
 9777TIP3    H129272   8.087   7.811   6.228
 9777TIP3    H229273   7.995   7.724   6.145
 9778TIP3   OH229274   4.846   0.409   3.749
 9778TIP3    H129275   4.844   0.385   3.842
 9778TIP3    H229276   4.757   0.437   3.730
 9779TIP3   OH229277   2.186   5.044   1.974
 9779TIP3    H129278   2.157   5.005   2.056
 9779TIP3    H229279   2.280   5.026   1.970
 9780TIP3   OH229280   2.127   1.247   4.872
 9780TIP3    H129281   2.088   1.160   4.863
 9780TIP3    H229282   2.220   1.231   4.887
 9781TIP3   OH229283   1.088   0.209   4.085
 9781TIP3    H129284   0.996   0.185   4.070
 9781TIP3    H229285   1.101   0.196   4.179
 9782TIP3   OH229286   7.697   2.604   4.342
 9782TIP3    H129287   7.729   2.576   4.428
 9782TIP3    H229288   7.774   2.641   4.299
 9783TIP3   OH229289   4.472   5.861   4.201
 9783TIP3    H129290   4.551   5.820   4.236
 9783TIP3    H229291   4.405   5.843   4.267
 9784TIP3   OH229292   7.530   6.655   4.155
 9784TIP3    H129293   7.462   6.635   4.218
 9784TIP3    H229294   7.555   6.746   4.174
 9785TIP3   OH229295   0.409   6.320   1.988
 9785TIP3    H129296   0.317   6.346   1.992
 9785TIP3    H229297   0.439   6.352   1.903
 9786TIP3   OH229298   6.708   2.911   2.847
 9786TIP3    H129299   6.639   2.968   2.812
 9786TIP3    H229300   6.679   2.891   2.936
 9787TIP3   OH229301   6.533   7.618   2.283
 9787TIP3    H129302   6.600   7.553   2.303
 9787TIP3    H229303   6.451   7.575   2.305
 9788TIP3   OH229304   0.412   5.870   4.932
 9788TIP3    H129305   0.484   5.883   4.871
 9788TIP3    H229306   0.333   5.873   4.877
 9789TIP3   OH229307   4.664   5.439   1.008
 9789TIP3    H129308   4.716   5.388   1.070
 9789TIP3    H229309   4.671   5.392   0.925
 9790TIP3   OH229310   6.595   2.468   5.048
 9790TIP3    H129311   6.499   2.468   5.047
 9790TIP3    H229312   6.619   2.556   5.017
 9791TIP3   OH229313   3.716   2.587   1.145
 9791TIP3    H129314   3.647   2.640   1.105
 9791TIP3    H229315   3.720   2.616   1.235
 9792TIP3   OH229316   4.686   3.892   0.725
 9792TIP3    H129317   4.696   3.797   0.733
 9792TIP3    H229318   4.747   3.928   0.788
 9793TIP3   OH229319   4.846   1.046   6.767
 9793TIP3    H129320   4.926   1.096   6.784
 9793TIP3    H229321   4.787   1.108   6.724
 9794TIP3   OH229322   7.221   6.786   1.300
 9794TIP3    H129323   7.282   6.790   1.227
 9794TIP3    H229324   7.138   6.817   1.264
 9795TIP3   OH229325   5.555   1.940   1.781
 9795TIP3    H129326   5.634   1.885   1.775
 9795TIP3    H229327   5.523   1.945   1.691
 9796TIP3   OH229328   4.360   1.259   5.852
 9796TIP3    H129329   4.412   1.275   5.930
 9796TIP3    H229330   4.308   1.181   5.873
 9797TIP3   OH229331   2.506   0.189   3.916
 9797TIP3    H129332   2.440   0.179   3.847
 9797TIP3    H229333   2.578   0.236   3.874
 9798TIP3   OH229334   6.057   2.478   0.297
 9798TIP3    H129335   6.066   2.479   0.201
 9798TIP3    H229336   6.146   2.472   0.330
 9799TIP3   OH229337   8.115   1.220   4.036
 9799TIP3    H129338   8.162   1.137   4.036
 9799TIP3    H229339   8.173   1.280   3.989
 9800TIP3   OH229340   0.093   2.156   5.730
 9800TIP3    H129341   0.150   2.166   5.653
 9800TIP3    H229342   0.151   2.172   5.804
 9801TIP3   OH229343   1.228   7.741   3.281
 9801TIP3    H129344   1.207   7.648   3.285
 9801TIP3    H229345   1.319   7.746   3.309
 9802TIP3   OH229346   0.480   5.020   0.752
 9802TIP3    H129347   0.546   4.951   0.758
 9802TIP3    H229348   0.520   5.087   0.698
 9803TIP3   OH229349   3.009   3.470   5.263
 9803TIP3    H129350   2.925   3.505   5.291
 9803TIP3    H229351   3.074   3.526   5.307
 9804TIP3   OH229352   6.770   1.923   5.936
 9804TIP3    H129353   6.739   1.863   5.868
 9804TIP3    H229354   6.798   2.001   5.888
 9805TIP3   OH229355   0.460   4.301   6.591
 9805TIP3    H129356   0.520   4.324   6.520
 9805TIP3    H229357   0.404   4.377   6.602
 9806TIP3   OH229358   1.159   7.268   2.346
 9806TIP3    H129359   1.218   7.304   2.280
 9806TIP3    H229360   1.205   7.278   2.429
 9807TIP3   OH229361   0.490   2.407   0.392
 9807TIP3    H129362   0.501   2.409   0.297
 9807TIP3    H229363   0.411   2.460   0.408
 9808TIP3   OH229364   6.044   0.853   5.447
 9808TIP3    H129365   5.975   0.905   5.486
 9808TIP3    H229366   6.107   0.917   5.413
 9809TIP3   OH229367   1.233   2.377   4.556
 9809TIP3    H129368   1.163   2.431   4.519
 9809TIP3    H229369   1.245   2.411   4.645
 9810TIP3   OH229370   8.181   5.499   6.573
 9810TIP3    H129371   8.090   5.482   6.549
 9810TIP3    H229372   8.232   5.458   6.502
 9811TIP3   OH229373   4.346   3.420   4.264
 9811TIP3    H129374   4.276   3.436   4.327
 9811TIP3    H229375   4.302   3.421   4.179
 9812TIP3   OH229376   4.856   6.262   0.963
 9812TIP3    H129377   4.802   6.333   0.929
 9812TIP3    H229378   4.934   6.305   0.998
 9813TIP3   OH229379   2.988   3.601   0.502
 9813TIP3    H129380   3.003   3.661   0.429
 9813TIP3    H229381   2.893   3.600   0.514
 9814TIP3   OH229382   3.239   0.549   6.028
 9814TIP3    H129383   3.285   0.630   6.050
 9814TIP3    H229384   3.292   0.479   6.067
 9815TIP3   OH229385   0.772   0.578   0.087
 9815TIP3    H129386   0.703   0.599   0.150
 9815TIP3    H229387   0.830   0.519   0.134
 9816TIP3   OH229388   0.377   0.457   4.123
 9816TIP3    H129389   0.431   0.497   4.056
 9816TIP3    H229390   0.314   0.525   4.148
 9817TIP3   OH229391   3.029   5.130   2.200
 9817TIP3    H129392   2.949   5.084   2.224
 9817TIP3    H229393   3.060   5.083   2.122
 9818TIP3   OH229394   6.947   3.313   3.921
 9818TIP3    H129395   6.969   3.406   3.928
 9818TIP3    H229396   6.859   3.307   3.959
 9819TIP3   OH229397   4.475   6.465   5.952
 9819TIP3    H129398   4.449   6.438   6.040
 9819TIP3    H229399   4.570   6.477   5.958
 9820TIP3   OH229400   5.868   7.888   4.965
 9820TIP3    H129401   5.789   7.836   4.976
 9820TIP3    H229402   5.850   7.944   4.889
 9821TIP3   OH229403   4.923   5.667   3.130
 9821TIP3    H129404   5.005   5.628   3.159
 9821TIP3    H229405   4.887   5.604   3.068
 9822TIP3   OH229406   3.442   2.092   1.616
 9822TIP3    H129407   3.394   2.100   1.698
 9822TIP3    H229408   3.455   1.998   1.604
 9823TIP3   OH229409   4.348   7.591   2.037
 9823TIP3    H129410   4.398   7.672   2.049
 9823TIP3    H229411   4.373   7.560   1.950
 9824TIP3   OH229412   0.682   2.644   6.515
 9824TIP3    H129413   0.599   2.596   6.506
 9824TIP3    H229414   0.700   2.643   6.609
 9825TIP3   OH229415   0.962   6.853   6.756
 9825TIP3    H129416   0.973   6.798   6.833
 9825TIP3    H229417   0.867   6.866   6.748
 9826TIP3   OH229418   2.596   0.147   4.420
 9826TIP3    H129419   2.682   0.189   4.409
 9826TIP3    H229420   2.544   0.212   4.468
 9827TIP3   OH229421   3.087   0.380   0.630
 9827TIP3    H129422   3.018   0.345   0.686
 9827TIP3    H229423   3.123   0.454   0.679
 9828TIP3   OH229424   5.542   6.707   1.056
 9828TIP3    H129425   5.482   6.672   0.990
 9828TIP3    H229426   5.583   6.629   1.094
 9829TIP3   OH229427   4.521   2.066   6.317
 9829TIP3    H129428   4.586   1.997   6.328
 9829TIP3    H229429   4.457   2.029   6.256
 9830TIP3   OH229430   7.732   1.064   6.200
 9830TIP3    H129431   7.691   0.978   6.208
 9830TIP3    H229432   7.700   1.098   6.117
 9831TIP3   OH229433   7.568   0.398   1.831
 9831TIP3    H129434   7.543   0.364   1.745
 9831TIP3    H229435   7.652   0.441   1.816
 9832TIP3   OH229436   6.565   2.877   6.225
 9832TIP3    H129437   6.610   2.919   6.152
 9832TIP3    H229438   6.628   2.813   6.258
 9833TIP3   OH229439   0.874   0.650   0.549
 9833TIP3    H129440   0.962   0.662   0.587
 9833TIP3    H229441   0.886   0.581   0.484
 9834TIP3   OH229442   7.882   2.510   0.282
 9834TIP3    H129443   7.858   2.584   0.338
 9834TIP3    H229444   7.798   2.467   0.263
 9835TIP3   OH229445   4.156   0.454   0.373
 9835TIP3    H129446   4.207   0.523   0.415
 9835TIP3    H229447   4.105   0.498   0.305
 9836TIP3   OH229448   5.477   1.751   6.156
 9836TIP3    H129449   5.468   1.657   6.138
 9836TIP3    H229450   5.568   1.770   6.135
 9837TIP3   OH229451   6.281   4.975   0.543
 9837TIP3    H129452   6.363   4.975   0.593
 9837TIP3    H229453   6.285   5.054   0.491
 9838TIP3   OH229454   4.146   7.691   1.119
 9838TIP3    H129455   4.113   7.618   1.172
 9838TIP3    H229456   4.081   7.699   1.049
 9839TIP3   OH229457   7.866   0.710   1.362
 9839TIP3    H129458   7.945   0.743   1.320
 9839TIP3    H229459   7.898   0.658   1.436
 9840TIP3   OH229460   0.315   2.158   0.558
 9840TIP3    H129461   0.312   2.131   0.650
 9840TIP3    H229462   0.406   2.185   0.543
 9841TIP3   OH229463   3.358   2.434   3.013
 9841TIP3    H129464   3.453   2.439   3.016
 9841TIP3    H229465   3.328   2.509   3.065
 9842TIP3   OH229466   2.052   5.459   4.388
 9842TIP3    H129467   2.108   5.407   4.444
 9842TIP3    H229468   1.990   5.397   4.351
 9843TIP3   OH229469   2.675   3.032   6.795
 9843TIP3    H129470   2.737   2.981   6.846
 9843TIP3    H229471   2.729   3.087   6.738
 9844TIP3   OH229472   8.012   3.570   3.442
 9844TIP3    H129473   7.932   3.590   3.491
 9844TIP3    H229474   8.041   3.486   3.476
 9845TIP3   OH229475   5.738   1.399   6.842
 9845TIP3    H129476   5.821   1.446   6.854
 9845TIP3    H229477   5.729   1.388   6.748
 9846TIP3   OH229478   6.561   2.282   0.263
 9846TIP3    H129479   6.573   2.338   0.339
 9846TIP3    H229480   6.494   2.326   0.211
 9847TIP3   OH229481   3.918   3.162   2.847
 9847TIP3    H129482   3.914   3.249   2.885
 9847TIP3    H229483   3.849   3.113   2.893
 9848TIP3   OH229484   0.613   7.442   5.394
 9848TIP3    H129485   0.674   7.404   5.457
 9848TIP3    H229486   0.667   7.501   5.341
 9849TIP3   OH229487   3.162   1.362   6.565
 9849TIP3    H129488   3.142   1.450   6.533
 9849TIP3    H229489   3.120   1.358   6.651
 9850TIP3   OH229490   0.903   2.866   2.366
 9850TIP3    H129491   0.986   2.841   2.407
 9850TIP3    H229492   0.915   2.957   2.342
 9851TIP3   OH229493   6.297   4.362   5.469
 9851TIP3    H129494   6.365   4.346   5.403
 9851TIP3    H229495   6.280   4.276   5.507
 9852TIP3   OH229496   4.056   0.849   3.894
 9852TIP3    H129497   4.099   0.764   3.891
 9852TIP3    H229498   4.113   0.903   3.948
 9853TIP3   OH229499   6.253   5.217   4.408
 9853TIP3    H129500   6.302   5.278   4.353
 9853TIP3    H229501   6.185   5.271   4.449
 9854TIP3   OH229502   3.272   2.174   3.017
 9854TIP3    H129503   3.301   2.264   3.031
 9854TIP3    H229504   3.346   2.120   3.044
 9855TIP3   OH229505   3.751   4.796   1.659
 9855TIP3    H129506   3.822   4.799   1.724
 9855TIP3    H229507   3.710   4.711   1.671
 9856TIP3   OH229508   1.598   5.563   0.301
 9856TIP3    H129509   1.546   5.517   0.367
 9856TIP3    H229510   1.665   5.609   0.351
 9857TIP3   OH229511   1.549   7.130   0.859
 9857TIP3    H129512   1.512   7.115   0.945
 9857TIP3    H229513   1.490   7.084   0.799
 9858TIP3   OH229514   0.448   6.769   4.164
 9858TIP3    H129515   0.403   6.827   4.102
 9858TIP3    H229516   0.412   6.794   4.250
 9859TIP3   OH229517   0.369   1.288   1.948
 9859TIP3    H129518   0.311   1.340   2.003
 9859TIP3    H229519   0.311   1.250   1.881
 9860TIP3   OH229520   1.229   6.507   1.577
 9860TIP3    H129521   1.243   6.559   1.656
 9860TIP3    H229522   1.143   6.534   1.545
 9861TIP3   OH229523   0.976   1.363   1.482
 9861TIP3    H129524   1.050   1.327   1.432
 9861TIP3    H229525   0.939   1.430   1.425
 9862TIP3   OH229526   3.802   2.032   1.093
 9862TIP3    H129527   3.871   2.084   1.135
 9862TIP3    H229528   3.722   2.082   1.108
 9863TIP3   OH229529   3.585   7.698   6.219
 9863TIP3    H129530   3.676   7.686   6.192
 9863TIP3    H229531   3.590   7.713   6.314
 9864TIP3   OH229532   3.679   7.858   6.482
 9864TIP3    H129533   3.630   7.806   6.545
 9864TIP3    H229534   3.760   7.809   6.468
 9865TIP3   OH229535   0.757   6.803   3.981
 9865TIP3    H129536   0.833   6.745   3.980
 9865TIP3    H229537   0.684   6.746   3.956
 9866TIP3   OH229538   3.759   1.721   4.512
 9866TIP3    H129539   3.846   1.733   4.551
 9866TIP3    H229540   3.698   1.730   4.586
 9867TIP3   OH229541   7.310   1.210   4.929
 9867TIP3    H129542   7.221   1.234   4.903
 9867TIP3    H229543   7.305   1.199   5.024
 9868TIP3   OH229544   3.322   1.244   5.112
 9868TIP3    H129545   3.315   1.243   5.207
 9868TIP3    H229546   3.292   1.331   5.086
 9869TIP3   OH229547   4.620   0.492   2.565
 9869TIP3    H129548   4.606   0.579   2.603
 9869TIP3    H229549   4.611   0.506   2.471
 9870TIP3   OH229550   7.769   2.953   3.797
 9870TIP3    H129551   7.813   2.874   3.767
 9870TIP3    H229552   7.745   2.935   3.888
 9871TIP3   OH229553   4.909   1.663   2.752
 9871TIP3    H129554   4.840   1.671   2.686
 9871TIP3    H229555   4.984   1.710   2.715
 9872TIP3   OH229556   2.667   6.887   3.627
 9872TIP3    H129557   2.710   6.971   3.611
 9872TIP3    H229558   2.736   6.832   3.664
 9873TIP3   OH229559   7.080   0.619   1.041
 9873TIP3    H129560   7.008   0.628   0.978
 9873TIP3    H229561   7.155   0.656   0.995
 9874TIP3   OH229562   7.070   4.117   6.676
 9874TIP3    H129563   7.155   4.139   6.637
 9874TIP3    H229564   7.048   4.031   6.640
 9875TIP3   OH229565   4.810   4.901   2.876
 9875TIP3    H129566   4.747   4.828   2.880
 9875TIP3    H229567   4.842   4.910   2.965
 9876TIP3   OH229568   4.478   5.997   4.840
 9876TIP3    H129569   4.481   6.006   4.745
 9876TIP3    H229570   4.565   6.024   4.869
 9877TIP3   OH229571   2.869   2.866   0.410
 9877TIP3    H129572   2.805   2.923   0.369
 9877TIP3    H229573   2.828   2.780   0.410
 9878TIP3   OH229574   4.504   4.556   2.576
 9878TIP3    H129575   4.565   4.615   2.531
 9878TIP3    H229576   4.418   4.596   2.563
 9879TIP3   OH229577   2.130   4.735   1.150
 9879TIP3    H129578   2.053   4.786   1.176
 9879TIP3    H229579   2.106   4.698   1.065
 9880TIP3   OH229580   5.366   0.161   4.679
 9880TIP3    H129581   5.281   0.121   4.694
 9880TIP3    H229582   5.381   0.152   4.585
 9881TIP3   OH229583   1.694   0.443   0.441
 9881TIP3    H129584   1.775   0.490   0.461
 9881TIP3    H229585   1.626   0.494   0.484
 9882TIP3   OH229586   0.127   0.880   3.632
 9882TIP3    H129587   0.133   0.839   3.546
 9882TIP3    H229588   0.036   0.865   3.659
 9883TIP3   OH229589   1.098   5.752   3.136
 9883TIP3    H129590   1.163   5.712   3.078
 9883TIP3    H229591   1.020   5.762   3.081
 9884TIP3   OH229592   3.520   1.208   0.042
 9884TIP3    H129593   3.437   1.169   0.066
 9884TIP3    H229594   3.496   1.291   0.000
 9885TIP3   OH229595   7.057   2.416   3.951
 9885TIP3    H129596   7.046   2.474   3.876
 9885TIP3    H229597   6.974   2.368   3.957
 9886TIP3   OH229598   4.475   4.317   1.131
 9886TIP3    H129599   4.421   4.384   1.172
 9886TIP3    H229600   4.418   4.276   1.066
 9887TIP3   OH229601   5.156   1.747   4.759
 9887TIP3    H129602   5.236   1.763   4.707
 9887TIP3    H229603   5.183   1.763   4.849
 9888TIP3   OH229604   3.493   7.176   2.337
 9888TIP3    H129605   3.452   7.224   2.266
 9888TIP3    H229606   3.455   7.089   2.333
 9889TIP3   OH229607   6.099   5.351   6.123
 9889TIP3    H129608   6.109   5.346   6.028
 9889TIP3    H229609   6.081   5.261   6.150
 9890TIP3   OH229610   2.027   2.718   5.773
 9890TIP3    H129611   2.026   2.750   5.683
 9890TIP3    H229612   2.068   2.631   5.767
 9891TIP3   OH229613   7.401   1.884   1.584
 9891TIP3    H129614   7.381   1.890   1.490
 9891TIP3    H229615   7.423   1.973   1.610
 9892TIP3   OH229616   3.693   3.220   5.367
 9892TIP3    H129617   3.781   3.258   5.367
 9892TIP3    H229618   3.700   3.141   5.420
 9893TIP3   OH229619   1.569   3.741   1.502
 9893TIP3    H129620   1.543   3.653   1.530
 9893TIP3    H229621   1.499   3.798   1.534
 9894TIP3   OH229622   1.962   6.945   2.568
 9894TIP3    H129623   2.019   6.988   2.632
 9894TIP3    H229624   1.971   6.851   2.586
 9895TIP3   OH229625   5.676   5.546   4.723
 9895TIP3    H129626   5.733   5.534   4.799
 9895TIP3    H229627   5.602   5.597   4.756
 9896TIP3   OH229628   0.735   4.693   4.500
 9896TIP3    H129629   0.745   4.786   4.479
 9896TIP3    H229630   0.765   4.685   4.590
 9897TIP3   OH229631   2.842   5.917   5.350
 9897TIP3    H129632   2.747   5.910   5.343
 9897TIP3    H229633   2.867   5.975   5.278
 9898TIP3   OH229634   8.285   6.338   4.348
 9898TIP3    H129635   8.333   6.305   4.424
 9898TIP3    H229636   8.195   6.351   4.380
 9899TIP3   OH229637   5.838   1.867   1.286
 9899TIP3    H129638   5.802   1.829   1.366
 9899TIP3    H229639   5.876   1.793   1.239
 9900TIP3   OH229640   2.973   5.031   5.147
 9900TIP3    H129641   2.999   4.976   5.221
 9900TIP3    H229642   2.933   4.970   5.085
 9901TIP3   OH229643   3.538   4.920   2.441
 9901TIP3    H129644   3.530   4.843   2.385
 9901TIP3    H229645   3.448   4.940   2.467
 9902TIP3   OH229646   8.006   6.234   5.186
 9902TIP3    H129647   7.949   6.252   5.261
 9902TIP3    H229648   8.061   6.313   5.178
 9903TIP3   OH229649   1.544   3.923   5.305
 9903TIP3    H129650   1.516   3.985   5.237
 9903TIP3    H229651   1.630   3.954   5.332
 9904TIP3   OH229652   3.159   0.707   0.034
 9904TIP3    H129653   3.215   0.785   0.025
 9904TIP3    H229654   3.110   0.721   0.115
 9905TIP3   OH229655   2.109   0.869   5.151
 9905TIP3    H129656   2.024   0.866   5.107
 9905TIP3    H229657   2.087   0.881   5.243
 9906TIP3   OH229658   2.625   4.789   5.496
 9906TIP3    H129659   2.619   4.745   5.411
 9906TIP3    H229660   2.665   4.873   5.478
 9907TIP3   OH229661   4.434   5.249   0.882
 9907TIP3    H129662   4.521   5.229   0.847
 9907TIP3    H229663   4.414   5.337   0.849
 9908TIP3   OH229664   2.484   6.775   6.414
 9908TIP3    H129665   2.499   6.745   6.325
 9908TIP3    H229666   2.395   6.811   6.413
 9909TIP3   OH229667   0.394   2.048   0.125
 9909TIP3    H129668   0.387   1.968   0.178
 9909TIP3    H229669   0.485   2.052   0.099
 9910TIP3   OH229670   3.782   4.687   0.937
 9910TIP3    H129671   3.711   4.738   0.896
 9910TIP3    H229672   3.859   4.705   0.883
 9911TIP3   OH229673   2.802   0.653   6.168
 9911TIP3    H129674   2.790   0.563   6.196
 9911TIP3    H229675   2.848   0.647   6.084
 9912TIP3   OH229676   4.463   7.398   4.747
 9912TIP3    H129677   4.397   7.358   4.803
 9912TIP3    H229678   4.546   7.383   4.792
 9913TIP3   OH229679   2.985   7.567   4.216
 9913TIP3    H129680   3.065   7.529   4.253
 9913TIP3    H229681   2.996   7.661   4.225
 9914TIP3   OH229682   7.380   1.921   6.105
 9914TIP3    H129683   7.457   1.866   6.118
 9914TIP3    H229684   7.412   2.010   6.117
 9915TIP3   OH229685   3.968   2.569   2.012
 9915TIP3    H129686   3.969   2.583   1.917
 9915TIP3    H229687   3.877   2.582   2.037
 9916TIP3   OH229688   0.542   6.829   5.608
 9916TIP3    H129689   0.511   6.915   5.579
 9916TIP3    H229690   0.623   6.846   5.655
 9917TIP3   OH229691   4.870   2.140   1.044
 9917TIP3    H129692   4.830   2.226   1.044
 9917TIP3    H229693   4.797   2.079   1.034
 9918TIP3   OH229694   2.499   7.661   5.357
 9918TIP3    H129695   2.540   7.679   5.273
 9918TIP3    H229696   2.533   7.728   5.416
 9919TIP3   OH229697   3.493   3.789   2.770
 9919TIP3    H129698   3.557   3.830   2.712
 9919TIP3    H229699   3.470   3.858   2.832
 9920TIP3   OH229700   2.727   1.355   5.406
 9920TIP3    H129701   2.783   1.338   5.331
 9920TIP3    H229702   2.788   1.362   5.480
 9921TIP3   OH229703   1.774   0.802   6.015
 9921TIP3    H129704   1.814   0.830   6.098
 9921TIP3    H229705   1.849   0.785   5.958
 9922TIP3   OH229706   5.519   3.589   3.659
 9922TIP3    H129707   5.512   3.493   3.661
 9922TIP3    H229708   5.542   3.609   3.569
 9923TIP3   OH229709   4.900   1.765   1.079
 9923TIP3    H129710   4.932   1.681   1.046
 9923TIP3    H229711   4.948   1.779   1.160
 9924TIP3   OH229712   7.055   6.466   5.312
 9924TIP3    H129713   7.094   6.436   5.230
 9924TIP3    H229714   7.001   6.393   5.342
 9925TIP3   OH229715   0.603   0.150   5.172
 9925TIP3    H129716   0.603   0.244   5.189
 9925TIP3    H229717   0.515   0.121   5.199
 9926TIP3   OH229718   5.034   1.291   4.123
 9926TIP3    H129719   4.944   1.316   4.101
 9926TIP3    H229720   5.029   1.199   4.148
 9927TIP3   OH229721   4.050   0.157   4.646
 9927TIP3    H129722   4.102   0.080   4.668
 9927TIP3    H229723   4.090   0.191   4.566
 9928TIP3   OH229724   2.720   2.502   5.593
 9928TIP3    H129725   2.779   2.453   5.535
 9928TIP3    H229726   2.689   2.575   5.541
 9929TIP3   OH229727   4.215   2.565   4.928
 9929TIP3    H129728   4.290   2.555   4.870
 9929TIP3    H229729   4.244   2.527   5.011
 9930TIP3   OH229730   6.284   1.454   4.227
 9930TIP3    H129731   6.257   1.469   4.318
 9930TIP3    H229732   6.249   1.529   4.179
 9931TIP3   OH229733   4.814   7.564   1.651
 9931TIP3    H129734   4.739   7.578   1.709
 9931TIP3    H229735   4.863   7.493   1.693
 9932TIP3   OH229736   7.754   1.316   4.454
 9932TIP3    H129737   7.774   1.409   4.466
 9932TIP3    H229738   7.683   1.316   4.389
 9933TIP3   OH229739   3.023   0.427   4.635
 9933TIP3    H129740   2.970   0.460   4.707
 9933TIP3    H229741   3.092   0.376   4.677
 9934TIP3   OH229742   4.917   2.262   4.196
 9934TIP3    H129743   4.933   2.274   4.290
 9934TIP3    H229744   4.849   2.195   4.191
 9935TIP3   OH229745   2.211   5.899   0.307
 9935TIP3    H129746   2.118   5.878   0.312
 9935TIP3    H229747   2.250   5.827   0.257
 9936TIP3   OH229748   0.068   4.350   3.263
 9936TIP3    H129749   0.101   4.435   3.293
 9936TIP3    H229750   0.032   4.310   3.342
 9937TIP3   OH229751   6.758   5.085   3.664
 9937TIP3    H129752   6.741   4.991   3.656
 9937TIP3    H229753   6.843   5.097   3.621
 9938TIP3   OH229754   1.747   5.540   6.696
 9938TIP3    H129755   1.811   5.601   6.659
 9938TIP3    H229756   1.710   5.587   6.771
 9939TIP3   OH229757   1.407   0.493   4.109
 9939TIP3    H129758   1.491   0.508   4.153
 9939TIP3    H229759   1.377   0.581   4.085
 9940TIP3   OH229760   0.846   1.242   0.196
 9940TIP3    H129761   0.878   1.152   0.187
 9940TIP3    H229762   0.768   1.245   0.141
 9941TIP3   OH229763   7.138   5.725   2.351
 9941TIP3    H129764   7.087   5.655   2.310
 9941TIP3    H229765   7.071   5.785   2.386
 9942TIP3   OH229766   4.193   0.292   1.894
 9942TIP3    H129767   4.141   0.340   1.830
 9942TIP3    H229768   4.254   0.356   1.929
 9943TIP3   OH229769   0.552   3.925   6.785
 9943TIP3    H129770   0.577   3.910   6.876
 9943TIP3    H229771   0.625   3.890   6.734
 9944TIP3   OH229772   6.861   1.075   5.488
 9944TIP3    H129773   6.920   1.079   5.564
 9944TIP3    H229774   6.919   1.091   5.413
 9945TIP3   OH229775   3.319   7.609   0.546
 9945TIP3    H129776   3.244   7.599   0.604
 9945TIP3    H229777   3.365   7.686   0.579
 9946TIP3   OH229778   3.208   1.966   3.241
 9946TIP3    H129779   3.272   1.958   3.170
 9946TIP3    H229780   3.241   2.038   3.295
 9947TIP3   OH229781   2.616   4.614   2.421
 9947TIP3    H129782   2.569   4.594   2.503
 9947TIP3    H229783   2.672   4.688   2.443
 9948TIP3   OH229784   3.742   0.856   2.141
 9948TIP3    H129785   3.797   0.868   2.218
 9948TIP3    H229786   3.656   0.833   2.176
 9949TIP3   OH229787   2.639   6.105   5.998
 9949TIP3    H129788   2.612   6.027   6.046
 9949TIP3    H229789   2.725   6.082   5.962
 9950TIP3   OH229790   3.380   6.607   1.404
 9950TIP3    H129791   3.375   6.605   1.500
 9950TIP3    H229792   3.389   6.515   1.379
 9951TIP3   OH229793   5.890   1.296   1.803
 9951TIP3    H129794   5.848   1.358   1.743
 9951TIP3    H229795   5.983   1.316   1.798
 9952TIP3   OH229796   5.128   7.742   0.126
 9952TIP3    H129797   5.126   7.651   0.154
 9952TIP3    H229798   5.202   7.747   0.065
 9953TIP3   OH229799   1.579   2.574   4.160
 9953TIP3    H129800   1.502   2.534   4.201
 9953TIP3    H229801   1.601   2.648   4.217
 9954TIP3   OH229802   6.394   4.681   3.555
 9954TIP3    H129803   6.420   4.740   3.625
 9954TIP3    H229804   6.446   4.602   3.570
 9955TIP3   OH229805   8.219   4.509   4.177
 9955TIP3    H129806   8.276   4.450   4.225
 9955TIP3    H229807   8.278   4.567   4.129
 9956TIP3   OH229808   2.909   1.962   3.834
 9956TIP3    H129809   2.944   1.879   3.865
 9956TIP3    H229810   2.844   1.987   3.899
 9957TIP3   OH229811   7.766   2.795   3.515
 9957TIP3    H129812   7.763   2.750   3.600
 9957TIP3    H229813   7.857   2.788   3.487
 9958TIP3   OH229814   5.947   5.004   1.417
 9958TIP3    H129815   5.880   5.016   1.485
 9958TIP3    H229816   6.018   4.958   1.461
 9959TIP3   OH229817   5.429   4.277   2.931
 9959TIP3    H129818   5.338   4.278   2.903
 9959TIP3    H229819   5.457   4.368   2.926
 9960TIP3   OH229820   0.725   1.625   5.809
 9960TIP3    H129821   0.656   1.645   5.872
 9960TIP3    H229822   0.677   1.603   5.728
 9961TIP3   OH229823   5.810   0.456   0.397
 9961TIP3    H129824   5.830   0.378   0.346
 9961TIP3    H229825   5.726   0.436   0.440
 9962TIP3   OH229826   7.875   5.005   0.789
 9962TIP3    H129827   7.862   5.061   0.866
 9962TIP3    H229828   7.853   5.061   0.715
 9963TIP3   OH229829   3.261   2.609   4.754
 9963TIP3    H129830   3.333   2.664   4.783
 9963TIP3    H229831   3.199   2.669   4.712
 9964TIP3   OH229832   4.314   0.026   3.148
 9964TIP3    H129833   4.317  -0.044   3.213
 9964TIP3    H229834   4.224   0.027   3.117
 9965TIP3   OH229835   5.963   6.165   4.389
 9965TIP3    H129836   5.962   6.096   4.455
 9965TIP3    H229837   5.874   6.199   4.388
 9966TIP3   OH229838   6.986   3.866   6.589
 9966TIP3    H129839   6.919   3.853   6.657
 9966TIP3    H229840   6.940   3.912   6.520
 9967TIP3   OH229841   4.485   4.953   0.999
 9967TIP3    H129842   4.538   5.033   0.989
 9967TIP3    H229843   4.395   4.985   1.005
 9968TIP3   OH229844   1.413   5.269   3.921
 9968TIP3    H129845   1.389   5.209   3.849
 9968TIP3    H229846   1.462   5.215   3.982
 9969TIP3   OH229847   3.247   6.360   6.731
 9969TIP3    H129848   3.277   6.309   6.656
 9969TIP3    H229849   3.231   6.448   6.696
 9970TIP3   OH229850   3.628   7.150   5.352
 9970TIP3    H129851   3.667   7.237   5.365
 9970TIP3    H229852   3.595   7.126   5.439
 9971TIP3   OH229853   6.497   1.080   3.120
 9971TIP3    H129854   6.586   1.045   3.116
 9971TIP3    H229855   6.508   1.169   3.152
 9972TIP3   OH229856   3.702   4.102   3.057
 9972TIP3    H129857   3.766   4.030   3.059
 9972TIP3    H229858   3.714   4.143   2.972
 9973TIP3   OH229859   7.150   0.433   2.473
 9973TIP3    H129860   7.160   0.492   2.398
 9973TIP3    H229861   7.109   0.355   2.436
 9974TIP3   OH229862   7.222   3.496   4.439
 9974TIP3    H129863   7.227   3.464   4.349
 9974TIP3    H229864   7.141   3.458   4.473
 9975TIP3   OH229865   1.152   4.390   5.785
 9975TIP3    H129866   1.124   4.482   5.779
 9975TIP3    H229867   1.247   4.395   5.795
 9976TIP3   OH229868   3.841   2.343   6.272
 9976TIP3    H129869   3.808   2.276   6.332
 9976TIP3    H229870   3.828   2.306   6.185
 9977TIP3   OH229871   6.574   6.323   6.679
 9977TIP3    H129872   6.562   6.232   6.708
 9977TIP3    H229873   6.567   6.319   6.584
 9978TIP3   OH229874   0.049   6.339   3.900
 9978TIP3    H129875   0.075   6.374   3.815
 9978TIP3    H229876   0.122   6.284   3.927
 9979TIP3   OH229877   7.720   3.840   1.997
 9979TIP3    H129878   7.681   3.829   2.084
 9979TIP3    H229879   7.650   3.815   1.937
 9980TIP3   OH229880   2.294   6.872   1.336
 9980TIP3    H129881   2.238   6.796   1.354
 9980TIP3    H229882   2.376   6.852   1.380
 9981TIP3   OH229883   4.354   1.151   0.673
 9981TIP3    H129884   4.334   1.125   0.763
 9981TIP3    H229885   4.268   1.167   0.634
 9982TIP3   OH229886   6.965   7.355   1.516
 9982TIP3    H129887   6.893   7.292   1.523
 9982TIP3    H229888   6.990   7.372   1.607
 9983TIP3   OH229889   2.827   0.685   1.057
 9983TIP3    H129890   2.874   0.619   1.108
 9983TIP3    H229891   2.835   0.765   1.108
 9984TIP3   OH229892   3.792   6.696   1.323
 9984TIP3    H129893   3.724   6.658   1.266
 9984TIP3    H229894   3.746   6.722   1.402
 9985TIP3   OH229895   7.674   4.307   0.154
 9985TIP3    H129896   7.710   4.233   0.104
 9985TIP3    H229897   7.639   4.366   0.088
 9986TIP3   OH229898   4.991   7.390   1.385
 9986TIP3    H129899   5.034   7.413   1.302
 9986TIP3    H229900   5.051   7.419   1.453
 9987TIP3   OH229901   5.201   5.763   0.663
 9987TIP3    H129902   5.290   5.747   0.631
 9987TIP3    H229903   5.159   5.812   0.592
 9988TIP3   OH229904   3.427   3.117   6.296
 9988TIP3    H129905   3.414   3.172   6.373
 9988TIP3    H229906   3.461   3.034   6.331
 9989TIP3   OH229907   2.265   6.294   5.690
 9989TIP3    H129908   2.304   6.381   5.696
 9989TIP3    H229909   2.266   6.273   5.597
 9990TIP3   OH229910   7.017   2.417   1.771
 9990TIP3    H129911   6.977   2.463   1.844
 9990TIP3    H229912   7.111   2.433   1.781
 9991TIP3   OH229913   5.727   2.589   5.033
 9991TIP3    H129914   5.822   2.588   5.024
 9991TIP3    H229915   5.700   2.499   5.019
 9992TIP3   OH229916   7.711   6.156   4.295
 9992TIP3    H129917   7.767   6.087   4.331
 9992TIP3    H229918   7.741   6.236   4.338
 9993TIP3   OH229919   7.825   5.286   1.707
 9993TIP3    H129920   7.911   5.259   1.739
 9993TIP3    H229921   7.838   5.376   1.676
 9994TIP3   OH229922   2.568   3.260   1.729
 9994TIP3    H129923   2.567   3.310   1.647
 9994TIP3    H229924   2.488   3.285   1.774
 9995TIP3   OH229925   7.231   4.418   5.857
 9995TIP3    H129926   7.231   4.324   5.872
 9995TIP3    H229927   7.147   4.436   5.816
 9996TIP3   OH229928   3.789   7.136   1.852
 9996TIP3    H129929   3.729   7.063   1.842
 9996TIP3    H229930   3.767   7.196   1.781
 9997TIP3   OH229931   5.175   3.218   5.399
 9997TIP3    H129932   5.212   3.242   5.484
 9997TIP3    H229933   5.250   3.216   5.340
 9998TIP3   OH229934   2.986   4.235   0.936
 9998TIP3    H129935   3.064   4.289   0.941
 9998TIP3    H229936   2.994   4.174   1.009
 9999TIP3   OH229937   1.164   5.363   2.797
 9999TIP3    H129938   1.247   5.326   2.826
 9999TIP3    H229939   1.119   5.290   2.755
10000TIP3   OH229940   5.909   6.668   4.564
10000TIP3    H129941   5.993   6.674   4.518
10000TIP3    H229942   5.858   6.741   4.531
10001TIP3   OH229943   4.244   3.943   2.279
10001TIP3    H129944   4.153   3.925   2.305
10001TIP3    H229945   4.283   3.985   2.356
10002TIP3   OH229946   1.745   0.325   5.432
10002TIP3    H129947   1.716   0.260   5.368
10002TIP3    H229948   1.692   0.307   5.510
10003TIP3   OH229949   4.637   1.761   0.771
10003TIP3    H129950   4.706   1.703   0.739
10003TIP3    H229951   4.576   1.768   0.697
10004TIP3   OH229952   2.553   3.185   4.162
10004TIP3    H129953   2.466   3.151   4.181
10004TIP3    H229954   2.574   3.241   4.236
10005TIP3   OH229955   4.919   2.141   6.321
10005TIP3    H129956   4.903   2.175   6.409
10005TIP3    H229957   5.014   2.148   6.309
10006TIP3   OH229958   2.647   3.136   2.793
10006TIP3    H129959   2.587   3.203   2.761
10006TIP3    H229960   2.602   3.099   2.869
10007TIP3   OH229961   2.993   4.921   5.762
10007TIP3    H129962   2.918   4.949   5.815
10007TIP3    H229963   3.017   4.998   5.712
10008TIP3   OH229964   8.093   6.752   2.137
10008TIP3    H129965   8.123   6.842   2.121
10008TIP3    H229966   8.169   6.698   2.114
10009TIP3   OH229967   1.830   3.859   4.049
10009TIP3    H129968   1.818   3.816   4.134
10009TIP3    H229969   1.771   3.812   3.991
10010TIP3   OH229970   2.225   2.067   0.721
10010TIP3    H129971   2.191   1.981   0.745
10010TIP3    H229972   2.255   2.105   0.804
10011TIP3   OH229973   3.824   6.078   3.303
10011TIP3    H129974   3.851   6.021   3.375
10011TIP3    H229975   3.877   6.050   3.228
10012TIP3   OH229976   5.638   2.498   3.622
10012TIP3    H129977   5.638   2.422   3.564
10012TIP3    H229978   5.558   2.546   3.599
10013TIP3   OH229979   2.408   6.113   1.587
10013TIP3    H129980   2.502   6.131   1.591
10013TIP3    H229981   2.384   6.091   1.677
10014TIP3   OH229982   0.328   4.702   6.719
10014TIP3    H129983   0.384   4.725   6.793
10014TIP3    H229984   0.305   4.611   6.734
10015TIP3   OH229985   4.526   0.278   4.243
10015TIP3    H129986   4.507   0.366   4.275
10015TIP3    H229987   4.585   0.240   4.309
10016TIP3   OH229988   4.345   3.036   0.350
10016TIP3    H129989   4.405   3.021   0.423
10016TIP3    H229990   4.360   3.127   0.326
10017TIP3   OH229991   6.845   2.968   0.656
10017TIP3    H129992   6.844   2.925   0.741
10017TIP3    H229993   6.869   3.059   0.674
10018TIP3   OH229994   7.170   4.534   2.429
10018TIP3    H129995   7.217   4.571   2.354
10018TIP3    H229996   7.096   4.488   2.389
10019TIP3   OH229997   0.628   5.341   5.522
10019TIP3    H129998   0.537   5.370   5.521
10019TIP3    H229999   0.669   5.392   5.592
10020TIP3   OH230000   8.086   1.669   6.012
10020TIP3    H130001   8.023   1.732   6.048
10020TIP3    H230002   8.171   1.705   6.036
10021TIP3   OH230003   4.756   0.346   0.939
10021TIP3    H130004   4.757   0.251   0.927
10021TIP3    H230005   4.831   0.377   0.889
10022TIP3   OH230006   5.166   1.289   3.147
10022TIP3    H130007   5.192   1.235   3.221
10022TIP3    H230008   5.071   1.297   3.155
10023TIP3   OH230009   6.636   0.776   2.992
10023TIP3    H130010   6.678   0.846   3.042
10023TIP3    H230011   6.700   0.705   2.991
10024TIP3   OH230012   5.544   4.129   4.171
10024TIP3    H130013   5.595   4.209   4.181
10024TIP3    H230014   5.475   4.136   4.237
10025TIP3   OH230015   4.003   2.827   4.727
10025TIP3    H130016   4.064   2.860   4.793
10025TIP3    H230017   4.058   2.787   4.661
10026TIP3   OH230018   2.956   7.595   4.782
10026TIP3    H130019   2.887   7.560   4.726
10026TIP3    H230020   2.911   7.655   4.841
10027TIP3   OH230021   8.186   3.470   0.999
10027TIP3    H130022   8.122   3.400   1.009
10027TIP3    H230023   8.180   3.496   0.907
10028TIP3   OH230024   6.479   2.515   2.836
10028TIP3    H130025   6.460   2.440   2.779
10028TIP3    H230026   6.403   2.572   2.825
10029TIP3   OH230027   5.973   3.497   1.852
10029TIP3    H130028   5.961   3.491   1.947
10029TIP3    H230029   6.017   3.415   1.829
10030TIP3   OH230030   3.491   6.064   5.770
10030TIP3    H130031   3.494   6.010   5.691
10030TIP3    H230032   3.580   6.097   5.780
10031TIP3   OH230033   5.260   7.347   0.628
10031TIP3    H130034   5.168   7.372   0.637
10031TIP3    H230035   5.294   7.405   0.560
10032TIP3   OH230036   5.281   2.787   1.208
10032TIP3    H130037   5.231   2.752   1.135
10032TIP3    H230038   5.369   2.749   1.199
10033TIP3   OH230039   0.236   4.829   2.114
10033TIP3    H130040   0.206   4.747   2.075
10033TIP3    H230041   0.277   4.803   2.196
10034TIP3   OH230042   7.625   2.981   3.099
10034TIP3    H130043   7.609   3.065   3.141
10034TIP3    H230044   7.592   2.992   3.010
10035TIP3   OH230045   4.369   2.149   3.450
10035TIP3    H130046   4.390   2.154   3.356
10035TIP3    H230047   4.299   2.083   3.455
10036TIP3   OH230048   1.717   4.503   6.429
10036TIP3    H130049   1.684   4.458   6.351
10036TIP3    H230050   1.743   4.432   6.488
10037TIP3   OH230051   7.483   2.173   4.025
10037TIP3    H130052   7.501   2.245   4.086
10037TIP3    H230053   7.392   2.187   3.998
10038TIP3   OH230054   1.120   0.715   0.647
10038TIP3    H130055   1.184   0.687   0.712
10038TIP3    H230056   1.166   0.779   0.593
10039TIP3   OH230057   1.193   7.715   0.475
10039TIP3    H130058   1.237   7.790   0.516
10039TIP3    H230059   1.123   7.691   0.536
10040TIP3   OH230060   7.603   1.067   3.625
10040TIP3    H130061   7.558   1.024   3.552
10040TIP3    H230062   7.583   1.013   3.701
10041TIP3   OH230063   5.028   2.793   0.696
10041TIP3    H130064   5.013   2.754   0.782
10041TIP3    H230065   4.990   2.881   0.702
10042TIP3   OH230066   6.572   0.026   5.995
10042TIP3    H130067   6.587   0.119   6.016
10042TIP3    H230068   6.477   0.016   5.995
10043TIP3   OH230069   1.689   0.607   3.995
10043TIP3    H130070   1.639   0.549   3.938
10043TIP3    H230071   1.773   0.562   4.007
10044TIP3   OH230072   3.934   3.018   5.545
10044TIP3    H130073   3.931   3.046   5.453
10044TIP3    H230074   3.987   3.085   5.588
10045TIP3   OH230075   5.619   1.545   1.408
10045TIP3    H130076   5.603   1.490   1.332
10045TIP3    H230077   5.604   1.635   1.377
10046TIP3   OH230078   0.690   3.442   4.854
10046TIP3    H130079   0.653   3.530   4.844
10046TIP3    H230080   0.719   3.439   4.946
10047TIP3   OH230081   6.755   5.856   0.249
10047TIP3    H130082   6.824   5.922   0.253
10047TIP3    H230083   6.774   5.797   0.322
10048TIP3   OH230084   7.021   1.281   0.368
10048TIP3    H130085   7.104   1.284   0.321
10048TIP3    H230086   7.043   1.305   0.458
10049TIP3   OH230087   3.335   1.405   0.069
10049TIP3    H130088   3.291   1.406  -0.016
10049TIP3    H230089   3.265   1.383   0.131
10050TIP3   OH230090   2.165   7.606   6.816
10050TIP3    H130091   2.175   7.554   6.896
10050TIP3    H230092   2.090   7.567   6.771
10051TIP3   OH230093   4.288   6.688   4.457
10051TIP3    H130094   4.251   6.771   4.489
10051TIP3    H230095   4.220   6.623   4.477
10052TIP3   OH230096   7.602   6.329   3.351
10052TIP3    H130097   7.674   6.302   3.295
10052TIP3    H230098   7.566   6.247   3.385
10053TIP3   OH230099   2.097   3.544   3.089
10053TIP3    H130100   2.019   3.588   3.055
10053TIP3    H230101   2.135   3.607   3.150
10054TIP3   OH230102   2.252   3.349   1.046
10054TIP3    H130103   2.225   3.433   1.011
10054TIP3    H230104   2.317   3.370   1.113
10055TIP3   OH230105   1.957   2.832   6.328
10055TIP3    H130106   1.946   2.822   6.233
10055TIP3    H230107   2.041   2.789   6.347
10056TIP3   OH230108   6.092   2.121   6.269
10056TIP3    H130109   6.119   2.030   6.281
10056TIP3    H230110   6.062   2.126   6.179
10057TIP3   OH230111   7.779   4.763   3.821
10057TIP3    H130112   7.773   4.833   3.886
10057TIP3    H230113   7.719   4.789   3.751
10058TIP3   OH230114   2.560   5.978   1.393
10058TIP3    H130115   2.497   6.043   1.424
10058TIP3    H230116   2.516   5.894   1.405
10059TIP3   OH230117   7.750   6.887   0.045
10059TIP3    H130118   7.783   6.965   0.090
10059TIP3    H230119   7.802   6.882  -0.036
10060TIP3   OH230120   4.942   3.867   2.390
10060TIP3    H130121   4.872   3.803   2.381
10060TIP3    H230122   4.978   3.875   2.301
10061TIP3   OH230123   3.234   6.629   4.932
10061TIP3    H130124   3.172   6.651   4.862
10061TIP3    H230125   3.310   6.594   4.886
10062TIP3   OH230126   3.149   1.602   1.772
10062TIP3    H130127   3.104   1.519   1.786
10062TIP3    H230128   3.181   1.627   1.859
10063TIP3   OH230129   2.010   4.044   3.614
10063TIP3    H130130   1.917   4.022   3.615
10063TIP3    H230131   2.044   4.010   3.697
10064TIP3   OH230132   0.106   7.671   6.253
10064TIP3    H130133   0.162   7.655   6.329
10064TIP3    H230134   0.110   7.589   6.203
10065TIP3   OH230135   1.442   7.355   6.586
10065TIP3    H130136   1.406   7.420   6.647
10065TIP3    H230137   1.372   7.339   6.524
10066TIP3   OH230138   5.131   6.024   4.184
10066TIP3    H130139   5.068   5.999   4.251
10066TIP3    H230140   5.081   6.020   4.102
10067TIP3   OH230141   6.166   1.987   1.524
10067TIP3    H130142   6.228   1.934   1.473
10067TIP3    H230143   6.130   2.049   1.460
10068TIP3   OH230144   1.929   4.418   5.867
10068TIP3    H130145   1.882   4.481   5.921
10068TIP3    H230146   1.862   4.382   5.809
10069TIP3   OH230147   1.523   0.853   5.663
10069TIP3    H130148   1.482   0.897   5.737
10069TIP3    H230149   1.616   0.852   5.684
10070TIP3   OH230150   5.755   7.128   0.058
10070TIP3    H130151   5.734   7.218   0.086
10070TIP3    H230152   5.722   7.073   0.129
10071TIP3   OH230153   2.818   1.975   6.859
10071TIP3    H130154   2.822   2.016   6.773
10071TIP3    H230155   2.905   1.990   6.896
10072TIP3   OH230156   7.810   5.932   1.572
10072TIP3    H130157   7.904   5.919   1.561
10072TIP3    H230158   7.786   5.872   1.643
10073TIP3   OH230159   5.887   7.245   5.043
10073TIP3    H130160   5.820   7.311   5.032
10073TIP3    H230161   5.956   7.269   4.981
10074TIP3   OH230162   4.646   6.944   2.224
10074TIP3    H130163   4.556   6.976   2.230
10074TIP3    H230164   4.700   7.024   2.223
10075TIP3   OH230165   3.058   6.768   3.485
10075TIP3    H130166   3.032   6.860   3.486
10075TIP3    H230167   3.066   6.745   3.578
10076TIP3   OH230168   6.803   3.906   2.130
10076TIP3    H130169   6.772   3.933   2.044
10076TIP3    H230170   6.745   3.834   2.156
10077TIP3   OH230171   4.427   0.200   4.553
10077TIP3    H130172   4.518   0.173   4.546
10077TIP3    H230173   4.430   0.285   4.597
10078TIP3   OH230174   3.143   0.451   5.148
10078TIP3    H130175   3.056   0.428   5.180
10078TIP3    H230176   3.186   0.367   5.135
10079TIP3   OH230177   1.115   2.322   1.946
10079TIP3    H130178   1.067   2.376   1.882
10079TIP3    H230179   1.121   2.377   2.024
10080TIP3   OH230180   1.565   1.002   4.325
10080TIP3    H130181   1.508   0.956   4.386
10080TIP3    H230182   1.579   0.940   4.253
10081TIP3   OH230183   6.469   3.693   1.981
10081TIP3    H130184   6.495   3.639   2.055
10081TIP3    H230185   6.402   3.642   1.936
10082TIP3   OH230186   6.615   2.857   3.487
10082TIP3    H130187   6.672   2.859   3.563
10082TIP3    H230188   6.588   2.948   3.474
10083TIP3   OH230189   0.978   6.022   6.099
10083TIP3    H130190   1.000   6.115   6.098
10083TIP3    H230191   0.966   5.999   6.007
10084TIP3   OH230192   3.269   2.667   0.855
10084TIP3    H130193   3.253   2.740   0.915
10084TIP3    H230194   3.209   2.683   0.782
10085TIP3   OH230195   5.831   5.679   1.748
10085TIP3    H130196   5.891   5.748   1.720
10085TIP3    H230197   5.752   5.693   1.696
10086TIP3   OH230198   6.726   3.400   0.699
10086TIP3    H130199   6.652   3.369   0.646
10086TIP3    H230200   6.696   3.484   0.734
10087TIP3   OH230201   7.587   0.570   1.542
10087TIP3    H130202   7.614   0.593   1.631
10087TIP3    H230203   7.493   0.552   1.549
10088TIP3   OH230204   5.241   0.590   0.885
10088TIP3    H130205   5.250   0.624   0.796
10088TIP3    H230206   5.303   0.643   0.936
10089TIP3   OH230207   6.703   5.640   3.284
10089TIP3    H130208   6.796   5.641   3.261
10089TIP3    H230209   6.668   5.563   3.239
10090TIP3   OH230210   0.749   6.041   3.735
10090TIP3    H130211   0.663   6.039   3.776
10090TIP3    H230212   0.798   6.106   3.785
10091TIP3   OH230213   4.873   3.003   5.730
10091TIP3    H130214   4.804   2.937   5.736
10091TIP3    H230215   4.930   2.985   5.805
10092TIP3   OH230216   7.791   0.404   0.986
10092TIP3    H130217   7.768   0.491   0.953
10092TIP3    H230218   7.812   0.353   0.907
10093TIP3   OH230219   6.251   5.001   0.210
10093TIP3    H130220   6.306   5.036   0.141
10093TIP3    H230221   6.253   5.068   0.279
10094TIP3   OH230222   3.073   0.743   6.767
10094TIP3    H130223   2.994   0.736   6.822
10094TIP3    H230224   3.110   0.655   6.768
10095TIP3   OH230225   3.453   0.539   6.370
10095TIP3    H130226   3.369   0.493   6.371
10095TIP3    H230227   3.509   0.485   6.425
10096TIP3   OH230228   8.032   5.225   4.358
10096TIP3    H130229   7.992   5.240   4.273
10096TIP3    H230230   8.029   5.131   4.371
10097TIP3   OH230231   5.713   2.533   0.390
10097TIP3    H130232   5.764   2.460   0.423
10097TIP3    H230233   5.695   2.587   0.467
10098TIP3   OH230234   2.391   3.278   4.517
10098TIP3    H130235   2.354   3.333   4.448
10098TIP3    H230236   2.485   3.279   4.502
10099TIP3   OH230237   0.931   5.641   4.320
10099TIP3    H130238   1.000   5.581   4.291
10099TIP3    H230239   0.852   5.588   4.323
10100TIP3   OH230240   4.214   4.291   2.625
10100TIP3    H130241   4.210   4.245   2.541
10100TIP3    H230242   4.161   4.238   2.684
10101TIP3   OH230243   1.737   5.204   0.974
10101TIP3    H130244   1.760   5.125   1.022
10101TIP3    H230245   1.788   5.199   0.893
10102TIP3   OH230246   3.094   2.282   1.453
10102TIP3    H130247   3.153   2.306   1.525
10102TIP3    H230248   3.084   2.363   1.403
10103TIP3   OH230249   1.764   1.367   5.169
10103TIP3    H130250   1.828   1.324   5.226
10103TIP3    H230251   1.712   1.295   5.133
10104TIP3   OH230252   7.520   5.130   0.313
10104TIP3    H130253   7.567   5.174   0.384
10104TIP3    H230254   7.447   5.188   0.293
10105TIP3   OH230255   2.959   7.148   1.081
10105TIP3    H130256   2.973   7.223   1.139
10105TIP3    H230257   2.872   7.116   1.103
10106TIP3   OH230258   4.805   0.517   4.785
10106TIP3    H130259   4.798   0.423   4.768
10106TIP3    H230260   4.841   0.522   4.874
10107TIP3   OH230261   7.456   0.248   0.018
10107TIP3    H130262   7.526   0.185  -0.001
10107TIP3    H230263   7.487   0.296   0.095
10108TIP3   OH230264   3.470   7.790   6.640
10108TIP3    H130265   3.517   7.845   6.702
10108TIP3    H230266   3.439   7.851   6.573
10109TIP3   OH230267   4.123   7.903   2.951
10109TIP3    H130268   4.130   7.971   2.884
10109TIP3    H230269   4.042   7.857   2.930
10110TIP3   OH230270   1.495   2.462   2.001
10110TIP3    H130271   1.588   2.465   1.982
10110TIP3    H230272   1.461   2.391   1.946
10111TIP3   OH230273   6.689   4.879   5.505
10111TIP3    H130274   6.680   4.961   5.457
10111TIP3    H230275   6.686   4.811   5.438
10112TIP3   OH230276   3.802   2.044   2.581
10112TIP3    H130277   3.784   2.138   2.580
10112TIP3    H230278   3.829   2.024   2.491
10113TIP3   OH230279   7.811   5.840   4.930
10113TIP3    H130280   7.715   5.842   4.937
10113TIP3    H230281   7.841   5.900   4.998
10114TIP3   OH230282   7.792   4.412   4.579
10114TIP3    H130283   7.817   4.320   4.569
10114TIP3    H230284   7.875   4.459   4.587
10115TIP3   OH230285   3.688   4.351   3.519
10115TIP3    H130286   3.744   4.273   3.525
10115TIP3    H230287   3.605   4.324   3.557
10116TIP3   OH230288   2.665   6.626   5.724
10116TIP3    H130289   2.734   6.559   5.719
10116TIP3    H230290   2.692   6.693   5.661
10117TIP3   OH230291   0.175   3.443   2.254
10117TIP3    H130292   0.221   3.428   2.172
10117TIP3    H230293   0.182   3.537   2.269
10118TIP3   OH230294   2.518   7.925   4.397
10118TIP3    H130295   2.484   7.845   4.438
10118TIP3    H230296   2.444   7.960   4.347
10119TIP3   OH230297   6.210   3.389   0.680
10119TIP3    H130298   6.227   3.422   0.592
10119TIP3    H230299   6.264   3.311   0.688
10120TIP3   OH230300   1.739   5.718   1.402
10120TIP3    H130301   1.709   5.788   1.459
10120TIP3    H230302   1.753   5.643   1.460
10121TIP3   OH230303   5.234   3.741   3.988
10121TIP3    H130304   5.154   3.709   3.946
10121TIP3    H230305   5.301   3.735   3.920
10122TIP3   OH230306   3.505   7.616   1.928
10122TIP3    H130307   3.578   7.575   1.974
10122TIP3    H230308   3.428   7.595   1.982
10123TIP3   OH230309   7.883   4.157   4.498
10123TIP3    H130310   7.901   4.133   4.407
10123TIP3    H230311   7.804   4.108   4.520
10124TIP3   OH230312   2.670   2.064   4.602
10124TIP3    H130313   2.742   2.007   4.630
10124TIP3    H230314   2.618   2.010   4.544
10125TIP3   OH230315   0.773   6.371   0.068
10125TIP3    H130316   0.684   6.360   0.102
10125TIP3    H230317   0.801   6.456   0.102
10126TIP3   OH230318   4.596   5.679   5.043
10126TIP3    H130319   4.674   5.686   5.098
10126TIP3    H230320   4.617   5.608   4.981
10127TIP3   OH230321   0.264   3.332   3.196
10127TIP3    H130322   0.335   3.372   3.144
10127TIP3    H230323   0.295   3.243   3.213
10128TIP3   OH230324   2.207   6.517   5.283
10128TIP3    H130325   2.156   6.494   5.361
10128TIP3    H230326   2.180   6.607   5.263
10129TIP3   OH230327   1.668   6.553   2.814
10129TIP3    H130328   1.619   6.539   2.733
10129TIP3    H230329   1.602   6.553   2.883
10130TIP3   OH230330   1.814   6.009   6.330
10130TIP3    H130331   1.789   5.923   6.296
10130TIP3    H230332   1.909   6.007   6.335
10131TIP3   OH230333   2.615   3.983   6.118
10131TIP3    H130334   2.606   3.924   6.043
10131TIP3    H230335   2.709   4.005   6.120
10132TIP3   OH230336   4.881   3.333   3.758
10132TIP3    H130337   4.896   3.262   3.821
10132TIP3    H230338   4.931   3.307   3.681
10133TIP3   OH230339   1.265   4.739   2.341
10133TIP3    H130340   1.232   4.659   2.299
10133TIP3    H230341   1.216   4.809   2.299
10134TIP3   OH230342   0.734   0.537   1.344
10134TIP3    H130343   0.798   0.476   1.379
10134TIP3    H230344   0.786   0.609   1.308
10135TIP3   OH230345   5.743   6.270   5.696
10135TIP3    H130346   5.801   6.345   5.686
10135TIP3    H230347   5.802   6.197   5.715
10136TIP3   OH230348   7.070   0.672   3.347
10136TIP3    H130349   7.162   0.652   3.328
10136TIP3    H230350   7.036   0.706   3.265
10137TIP3   OH230351   2.730   4.257   5.217
10137TIP3    H130352   2.655   4.221   5.263
10137TIP3    H230353   2.806   4.221   5.262
10138TIP3   OH230354   1.538   4.107   2.594
10138TIP3    H130355   1.526   4.183   2.650
10138TIP3    H230356   1.595   4.137   2.524
10139TIP3   OH230357   0.342   4.404   5.007
10139TIP3    H130358   0.271   4.344   4.984
10139TIP3    H230359   0.362   4.384   5.099
10140TIP3   OH230360   0.449   4.309   1.020
10140TIP3    H130361   0.396   4.371   0.970
10140TIP3    H230362   0.528   4.296   0.967
10141TIP3   OH230363   0.265   6.665   2.848
10141TIP3    H130364   0.212   6.729   2.895
10141TIP3    H230365   0.202   6.601   2.815
10142TIP3   OH230366   0.770   6.470   6.224
10142TIP3    H130367   0.703   6.537   6.210
10142TIP3    H230368   0.783   6.470   6.319
10143TIP3   OH230369   3.349   5.906   6.348
10143TIP3    H130370   3.296   5.900   6.428
10143TIP3    H230371   3.422   5.845   6.363
10144TIP3   OH230372   0.948   1.897   5.783
10144TIP3    H130373   0.853   1.907   5.789
10144TIP3    H230374   0.961   1.820   5.729
10145TIP3   OH230375   3.861   0.638   6.180
10145TIP3    H130376   3.894   0.646   6.091
10145TIP3    H230377   3.931   0.674   6.235
10146TIP3   OH230378   6.083   0.912   2.367
10146TIP3    H130379   6.093   0.934   2.460
10146TIP3    H230380   6.098   0.994   2.321
10147TIP3   OH230381   3.671   6.982   6.358
10147TIP3    H130382   3.692   7.052   6.297
10147TIP3    H230383   3.677   6.902   6.306
10148TIP3   OH230384   7.296   4.949   0.520
10148TIP3    H130385   7.354   5.001   0.575
10148TIP3    H230386   7.325   4.858   0.533
10149TIP3   OH230387   0.717   3.103   2.312
10149TIP3    H130388   0.697   3.043   2.385
10149TIP3    H230389   0.640   3.159   2.306
10150TIP3   OH230390   3.316   1.466   3.719
10150TIP3    H130391   3.273   1.530   3.661
10150TIP3    H230392   3.268   1.473   3.801
10151TIP3   OH230393   1.368   6.665   0.063
10151TIP3    H130394   1.414   6.737   0.105
10151TIP3    H230395   1.434   6.597   0.051
10152TIP3   OH230396   1.301   6.882   3.861
10152TIP3    H130397   1.262   6.930   3.788
10152TIP3    H230398   1.390   6.917   3.868
10153TIP3   OH230399   1.172   6.873   6.188
10153TIP3    H130400   1.123   6.949   6.219
10153TIP3    H230401   1.125   6.798   6.225
10154TIP3   OH230402   0.346   4.945   1.023
10154TIP3    H130403   0.437   4.960   0.999
10154TIP3    H230404   0.311   4.894   0.950
10155TIP3   OH230405   1.105   4.345   6.201
10155TIP3    H130406   1.053   4.417   6.164
10155TIP3    H230407   1.163   4.319   6.130
10156TIP3   OH230408   8.361   4.430   2.320
10156TIP3    H130409   8.307   4.413   2.243
10156TIP3    H230410   8.450   4.414   2.291
10157TIP3   OH230411   5.989   4.946   0.525
10157TIP3    H130412   6.083   4.966   0.529
10157TIP3    H230413   5.954   5.007   0.461
10158TIP3   OH230414   1.468   0.592   1.945
10158TIP3    H130415   1.416   0.512   1.957
10158TIP3    H230416   1.500   0.586   1.855
10159TIP3   OH230417   2.995   5.120   4.264
10159TIP3    H130418   2.904   5.093   4.255
10159TIP3    H230419   2.993   5.189   4.331
10160TIP3   OH230420   3.775   2.131   2.099
10160TIP3    H130421   3.861   2.137   2.139
10160TIP3    H230422   3.732   2.059   2.145
10161TIP3   OH230423   8.123   2.519   4.520
10161TIP3    H130424   8.210   2.509   4.483
10161TIP3    H230425   8.089   2.430   4.528
10162TIP3   OH230426   4.281   6.958   3.587
10162TIP3    H130427   4.276   6.951   3.682
10162TIP3    H230428   4.271   6.869   3.555
10163TIP3   OH230429   6.231   4.878   1.819
10163TIP3    H130430   6.196   4.833   1.896
10163TIP3    H230431   6.326   4.880   1.833
10164TIP3   OH230432   1.429   7.714   4.502
10164TIP3    H130433   1.388   7.753   4.425
10164TIP3    H230434   1.434   7.786   4.565
10165TIP3   OH230435   5.988   3.749   4.689
10165TIP3    H130436   5.922   3.801   4.735
10165TIP3    H230437   5.963   3.754   4.597
10166TIP3   OH230438   0.962   2.747   4.892
10166TIP3    H130439   0.890   2.786   4.941
10166TIP3    H230440   0.976   2.662   4.935
10167TIP3   OH230441   8.224   4.917   1.923
10167TIP3    H130442   8.130   4.899   1.932
10167TIP3    H230443   8.252   4.943   2.010
10168TIP3   OH230444   4.965   3.109   2.953
10168TIP3    H130445   4.937   3.020   2.973
10168TIP3    H230446   5.021   3.134   3.027
10169TIP3   OH230447   4.737   7.712   5.146
10169TIP3    H130448   4.775   7.630   5.116
10169TIP3    H230449   4.758   7.775   5.077
10170TIP3   OH230450   1.463   7.207   2.870
10170TIP3    H130451   1.520   7.146   2.918
10170TIP3    H230452   1.420   7.152   2.804
10171TIP3   OH230453   8.393   0.686   3.136
10171TIP3    H130454   8.297   0.691   3.141
10171TIP3    H230455   8.410   0.596   3.110
10172TIP3   OH230456   4.524   3.708   2.813
10172TIP3    H130457   4.474   3.636   2.851
10172TIP3    H230458   4.464   3.782   2.813
10173TIP3   OH230459   3.181   0.166   0.965
10173TIP3    H130460   3.146   0.087   1.007
10173TIP3    H230461   3.188   0.142   0.873
10174TIP3   OH230462   6.704   6.334   2.755
10174TIP3    H130463   6.758   6.259   2.783
10174TIP3    H230464   6.713   6.397   2.826
10175TIP3   OH230465   1.259   1.599   1.871
10175TIP3    H130466   1.349   1.594   1.905
10175TIP3    H230467   1.269   1.589   1.777
10176TIP3   OH230468   8.351   6.512   4.739
10176TIP3    H130469   8.357   6.507   4.644
10176TIP3    H230470   8.376   6.424   4.769
10177TIP3   OH230471   0.717   1.026   0.056
10177TIP3    H130472   0.753   0.957   0.112
10177TIP3    H230473   0.623   1.023   0.071
10178TIP3   OH230474   7.050   1.998   6.110
10178TIP3    H130475   7.105   1.922   6.129
10178TIP3    H230476   7.044   2.000   6.014
10179TIP3   OH230477   5.131   0.445   3.422
10179TIP3    H130478   5.070   0.398   3.479
10179TIP3    H230479   5.167   0.515   3.477
10180TIP3   OH230480   0.942   4.948   2.984
10180TIP3    H130481   1.021   4.899   2.961
10180TIP3    H230482   0.870   4.887   2.964
10181TIP3   OH230483   7.887   3.849   6.253
10181TIP3    H130484   7.931   3.929   6.224
10181TIP3    H230485   7.871   3.799   6.173
10182TIP3   OH230486   6.066   6.062   0.682
10182TIP3    H130487   6.088   6.062   0.589
10182TIP3    H230488   6.040   6.152   0.701
10183TIP3   OH230489   1.811   7.749   5.001
10183TIP3    H130490   1.736   7.725   4.947
10183TIP3    H230491   1.775   7.762   5.088
10184TIP3   OH230492   2.261   0.550   0.507
10184TIP3    H130493   2.219   0.514   0.585
10184TIP3    H230494   2.302   0.632   0.536
10185TIP3   OH230495   8.087   5.019   6.410
10185TIP3    H130496   8.006   4.992   6.455
10185TIP3    H230497   8.071   5.111   6.388
10186TIP3   OH230498   2.933   0.763   5.809
10186TIP3    H130499   2.945   0.702   5.882
10186TIP3    H230500   2.925   0.706   5.732
10187TIP3   OH230501   7.705   3.940   3.637
10187TIP3    H130502   7.771   3.947   3.568
10187TIP3    H230503   7.621   3.934   3.591
10188TIP3   OH230504   6.587   0.992   5.530
10188TIP3    H130505   6.677   1.022   5.515
10188TIP3    H230506   6.536   1.073   5.539
10189TIP3   OH230507   3.082   7.702   3.422
10189TIP3    H130508   3.166   7.695   3.376
10189TIP3    H230509   3.069   7.616   3.462
10190TIP3   OH230510   3.410   5.350   4.394
10190TIP3    H130511   3.481   5.357   4.458
10190TIP3    H230512   3.363   5.270   4.420
10191TIP3   OH230513   0.725   0.238   1.112
10191TIP3    H130514   0.635   0.240   1.144
10191TIP3    H230515   0.776   0.206   1.186
10192TIP3   OH230516   4.039   2.949   1.733
10192TIP3    H130517   3.988   2.870   1.753
10192TIP3    H230518   3.974   3.020   1.731
10193TIP3   OH230519   7.255   0.132   3.587
10193TIP3    H130520   7.271   0.100   3.499
10193TIP3    H230521   7.282   0.224   3.586
10194TIP3   OH230522   3.817   4.360   4.921
10194TIP3    H130523   3.907   4.367   4.951
10194TIP3    H230524   3.811   4.274   4.881
10195TIP3   OH230525   7.796   5.201   1.970
10195TIP3    H130526   7.752   5.222   1.887
10195TIP3    H230527   7.875   5.154   1.944
10196TIP3   OH230528   7.251   5.991   5.642
10196TIP3    H130529   7.324   5.961   5.696
10196TIP3    H230530   7.284   6.070   5.599
10197TIP3   OH230531   8.152   3.277   5.209
10197TIP3    H130532   8.210   3.256   5.282
10197TIP3    H230533   8.067   3.243   5.235
10198TIP3   OH230534   2.754   1.594   1.801
10198TIP3    H130535   2.691   1.538   1.756
10198TIP3    H230536   2.834   1.541   1.806
10199TIP3   OH230537   5.404   0.470   3.315
10199TIP3    H130538   5.409   0.393   3.371
10199TIP3    H230539   5.314   0.472   3.284
10200TIP3   OH230540   4.699   0.727   5.105
10200TIP3    H130541   4.749   0.716   5.186
10200TIP3    H230542   4.682   0.638   5.075
10201TIP3   OH230543   2.259   3.627   0.763
10201TIP3    H130544   2.195   3.594   0.827
10201TIP3    H230545   2.309   3.549   0.737
10202TIP3   OH230546   3.982   3.728   2.104
10202TIP3    H130547   4.005   3.757   2.016
10202TIP3    H230548   3.968   3.634   2.095
10203TIP3   OH230549   2.611   7.267   3.785
10203TIP3    H130550   2.593   7.182   3.745
10203TIP3    H230551   2.536   7.322   3.760
10204TIP3   OH230552   5.787   1.779   0.282
10204TIP3    H130553   5.805   1.743   0.369
10204TIP3    H230554   5.857   1.842   0.267
10205TIP3   OH230555   3.868   5.788   5.007
10205TIP3    H130556   3.894   5.743   4.927
10205TIP3    H230557   3.912   5.873   5.002
10206TIP3   OH230558   6.198   5.605   5.547
10206TIP3    H130559   6.229   5.665   5.478
10206TIP3    H230560   6.252   5.627   5.623
10207TIP3   OH230561   7.260   3.755   2.702
10207TIP3    H130562   7.331   3.786   2.759
10207TIP3    H230563   7.210   3.695   2.757
10208TIP3   OH230564   1.354   5.890   5.057
10208TIP3    H130565   1.325   5.922   4.971
10208TIP3    H230566   1.397   5.966   5.097
10209TIP3   OH230567   8.315   0.596   1.434
10209TIP3    H130568   8.334   0.518   1.486
10209TIP3    H230569   8.341   0.573   1.345
10210TIP3   OH230570   0.752   0.348   4.557
10210TIP3    H130571   0.700   0.411   4.507
10210TIP3    H230572   0.693   0.275   4.574
10211TIP3   OH230573   6.854   7.290   2.937
10211TIP3    H130574   6.949   7.275   2.944
10211TIP3    H230575   6.815   7.229   2.999
10212TIP3   OH230576   2.085   5.569   1.306
10212TIP3    H130577   2.177   5.568   1.333
10212TIP3    H230578   2.036   5.548   1.386
10213TIP3   OH230579   3.461   2.746   4.891
10213TIP3    H130580   3.486   2.772   4.979
10213TIP3    H230581   3.521   2.793   4.833
10214TIP3   OH230582   5.824   1.668   2.174
10214TIP3    H130583   5.739   1.698   2.206
10214TIP3    H230584   5.853   1.603   2.239
10215TIP3   OH230585   4.346   3.632   1.415
10215TIP3    H130586   4.392   3.645   1.331
10215TIP3    H230587   4.287   3.559   1.399
10216TIP3   OH230588   2.525   3.946   2.993
10216TIP3    H130589   2.496   3.952   3.084
10216TIP3    H230590   2.592   4.014   2.986
10217TIP3   OH230591   0.399   1.397   4.672
10217TIP3    H130592   0.372   1.335   4.604
10217TIP3    H230593   0.493   1.383   4.680
10218TIP3   OH230594   7.220   6.259   3.251
10218TIP3    H130595   7.267   6.193   3.301
10218TIP3    H230596   7.282   6.331   3.241
10219TIP3   OH230597   0.673   6.305   0.363
10219TIP3    H130598   0.738   6.260   0.309
10219TIP3    H230599   0.722   6.329   0.442
10220TIP3   OH230600   7.771   3.748   6.015
10220TIP3    H130601   7.782   3.682   5.947
10220TIP3    H230602   7.723   3.819   5.972
10221TIP3   OH230603   2.915   0.552   3.884
10221TIP3    H130604   2.992   0.509   3.847
10221TIP3    H230605   2.913   0.524   3.975
10222TIP3   OH230606   0.318   2.858   0.903
10222TIP3    H130607   0.236   2.884   0.947
10222TIP3    H230608   0.369   2.939   0.898
10223TIP3   OH230609   4.687   4.191   2.917
10223TIP3    H130610   4.615   4.185   2.981
10223TIP3    H230611   4.683   4.281   2.885
10224TIP3   OH230612   4.924   7.471   4.049
10224TIP3    H130613   4.956   7.520   3.973
10224TIP3    H230614   4.966   7.385   4.043
10225TIP3   OH230615   4.075   3.301   3.590
10225TIP3    H130616   4.146   3.237   3.591
10225TIP3    H230617   3.996   3.249   3.597
10226TIP3   OH230618   4.988   3.782   0.150
10226TIP3    H130619   4.997   3.835   0.070
10226TIP3    H230620   5.057   3.814   0.208
10227TIP3   OH230621   2.083   0.370   6.032
10227TIP3    H130622   2.073   0.363   5.937
10227TIP3    H230623   2.000   0.409   6.061
10228TIP3   OH230624   2.310   1.055   2.241
10228TIP3    H130625   2.343   1.142   2.220
10228TIP3    H230626   2.220   1.056   2.210
10229TIP3   OH230627   7.225   7.012   5.826
10229TIP3    H130628   7.285   7.078   5.861
10229TIP3    H230629   7.160   7.000   5.895
10230TIP3   OH230630   6.434   3.812   4.003
10230TIP3    H130631   6.513   3.837   3.955
10230TIP3    H230632   6.375   3.886   3.994
10231TIP3   OH230633   3.178   5.067   6.649
10231TIP3    H130634   3.083   5.077   6.645
10231TIP3    H230635   3.212   5.148   6.612
10232TIP3   OH230636   7.480   6.450   2.761
10232TIP3    H130637   7.557   6.482   2.715
10232TIP3    H230638   7.509   6.439   2.852
10233TIP3   OH230639   2.012   1.179   5.664
10233TIP3    H130640   2.040   1.092   5.692
10233TIP3    H230641   2.092   1.224   5.639
10234TIP3   OH230642   5.501   7.194   3.945
10234TIP3    H130643   5.520   7.279   3.907
10234TIP3    H230644   5.423   7.208   3.998
10235TIP3   OH230645   8.227   5.342   6.041
10235TIP3    H130646   8.214   5.252   6.068
10235TIP3    H230647   8.313   5.365   6.076
10236TIP3   OH230648   4.465   3.501   0.421
10236TIP3    H130649   4.445   3.433   0.357
10236TIP3    H230650   4.513   3.567   0.371
10237TIP3   OH230651   6.032   5.348   6.672
10237TIP3    H130652   5.966   5.417   6.662
10237TIP3    H230653   6.032   5.303   6.588
10238TIP3   OH230654   7.327   0.318   4.678
10238TIP3    H130655   7.258   0.323   4.744
10238TIP3    H230656   7.398   0.268   4.720
10239TIP3   OH230657   2.445   7.281   4.455
10239TIP3    H130658   2.530   7.295   4.497
10239TIP3    H230659   2.434   7.356   4.397
10240TIP3   OH230660   0.412   7.778   1.473
10240TIP3    H130661   0.346   7.750   1.410
10240TIP3    H230662   0.489   7.799   1.420
10241TIP3   OH230663   3.102   3.965   0.834
10241TIP3    H130664   3.034   4.021   0.796
10241TIP3    H230665   3.112   3.998   0.923
10242TIP3   OH230666   4.638   0.418   1.978
10242TIP3    H130667   4.708   0.409   2.042
10242TIP3    H230668   4.661   0.356   1.909
10243TIP3   OH230669   7.179   4.340   5.467
10243TIP3    H130670   7.103   4.296   5.506
10243TIP3    H230671   7.146   4.426   5.441
10244TIP3   OH230672   2.650   0.588   1.956
10244TIP3    H130673   2.663   0.664   1.899
10244TIP3    H230674   2.738   0.558   1.977
10245TIP3   OH230675   7.941   5.627   4.046
10245TIP3    H130676   7.915   5.536   4.063
10245TIP3    H230677   8.029   5.634   4.081
10246TIP3   OH230678   1.330   4.256   6.076
10246TIP3    H130679   1.399   4.229   6.136
10246TIP3    H230680   1.369   4.248   5.989
10247TIP3   OH230681   7.218   1.678   1.562
10247TIP3    H130682   7.141   1.735   1.555
10247TIP3    H230683   7.290   1.737   1.584
10248TIP3   OH230684   7.203   1.711   4.153
10248TIP3    H130685   7.272   1.648   4.175
10248TIP3    H230686   7.248   1.796   4.156
10249TIP3   OH230687   1.201   6.001   1.942
10249TIP3    H130688   1.250   5.944   1.883
10249TIP3    H230689   1.120   5.953   1.959
10250TIP3   OH230690   5.918   4.895   6.386
10250TIP3    H130691   5.857   4.881   6.458
10250TIP3    H230692   5.947   4.807   6.361
10251TIP3   OH230693   5.637   3.270   1.477
10251TIP3    H130694   5.624   3.350   1.426
10251TIP3    H230695   5.703   3.294   1.542
10252TIP3   OH230696   5.226   0.443   2.098
10252TIP3    H130697   5.290   0.506   2.131
10252TIP3    H230698   5.142   0.475   2.130
10253TIP3   OH230699   1.993   4.425   6.277
10253TIP3    H130700   2.043   4.506   6.265
10253TIP3    H230701   2.016   4.371   6.203
10254TIP3   OH230702   2.755   7.051   3.221
10254TIP3    H130703   2.811   7.012   3.288
10254TIP3    H230704   2.785   7.142   3.215
10255TIP3   OH230705   5.517   5.935   4.970
10255TIP3    H130706   5.453   5.968   5.033
10255TIP3    H230707   5.602   5.950   5.011
10256TIP3   OH230708   3.766   2.190   3.201
10256TIP3    H130709   3.848   2.177   3.248
10256TIP3    H230710   3.731   2.102   3.190
10257TIP3   OH230711   2.021   6.152   1.918
10257TIP3    H130712   1.963   6.179   1.847
10257TIP3    H230713   2.007   6.218   1.986
10258TIP3   OH230714   1.406   7.320   2.220
10258TIP3    H130715   1.455   7.259   2.276
10258TIP3    H230716   1.418   7.285   2.131
10259TIP3   OH230717   6.090   4.751   1.046
10259TIP3    H130718   6.143   4.746   0.966
10259TIP3    H230719   6.121   4.678   1.100
10260TIP3   OH230720   1.727   5.796   2.328
10260TIP3    H130721   1.762   5.834   2.247
10260TIP3    H230722   1.804   5.783   2.383
10261TIP3   OH230723   8.245   4.114   0.880
10261TIP3    H130724   8.229   4.156   0.796
10261TIP3    H230725   8.288   4.031   0.859
10262TIP3   OH230726   4.097   5.704   6.117
10262TIP3    H130727   4.085   5.613   6.143
10262TIP3    H230728   4.162   5.700   6.047
10263TIP3   OH230729   1.086   5.319   0.476
10263TIP3    H130730   1.015   5.259   0.496
10263TIP3    H230731   1.068   5.349   0.386
10264TIP3   OH230732   5.327   3.805   5.192
10264TIP3    H130733   5.398   3.762   5.239
10264TIP3    H230734   5.370   3.852   5.121
10265TIP3   OH230735   7.012   0.771   6.661
10265TIP3    H130736   6.941   0.712   6.689
10265TIP3    H230737   7.062   0.787   6.741
10266TIP3   OH230738   0.555   6.737   0.901
10266TIP3    H130739   0.533   6.812   0.956
10266TIP3    H230740   0.509   6.663   0.942
10267TIP3   OH230741   6.399   0.998   5.911
10267TIP3    H130742   6.322   1.029   5.864
10267TIP3    H230743   6.402   0.904   5.892
10268TIP3   OH230744   3.484   1.235   3.372
10268TIP3    H130745   3.515   1.326   3.368
10268TIP3    H230746   3.547   1.186   3.319
10269TIP3   OH230747   8.177   6.048   6.113
10269TIP3    H130748   8.264   6.010   6.100
10269TIP3    H230749   8.142   6.059   6.024
10270TIP3   OH230750   2.514   2.305   4.342
10270TIP3    H130751   2.419   2.302   4.336
10270TIP3    H230752   2.541   2.368   4.275
10271TIP3   OH230753   2.579   6.867   5.912
10271TIP3    H130754   2.630   6.871   5.993
10271TIP3    H230755   2.623   6.927   5.852
10272TIP3   OH230756   0.070   0.483   5.319
10272TIP3    H130757   0.123   0.421   5.269
10272TIP3    H230758   0.115   0.567   5.308
10273TIP3   OH230759   1.583   7.156   3.391
10273TIP3    H130760   1.678   7.164   3.383
10273TIP3    H230761   1.567   7.147   3.485
10274TIP3   OH230762   7.440   6.548   0.349
10274TIP3    H130763   7.435   6.581   0.260
10274TIP3    H230764   7.448   6.453   0.339
10275TIP3   OH230765   2.904   1.616   1.381
10275TIP3    H130766   2.958   1.539   1.394
10275TIP3    H230767   2.872   1.609   1.291
10276TIP3   OH230768   6.697   4.596   2.004
10276TIP3    H130769   6.708   4.673   2.060
10276TIP3    H230770   6.774   4.542   2.022
10277TIP3   OH230771   3.153   6.451   0.639
10277TIP3    H130772   3.111   6.513   0.699
10277TIP3    H230773   3.111   6.367   0.660
10278TIP3   OH230774   1.163   5.957   0.536
10278TIP3    H130775   1.132   5.919   0.454
10278TIP3    H230776   1.198   6.043   0.512
10279TIP3   OH230777   5.090   7.874   2.531
10279TIP3    H130778   5.064   7.958   2.494
10279TIP3    H230779   5.163   7.896   2.590
10280TIP3   OH230780   5.538   5.339   0.981
10280TIP3    H130781   5.552   5.434   0.973
10280TIP3    H230782   5.623   5.305   1.011
10281TIP3   OH230783   0.988   1.649   6.046
10281TIP3    H130784   1.045   1.705   5.993
10281TIP3    H230785   1.032   1.643   6.131
10282TIP3   OH230786   7.662   7.344   1.018
10282TIP3    H130787   7.647   7.349   1.113
10282TIP3    H230788   7.640   7.254   0.995
10283TIP3   OH230789   3.451   3.683   2.464
10283TIP3    H130790   3.429   3.735   2.541
10283TIP3    H230791   3.540   3.652   2.480
10284TIP3   OH230792   7.749   7.668   2.728
10284TIP3    H130793   7.670   7.714   2.757
10284TIP3    H230794   7.818   7.700   2.786
10285TIP3   OH230795   2.469   7.473   3.041
10285TIP3    H130796   2.493   7.492   3.131
10285TIP3    H230797   2.374   7.463   3.043
10286TIP3   OH230798   7.116   5.190   6.397
10286TIP3    H130799   7.095   5.280   6.424
10286TIP3    H230800   7.139   5.146   6.479
10287TIP3   OH230801   8.319   5.137   5.349
10287TIP3    H130802   8.328   5.191   5.428
10287TIP3    H230803   8.299   5.201   5.280
10288TIP3   OH230804   4.351   2.917   5.740
10288TIP3    H130805   4.401   2.940   5.662
10288TIP3    H230806   4.265   2.892   5.708
10289TIP3   OH230807   8.188   2.500   1.988
10289TIP3    H130808   8.221   2.588   1.967
10289TIP3    H230809   8.236   2.474   2.066
10290TIP3   OH230810   4.487   2.856   1.416
10290TIP3    H130811   4.545   2.848   1.492
10290TIP3    H230812   4.400   2.835   1.449
10291TIP3   OH230813   4.318   5.319   6.718
10291TIP3    H130814   4.274   5.339   6.801
10291TIP3    H230815   4.250   5.328   6.652
10292TIP3   OH230816   6.001   7.930   4.208
10292TIP3    H130817   5.920   7.981   4.208
10292TIP3    H230818   5.974   7.842   4.235
10293TIP3   OH230819   5.353   2.507   3.965
10293TIP3    H130820   5.419   2.438   3.969
10293TIP3    H230821   5.391   2.574   3.908
10294TIP3   OH230822   2.947   3.979   2.483
10294TIP3    H130823   3.027   3.926   2.489
10294TIP3    H230824   2.946   4.012   2.394
10295TIP3   OH230825   7.397   4.107   2.009
10295TIP3    H130826   7.309   4.076   1.988
10295TIP3    H230827   7.455   4.042   1.971
10296TIP3   OH230828   4.104   2.836   6.386
10296TIP3    H130829   4.144   2.867   6.305
10296TIP3    H230830   4.177   2.802   6.438
10297TIP3   OH230831   5.248   2.883   4.142
10297TIP3    H130832   5.217   2.908   4.055
10297TIP3    H230833   5.203   2.943   4.202
10298TIP3   OH230834   5.082   2.062   1.197
10298TIP3    H130835   5.017   2.057   1.267
10298TIP3    H230836   5.031   2.055   1.117
10299TIP3   OH230837   1.914   7.125   4.438
10299TIP3    H130838   1.926   7.183   4.362
10299TIP3    H230839   1.875   7.181   4.505
10300TIP3   OH230840   2.018   7.224   2.561
10300TIP3    H130841   1.946   7.284   2.579
10300TIP3    H230842   2.066   7.265   2.489
10301TIP3   OH230843   5.235   7.197   3.059
10301TIP3    H130844   5.179   7.156   2.993
10301TIP3    H230845   5.221   7.291   3.047
10302TIP3   OH230846   5.695   1.827   2.602
10302TIP3    H130847   5.783   1.791   2.605
10302TIP3    H230848   5.661   1.814   2.691
10303TIP3   OH230849   0.993   0.750   2.999
10303TIP3    H130850   0.906   0.762   2.962
10303TIP3    H230851   0.987   0.668   3.049
10304TIP3   OH230852   3.616   3.505   4.273
10304TIP3    H130853   3.544   3.550   4.230
10304TIP3    H230854   3.648   3.566   4.339
10305TIP3   OH230855   8.126   3.236   1.349
10305TIP3    H130856   8.202   3.295   1.350
10305TIP3    H230857   8.054   3.291   1.379
10306TIP3   OH230858   1.847   5.713   1.165
10306TIP3    H130859   1.798   5.719   1.247
10306TIP3    H230860   1.797   5.767   1.104
10307TIP3   OH230861   5.271   0.375   2.994
10307TIP3    H130862   5.282   0.309   2.926
10307TIP3    H230863   5.201   0.340   3.050
10308TIP3   OH230864   1.982   3.399   4.873
10308TIP3    H130865   1.899   3.445   4.872
10308TIP3    H230866   2.030   3.433   4.797
10309TIP3   OH230867   6.648   6.546   1.038
10309TIP3    H130868   6.574   6.607   1.036
10309TIP3    H230869   6.703   6.572   0.964
10310TIP3   OH230870   0.478   3.956   2.077
10310TIP3    H130871   0.388   3.924   2.080
10310TIP3    H230872   0.520   3.919   2.155
10311TIP3   OH230873   8.345   7.016   5.725
10311TIP3    H130874   8.356   6.956   5.650
10311TIP3    H230875   8.287   7.084   5.692
10312TIP3   OH230876   5.645   5.835   2.063
10312TIP3    H130877   5.598   5.784   1.997
10312TIP3    H230878   5.736   5.807   2.055
10313TIP3   OH230879   1.275   6.757   2.821
10313TIP3    H130880   1.272   6.662   2.833
10313TIP3    H230881   1.347   6.771   2.759
10314TIP3   OH230882   5.379   1.663   4.375
10314TIP3    H130883   5.423   1.628   4.297
10314TIP3    H230884   5.296   1.615   4.379
10315TIP3   OH230885   7.539   0.545   2.931
10315TIP3    H130886   7.576   0.601   2.863
10315TIP3    H230887   7.481   0.486   2.883
10316TIP3   OH230888   1.371   1.677   6.331
10316TIP3    H130889   1.319   1.608   6.371
10316TIP3    H230890   1.351   1.672   6.238
10317TIP3   OH230891   4.693   4.580   5.086
10317TIP3    H130892   4.698   4.485   5.079
10317TIP3    H230893   4.781   4.607   5.110
10318TIP3   OH230894   8.147   2.345   2.404
10318TIP3    H130895   8.202   2.354   2.327
10318TIP3    H230896   8.073   2.404   2.387
10319TIP3   OH230897   6.533   4.424   3.193
10319TIP3    H130898   6.460   4.464   3.240
10319TIP3    H230899   6.573   4.364   3.256
10320TIP3   OH230900   2.757   1.223   5.651
10320TIP3    H130901   2.786   1.132   5.642
10320TIP3    H230902   2.800   1.254   5.731
10321TIP3   OH230903   4.497   4.308   5.955
10321TIP3    H130904   4.564   4.365   5.918
10321TIP3    H230905   4.546   4.231   5.986
10322TIP3   OH230906   6.722   5.137   6.009
10322TIP3    H130907   6.647   5.081   6.028
10322TIP3    H230908   6.766   5.094   5.935
10323TIP3   OH230909   5.716   2.913   5.439
10323TIP3    H130910   5.768   2.833   5.437
10323TIP3    H230911   5.684   2.918   5.529
10324TIP3   OH230912   3.183   6.103   6.109
10324TIP3    H130913   3.233   6.075   6.033
10324TIP3    H230914   3.220   6.054   6.182
10325TIP3   OH230915   2.432   1.790   6.222
10325TIP3    H130916   2.351   1.841   6.220
10325TIP3    H230917   2.486   1.827   6.152
10326TIP3   OH230918   8.231   0.574   5.210
10326TIP3    H130919   8.295   0.537   5.272
10326TIP3    H230920   8.183   0.498   5.178
10327TIP3   OH230921   0.238   6.186   3.572
10327TIP3    H130922   0.215   6.264   3.622
10327TIP3    H230923   0.286   6.219   3.496
10328TIP3   OH230924   0.200   5.979   1.062
10328TIP3    H130925   0.124   6.013   1.109
10328TIP3    H230926   0.185   6.003   0.971
10329TIP3   OH230927   6.097   3.806   2.316
10329TIP3    H130928   6.035   3.734   2.322
10329TIP3    H230929   6.145   3.805   2.399
10330TIP3   OH230930   7.872   2.300   3.191
10330TIP3    H130931   7.843   2.385   3.158
10330TIP3    H230932   7.889   2.316   3.284
10331TIP3   OH230933   5.481   5.190   6.827
10331TIP3    H130934   5.408   5.241   6.863
10331TIP3    H230935   5.519   5.245   6.759
10332TIP3   OH230936   6.715   1.238   0.489
10332TIP3    H130937   6.730   1.161   0.434
10332TIP3    H230938   6.768   1.307   0.449
10333TIP3   OH230939   1.076   4.004   1.603
10333TIP3    H130940   1.087   4.099   1.611
10333TIP3    H230941   0.982   3.992   1.587
10334TIP3   OH230942   0.253   3.297   2.762
10334TIP3    H130943   0.251   3.388   2.731
10334TIP3    H230944   0.243   3.305   2.857
10335TIP3   OH230945   6.805   2.305   5.985
10335TIP3    H130946   6.809   2.235   5.920
10335TIP3    H230947   6.834   2.383   5.938
10336TIP3   OH230948   4.809   5.174   5.368
10336TIP3    H130949   4.719   5.196   5.346
10336TIP3    H230950   4.859   5.193   5.288
10337TIP3   OH230951   4.374   5.531   3.254
10337TIP3    H130952   4.304   5.519   3.190
10337TIP3    H230953   4.336   5.590   3.320
10338TIP3   OH230954   1.554   6.618   3.055
10338TIP3    H130955   1.465   6.654   3.064
10338TIP3    H230956   1.568   6.568   3.135
10339TIP3   OH230957   7.433   4.439   4.590
10339TIP3    H130958   7.433   4.381   4.514
10339TIP3    H230959   7.507   4.410   4.643
10340TIP3   OH230960   1.104   5.277   3.876
10340TIP3    H130961   1.147   5.354   3.912
10340TIP3    H230962   1.153   5.258   3.796
10341TIP3   OH230963   6.530   7.473   5.616
10341TIP3    H130964   6.477   7.409   5.569
10341TIP3    H230965   6.494   7.475   5.704
10342TIP3   OH230966   4.278   2.979   4.528
10342TIP3    H130967   4.294   3.039   4.601
10342TIP3    H230968   4.356   2.987   4.472
10343TIP3   OH230969   3.979   5.016   2.252
10343TIP3    H130970   4.038   5.014   2.328
10343TIP3    H230971   3.917   5.086   2.272
10344TIP3   OH230972   1.738   5.557   1.853
10344TIP3    H130973   1.831   5.577   1.842
10344TIP3    H230974   1.694   5.611   1.787
10345TIP3   OH230975   6.675   1.137   3.788
10345TIP3    H130976   6.721   1.061   3.826
10345TIP3    H230977   6.738   1.208   3.794
10346TIP3   OH230978   5.803   7.198   3.597
10346TIP3    H130979   5.738   7.162   3.657
10346TIP3    H230980   5.835   7.122   3.547
10347TIP3   OH230981   7.826   3.410   0.575
10347TIP3    H130982   7.775   3.491   0.577
10347TIP3    H230983   7.903   3.431   0.523
10348TIP3   OH230984   1.343   0.761   2.132
10348TIP3    H130985   1.414   0.770   2.195
10348TIP3    H230986   1.373   0.695   2.070
10349TIP3   OH230987   6.128   2.432   1.357
10349TIP3    H130988   6.092   2.460   1.441
10349TIP3    H230989   6.081   2.485   1.292
10350TIP3   OH230990   0.839   7.683   5.505
10350TIP3    H130991   0.900   7.619   5.469
10350TIP3    H230992   0.828   7.748   5.435
10351TIP3   OH230993   0.924   6.492   1.865
10351TIP3    H130994   0.932   6.572   1.917
10351TIP3    H230995   0.923   6.422   1.930
10352TIP3   OH230996   6.042   7.078   6.097
10352TIP3    H130997   5.981   7.119   6.037
10352TIP3    H230998   6.011   6.988   6.106
10353TIP3   OH230999   3.917   7.781   3.589
10353TIP3    H131000   3.947   7.862   3.547
10353TIP3    H231001   3.961   7.712   3.540
10354TIP3   OH231002   2.124   3.098   5.310
10354TIP3    H131003   2.086   3.133   5.230
10354TIP3    H231004   2.215   3.126   5.308
10355TIP3   OH231005   3.116   0.560   2.067
10355TIP3    H131006   3.184   0.533   2.005
10355TIP3    H231007   3.162   0.616   2.130
10356TIP3   OH231008   1.004   2.345   0.427
10356TIP3    H131009   1.055   2.352   0.347
10356TIP3    H231010   0.977   2.254   0.431
10357TIP3   OH231011   1.860   6.708   0.712
10357TIP3    H131012   1.832   6.794   0.741
10357TIP3    H231013   1.854   6.653   0.789
10358TIP3   OH231014   6.771   5.692   2.000
10358TIP3    H131015   6.799   5.631   1.931
10358TIP3    H231016   6.721   5.637   2.061
10359TIP3   OH231017   2.894   4.992   6.463
10359TIP3    H131018   2.912   4.931   6.535
10359TIP3    H231019   2.869   4.936   6.390
10360TIP3   OH231020   4.430   0.147   5.673
10360TIP3    H131021   4.495   0.205   5.633
10360TIP3    H231022   4.354   0.204   5.690
10361TIP3   OH231023   6.197   5.896   2.460
10361TIP3    H131024   6.180   5.893   2.555
10361TIP3    H231025   6.274   5.953   2.451
10362TIP3   OH231026   6.386   7.197   5.935
10362TIP3    H131027   6.457   7.145   5.896
10362TIP3    H231028   6.345   7.240   5.860
10363TIP3   OH231029   2.914   7.431   5.439
10363TIP3    H131030   3.010   7.432   5.446
10363TIP3    H231031   2.896   7.465   5.352
10364TIP3   OH231032   3.333   4.535   0.389
10364TIP3    H131033   3.253   4.587   0.379
10364TIP3    H231034   3.305   4.445   0.369
10365TIP3   OH231035   5.559   2.805   1.994
10365TIP3    H131036   5.509   2.883   1.970
10365TIP3    H231037   5.650   2.828   1.978
10366TIP3   OH231038   8.126   2.462   0.398
10366TIP3    H131039   8.038   2.491   0.376
10366TIP3    H231040   8.117   2.417   0.482
10367TIP3   OH231041   6.304   4.878   5.742
10367TIP3    H131042   6.303   4.951   5.802
10367TIP3    H231043   6.289   4.801   5.797
10368TIP3   OH231044   7.848   1.357   1.245
10368TIP3    H131045   7.882   1.274   1.213
10368TIP3    H231046   7.794   1.334   1.321
10369TIP3   OH231047   7.211   6.862   1.545
10369TIP3    H131048   7.305   6.863   1.562
10369TIP3    H231049   7.203   6.816   1.461
10370TIP3   OH231050   1.126   6.124   5.645
10370TIP3    H131051   1.200   6.130   5.586
10370TIP3    H231052   1.089   6.212   5.647
10371TIP3   OH231053   8.020   5.659   4.328
10371TIP3    H131054   8.039   5.706   4.410
10371TIP3    H231055   7.961   5.589   4.354
10372TIP3   OH231056   3.821   0.975   0.298
10372TIP3    H131057   3.898   1.017   0.261
10372TIP3    H231058   3.831   0.882   0.276
10373TIP3   OH231059   0.694   5.044   5.897
10373TIP3    H131060   0.696   5.038   5.801
10373TIP3    H231061   0.767   5.102   5.919
10374TIP3   OH231062   1.346   3.490   2.689
10374TIP3    H131063   1.257   3.459   2.672
10374TIP3    H231064   1.392   3.476   2.607
10375TIP3   OH231065   0.389   2.997   1.954
10375TIP3    H131066   0.377   2.906   1.981
10375TIP3    H231067   0.483   3.005   1.939
10376TIP3   OH231068   4.682   3.146   3.687
10376TIP3    H131069   4.685   3.218   3.749
10376TIP3    H231070   4.674   3.068   3.742
10377TIP3   OH231071   4.966   4.672   6.332
10377TIP3    H131072   4.998   4.755   6.298
10377TIP3    H231073   5.011   4.606   6.280
10378TIP3   OH231074   8.003   7.230   0.901
10378TIP3    H131075   7.950   7.223   0.980
10378TIP3    H231076   8.021   7.324   0.893
10379TIP3   OH231077   1.251   6.230   4.507
10379TIP3    H131078   1.236   6.136   4.518
10379TIP3    H231079   1.166   6.270   4.522
10380TIP3   OH231080   6.794   6.937   4.202
10380TIP3    H131081   6.758   6.891   4.277
10380TIP3    H231082   6.722   6.989   4.168
10381TIP3   OH231083   7.020   4.891   0.647
10381TIP3    H131084   7.090   4.828   0.631
10381TIP3    H231085   7.061   4.976   0.635
10382TIP3   OH231086   0.623   1.594   5.560
10382TIP3    H131087   0.545   1.539   5.551
10382TIP3    H231088   0.682   1.562   5.492
10383TIP3   OH231089   5.917   7.303   1.543
10383TIP3    H131090   5.828   7.294   1.507
10383TIP3    H231091   5.955   7.215   1.535
10384TIP3   OH231092   3.779   4.828   0.281
10384TIP3    H131093   3.813   4.782   0.358
10384TIP3    H231094   3.850   4.888   0.256
10385TIP3   OH231095   6.709   6.422   6.886
10385TIP3    H131096   6.674   6.510   6.874
10385TIP3    H231097   6.678   6.373   6.810
10386TIP3   OH231098   1.124   1.041   1.681
10386TIP3    H131099   1.079   1.061   1.763
10386TIP3    H231100   1.212   1.015   1.707
10387TIP3   OH231101   0.553   2.550   1.335
10387TIP3    H131102   0.468   2.507   1.325
10387TIP3    H231103   0.590   2.514   1.416
10388TIP3   OH231104   6.064   3.949   3.675
10388TIP3    H131105   5.982   3.947   3.625
10388TIP3    H231106   6.129   3.981   3.613
10389TIP3   OH231107   7.472   6.069   3.035
10389TIP3    H131108   7.489   6.073   3.129
10389TIP3    H231109   7.442   5.980   3.019
10390TIP3   OH231110   1.399   5.839   6.307
10390TIP3    H131111   1.309   5.830   6.275
10390TIP3    H231112   1.417   5.757   6.353
10391TIP3   OH231113   4.470   3.742   6.050
10391TIP3    H131114   4.426   3.816   6.091
10391TIP3    H231115   4.407   3.708   5.987
10392TIP3   OH231116   6.468   1.872   6.482
10392TIP3    H131117   6.525   1.795   6.480
10392TIP3    H231118   6.513   1.937   6.428
10393TIP3   OH231119   0.589   3.515   3.222
10393TIP3    H131120   0.594   3.515   3.317
10393TIP3    H231121   0.680   3.521   3.193
10394TIP3   OH231122   0.789   2.756   0.649
10394TIP3    H131123   0.883   2.774   0.658
10394TIP3    H231124   0.784   2.680   0.592
10395TIP3   OH231125   7.850   5.902   2.899
10395TIP3    H131126   7.901   5.824   2.921
10395TIP3    H231127   7.796   5.875   2.825
10396TIP3   OH231128   1.730   1.713   5.447
10396TIP3    H131129   1.790   1.701   5.521
10396TIP3    H231130   1.693   1.627   5.431
10397TIP3   OH231131   7.070   7.794   4.568
10397TIP3    H131132   7.136   7.813   4.502
10397TIP3    H231133   7.104   7.836   4.648
10398TIP3   OH231134   8.130   4.161   3.300
10398TIP3    H131135   8.126   4.193   3.390
10398TIP3    H231136   8.064   4.212   3.253
10399TIP3   OH231137   7.916   2.261   5.208
10399TIP3    H131138   7.859   2.337   5.214
10399TIP3    H231139   7.945   2.245   5.298
10400TIP3   OH231140   8.235   4.129   3.049
10400TIP3    H131141   8.153   4.156   3.007
10400TIP3    H231142   8.218   4.137   3.143
10401TIP3   OH231143   5.042   1.369   1.271
10401TIP3    H131144   5.103   1.395   1.203
10401TIP3    H231145   5.077   1.287   1.306
10402TIP3   OH231146   5.030   7.886   0.993
10402TIP3    H131147   4.942   7.923   0.991
10402TIP3    H231148   5.051   7.869   0.901
10403TIP3   OH231149   0.573   2.443   1.581
10403TIP3    H131150   0.524   2.428   1.662
10403TIP3    H231151   0.660   2.470   1.610
10404TIP3   OH231152   3.071   6.499   6.376
10404TIP3    H131153   3.104   6.449   6.301
10404TIP3    H231154   3.028   6.575   6.337
10405TIP3   OH231155   8.267   7.273   0.492
10405TIP3    H131156   8.256   7.304   0.402
10405TIP3    H231157   8.180   7.281   0.531
10406TIP3   OH231158   4.351   0.327   2.547
10406TIP3    H131159   4.288   0.392   2.580
10406TIP3    H231160   4.429   0.339   2.602
10407TIP3   OH231161   1.917   1.606   2.391
10407TIP3    H131162   1.899   1.700   2.392
10407TIP3    H231163   1.852   1.571   2.330
10408TIP3   OH231164   6.006   2.355   2.466
10408TIP3    H131165   5.965   2.388   2.386
10408TIP3    H231166   5.966   2.270   2.480
10409TIP3   OH231167   6.099   4.698   0.545
10409TIP3    H131168   6.040   4.768   0.574
10409TIP3    H231169   6.181   4.741   0.526
10410TIP3   OH231170   5.605   5.233   1.723
10410TIP3    H131171   5.586   5.274   1.807
10410TIP3    H231172   5.565   5.147   1.729
10411TIP3   OH231173   0.427   0.980   5.786
10411TIP3    H131174   0.490   0.990   5.857
10411TIP3    H231175   0.397   0.889   5.793
10412TIP3   OH231176   5.562   5.694   5.661
10412TIP3    H131177   5.554   5.703   5.756
10412TIP3    H231178   5.629   5.758   5.637
10413TIP3   OH231179   0.198   1.506   1.254
10413TIP3    H131180   0.243   1.530   1.335
10413TIP3    H231181   0.118   1.559   1.255
10414TIP3   OH231182   4.224   3.104   1.071
10414TIP3    H131183   4.242   3.035   1.006
10414TIP3    H231184   4.301   3.104   1.127
10415TIP3   OH231185   1.668   5.737   0.039
10415TIP3    H131186   1.592   5.697   0.083
10415TIP3    H231187   1.663   5.830   0.064
10416TIP3   OH231188   1.472   3.692   1.793
10416TIP3    H131189   1.502   3.618   1.847
10416TIP3    H231190   1.451   3.653   1.708
10417TIP3   OH231191   8.155   6.997   1.791
10417TIP3    H131192   8.160   6.986   1.886
10417TIP3    H231193   8.092   7.068   1.779
10418TIP3   OH231194   4.212   1.754   0.206
10418TIP3    H131195   4.207   1.659   0.217
10418TIP3    H231196   4.201   1.789   0.294
10419TIP3   OH231197   6.276   5.024   3.022
10419TIP3    H131198   6.286   5.058   3.111
10419TIP3    H231199   6.218   4.949   3.031
10420TIP3   OH231200   7.604   7.632   4.075
10420TIP3    H131201   7.559   7.601   4.154
10420TIP3    H231202   7.680   7.679   4.108
10421TIP3   OH231203   1.110   4.961   2.240
10421TIP3    H131204   1.098   5.017   2.163
10421TIP3    H231205   1.144   5.019   2.308
10422TIP3   OH231206   3.481   7.361   4.324
10422TIP3    H131207   3.572   7.379   4.346
10422TIP3    H231208   3.479   7.366   4.228
10423TIP3   OH231209   7.619   0.677   4.848
10423TIP3    H131210   7.626   0.583   4.864
10423TIP3    H231211   7.688   0.696   4.784
10424TIP3   OH231212   8.164   6.717   3.012
10424TIP3    H131213   8.095   6.782   3.025
10424TIP3    H231214   8.120   6.644   2.968
10425TIP3   OH231215   2.981   2.879   3.555
10425TIP3    H131216   2.921   2.934   3.505
10425TIP3    H231217   2.969   2.791   3.519
10426TIP3   OH231218   4.808   5.763   3.729
10426TIP3    H131219   4.721   5.791   3.759
10426TIP3    H231220   4.816   5.674   3.761
10427TIP3   OH231221   0.168   7.781   0.292
10427TIP3    H131222   0.162   7.764   0.386
10427TIP3    H231223   0.078   7.798   0.265
10428TIP3   OH231224   7.752   1.005   1.724
10428TIP3    H131225   7.745   0.982   1.632
10428TIP3    H231226   7.669   1.049   1.745
10429TIP3   OH231227   6.004   1.119   6.605
10429TIP3    H131228   5.929   1.101   6.548
10429TIP3    H231229   6.060   1.178   6.553
10430TIP3   OH231230   1.126   4.830   5.655
10430TIP3    H131231   1.187   4.877   5.600
10430TIP3    H231232   1.042   4.875   5.643
10431TIP3   OH231233   4.955   0.155   5.019
10431TIP3    H131234   4.926   0.080   4.966
10431TIP3    H231235   5.023   0.120   5.077
10432TIP3   OH231236   2.209   6.568   6.503
10432TIP3    H131237   2.143   6.536   6.564
10432TIP3    H231238   2.238   6.652   6.541
10433TIP3   OH231239   4.172   3.786   6.078
10433TIP3    H131240   4.154   3.879   6.096
10433TIP3    H231241   4.183   3.747   6.165
10434TIP3   OH231242   3.668   0.398   3.884
10434TIP3    H131243   3.581   0.434   3.866
10434TIP3    H231244   3.728   0.459   3.841
10435TIP3   OH231245   2.116   2.027   5.121
10435TIP3    H131246   2.073   1.952   5.163
10435TIP3    H231247   2.151   1.991   5.039
10436TIP3   OH231248   7.646   1.032   5.068
10436TIP3    H131249   7.670   0.993   5.152
10436TIP3    H231250   7.686   1.119   5.069
10437TIP3   OH231251   7.066   6.644   2.601
10437TIP3    H131252   7.007   6.577   2.566
10437TIP3    H231253   7.013   6.688   2.668
10438TIP3   OH231254   2.835   3.329   5.999
10438TIP3    H131255   2.777   3.332   5.923
10438TIP3    H231256   2.898   3.259   5.979
10439TIP3   OH231257   5.449   1.468   6.120
10439TIP3    H131258   5.381   1.402   6.101
10439TIP3    H231259   5.518   1.419   6.165
10440TIP3   OH231260   6.112   1.789   5.676
10440TIP3    H131261   6.140   1.702   5.647
10440TIP3    H231262   6.178   1.849   5.643
10441TIP3   OH231263   4.586   7.195   3.564
10441TIP3    H131264   4.603   7.144   3.485
10441TIP3    H231265   4.498   7.232   3.551
10442TIP3   OH231266   5.932   7.185   5.451
10442TIP3    H131267   5.904   7.250   5.386
10442TIP3    H231268   5.850   7.144   5.479
10443TIP3   OH231269   4.845   7.540   0.509
10443TIP3    H131270   4.852   7.448   0.485
10443TIP3    H231271   4.777   7.574   0.451
10444TIP3   OH231272   8.070   2.150   6.016
10444TIP3    H131273   7.991   2.204   6.017
10444TIP3    H231274   8.139   2.208   5.986
10445TIP3   OH231275   1.976   7.485   0.114
10445TIP3    H131276   1.999   7.435   0.192
10445TIP3    H231277   1.885   7.463   0.097
10446TIP3   OH231278   3.384   0.751   3.347
10446TIP3    H131279   3.413   0.801   3.271
10446TIP3    H231280   3.431   0.668   3.341
10447TIP3   OH231281   1.268   3.655   6.293
10447TIP3    H131282   1.178   3.684   6.307
10447TIP3    H231283   1.321   3.719   6.341
10448TIP3   OH231284   1.065   3.910   4.312
10448TIP3    H131285   1.149   3.877   4.282
10448TIP3    H231286   1.067   3.899   4.407
10449TIP3   OH231287   2.593   2.666   3.005
10449TIP3    H131288   2.609   2.643   3.097
10449TIP3    H231289   2.513   2.620   2.982
10450TIP3   OH231290   4.518   4.892   0.427
10450TIP3    H131291   4.563   4.840   0.494
10450TIP3    H231292   4.427   4.898   0.458
10451TIP3   OH231293   3.384   3.114   4.607
10451TIP3    H131294   3.390   3.066   4.524
10451TIP3    H231295   3.317   3.067   4.657
10452TIP3   OH231296   1.907   7.214   4.170
10452TIP3    H131297   1.824   7.167   4.165
10452TIP3    H231298   1.899   7.285   4.107
10453TIP3   OH231299   0.336   0.080   5.201
10453TIP3    H131300   0.257   0.090   5.254
10453TIP3    H231301   0.304   0.067   5.112
10454TIP3   OH231302   1.457   3.631   4.066
10454TIP3    H131303   1.550   3.611   4.078
10454TIP3    H231304   1.438   3.606   3.976
10455TIP3   OH231305   3.690   3.531   2.497
10455TIP3    H131306   3.662   3.508   2.585
10455TIP3    H231307   3.713   3.447   2.457
10456TIP3   OH231308   0.938   6.044   4.444
10456TIP3    H131309   0.977   6.023   4.360
10456TIP3    H231310   0.951   6.138   4.454
10457TIP3   OH231311   1.509   5.719   2.862
10457TIP3    H131312   1.478   5.726   2.771
10457TIP3    H231313   1.572   5.790   2.871
10458TIP3   OH231314   2.718   0.378   5.599
10458TIP3    H131315   2.771   0.316   5.549
10458TIP3    H231316   2.699   0.334   5.682
10459TIP3   OH231317   4.862   3.899   3.617
10459TIP3    H131318   4.849   3.806   3.599
10459TIP3    H231319   4.935   3.902   3.679
10460TIP3   OH231320   6.238   2.067   6.660
10460TIP3    H131321   6.253   1.973   6.650
10460TIP3    H231322   6.288   2.091   6.737
10461TIP3   OH231323   7.693   4.127   1.810
10461TIP3    H131324   7.735   4.120   1.895
10461TIP3    H231325   7.756   4.091   1.748
10462TIP3   OH231326   1.883   7.677   4.335
10462TIP3    H131327   1.861   7.740   4.266
10462TIP3    H231328   1.935   7.610   4.291
10463TIP3   OH231329   5.822   0.217   3.760
10463TIP3    H131330   5.792   0.186   3.674
10463TIP3    H231331   5.913   0.189   3.766
10464TIP3   OH231332   7.487   3.625   2.269
10464TIP3    H131333   7.536   3.544   2.257
10464TIP3    H231334   7.427   3.606   2.342
10465TIP3   OH231335   5.472   1.799   1.263
10465TIP3    H131336   5.548   1.841   1.222
10465TIP3    H231337   5.410   1.788   1.191
10466TIP3   OH231338   1.337   0.977   0.817
10466TIP3    H131339   1.430   0.967   0.838
10466TIP3    H231340   1.318   1.069   0.833
10467TIP3   OH231341   6.682   0.247   3.909
10467TIP3    H131342   6.660   0.158   3.934
10467TIP3    H231343   6.739   0.278   3.980
10468TIP3   OH231344   6.544   6.944   0.761
10468TIP3    H131345   6.562   6.909   0.674
10468TIP3    H231346   6.625   6.988   0.786
10469TIP3   OH231347   8.204   4.828   0.059
10469TIP3    H131348   8.258   4.756   0.091
10469TIP3    H231349   8.194   4.886   0.135
10470TIP3   OH231350   7.144   6.929   4.820
10470TIP3    H131351   7.075   6.940   4.886
10470TIP3    H231352   7.144   6.836   4.801
10471TIP3   OH231353   6.976   0.912   4.882
10471TIP3    H131354   6.910   0.844   4.872
10471TIP3    H231355   7.025   0.910   4.800
10472TIP3   OH231356   7.700   3.528   2.033
10472TIP3    H131357   7.777   3.524   2.090
10472TIP3    H231358   7.733   3.564   1.951
10473TIP3   OH231359   8.400   3.385   4.486
10473TIP3    H131360   8.384   3.399   4.393
10473TIP3    H231361   8.313   3.392   4.526
10474TIP3   OH231362   2.617   1.622   6.339
10474TIP3    H131363   2.552   1.668   6.286
10474TIP3    H231364   2.620   1.534   6.300
10475TIP3   OH231365   6.085   6.428   1.460
10475TIP3    H131366   6.101   6.509   1.412
10475TIP3    H231367   6.073   6.361   1.392
10476TIP3   OH231368   2.350   4.530   1.010
10476TIP3    H131369   2.418   4.467   1.036
10476TIP3    H231370   2.275   4.508   1.065
10477TIP3   OH231371   7.917   2.912   2.345
10477TIP3    H131372   7.974   2.835   2.343
10477TIP3    H231373   7.967   2.977   2.394
10478TIP3   OH231374   6.830   1.928   2.580
10478TIP3    H131375   6.913   1.971   2.558
10478TIP3    H231376   6.833   1.917   2.675
10479TIP3   OH231377   2.881   6.227   1.753
10479TIP3    H131378   2.846   6.282   1.824
10479TIP3    H231379   2.803   6.187   1.714
10480TIP3   OH231380   3.498   6.342   5.978
10480TIP3    H131381   3.562   6.369   5.912
10480TIP3    H231382   3.422   6.314   5.928
10481TIP3   OH231383   2.491   7.258   0.693
10481TIP3    H131384   2.583   7.253   0.719
10481TIP3    H231385   2.480   7.347   0.661
10482TIP3   OH231386   4.944   4.671   5.663
10482TIP3    H131387   4.974   4.646   5.750
10482TIP3    H231388   4.881   4.742   5.680
10483TIP3   OH231389   3.055   0.250   6.726
10483TIP3    H131390   3.071   0.243   6.632
10483TIP3    H231391   2.968   0.213   6.738
10484TIP3   OH231392   7.922   4.349   3.278
10484TIP3    H131393   7.869   4.374   3.202
10484TIP3    H231394   7.858   4.337   3.348
10485TIP3   OH231395   0.573   6.674   6.203
10485TIP3    H131396   0.564   6.767   6.227
10485TIP3    H231397   0.557   6.673   6.108
10486TIP3   OH231398   7.434   7.101   2.886
10486TIP3    H131399   7.493   7.049   2.940
10486TIP3    H231400   7.443   7.191   2.919
10487TIP3   OH231401   3.687   6.218   1.453
10487TIP3    H131402   3.611   6.274   1.472
10487TIP3    H231403   3.674   6.191   1.362
10488TIP3   OH231404   3.294   5.440   1.322
10488TIP3    H131405   3.289   5.487   1.239
10488TIP3    H231406   3.245   5.359   1.307
10489TIP3   OH231407   3.479   5.973   6.025
10489TIP3    H131408   3.468   5.987   5.931
10489TIP3    H231409   3.422   5.899   6.045
10490TIP3   OH231410   6.094   4.500   3.132
10490TIP3    H131411   6.163   4.563   3.112
10490TIP3    H231412   6.135   4.439   3.194
10491TIP3   OH231413   5.005   7.410   2.062
10491TIP3    H131414   4.915   7.382   2.078
10491TIP3    H231415   5.036   7.438   2.148
10492TIP3   OH231416   7.455   0.871   4.968
10492TIP3    H131417   7.506   0.806   4.919
10492TIP3    H231418   7.519   0.937   4.994
10493TIP3   OH231419   6.033   2.932   6.041
10493TIP3    H131420   6.092   2.894   5.975
10493TIP3    H231421   5.981   2.858   6.071
10494TIP3   OH231422   1.306   2.901   6.263
10494TIP3    H131423   1.287   2.812   6.294
10494TIP3    H231424   1.275   2.958   6.333
10495TIP3   OH231425   3.870   3.886   5.621
10495TIP3    H131426   3.902   3.845   5.701
10495TIP3    H231427   3.904   3.831   5.550
10496TIP3   OH231428   5.626   2.439   2.479
10496TIP3    H131429   5.611   2.355   2.435
10496TIP3    H231430   5.541   2.482   2.479
10497TIP3   OH231431   2.216   0.749   6.480
10497TIP3    H131432   2.153   0.715   6.416
10497TIP3    H231433   2.186   0.714   6.564
10498TIP3   OH231434   5.415   3.589   5.367
10498TIP3    H131435   5.331   3.544   5.356
10498TIP3    H231436   5.427   3.595   5.462
10499TIP3   OH231437   6.276   3.239   1.388
10499TIP3    H131438   6.210   3.306   1.407
10499TIP3    H231439   6.353   3.289   1.361
10500TIP3   OH231440   2.773   1.522   0.119
10500TIP3    H131441   2.853   1.475   0.140
10500TIP3    H231442   2.765   1.589   0.187
10501TIP3   OH231443   8.423   3.356   1.939
10501TIP3    H131444   8.354   3.413   1.906
10501TIP3    H231445   8.398   3.269   1.909
10502TIP3   OH231446   3.632   5.818   2.059
10502TIP3    H131447   3.618   5.752   2.127
10502TIP3    H231448   3.638   5.901   2.108
10503TIP3   OH231449   3.208   5.343   0.289
10503TIP3    H131450   3.156   5.310   0.216
10503TIP3    H231451   3.174   5.297   0.366
10504TIP3   OH231452   5.438   2.785   4.684
10504TIP3    H131453   5.488   2.863   4.707
10504TIP3    H231454   5.409   2.801   4.594
10505TIP3   OH231455   0.737   7.166   3.415
10505TIP3    H131456   0.735   7.074   3.440
10505TIP3    H231457   0.650   7.198   3.435
10506TIP3   OH231458   1.408   2.647   4.661
10506TIP3    H131459   1.401   2.565   4.710
10506TIP3    H231460   1.318   2.679   4.655
10507TIP3   OH231461   4.279   1.371   4.107
10507TIP3    H131462   4.303   1.387   4.015
10507TIP3    H231463   4.363   1.357   4.151
10508TIP3   OH231464   2.057   3.515   5.782
10508TIP3    H131465   2.093   3.429   5.761
10508TIP3    H231466   2.040   3.512   5.876
10509TIP3   OH231467   0.307   6.118   4.597
10509TIP3    H131468   0.321   6.032   4.635
10509TIP3    H231469   0.342   6.112   4.508
10510TIP3   OH231470   6.261   3.365   3.408
10510TIP3    H131471   6.331   3.419   3.371
10510TIP3    H231472   6.300   3.279   3.419
10511TIP3   OH231473   3.220   6.424   6.142
10511TIP3    H131474   3.242   6.444   6.051
10511TIP3    H231475   3.218   6.328   6.146
10512TIP3   OH231476   7.416   4.402   2.000
10512TIP3    H131477   7.373   4.397   1.915
10512TIP3    H231478   7.405   4.315   2.038
10513TIP3   OH231479   2.452   6.188   4.714
10513TIP3    H131480   2.399   6.112   4.740
10513TIP3    H231481   2.388   6.259   4.707
10514TIP3   OH231482   1.283   0.237   5.954
10514TIP3    H131483   1.306   0.180   6.026
10514TIP3    H231484   1.301   0.186   5.875
10515TIP3   OH231485   8.008   6.959   3.053
10515TIP3    H131486   7.961   6.988   3.130
10515TIP3    H231487   7.942   6.954   2.984
10516TIP3   OH231488   4.592   1.331   0.685
10516TIP3    H131489   4.666   1.270   0.695
10516TIP3    H231490   4.514   1.277   0.699
10517TIP3   OH231491   3.785   6.191   4.971
10517TIP3    H131492   3.769   6.170   5.063
10517TIP3    H231493   3.808   6.284   4.971
10518TIP3   OH231494   3.801   1.034   4.598
10518TIP3    H131495   3.734   1.079   4.651
10518TIP3    H231496   3.751   0.975   4.542
10519TIP3   OH231497   1.042   0.668   0.230
10519TIP3    H131498   1.092   0.670   0.312
10519TIP3    H231499   1.034   0.575   0.209
10520TIP3   OH231500   6.460   5.894   0.251
10520TIP3    H131501   6.544   5.849   0.247
10520TIP3    H231502   6.445   5.923   0.161
10521TIP3   OH231503   2.005   6.874   4.450
10521TIP3    H131504   1.934   6.844   4.507
10521TIP3    H231505   1.976   6.960   4.419
10522TIP3   OH231506   1.624   6.450   0.787
10522TIP3    H131507   1.609   6.361   0.819
10522TIP3    H231508   1.695   6.484   0.841
10523TIP3   OH231509   7.244   4.636   5.663
10523TIP3    H131510   7.218   4.687   5.586
10523TIP3    H231511   7.167   4.582   5.683
10524TIP3   OH231512   7.263   0.007   3.946
10524TIP3    H131513   7.312  -0.036   3.876
10524TIP3    H231514   7.330   0.045   4.003
10525TIP3   OH231515   3.853   6.009   0.835
10525TIP3    H131516   3.772   6.057   0.855
10525TIP3    H231517   3.851   5.933   0.893
10526TIP3   OH231518   7.022   0.606   0.683
10526TIP3    H131519   7.011   0.570   0.595
10526TIP3    H231520   6.959   0.558   0.736
10527TIP3   OH231521   4.533   1.240   3.764
10527TIP3    H131522   4.504   1.321   3.806
10527TIP3    H231523   4.618   1.262   3.726
10528TIP3   OH231524   4.223   3.654   4.896
10528TIP3    H131525   4.245   3.747   4.904
10528TIP3    H231526   4.218   3.639   4.801
10529TIP3   OH231527   5.394   1.789   4.635
10529TIP3    H131528   5.355   1.875   4.618
10529TIP3    H231529   5.378   1.739   4.555
10530TIP3   OH231530   5.313   3.713   1.127
10530TIP3    H131531   5.279   3.801   1.143
10530TIP3    H231532   5.404   3.718   1.156
10531TIP3   OH231533   0.244   6.336   6.786
10531TIP3    H131534   0.260   6.362   6.695
10531TIP3    H231535   0.149   6.339   6.796
10532TIP3   OH231536   0.284   2.878   4.512
10532TIP3    H131537   0.367   2.887   4.467
10532TIP3    H231538   0.277   2.957   4.566
10533TIP3   OH231539   0.867   2.791   3.533
10533TIP3    H131540   0.864   2.732   3.607
10533TIP3    H231541   0.937   2.853   3.554
10534TIP3   OH231542   6.679   1.834   3.829
10534TIP3    H131543   6.614   1.772   3.864
10534TIP3    H231544   6.683   1.904   3.895
10535TIP3   OH231545   3.571   0.539   3.291
10535TIP3    H131546   3.637   0.517   3.358
10535TIP3    H231547   3.556   0.457   3.245
10536TIP3   OH231548   1.214   3.097   0.864
10536TIP3    H131549   1.287   3.135   0.912
10536TIP3    H231550   1.249   3.080   0.776
10537TIP3   OH231551   2.205   4.339   4.812
10537TIP3    H131552   2.298   4.360   4.809
10537TIP3    H231553   2.165   4.396   4.746
10538TIP3   OH231554   3.399   0.154   0.470
10538TIP3    H131555   3.494   0.153   0.482
10538TIP3    H231556   3.387   0.160   0.376
10539TIP3   OH231557   7.724   0.139   4.041
10539TIP3    H131558   7.775   0.180   4.111
10539TIP3    H231559   7.790   0.102   3.983
10540TIP3   OH231560   8.050   1.178   0.715
10540TIP3    H131561   8.049   1.085   0.693
10540TIP3    H231562   8.044   1.223   0.631
10541TIP3   OH231563   1.245   1.973   4.951
10541TIP3    H131564   1.195   1.892   4.960
10541TIP3    H231565   1.283   1.988   5.038
10542TIP3   OH231566   0.033   1.767   4.666
10542TIP3    H131567   0.020   1.680   4.703
10542TIP3    H231568  -0.017   1.825   4.723
10543TIP3   OH231569   0.521   5.056   0.205
10543TIP3    H131570   0.456   5.005   0.157
10543TIP3    H231571   0.547   4.999   0.278
10544TIP3   OH231572   4.653   5.731   0.978
10544TIP3    H131573   4.727   5.780   0.944
10544TIP3    H231574   4.682   5.640   0.979
10545TIP3   OH231575   7.710   2.623   4.025
10545TIP3    H131576   7.737   2.714   4.035
10545TIP3    H231577   7.781   2.572   4.064
10546TIP3   OH231578   4.173   5.673   1.368
10546TIP3    H131579   4.218   5.646   1.289
10546TIP3    H231580   4.190   5.767   1.376
10547TIP3   OH231581   6.730   7.598   5.920
10547TIP3    H131582   6.690   7.511   5.926
10547TIP3    H231583   6.656   7.656   5.901
10548TIP3   OH231584   0.650   3.859   2.290
10548TIP3    H131585   0.705   3.863   2.368
10548TIP3    H231586   0.584   3.793   2.310
10549TIP3   OH231587   5.232   3.549   4.178
10549TIP3    H131588   5.138   3.562   4.190
10549TIP3    H231589   5.255   3.607   4.105
10550TIP3   OH231590   4.203   6.734   1.823
10550TIP3    H131591   4.159   6.815   1.849
10550TIP3    H231592   4.206   6.738   1.727
10551TIP3   OH231593   5.194   6.531   0.973
10551TIP3    H131594   5.192   6.480   0.892
10551TIP3    H231595   5.143   6.478   1.035
10552TIP3   OH231596   7.075   2.859   4.095
10552TIP3    H131597   7.150   2.874   4.038
10552TIP3    H231598   7.013   2.929   4.075
10553TIP3   OH231599   7.214   4.326   6.383
10553TIP3    H131600   7.300   4.323   6.342
10553TIP3    H231601   7.231   4.352   6.473
10554TIP3   OH231602   4.691   7.716   4.178
10554TIP3    H131603   4.599   7.711   4.153
10554TIP3    H231604   4.734   7.759   4.104
10555TIP3   OH231605   7.406   1.530   5.497
10555TIP3    H131606   7.316   1.501   5.514
10555TIP3    H231607   7.398   1.624   5.480
10556TIP3   OH231608   6.386   3.404   1.020
10556TIP3    H131609   6.451   3.458   1.064
10556TIP3    H231610   6.322   3.383   1.089
10557TIP3   OH231611   4.788   5.083   2.297
10557TIP3    H131612   4.721   5.152   2.296
10557TIP3    H231613   4.742   5.005   2.267
10558TIP3   OH231614   1.698   5.968   1.506
10558TIP3    H131615   1.672   5.983   1.415
10558TIP3    H231616   1.624   6.002   1.557
10559TIP3   OH231617   4.521   1.301   2.557
10559TIP3    H131618   4.528   1.281   2.651
10559TIP3    H231619   4.427   1.310   2.542
10560TIP3   OH231620   2.608   2.706   3.361
10560TIP3    H131621   2.580   2.699   3.452
10560TIP3    H231622   2.601   2.617   3.326
10561TIP3   OH231623   5.549   6.435   2.794
10561TIP3    H131624   5.580   6.375   2.725
10561TIP3    H231625   5.576   6.522   2.764
10562TIP3   OH231626   4.035   5.749   0.854
10562TIP3    H131627   3.943   5.741   0.878
10562TIP3    H231628   4.083   5.721   0.932
10563TIP3   OH231629   6.886   3.031   4.010
10563TIP3    H131630   6.793   3.028   3.989
10563TIP3    H231631   6.912   3.122   3.993
10564TIP3   OH231632   3.720   7.723   4.995
10564TIP3    H131633   3.752   7.644   4.951
10564TIP3    H231634   3.772   7.728   5.075
10565TIP3   OH231635   5.752   1.544   4.687
10565TIP3    H131636   5.807   1.551   4.766
10565TIP3    H231637   5.717   1.632   4.675
10566TIP3   OH231638   2.241   2.061   1.483
10566TIP3    H131639   2.195   2.107   1.554
10566TIP3    H231640   2.281   1.985   1.526
10567TIP3   OH231641   6.239   1.303   0.210
10567TIP3    H131642   6.306   1.365   0.239
10567TIP3    H231643   6.288   1.224   0.187
10568TIP3   OH231644   4.017   3.226   0.814
10568TIP3    H131645   4.055   3.306   0.778
10568TIP3    H231646   4.084   3.194   0.874
10569TIP3   OH231647   6.803   6.475   4.316
10569TIP3    H131648   6.758   6.496   4.233
10569TIP3    H231649   6.843   6.557   4.343
10570TIP3   OH231650   2.109   3.223   1.263
10570TIP3    H131651   2.160   3.263   1.333
10570TIP3    H231652   2.137   3.269   1.184
10571TIP3   OH231653   5.944   6.641   6.028
10571TIP3    H131654   6.020   6.682   5.988
10571TIP3    H231655   5.900   6.712   6.075
10572TIP3   OH231656   6.888   4.921   4.152
10572TIP3    H131657   6.896   4.929   4.057
10572TIP3    H231658   6.796   4.901   4.167
10573TIP3   OH231659   2.636   2.348   4.812
10573TIP3    H131660   2.694   2.344   4.735
10573TIP3    H231661   2.696   2.341   4.887
10574TIP3   OH231662   4.544   1.052   6.780
10574TIP3    H131663   4.568   1.023   6.692
10574TIP3    H231664   4.502   0.976   6.820
10575TIP3   OH231665   2.844   0.075   6.401
10575TIP3    H131666   2.793   0.104   6.477
10575TIP3    H231667   2.806  -0.010   6.378
10576TIP3   OH231668   2.777   0.587   5.254
10576TIP3    H131669   2.688   0.600   5.221
10576TIP3    H231670   2.796   0.667   5.303
10577TIP3   OH231671   7.101   2.103   0.996
10577TIP3    H131672   7.096   2.063   0.909
10577TIP3    H231673   7.078   2.033   1.057
10578TIP3   OH231674   5.669   4.920   6.519
10578TIP3    H131675   5.611   4.867   6.574
10578TIP3    H231676   5.611   4.968   6.461
10579TIP3   OH231677   7.010   6.556   6.603
10579TIP3    H131678   6.975   6.572   6.691
10579TIP3    H231679   6.935   6.569   6.544
10580TIP3   OH231680   5.827   5.059   6.697
10580TIP3    H131681   5.821   4.992   6.765
10580TIP3    H231682   5.771   5.026   6.626
10581TIP3   OH231683   7.055   3.320   2.613
10581TIP3    H131684   7.149   3.305   2.609
10581TIP3    H231685   7.019   3.237   2.644
10582TIP3   OH231686   3.751   1.980   4.986
10582TIP3    H131687   3.756   2.071   4.957
10582TIP3    H231688   3.730   1.986   5.079
10583TIP3   OH231689   4.625   2.116   4.649
10583TIP3    H131690   4.603   2.165   4.728
10583TIP3    H231691   4.718   2.135   4.634
10584TIP3   OH231692   7.551   3.822   0.260
10584TIP3    H131693   7.554   3.726   0.265
10584TIP3    H231694   7.555   3.851   0.351
10585TIP3   OH231695   6.378   3.279   3.007
10585TIP3    H131696   6.360   3.255   2.916
10585TIP3    H231697   6.295   3.309   3.041
10586TIP3   OH231698   0.254   7.551   0.221
10586TIP3    H131699   0.210   7.629   0.255
10586TIP3    H231700   0.309   7.584   0.149
10587TIP3   OH231701   5.613   2.908   6.763
10587TIP3    H131702   5.634   2.953   6.681
10587TIP3    H231703   5.632   2.973   6.831
10588TIP3   OH231704   2.854   7.630   3.224
10588TIP3    H131705   2.924   7.637   3.289
10588TIP3    H231706   2.884   7.562   3.163
10589TIP3   OH231707   5.166   0.217   4.214
10589TIP3    H131708   5.181   0.133   4.171
10589TIP3    H231709   5.215   0.280   4.161
10590TIP3   OH231710   3.760   6.467   0.419
10590TIP3    H131711   3.820   6.461   0.493
10590TIP3    H231712   3.729   6.557   0.420
10591TIP3   OH231713   1.317   1.271   6.516
10591TIP3    H131714   1.331   1.312   6.431
10591TIP3    H231715   1.246   1.209   6.501
10592TIP3   OH231716   5.185   6.575   0.540
10592TIP3    H131717   5.126   6.622   0.599
10592TIP3    H231718   5.229   6.511   0.595
10593TIP3   OH231719   6.506   5.555   1.774
10593TIP3    H131720   6.593   5.560   1.734
10593TIP3    H231721   6.505   5.626   1.837
10594TIP3   OH231722   4.344   7.786   3.447
10594TIP3    H131723   4.437   7.794   3.428
10594TIP3    H231724   4.326   7.692   3.442
10595TIP3   OH231725   5.354   1.915   5.828
10595TIP3    H131726   5.266   1.910   5.792
10595TIP3    H231727   5.382   1.823   5.834
10596TIP3   OH231728   2.060   5.990   1.078
10596TIP3    H131729   2.095   6.075   1.103
10596TIP3    H231730   2.091   5.930   1.146
10597TIP3   OH231731   7.099   4.246   2.096
10597TIP3    H131732   7.068   4.195   2.021
10597TIP3    H231733   7.114   4.182   2.165
10598TIP3   OH231734   6.184   2.688   3.626
10598TIP3    H131735   6.098   2.648   3.635
10598TIP3    H231736   6.231   2.663   3.706
10599TIP3   OH231737   2.330   2.853   1.647
10599TIP3    H131738   2.294   2.842   1.559
10599TIP3    H231739   2.366   2.767   1.670
10600TIP3   OH231740   0.274   7.000   0.943
10600TIP3    H131741   0.233   7.068   0.997
10600TIP3    H231742   0.304   6.934   1.006
10601TIP3   OH231743   3.362   1.645   1.604
10601TIP3    H131744   3.334   1.651   1.513
10601TIP3    H231745   3.283   1.617   1.651
10602TIP3   OH231746   5.040   0.357   5.319
10602TIP3    H131747   4.961   0.395   5.281
10602TIP3    H231748   5.093   0.330   5.244
10603TIP3   OH231749   2.243   1.450   3.168
10603TIP3    H131750   2.292   1.501   3.104
10603TIP3    H231751   2.190   1.514   3.215
10604TIP3   OH231752   6.736   5.365   5.558
10604TIP3    H131753   6.793   5.404   5.625
10604TIP3    H231754   6.720   5.437   5.496
10605TIP3   OH231755   3.230   7.910   4.917
10605TIP3    H131756   3.267   7.860   4.990
10605TIP3    H231757   3.292   7.897   4.845
10606TIP3   OH231758   4.118   5.179   6.563
10606TIP3    H131759   4.039   5.130   6.536
10606TIP3    H231760   4.190   5.127   6.529
10607TIP3   OH231761   8.264   4.263   6.657
10607TIP3    H131762   8.243   4.194   6.594
10607TIP3    H231763   8.209   4.337   6.633
10608TIP3   OH231764   6.846   2.984   5.162
10608TIP3    H131765   6.864   2.904   5.210
10608TIP3    H231766   6.780   3.029   5.215
10609TIP3   OH231767   4.817   0.537   3.440
10609TIP3    H131768   4.856   0.556   3.355
10609TIP3    H231769   4.816   0.442   3.446
10610TIP3   OH231770   2.664   3.313   3.019
10610TIP3    H131771   2.620   3.228   3.014
10610TIP3    H231772   2.685   3.324   3.111
10611TIP3   OH231773   7.991   4.935   4.357
10611TIP3    H131774   7.903   4.898   4.361
10611TIP3    H231775   8.013   4.953   4.448
10612TIP3   OH231776   2.615   7.910   3.654
10612TIP3    H131777   2.611   7.861   3.736
10612TIP3    H231778   2.707   7.908   3.629
10613TIP3   OH231779   5.461   4.211   0.663
10613TIP3    H131780   5.435   4.147   0.730
10613TIP3    H231781   5.542   4.176   0.627
10614TIP3   OH231782   6.453   7.315   3.165
10614TIP3    H131783   6.485   7.358   3.244
10614TIP3    H231784   6.520   7.250   3.144
10615TIP3   OH231785   4.982   3.900   4.115
10615TIP3    H131786   5.068   3.939   4.130
10615TIP3    H231787   4.977   3.829   4.179
10616TIP3   OH231788   0.737   4.304   1.654
10616TIP3    H131789   0.764   4.216   1.631
10616TIP3    H231790   0.763   4.358   1.580
10617TIP3   OH231791   0.511   3.929   0.464
10617TIP3    H131792   0.537   3.946   0.555
10617TIP3    H231793   0.591   3.897   0.422
10618TIP3   OH231794   4.522   2.174   2.988
10618TIP3    H131795   4.546   2.179   2.895
10618TIP3    H231796   4.602   2.142   3.031
10619TIP3   OH231797   6.271   6.672   6.240
10619TIP3    H131798   6.209   6.599   6.235
10619TIP3    H231799   6.215   6.749   6.250
10620TIP3   OH231800   4.745   3.164   4.114
10620TIP3    H131801   4.807   3.195   4.049
10620TIP3    H231802   4.682   3.235   4.123
10621TIP3   OH231803   7.209   1.510   0.106
10621TIP3    H131804   7.265   1.451   0.157
10621TIP3    H231805   7.265   1.584   0.085
10622TIP3   OH231806   3.845   0.180   4.017
10622TIP3    H131807   3.939   0.184   4.002
10622TIP3    H231808   3.813   0.267   3.994
10623TIP3   OH231809   7.938   4.092   1.667
10623TIP3    H131810   7.987   4.148   1.607
10623TIP3    H231811   7.979   4.006   1.658
10624TIP3   OH231812   0.680   6.959   5.831
10624TIP3    H131813   0.601   7.012   5.828
10624TIP3    H231814   0.654   6.880   5.879
10625TIP3   OH231815   3.089   3.604   2.887
10625TIP3    H131816   3.072   3.698   2.897
10625TIP3    H231817   3.119   3.595   2.797
10626TIP3   OH231818   6.896   5.945   5.806
10626TIP3    H131819   6.947   5.907   5.878
10626TIP3    H231820   6.809   5.960   5.843
10627TIP3   OH231821   7.868   2.490   1.062
10627TIP3    H131822   7.875   2.455   1.151
10627TIP3    H231823   7.777   2.476   1.037
10628TIP3   OH231824   8.364   7.406   0.694
10628TIP3    H131825   8.342   7.338   0.631
10628TIP3    H231826   8.385   7.483   0.641
10629TIP3   OH231827   3.291   7.173   3.494
10629TIP3    H131828   3.286   7.179   3.589
10629TIP3    H231829   3.303   7.263   3.464
10630TIP3   OH231830   1.270   3.034   6.488
10630TIP3    H131831   1.306   2.988   6.564
10630TIP3    H231832   1.262   3.125   6.516
10631TIP3   OH231833   7.611   3.891   2.246
10631TIP3    H131834   7.558   3.962   2.281
10631TIP3    H231835   7.566   3.811   2.273
10632TIP3   OH231836   6.860   5.665   0.421
10632TIP3    H131837   6.948   5.674   0.385
10632TIP3    H231838   6.826   5.585   0.381
10633TIP3   OH231839   8.088   1.504   5.270
10633TIP3    H131840   7.995   1.515   5.252
10633TIP3    H231841   8.130   1.579   5.228
10634TIP3   OH231842   4.048   1.788   4.534
10634TIP3    H131843   4.070   1.878   4.560
10634TIP3    H231844   4.087   1.778   4.447
10635TIP3   OH231845   0.075   2.964   5.920
10635TIP3    H131846   0.030   3.040   5.959
10635TIP3    H231847   0.146   3.002   5.869
10636TIP3   OH231848   5.155   7.594   0.893
10636TIP3    H131849   5.090   7.644   0.842
10636TIP3    H231850   5.238   7.636   0.872
10637TIP3   OH231851   6.447   0.059   4.880
10637TIP3    H131852   6.484  -0.022   4.914
10637TIP3    H231853   6.361   0.035   4.846
10638TIP3   OH231854   1.393   4.362   6.481
10638TIP3    H131855   1.378   4.294   6.548
10638TIP3    H231856   1.429   4.314   6.407
10639TIP3   OH231857   8.354   3.986   6.729
10639TIP3    H131858   8.346   3.911   6.671
10639TIP3    H231859   8.440   3.977   6.770
10640TIP3   OH231860   4.097   6.394   3.560
10640TIP3    H131861   4.117   6.304   3.585
10640TIP3    H231862   4.015   6.388   3.510
10641TIP3   OH231863   4.737   5.119   5.607
10641TIP3    H131864   4.681   5.048   5.576
10641TIP3    H231865   4.788   5.144   5.530
10642TIP3   OH231866   3.739   1.041   0.732
10642TIP3    H131867   3.675   0.992   0.783
10642TIP3    H231868   3.703   1.129   0.726
10643TIP3   OH231869   5.764   1.557   3.792
10643TIP3    H131870   5.730   1.625   3.850
10643TIP3    H231871   5.852   1.588   3.768
10644TIP3   OH231872   3.658   5.375   0.381
10644TIP3    H131873   3.571   5.337   0.381
10644TIP3    H231874   3.667   5.413   0.293
10645TIP3   OH231875   2.312  -0.026   2.801
10645TIP3    H131876   2.262   0.029   2.742
10645TIP3    H231877   2.372   0.034   2.845
10646TIP3   OH231878   1.365   3.480   2.159
10646TIP3    H131879   1.291   3.471   2.098
10646TIP3    H231880   1.373   3.575   2.172
10647TIP3   OH231881   7.207   6.170   2.982
10647TIP3    H131882   7.195   6.158   3.076
10647TIP3    H231883   7.302   6.171   2.970
10648TIP3   OH231884   6.449   7.450   4.570
10648TIP3    H131885   6.400   7.387   4.518
10648TIP3    H231886   6.462   7.407   4.655
10649TIP3   OH231887   5.463   5.723   6.605
10649TIP3    H131888   5.373   5.750   6.621
10649TIP3    H231889   5.477   5.738   6.511
10650TIP3   OH231890   2.901   0.059   3.264
10650TIP3    H131891   2.981   0.006   3.270
10650TIP3    H231892   2.933   0.146   3.239
10651TIP3   OH231893   6.168   6.831   1.712
10651TIP3    H131894   6.139   6.746   1.681
10651TIP3    H231895   6.232   6.811   1.781
10652TIP3   OH231896   2.012   0.775   0.648
10652TIP3    H131897   2.087   0.804   0.595
10652TIP3    H231898   1.953   0.850   0.647
10653TIP3   OH231899   4.335   5.330   0.487
10653TIP3    H131900   4.347   5.420   0.516
10653TIP3    H231901   4.343   5.334   0.392
10654TIP3   OH231902   0.691   0.317   3.936
10654TIP3    H131903   0.709   0.230   3.973
10654TIP3    H231904   0.715   0.378   4.005
10655TIP3   OH231905   4.150   2.871   0.635
10655TIP3    H131906   4.113   2.955   0.610
10655TIP3    H231907   4.074   2.812   0.641
10656TIP3   OH231908   3.952   1.664   4.937
10656TIP3    H131909   3.980   1.620   4.856
10656TIP3    H231910   3.919   1.749   4.908
10657TIP3   OH231911   5.484   7.760   1.185
10657TIP3    H131912   5.527   7.781   1.102
10657TIP3    H231913   5.391   7.752   1.164
10658TIP3   OH231914   8.281   6.611   0.393
10658TIP3    H131915   8.335   6.658   0.457
10658TIP3    H231916   8.200   6.591   0.440
10659TIP3   OH231917   1.608   3.263   4.195
10659TIP3    H131918   1.559   3.264   4.277
10659TIP3    H231919   1.567   3.194   4.143
10660TIP3   OH231920   0.900   4.302   3.430
10660TIP3    H131921   0.966   4.252   3.384
10660TIP3    H231922   0.847   4.236   3.476
10661TIP3   OH231923   2.263   2.933   6.525
10661TIP3    H131924   2.280   2.849   6.568
10661TIP3    H231925   2.306   2.997   6.581
10662TIP3   OH231926   7.579   2.275   6.318
10662TIP3    H131927   7.576   2.278   6.222
10662TIP3    H231928   7.506   2.219   6.342
10663TIP3   OH231929   8.134   6.049   3.466
10663TIP3    H131930   8.200   5.983   3.445
10663TIP3    H231931   8.051   6.003   3.459
10664TIP3   OH231932   8.307   3.881   5.114
10664TIP3    H131933   8.243   3.917   5.052
10664TIP3    H231934   8.369   3.952   5.129
10665TIP3   OH231935   2.288   6.172   5.457
10665TIP3    H131936   2.247   6.101   5.408
10665TIP3    H231937   2.331   6.226   5.390
10666TIP3   OH231938   6.764   2.001   5.248
10666TIP3    H131939   6.746   2.087   5.209
10666TIP3    H231940   6.836   2.017   5.309
10667TIP3   OH231941   2.812   1.254   1.007
10667TIP3    H131942   2.800   1.219   1.096
10667TIP3    H231943   2.907   1.266   0.999
10668TIP3   OH231944   2.675   6.590   6.543
10668TIP3    H131945   2.677   6.515   6.484
10668TIP3    H231946   2.601   6.643   6.511
10669TIP3   OH231947   3.874   5.917   5.882
10669TIP3    H131948   3.853   5.987   5.944
10669TIP3    H231949   3.794   5.866   5.876
10670TIP3   OH231950   3.744   3.577   1.345
10670TIP3    H131951   3.781   3.589   1.258
10670TIP3    H231952   3.678   3.646   1.353
10671TIP3   OH231953   7.946   4.907   1.656
10671TIP3    H131954   7.916   4.837   1.598
10671TIP3    H231955   7.944   4.986   1.601
10672TIP3   OH231956   0.210   2.731   0.672
10672TIP3    H131957   0.289   2.704   0.626
10672TIP3    H231958   0.237   2.736   0.764
10673TIP3   OH231959   7.372   6.447   1.238
10673TIP3    H131960   7.420   6.520   1.278
10673TIP3    H231961   7.381   6.375   1.300
10674TIP3   OH231962   4.310   3.494   1.824
10674TIP3    H131963   4.377   3.502   1.756
10674TIP3    H231964   4.264   3.414   1.802
10675TIP3   OH231965   0.495   6.168   3.733
10675TIP3    H131966   0.464   6.111   3.804
10675TIP3    H231967   0.435   6.150   3.661
10676TIP3   OH231968   8.369   0.895   2.024
10676TIP3    H131969   8.440   0.835   2.004
10676TIP3    H231970   8.303   0.840   2.068
10677TIP3   OH231971   7.275   1.769   0.029
10677TIP3    H131972   7.189   1.788   0.067
10677TIP3    H231973   7.287   1.835  -0.039
10678TIP3   OH231974   1.684   2.524   4.646
10678TIP3    H131975   1.592   2.496   4.646
10678TIP3    H231976   1.733   2.444   4.664
10679TIP3   OH231977   5.583   6.156   6.790
10679TIP3    H131978   5.500   6.203   6.793
10679TIP3    H231979   5.632   6.188   6.866
10680TIP3   OH231980   8.292   5.277   6.372
10680TIP3    H131981   8.360   5.295   6.307
10680TIP3    H231982   8.210   5.284   6.322
10681TIP3   OH231983   3.420   3.635   0.592
10681TIP3    H131984   3.508   3.670   0.582
10681TIP3    H231985   3.367   3.710   0.619
10682TIP3   OH231986   1.239   2.107   4.249
10682TIP3    H131987   1.330   2.091   4.274
10682TIP3    H231988   1.188   2.046   4.303
10683TIP3   OH231989   7.852   5.991   6.144
10683TIP3    H131990   7.922   6.052   6.169
10683TIP3    H231991   7.812   5.965   6.227
10684TIP3   OH231992   4.295   1.414   0.959
10684TIP3    H131993   4.326   1.323   0.954
10684TIP3    H231994   4.364   1.465   0.916
10685TIP3   OH231995   5.304   6.920   5.934
10685TIP3    H131996   5.270   6.845   5.982
10685TIP3    H231997   5.341   6.883   5.854
10686TIP3   OH231998   5.975   2.794   2.735
10686TIP3    H131999   5.984   2.834   2.648
10686TIP3    H232000   5.965   2.701   2.717
10687TIP3   OH232001   0.924   5.702   0.910
10687TIP3    H132002   0.840   5.708   0.865
10687TIP3    H232003   0.985   5.749   0.853
10688TIP3   OH232004   3.472   1.253   6.356
10688TIP3    H132005   3.448   1.305   6.280
10688TIP3    H232006   3.547   1.299   6.394
10689TIP3   OH232007   6.844   7.765   1.271
10689TIP3    H132008   6.900   7.718   1.332
10689TIP3    H232009   6.887   7.755   1.186
10690TIP3   OH232010   0.015   5.810   0.567
10690TIP3    H132011   0.058   5.763   0.638
10690TIP3    H232012  -0.039   5.875   0.611
10691TIP3   OH232013   8.111   2.962   1.348
10691TIP3    H132014   8.021   2.943   1.374
10691TIP3    H232015   8.117   3.057   1.348
10692TIP3   OH232016   5.579   5.614   0.537
10692TIP3    H132017   5.510   5.622   0.471
10692TIP3    H232018   5.570   5.525   0.571
10693TIP3   OH232019   1.320   4.458   2.666
10693TIP3    H132020   1.284   4.371   2.647
10693TIP3    H232021   1.336   4.497   2.580
10694TIP3   OH232022   2.222   6.199   6.598
10694TIP3    H132023   2.300   6.244   6.564
10694TIP3    H232024   2.179   6.264   6.654
10695TIP3   OH232025   1.504   5.376   2.428
10695TIP3    H132026   1.474   5.410   2.512
10695TIP3    H232027   1.503   5.451   2.369
10696TIP3   OH232028   1.783   0.779   4.391
10696TIP3    H132029   1.819   0.717   4.329
10696TIP3    H232030   1.690   0.785   4.369
10697TIP3   OH232031   0.791   0.518   4.924
10697TIP3    H132032   0.804   0.463   4.846
10697TIP3    H232033   0.771   0.604   4.889
10698TIP3   OH232034   5.685   1.438   0.193
10698TIP3    H132035   5.758   1.387   0.229
10698TIP3    H232036   5.607   1.388   0.215
10699TIP3   OH232037   6.770   2.220   4.407
10699TIP3    H132038   6.685   2.231   4.450
10699TIP3    H232039   6.768   2.284   4.335
10700TIP3   OH232040   7.851   3.120   1.191
10700TIP3    H132041   7.758   3.104   1.173
10700TIP3    H232042   7.854   3.212   1.219
10701TIP3   OH232043   3.789   3.710   4.409
10701TIP3    H132044   3.765   3.728   4.500
10701TIP3    H232045   3.734   3.769   4.358
10702TIP3   OH232046   1.296   0.504   2.342
10702TIP3    H132047   1.223   0.446   2.363
10702TIP3    H232048   1.260   0.565   2.277
10703TIP3   OH232049   0.591   2.174   0.460
10703TIP3    H132050   0.652   2.149   0.390
10703TIP3    H232051   0.560   2.261   0.434
10704TIP3   OH232052   6.120   3.802   5.511
10704TIP3    H132053   6.132   3.767   5.599
10704TIP3    H232054   6.120   3.725   5.454
10705TIP3   OH232055   4.054   6.371   4.722
10705TIP3    H132056   4.138   6.368   4.767
10705TIP3    H232057   3.989   6.379   4.792
10706TIP3   OH232058   4.437   7.531   6.500
10706TIP3    H132059   4.426   7.626   6.501
10706TIP3    H232060   4.371   7.498   6.560
10707TIP3   OH232061   4.073   3.852   0.322
10707TIP3    H132062   4.114   3.817   0.243
10707TIP3    H232063   4.084   3.784   0.387
10708TIP3   OH232064   7.765   6.687   0.349
10708TIP3    H132065   7.741   6.635   0.271
10708TIP3    H232066   7.804   6.624   0.409
10709TIP3   OH232067   6.325   3.838   1.081
10709TIP3    H132068   6.249   3.895   1.090
10709TIP3    H232069   6.295   3.753   1.111
10710TIP3   OH232070   2.993   4.937   1.150
10710TIP3    H132071   2.934   4.961   1.079
10710TIP3    H232072   3.063   5.002   1.146
10711TIP3   OH232073   0.182   2.293   5.949
10711TIP3    H132074   0.226   2.290   6.033
10711TIP3    H232075   0.203   2.380   5.914
10712TIP3   OH232076   2.952   1.881   5.669
10712TIP3    H132077   2.876   1.823   5.672
10712TIP3    H232078   3.027   1.822   5.675
10713TIP3   OH232079  -0.018   5.709   3.894
10713TIP3    H132080  -0.032   5.711   3.988
10713TIP3    H232081   0.075   5.728   3.882
10714TIP3   OH232082   3.573   0.606   2.042
10714TIP3    H132083   3.512   0.677   2.020
10714TIP3    H232084   3.619   0.637   2.120
10715TIP3   OH232085   7.492   4.991   1.437
10715TIP3    H132086   7.532   5.073   1.463
10715TIP3    H232087   7.405   4.992   1.477
10716TIP3   OH232088   3.958   3.129   6.329
10716TIP3    H132089   4.017   3.055   6.342
10716TIP3    H232090   3.977   3.159   6.240
10717TIP3   OH232091   1.173   0.195   4.653
10717TIP3    H132092   1.104   0.147   4.700
10717TIP3    H232093   1.254   0.168   4.695
10718TIP3   OH232094   2.097   5.742   5.054
10718TIP3    H132095   2.106   5.742   4.959
10718TIP3    H232096   2.009   5.709   5.071
10719TIP3   OH232097   2.751   2.082   0.469
10719TIP3    H132098   2.668   2.065   0.425
10719TIP3    H232099   2.746   2.174   0.496
10720TIP3   OH232100   3.888   2.060   3.574
10720TIP3    H132101   3.958   2.010   3.616
10720TIP3    H232102   3.883   2.024   3.485
10721TIP3   OH232103   8.043   6.630   2.375
10721TIP3    H132104   8.121   6.665   2.418
10721TIP3    H232105   8.053   6.657   2.283
10722TIP3   OH232106   0.904   4.186   4.901
10722TIP3    H132107   0.948   4.201   4.817
10722TIP3    H232108   0.811   4.178   4.879
10723TIP3   OH232109   4.946   4.703   4.246
10723TIP3    H132110   4.993   4.699   4.330
10723TIP3    H232111   4.959   4.793   4.215
10724TIP3   OH232112   6.015   6.572   1.686
10724TIP3    H132113   5.921   6.579   1.698
10724TIP3    H232114   6.026   6.506   1.618
10725TIP3   OH232115   2.217   6.299   3.123
10725TIP3    H132116   2.295   6.246   3.108
10725TIP3    H232117   2.205   6.299   3.218
10726TIP3   OH232118   0.011   4.363   5.279
10726TIP3    H132119   0.074   4.417   5.328
10726TIP3    H232120  -0.026   4.423   5.215
10727TIP3   OH232121   1.404   3.230   2.336
10727TIP3    H132122   1.431   3.151   2.288
10727TIP3    H232123   1.436   3.215   2.425
10728TIP3   OH232124   5.056   5.660   2.260
10728TIP3    H132125   5.105   5.694   2.186
10728TIP3    H232126   5.015   5.737   2.300
10729TIP3   OH232127   6.707   3.948   2.899
10729TIP3    H132128   6.773   3.902   2.847
10729TIP3    H232129   6.715   3.910   2.987
10730TIP3   OH232130   5.343   1.831   2.612
10730TIP3    H132131   5.342   1.737   2.595
10730TIP3    H232132   5.308   1.839   2.701
10731TIP3   OH232133   4.024   0.446   5.499
10731TIP3    H132134   4.010   0.520   5.558
10731TIP3    H232135   3.946   0.444   5.443
10732TIP3   OH232136   2.058   1.402   6.368
10732TIP3    H132137   2.044   1.308   6.357
10732TIP3    H232138   2.119   1.426   6.298
10733TIP3   OH232139   4.331   7.653   4.621
10733TIP3    H132140   4.389   7.679   4.550
10733TIP3    H232141   4.336   7.557   4.621
10734TIP3   OH232142   3.643   6.042   2.783
10734TIP3    H132143   3.597   5.972   2.831
10734TIP3    H232144   3.642   6.116   2.843
10735TIP3   OH232145   2.323   1.764   0.500
10735TIP3    H132146   2.390   1.714   0.454
10735TIP3    H232147   2.370   1.813   0.567
10736TIP3   OH232148   0.946   0.943   6.024
10736TIP3    H132149   0.858   0.936   6.062
10736TIP3    H232150   0.933   0.994   5.944
10737TIP3   OH232151   2.857   7.530   4.483
10737TIP3    H132152   2.877   7.457   4.542
10737TIP3    H232153   2.845   7.488   4.397
10738TIP3   OH232154   7.973   0.758   5.922
10738TIP3    H132155   7.920   0.809   5.860
10738TIP3    H232156   7.976   0.671   5.884
10739TIP3   OH232157   6.136   7.146   6.585
10739TIP3    H132158   6.123   7.239   6.601
10739TIP3    H232159   6.204   7.142   6.517
10740TIP3   OH232160   5.236   7.313   4.013
10740TIP3    H132161   5.266   7.353   3.931
10740TIP3    H232162   5.174   7.246   3.985
10741TIP3   OH232163   2.025   1.002   4.865
10741TIP3    H132164   2.005   0.953   4.785
10741TIP3    H232165   1.948   0.988   4.921
10742TIP3   OH232166   5.548   0.830   4.660
10742TIP3    H132167   5.560   0.918   4.624
10742TIP3    H232168   5.626   0.816   4.714
10743TIP3   OH232169   3.934   2.395   2.329
10743TIP3    H132170   3.973   2.343   2.258
10743TIP3    H232171   3.966   2.484   2.314
10744TIP3   OH232172   2.788   3.399   2.601
10744TIP3    H132173   2.716   3.384   2.661
10744TIP3    H232174   2.748   3.397   2.514
10745TIP3   OH232175   2.241   3.490   4.722
10745TIP3    H132176   2.234   3.451   4.809
10745TIP3    H232177   2.230   3.416   4.662
10746TIP3   OH232178   4.254   0.060   1.446
10746TIP3    H132179   4.331   0.010   1.419
10746TIP3    H232180   4.258   0.062   1.542
10747TIP3   OH232181   7.611   3.643   4.146
10747TIP3    H132182   7.707   3.638   4.141
10747TIP3    H232183   7.586   3.684   4.063
10748TIP3   OH232184   1.428   6.623   2.329
10748TIP3    H132185   1.445   6.542   2.282
10748TIP3    H232186   1.372   6.674   2.271
10749TIP3   OH232187   3.736   6.761   4.776
10749TIP3    H132188   3.669   6.718   4.830
10749TIP3    H232189   3.687   6.827   4.727
10750TIP3   OH232190   3.244   0.121   0.710
10750TIP3    H132191   3.339   0.123   0.703
10750TIP3    H232192   3.213   0.148   0.623
10751TIP3   OH232193   4.122   7.117   3.066
10751TIP3    H132194   4.135   7.078   3.152
10751TIP3    H232195   4.081   7.201   3.083
10752TIP3   OH232196   0.653   6.790   4.958
10752TIP3    H132197   0.566   6.749   4.958
10752TIP3    H232198   0.676   6.795   5.051
10753TIP3   OH232199   4.834   1.902   2.014
10753TIP3    H132200   4.896   1.965   1.977
10753TIP3    H232201   4.756   1.910   1.960
10754TIP3   OH232202   1.362   0.456   2.608
10754TIP3    H132203   1.342   0.527   2.668
10754TIP3    H232204   1.339   0.490   2.522
10755TIP3   OH232205   0.394   5.769   4.087
10755TIP3    H132206   0.354   5.829   4.150
10755TIP3    H232207   0.447   5.710   4.140
10756TIP3   OH232208   0.126   4.126   1.146
10756TIP3    H132209   0.045   4.174   1.161
10756TIP3    H232210   0.097   4.036   1.128
10757TIP3   OH232211   4.298   1.962   6.532
10757TIP3    H132212   4.330   1.974   6.442
10757TIP3    H232213   4.306   2.048   6.572
10758TIP3   OH232214   1.663   5.644   4.507
10758TIP3    H132215   1.749   5.659   4.468
10758TIP3    H232216   1.627   5.569   4.459
10759TIP3   OH232217   6.254   1.746   3.409
10759TIP3    H132218   6.321   1.707   3.466
10759TIP3    H232219   6.181   1.685   3.413
10760TIP3   OH232220   7.204   2.166   1.563
10760TIP3    H132221   7.293   2.177   1.594
10760TIP3    H232222   7.186   2.246   1.513
10761TIP3   OH232223   2.659   4.824   2.592
10761TIP3    H132224   2.712   4.902   2.572
10761TIP3    H232225   2.569   4.857   2.594
10762TIP3   OH232226   4.033   3.531   3.718
10762TIP3    H132227   4.053   3.447   3.677
10762TIP3    H232228   4.066   3.523   3.807
10763TIP3   OH232229   7.275   7.874   4.725
10763TIP3    H132230   7.331   7.799   4.743
10763TIP3    H232231   7.328   7.950   4.748
10764TIP3   OH232232   7.461   5.162   1.868
10764TIP3    H132233   7.452   5.166   1.963
10764TIP3    H232234   7.506   5.078   1.852
10765TIP3   OH232235   2.507   4.149   5.364
10765TIP3    H132236   2.437   4.157   5.300
10765TIP3    H232237   2.464   4.118   5.444
10766TIP3   OH232238   2.080   5.445   4.853
10766TIP3    H132239   2.102   5.409   4.767
10766TIP3    H232240   2.078   5.540   4.840
10767TIP3   OH232241   4.621   5.739   0.064
10767TIP3    H132242   4.603   5.829   0.091
10767TIP3    H232243   4.598   5.736  -0.029
10768TIP3   OH232244   5.319   2.424   0.150
10768TIP3    H132245   5.243   2.371   0.174
10768TIP3    H232246   5.390   2.362   0.139
10769TIP3   OH232247   4.673   4.930   4.081
10769TIP3    H132248   4.671   4.838   4.055
10769TIP3    H232249   4.613   4.935   4.155
10770TIP3   OH232250   3.075   6.791   6.642
10770TIP3    H132251   2.989   6.758   6.668
10770TIP3    H232252   3.072   6.885   6.658
10771TIP3   OH232253   5.998   5.290   1.483
10771TIP3    H132254   5.930   5.335   1.533
10771TIP3    H232255   5.953   5.218   1.440
10772TIP3   OH232256   1.141   7.278   6.211
10772TIP3    H132257   1.165   7.222   6.285
10772TIP3    H232258   1.160   7.367   6.241
10773TIP3   OH232259   4.243   3.123   2.610
10773TIP3    H132260   4.308   3.192   2.606
10773TIP3    H232261   4.294   3.042   2.620
10774TIP3   OH232262   2.103   1.596   3.899
10774TIP3    H132263   2.056   1.576   3.818
10774TIP3    H232264   2.037   1.582   3.968
10775TIP3   OH232265   4.546   2.149   4.905
10775TIP3    H132266   4.475   2.155   4.968
10775TIP3    H232267   4.555   2.055   4.888
10776TIP3   OH232268   0.883   5.261   3.721
10776TIP3    H132269   0.943   5.255   3.796
10776TIP3    H232270   0.914   5.337   3.671
10777TIP3   OH232271   3.558   1.370   3.670
10777TIP3    H132272   3.564   1.354   3.576
10777TIP3    H232273   3.469   1.403   3.682
10778TIP3   OH232274   7.220   7.485   3.068
10778TIP3    H132275   7.290   7.449   3.013
10778TIP3    H232276   7.220   7.578   3.046
10779TIP3   OH232277   2.395   2.909   3.236
10779TIP3    H132278   2.345   2.940   3.311
10779TIP3    H232279   2.447   2.836   3.270
10780TIP3   OH232280   5.359   2.536   3.619
10780TIP3    H132281   5.342   2.450   3.657
10780TIP3    H232282   5.353   2.522   3.524
10781TIP3   OH232283   5.285   5.712   2.799
10781TIP3    H132284   5.191   5.706   2.779
10781TIP3    H232285   5.293   5.792   2.852
10782TIP3   OH232286   1.719   6.581   4.206
10782TIP3    H132287   1.776   6.637   4.153
10782TIP3    H232288   1.758   6.582   4.293
10783TIP3   OH232289   7.214   5.670   4.903
10783TIP3    H132290   7.129   5.641   4.935
10783TIP3    H232291   7.201   5.763   4.883
10784TIP3   OH232292   0.320   6.305   2.900
10784TIP3    H132293   0.256   6.377   2.895
10784TIP3    H232294   0.313   6.262   2.814
10785TIP3   OH232295   4.135   7.359   1.682
10785TIP3    H132296   4.106   7.296   1.616
10785TIP3    H232297   4.057   7.378   1.733
10786TIP3   OH232298   4.154   1.512   6.747
10786TIP3    H132299   4.228   1.546   6.697
10786TIP3    H232300   4.108   1.591   6.777
10787TIP3   OH232301   7.327   6.252   6.177
10787TIP3    H132302   7.314   6.240   6.083
10787TIP3    H232303   7.248   6.217   6.217
10788TIP3   OH232304   6.058   4.900   5.617
10788TIP3    H132305   6.073   4.923   5.526
10788TIP3    H232306   6.144   4.907   5.659
10789TIP3   OH232307   1.530   2.918   5.822
10789TIP3    H132308   1.612   2.894   5.779
10789TIP3    H232309   1.539   2.888   5.912
10790TIP3   OH232310   4.609   7.127   1.080
10790TIP3    H132311   4.635   7.161   1.166
10790TIP3    H232312   4.665   7.173   1.018
10791TIP3   OH232313   1.457   6.893   5.437
10791TIP3    H132314   1.409   6.812   5.451
10791TIP3    H232315   1.529   6.889   5.500
10792TIP3   OH232316   6.835   1.928   0.868
10792TIP3    H132317   6.741   1.943   0.854
10792TIP3    H232318   6.877   2.005   0.832
10793TIP3   OH232319   0.423   7.309   6.065
10793TIP3    H132320   0.334   7.275   6.057
10793TIP3    H232321   0.415   7.402   6.047
10794TIP3   OH232322   3.922   6.899   5.711
10794TIP3    H132323   3.829   6.885   5.690
10794TIP3    H232324   3.954   6.812   5.736
10795TIP3   OH232325   7.963   2.920   2.642
10795TIP3    H132326   7.912   2.874   2.709
10795TIP3    H232327   7.910   2.996   2.620
10796TIP3   OH232328   7.437   4.633   3.543
10796TIP3    H132329   7.477   4.713   3.576
10796TIP3    H232330   7.383   4.602   3.616
10797TIP3   OH232331   1.667   2.113   0.377
10797TIP3    H132332   1.738   2.072   0.329
10797TIP3    H232333   1.668   2.205   0.349
10798TIP3   OH232334   0.402   3.613   2.782
10798TIP3    H132335   0.473   3.660   2.826
10798TIP3    H232336   0.352   3.681   2.738
10799TIP3   OH232337   2.719   0.349   0.309
10799TIP3    H132338   2.705   0.430   0.359
10799TIP3    H232339   2.677   0.365   0.224
10800TIP3   OH232340   6.577   6.274   2.533
10800TIP3    H132341   6.634   6.293   2.608
10800TIP3    H232342   6.540   6.359   2.508
10801TIP3   OH232343   0.197   5.739   3.257
10801TIP3    H132344   0.266   5.690   3.302
10801TIP3    H232345   0.163   5.678   3.192
10802TIP3   OH232346   0.667   4.870   6.326
10802TIP3    H132347   0.730   4.942   6.320
10802TIP3    H232348   0.616   4.878   6.245
10803TIP3   OH232349   4.624   4.012   2.348
10803TIP3    H132350   4.670   3.987   2.428
10803TIP3    H232351   4.532   4.016   2.373
10804TIP3   OH232352   6.997   6.845   5.230
10804TIP3    H132353   6.993   6.759   5.187
10804TIP3    H232354   7.050   6.831   5.308
10805TIP3   OH232355   7.656   0.705   2.033
10805TIP3    H132356   7.684   0.789   1.996
10805TIP3    H232357   7.572   0.724   2.075
10806TIP3   OH232358   0.721   0.061   3.634
10806TIP3    H132359   0.787   0.127   3.654
10806TIP3    H232360   0.726  -0.001   3.707
10807TIP3   OH232361   7.295   7.269   3.787
10807TIP3    H132362   7.284   7.336   3.854
10807TIP3    H232363   7.389   7.265   3.772
10808TIP3   OH232364   7.737   1.305   3.168
10808TIP3    H132365   7.814   1.290   3.223
10808TIP3    H232366   7.773   1.343   3.087
10809TIP3   OH232367   3.690   7.200   6.569
10809TIP3    H132368   3.612   7.153   6.598
10809TIP3    H232369   3.743   7.133   6.525
10810TIP3   OH232370   1.549   5.848   2.624
10810TIP3    H132371   1.549   5.936   2.661
10810TIP3    H232372   1.529   5.860   2.531
10811TIP3   OH232373   1.397   6.844   4.644
10811TIP3    H132374   1.432   6.831   4.732
10811TIP3    H232375   1.318   6.898   4.657
10812TIP3   OH232376   8.096   1.743   3.340
10812TIP3    H132377   8.019   1.687   3.335
10812TIP3    H232378   8.063   1.832   3.331
10813TIP3   OH232379   6.293   1.189   3.602
10813TIP3    H132380   6.330   1.133   3.534
10813TIP3    H232381   6.200   1.167   3.603
10814TIP3   OH232382   2.817   6.186   3.529
10814TIP3    H132383   2.854   6.272   3.551
10814TIP3    H232384   2.891   6.137   3.493
10815TIP3   OH232385   4.415   3.561   6.564
10815TIP3    H132386   4.438   3.554   6.657
10815TIP3    H232387   4.439   3.650   6.539
10816TIP3   OH232388   1.946   7.878   6.030
10816TIP3    H132389   1.870   7.855   5.976
10816TIP3    H232390   1.924   7.843   6.117
10817TIP3   OH232391   3.239   5.449   2.784
10817TIP3    H132392   3.152   5.487   2.776
10817TIP3    H232393   3.298   5.524   2.780
10818TIP3   OH232394   3.901   2.494   5.947
10818TIP3    H132395   3.849   2.417   5.971
10818TIP3    H232396   3.839   2.566   5.949
10819TIP3   OH232397   5.233   6.864   3.386
10819TIP3    H132398   5.164   6.815   3.430
10819TIP3    H232399   5.303   6.800   3.373
10820TIP3   OH232400   2.608   4.439   6.480
10820TIP3    H132401   2.629   4.363   6.426
10820TIP3    H232402   2.599   4.403   6.569
10821TIP3   OH232403   4.610   1.462   3.372
10821TIP3    H132404   4.589   1.512   3.451
10821TIP3    H232405   4.675   1.398   3.402
10822TIP3   OH232406   0.820   7.316   2.200
10822TIP3    H132407   0.782   7.242   2.246
10822TIP3    H232408   0.854   7.372   2.270
10823TIP3   OH232409   4.497   3.241   5.604
10823TIP3    H132410   4.438   3.166   5.602
10823TIP3    H232411   4.449   3.309   5.651
10824TIP3   OH232412   1.307   3.117   1.222
10824TIP3    H132413   1.309   3.028   1.189
10824TIP3    H232414   1.391   3.128   1.267
10825TIP3   OH232415   5.733   0.110   1.335
10825TIP3    H132416   5.828   0.118   1.322
10825TIP3    H232417   5.719   0.018   1.358
10826TIP3   OH232418   2.630  -0.011   3.209
10826TIP3    H132419   2.716   0.027   3.227
10826TIP3    H232420   2.568   0.050   3.250
10827TIP3   OH232421   0.885   1.307   5.951
10827TIP3    H132422   0.815   1.279   5.892
10827TIP3    H232423   0.964   1.264   5.917
10828TIP3   OH232424   6.737   4.681   3.473
10828TIP3    H132425   6.751   4.744   3.403
10828TIP3    H232426   6.795   4.608   3.452
10829TIP3   OH232427   3.460   2.404   3.371
10829TIP3    H132428   3.549   2.414   3.336
10829TIP3    H232429   3.408   2.469   3.325
10830TIP3   OH232430   7.297   4.360   3.159
10830TIP3    H132431   7.315   4.357   3.066
10830TIP3    H232432   7.315   4.451   3.184
10831TIP3   OH232433   2.935   1.080   0.618
10831TIP3    H132434   2.981   1.145   0.672
10831TIP3    H232435   2.999   1.053   0.553
10832TIP3   OH232436   1.318   2.766   5.779
10832TIP3    H132437   1.381   2.835   5.800
10832TIP3    H232438   1.267   2.755   5.860
10833TIP3   OH232439   0.352   2.397   0.759
10833TIP3    H132440   0.292   2.448   0.813
10833TIP3    H232441   0.305   2.383   0.677
10834TIP3   OH232442   5.192   7.253   3.606
10834TIP3    H132443   5.256   7.186   3.630
10834TIP3    H232444   5.217   7.280   3.517
10835TIP3   OH232445   6.297   0.482   5.175
10835TIP3    H132446   6.326   0.573   5.173
10835TIP3    H232447   6.328   0.444   5.093
10836TIP3   OH232448   3.135   5.785   4.773
10836TIP3    H132449   3.083   5.809   4.697
10836TIP3    H232450   3.184   5.708   4.746
10837TIP3   OH232451   5.802   3.641   1.300
10837TIP3    H132452   5.866   3.708   1.276
10837TIP3    H232453   5.842   3.558   1.273
10838TIP3   OH232454   0.903   0.784   3.495
10838TIP3    H132455   0.971   0.735   3.449
10838TIP3    H232456   0.880   0.855   3.435
10839TIP3   OH232457   7.206   4.557   5.078
10839TIP3    H132458   7.151   4.519   5.009
10839TIP3    H232459   7.145   4.601   5.137
10840TIP3   OH232460   1.177   2.525   4.094
10840TIP3    H132461   1.160   2.576   4.173
10840TIP3    H232462   1.242   2.576   4.046
10841TIP3   OH232463   3.008   0.405   2.452
10841TIP3    H132464   2.930   0.404   2.508
10841TIP3    H232465   3.045   0.317   2.461
10842TIP3   OH232466   1.773   7.301   2.776
10842TIP3    H132467   1.794   7.289   2.868
10842TIP3    H232468   1.680   7.279   2.769
10843TIP3   OH232469   5.507   7.659   4.307
10843TIP3    H132470   5.549   7.597   4.366
10843TIP3    H232471   5.469   7.605   4.237
10844TIP3   OH232472   3.769   0.373   4.952
10844TIP3    H132473   3.711   0.386   5.028
10844TIP3    H232474   3.747   0.285   4.921
10845TIP3   OH232475   7.137   2.982   5.704
10845TIP3    H132476   7.209   2.925   5.678
10845TIP3    H232477   7.150   2.995   5.798
10846TIP3   OH232478   6.496   2.513   6.713
10846TIP3    H132479   6.447   2.462   6.778
10846TIP3    H232480   6.455   2.599   6.714
10847TIP3   OH232481   2.074   3.565   0.292
10847TIP3    H132482   1.993   3.532   0.254
10847TIP3    H232483   2.125   3.487   0.311
10848TIP3   OH232484   2.416   5.723   3.031
10848TIP3    H132485   2.349   5.686   2.974
10848TIP3    H232486   2.408   5.818   3.018
10849TIP3   OH232487   7.740   0.648   3.706
10849TIP3    H132488   7.753   0.695   3.789
10849TIP3    H232489   7.803   0.689   3.646
10850TIP3   OH232490   2.318   0.295   0.347
10850TIP3    H132491   2.303   0.288   0.253
10850TIP3    H232492   2.320   0.389   0.364
10851TIP3   OH232493   6.474   3.960   0.692
10851TIP3    H132494   6.438   3.895   0.753
10851TIP3    H232495   6.565   3.970   0.718
10852TIP3   OH232496   3.809   7.002   1.549
10852TIP3    H132497   3.738   7.054   1.587
10852TIP3    H232498   3.788   6.912   1.573
10853TIP3   OH232499   6.432   0.218   1.681
10853TIP3    H132500   6.501   0.284   1.677
10853TIP3    H232501   6.351   0.269   1.678
10854TIP3   OH232502   7.837   4.903   2.292
10854TIP3    H132503   7.910   4.882   2.233
10854TIP3    H232504   7.879   4.929   2.374
10855TIP3   OH232505   3.707   6.197   5.675
10855TIP3    H132506   3.754   6.241   5.747
10855TIP3    H232507   3.635   6.256   5.654
10856TIP3   OH232508   0.678   6.909   3.668
10856TIP3    H132509   0.610   6.934   3.730
10856TIP3    H232510   0.630   6.891   3.587
10857TIP3   OH232511   4.205   5.312   6.298
10857TIP3    H132512   4.191   5.243   6.233
10857TIP3    H232513   4.230   5.266   6.377
10858TIP3   OH232514   5.681   7.830   1.522
10858TIP3    H132515   5.686   7.781   1.604
10858TIP3    H232516   5.601   7.798   1.480
10859TIP3   OH232517   3.546   5.427   6.794
10859TIP3    H132518   3.512   5.382   6.871
10859TIP3    H232519   3.471   5.477   6.761
10860TIP3   OH232520   8.135   6.020   0.284
10860TIP3    H132521   8.230   6.014   0.281
10860TIP3    H232522   8.117   6.095   0.342
10861TIP3   OH232523   5.070   0.117   5.783
10861TIP3    H132524   5.037   0.078   5.702
10861TIP3    H232525   5.124   0.049   5.822
10862TIP3   OH232526   4.911   6.368   5.559
10862TIP3    H132527   4.902   6.378   5.464
10862TIP3    H232528   4.947   6.451   5.589
10863TIP3   OH232529   3.440   2.871   3.842
10863TIP3    H132530   3.428   2.861   3.748
10863TIP3    H232531   3.351   2.882   3.876
10864TIP3   OH232532   1.818   2.813   1.572
10864TIP3    H132533   1.811   2.762   1.491
10864TIP3    H232534   1.884   2.767   1.623
10865TIP3   OH232535   0.651   2.048   6.378
10865TIP3    H132536   0.728   2.090   6.416
10865TIP3    H232537   0.617   2.110   6.315
10866TIP3   OH232538   4.121   7.221   0.542
10866TIP3    H132539   4.171   7.183   0.614
10866TIP3    H232540   4.181   7.282   0.499
10867TIP3   OH232541   0.432   4.966   1.845
10867TIP3    H132542   0.370   4.921   1.789
10867TIP3    H232543   0.460   4.900   1.908
10868TIP3   OH232544   0.077   1.771   3.339
10868TIP3    H132545   0.054   1.679   3.350
10868TIP3    H232546  -0.006   1.813   3.313
10869TIP3   OH232547   3.515   1.110   6.020
10869TIP3    H132548   3.598   1.081   6.057
10869TIP3    H232549   3.454   1.039   6.039
10870TIP3   OH232550   0.434   1.465   0.313
10870TIP3    H132551   0.454   1.405   0.384
10870TIP3    H232552   0.350   1.505   0.338
10871TIP3   OH232553   7.230   2.355   2.747
10871TIP3    H132554   7.138   2.382   2.751
10871TIP3    H232555   7.272   2.422   2.693
10872TIP3   OH232556   3.215   4.278   4.356
10872TIP3    H132557   3.291   4.227   4.384
10872TIP3    H232558   3.141   4.219   4.370
10873TIP3   OH232559   3.323   2.338   6.852
10873TIP3    H132560   3.361   2.425   6.844
10873TIP3    H232561   3.245   2.341   6.795
10874TIP3   OH232562   4.050   0.363   0.067
10874TIP3    H132563   4.033   0.325  -0.020
10874TIP3    H232564   4.016   0.298   0.129
10875TIP3   OH232565   4.460   2.960   5.013
10875TIP3    H132566   4.436   2.877   5.055
10875TIP3    H232567   4.435   3.027   5.077
10876TIP3   OH232568   7.894   7.713   1.422
10876TIP3    H132569   7.934   7.654   1.358
10876TIP3    H232570   7.850   7.655   1.484
10877TIP3   OH232571   1.079   0.622   4.002
10877TIP3    H132572   1.105   0.538   3.964
10877TIP3    H232573   1.161   0.660   4.034
10878TIP3   OH232574   5.934   3.941   3.942
10878TIP3    H132575   5.899   3.854   3.921
10878TIP3    H232576   5.986   3.965   3.865
10879TIP3   OH232577   0.592   5.368   5.809
10879TIP3    H132578   0.557   5.287   5.845
10879TIP3    H232579   0.676   5.380   5.853
10880TIP3   OH232580   2.935   5.215   6.689
10880TIP3    H132581   2.856   5.210   6.635
10880TIP3    H232582   2.920   5.290   6.746
10881TIP3   OH232583   5.452   3.846   3.496
10881TIP3    H132584   5.367   3.811   3.469
10881TIP3    H232585   5.486   3.890   3.419
10882TIP3   OH232586   1.128   0.336   5.754
10882TIP3    H132587   1.081   0.254   5.737
10882TIP3    H232588   1.170   0.322   5.839
10883TIP3   OH232589   6.299   4.041   5.187
10883TIP3    H132590   6.312   3.972   5.252
10883TIP3    H232591   6.266   3.995   5.110
10884TIP3   OH232592   5.151   6.983   5.366
10884TIP3    H132593   5.147   6.910   5.427
10884TIP3    H232594   5.144   6.943   5.279
10885TIP3   OH232595   0.078   5.373   1.073
10885TIP3    H132596   0.094   5.366   0.979
10885TIP3    H232597   0.032   5.292   1.095
10886TIP3   OH232598   5.925   0.614   0.596
10886TIP3    H132599   5.975   0.685   0.555
10886TIP3    H232600   5.887   0.567   0.522
10887TIP3   OH232601   5.250   4.437   1.962
10887TIP3    H132602   5.315   4.387   2.011
10887TIP3    H232603   5.256   4.401   1.873
10888TIP3   OH232604   5.477   2.614   4.892
10888TIP3    H132605   5.466   2.677   4.821
10888TIP3    H232606   5.535   2.657   4.955
10889TIP3   OH232607   6.532   5.422   4.567
10889TIP3    H132608   6.620   5.455   4.548
10889TIP3    H232609   6.473   5.482   4.522
10890TIP3   OH232610   6.665   1.260   1.946
10890TIP3    H132611   6.577   1.277   1.979
10890TIP3    H232612   6.652   1.218   1.861
10891TIP3   OH232613   7.312   7.593   5.001
10891TIP3    H132614   7.343   7.681   5.021
10891TIP3    H232615   7.307   7.591   4.905
10892TIP3   OH232616   4.341   0.503   0.713
10892TIP3    H132617   4.387   0.580   0.745
10892TIP3    H232618   4.407   0.433   0.715
10893TIP3   OH232619   2.444   3.635   5.793
10893TIP3    H132620   2.431   3.626   5.698
10893TIP3    H232621   2.393   3.712   5.817
10894TIP3   OH232622   2.713   3.073   6.408
10894TIP3    H132623   2.643   3.139   6.409
10894TIP3    H232624   2.770   3.099   6.481
10895TIP3   OH232625   1.963   0.260   3.247
10895TIP3    H132626   1.883   0.310   3.258
10895TIP3    H232627   1.944   0.198   3.178
10896TIP3   OH232628   3.881   1.403   0.687
10896TIP3    H132629   3.894   1.381   0.779
10896TIP3    H232630   3.821   1.477   0.688
10897TIP3   OH232631   6.447   3.786   3.356
10897TIP3    H132632   6.455   3.866   3.408
10897TIP3    H232633   6.457   3.815   3.265
10898TIP3   OH232634   6.985   3.903   3.086
10898TIP3    H132635   7.003   3.944   3.001
10898TIP3    H232636   6.891   3.886   3.085
10899TIP3   OH232637   7.994   7.297   5.768
10899TIP3    H132638   8.021   7.228   5.829
10899TIP3    H232639   8.073   7.351   5.757
10900TIP3   OH232640   5.018   6.683   1.220
10900TIP3    H132641   5.105   6.676   1.258
10900TIP3    H232642   5.027   6.745   1.148
10901TIP3   OH232643   4.261   2.596   1.866
10901TIP3    H132644   4.181   2.647   1.851
10901TIP3    H232645   4.293   2.627   1.951
10902TIP3   OH232646   5.390   0.973   6.431
10902TIP3    H132647   5.433   0.989   6.347
10902TIP3    H232648   5.311   1.028   6.428
10903TIP3   OH232649   4.438   0.386   1.204
10903TIP3    H132650   4.453   0.343   1.288
10903TIP3    H232651   4.440   0.316   1.140
10904TIP3   OH232652   4.355   4.695   0.857
10904TIP3    H132653   4.371   4.776   0.808
10904TIP3    H232654   4.442   4.665   0.882
10905TIP3   OH232655   1.643   3.113   6.154
10905TIP3    H132656   1.660   3.162   6.234
10905TIP3    H232657   1.696   3.156   6.087
10906TIP3   OH232658   4.340   4.624   2.131
10906TIP3    H132659   4.276   4.668   2.076
10906TIP3    H232660   4.424   4.659   2.103
10907TIP3   OH232661   8.057   5.137   5.972
10907TIP3    H132662   8.000   5.108   5.901
10907TIP3    H232663   7.997   5.168   6.040
10908TIP3   OH232664   4.340   7.043   0.657
10908TIP3    H132665   4.354   6.997   0.575
10908TIP3    H232666   4.309   6.975   0.718
10909TIP3   OH232667   4.670   7.817   6.589
10909TIP3    H132668   4.727   7.870   6.645
10909TIP3    H232669   4.730   7.775   6.527
10910TIP3   OH232670   0.691   5.403   4.688
10910TIP3    H132671   0.648   5.486   4.706
10910TIP3    H232672   0.746   5.386   4.765
10911TIP3   OH232673   1.471   2.952   3.895
10911TIP3    H132674   1.444   3.036   3.932
10911TIP3    H232675   1.529   2.975   3.822
10912TIP3   OH232676   4.298   5.500   1.191
10912TIP3    H132677   4.256   5.555   1.125
10912TIP3    H232678   4.380   5.546   1.212
10913TIP3   OH232679   4.855   0.401   5.094
10913TIP3    H132680   4.890   0.313   5.081
10913TIP3    H232681   4.760   0.389   5.100
10914TIP3   OH232682   0.138   7.698   3.006
10914TIP3    H132683   0.050   7.663   3.023
10914TIP3    H232684   0.156   7.755   3.081
10915TIP3   OH232685   8.173   5.315   1.547
10915TIP3    H132686   8.162   5.304   1.453
10915TIP3    H232687   8.252   5.367   1.556
10916TIP3   OH232688   3.286   2.222   5.798
10916TIP3    H132689   3.289   2.238   5.704
10916TIP3    H232690   3.289   2.309   5.838
10917TIP3   OH232691   5.874   2.113   0.513
10917TIP3    H132692   5.859   2.111   0.418
10917TIP3    H232693   5.812   2.049   0.549
10918TIP3   OH232694   7.859   6.782   5.671
10918TIP3    H132695   7.937   6.775   5.726
10918TIP3    H232696   7.868   6.868   5.629
10919TIP3   OH232697   4.626   5.746   5.650
10919TIP3    H132698   4.693   5.688   5.614
10919TIP3    H232699   4.669   5.787   5.726
10920TIP3   OH232700   8.346   1.021   0.269
10920TIP3    H132701   8.388   1.056   0.191
10920TIP3    H232702   8.346   0.927   0.256
10921TIP3   OH232703   5.566   6.471   3.159
10921TIP3    H132704   5.484   6.430   3.130
10921TIP3    H232705   5.560   6.561   3.127
10922TIP3   OH232706   2.157   2.294   4.773
10922TIP3    H132707   2.250   2.298   4.751
10922TIP3    H232708   2.146   2.209   4.816
10923TIP3   OH232709   5.402   2.178   5.907
10923TIP3    H132710   5.381   2.231   5.831
10923TIP3    H232711   5.385   2.088   5.879
10924TIP3   OH232712   6.670   7.160   3.749
10924TIP3    H132713   6.667   7.255   3.742
10924TIP3    H232714   6.613   7.128   3.679
10925TIP3   OH232715   2.880   4.806   6.672
10925TIP3    H132716   2.970   4.797   6.702
10925TIP3    H232717   2.863   4.725   6.623
10926TIP3   OH232718   3.286   7.458   3.731
10926TIP3    H132719   3.319   7.370   3.750
10926TIP3    H232720   3.234   7.481   3.808
10927TIP3   OH232721   0.941   2.867   5.912
10927TIP3    H132722   0.866   2.833   5.863
10927TIP3    H232723   0.903   2.929   5.974
10928TIP3   OH232724   3.723   4.005   4.519
10928TIP3    H132725   3.640   3.983   4.560
10928TIP3    H232726   3.767   4.062   4.581
10929TIP3   OH232727   7.224   0.963   5.983
10929TIP3    H132728   7.301   1.003   5.942
10929TIP3    H232729   7.155   1.029   5.972
10930TIP3   OH232730   6.726   0.879   6.712
10930TIP3    H132731   6.631   0.869   6.721
10930TIP3    H232732   6.743   0.864   6.619
10931TIP3   OH232733   7.885   6.471   1.519
10931TIP3    H132734   7.975   6.503   1.526
10931TIP3    H232735   7.838   6.515   1.591
10932TIP3   OH232736   8.123   1.978   1.104
10932TIP3    H132737   8.121   2.026   1.021
10932TIP3    H232738   8.215   1.956   1.118
10933TIP3   OH232739   6.978   5.304   2.384
10933TIP3    H132740   6.896   5.258   2.405
10933TIP3    H232741   6.953   5.397   2.384
10934TIP3   OH232742   1.187   2.438   5.975
10934TIP3    H132743   1.204   2.434   5.881
10934TIP3    H232744   1.178   2.531   5.994
10935TIP3   OH232745   6.804   6.593   0.628
10935TIP3    H132746   6.729   6.534   0.613
10935TIP3    H232747   6.881   6.537   0.618
10936TIP3   OH232748   1.093   1.115   6.536
10936TIP3    H132749   1.049   1.056   6.475
10936TIP3    H232750   1.080   1.202   6.500
10937TIP3   OH232751   8.368   4.799   3.306
10937TIP3    H132752   8.392   4.707   3.318
10937TIP3    H232753   8.287   4.796   3.255
10938TIP3   OH232754   0.615   2.546   2.097
10938TIP3    H132755   0.624   2.452   2.116
10938TIP3    H232756   0.701   2.582   2.115
10939TIP3   OH232757   6.171   6.817   0.391
10939TIP3    H132758   6.080   6.824   0.363
10939TIP3    H232759   6.174   6.861   0.476
10940TIP3   OH232760   3.727   3.391   0.601
10940TIP3    H132761   3.746   3.404   0.694
10940TIP3    H232762   3.711   3.479   0.567
10941TIP3   OH232763   2.649   1.924   3.282
10941TIP3    H132764   2.685   1.915   3.194
10941TIP3    H232765   2.710   1.875   3.337
10942TIP3   OH232766   2.948   7.935   6.285
10942TIP3    H132767   2.934   7.894   6.199
10942TIP3    H232768   3.037   7.911   6.309
10943TIP3   OH232769   2.420   2.861   2.407
10943TIP3    H132770   2.417   2.888   2.499
10943TIP3    H232771   2.505   2.892   2.375
10944TIP3   OH232772   0.394   7.351   2.248
10944TIP3    H132773   0.435   7.267   2.269
10944TIP3    H232774   0.316   7.355   2.304
10945TIP3   OH232775   7.976   0.728   2.647
10945TIP3    H132776   7.947   0.820   2.643
10945TIP3    H232777   7.894   0.678   2.656
10946TIP3   OH232778   5.799   2.234   6.095
10946TIP3    H132779   5.841   2.148   6.088
10946TIP3    H232780   5.807   2.258   6.188
10947TIP3   OH232781   7.781   6.457   4.482
10947TIP3    H132782   7.829   6.531   4.444
10947TIP3    H232783   7.701   6.497   4.517
10948TIP3   OH232784   2.118   0.031   4.948
10948TIP3    H132785   2.057   0.095   4.986
10948TIP3    H232786   2.203   0.055   4.984
10949TIP3   OH232787   6.013   6.035   3.351
10949TIP3    H132788   5.920   6.041   3.369
10949TIP3    H232789   6.042   6.126   3.341
10950TIP3   OH232790   0.569   5.107   4.401
10950TIP3    H132791   0.504   5.041   4.425
10950TIP3    H232792   0.547   5.183   4.455
10951TIP3   OH232793   4.204   2.152   3.823
10951TIP3    H132794   4.186   2.224   3.763
10951TIP3    H232795   4.157   2.078   3.787
10952TIP3   OH232796   7.156   2.837   2.072
10952TIP3    H132797   7.230   2.868   2.021
10952TIP3    H232798   7.094   2.910   2.073
10953TIP3   OH232799   2.181   1.386   1.100
10953TIP3    H132800   2.201   1.293   1.109
10953TIP3    H232801   2.237   1.416   1.028
10954TIP3   OH232802   6.554   3.407   2.717
10954TIP3    H132803   6.560   3.496   2.751
10954TIP3    H232804   6.634   3.364   2.748
10955TIP3   OH232805   5.763   1.669   3.379
10955TIP3    H132806   5.701   1.600   3.402
10955TIP3    H232807   5.849   1.628   3.390
10956TIP3   OH232808   3.915   3.885   0.638
10956TIP3    H132809   4.005   3.919   0.643
10956TIP3    H232810   3.860   3.963   0.627
10957TIP3   OH232811   1.694   0.693   5.332
10957TIP3    H132812   1.779   0.688   5.289
10957TIP3    H232813   1.708   0.750   5.407
10958TIP3   OH232814   1.038   3.760   0.007
10958TIP3    H132815   1.109   3.740  -0.054
10958TIP3    H232816   1.083   3.794   0.085
10959TIP3   OH232817   0.419   4.867   5.502
10959TIP3    H132818   0.359   4.878   5.428
10959TIP3    H232819   0.362   4.850   5.577
10960TIP3   OH232820   2.456   3.542   0.384
10960TIP3    H132821   2.461   3.516   0.292
10960TIP3    H232822   2.391   3.613   0.385
10961TIP3   OH232823   4.023   2.595   1.723
10961TIP3    H132824   3.956   2.663   1.733
10961TIP3    H232825   4.033   2.584   1.629
10962TIP3   OH232826   8.094   5.644   0.746
10962TIP3    H132827   8.093   5.731   0.787
10962TIP3    H232828   8.067   5.584   0.815
10963TIP3   OH232829   0.196   7.153   5.986
10963TIP3    H132830   0.145   7.074   6.001
10963TIP3    H232831   0.136   7.212   5.941
10964TIP3   OH232832   6.985   4.194   4.452
10964TIP3    H132833   7.061   4.183   4.394
10964TIP3    H232834   6.954   4.283   4.432
10965TIP3   OH232835   8.281   2.002   1.785
10965TIP3    H132836   8.211   1.947   1.821
10965TIP3    H232837   8.267   2.088   1.825
10966TIP3   OH232838   3.428   4.017   2.903
10966TIP3    H132839   3.451   4.064   2.823
10966TIP3    H232840   3.436   4.082   2.973
10967TIP3   OH232841   5.872   5.901   2.824
10967TIP3    H132842   5.849   5.833   2.761
10967TIP3    H232843   5.833   5.981   2.788
10968TIP3   OH232844   6.147   6.430   6.212
10968TIP3    H132845   6.149   6.438   6.308
10968TIP3    H232846   6.057   6.407   6.192
10969TIP3   OH232847   6.456   3.561   0.771
10969TIP3    H132848   6.459   3.521   0.858
10969TIP3    H232849   6.396   3.505   0.722
10970TIP3   OH232850   6.776   6.997   6.222
10970TIP3    H132851   6.746   6.958   6.140
10970TIP3    H232852   6.856   6.949   6.243
10971TIP3   OH232853   2.276   0.379   1.181
10971TIP3    H132854   2.238   0.446   1.124
10971TIP3    H232855   2.369   0.376   1.157
10972TIP3   OH232856   7.521   5.939   4.481
10972TIP3    H132857   7.589   5.874   4.463
10972TIP3    H232858   7.564   6.003   4.537
10973TIP3   OH232859   5.304   6.960   1.727
10973TIP3    H132860   5.321   6.906   1.650
10973TIP3    H232861   5.364   6.927   1.794
10974TIP3   OH232862   6.352   7.694   4.687
10974TIP3    H132863   6.278   7.647   4.726
10974TIP3    H232864   6.396   7.627   4.634
10975TIP3   OH232865   4.399   7.803   2.731
10975TIP3    H132866   4.393   7.755   2.813
10975TIP3    H232867   4.491   7.793   2.704
10976TIP3   OH232868   3.647   2.966   1.062
10976TIP3    H132869   3.616   3.056   1.056
10976TIP3    H232870   3.689   2.949   0.977
10977TIP3   OH232871   3.851   0.883   2.567
10977TIP3    H132872   3.763   0.900   2.598
10977TIP3    H232873   3.898   0.965   2.580
10978TIP3   OH232874   5.101   3.806   1.790
10978TIP3    H132875   5.109   3.787   1.697
10978TIP3    H232876   5.022   3.861   1.797
10979TIP3   OH232877   0.980   7.491   1.776
10979TIP3    H132878   1.054   7.457   1.725
10979TIP3    H232879   0.915   7.421   1.772
10980TIP3   OH232880   7.655   1.643   1.453
10980TIP3    H132881   7.595   1.631   1.379
10980TIP3    H232882   7.678   1.736   1.451
10981TIP3   OH232883   8.290   5.348   4.381
10981TIP3    H132884   8.203   5.310   4.398
10981TIP3    H232885   8.312   5.392   4.463
10982TIP3   OH232886   5.867   7.220   2.920
10982TIP3    H132887   5.813   7.298   2.910
10982TIP3    H232888   5.882   7.189   2.831
10983TIP3   OH232889   5.014   7.721   4.133
10983TIP3    H132890   4.943   7.747   4.075
10983TIP3    H232891   5.001   7.627   4.148
10984TIP3   OH232892   5.492   5.339   1.944
10984TIP3    H132893   5.572   5.369   1.987
10984TIP3    H232894   5.443   5.294   2.012
10985TIP3   OH232895   3.888   6.416   4.362
10985TIP3    H132896   3.814   6.442   4.417
10985TIP3    H232897   3.859   6.335   4.320
10986TIP3   OH232898   1.162   6.123   3.095
10986TIP3    H132899   1.251   6.090   3.083
10986TIP3    H232900   1.138   6.160   3.011
10987TIP3   OH232901   5.748   7.205   6.684
10987TIP3    H132902   5.662   7.218   6.644
10987TIP3    H232903   5.735   7.225   6.777
10988TIP3   OH232904   1.526   6.196   4.611
10988TIP3    H132905   1.599   6.216   4.553
10988TIP3    H232906   1.450   6.237   4.570
10989TIP3   OH232907   3.768   4.828   2.521
10989TIP3    H132908   3.788   4.888   2.593
10989TIP3    H232909   3.696   4.869   2.474
10990TIP3   OH232910   1.458   4.265   5.817
10990TIP3    H132911   1.543   4.297   5.787
10990TIP3    H232912   1.445   4.183   5.768
10991TIP3   OH232913   0.250   6.632   5.962
10991TIP3    H132914   0.204   6.548   5.960
10991TIP3    H232915   0.234   6.671   5.877
10992TIP3   OH232916   6.674   1.636   5.905
10992TIP3    H132917   6.759   1.607   5.872
10992TIP3    H232918   6.613   1.616   5.834
10993TIP3   OH232919   3.193   6.289   3.875
10993TIP3    H132920   3.287   6.273   3.868
10993TIP3    H232921   3.171   6.336   3.795
10994TIP3   OH232922   0.617   0.403   6.367
10994TIP3    H132923   0.572   0.479   6.403
10994TIP3    H232924   0.660   0.436   6.288
10995TIP3   OH232925   0.441   6.788   3.061
10995TIP3    H132926   0.393   6.760   2.982
10995TIP3    H232927   0.385   6.854   3.101
10996TIP3   OH232928   2.265   5.247   4.999
10996TIP3    H132929   2.200   5.274   4.935
10996TIP3    H232930   2.235   5.283   5.082
10997TIP3   OH232931   1.715   1.102   5.807
10997TIP3    H132932   1.657   1.057   5.869
10997TIP3    H232933   1.798   1.109   5.853
10998TIP3   OH232934   4.364   5.957   0.362
10998TIP3    H132935   4.307   5.880   0.365
10998TIP3    H232936   4.375   5.983   0.453
10999TIP3   OH232937   6.591   2.817   0.181
10999TIP3    H132938   6.631   2.851   0.261
10999TIP3    H232939   6.546   2.737   0.209
11000TIP3   OH232940   1.834   4.690   3.695
11000TIP3    H132941   1.846   4.608   3.648
11000TIP3    H232942   1.814   4.664   3.785
11001TIP3   OH232943   0.112   2.417   3.288
11001TIP3    H132944   0.202   2.449   3.293
11001TIP3    H232945   0.060   2.486   3.329
11002TIP3   OH232946   7.251   7.856   0.569
11002TIP3    H132947   7.202   7.937   0.554
11002TIP3    H232948   7.331   7.866   0.517
11003TIP3   OH232949   2.232   7.428   0.839
11003TIP3    H132950   2.326   7.443   0.853
11003TIP3    H232951   2.195   7.515   0.832
11004TIP3   OH232952   7.485   6.931   0.705
11004TIP3    H132953   7.525   6.903   0.787
11004TIP3    H232954   7.558   6.935   0.643
11005TIP3   OH232955   6.081   1.190   2.380
11005TIP3    H132956   6.145   1.262   2.376
11005TIP3    H232957   6.017   1.219   2.446
11006TIP3   OH232958   2.849   0.614   5.584
11006TIP3    H132959   2.783   0.665   5.537
11006TIP3    H232960   2.810   0.527   5.592
11007TIP3   OH232961   2.049   5.293   2.744
11007TIP3    H132962   2.144   5.280   2.743
11007TIP3    H232963   2.019   5.258   2.660
11008TIP3   OH232964   0.744   2.640   2.677
11008TIP3    H132965   0.689   2.566   2.702
11008TIP3    H232966   0.694   2.685   2.609
11009TIP3   OH232967   0.827   7.717   2.110
11009TIP3    H132968   0.859   7.679   2.192
11009TIP3    H232969   0.819   7.643   2.050
11010TIP3   OH232970   6.550   3.018   0.453
11010TIP3    H132971   6.592   3.103   0.467
11010TIP3    H232972   6.459   3.039   0.433
11011TIP3   OH232973   5.948   2.874   6.343
11011TIP3    H132974   5.975   2.815   6.272
11011TIP3    H232975   5.991   2.839   6.421
11012TIP3   OH232976   1.090   2.564   4.380
11012TIP3    H132977   1.047   2.489   4.338
11012TIP3    H232978   1.020   2.628   4.393
11013TIP3   OH232979   5.892   1.135   2.029
11013TIP3    H132980   5.899   1.200   1.959
11013TIP3    H232981   5.953   1.065   2.003
11014TIP3   OH232982   3.961   3.876   3.177
11014TIP3    H132983   3.904   3.869   3.255
11014TIP3    H232984   3.954   3.791   3.135
11015TIP3   OH232985   1.731   5.121   5.120
11015TIP3    H132986   1.710   5.158   5.034
11015TIP3    H232987   1.813   5.163   5.145
11016TIP3   OH232988   7.409   5.845   6.444
11016TIP3    H132989   7.347   5.855   6.372
11016TIP3    H232990   7.410   5.751   6.462
11017TIP3   OH232991   5.916   5.027   5.149
11017TIP3    H132992   5.883   5.103   5.102
11017TIP3    H232993   5.895   4.953   5.092
11018TIP3   OH232994   4.903   3.976   6.295
11018TIP3    H132995   4.912   4.067   6.322
11018TIP3    H232996   4.816   3.950   6.323
11019TIP3   OH232997   2.181   0.527   0.948
11019TIP3    H132998   2.232   0.535   0.868
11019TIP3    H232999   2.183   0.615   0.987
11020TIP3   OH233000   0.777   4.995   4.527
11020TIP3    H133001   0.828   5.074   4.547
11020TIP3    H233002   0.720   5.022   4.454
11021TIP3   OH233003   1.466   4.604   1.738
11021TIP3    H133004   1.440   4.686   1.695
11021TIP3    H233005   1.395   4.543   1.720
11022TIP3   OH233006   0.594   5.022   6.685
11022TIP3    H133007   0.501   5.021   6.708
11022TIP3    H233008   0.608   5.109   6.646
11023TIP3   OH233009   3.658   7.503   3.128
11023TIP3    H133010   3.712   7.526   3.203
11023TIP3    H233011   3.609   7.426   3.156
11024TIP3   OH233012   6.937   3.809   3.474
11024TIP3    H133013   6.934   3.731   3.529
11024TIP3    H233014   7.026   3.808   3.437
11025TIP3   OH233015   5.615   2.259   4.463
11025TIP3    H133016   5.641   2.192   4.526
11025TIP3    H233017   5.593   2.335   4.517
11026TIP3   OH233018   1.760   2.913   4.855
11026TIP3    H133019   1.816   2.987   4.831
11026TIP3    H233020   1.675   2.952   4.873
11027TIP3   OH233021   2.329   5.258   2.708
11027TIP3    H133022   2.338   5.190   2.775
11027TIP3    H233023   2.388   5.232   2.638
11028TIP3   OH233024   1.983   6.676   5.702
11028TIP3    H133025   2.036   6.636   5.771
11028TIP3    H233026   1.906   6.709   5.747
11029TIP3   OH233027   5.420   0.764   6.626
11029TIP3    H133028   5.382   0.787   6.711
11029TIP3    H233029   5.407   0.842   6.572
11030TIP3   OH233030   0.945   5.552   3.615
11030TIP3    H133031   0.945   5.507   3.531
11030TIP3    H233032   1.037   5.560   3.638
11031TIP3   OH233033   8.033   1.544   2.258
11031TIP3    H133034   8.110   1.497   2.289
11031TIP3    H233035   8.049   1.635   2.283
11032TIP3   OH233036   7.081   1.346   6.731
11032TIP3    H133037   7.160   1.329   6.782
11032TIP3    H233038   7.010   1.344   6.795
11033TIP3   OH233039   0.992   7.566   6.810
11033TIP3    H133040   1.058   7.606   6.867
11033TIP3    H233041   0.909   7.606   6.838
11034TIP3   OH233042   1.944   1.878   1.807
11034TIP3    H133043   1.864   1.881   1.755
11034TIP3    H233044   1.931   1.805   1.867
11035TIP3   OH233045   0.066   7.625   5.394
11035TIP3    H133046   0.047   7.705   5.345
11035TIP3    H233047   0.159   7.609   5.378
11036TIP3   OH233048   6.157   3.902   6.778
11036TIP3    H133049   6.136   3.827   6.834
11036TIP3    H233050   6.074   3.949   6.769
11037TIP3   OH233051   5.811   3.712   4.404
11037TIP3    H133052   5.847   3.717   4.315
11037TIP3    H233053   5.733   3.768   4.401
11038TIP3   OH233054   6.608   0.285   6.046
11038TIP3    H133055   6.514   0.299   6.059
11038TIP3    H233056   6.650   0.352   6.101
11039TIP3   OH233057   3.737   3.670   5.421
11039TIP3    H133058   3.826   3.677   5.386
11039TIP3    H233059   3.747   3.627   5.506
11040TIP3   OH233060   0.833   2.819   5.320
11040TIP3    H133061   0.891   2.861   5.385
11040TIP3    H233062   0.871   2.842   5.236
11041TIP3   OH233063   4.176   7.014   1.350
11041TIP3    H133064   4.260   6.980   1.318
11041TIP3    H233065   4.119   6.937   1.352
11042TIP3   OH233066   1.782   4.239   3.039
11042TIP3    H133067   1.760   4.245   2.946
11042TIP3    H233068   1.716   4.180   3.076
11043TIP3   OH233069   0.651   3.030   2.617
11043TIP3    H133070   0.733   3.043   2.665
11043TIP3    H233071   0.594   2.984   2.679
11044TIP3   OH233072   1.878   4.544   4.929
11044TIP3    H133073   1.884   4.456   4.967
11044TIP3    H233074   1.789   4.573   4.951
11045TIP3   OH233075   0.284   3.529   4.151
11045TIP3    H133076   0.248   3.440   4.148
11045TIP3    H233077   0.324   3.535   4.238
11046TIP3   OH233078   7.154   7.277   6.215
11046TIP3    H133079   7.208   7.302   6.290
11046TIP3    H233080   7.076   7.331   6.222
11047TIP3   OH233081   6.967   0.524   4.058
11047TIP3    H133082   6.986   0.556   4.146
11047TIP3    H233083   6.880   0.485   4.065
11048TIP3   OH233084   4.767   0.882   4.853
11048TIP3    H133085   4.786   0.974   4.834
11048TIP3    H233086   4.742   0.880   4.945
11049TIP3   OH233087   1.832   1.391   5.733
11049TIP3    H133088   1.861   1.301   5.715
11049TIP3    H233089   1.875   1.443   5.665
11050TIP3   OH233090   6.910   4.384   1.434
11050TIP3    H133091   6.899   4.379   1.529
11050TIP3    H233092   6.961   4.465   1.420
11051TIP3   OH233093   6.051   1.818   0.712
11051TIP3    H133094   6.040   1.874   0.789
11051TIP3    H233095   6.136   1.776   0.725
11052TIP3   OH233096   8.330   1.588   0.196
11052TIP3    H133097   8.305   1.670   0.154
11052TIP3    H233098   8.255   1.565   0.251
11053TIP3   OH233099   0.869   3.279   0.154
11053TIP3    H133100   0.936   3.261   0.220
11053TIP3    H233101   0.860   3.196   0.106
11054TIP3   OH233102   1.566   0.757   0.230
11054TIP3    H133103   1.598   0.680   0.183
11054TIP3    H233104   1.643   0.790   0.276
11055TIP3   OH233105   7.775   4.478   3.769
11055TIP3    H133106   7.736   4.560   3.739
11055TIP3    H233107   7.868   4.498   3.777
11056TIP3   OH233108   5.483   7.485   5.759
11056TIP3    H133109   5.447   7.477   5.847
11056TIP3    H233110   5.552   7.551   5.767
11057TIP3   OH233111   6.441   2.376   0.969
11057TIP3    H133112   6.396   2.436   1.028
11057TIP3    H233113   6.502   2.432   0.920
11058TIP3   OH233114   1.079   0.149   0.245
11058TIP3    H133115   0.997   0.117   0.283
11058TIP3    H233116   1.139   0.154   0.319
11059TIP3   OH233117   1.067   6.658   6.312
11059TIP3    H133118   1.033   6.622   6.230
11059TIP3    H233119   0.996   6.645   6.375
11060TIP3   OH233120   3.540   6.837   3.782
11060TIP3    H133121   3.481   6.857   3.855
11060TIP3    H233122   3.621   6.883   3.803
11061TIP3   OH233123   2.882   3.816   4.162
11061TIP3    H133124   2.811   3.789   4.105
11061TIP3    H233125   2.956   3.832   4.103
11062TIP3   OH233126   4.670   2.572   3.835
11062TIP3    H133127   4.693   2.524   3.915
11062TIP3    H233128   4.598   2.522   3.797
11063TIP3   OH233129   3.550   1.306   0.733
11063TIP3    H133130   3.534   1.331   0.642
11063TIP3    H233131   3.624   1.361   0.760
11064TIP3   OH233132   1.328   6.350   0.161
11064TIP3    H133133   1.378   6.420   0.204
11064TIP3    H233134   1.384   6.321   0.089
11065TIP3   OH233135   6.350   4.289   0.501
11065TIP3    H133136   6.369   4.210   0.452
11065TIP3    H233137   6.343   4.358   0.434
11066TIP3   OH233138   4.308   3.707   2.473
11066TIP3    H133139   4.272   3.658   2.399
11066TIP3    H233140   4.384   3.656   2.500
11067TIP3   OH233141   7.058   4.230   0.440
11067TIP3    H133142   6.973   4.234   0.485
11067TIP3    H233143   7.047   4.289   0.365
11068TIP3   OH233144   4.496   1.213   5.576
11068TIP3    H133145   4.437   1.181   5.508
11068TIP3    H233146   4.452   1.190   5.658
11069TIP3   OH233147   6.588   7.866   0.574
11069TIP3    H133148   6.605   7.830   0.661
11069TIP3    H233149   6.610   7.795   0.513
11070TIP3   OH233150   5.844   7.781   1.213
11070TIP3    H133151   5.788   7.844   1.167
11070TIP3    H233152   5.819   7.790   1.305
11071TIP3   OH233153   2.756   6.441   3.790
11071TIP3    H133154   2.780   6.396   3.871
11071TIP3    H233155   2.680   6.494   3.813
11072TIP3   OH233156   2.470   7.530   5.794
11072TIP3    H133157   2.557   7.492   5.782
11072TIP3    H233158   2.424   7.510   5.712
11073TIP3   OH233159   4.543   5.991   0.165
11073TIP3    H133160   4.529   6.070   0.113
11073TIP3    H233161   4.470   5.991   0.227
11074TIP3   OH233162   7.270   5.408   0.463
11074TIP3    H133163   7.305   5.475   0.405
11074TIP3    H233164   7.229   5.456   0.535
11075TIP3   OH233165   1.910   7.874   4.545
11075TIP3    H133166   1.889   7.801   4.486
11075TIP3    H233167   1.979   7.839   4.601
11076TIP3   OH233168   8.089   5.429   1.933
11076TIP3    H133169   8.185   5.433   1.941
11076TIP3    H233170   8.074   5.416   1.839
11077TIP3   OH233171   2.060   3.020   4.289
11077TIP3    H133172   2.001   3.092   4.265
11077TIP3    H233173   2.002   2.950   4.318
11078TIP3   OH233174   4.424   3.633   4.544
11078TIP3    H133175   4.431   3.627   4.449
11078TIP3    H233176   4.343   3.681   4.560
11079TIP3   OH233177   4.085   0.936   5.465
11079TIP3    H133178   4.041   0.889   5.535
11079TIP3    H233179   4.019   0.996   5.431
11080TIP3   OH233180   7.961   6.295   3.505
11080TIP3    H133181   7.957   6.380   3.462
11080TIP3    H233182   8.012   6.240   3.446
11081TIP3   OH233183   6.078   2.213   4.551
11081TIP3    H133184   6.092   2.298   4.593
11081TIP3    H233185   6.003   2.227   4.494
11082TIP3   OH233186   5.550   0.219   6.307
11082TIP3    H133187   5.598   0.139   6.288
11082TIP3    H233188   5.526   0.212   6.399
11083TIP3   OH233189   4.109   7.229   0.143
11083TIP3    H133190   4.187   7.229   0.089
11083TIP3    H233191   4.071   7.316   0.130
11084TIP3   OH233192   7.940   3.503   4.877
11084TIP3    H133193   7.862   3.490   4.932
11084TIP3    H233194   7.936   3.594   4.850
11085TIP3   OH233195   4.930   7.086   1.834
11085TIP3    H133196   4.981   7.032   1.895
11085TIP3    H233197   4.844   7.092   1.875
11086TIP3   OH233198   0.820   3.483   1.267
11086TIP3    H133199   0.892   3.477   1.203
11086TIP3    H233200   0.770   3.402   1.254
11087TIP3   OH233201   4.171   6.169   2.718
11087TIP3    H133202   4.090   6.220   2.708
11087TIP3    H233203   4.214   6.208   2.795
11088TIP3   OH233204   6.388   5.591   2.246
11088TIP3    H133205   6.461   5.572   2.187
11088TIP3    H233206   6.431   5.615   2.328
11089TIP3   OH233207   4.847   5.863   4.176
11089TIP3    H133208   4.794   5.785   4.165
11089TIP3    H233209   4.935   5.837   4.146
11090TIP3   OH233210   1.753   1.564   2.148
11090TIP3    H133211   1.740   1.474   2.117
11090TIP3    H233212   1.664   1.600   2.155
11091TIP3   OH233213   3.126   1.058   3.279
11091TIP3    H133214   3.180   1.127   3.239
11091TIP3    H233215   3.085   1.014   3.204
11092TIP3   OH233216   7.775   7.346   4.890
11092TIP3    H133217   7.778   7.415   4.955
11092TIP3    H233218   7.688   7.354   4.850
11093TIP3   OH233219   4.596   2.195   0.145
11093TIP3    H133220   4.536   2.178   0.072
11093TIP3    H233221   4.538   2.209   0.220
11094TIP3   OH233222   2.597   5.407   0.923
11094TIP3    H133223   2.615   5.320   0.960
11094TIP3    H233224   2.609   5.396   0.829
11095TIP3   OH233225   4.926   7.357   1.773
11095TIP3    H133226   4.991   7.381   1.839
11095TIP3    H233227   4.922   7.262   1.776
11096TIP3   OH233228   6.703   3.691   5.598
11096TIP3    H133229   6.671   3.647   5.676
11096TIP3    H233230   6.635   3.676   5.532
11097TIP3   OH233231   7.434   7.658   4.759
11097TIP3    H133232   7.451   7.565   4.744
11097TIP3    H233233   7.508   7.688   4.811
11098TIP3   OH233234   1.990   6.065   5.167
11098TIP3    H133235   2.057   6.126   5.135
11098TIP3    H233236   2.023   6.037   5.253
11099TIP3   OH233237   4.292  -0.003   4.688
11099TIP3    H133238   4.318   0.005   4.779
11099TIP3    H233239   4.354   0.053   4.640
11100TIP3   OH233240   7.621   6.883   6.351
11100TIP3    H133241   7.579   6.951   6.404
11100TIP3    H233242   7.595   6.801   6.393
11101TIP3   OH233243   2.109   3.133   2.746
11101TIP3    H133244   2.185   3.075   2.756
11101TIP3    H233245   2.147   3.217   2.718
11102TIP3   OH233246   2.167   0.270   1.405
11102TIP3    H133247   2.243   0.290   1.460
11102TIP3    H233248   2.188   0.307   1.320
11103TIP3   OH233249   7.145   3.366   0.037
11103TIP3    H133250   7.101   3.430   0.094
11103TIP3    H233251   7.075   3.306   0.010
11104TIP3   OH233252   2.401   4.253   0.859
11104TIP3    H133253   2.308   4.249   0.882
11104TIP3    H233254   2.447   4.226   0.939
11105TIP3   OH233255   6.712   6.141   5.618
11105TIP3    H133256   6.772   6.082   5.574
11105TIP3    H233257   6.668   6.086   5.684
11106TIP3   OH233258   6.015   1.292   1.215
11106TIP3    H133259   5.935   1.344   1.200
11106TIP3    H233260   6.021   1.235   1.138
11107TIP3   OH233261   3.215   6.030   0.109
11107TIP3    H133262   3.220   5.978   0.029
11107TIP3    H233263   3.295   6.008   0.157
11108TIP3   OH233264   5.541   1.064   6.228
11108TIP3    H133265   5.465   1.049   6.173
11108TIP3    H233266   5.609   1.008   6.191
11109TIP3   OH233267   0.679   5.548   3.949
11109TIP3    H133268   0.667   5.456   3.972
11109TIP3    H233269   0.627   5.596   4.014
11110TIP3   OH233270   5.220   4.300   4.437
11110TIP3    H133271   5.130   4.298   4.470
11110TIP3    H233272   5.264   4.364   4.492
11111TIP3   OH233273   3.113   4.738   6.774
11111TIP3    H133274   3.199   4.757   6.737
11111TIP3    H233275   3.125   4.655   6.821
11112TIP3   OH233276   4.907   4.451   2.401
11112TIP3    H133277   4.845   4.406   2.458
11112TIP3    H233278   4.982   4.471   2.456
11113TIP3   OH233279   1.354   7.172   1.485
11113TIP3    H133280   1.364   7.174   1.390
11113TIP3    H233281   1.335   7.081   1.506
11114TIP3   OH233282   2.411   6.415   2.286
11114TIP3    H133283   2.484   6.476   2.300
11114TIP3    H233284   2.432   6.339   2.340
11115TIP3   OH233285   5.990   3.452   0.869
11115TIP3    H133286   5.994   3.358   0.888
11115TIP3    H233287   6.057   3.466   0.802
11116TIP3   OH233288  -0.020   0.269   2.652
11116TIP3    H133289   0.074   0.288   2.650
11116TIP3    H233290  -0.033   0.203   2.584
11117TIP3   OH233291   3.650   5.319   5.435
11117TIP3    H133292   3.677   5.312   5.343
11117TIP3    H233293   3.727   5.291   5.485
11118TIP3   OH233294   3.616   0.304   3.161
11118TIP3    H133295   3.669   0.234   3.199
11118TIP3    H233296   3.525   0.276   3.176
11119TIP3   OH233297   0.763   1.837   5.536
11119TIP3    H133298   0.737   1.914   5.587
11119TIP3    H233299   0.711   1.766   5.571
11120TIP3   OH233300   2.107   4.268   2.270
11120TIP3    H133301   2.039   4.277   2.337
11120TIP3    H233302   2.082   4.191   2.220
11121TIP3   OH233303   4.936   0.351  -0.006
11121TIP3    H133304   5.009   0.306   0.036
11121TIP3    H233305   4.920   0.427   0.051
11122TIP3   OH233306   7.452   0.584   3.639
11122TIP3    H133307   7.423   0.665   3.680
11122TIP3    H233308   7.546   0.579   3.659
11123TIP3   OH233309   5.768   1.534   3.089
11123TIP3    H133310   5.828   1.608   3.092
11123TIP3    H233311   5.745   1.518   3.180
11124TIP3   OH233312   7.558   0.325   1.099
11124TIP3    H133313   7.560   0.343   1.193
11124TIP3    H233314   7.639   0.363   1.065
11125TIP3   OH233315   7.740   4.374   3.002
11125TIP3    H133316   7.666   4.434   2.992
11125TIP3    H233317   7.739   4.322   2.921
11126TIP3   OH233318   3.129   1.602   3.569
11126TIP3    H133319   3.047   1.556   3.584
11126TIP3    H233320   3.115   1.651   3.488
11127TIP3   OH233321   5.549   4.940   2.110
11127TIP3    H133322   5.577   4.995   2.036
11127TIP3    H233323   5.626   4.933   2.166
11128TIP3   OH233324   8.032   1.611   1.928
11128TIP3    H133325   7.944   1.612   1.890
11128TIP3    H233326   8.058   1.519   1.926
11129TIP3   OH233327   0.262   7.012   1.392
11129TIP3    H133328   0.341   6.969   1.425
11129TIP3    H233329   0.207   6.941   1.360
11130TIP3   OH233330   1.242   1.099   0.098
11130TIP3    H133331   1.239   1.008   0.125
11130TIP3    H233332   1.214   1.098   0.006
11131TIP3   OH233333   6.863   6.364   2.175
11131TIP3    H133334   6.902   6.441   2.134
11131TIP3    H233335   6.938   6.316   2.211
11132TIP3   OH233336   2.254   2.974   2.187
11132TIP3    H133337   2.303   2.903   2.228
11132TIP3    H233338   2.187   2.930   2.136
11133TIP3   OH233339   2.307   6.187   1.838
11133TIP3    H133340   2.224   6.160   1.878
11133TIP3    H233341   2.357   6.223   1.911
11134TIP3   OH233342   6.264   0.699   2.347
11134TIP3    H133343   6.213   0.642   2.290
11134TIP3    H233344   6.205   0.772   2.368
11135TIP3   OH233345   3.778   6.831   3.593
11135TIP3    H133346   3.771   6.736   3.604
11135TIP3    H233347   3.687   6.862   3.592
11136TIP3   OH233348   3.187   1.566   0.634
11136TIP3    H133349   3.146   1.641   0.678
11136TIP3    H233350   3.235   1.605   0.561
11137TIP3   OH233351   0.971   1.558   3.420
11137TIP3    H133352   0.888   1.604   3.432
11137TIP3    H233353   1.037   1.614   3.460
11138TIP3   OH233354   0.096   5.606   3.043
11138TIP3    H133355   0.078   5.514   3.060
11138TIP3    H233356   0.045   5.627   2.965
11139TIP3   OH233357   2.961   2.868   4.470
11139TIP3    H133358   2.908   2.942   4.439
11139TIP3    H233359   2.970   2.812   4.393
11140TIP3   OH233360   6.100   7.227   3.453
11140TIP3    H133361   6.068   7.285   3.522
11140TIP3    H233362   6.194   7.247   3.448
11141TIP3   OH233363   4.327   7.208   2.066
11141TIP3    H133364   4.295   7.160   1.990
11141TIP3    H233365   4.248   7.241   2.108
11142TIP3   OH233366   1.322   4.416   1.625
11142TIP3    H133367   1.251   4.356   1.602
11142TIP3    H233368   1.387   4.404   1.556
11143TIP3   OH233369   5.457   4.017   2.818
11143TIP3    H133370   5.455   4.111   2.836
11143TIP3    H233371   5.474   3.977   2.904
11144TIP3   OH233372   8.372   6.275   0.134
11144TIP3    H133373   8.371   6.250   0.227
11144TIP3    H233374   8.329   6.360   0.132
11145TIP3   OH233375   8.305   3.198   5.429
11145TIP3    H133376   8.340   3.111   5.409
11145TIP3    H233377   8.268   3.188   5.517
11146TIP3   OH233378   0.497   5.999   3.438
11146TIP3    H133379   0.585   6.036   3.448
11146TIP3    H233380   0.496   5.965   3.349
11147TIP3   OH233381   2.674   2.214   2.532
11147TIP3    H133382   2.690   2.120   2.525
11147TIP3    H233383   2.729   2.253   2.465
11148TIP3   OH233384   0.157   5.250   5.919
11148TIP3    H133385   0.129   5.271   5.830
11148TIP3    H233386   0.252   5.265   5.919
11149TIP3   OH233387   5.035   1.203   1.911
11149TIP3    H133388   5.090   1.280   1.922
11149TIP3    H233389   4.967   1.229   1.849
11150TIP3   OH233390   4.522   4.147   2.142
11150TIP3    H133391   4.572   4.092   2.203
11150TIP3    H233392   4.454   4.187   2.197
11151TIP3   OH233393   0.761   2.317   5.504
11151TIP3    H133394   0.773   2.411   5.493
11151TIP3    H233395   0.688   2.309   5.565
11152TIP3   OH233396   2.320   4.557   5.436
11152TIP3    H133397   2.285   4.630   5.387
11152TIP3    H233398   2.258   4.544   5.508
11153TIP3   OH233399   8.347   7.166   2.653
11153TIP3    H133400   8.389   7.221   2.587
11153TIP3    H233401   8.262   7.142   2.615
11154TIP3   OH233402   0.834   4.564   3.537
11154TIP3    H133403   0.793   4.478   3.546
11154TIP3    H233404   0.884   4.559   3.456
11155TIP3   OH233405   1.207   5.547   1.008
11155TIP3    H133406   1.122   5.543   0.963
11155TIP3    H233407   1.229   5.640   1.009
11156TIP3   OH233408   1.448   5.340   6.319
11156TIP3    H133409   1.445   5.294   6.235
11156TIP3    H233410   1.487   5.278   6.380
11157TIP3   OH233411   4.091   1.270   0.571
11157TIP3    H133412   4.049   1.302   0.490
11157TIP3    H233413   4.033   1.301   0.641
11158TIP3   OH233414   7.780   4.990   5.017
11158TIP3    H133415   7.836   4.915   4.995
11158TIP3    H233416   7.694   4.965   4.984
11159TIP3   OH233417   0.301   6.963   3.293
11159TIP3    H133418   0.265   7.001   3.213
11159TIP3    H233419   0.250   7.002   3.364
11160TIP3   OH233420   5.280   4.612   3.224
11160TIP3    H133421   5.343   4.561   3.275
11160TIP3    H233422   5.203   4.556   3.219
11161TIP3   OH233423   7.076   3.211   5.582
11161TIP3    H133424   7.066   3.280   5.647
11161TIP3    H233425   7.106   3.135   5.633
11162TIP3   OH233426   2.518   5.950   3.449
11162TIP3    H133427   2.508   5.939   3.544
11162TIP3    H233428   2.438   5.994   3.421
11163TIP3   OH233429   7.281   4.702   0.169
11163TIP3    H133430   7.245   4.763   0.233
11163TIP3    H233431   7.227   4.623   0.177
11164TIP3   OH233432   2.078   3.998   5.970
11164TIP3    H133433   2.022   4.042   6.035
11164TIP3    H233434   2.045   3.908   5.967
11165TIP3   OH233435   3.300   5.828   1.853
11165TIP3    H133436   3.207   5.842   1.870
11165TIP3    H233437   3.343   5.906   1.887
11166TIP3   OH233438   1.019   4.217   2.524
11166TIP3    H133439   0.955   4.261   2.579
11166TIP3    H233440   0.996   4.242   2.435
11167TIP3   OH233441   2.637   6.337   4.568
11167TIP3    H133442   2.598   6.417   4.532
11167TIP3    H233443   2.567   6.297   4.620
11168TIP3   OH233444   3.252   6.935   4.780
11168TIP3    H133445   3.177   6.978   4.738
11168TIP3    H233446   3.300   6.894   4.708
11169TIP3   OH233447   5.391   6.779   5.692
11169TIP3    H133448   5.434   6.701   5.726
11169TIP3    H233449   5.461   6.828   5.649
11170TIP3   OH233450   3.230   2.575   2.008
11170TIP3    H133451   3.210   2.669   2.016
11170TIP3    H233452   3.197   2.551   1.921
11171TIP3   OH233453   1.091   5.372   0.749
11171TIP3    H133454   1.033   5.448   0.750
11171TIP3    H233455   1.085   5.338   0.660
11172TIP3   OH233456   1.881   3.075   1.357
11172TIP3    H133457   1.970   3.098   1.332
11172TIP3    H233458   1.889   2.994   1.408
11173TIP3   OH233459   0.154   5.815   0.083
11173TIP3    H133460   0.086   5.814   0.150
11173TIP3    H233461   0.221   5.756   0.116
11174TIP3   OH233462   7.008   5.053   3.542
11174TIP3    H133463   7.081   5.115   3.535
11174TIP3    H233464   7.047   4.967   3.526
11175TIP3   OH233465   3.776   7.453   6.423
11175TIP3    H133466   3.811   7.542   6.427
11175TIP3    H233467   3.850   7.400   6.393
11176TIP3   OH233468   6.145   6.048   0.028
11176TIP3    H133469   6.219   6.103   0.056
11176TIP3    H233470   6.089   6.107  -0.021
11177TIP3   OH233471   5.482   2.953   6.185
11177TIP3    H133472   5.428   2.874   6.178
11177TIP3    H233473   5.566   2.928   6.149
11178TIP3   OH233474   6.672   3.663   0.516
11178TIP3    H133475   6.654   3.691   0.605
11178TIP3    H233476   6.765   3.638   0.517
11179TIP3   OH233477   4.544   5.129   1.270
11179TIP3    H133478   4.594   5.201   1.309
11179TIP3    H233479   4.603   5.054   1.273
11180TIP3   OH233480   1.022   4.237   4.661
11180TIP3    H133481   1.104   4.189   4.659
11180TIP3    H233482   1.046   4.325   4.631
11181TIP3   OH233483   6.405   3.200   6.202
11181TIP3    H133484   6.484   3.181   6.150
11181TIP3    H233485   6.431   3.177   6.292
11182TIP3   OH233486   3.030   7.391   1.778
11182TIP3    H133487   3.026   7.372   1.872
11182TIP3    H233488   3.099   7.334   1.744
11183TIP3   OH233489   2.487   1.471   3.796
11183TIP3    H133490   2.395   1.449   3.784
11183TIP3    H233491   2.535   1.396   3.760
11184TIP3   OH233492   6.482   2.118   4.190
11184TIP3    H133493   6.397   2.133   4.230
11184TIP3    H233494   6.502   2.027   4.209
11185TIP3   OH233495   1.278   6.290   1.707
11185TIP3    H133496   1.267   6.354   1.636
11185TIP3    H233497   1.190   6.260   1.727
11186TIP3   OH233498   2.365   7.765   3.229
11186TIP3    H133499   2.391   7.810   3.309
11186TIP3    H233500   2.429   7.695   3.218
11187TIP3   OH233501   2.768   1.676   0.331
11187TIP3    H133502   2.711   1.717   0.397
11187TIP3    H233503   2.856   1.687   0.366
11188TIP3   OH233504   0.451   5.047   2.499
11188TIP3    H133505   0.507   5.009   2.567
11188TIP3    H233506   0.467   5.141   2.506
11189TIP3   OH233507   7.118   7.075   3.869
11189TIP3    H133508   7.197   7.120   3.837
11189TIP3    H233509   7.151   6.997   3.913
11190TIP3   OH233510   5.979   1.770   2.475
11190TIP3    H133511   5.960   1.697   2.415
11190TIP3    H233512   6.071   1.759   2.498
11191TIP3   OH233513   5.331   5.382   2.434
11191TIP3    H133514   5.303   5.388   2.526
11191TIP3    H233515   5.403   5.319   2.435
11192TIP3   OH233516   0.002   1.306   0.629
11192TIP3    H133517   0.072   1.311   0.564
11192TIP3    H233518  -0.041   1.222   0.611
11193TIP3   OH233519   2.063   7.504   4.249
11193TIP3    H133520   2.131   7.546   4.195
11193TIP3    H233521   2.107   7.428   4.288
11194TIP3   OH233522   7.666   3.279   6.082
11194TIP3    H133523   7.724   3.344   6.122
11194TIP3    H233524   7.705   3.262   5.997
11195TIP3   OH233525   7.266   6.469   6.621
11195TIP3    H133526   7.317   6.477   6.540
11195TIP3    H233527   7.182   6.509   6.601
11196TIP3   OH233528   4.745   2.167   6.086
11196TIP3    H133529   4.669   2.225   6.092
11196TIP3    H233530   4.776   2.157   6.176
11197TIP3   OH233531   4.964   7.366   4.569
11197TIP3    H133532   4.900   7.427   4.532
11197TIP3    H233533   4.966   7.293   4.507
11198TIP3   OH233534   7.065   2.691   4.664
11198TIP3    H133535   7.113   2.610   4.679
11198TIP3    H233536   7.061   2.700   4.569
11199TIP3   OH233537   6.855   0.329   1.542
11199TIP3    H133538   6.836   0.420   1.566
11199TIP3    H233539   6.786   0.306   1.479
11200TIP3   OH233540   1.199   7.063   4.340
11200TIP3    H133541   1.110   7.072   4.374
11200TIP3    H233542   1.189   7.016   4.257
11201TIP3   OH233543   7.651   4.252   1.247
11201TIP3    H133544   7.675   4.344   1.256
11201TIP3    H233545   7.712   4.206   1.305
11202TIP3   OH233546   5.350   0.407   5.686
11202TIP3    H133547   5.354   0.483   5.744
11202TIP3    H233548   5.409   0.343   5.725
11203TIP3   OH233549   5.384   1.148   2.636
11203TIP3    H133550   5.433   1.167   2.555
11203TIP3    H233551   5.444   1.171   2.706
11204TIP3   OH233552   4.316   5.347   2.766
11204TIP3    H133553   4.257   5.419   2.744
11204TIP3    H233554   4.268   5.268   2.739
11205TIP3   OH233555   3.364   0.457   5.405
11205TIP3    H133556   3.271   0.472   5.422
11205TIP3    H233557   3.368   0.367   5.372
11206TIP3   OH233558   6.448   0.043   0.610
11206TIP3    H133559   6.500   0.008   0.538
11206TIP3    H233560   6.453   0.138   0.599
11207TIP3   OH233561   2.104   3.299   4.572
11207TIP3    H133562   2.030   3.298   4.513
11207TIP3    H233563   2.130   3.207   4.581
11208TIP3   OH233564   7.816   7.756   6.705
11208TIP3    H133565   7.863   7.833   6.737
11208TIP3    H233566   7.781   7.783   6.620
11209TIP3   OH233567   2.562   5.265   5.305
11209TIP3    H133568   2.467   5.270   5.311
11209TIP3    H233569   2.592   5.257   5.396
11210TIP3   OH233570   4.748   2.620   6.277
11210TIP3    H133571   4.771   2.530   6.302
11210TIP3    H233572   4.661   2.612   6.238
11211TIP3   OH233573   3.051   5.528   3.836
11211TIP3    H133574   3.147   5.520   3.837
11211TIP3    H233575   3.024   5.500   3.923
11212TIP3   OH233576   4.475   4.057  -0.004
11212TIP3    H133577   4.428   4.137   0.020
11212TIP3    H233578   4.471   4.002   0.074
11213TIP3   OH233579   0.600   3.455   4.211
11213TIP3    H133580   0.561   3.538   4.240
11213TIP3    H233581   0.691   3.477   4.191
11214TIP3   OH233582   5.717   7.571   0.914
11214TIP3    H133583   5.798   7.584   0.963
11214TIP3    H233584   5.691   7.658   0.886
11215TIP3   OH233585   5.199   7.642   5.864
11215TIP3    H133586   5.200   7.632   5.769
11215TIP3    H233587   5.229   7.557   5.897
11216TIP3   OH233588   6.898   2.213   2.585
11216TIP3    H133589   6.944   2.186   2.664
11216TIP3    H233590   6.967   2.236   2.523
11217TIP3   OH233591   0.711   1.896   1.103
11217TIP3    H133592   0.625   1.936   1.115
11217TIP3    H233593   0.695   1.802   1.114
11218TIP3   OH233594   3.289   4.925   3.264
11218TIP3    H133595   3.297   4.830   3.272
11218TIP3    H233596   3.274   4.955   3.353
11219TIP3   OH233597   4.469   0.672   3.221
11219TIP3    H133598   4.544   0.719   3.186
11219TIP3    H233599   4.440   0.724   3.296
11220TIP3   OH233600   0.544   3.078   3.595
11220TIP3    H133601   0.547   3.131   3.515
11220TIP3    H233602   0.476   3.013   3.579
11221TIP3   OH233603   3.451   7.082   6.706
11221TIP3    H133604   3.432   7.090   6.613
11221TIP3    H233605   3.512   7.008   6.712
11222TIP3   OH233606   7.234   5.001   5.635
11222TIP3    H133607   7.157   4.959   5.599
11222TIP3    H233608   7.279   4.932   5.684
11223TIP3   OH233609   1.541   7.500   1.568
11223TIP3    H133610   1.514   7.417   1.605
11223TIP3    H233611   1.628   7.483   1.532
11224TIP3   OH233612   4.690   2.468   6.008
11224TIP3    H133613   4.624   2.476   6.077
11224TIP3    H233614   4.650   2.412   5.942
11225TIP3   OH233615   4.778   2.046   4.131
11225TIP3    H133616   4.697   2.045   4.182
11225TIP3    H233617   4.810   1.956   4.135
11226TIP3   OH233618   7.277   6.025   0.395
11226TIP3    H133619   7.241   6.007   0.308
11226TIP3    H233620   7.366   5.990   0.391
11227TIP3   OH233621   7.238   1.464   2.887
11227TIP3    H133622   7.293   1.493   2.959
11227TIP3    H233623   7.291   1.478   2.808
11228TIP3   OH233624   5.575   3.287   6.180
11228TIP3    H133625   5.503   3.226   6.164
11228TIP3    H233626   5.654   3.238   6.157
11229TIP3   OH233627   7.148   2.027   5.234
11229TIP3    H133628   7.102   1.978   5.166
11229TIP3    H233629   7.178   1.961   5.296
11230TIP3   OH233630   0.637   5.137   3.042
11230TIP3    H133631   0.636   5.044   3.063
11230TIP3    H233632   0.619   5.141   2.948
11231TIP3   OH233633   0.073   3.899   3.563
11231TIP3    H133634   0.000   3.897   3.624
11231TIP3    H233635   0.105   3.989   3.566
11232TIP3   OH233636   6.775   7.919   5.552
11232TIP3    H133637   6.730   7.951   5.474
11232TIP3    H233638   6.721   7.846   5.583
11233TIP3   OH233639   3.924   7.728   0.197
11233TIP3    H133640   4.015   7.701   0.211
11233TIP3    H233641   3.890   7.667   0.132
11234TIP3   OH233642   7.779   5.503   6.193
11234TIP3    H133643   7.797   5.595   6.214
11234TIP3    H233644   7.856   5.474   6.144
11235TIP3   OH233645   1.965   7.386   0.376
11235TIP3    H133646   2.017   7.453   0.421
11235TIP3    H233647   1.901   7.358   0.441
11236TIP3   OH233648   1.924   1.329   1.558
11236TIP3    H133649   1.901   1.236   1.552
11236TIP3    H233650   1.996   1.340   1.497
11237TIP3   OH233651   8.249   5.685   2.387
11237TIP3    H133652   8.287   5.751   2.445
11237TIP3    H233653   8.156   5.708   2.384
11238TIP3   OH233654   1.227   7.934   2.695
11238TIP3    H133655   1.272   7.858   2.733
11238TIP3    H233656   1.222   7.915   2.602
11239TIP3   OH233657   4.373   5.277   4.436
11239TIP3    H133658   4.443   5.231   4.389
11239TIP3    H233659   4.330   5.208   4.487
11240TIP3   OH233660   1.262   5.665   2.949
11240TIP3    H133661   1.282   5.572   2.955
11240TIP3    H233662   1.340   5.704   2.909
11241TIP3   OH233663   7.713   0.050   5.954
11241TIP3    H133664   7.687   0.035   6.045
11241TIP3    H233665   7.805   0.025   5.951
11242TIP3   OH233666   2.898   7.745   5.410
11242TIP3    H133667   2.882   7.674   5.472
11242TIP3    H233668   2.887   7.705   5.323
11243TIP3   OH233669   1.852   4.879   5.018
11243TIP3    H133670   1.787   4.948   5.011
11243TIP3    H233671   1.803   4.803   5.051
11244TIP3   OH233672   0.552   5.212   1.913
11244TIP3    H133673   0.627   5.190   1.969
11244TIP3    H233674   0.517   5.127   1.886
11245TIP3   OH233675   3.042   6.780   2.311
11245TIP3    H133676   3.010   6.867   2.286
11245TIP3    H233677   2.965   6.724   2.305
11246TIP3   OH233678   4.104   1.260   3.830
11246TIP3    H133679   4.112   1.308   3.747
11246TIP3    H233680   4.195   1.249   3.860
11247TIP3   OH233681   6.765   1.898   6.469
11247TIP3    H133682   6.741   1.928   6.381
11247TIP3    H233683   6.860   1.899   6.469
11248TIP3   OH233684   0.511   7.888   6.435
11248TIP3    H133685   0.516   7.799   6.470
11248TIP3    H233686   0.556   7.883   6.351
11249TIP3   OH233687   5.980   1.523   0.367
11249TIP3    H133688   6.014   1.612   0.371
11249TIP3    H233689   5.900   1.525   0.418
11250TIP3   OH233690   3.103   0.855   5.541
11250TIP3    H133691   3.178   0.846   5.599
11250TIP3    H233692   3.140   0.890   5.459
11251TIP3   OH233693   8.174   5.033   0.238
11251TIP3    H133694   8.238   5.035   0.310
11251TIP3    H233695   8.141   5.123   0.234
11252TIP3   OH233696   0.845   4.317   6.642
11252TIP3    H133697   0.898   4.260   6.587
11252TIP3    H233698   0.908   4.368   6.692
11253TIP3   OH233699   2.401   1.034   6.618
11253TIP3    H133700   2.440   1.119   6.641
11253TIP3    H233701   2.307   1.045   6.636
11254TIP3   OH233702   0.887   2.960   1.291
11254TIP3    H133703   0.818   2.983   1.229
11254TIP3    H233704   0.931   3.043   1.310
11255TIP3   OH233705   7.365   6.222   6.716
11255TIP3    H133706   7.343   6.308   6.679
11255TIP3    H233707   7.288   6.198   6.767
11256TIP3   OH233708   6.020   6.790   6.315
11256TIP3    H133709   5.959   6.864   6.323
11256TIP3    H233710   6.038   6.764   6.405
11257TIP3   OH233711   1.573   2.014   3.410
11257TIP3    H133712   1.597   2.066   3.333
11257TIP3    H233713   1.574   2.077   3.482
11258TIP3   OH233714   5.588   3.575   0.138
11258TIP3    H133715   5.668   3.536   0.173
11258TIP3    H233716   5.612   3.606   0.051
11259TIP3   OH233717   5.451   1.280   3.116
11259TIP3    H133718   5.504   1.359   3.127
11259TIP3    H233719   5.361   1.311   3.125
11260TIP3   OH233720   6.850   4.961   4.913
11260TIP3    H133721   6.901   5.038   4.936
11260TIP3    H233722   6.764   4.996   4.886
11261TIP3   OH233723   7.929   7.688   4.696
11261TIP3    H133724   7.966   7.673   4.609
11261TIP3    H233725   7.947   7.780   4.715
11262TIP3   OH233726   5.155   0.930   3.597
11262TIP3    H133727   5.091   0.859   3.597
11262TIP3    H233728   5.233   0.892   3.557
11263TIP3   OH233729   6.291   7.160   1.153
11263TIP3    H133730   6.280   7.186   1.245
11263TIP3    H233731   6.384   7.139   1.145
11264TIP3   OH233732   4.598   4.533   3.139
11264TIP3    H133733   4.628   4.452   3.179
11264TIP3    H233734   4.553   4.579   3.210
11265TIP3   OH233735   1.507   6.834   2.097
11265TIP3    H133736   1.442   6.778   2.055
11265TIP3    H233737   1.573   6.774   2.132
11266TIP3   OH233738   1.094   3.871   0.448
11266TIP3    H133739   1.046   3.788   0.452
11266TIP3    H233740   1.185   3.846   0.467
11267TIP3   OH233741   3.648   5.186   1.488
11267TIP3    H133742   3.653   5.231   1.404
11267TIP3    H233743   3.611   5.251   1.548
11268TIP3   OH233744   4.544   3.538   4.789
11268TIP3    H133745   4.597   3.460   4.773
11268TIP3    H233746   4.536   3.580   4.703
11269TIP3   OH233747   7.090   5.293   3.335
11269TIP3    H133748   7.028   5.353   3.377
11269TIP3    H233749   7.143   5.259   3.408
11270TIP3   OH233750   4.474   1.387   1.571
11270TIP3    H133751   4.431   1.302   1.571
11270TIP3    H233752   4.420   1.441   1.513
11271TIP3   OH233753   8.098   1.105   1.477
11271TIP3    H133754   8.149   1.172   1.431
11271TIP3    H233755   8.089   1.138   1.566
11272TIP3   OH233756   2.232   5.985   5.275
11272TIP3    H133757   2.186   5.921   5.221
11272TIP3    H233758   2.299   6.021   5.217
11273TIP3   OH233759   2.912   2.163   0.729
11273TIP3    H133760   2.936   2.136   0.641
11273TIP3    H233761   2.821   2.135   0.739
11274TIP3   OH233762   5.547   1.052   5.268
11274TIP3    H133763   5.628   1.002   5.268
11274TIP3    H233764   5.479   0.989   5.244
11275TIP3   OH233765   1.819   0.207   2.689
11275TIP3    H133766   1.841   0.298   2.712
11275TIP3    H233767   1.741   0.215   2.635
11276TIP3   OH233768   5.327   3.621   6.240
11276TIP3    H133769   5.396   3.662   6.293
11276TIP3    H233770   5.255   3.684   6.242
11277TIP3   OH233771   0.807   2.376   0.118
11277TIP3    H133772   0.810   2.295   0.169
11277TIP3    H233773   0.870   2.362   0.047
11278TIP3   OH233774   3.612   0.674   4.844
11278TIP3    H133775   3.634   0.679   4.937
11278TIP3    H233776   3.533   0.727   4.834
11279TIP3   OH233777   2.337   7.491   4.723
11279TIP3    H133778   2.417   7.449   4.756
11279TIP3    H233779   2.267   7.452   4.776
11280TIP3   OH233780   1.592   6.949   6.457
11280TIP3    H133781   1.645   7.015   6.413
11280TIP3    H233782   1.600   6.969   6.550
11281TIP3   OH233783   7.658   0.372   1.365
11281TIP3    H133784   7.753   0.383   1.377
11281TIP3    H233785   7.619   0.443   1.417
11282TIP3   OH233786   0.082   4.674   1.922
11282TIP3    H133787   0.050   4.588   1.896
11282TIP3    H233788   0.004   4.720   1.954
11283TIP3   OH233789   1.560   2.354   0.027
11283TIP3    H133790   1.648   2.346   0.063
11283TIP3    H233791   1.573   2.367  -0.067
11284TIP3   OH233792   4.147   3.723   1.872
11284TIP3    H133793   4.211   3.653   1.859
11284TIP3    H233794   4.148   3.771   1.789
11285TIP3   OH233795   4.001   0.571   5.923
11285TIP3    H133796   3.937   0.555   5.854
11285TIP3    H233797   4.070   0.621   5.880
11286TIP3   OH233798   5.030   3.924   3.832
11286TIP3    H133799   5.003   3.938   3.923
11286TIP3    H233800   5.055   4.011   3.800
11287TIP3   OH233801   0.948   5.914   2.684
11287TIP3    H133802   0.940   6.008   2.696
11287TIP3    H233803   1.020   5.903   2.622
11288TIP3   OH233804   3.281   1.940   5.846
11288TIP3    H133805   3.259   1.913   5.935
11288TIP3    H233806   3.266   2.034   5.845
11289TIP3   OH233807   7.354   5.577   2.317
11289TIP3    H133808   7.362   5.534   2.402
11289TIP3    H233809   7.295   5.651   2.333
11290TIP3   OH233810   8.266   4.757   2.986
11290TIP3    H133811   8.239   4.674   3.024
11290TIP3    H233812   8.319   4.733   2.909
11291TIP3   OH233813   0.888   4.960   5.579
11291TIP3    H133814   0.935   5.038   5.610
11291TIP3    H233815   0.796   4.977   5.599
11292TIP3   OH233816   6.625   6.811   2.216
11292TIP3    H133817   6.549   6.776   2.169
11292TIP3    H233818   6.665   6.872   2.154
11293TIP3   OH233819   0.263   6.415   3.740
11293TIP3    H133820   0.312   6.389   3.818
11293TIP3    H233821   0.292   6.504   3.722
11294TIP3   OH233822   0.680   2.217   4.228
11294TIP3    H133823   0.769   2.197   4.201
11294TIP3    H233824   0.624   2.165   4.170
11295TIP3   OH233825   0.522   7.523   3.469
11295TIP3    H133826   0.546   7.530   3.562
11295TIP3    H233827   0.495   7.432   3.458
11296TIP3   OH233828   6.247   6.771   5.055
11296TIP3    H133829   6.249   6.824   5.135
11296TIP3    H233830   6.207   6.828   4.989
11297TIP3   OH233831   1.264   6.686   0.325
11297TIP3    H133832   1.304   6.650   0.246
11297TIP3    H233833   1.271   6.617   0.390
11298TIP3   OH233834   5.673   7.075   5.419
11298TIP3    H133835   5.607   7.132   5.458
11298TIP3    H233836   5.637   6.987   5.429
11299TIP3   OH233837   2.680   3.709   4.009
11299TIP3    H133838   2.645   3.739   3.925
11299TIP3    H233839   2.602   3.694   4.063
11300TIP3   OH233840   1.340   4.510   0.154
11300TIP3    H133841   1.433   4.528   0.148
11300TIP3    H233842   1.334   4.435   0.213
11301TIP3   OH233843   0.860   0.206   0.692
11301TIP3    H133844   0.914   0.128   0.678
11301TIP3    H233845   0.774   0.172   0.717
11302TIP3   OH233846   4.997   7.423   0.726
11302TIP3    H133847   5.023   7.493   0.785
11302TIP3    H233848   4.928   7.462   0.671
11303TIP3   OH233849   0.466   2.970   6.354
11303TIP3    H133850   0.547   2.922   6.337
11303TIP3    H233851   0.476   3.002   6.444
11304TIP3   OH233852   8.325   3.339   0.393
11304TIP3    H133853   8.300   3.286   0.469
11304TIP3    H233854   8.292   3.290   0.318
11305TIP3   OH233855   7.914   0.905   2.198
11305TIP3    H133856   7.888   0.956   2.121
11305TIP3    H233857   7.930   0.971   2.266
11306TIP3   OH233858   1.695   2.056   4.938
11306TIP3    H133859   1.653   2.069   4.853
11306TIP3    H233860   1.624   2.066   5.002
11307TIP3   OH233861   6.970   0.382   2.935
11307TIP3    H133862   7.046   0.346   2.980
11307TIP3    H233863   6.913   0.307   2.920
11308TIP3   OH233864   0.169   2.955   0.146
11308TIP3    H133865   0.086   2.928   0.186
11308TIP3    H233866   0.154   3.047   0.121
11309TIP3   OH233867   4.306   6.084   0.977
11309TIP3    H133868   4.346   6.000   0.998
11309TIP3    H233869   4.231   6.061   0.922
11310TIP3   OH233870   7.653   2.298   2.071
11310TIP3    H133871   7.697   2.288   1.986
11310TIP3    H233872   7.648   2.392   2.084
11311TIP3   OH233873   2.244   5.515   1.619
11311TIP3    H133874   2.247   5.449   1.688
11311TIP3    H233875   2.181   5.580   1.651
11312TIP3   OH233876   5.163   7.312   2.541
11312TIP3    H133877   5.188   7.242   2.481
11312TIP3    H233878   5.154   7.390   2.485
11313TIP3   OH233879   8.332   2.712   0.695
11313TIP3    H133880   8.428   2.713   0.689
11313TIP3    H233881   8.314   2.686   0.785
11314TIP3   OH233882   4.869   1.373   5.026
11314TIP3    H133883   4.850   1.465   5.047
11314TIP3    H233884   4.832   1.324   5.100
11315TIP3   OH233885   2.551   1.140   3.024
11315TIP3    H133886   2.572   1.218   2.972
11315TIP3    H233887   2.477   1.167   3.078
11316TIP3   OH233888   5.041   0.982   0.081
11316TIP3    H133889   5.017   1.074   0.071
11316TIP3    H233890   4.979   0.934   0.026
11317TIP3   OH233891   6.443   5.005   6.507
11317TIP3    H133892   6.501   5.078   6.487
11317TIP3    H233893   6.501   4.929   6.514
11318TIP3   OH233894   7.817   4.508   1.939
11318TIP3    H133895   7.771   4.491   1.857
11318TIP3    H233896   7.899   4.550   1.913
11319TIP3   OH233897   0.818   6.397   3.972
11319TIP3    H133898   0.857   6.321   3.928
11319TIP3    H233899   0.724   6.379   3.973
11320TIP3   OH233900   0.406   6.761   0.039
11320TIP3    H133901   0.492   6.731   0.068
11320TIP3    H233902   0.344   6.700   0.077
11321TIP3   OH233903   3.244   6.985   0.487
11321TIP3    H133904   3.198   6.924   0.544
11321TIP3    H233905   3.197   6.981   0.404
11322TIP3   OH233906   7.081   7.097   4.593
11322TIP3    H133907   6.994   7.071   4.563
11322TIP3    H233908   7.102   7.034   4.661
11323TIP3   OH233909   4.247   6.644   1.055
11323TIP3    H133910   4.231   6.551   1.039
11323TIP3    H233911   4.333   6.647   1.098
11324TIP3   OH233912   2.767   5.506   0.092
11324TIP3    H133913   2.691   5.456   0.120
11324TIP3    H233914   2.751   5.595   0.125
11325TIP3   OH233915   1.021   6.167   1.852
11325TIP3    H133916   0.976   6.096   1.806
11325TIP3    H233917   1.106   6.129   1.876
11326TIP3   OH233918   2.442   1.635   4.570
11326TIP3    H133919   2.490   1.572   4.517
11326TIP3    H233920   2.377   1.581   4.618
11327TIP3   OH233921   3.403   0.218   6.680
11327TIP3    H133922   3.366   0.130   6.670
11327TIP3    H233923   3.348   0.273   6.626
11328TIP3   OH233924   6.030   6.760   6.570
11328TIP3    H133925   6.060   6.738   6.658
11328TIP3    H233926   5.974   6.836   6.582
11329TIP3   OH233927   5.682   5.057   0.351
11329TIP3    H133928   5.680   5.095   0.439
11329TIP3    H233929   5.691   4.963   0.366
11330TIP3   OH233930   1.809   4.458   0.350
11330TIP3    H133931   1.868   4.384   0.335
11330TIP3    H233932   1.863   4.535   0.334
11331TIP3   OH233933   6.983   3.270   1.815
11331TIP3    H133934   7.039   3.325   1.870
11331TIP3    H233935   7.032   3.259   1.734
11332TIP3   OH233936   2.885   1.472   0.546
11332TIP3    H133937   2.898   1.485   0.640
11332TIP3    H233938   2.834   1.391   0.539
11333TIP3   OH233939   4.644   2.481   0.380
11333TIP3    H133940   4.595   2.544   0.328
11333TIP3    H233941   4.689   2.534   0.446
11334TIP3   OH233942   3.561   4.667   2.280
11334TIP3    H133943   3.596   4.603   2.342
11334TIP3    H233944   3.578   4.630   2.194
11335TIP3   OH233945   0.420   3.055   2.458
11335TIP3    H133946   0.508   3.031   2.488
11335TIP3    H233947   0.434   3.129   2.399
11336TIP3   OH233948   5.136   3.903   6.196
11336TIP3    H133949   5.104   3.849   6.123
11336TIP3    H233950   5.057   3.924   6.245
11337TIP3   OH233951   0.522   2.117   5.233
11337TIP3    H133952   0.510   2.114   5.328
11337TIP3    H233953   0.577   2.040   5.214
11338TIP3   OH233954   7.928   5.453   1.091
11338TIP3    H133955   7.923   5.546   1.068
11338TIP3    H233956   8.002   5.419   1.040
11339TIP3   OH233957   3.664   6.723   6.296
11339TIP3    H133958   3.735   6.661   6.314
11339TIP3    H233959   3.598   6.704   6.363
11340TIP3   OH233960   3.833   6.273   6.830
11340TIP3    H133961   3.845   6.194   6.882
11340TIP3    H233962   3.901   6.267   6.762
11341TIP3   OH233963   6.056   2.214   6.538
11341TIP3    H133964   6.062   2.176   6.450
11341TIP3    H233965   6.124   2.170   6.588
11342TIP3   OH233966   5.382   6.758   1.540
11342TIP3    H133967   5.442   6.705   1.489
11342TIP3    H233968   5.328   6.695   1.587
11343TIP3   OH233969   0.868   6.010   1.707
11343TIP3    H133970   0.892   5.933   1.656
11343TIP3    H233971   0.780   5.990   1.740
11344TIP3   OH233972   7.958   3.491   6.513
11344TIP3    H133973   8.014   3.464   6.440
11344TIP3    H233974   8.019   3.510   6.584
11345TIP3   OH233975   4.194   0.929   0.790
11345TIP3    H133976   4.127   0.972   0.738
11345TIP3    H233977   4.145   0.877   0.854
11346TIP3   OH233978   6.684   6.853   6.013
11346TIP3    H133979   6.726   6.787   5.958
11346TIP3    H233980   6.593   6.825   6.018
11347TIP3   OH233981   7.589   0.674   0.948
11347TIP3    H133982   7.638   0.632   1.019
11347TIP3    H233983   7.655   0.725   0.901
11348TIP3   OH233984   6.925   4.718   1.624
11348TIP3    H133985   7.004   4.682   1.583
11348TIP3    H233986   6.955   4.752   1.708
11349TIP3   OH233987   7.478   4.917   2.310
11349TIP3    H133988   7.552   4.977   2.313
11349TIP3    H233989   7.486   4.865   2.390
11350TIP3   OH233990   4.513   6.099   1.711
11350TIP3    H133991   4.574   6.033   1.744
11350TIP3    H233992   4.426   6.066   1.735
11351TIP3   OH233993   6.702   3.302   4.045
11351TIP3    H133994   6.686   3.378   4.101
11351TIP3    H233995   6.615   3.264   4.031
11352TIP3   OH233996   2.028   5.268   6.034
11352TIP3    H133997   2.062   5.266   5.944
11352TIP3    H233998   1.961   5.336   6.033
11353TIP3   OH233999   1.752   1.699   0.209
11353TIP3    H134000   1.817   1.659   0.150
11353TIP3    H234001   1.699   1.754   0.152
11354TIP3   OH234002   0.582   0.582   0.278
11354TIP3    H134003   0.541   0.608   0.360
11354TIP3    H234004   0.607   0.491   0.291
11355TIP3   OH234005   2.649   1.797   6.568
11355TIP3    H134006   2.708   1.777   6.495
11355TIP3    H234007   2.614   1.884   6.548
11356TIP3   OH234008   6.441   3.555   3.864
11356TIP3    H134009   6.490   3.490   3.914
11356TIP3    H234010   6.457   3.638   3.910
11357TIP3   OH234011   7.993   4.047   5.084
11357TIP3    H134012   8.033   4.055   5.170
11357TIP3    H234013   7.901   4.027   5.101
11358TIP3   OH234014   0.021   5.477   1.519
11358TIP3    H134015   0.056   5.474   1.430
11358TIP3    H234016   0.099   5.471   1.575
11359TIP3   OH234017   6.072   5.730   3.832
11359TIP3    H134018   6.027   5.786   3.770
11359TIP3    H234019   6.072   5.779   3.914
11360TIP3   OH234020   7.782   1.021   1.997
11360TIP3    H134021   7.798   0.970   1.917
11360TIP3    H234022   7.801   1.111   1.972
11361TIP3   OH234023   5.765   5.339   2.037
11361TIP3    H134024   5.809   5.423   2.025
11361TIP3    H234025   5.814   5.278   1.981
11362TIP3   OH234026   4.746   6.900   5.847
11362TIP3    H134027   4.735   6.993   5.868
11362TIP3    H234028   4.767   6.899   5.754
11363TIP3   OH234029  -0.003   6.861   2.385
11363TIP3    H134030  -0.047   6.794   2.438
11363TIP3    H234031   0.076   6.882   2.433
11364TIP3   OH234032   4.137   7.382   4.701
11364TIP3    H134033   4.122   7.316   4.769
11364TIP3    H234034   4.203   7.344   4.644
11365TIP3   OH234035   4.387   5.777   4.937
11365TIP3    H134036   4.453   5.756   5.003
11365TIP3    H234037   4.399   5.871   4.920
11366TIP3   OH234038   2.710   5.450   2.850
11366TIP3    H134039   2.656   5.479   2.924
11366TIP3    H234040   2.693   5.515   2.781
11367TIP3   OH234041   5.199   4.715   1.745
11367TIP3    H134042   5.107   4.688   1.752
11367TIP3    H234043   5.195   4.810   1.738
11368TIP3   OH234044   1.022   0.353   1.924
11368TIP3    H134045   0.954   0.321   1.983
11368TIP3    H234046   1.053   0.434   1.965
11369TIP3   OH234047   0.028   2.832   4.437
11369TIP3    H134048   0.116   2.834   4.475
11369TIP3    H234049  -0.028   2.799   4.507
11370TIP3   OH234050   5.181   2.218   4.165
11370TIP3    H134051   5.089   2.234   4.187
11370TIP3    H234052   5.190   2.123   4.165
11371TIP3   OH234053   3.362   2.274   1.188
11371TIP3    H134054   3.288   2.218   1.163
11371TIP3    H234055   3.344   2.358   1.144
11372TIP3   OH234056   1.728   5.161   6.144
11372TIP3    H134057   1.795   5.187   6.206
11372TIP3    H234058   1.768   5.090   6.094
11373TIP3   OH234059   1.870   7.212   6.650
11373TIP3    H134060   1.808   7.141   6.663
11373TIP3    H234061   1.832   7.286   6.696
11374TIP3   OH234062   3.369   6.475   3.113
11374TIP3    H134063   3.400   6.526   3.038
11374TIP3    H234064   3.448   6.438   3.152
11375TIP3   OH234065   3.228   4.826   2.423
11375TIP3    H134066   3.251   4.802   2.513
11375TIP3    H234067   3.242   4.921   2.419
11376TIP3   OH234068   1.665   3.248   4.534
11376TIP3    H134069   1.591   3.188   4.543
11376TIP3    H234070   1.689   3.270   4.624
11377TIP3   OH234071   5.104   5.821   0.333
11377TIP3    H134072   5.028   5.803   0.388
11377TIP3    H234073   5.067   5.865   0.256
11378TIP3   OH234074   3.082   5.585   1.517
11378TIP3    H134075   2.999   5.547   1.546
11378TIP3    H234076   3.130   5.512   1.480
11379TIP3   OH234077   0.372   7.025   2.125
11379TIP3    H134078   0.278   7.007   2.130
11379TIP3    H234079   0.403   7.017   2.215
11380TIP3   OH234080   2.893   1.804   5.304
11380TIP3    H134081   2.808   1.773   5.273
11380TIP3    H234082   2.925   1.861   5.234
11381TIP3   OH234083   3.070   4.130   5.133
11381TIP3    H134084   3.021   4.092   5.207
11381TIP3    H234085   3.124   4.198   5.173
11382TIP3   OH234086   7.884   6.993   3.304
11382TIP3    H134087   7.955   6.964   3.362
11382TIP3    H234088   7.821   6.921   3.307
11383TIP3   OH234089   7.331   1.403   2.601
11383TIP3    H134090   7.316   1.315   2.635
11383TIP3    H234091   7.288   1.403   2.515
11384TIP3   OH234092   0.051   5.920   3.097
11384TIP3    H134093   0.066   6.010   3.126
11384TIP3    H234094   0.107   5.866   3.152
11385TIP3   OH234095   3.913   4.709   4.904
11385TIP3    H134096   3.820   4.706   4.882
11385TIP3    H234097   3.956   4.656   4.837
11386TIP3   OH234098   4.893   7.595   2.949
11386TIP3    H134099   4.828   7.613   2.881
11386TIP3    H234100   4.928   7.509   2.927
11387TIP3   OH234101   2.385   5.920   2.227
11387TIP3    H134102   2.443   5.925   2.302
11387TIP3    H234103   2.306   5.878   2.260
11388TIP3   OH234104   1.577   2.289   0.848
11388TIP3    H134105   1.628   2.331   0.917
11388TIP3    H234106   1.575   2.197   0.873
11389TIP3   OH234107   7.441   3.952   6.215
11389TIP3    H134108   7.397   3.885   6.163
11389TIP3    H234109   7.486   4.006   6.151
11390TIP3   OH234110   0.783   1.141   3.503
11390TIP3    H134111   0.783   1.051   3.471
11390TIP3    H234112   0.742   1.137   3.589
11391TIP3   OH234113   7.263   4.900   4.648
11391TIP3    H134114   7.228   4.894   4.737
11391TIP3    H234115   7.267   4.810   4.617
11392TIP3   OH234116   0.263   3.789   2.634
11392TIP3    H134117   0.177   3.753   2.652
11392TIP3    H234118   0.246   3.875   2.594
11393TIP3   OH234119   7.226   6.756   4.450
11393TIP3    H134120   7.262   6.725   4.366
11393TIP3    H234121   7.253   6.847   4.456
11394TIP3   OH234122   4.125   6.930   4.161
11394TIP3    H134123   4.171   6.986   4.098
11394TIP3    H234124   4.184   6.856   4.175
11395TIP3   OH234125   4.383   0.156   1.035
11395TIP3    H134126   4.288   0.164   1.044
11395TIP3    H234127   4.398   0.163   0.941
11396TIP3   OH234128   5.444   5.850   6.323
11396TIP3    H134129   5.516   5.913   6.328
11396TIP3    H234130   5.369   5.900   6.291
11397TIP3   OH234131   3.923   4.969   6.531
11397TIP3    H134132   3.897   4.953   6.622
11397TIP3    H234133   3.842   4.962   6.481
11398TIP3   OH234134   0.077   5.232   2.683
11398TIP3    H134135   0.111   5.264   2.600
11398TIP3    H234136   0.018   5.161   2.659
11399TIP3   OH234137   3.194   2.540   5.043
11399TIP3    H134138   3.136   2.465   5.037
11399TIP3    H234139   3.197   2.575   4.953
11400TIP3   OH234140   3.047   2.648   2.674
11400TIP3    H134141   3.039   2.742   2.662
11400TIP3    H234142   3.004   2.630   2.757
11401TIP3   OH234143   3.356   6.784   3.588
11401TIP3    H134144   3.416   6.820   3.653
11401TIP3    H234145   3.377   6.829   3.507
11402TIP3   OH234146   3.917   1.894   3.336
11402TIP3    H134147   3.834   1.896   3.288
11402TIP3    H234148   3.952   1.806   3.319
11403TIP3   OH234149   1.133   4.930   5.232
11403TIP3    H134150   1.127   4.866   5.161
11403TIP3    H234151   1.045   4.933   5.269
11404TIP3   OH234152   3.218   0.375   4.870
11404TIP3    H134153   3.168   0.445   4.911
11404TIP3    H234154   3.302   0.416   4.847
11405TIP3   OH234155   7.690   7.283   1.859
11405TIP3    H134156   7.682   7.301   1.953
11405TIP3    H234157   7.646   7.356   1.816
11406TIP3   OH234158   0.713   0.770   2.916
11406TIP3    H134159   0.636   0.724   2.951
11406TIP3    H234160   0.694   0.862   2.931
11407TIP3   OH234161   5.068   2.634   6.749
11407TIP3    H134162   5.038   2.578   6.677
11407TIP3    H234163   5.079   2.720   6.710
11408TIP3   OH234164   3.173   6.122   2.260
11408TIP3    H134165   3.256   6.127   2.308
11408TIP3    H234166   3.115   6.181   2.308
11409TIP3   OH234167   0.525   3.612   5.097
11409TIP3    H134168   0.442   3.569   5.079
11409TIP3    H234169   0.585   3.541   5.120
11410TIP3   OH234170   4.468   5.100   3.842
11410TIP3    H134171   4.512   5.084   3.925
11410TIP3    H234172   4.376   5.080   3.860
11411TIP3   OH234173   4.770   1.543   0.645
11411TIP3    H134174   4.712   1.467   0.630
11411TIP3    H234175   4.855   1.514   0.613
11412TIP3   OH234176   1.121   1.118   5.297
11412TIP3    H134177   1.104   1.201   5.342
11412TIP3    H234178   1.212   1.097   5.319
11413TIP3   OH234179   5.101   7.134   0.317
11413TIP3    H134180   5.031   7.079   0.283
11413TIP3    H234181   5.171   7.072   0.341
11414TIP3   OH234182   6.404   4.668   0.537
11414TIP3    H134183   6.439   4.706   0.456
11414TIP3    H234184   6.482   4.641   0.586
11415TIP3   OH234185   3.426   5.088   4.489
11415TIP3    H134186   3.511   5.072   4.447
11415TIP3    H234187   3.437   5.054   4.578
11416TIP3   OH234188   4.196   1.688   0.973
11416TIP3    H134189   4.267   1.753   0.972
11416TIP3    H234190   4.241   1.604   0.978
11417TIP3   OH234191   3.912   4.371   5.753
11417TIP3    H134192   3.902   4.458   5.713
11417TIP3    H234193   4.007   4.356   5.753
11418TIP3   OH234194   0.426   0.325   2.200
11418TIP3    H134195   0.430   0.364   2.113
11418TIP3    H234196   0.400   0.398   2.257
11419TIP3   OH234197   5.091   1.811   3.277
11419TIP3    H134198   5.094   1.716   3.268
11419TIP3    H234199   5.070   1.843   3.190
11420TIP3   OH234200   7.424   7.001   4.801
11420TIP3    H134201   7.461   6.913   4.811
11420TIP3    H234202   7.330   6.986   4.789
11421TIP3   OH234203   6.977   7.290   3.955
11421TIP3    H134204   7.020   7.207   3.935
11421TIP3    H234205   7.045   7.343   3.996
11422TIP3   OH234206   1.007   5.418   6.658
11422TIP3    H134207   1.025   5.324   6.660
11422TIP3    H234208   0.975   5.434   6.569
11423TIP3   OH234209   1.656   3.389   0.672
11423TIP3    H134210   1.730   3.417   0.619
11423TIP3    H234211   1.614   3.470   0.701
11424TIP3   OH234212   6.841   1.600   3.764
11424TIP3    H134213   6.794   1.668   3.812
11424TIP3    H234214   6.929   1.601   3.800
11425TIP3   OH234215   1.804   7.844   1.663
11425TIP3    H134216   1.864   7.796   1.720
11425TIP3    H234217   1.718   7.806   1.681
11426TIP3   OH234218   0.815   2.348   5.213
11426TIP3    H134219   0.815   2.331   5.307
11426TIP3    H234220   0.856   2.270   5.175
11427TIP3   OH234221   0.924   7.390   1.411
11427TIP3    H134222   0.839   7.383   1.455
11427TIP3    H234223   0.987   7.390   1.483
11428TIP3   OH234224   0.810   4.671   5.208
11428TIP3    H134225   0.726   4.684   5.163
11428TIP3    H234226   0.833   4.758   5.242
11429TIP3   OH234227   0.946   0.820   1.646
11429TIP3    H134228   1.000   0.899   1.639
11429TIP3    H234229   1.009   0.749   1.655
11430TIP3   OH234230   5.723   4.245   3.456
11430TIP3    H134231   5.727   4.269   3.364
11430TIP3    H234232   5.705   4.328   3.502
11431TIP3   OH234233   4.474   1.781   0.529
11431TIP3    H134234   4.390   1.827   0.520
11431TIP3    H234235   4.456   1.692   0.499
11432TIP3   OH234236   4.509   4.822   1.271
11432TIP3    H134237   4.591   4.868   1.287
11432TIP3    H234238   4.501   4.819   1.176
11433TIP3   OH234239   5.657   4.392   0.490
11433TIP3    H134240   5.645   4.297   0.485
11433TIP3    H234241   5.716   4.413   0.417
11434TIP3   OH234242   0.160   7.225   1.076
11434TIP3    H134243   0.066   7.215   1.061
11434TIP3    H234244   0.167   7.273   1.159
11435TIP3   OH234245   8.119   4.864   2.265
11435TIP3    H134246   8.200   4.912   2.245
11435TIP3    H234247   8.144   4.772   2.256
11436TIP3   OH234248   6.592   7.453   1.312
11436TIP3    H134249   6.505   7.440   1.350
11436TIP3    H234250   6.577   7.513   1.239
11437TIP3   OH234251   0.805   3.052   4.279
11437TIP3    H134252   0.876   3.061   4.342
11437TIP3    H234253   0.738   3.114   4.308
11438TIP3   OH234254   5.603   5.323   2.687
11438TIP3    H134255   5.670   5.390   2.672
11438TIP3    H234256   5.592   5.321   2.782
11439TIP3   OH234257   0.309   4.427   4.139
11439TIP3    H134258   0.397   4.423   4.174
11439TIP3    H234259   0.309   4.367   4.065
11440TIP3   OH234260   8.320   4.000   2.746
11440TIP3    H134261   8.368   4.053   2.682
11440TIP3    H234262   8.374   3.922   2.756
11441TIP3   OH234263   3.204   3.480   5.714
11441TIP3    H134264   3.262   3.404   5.719
11441TIP3    H234265   3.168   3.489   5.802
11442TIP3   OH234266   6.204   7.120   5.459
11442TIP3    H134267   6.108   7.119   5.469
11442TIP3    H234268   6.225   7.033   5.424
11443TIP3   OH234269   4.819   2.697   3.331
11443TIP3    H134270   4.808   2.636   3.404
11443TIP3    H234271   4.851   2.777   3.372
11444TIP3   OH234272   6.288   3.490   4.321
11444TIP3    H134273   6.236   3.547   4.264
11444TIP3    H234274   6.258   3.510   4.410
11445TIP3   OH234275   5.836   4.830   5.782
11445TIP3    H134276   5.910   4.874   5.740
11445TIP3    H234277   5.759   4.874   5.746
11446TIP3   OH234278   3.154   7.866   6.752
11446TIP3    H134279   3.092   7.872   6.679
11446TIP3    H234280   3.154   7.954   6.790
11447TIP3   OH234281   4.329   6.628   6.838
11447TIP3    H134282   4.249   6.576   6.834
11447TIP3    H234283   4.299   6.719   6.833
11448TIP3   OH234284   7.993   0.219   2.994
11448TIP3    H134285   7.952   0.276   3.059
11448TIP3    H234286   7.921   0.164   2.961
11449TIP3   OH234287   0.740   0.700   3.241
11449TIP3    H134288   0.684   0.623   3.236
11449TIP3    H234289   0.823   0.672   3.201
11450TIP3   OH234290   4.618   3.855   1.917
11450TIP3    H134291   4.576   3.824   1.997
11450TIP3    H234292   4.569   3.934   1.893
11451TIP3   OH234293   7.869   2.746   0.428
11451TIP3    H134294   7.952   2.759   0.473
11451TIP3    H234295   7.803   2.775   0.490
11452TIP3   OH234296   7.583   6.625   0.580
11452TIP3    H134297   7.604   6.632   0.487
11452TIP3    H234298   7.640   6.689   0.622
11453TIP3   OH234299   7.257   5.567   4.049
11453TIP3    H134300   7.290   5.593   4.136
11453TIP3    H234301   7.207   5.487   4.065
11454TIP3   OH234302   3.511   2.034   0.114
11454TIP3    H134303   3.567   2.078   0.179
11454TIP3    H234304   3.518   2.088   0.036
11455TIP3   OH234305   4.683   7.465   5.390
11455TIP3    H134306   4.736   7.446   5.313
11455TIP3    H234307   4.745   7.462   5.463
11456TIP3   OH234308   5.519   1.327   2.813
11456TIP3    H134309   5.584   1.396   2.797
11456TIP3    H234310   5.454   1.369   2.869
11457TIP3   OH234311   8.172   3.130   4.562
11457TIP3    H134312   8.118   3.163   4.633
11457TIP3    H234313   8.259   3.118   4.600
11458TIP3   OH234314   1.385   2.685   3.995
11458TIP3    H134315   1.480   2.691   4.003
11458TIP3    H234316   1.358   2.772   3.964
11459TIP3   OH234317   2.152   3.609   4.466
11459TIP3    H134318   2.059   3.622   4.482
11459TIP3    H234319   2.180   3.547   4.534
11460TIP3   OH234320   6.684   7.338   3.373
11460TIP3    H134321   6.632   7.271   3.418
11460TIP3    H234322   6.772   7.301   3.368
11461TIP3   OH234323   3.927   1.830   5.250
11461TIP3    H134324   3.867   1.757   5.231
11461TIP3    H234325   3.871   1.898   5.287
11462TIP3   OH234326   5.932   0.502   6.376
11462TIP3    H134327   6.027   0.495   6.386
11462TIP3    H234328   5.910   0.587   6.416
11463TIP3   OH234329   0.264   1.736   2.984
11463TIP3    H134330   0.200   1.807   2.985
11463TIP3    H234331   0.233   1.674   3.050
11464TIP3   OH234332   8.148   4.088   5.315
11464TIP3    H134333   8.156   4.118   5.405
11464TIP3    H234334   8.239   4.081   5.284
11465TIP3   OH234335   5.338   4.460   6.048
11465TIP3    H134336   5.425   4.452   6.086
11465TIP3    H234337   5.319   4.373   6.013
11466TIP3   OH234338   6.665   0.706   0.721
11466TIP3    H134339   6.589   0.746   0.678
11466TIP3    H234340   6.730   0.697   0.651
11467TIP3   OH234341   2.393   1.644   0.186
11467TIP3    H134342   2.343   1.609   0.260
11467TIP3    H234343   2.478   1.601   0.191
11468TIP3   OH234344   5.390   0.158   0.409
11468TIP3    H134345   5.327   0.140   0.339
11468TIP3    H234346   5.352   0.116   0.487
11469TIP3   OH234347   1.727   2.074   1.833
11469TIP3    H134348   1.729   2.063   1.738
11469TIP3    H234349   1.813   2.109   1.856
11470TIP3   OH234350   2.506   6.685   6.162
11470TIP3    H134351   2.412   6.667   6.165
11470TIP3    H234352   2.523   6.709   6.071
11471TIP3   OH234353   1.230   5.603   6.187
11471TIP3    H134354   1.311   5.575   6.145
11471TIP3    H234355   1.247   5.594   6.281
11472TIP3   OH234356   0.850   0.828   5.301
11472TIP3    H134357   0.771   0.797   5.345
11472TIP3    H234358   0.825   0.912   5.264
11473TIP3   OH234359   3.054   7.800   5.664
11473TIP3    H134360   2.967   7.760   5.665
11473TIP3    H234361   3.042   7.885   5.705
11474TIP3   OH234362   7.443   4.322   5.644
11474TIP3    H134363   7.355   4.318   5.682
11474TIP3    H234364   7.459   4.416   5.631
11475TIP3   OH234365   3.134   1.508   6.028
11475TIP3    H134366   3.055   1.562   6.029
11475TIP3    H234367   3.116   1.436   6.088
11476TIP3   OH234368   7.379   0.507   0.413
11476TIP3    H134369   7.339   0.584   0.373
11476TIP3    H234370   7.332   0.496   0.497
11477TIP3   OH234371   3.336   3.240   6.545
11477TIP3    H134372   3.350   3.332   6.524
11477TIP3    H234373   3.398   3.221   6.616
11478TIP3   OH234374   7.536   2.790   1.153
11478TIP3    H134375   7.596   2.749   1.215
11478TIP3    H234376   7.491   2.716   1.112
11479TIP3   OH234377   3.571   5.694   6.377
11479TIP3    H134378   3.639   5.626   6.375
11479TIP3    H234379   3.583   5.737   6.462
11480TIP3   OH234380   1.606   3.230   3.132
11480TIP3    H134381   1.688   3.279   3.137
11480TIP3    H234382   1.547   3.274   3.192
11481TIP3   OH234383   3.905   1.912   2.827
11481TIP3    H134384   3.885   1.968   2.752
11481TIP3    H234385   3.838   1.844   2.824
11482TIP3   OH234386   8.230   7.253   3.203
11482TIP3    H134387   8.303   7.307   3.172
11482TIP3    H234388   8.207   7.291   3.288
11483TIP3   OH234389   0.811   1.833   2.614
11483TIP3    H134390   0.824   1.783   2.694
11483TIP3    H234391   0.806   1.768   2.545
11484TIP3   OH234392   2.734   0.219   2.366
11484TIP3    H134393   2.713   0.293   2.423
11484TIP3    H234394   2.809   0.177   2.408
11485TIP3   OH234395   0.349   1.941   4.715
11485TIP3    H134396   0.320   1.875   4.652
11485TIP3    H234397   0.430   1.905   4.751
11486TIP3   OH234398   0.761   0.844   6.337
11486TIP3    H134399   0.704   0.836   6.413
11486TIP3    H234400   0.706   0.818   6.263
11487TIP3   OH234401   7.033   7.645   5.072
11487TIP3    H134402   6.981   7.570   5.102
11487TIP3    H234403   7.123   7.614   5.073
11488TIP3   OH234404   3.038   2.239   5.246
11488TIP3    H134405   3.003   2.209   5.329
11488TIP3    H234406   3.054   2.158   5.196
11489TIP3   OH234407   4.905   0.355   4.130
11489TIP3    H134408   4.990   0.312   4.145
11489TIP3    H234409   4.917   0.444   4.161
11490TIP3   OH234410   0.254   4.671   4.033
11490TIP3    H134411   0.207   4.729   4.093
11490TIP3    H234412   0.269   4.591   4.084
11491TIP3   OH234413   6.242   3.859   4.979
11491TIP3    H134414   6.308   3.793   4.960
11491TIP3    H234415   6.195   3.824   5.055
11492TIP3   OH234416   0.197   2.506   5.299
11492TIP3    H134417   0.199   2.542   5.210
11492TIP3    H234418   0.211   2.412   5.287
11493TIP3   OH234419   6.306   3.402   5.563
11493TIP3    H134420   6.391   3.359   5.551
11493TIP3    H234421   6.284   3.387   5.654
11494TIP3   OH234422   0.847   7.553   6.193
11494TIP3    H134423   0.870   7.535   6.284
11494TIP3    H234424   0.852   7.468   6.150
11495TIP3   OH234425   5.952   3.510   0.092
11495TIP3    H134426   5.922   3.522   0.182
11495TIP3    H234427   6.000   3.590   0.072
11496TIP3   OH234428   4.029   0.445   3.955
11496TIP3    H134429   3.991   0.486   4.033
11496TIP3    H234430   4.081   0.372   3.989
11497TIP3   OH234431   2.999   1.082   3.866
11497TIP3    H134432   2.994   1.178   3.859
11497TIP3    H234433   2.966   1.050   3.783
11498TIP3   OH234434   0.947   4.150   1.334
11498TIP3    H134435   0.962   4.175   1.243
11498TIP3    H234436   0.946   4.054   1.333
11499TIP3   OH234437   0.923   6.209   2.757
11499TIP3    H134438   0.862   6.216   2.831
11499TIP3    H234439   1.008   6.232   2.794
11500TIP3   OH234440   7.717   3.018   5.020
11500TIP3    H134441   7.622   3.019   5.026
11500TIP3    H234442   7.748   2.996   5.108
11501TIP3   OH234443   5.159   7.495   5.356
11501TIP3    H134444   5.130   7.404   5.352
11501TIP3    H234445   5.199   7.504   5.442
11502TIP3   OH234446   2.940   5.140   6.164
11502TIP3    H134447   2.974   5.051   6.173
11502TIP3    H234448   2.880   5.136   6.090
11503TIP3   OH234449   7.470   1.999   6.660
11503TIP3    H134450   7.553   1.987   6.705
11503TIP3    H234451   7.416   2.050   6.721
11504TIP3   OH234452   8.376   0.310   4.486
11504TIP3    H134453   8.288   0.288   4.456
11504TIP3    H234454   8.409   0.229   4.524
11505TIP3   OH234455   3.776   2.975   1.306
11505TIP3    H134456   3.719   3.030   1.359
11505TIP3    H234457   3.750   2.993   1.216
11506TIP3   OH234458   1.950   6.277   0.700
11506TIP3    H134459   1.995   6.213   0.755
11506TIP3    H234460   1.993   6.360   0.718
11507TIP3   OH234461   2.736   7.169   4.040
11507TIP3    H134462   2.818   7.155   3.994
11507TIP3    H234463   2.680   7.215   3.977
11508TIP3   OH234464   7.611   3.401   1.757
11508TIP3    H134465   7.609   3.435   1.668
11508TIP3    H234466   7.542   3.334   1.759
11509TIP3   OH234467   6.633   2.467   0.441
11509TIP3    H134468   6.582   2.503   0.514
11509TIP3    H234469   6.688   2.539   0.411
11510TIP3   OH234470   3.010   3.222   6.232
11510TIP3    H134471   3.024   3.165   6.308
11510TIP3    H234472   2.939   3.280   6.259
11511TIP3   OH234473   0.090   2.372   3.629
11511TIP3    H134474   0.009   2.325   3.648
11511TIP3    H234475   0.079   2.405   3.540
11512TIP3   OH234476   3.547   7.256   3.220
11512TIP3    H134477   3.608   7.185   3.200
11512TIP3    H234478   3.460   7.220   3.202
11513TIP3   OH234479   3.812   4.479   6.667
11513TIP3    H134480   3.877   4.446   6.604
11513TIP3    H234481   3.860   4.544   6.719
11514TIP3   OH234482   2.509   4.324   2.999
11514TIP3    H134483   2.588   4.331   2.945
11514TIP3    H234484   2.475   4.414   3.002
11515TIP3   OH234485   0.460   4.571   3.387
11515TIP3    H134486   0.379   4.520   3.398
11515TIP3    H234487   0.527   4.519   3.432
11516TIP3   OH234488   6.776   7.426   3.818
11516TIP3    H134489   6.822   7.350   3.854
11516TIP3    H234490   6.788   7.494   3.884
11517TIP3   OH234491   4.685   0.888   4.448
11517TIP3    H134492   4.595   0.872   4.420
11517TIP3    H234493   4.718   0.803   4.475
11518TIP3   OH234494   2.782   6.880   0.500
11518TIP3    H134495   2.703   6.910   0.454
11518TIP3    H234496   2.814   6.806   0.448
11519TIP3   OH234497   2.873   6.168   3.073
11519TIP3    H134498   2.855   6.241   3.133
11519TIP3    H234499   2.828   6.093   3.112
11520TIP3   OH234500   7.147   6.422   4.544
11520TIP3    H134501   7.144   6.433   4.449
11520TIP3    H234502   7.240   6.426   4.566
11521TIP3   OH234503   7.393   2.498   2.257
11521TIP3    H134504   7.371   2.421   2.311
11521TIP3    H234505   7.323   2.561   2.275
11522TIP3   OH234506   7.755   4.203   2.771
11522TIP3    H134507   7.731   4.117   2.737
11522TIP3    H234508   7.847   4.214   2.745
11523TIP3   OH234509   1.612   0.807   1.749
11523TIP3    H134510   1.606   0.735   1.687
11523TIP3    H234511   1.522   0.817   1.782
11524TIP3   OH234512   5.154   5.085   3.113
11524TIP3    H134513   5.146   5.041   3.028
11524TIP3    H234514   5.186   5.016   3.172
11525TIP3   OH234515   8.216   3.647   2.526
11525TIP3    H134516   8.133   3.693   2.528
11525TIP3    H234517   8.274   3.703   2.474
11526TIP3   OH234518   4.050   4.783   2.475
11526TIP3    H134519   3.960   4.808   2.457
11526TIP3    H234520   4.054   4.689   2.454
11527TIP3   OH234521   1.164   1.746   5.094
11527TIP3    H134522   1.210   1.774   5.173
11527TIP3    H234523   1.211   1.668   5.065
11528TIP3   OH234524   5.101   3.740   5.976
11528TIP3    H134525   5.120   3.659   5.929
11528TIP3    H234526   5.030   3.781   5.927
11529TIP3   OH234527   3.433   0.189   5.351
11529TIP3    H134528   3.455   0.148   5.267
11529TIP3    H234529   3.463   0.126   5.417
11530TIP3   OH234530   7.125   0.605   3.841
11530TIP3    H134531   7.055   0.611   3.906
11530TIP3    H234532   7.147   0.512   3.839
11531TIP3   OH234533   4.272   1.959   3.090
11531TIP3    H134534   4.310   1.954   3.003
11531TIP3    H234535   4.257   2.053   3.104
11532TIP3   OH234536   3.322   6.017   4.680
11532TIP3    H134537   3.344   6.035   4.772
11532TIP3    H234538   3.227   6.017   4.678
11533TIP3   OH234539   1.922   1.807   2.760
11533TIP3    H134540   1.974   1.743   2.712
11533TIP3    H234541   1.896   1.872   2.694
11534TIP3   OH234542   2.389   3.121   1.384
11534TIP3    H134543   2.447   3.191   1.353
11534TIP3    H234544   2.442   3.072   1.447
11535TIP3   OH234545   6.126   0.681   3.695
11535TIP3    H134546   6.186   0.652   3.627
11535TIP3    H234547   6.145   0.623   3.769
11536TIP3   OH234548   0.057   6.046   5.547
11536TIP3    H134549   0.105   5.990   5.608
11536TIP3    H234550  -0.010   5.989   5.509
11537TIP3   OH234551   7.492   2.132   1.632
11537TIP3    H134552   7.582   2.134   1.598
11537TIP3    H234553   7.480   2.219   1.671
11538TIP3   OH234554   7.020   6.796   3.630
11538TIP3    H134555   6.980   6.872   3.588
11538TIP3    H234556   6.961   6.775   3.702
11539TIP3   OH234557   3.093   4.115   2.875
11539TIP3    H134558   3.184   4.136   2.895
11539TIP3    H234559   3.067   4.180   2.810
11540TIP3   OH234560   3.688   2.173   0.867
11540TIP3    H134561   3.765   2.127   0.899
11540TIP3    H234562   3.646   2.111   0.807
11541TIP3   OH234563   6.199   3.983   2.093
11541TIP3    H134564   6.212   4.046   2.164
11541TIP3    H234565   6.181   3.900   2.138
11542TIP3   OH234566   2.137   6.175   0.305
11542TIP3    H134567   2.220   6.222   0.313
11542TIP3    H234568   2.162   6.088   0.275
11543TIP3   OH234569   0.101   1.093   2.167
11543TIP3    H134570   0.173   1.034   2.191
11543TIP3    H234571   0.049   1.043   2.104
11544TIP3   OH234572   7.003   4.677   2.677
11544TIP3    H134573   7.022   4.654   2.768
11544TIP3    H234574   7.088   4.704   2.641
11545TIP3   OH234575   8.100   0.854   1.261
11545TIP3    H134576   8.093   0.936   1.310
11545TIP3    H234577   8.193   0.845   1.243
11546TIP3   OH234578   0.106   6.274   1.863
11546TIP3    H134579   0.126   6.188   1.827
11546TIP3    H234580   0.152   6.335   1.805
11547TIP3   OH234581   2.346   2.503   3.037
11547TIP3    H134582   2.348   2.480   3.130
11547TIP3    H234583   2.256   2.531   3.022
11548TIP3   OH234584   2.742   6.599   0.399
11548TIP3    H134585   2.811   6.536   0.420
11548TIP3    H234586   2.741   6.602   0.303
11549TIP3   OH234587   6.210   6.334   5.466
11549TIP3    H134588   6.251   6.377   5.391
11549TIP3    H234589   6.263   6.256   5.481
11550TIP3   OH234590   1.670   3.180   0.432
11550TIP3    H134591   1.725   3.248   0.393
11550TIP3    H234592   1.583   3.218   0.435
11551TIP3   OH234593   3.111   0.063   0.138
11551TIP3    H134594   3.094   0.036   0.048
11551TIP3    H234595   3.068  -0.003   0.191
11552TIP3   OH234596   6.021   3.469   3.499
11552TIP3    H134597   5.979   3.508   3.422
11552TIP3    H234598   6.100   3.427   3.466
11553TIP3   OH234599   7.465   3.963   5.080
11553TIP3    H134600   7.408   3.943   5.006
11553TIP3    H234601   7.424   3.920   5.155
11554TIP3   OH234602   1.759   3.565   4.830
11554TIP3    H134603   1.708   3.585   4.751
11554TIP3    H234604   1.693   3.549   4.898
11555TIP3   OH234605   0.269   1.022   4.042
11555TIP3    H134606   0.232   1.090   3.986
11555TIP3    H234607   0.360   1.016   4.014
11556TIP3   OH234608   4.047   6.121   3.614
11556TIP3    H134609   4.037   6.043   3.559
11556TIP3    H234610   4.128   6.106   3.662
11557TIP3   OH234611   0.406   2.675   5.437
11557TIP3    H134612   0.330   2.664   5.379
11557TIP3    H234613   0.385   2.754   5.488
11558TIP3   OH234614   3.908   6.969   6.144
11558TIP3    H134615   3.872   6.886   6.176
11558TIP3    H234616   3.907   6.960   6.049
11559TIP3   OH234617   8.036   7.497   2.989
11559TIP3    H134618   8.069   7.410   2.969
11559TIP3    H234619   8.058   7.550   2.912
11560TIP3   OH234620   7.149   6.132   0.623
11560TIP3    H134621   7.189   6.079   0.554
11560TIP3    H234622   7.074   6.081   0.651
11561TIP3   OH234623   6.858   0.923   4.482
11561TIP3    H134624   6.804   0.980   4.428
11561TIP3    H234625   6.796   0.869   4.530
11562TIP3   OH234626   0.099   1.198   6.332
11562TIP3    H134627   0.088   1.183   6.426
11562TIP3    H234628   0.010   1.202   6.297
11563TIP3   OH234629   1.729   7.128   5.603
11563TIP3    H134630   1.707   7.035   5.601
11563TIP3    H234631   1.818   7.131   5.639
11564TIP3   OH234632   0.263   7.305   3.260
11564TIP3    H134633   0.255   7.214   3.232
11564TIP3    H234634   0.184   7.348   3.227
11565TIP3   OH234635   0.130   2.310   2.536
11565TIP3    H134636   0.187   2.235   2.521
11565TIP3    H234637   0.186   2.376   2.576
11566TIP3   OH234638   3.952   5.502   1.097
11566TIP3    H134639   3.950   5.413   1.132
11566TIP3    H234640   3.965   5.491   1.003
11567TIP3   OH234641   4.228   2.859   1.536
11567TIP3    H134642   4.157   2.903   1.584
11567TIP3    H234643   4.227   2.769   1.570
11568TIP3   OH234644   1.154   4.475   6.496
11568TIP3    H134645   1.110   4.475   6.411
11568TIP3    H234646   1.242   4.442   6.477
11569TIP3   OH234647   3.084   7.406   3.229
11569TIP3    H134648   3.128   7.410   3.314
11569TIP3    H234649   3.154   7.423   3.165
11570TIP3   OH234650   1.609   0.864   4.114
11570TIP3    H134651   1.700   0.889   4.104
11570TIP3    H234652   1.606   0.772   4.088
11571TIP3   OH234653   3.828   1.912   4.167
11571TIP3    H134654   3.898   1.853   4.140
11571TIP3    H234655   3.748   1.875   4.129
11572TIP3   OH234656   0.291   1.354   2.383
11572TIP3    H134657   0.377   1.321   2.356
11572TIP3    H234658   0.268   1.301   2.460
11573TIP3   OH234659   1.538   0.953   6.895
11573TIP3    H134660   1.488   1.021   6.850
11573TIP3    H234661   1.589   0.910   6.826
11574TIP3   OH234662   3.103   6.601   5.922
11574TIP3    H134663   3.073   6.511   5.932
11574TIP3    H234664   3.194   6.599   5.949
11575TIP3   OH234665   1.384   6.918   1.785
11575TIP3    H134666   1.340   6.956   1.709
11575TIP3    H234667   1.478   6.928   1.767
11576TIP3   OH234668   4.904   7.181   5.432
11576TIP3    H134669   4.889   7.274   5.452
11576TIP3    H234670   4.824   7.137   5.462
11577TIP3   OH234671   8.287   4.661   3.910
11577TIP3    H134672   8.214   4.723   3.907
11577TIP3    H234673   8.363   4.715   3.934
11578TIP3   OH234674   0.442   1.733   5.253
11578TIP3    H134675   0.380   1.746   5.181
11578TIP3    H234676   0.487   1.652   5.231
11579TIP3   OH234677   1.774   0.196   4.067
11579TIP3    H134678   1.856   0.242   4.056
11579TIP3    H234679   1.799   0.109   4.097
11580TIP3   OH234680   5.973   5.286   0.619
11580TIP3    H134681   5.976   5.248   0.531
11580TIP3    H234682   5.998   5.215   0.677
11581TIP3   OH234683   7.647   5.259   0.509
11581TIP3    H134684   7.723   5.228   0.559
11581TIP3    H234685   7.658   5.353   0.503
11582TIP3   OH234686   7.079   2.131   6.403
11582TIP3    H134687   7.023   2.072   6.454
11582TIP3    H234688   7.019   2.174   6.342
11583TIP3   OH234689   2.523   7.489   2.021
11583TIP3    H134690   2.436   7.528   2.022
11583TIP3    H234691   2.581   7.560   2.049
11584TIP3   OH234692   0.239   7.841   0.567
11584TIP3    H134693   0.242   7.930   0.534
11584TIP3    H234694   0.301   7.840   0.640
11585TIP3   OH234695   1.793   2.464   6.049
11585TIP3    H134696   1.825   2.550   6.021
11585TIP3    H234697   1.712   2.452   6.000
11586TIP3   OH234698   2.735   2.682   2.510
11586TIP3    H134699   2.666   2.679   2.576
11586TIP3    H234700   2.794   2.751   2.540
11587TIP3   OH234701   2.059   0.713   5.953
11587TIP3    H134702   2.093   0.785   6.005
11587TIP3    H234703   2.103   0.635   5.988
11588TIP3   OH234704   8.040   0.540   3.676
11588TIP3    H134705   8.005   0.629   3.668
11588TIP3    H234706   8.011   0.496   3.596
11589TIP3   OH234707   6.091   6.442   0.500
11589TIP3    H134708   6.082   6.537   0.507
11589TIP3    H234709   6.150   6.428   0.426
11590TIP3   OH234710   2.262   3.391   2.931
11590TIP3    H134711   2.217   3.413   2.850
11590TIP3    H234712   2.239   3.462   2.991
11591TIP3   OH234713   6.404   4.598   3.919
11591TIP3    H134714   6.429   4.616   4.010
11591TIP3    H234715   6.309   4.596   3.920
11592TIP3   OH234716   6.847   6.352   0.302
11592TIP3    H134717   6.930   6.399   0.294
11592TIP3    H234718   6.808   6.357   0.215
11593TIP3   OH234719   0.467   3.351   5.932
11593TIP3    H134720   0.453   3.312   6.018
11593TIP3    H234721   0.534   3.418   5.946
11594TIP3   OH234722   4.506   4.130   1.584
11594TIP3    H134723   4.519   4.036   1.571
11594TIP3    H234724   4.445   4.135   1.658
11595TIP3   OH234725   8.325   3.103   2.598
11595TIP3    H134726   8.363   3.184   2.562
11595TIP3    H234727   8.388   3.074   2.664
11596TIP3   OH234728   5.770   5.851   5.583
11596TIP3    H134729   5.842   5.794   5.609
11596TIP3    H234730   5.777   5.857   5.488
11597TIP3   OH234731   1.390   5.183   0.366
11597TIP3    H134732   1.485   5.178   0.374
11597TIP3    H234733   1.359   5.191   0.457
11598TIP3   OH234734   0.377   4.239   4.774
11598TIP3    H134735   0.342   4.291   4.701
11598TIP3    H234736   0.406   4.305   4.838
11599TIP3   OH234737   4.427   4.080   3.689
11599TIP3    H134738   4.383   4.112   3.610
11599TIP3    H234739   4.396   4.138   3.759
11600TIP3   OH234740   2.634   2.277   6.620
11600TIP3    H134741   2.617   2.250   6.710
11600TIP3    H234742   2.647   2.372   6.626
11601TIP3   OH234743   2.052   2.284   3.066
11601TIP3    H134744   2.054   2.233   2.985
11601TIP3    H234745   2.107   2.235   3.127
11602TIP3   OH234746   7.053   2.587   4.170
11602TIP3    H134747   7.018   2.533   4.100
11602TIP3    H234748   7.045   2.677   4.137
11603TIP3   OH234749   2.199   5.600   4.021
11603TIP3    H134750   2.258   5.671   4.044
11603TIP3    H234751   2.121   5.643   3.986
11604TIP3   OH234752   8.300   6.531   5.462
11604TIP3    H134753   8.359   6.477   5.515
11604TIP3    H234754   8.212   6.509   5.493
11605TIP3   OH234755   8.314   6.594   6.304
11605TIP3    H134756   8.294   6.534   6.376
11605TIP3    H234757   8.409   6.604   6.307
11606TIP3   OH234758   1.257   3.768   0.726
11606TIP3    H134759   1.270   3.678   0.756
11606TIP3    H234760   1.300   3.771   0.640
11607TIP3   OH234761   4.999   2.356   1.617
11607TIP3    H134762   4.992   2.364   1.712
11607TIP3    H234763   4.957   2.272   1.597
11608TIP3   OH234764   6.979   7.527   2.271
11608TIP3    H134765   6.929   7.555   2.194
11608TIP3    H234766   6.914   7.485   2.327
11609TIP3   OH234767   6.365   5.128   4.881
11609TIP3    H134768   6.300   5.059   4.869
11609TIP3    H234769   6.385   5.158   4.792
11610TIP3   OH234770   0.519   4.617   1.041
11610TIP3    H134771   0.599   4.626   0.989
11610TIP3    H234772   0.449   4.637   0.979
11611TIP3   OH234773   7.781   3.545   5.399
11611TIP3    H134774   7.812   3.635   5.401
11611TIP3    H234775   7.718   3.542   5.327
11612TIP3   OH234776   5.886   2.658   3.646
11612TIP3    H134777   5.883   2.651   3.550
11612TIP3    H234778   5.809   2.609   3.676
11613TIP3   OH234779   6.018   1.898   2.157
11613TIP3    H134780   5.985   1.810   2.176
11613TIP3    H234781   6.066   1.923   2.236
11614TIP3   OH234782   1.483   6.909   4.246
11614TIP3    H134783   1.431   6.988   4.259
11614TIP3    H234784   1.526   6.894   4.330
11615TIP3   OH234785   0.475   6.350   5.190
11615TIP3    H134786   0.558   6.315   5.157
11615TIP3    H234787   0.471   6.440   5.156
11616TIP3   OH234788   5.116   2.115   6.079
11616TIP3    H134789   5.156   2.031   6.102
11616TIP3    H234790   5.059   2.094   6.005
11617TIP3   OH234791   0.332   7.808   5.247
11617TIP3    H134792   0.378   7.751   5.308
11617TIP3    H234793   0.374   7.794   5.162
11618TIP3   OH234794   3.220   1.795   2.214
11618TIP3    H134795   3.176   1.856   2.155
11618TIP3    H234796   3.310   1.826   2.218
11619TIP3   OH234797   2.155   5.369   6.277
11619TIP3    H134798   2.068   5.340   6.249
11619TIP3    H234799   2.141   5.408   6.363
11620TIP3   OH234800   7.610   7.108   1.160
11620TIP3    H134801   7.595   7.059   1.241
11620TIP3    H234802   7.554   7.186   1.168
11621TIP3   OH234803   4.520   6.151   2.143
11621TIP3    H134804   4.450   6.183   2.086
11621TIP3    H234805   4.511   6.202   2.223
11622TIP3   OH234806   7.866   0.985   2.663
11622TIP3    H134807   7.786   1.031   2.637
11622TIP3    H234808   7.872   1.000   2.758
11623TIP3   OH234809   5.574   0.092   4.881
11623TIP3    H134810   5.652   0.096   4.826
11623TIP3    H234811   5.502   0.077   4.820
11624TIP3   OH234812   0.041   1.337   3.089
11624TIP3    H134813   0.013   1.406   3.028
11624TIP3    H234814   0.116   1.297   3.045
11625TIP3   OH234815   4.532   5.069   4.337
11625TIP3    H134816   4.491   4.996   4.384
11625TIP3    H234817   4.611   5.089   4.388
11626TIP3   OH234818   1.023   6.801   2.013
11626TIP3    H134819   1.102   6.747   2.025
11626TIP3    H234820   1.042   6.882   2.060
11627TIP3   OH234821   1.571   7.111   6.676
11627TIP3    H134822   1.487   7.140   6.712
11627TIP3    H234823   1.586   7.169   6.601
11628TIP3   OH234824   3.169   6.585   2.143
11628TIP3    H134825   3.196   6.659   2.089
11628TIP3    H234826   3.103   6.620   2.202
11629TIP3   OH234827   6.732   3.906   4.699
11629TIP3    H134828   6.816   3.913   4.654
11629TIP3    H234829   6.735   3.974   4.766
11630TIP3   OH234830   5.285   3.085   2.996
11630TIP3    H134831   5.232   3.123   3.066
11630TIP3    H234832   5.319   3.160   2.947
11631TIP3   OH234833   7.620   3.450   1.487
11631TIP3    H134834   7.607   3.382   1.420
11631TIP3    H234835   7.602   3.532   1.441
11632TIP3   OH234836   4.324   2.900   2.321
11632TIP3    H134837   4.258   2.944   2.267
11632TIP3    H234838   4.279   2.821   2.354
11633TIP3   OH234839   0.191   7.430   1.294
11633TIP3    H134840   0.159   7.470   1.375
11633TIP3    H234841   0.267   7.379   1.321
11634TIP3   OH234842   4.836   3.447   4.038
11634TIP3    H134843   4.743   3.451   4.062
11634TIP3    H234844   4.835   3.432   3.944
11635TIP3   OH234845   1.541   5.846   5.674
11635TIP3    H134846   1.570   5.833   5.584
11635TIP3    H234847   1.510   5.936   5.676
11636TIP3   OH234848   7.814   7.459   0.238
11636TIP3    H134849   7.891   7.457   0.182
11636TIP3    H234850   7.800   7.368   0.264
11637TIP3   OH234851   2.147   5.085   6.812
11637TIP3    H134852   2.231   5.075   6.858
11637TIP3    H234853   2.097   5.146   6.866
11638TIP3   OH234854   5.853   0.091   5.817
11638TIP3    H134855   5.834   0.181   5.845
11638TIP3    H234856   5.843   0.039   5.897
11639TIP3   OH234857   0.875   1.233   4.278
11639TIP3    H134858   0.840   1.165   4.335
11639TIP3    H234859   0.953   1.265   4.325
11640TIP3   OH234860   2.879   7.174   6.348
11640TIP3    H134861   2.927   7.093   6.330
11640TIP3    H234862   2.876   7.219   6.263
11641TIP3   OH234863   3.311   0.028   4.417
11641TIP3    H134864   3.297  -0.007   4.329
11641TIP3    H234865   3.402   0.058   4.417
11642TIP3   OH234866   3.631   3.187   3.785
11642TIP3    H134867   3.704   3.242   3.757
11642TIP3    H234868   3.666   3.098   3.784
11643TIP3   OH234869   3.758   6.414   0.952
11643TIP3    H134870   3.826   6.404   1.019
11643TIP3    H234871   3.704   6.487   0.982
11644TIP3   OH234872   7.106   4.752   3.187
11644TIP3    H134873   7.185   4.720   3.144
11644TIP3    H234874   7.055   4.792   3.116
11645TIP3   OH234875   2.921   1.657   6.412
11645TIP3    H134876   2.895   1.574   6.372
11645TIP3    H234877   2.944   1.713   6.337
11646TIP3   OH234878   3.736   5.104   4.814
11646TIP3    H134879   3.812   5.087   4.869
11646TIP3    H234880   3.661   5.105   4.875
11647TIP3   OH234881   1.033   6.348   1.292
11647TIP3    H134882   1.002   6.306   1.372
11647TIP3    H234883   1.045   6.440   1.317
11648TIP3   OH234884   4.524   6.892   6.093
11648TIP3    H134885   4.598   6.898   6.033
11648TIP3    H234886   4.467   6.965   6.068
11649TIP3   OH234887   4.383   4.028   2.513
11649TIP3    H134888   4.364   3.999   2.603
11649TIP3    H234889   4.426   4.112   2.524
11650TIP3   OH234890   4.202   7.475   3.727
11650TIP3    H134891   4.213   7.386   3.695
11650TIP3    H234892   4.147   7.466   3.805
11651TIP3   OH234893   1.187   3.007   6.832
11651TIP3    H134894   1.206   2.937   6.770
11651TIP3    H234895   1.272   3.028   6.871
11652TIP3   OH234896   1.854   3.607   1.404
11652TIP3    H134897   1.767   3.645   1.412
11652TIP3    H234898   1.855   3.535   1.467
11653TIP3   OH234899   8.071   0.317   1.382
11653TIP3    H134900   8.127   0.345   1.455
11653TIP3    H234901   8.063   0.394   1.327
11654TIP3   OH234902   2.046   6.170   4.853
11654TIP3    H134903   2.026   6.133   4.768
11654TIP3    H234904   1.971   6.226   4.874
11655TIP3   OH234905   7.616   4.556   2.110
11655TIP3    H134906   7.552   4.493   2.077
11655TIP3    H234907   7.692   4.546   2.053
11656TIP3   OH234908   7.235   7.418   4.001
11656TIP3    H134909   7.224   7.485   4.070
11656TIP3    H234910   7.268   7.341   4.048
11657TIP3   OH234911   6.651   5.348   6.892
11657TIP3    H134912   6.693   5.413   6.835
11657TIP3    H234913   6.625   5.277   6.833
11658TIP3   OH234914   0.969   6.292   1.040
11658TIP3    H134915   0.994   6.319   1.128
11658TIP3    H234916   1.048   6.253   1.004
11659TIP3   OH234917   3.548   4.827   5.031
11659TIP3    H134918   3.610   4.837   5.104
11659TIP3    H234919   3.485   4.898   5.043
11660TIP3   OH234920   4.967   1.896   0.357
11660TIP3    H134921   4.947   1.944   0.277
11660TIP3    H234922   4.881   1.870   0.391
11661TIP3   OH234923   0.190   6.630   2.463
11661TIP3    H134924   0.228   6.542   2.462
11661TIP3    H234925   0.110   6.621   2.515
11662TIP3   OH234926   3.277   3.698   1.616
11662TIP3    H134927   3.249   3.612   1.647
11662TIP3    H234928   3.345   3.725   1.677
11663TIP3   OH234929   4.173   6.304   5.593
11663TIP3    H134930   4.213   6.354   5.522
11663TIP3    H234931   4.225   6.224   5.598
11664TIP3   OH234932   1.303   3.617   3.370
11664TIP3    H134933   1.313   3.572   3.286
11664TIP3    H234934   1.213   3.599   3.396
11665TIP3   OH234935   7.755   7.127   0.817
11665TIP3    H134936   7.849   7.130   0.795
11665TIP3    H234937   7.741   7.039   0.852
11666TIP3   OH234938   7.488   3.334   5.088
11666TIP3    H134939   7.498   3.280   5.010
11666TIP3    H234940   7.428   3.404   5.062
11667TIP3   OH234941   2.046   2.985   0.180
11667TIP3    H134942   2.035   2.904   0.131
11667TIP3    H234943   2.043   2.958   0.272
11668TIP3   OH234944   7.849   1.661   5.090
11668TIP3    H134945   7.807   1.678   5.174
11668TIP3    H234946   7.805   1.584   5.055
11669TIP3   OH234947   4.420   0.800   6.778
11669TIP3    H134948   4.407   0.719   6.729
11669TIP3    H234949   4.442   0.771   6.867
11670TIP3   OH234950   1.942   4.456   1.679
11670TIP3    H134951   1.862   4.452   1.731
11670TIP3    H234952   2.013   4.461   1.744
11671TIP3   OH234953   4.627   6.536   0.130
11671TIP3    H134954   4.533   6.550   0.114
11671TIP3    H234955   4.631   6.487   0.211
11672TIP3   OH234956   0.710   5.793   2.016
11672TIP3    H134957   0.682   5.778   2.106
11672TIP3    H234958   0.718   5.705   1.978
11673TIP3   OH234959   7.535   5.868   5.475
11673TIP3    H134960   7.590   5.816   5.534
11673TIP3    H234961   7.531   5.955   5.517
11674TIP3   OH234962   7.245   4.419   1.773
11674TIP3    H134963   7.250   4.515   1.766
11674TIP3    H234964   7.153   4.401   1.789
11675TIP3   OH234965   2.459   5.377   2.390
11675TIP3    H134966   2.429   5.373   2.299
11675TIP3    H234967   2.481   5.286   2.412
11676TIP3   OH234968   6.245   7.416   1.973
11676TIP3    H134969   6.181   7.427   1.903
11676TIP3    H234970   6.319   7.370   1.931
11677TIP3   OH234971   7.518   0.245   1.611
11677TIP3    H134972   7.459   0.177   1.577
11677TIP3    H234973   7.589   0.249   1.548
11678TIP3   OH234974   8.208   0.990   5.264
11678TIP3    H134975   8.204   1.064   5.324
11678TIP3    H234976   8.243   1.026   5.183
11679TIP3   OH234977   4.745   2.662   0.054
11679TIP3    H134978   4.748   2.593  -0.013
11679TIP3    H234979   4.836   2.674   0.081
11680TIP3   OH234980   3.886   6.866   3.258
11680TIP3    H134981   3.878   6.777   3.292
11680TIP3    H234982   3.974   6.894   3.280
11681TIP3   OH234983   8.111   7.131   2.465
11681TIP3    H134984   8.065   7.214   2.447
11681TIP3    H234985   8.177   7.125   2.395
11682TIP3   OH234986   3.871   1.778   0.693
11682TIP3    H134987   3.830   1.696   0.664
11682TIP3    H234988   3.913   1.756   0.776
11683TIP3   OH234989   1.216   1.390   5.198
11683TIP3    H134990   1.204   1.348   5.283
11683TIP3    H234991   1.304   1.428   5.203
11684TIP3   OH234992   6.185   1.113   4.627
11684TIP3    H134993   6.193   1.105   4.532
11684TIP3    H234994   6.246   1.183   4.650
11685TIP3   OH234995   1.285   3.538   6.876
11685TIP3    H134996   1.191   3.554   6.878
11685TIP3    H234997   1.303   3.512   6.786
11686TIP3   OH234998   7.022   1.802   0.130
11686TIP3    H134999   7.033   1.731   0.193
11686TIP3    H235000   6.991   1.876   0.182
11687TIP3   OH235001   1.180   5.646   2.388
11687TIP3    H135002   1.180   5.638   2.483
11687TIP3    H235003   1.237   5.721   2.371
11688TIP3   OH235004   8.031   1.565   3.939
11688TIP3    H135005   7.975   1.540   3.865
11688TIP3    H235006   8.113   1.518   3.924
11689TIP3   OH235007   7.634   5.231   0.882
11689TIP3    H135008   7.675   5.301   0.832
11689TIP3    H235009   7.624   5.267   0.970
11690TIP3   OH235010   7.925   1.303   5.708
11690TIP3    H135011   8.005   1.256   5.731
11690TIP3    H235012   7.930   1.385   5.756
11691TIP3   OH235013   2.373   3.217   2.662
11691TIP3    H135014   2.344   3.305   2.684
11691TIP3    H235015   2.370   3.214   2.567
11692TIP3   OH235016   1.223  -0.029   3.999
11692TIP3    H135017   1.156   0.020   4.047
11692TIP3    H235018   1.290   0.036   3.977
11693TIP3   OH235019   6.334   3.543   5.166
11693TIP3    H135020   6.375   3.467   5.125
11693TIP3    H235021   6.386   3.618   5.138
11694TIP3   OH235022   1.758   3.162   2.392
11694TIP3    H135023   1.686   3.100   2.377
11694TIP3    H235024   1.837   3.112   2.372
11695TIP3   OH235025   0.875   0.271   3.696
11695TIP3    H135026   0.893   0.362   3.671
11695TIP3    H235027   0.833   0.278   3.782
11696TIP3   OH235028   1.519   0.555   1.690
11696TIP3    H135029   1.552   0.573   1.601
11696TIP3    H235030   1.452   0.489   1.678
11697TIP3   OH235031   4.005   0.023   0.872
11697TIP3    H135032   4.033   0.088   0.937
11697TIP3    H235033   4.034  -0.061   0.908
11698TIP3   OH235034   6.494   3.722   5.027
11698TIP3    H135035   6.571   3.696   4.977
11698TIP3    H235036   6.507   3.816   5.043
11699TIP3   OH235037   2.403   7.358   3.563
11699TIP3    H135038   2.333   7.348   3.499
11699TIP3    H235039   2.478   7.312   3.524
11700TIP3   OH235040   5.188   4.748   0.341
11700TIP3    H135041   5.261   4.776   0.396
11700TIP3    H235042   5.225   4.741   0.253
11701TIP3   OH235043   8.169   7.103   5.402
11701TIP3    H135044   8.252   7.114   5.357
11701TIP3    H235045   8.112   7.171   5.367
11702TIP3   OH235046   1.232   4.137   2.741
11702TIP3    H135047   1.229   4.046   2.771
11702TIP3    H235048   1.286   4.134   2.662
11703TIP3   OH235049   7.732   1.645   0.693
11703TIP3    H135050   7.792   1.719   0.690
11703TIP3    H235051   7.781   1.575   0.736
11704TIP3   OH235052   3.569   1.150   5.614
11704TIP3    H135053   3.503   1.106   5.666
11704TIP3    H235054   3.608   1.215   5.673
11705TIP3   OH235055   7.583   5.604   6.550
11705TIP3    H135056   7.666   5.629   6.510
11705TIP3    H235057   7.600   5.607   6.644
11706TIP3   OH235058   3.687   0.681   0.726
11706TIP3    H135059   3.682   0.706   0.634
11706TIP3    H235060   3.778   0.699   0.750
11707TIP3   OH235061   6.239   5.617   1.887
11707TIP3    H135062   6.163   5.616   1.828
11707TIP3    H235063   6.310   5.578   1.835
11708TIP3   OH235064   7.550   0.079   6.338
11708TIP3    H135065   7.613   0.007   6.342
11708TIP3    H235066   7.498   0.061   6.260
11709TIP3   OH235067   2.739   0.998   6.787
11709TIP3    H135068   2.704   0.954   6.710
11709TIP3    H235069   2.815   0.945   6.813
11710TIP3   OH235070   3.131   5.269   5.074
11710TIP3    H135071   3.161   5.212   5.003
11710TIP3    H235072   3.103   5.208   5.143
11711TIP3   OH235073   4.052   0.616   0.177
11711TIP3    H135074   4.116   0.684   0.154
11711TIP3    H235075   4.052   0.557   0.102
11712TIP3   OH235076   4.229   0.167   6.556
11712TIP3    H135077   4.304   0.110   6.574
11712TIP3    H235078   4.196   0.190   6.643
11713TIP3   OH235079   4.932   4.363   1.517
11713TIP3    H135080   4.872   4.310   1.569
11713TIP3    H235081   4.993   4.300   1.479
11714TIP3   OH235082   0.603   2.379   5.952
11714TIP3    H135083   0.590   2.428   5.871
11714TIP3    H235084   0.676   2.424   5.995
11715TIP3   OH235085   0.773   2.504   0.468
11715TIP3    H135086   0.860   2.466   0.458
11715TIP3    H235087   0.717   2.430   0.491
11716TIP3   OH235088   4.197   6.821   0.847
11716TIP3    H135089   4.215   6.770   0.926
11716TIP3    H235090   4.137   6.765   0.797
11717TIP3   OH235091   0.000   2.993   3.108
11717TIP3    H135092   0.090   2.968   3.129
11717TIP3    H235093   0.002   3.088   3.101
11718TIP3   OH235094   3.546   3.696   6.609
11718TIP3    H135095   3.586   3.617   6.648
11718TIP3    H235096   3.452   3.678   6.609
11719TIP3   OH235097   5.987   0.309   1.482
11719TIP3    H135098   5.959   0.293   1.572
11719TIP3    H235099   6.033   0.393   1.486
11720TIP3   OH235100   1.047   3.510   4.349
11720TIP3    H135101   1.030   3.435   4.293
11720TIP3    H235102   0.987   3.499   4.423
11721TIP3   OH235103   2.873   2.576   4.963
11721TIP3    H135104   2.916   2.585   4.877
11721TIP3    H235105   2.843   2.664   4.984
11722TIP3   OH235106   2.214   1.481   0.311
11722TIP3    H135107   2.231   1.393   0.280
11722TIP3    H235108   2.188   1.470   0.403
11723TIP3   OH235109   3.371   5.723   5.950
11723TIP3    H135110   3.334   5.704   5.864
11723TIP3    H235111   3.415   5.641   5.975
11724TIP3   OH235112   2.546   4.828   6.104
11724TIP3    H135113   2.519   4.740   6.130
11724TIP3    H235114   2.487   4.850   6.032
11725TIP3   OH235115   6.063   1.801   5.312
11725TIP3    H135116   6.055   1.706   5.319
11725TIP3    H235117   6.139   1.822   5.367
11726TIP3   OH235118   5.908   2.674   6.098
11726TIP3    H135119   5.814   2.671   6.115
11726TIP3    H235120   5.931   2.586   6.069
11727TIP3   OH235121   4.322   0.048   4.969
11727TIP3    H135122   4.319   0.098   5.051
11727TIP3    H235123   4.262  -0.025   4.985
11728TIP3   OH235124   3.341   4.839   6.334
11728TIP3    H135125   3.271   4.775   6.319
11728TIP3    H235126   3.336   4.859   6.428
11729TIP3   OH235127   5.927   2.099   1.599
11729TIP3    H135128   5.964   2.011   1.594
11729TIP3    H235129   5.992   2.150   1.647
11730TIP3   OH235130   7.571   3.614   1.269
11730TIP3    H135131   7.591   3.537   1.216
11730TIP3    H235132   7.611   3.687   1.221
11731TIP3   OH235133   5.889   7.582   1.970
11731TIP3    H135134   5.909   7.671   1.999
11731TIP3    H235135   5.955   7.563   1.903
11732TIP3   OH235136   3.575   7.514   5.247
11732TIP3    H135137   3.555   7.605   5.227
11732TIP3    H235138   3.641   7.519   5.316
11733TIP3   OH235139   4.089   4.044   6.076
11733TIP3    H135140   4.006   4.087   6.098
11733TIP3    H235141   4.146   4.065   6.150
11734TIP3   OH235142   5.538   5.956   3.975
11734TIP3    H135143   5.628   5.986   3.981
11734TIP3    H235144   5.535   5.908   3.892
11735TIP3   OH235145   3.801   5.129   0.440
11735TIP3    H135146   3.885   5.167   0.464
11735TIP3    H235147   3.750   5.203   0.406
11736TIP3   OH235148   7.694   7.045   4.540
11736TIP3    H135149   7.767   7.055   4.602
11736TIP3    H235150   7.665   6.955   4.551
11737TIP3   OH235151   5.629   0.091   1.722
11737TIP3    H135152   5.626   0.089   1.627
11737TIP3    H235153   5.559   0.151   1.748
11738TIP3   OH235154   4.950   4.764   5.202
11738TIP3    H135155   5.035   4.808   5.209
11738TIP3    H235156   4.902   4.792   5.280
11739TIP3   OH235157   2.354   4.203   6.436
11739TIP3    H135158   2.258   4.202   6.440
11739TIP3    H235159   2.375   4.155   6.355
11740TIP3   OH235160   7.580   0.070   6.811
11740TIP3    H135161   7.506   0.115   6.852
11740TIP3    H235162   7.625   0.138   6.761
11741TIP3   OH235163   4.896   4.112   0.207
11741TIP3    H135164   4.910   4.030   0.254
11741TIP3    H235165   4.945   4.177   0.257
11742TIP3   OH235166   6.725   1.715   4.936
11742TIP3    H135167   6.812   1.727   4.897
11742TIP3    H235168   6.676   1.793   4.911
11743TIP3   OH235169   7.343   4.795   3.045
11743TIP3    H135170   7.403   4.836   2.983
11743TIP3    H235171   7.376   4.820   3.131
11744TIP3   OH235172   0.847   7.467   5.233
11744TIP3    H135173   0.868   7.401   5.167
11744TIP3    H235174   0.922   7.466   5.293
11745TIP3   OH235175   7.326   4.260   1.536
11745TIP3    H135176   7.253   4.206   1.567
11745TIP3    H235177   7.345   4.318   1.610
11746TIP3   OH235178   3.209   7.775   3.704
11746TIP3    H135179   3.258   7.694   3.688
11746TIP3    H235180   3.172   7.798   3.618
11747TIP3   OH235181   7.037   1.435   1.189
11747TIP3    H135182   7.042   1.343   1.216
11747TIP3    H235183   6.991   1.478   1.261
11748TIP3   OH235184   4.521   6.238   5.716
11748TIP3    H135185   4.498   6.291   5.793
11748TIP3    H235186   4.525   6.301   5.644
11749TIP3   OH235187   7.925   4.236   6.666
11749TIP3    H135188   7.857   4.273   6.722
11749TIP3    H235189   7.989   4.199   6.727
11750TIP3   OH235190   6.914   6.078   0.298
11750TIP3    H135191   6.931   6.066   0.391
11750TIP3    H235192   6.902   6.173   0.288
11751TIP3   OH235193   6.719   3.702   0.816
11751TIP3    H135194   6.776   3.630   0.843
11751TIP3    H235195   6.639   3.690   0.868
11752TIP3   OH235196   5.212   0.263   5.125
11752TIP3    H135197   5.293   0.313   5.110
11752TIP3    H235198   5.243   0.173   5.142
11753TIP3   OH235199   4.241   7.241   6.441
11753TIP3    H135200   4.328   7.219   6.410
11753TIP3    H235201   4.193   7.158   6.442
11754TIP3   OH235202   0.200   6.447   4.242
11754TIP3    H135203   0.270   6.383   4.232
11754TIP3    H235204   0.192   6.488   4.156
11755TIP3   OH235205   0.460   1.291   3.827
11755TIP3    H135206   0.377   1.271   3.784
11755TIP3    H235207   0.519   1.222   3.800
11756TIP3   OH235208   1.412   4.940   2.597
11756TIP3    H135209   1.331   4.894   2.576
11756TIP3    H235210   1.439   4.904   2.682
11757TIP3   OH235211   3.422   5.183   0.249
11757TIP3    H135212   3.379   5.098   0.236
11757TIP3    H235213   3.351   5.244   0.266
11758TIP3   OH235214   7.260   0.630   6.713
11758TIP3    H135215   7.214   0.694   6.658
11758TIP3    H235216   7.283   0.678   6.792
11759TIP3   OH235217   0.117   6.054   2.088
11759TIP3    H135218   0.039   6.065   2.143
11759TIP3    H235219   0.111   6.124   2.023
11760TIP3   OH235220   5.175   0.563   4.082
11760TIP3    H135221   5.232   0.564   4.159
11760TIP3    H235222   5.219   0.505   4.020
11761TIP3   OH235223   4.247   4.636   2.855
11761TIP3    H135224   4.269   4.648   2.763
11761TIP3    H235225   4.322   4.589   2.892
11762TIP3   OH235226   0.616   4.372   3.543
11762TIP3    H135227   0.589   4.319   3.618
11762TIP3    H235228   0.661   4.310   3.486
11763TIP3   OH235229   5.381   2.416   6.359
11763TIP3    H135230   5.353   2.503   6.330
11763TIP3    H235231   5.446   2.389   6.294
11764TIP3   OH235232   6.984   1.143   3.767
11764TIP3    H135233   7.078   1.128   3.774
11764TIP3    H235234   6.948   1.058   3.745
11765TIP3   OH235235   0.396   6.057   2.038
11765TIP3    H135236   0.319   6.057   2.094
11765TIP3    H235237   0.402   6.146   2.005
11766TIP3   OH235238   1.119   2.809   1.292
11766TIP3    H135239   1.029   2.838   1.276
11766TIP3    H235240   1.145   2.853   1.373
11767TIP3   OH235241   5.433   4.880   5.929
11767TIP3    H135242   5.349   4.841   5.907
11767TIP3    H235243   5.419   4.925   6.012
11768TIP3   OH235244   6.504   2.065   5.446
11768TIP3    H135245   6.561   2.013   5.389
11768TIP3    H235246   6.505   2.153   5.407
11769TIP3   OH235247   6.888   2.637   1.065
11769TIP3    H135248   6.813   2.592   1.105
11769TIP3    H235249   6.881   2.618   0.972
11770TIP3   OH235250   5.185   5.461   2.075
11770TIP3    H135251   5.238   5.482   2.152
11770TIP3    H235252   5.235   5.496   2.001
11771TIP3   OH235253   2.489   6.161   1.067
11771TIP3    H135254   2.527   6.239   1.026
11771TIP3    H235255   2.455   6.110   0.994
11772TIP3   OH235256   6.248   3.266   6.779
11772TIP3    H135257   6.238   3.192   6.718
11772TIP3    H235258   6.208   3.340   6.734
11773TIP3   OH235259   4.559   0.771   4.054
11773TIP3    H135260   4.592   0.825   3.982
11773TIP3    H235261   4.534   0.688   4.012
11774TIP3   OH235262   0.717   4.846   4.101
11774TIP3    H135263   0.627   4.814   4.105
11774TIP3    H235264   0.766   4.784   4.155
11775TIP3   OH235265   1.093   3.474   2.295
11775TIP3    H135266   1.078   3.558   2.338
11775TIP3    H235267   1.037   3.412   2.341
11776TIP3   OH235268   4.343   1.655   1.484
11776TIP3    H135269   4.336   1.691   1.396
11776TIP3    H235270   4.434   1.673   1.510
11777TIP3   OH235271   8.238   7.084   4.521
11777TIP3    H135272   8.316   7.109   4.571
11777TIP3    H235273   8.251   6.991   4.501
11778TIP3   OH235274   1.611   4.658   2.486
11778TIP3    H135275   1.533   4.704   2.456
11778TIP3    H235276   1.654   4.628   2.406
11779TIP3   OH235277   6.382   4.431   0.112
11779TIP3    H135278   6.352   4.452   0.201
11779TIP3    H235279   6.471   4.466   0.108
11780TIP3   OH235280   1.060   7.429   2.053
11780TIP3    H135281   0.987   7.376   2.085
11780TIP3    H235282   1.065   7.410   1.960
11781TIP3   OH235283   7.292   0.253   4.282
11781TIP3    H135284   7.294   0.179   4.342
11781TIP3    H235285   7.201   0.258   4.254
11782TIP3   OH235286   5.807   6.143   1.893
11782TIP3    H135287   5.718   6.158   1.927
11782TIP3    H235288   5.815   6.204   1.820
11783TIP3   OH235289   4.376   4.981   2.294
11783TIP3    H135290   4.414   5.024   2.218
11783TIP3    H235291   4.359   4.891   2.264
11784TIP3   OH235292   4.398   1.512   0.464
11784TIP3    H135293   4.471   1.452   0.449
11784TIP3    H235294   4.351   1.513   0.380
11785TIP3   OH235295   6.331   2.554   4.988
11785TIP3    H135296   6.259   2.494   4.969
11785TIP3    H235297   6.338   2.609   4.910
11786TIP3   OH235298   3.378   6.190   6.329
11786TIP3    H135299   3.332   6.218   6.408
11786TIP3    H235300   3.389   6.096   6.339
11787TIP3   OH235301   7.767   6.576   5.519
11787TIP3    H135302   7.780   6.645   5.584
11787TIP3    H235303   7.722   6.619   5.446
11788TIP3   OH235304   1.553   7.226   4.515
11788TIP3    H135305   1.593   7.280   4.447
11788TIP3    H235306   1.465   7.263   4.527
11789TIP3   OH235307   4.427   4.171   0.296
11789TIP3    H135308   4.392   4.189   0.383
11789TIP3    H235309   4.405   4.079   0.281
11790TIP3   OH235310   6.826   2.681   0.273
11790TIP3    H135311   6.856   2.598   0.311
11790TIP3    H235312   6.822   2.740   0.348
11791TIP3   OH235313   4.327   4.248   4.497
11791TIP3    H135314   4.409   4.251   4.545
11791TIP3    H235315   4.347   4.287   4.412
11792TIP3   OH235316   2.620   6.665   4.977
11792TIP3    H135317   2.707   6.627   4.961
11792TIP3    H235318   2.596   6.632   5.064
11793TIP3   OH235319   6.789   5.747   6.317
11793TIP3    H135320   6.694   5.733   6.315
11793TIP3    H235321   6.825   5.661   6.336
11794TIP3   OH235322   3.717   1.163   2.393
11794TIP3    H135323   3.680   1.115   2.468
11794TIP3    H235324   3.652   1.230   2.372
11795TIP3   OH235325   4.879   1.147   5.239
11795TIP3    H135326   4.787   1.173   5.230
11795TIP3    H235327   4.888   1.071   5.182
11796TIP3   OH235328   6.875   2.575   5.067
11796TIP3    H135329   6.958   2.556   5.111
11796TIP3    H235330   6.892   2.555   4.975
11797TIP3   OH235331   1.001   7.648   2.890
11797TIP3    H135332   0.972   7.581   2.951
11797TIP3    H235333   0.937   7.719   2.900
11798TIP3   OH235334   5.162   5.518   3.216
11798TIP3    H135335   5.217   5.590   3.183
11798TIP3    H235336   5.219   5.441   3.214
11799TIP3   OH235337   7.358   2.819   4.016
11799TIP3    H135338   7.386   2.759   3.947
11799TIP3    H235339   7.412   2.796   4.092
11800TIP3   OH235340   0.598   5.780   2.683
11800TIP3    H135341   0.576   5.868   2.654
11800TIP3    H235342   0.650   5.793   2.762
11801TIP3   OH235343   0.037   4.090   5.225
11801TIP3    H135344   0.121   4.062   5.264
11801TIP3    H235345   0.031   4.183   5.247
11802TIP3   OH235346   2.797   7.099   0.300
11802TIP3    H135347   2.832   7.168   0.356
11802TIP3    H235348   2.711   7.132   0.272
11803TIP3   OH235349   8.060   1.863   5.628
11803TIP3    H135350   8.142   1.859   5.678
11803TIP3    H235351   8.078   1.925   5.558
11804TIP3   OH235352   1.113   0.966   2.341
11804TIP3    H135353   1.046   0.958   2.409
11804TIP3    H235354   1.196   0.955   2.388
11805TIP3   OH235355   5.520   5.303   5.451
11805TIP3    H135356   5.559   5.220   5.424
11805TIP3    H235357   5.435   5.305   5.409
11806TIP3   OH235358   6.315   0.377   2.010
11806TIP3    H135359   6.280   0.296   2.047
11806TIP3    H235360   6.410   0.368   2.015
11807TIP3   OH235361   6.592   0.458   1.025
11807TIP3    H135362   6.508   0.419   1.046
11807TIP3    H235363   6.583   0.550   1.049
11808TIP3   OH235364   8.006   7.688   4.983
11808TIP3    H135365   7.999   7.686   4.888
11808TIP3    H235366   8.016   7.781   5.005
11809TIP3   OH235367   4.771   7.261   4.744
11809TIP3    H135368   4.844   7.202   4.728
11809TIP3    H235369   4.749   7.296   4.657
11810TIP3   OH235370   7.741   5.577   1.653
11810TIP3    H135371   7.685   5.643   1.612
11810TIP3    H235372   7.700   5.559   1.737
11811TIP3   OH235373   3.728   5.131   3.047
11811TIP3    H135374   3.649   5.185   3.049
11811TIP3    H235375   3.696   5.042   3.066
11812TIP3   OH235376   1.583   1.071   2.227
11812TIP3    H135377   1.632   1.093   2.306
11812TIP3    H235378   1.585   1.151   2.174
11813TIP3   OH235379   5.338   4.476   4.623
11813TIP3    H135380   5.379   4.544   4.570
11813TIP3    H235381   5.340   4.510   4.712
11814TIP3   OH235382   7.758   5.723   2.049
11814TIP3    H135383   7.767   5.786   1.978
11814TIP3    H235384   7.755   5.638   2.006
11815TIP3   OH235385   2.617   4.341   5.635
11815TIP3    H135386   2.638   4.283   5.708
11815TIP3    H235387   2.591   4.282   5.564
11816TIP3   OH235388   8.205   3.711   3.592
11816TIP3    H135389   8.137   3.664   3.543
11816TIP3    H235390   8.222   3.656   3.668
11817TIP3   OH235391   1.764   2.088   1.546
11817TIP3    H135392   1.685   2.123   1.503
11817TIP3    H235393   1.836   2.122   1.493
11818TIP3   OH235394   4.653   7.106   5.532
11818TIP3    H135395   4.594   7.031   5.529
11818TIP3    H235396   4.625   7.162   5.459
11819TIP3   OH235397   2.964   6.539   1.543
11819TIP3    H135398   2.963   6.571   1.633
11819TIP3    H235399   3.020   6.462   1.545
11820TIP3   OH235400   4.521   0.574   3.886
11820TIP3    H135401   4.562   0.573   3.800
11820TIP3    H235402   4.563   0.501   3.933
11821TIP3   OH235403   5.933   5.151   1.859
11821TIP3    H135404   6.012   5.142   1.806
11821TIP3    H235405   5.956   5.109   1.942
11822TIP3   OH235406   2.703   4.885   0.263
11822TIP3    H135407   2.721   4.803   0.310
11822TIP3    H235408   2.691   4.858   0.172
11823TIP3   OH235409   3.641   0.352   1.707
11823TIP3    H135410   3.592   0.410   1.648
11823TIP3    H235411   3.611   0.375   1.794
11824TIP3   OH235412   0.042   7.484   4.572
11824TIP3    H135413   0.081   7.561   4.530
11824TIP3    H235414  -0.033   7.519   4.620
11825TIP3   OH235415   3.231   0.120   6.043
11825TIP3    H135416   3.282   0.189   6.002
11825TIP3    H235417   3.198   0.068   5.970
11826TIP3   OH235418   4.699   2.460   5.449
11826TIP3    H135419   4.779   2.500   5.415
11826TIP3    H235420   4.637   2.463   5.376
11827TIP3   OH235421   7.184   3.807   6.158
11827TIP3    H135422   7.255   3.747   6.135
11827TIP3    H235423   7.160   3.782   6.247
11828TIP3   OH235424   2.977   4.312   2.232
11828TIP3    H135425   3.010   4.287   2.146
11828TIP3    H235426   3.053   4.303   2.290
11829TIP3   OH235427   1.564  -0.028   2.474
11829TIP3    H135428   1.556   0.047   2.532
11829TIP3    H235429   1.624   0.001   2.405
11830TIP3   OH235430   6.633   7.087   5.118
11830TIP3    H135431   6.562   7.149   5.135
11830TIP3    H235432   6.671   7.070   5.204
11831TIP3   OH235433   4.458   3.032   6.692
11831TIP3    H135434   4.372   3.011   6.656
11831TIP3    H235435   4.444   3.033   6.787
11832TIP3   OH235436   2.620   3.394   5.776
11832TIP3    H135437   2.542   3.446   5.794
11832TIP3    H235438   2.677   3.453   5.726
11833TIP3   OH235439   7.409   2.132   0.584
11833TIP3    H135440   7.475   2.063   0.591
11833TIP3    H235441   7.386   2.134   0.491
11834TIP3   OH235442   3.482   6.992   4.215
11834TIP3    H135443   3.419   6.923   4.233
11834TIP3    H235444   3.429   7.069   4.197
11835TIP3   OH235445   4.992   0.946   1.605
11835TIP3    H135446   4.984   0.872   1.665
11835TIP3    H235447   5.057   1.003   1.645
11836TIP3   OH235448   4.938   3.253   5.279
11836TIP3    H135449   4.992   3.247   5.201
11836TIP3    H235450   4.983   3.200   5.345
11837TIP3   OH235451   5.006   5.401   2.320
11837TIP3    H135452   5.038   5.407   2.231
11837TIP3    H235453   5.029   5.485   2.360
11838TIP3   OH235454   8.216   5.299   5.746
11838TIP3    H135455   8.147   5.317   5.682
11838TIP3    H235456   8.170   5.291   5.830
11839TIP3   OH235457   1.644   7.598   4.684
11839TIP3    H135458   1.614   7.628   4.598
11839TIP3    H235459   1.589   7.522   4.703
11840TIP3   OH235460   2.429   2.414   1.854
11840TIP3    H135461   2.472   2.477   1.912
11840TIP3    H235462   2.336   2.423   1.873
11841TIP3   OH235463   4.716   5.844   3.085
11841TIP3    H135464   4.779   5.904   3.045
11841TIP3    H235465   4.760   5.811   3.163
11842TIP3   OH235466   5.359   3.167   1.015
11842TIP3    H135467   5.288   3.177   0.951
11842TIP3    H235468   5.439   3.171   0.963
11843TIP3   OH235469   5.122   2.233   2.620
11843TIP3    H135470   5.090   2.211   2.532
11843TIP3    H235471   5.210   2.196   2.622
11844TIP3   OH235472   3.724   5.607   6.125
11844TIP3    H135473   3.818   5.590   6.120
11844TIP3    H235474   3.716   5.681   6.186
11845TIP3   OH235475   5.859   7.628   3.950
11845TIP3    H135476   5.859   7.695   3.882
11845TIP3    H235477   5.942   7.582   3.940
11846TIP3   OH235478   6.106   7.774   0.004
11846TIP3    H135479   6.033   7.712   0.002
11846TIP3    H235480   6.162   7.743   0.075
11847TIP3   OH235481   6.375   2.443   6.169
11847TIP3    H135482   6.348   2.409   6.254
11847TIP3    H235483   6.295   2.446   6.117
11848TIP3   OH235484   7.228   0.728   0.317
11848TIP3    H135485   7.220   0.792   0.246
11848TIP3    H235486   7.264   0.778   0.391
11849TIP3   OH235487   3.225   4.504   0.772
11849TIP3    H135488   3.143   4.496   0.722
11849TIP3    H235489   3.202   4.474   0.860
11850TIP3   OH235490   1.988   2.432   4.427
11850TIP3    H135491   2.074   2.407   4.393
11850TIP3    H235492   2.007   2.489   4.501
11851TIP3   OH235493   4.013   6.015   0.287
11851TIP3    H135494   4.102   5.986   0.310
11851TIP3    H235495   3.973   5.938   0.245
11852TIP3   OH235496   6.259   0.078   5.669
11852TIP3    H135497   6.266  -0.009   5.708
11852TIP3    H235498   6.189   0.069   5.604
11853TIP3   OH235499   1.109   1.564   3.780
11853TIP3    H135500   1.100   1.470   3.764
11853TIP3    H235501   1.151   1.597   3.700
11854TIP3   OH235502   4.349   6.027   6.061
11854TIP3    H135503   4.343   5.933   6.045
11854TIP3    H235504   4.266   6.062   6.029
11855TIP3   OH235505   6.662   5.110   5.173
11855TIP3    H135506   6.596   5.111   5.243
11855TIP3    H235507   6.627   5.167   5.105
11856TIP3   OH235508   1.021   5.186   1.294
11856TIP3    H135509   1.096   5.148   1.341
11856TIP3    H235510   0.983   5.113   1.247
11857TIP3   OH235511   0.574   2.377   2.485
11857TIP3    H135512   0.585   2.385   2.580
11857TIP3    H235513   0.593   2.285   2.467
11858TIP3   OH235514   0.166   2.233   1.014
11858TIP3    H135515   0.183   2.181   1.093
11858TIP3    H235516   0.127   2.170   0.953
11859TIP3   OH235517   5.329   6.960   4.543
11859TIP3    H135518   5.302   7.040   4.497
11859TIP3    H235519   5.274   6.891   4.507
11860TIP3   OH235520   1.781   0.457   3.251
11860TIP3    H135521   1.692   0.449   3.217
11860TIP3    H235522   1.830   0.499   3.181
11861TIP3   OH235523   1.889   6.498   3.181
11861TIP3    H135524   1.923   6.539   3.261
11861TIP3    H235525   1.856   6.413   3.211
11862TIP3   OH235526   2.644   0.584   3.796
11862TIP3    H135527   2.638   0.526   3.872
11862TIP3    H235528   2.736   0.610   3.793
11863TIP3   OH235529   8.085   2.333   0.647
11863TIP3    H135530   8.176   2.317   0.672
11863TIP3    H235531   8.057   2.405   0.702
11864TIP3   OH235532   4.394   3.954   6.230
11864TIP3    H135533   4.432   3.909   6.305
11864TIP3    H235534   4.395   4.046   6.254
11865TIP3   OH235535   6.554   2.093   6.338
11865TIP3    H135536   6.555   2.123   6.247
11865TIP3    H235537   6.635   2.129   6.375
11866TIP3   OH235538   6.988   2.521   2.563
11866TIP3    H135539   7.041   2.453   2.522
11866TIP3    H235540   6.974   2.489   2.652
11867TIP3   OH235541   2.039   7.862   4.866
11867TIP3    H135542   2.099   7.805   4.817
11867TIP3    H235543   1.970   7.804   4.897
11868TIP3   OH235544   4.399   2.218   1.876
11868TIP3    H135545   4.309   2.201   1.904
11868TIP3    H235546   4.390   2.256   1.789
11869TIP3   OH235547   4.818   4.133   4.867
11869TIP3    H135548   4.911   4.109   4.872
11869TIP3    H235549   4.775   4.053   4.836
11870TIP3   OH235550   2.508   7.222   3.270
11870TIP3    H135551   2.565   7.285   3.314
11870TIP3    H235552   2.563   7.183   3.202
11871TIP3   OH235553   1.954   3.622   2.817
11871TIP3    H135554   2.044   3.656   2.811
11871TIP3    H235555   1.901   3.686   2.771
11872TIP3   OH235556   1.191   1.078   6.783
11872TIP3    H135557   1.281   1.104   6.763
11872TIP3    H235558   1.148   1.073   6.698
11873TIP3   OH235559   6.008   0.733   3.071
11873TIP3    H135560   6.065   0.706   2.999
11873TIP3    H235561   5.933   0.775   3.028
11874TIP3   OH235562   1.122   4.810   6.282
11874TIP3    H135563   1.213   4.793   6.309
11874TIP3    H235564   1.130   4.858   6.200
11875TIP3   OH235565   3.625   0.337   3.548
11875TIP3    H135566   3.591   0.414   3.594
11875TIP3    H235567   3.714   0.363   3.521
11876TIP3   OH235568   6.077   4.507   5.477
11876TIP3    H135569   6.029   4.438   5.431
11876TIP3    H235570   6.160   4.466   5.501
11877TIP3   OH235571   0.955   7.297   2.514
11877TIP3    H135572   1.022   7.349   2.559
11877TIP3    H235573   0.992   7.279   2.428
11878TIP3   OH235574   0.898   6.942   2.544
11878TIP3    H135575   0.855   7.011   2.493
11878TIP3    H235576   0.895   6.974   2.635
11879TIP3   OH235577   2.788   6.740   5.495
11879TIP3    H135578   2.801   6.834   5.486
11879TIP3    H235579   2.871   6.702   5.465
11880TIP3   OH235580   3.224   5.129   1.295
11880TIP3    H135581   3.297   5.134   1.233
11880TIP3    H235582   3.251   5.063   1.359
11881TIP3   OH235583   3.243   3.528   3.908
11881TIP3    H135584   3.176   3.504   3.972
11881TIP3    H235585   3.288   3.447   3.889
11882TIP3   OH235586   0.746   1.698   6.157
11882TIP3    H135587   0.766   1.790   6.142
11882TIP3    H235588   0.830   1.653   6.141
11883TIP3   OH235589   3.824   2.381   2.889
11883TIP3    H135590   3.823   2.349   2.798
11883TIP3    H235591   3.879   2.318   2.936
11884TIP3   OH235592   0.614   5.408   2.959
11884TIP3    H135593   0.607   5.316   2.985
11884TIP3    H235594   0.543   5.421   2.896
11885TIP3   OH235595   8.251   1.984   6.187
11885TIP3    H135596   8.198   2.027   6.254
11885TIP3    H235597   8.227   2.028   6.105
11886TIP3   OH235598   3.485   4.756   0.328
11886TIP3    H135599   3.439   4.682   0.366
11886TIP3    H235600   3.419   4.826   0.326
11887TIP3   OH235601   5.658   1.626   5.236
11887TIP3    H135602   5.630   1.691   5.172
11887TIP3    H235603   5.602   1.642   5.312
11888TIP3   OH235604   0.437   7.845   4.198
11888TIP3    H135605   0.481   7.899   4.132
11888TIP3    H235606   0.408   7.767   4.150
11889TIP3   OH235607   3.307   2.551   3.781
11889TIP3    H135608   3.365   2.550   3.857
11889TIP3    H235609   3.271   2.640   3.779
11890TIP3   OH235610   5.277   0.982   5.200
11890TIP3    H135611   5.284   1.078   5.205
11890TIP3    H235612   5.187   0.966   5.171
11891TIP3   OH235613   4.447   2.031   2.518
11891TIP3    H135614   4.371   1.987   2.481
11891TIP3    H235615   4.521   1.974   2.497
11892TIP3   OH235616   2.313   4.992   1.124
11892TIP3    H135617   2.274   4.931   1.187
11892TIP3    H235618   2.364   4.936   1.065
11893TIP3   OH235619   7.624   7.193   3.165
11893TIP3    H135620   7.628   7.111   3.116
11893TIP3    H235621   7.689   7.249   3.123
11894TIP3   OH235622   2.812   0.737   4.686
11894TIP3    H135623   2.888   0.794   4.691
11894TIP3    H235624   2.847   0.649   4.704
11895TIP3   OH235625   6.767   4.409   6.510
11895TIP3    H135626   6.847   4.437   6.467
11895TIP3    H235627   6.700   4.412   6.441
11896TIP3   OH235628   6.419   1.670   5.319
11896TIP3    H135629   6.375   1.670   5.234
11896TIP3    H235630   6.506   1.706   5.301
11897TIP3   OH235631   6.986   0.451   4.367
11897TIP3    H135632   6.939   0.411   4.440
11897TIP3    H235633   7.013   0.377   4.313
11898TIP3   OH235634   6.306   5.581   0.092
11898TIP3    H135635   6.229   5.632   0.116
11898TIP3    H235636   6.288   5.550   0.003
11899TIP3   OH235637   2.735   7.718   0.244
11899TIP3    H135638   2.820   7.696   0.205
11899TIP3    H235639   2.689   7.767   0.175
11900TIP3   OH235640   2.975   3.060   1.201
11900TIP3    H135641   3.026   2.997   1.151
11900TIP3    H235642   2.989   3.035   1.293
11901TIP3   OH235643   1.478   4.828   4.201
11901TIP3    H135644   1.536   4.864   4.268
11901TIP3    H235645   1.390   4.852   4.231
11902TIP3   OH235646   3.157   6.299   2.970
11902TIP3    H135647   3.080   6.354   2.983
11902TIP3    H235648   3.231   6.355   2.991
11903TIP3   OH235649   3.152   2.349   4.654
11903TIP3    H135650   3.245   2.369   4.664
11903TIP3    H235651   3.127   2.308   4.738
11904TIP3   OH235652   6.187   2.252   2.298
11904TIP3    H135653   6.257   2.313   2.273
11904TIP3    H235654   6.132   2.302   2.357
11905TIP3   OH235655   7.168   6.088   6.829
11905TIP3    H135656   7.084   6.104   6.872
11905TIP3    H235657   7.157   6.003   6.786
11906TIP3   OH235658   1.775   2.388   4.270
11906TIP3    H135659   1.846   2.399   4.333
11906TIP3    H235660   1.756   2.476   4.239
11907TIP3   OH235661   2.896   7.435   2.596
11907TIP3    H135662   2.816   7.463   2.641
11907TIP3    H235663   2.948   7.393   2.664
11908TIP3   OH235664   7.647   2.655   1.371
11908TIP3    H135665   7.684   2.661   1.459
11908TIP3    H235666   7.681   2.572   1.336
11909TIP3   OH235667   5.646   5.329   6.644
11909TIP3    H135668   5.699   5.408   6.633
11909TIP3    H235669   5.710   5.260   6.659
11910TIP3   OH235670   6.857   0.053   5.649
11910TIP3    H135671   6.785   0.100   5.691
11910TIP3    H235672   6.824  -0.037   5.638
11911TIP3   OH235673   6.555   0.146   3.686
11911TIP3    H135674   6.604   0.084   3.632
11911TIP3    H235675   6.622   0.195   3.733
11912TIP3   OH235676   3.878   7.002   3.772
11912TIP3    H135677   3.873   6.923   3.718
11912TIP3    H235678   3.917   7.067   3.715
11913TIP3   OH235679   4.508   6.862   5.445
11913TIP3    H135680   4.456   6.798   5.494
11913TIP3    H235681   4.443   6.911   5.394
11914TIP3   OH235682   0.929   2.812   4.145
11914TIP3    H135683   0.897   2.901   4.163
11914TIP3    H235684   0.930   2.769   4.230
11915TIP3   OH235685   2.373   0.830   4.033
11915TIP3    H135686   2.460   0.830   4.072
11915TIP3    H235687   2.348   0.738   4.028
11916TIP3   OH235688   2.807   0.384   6.262
11916TIP3    H135689   2.895   0.349   6.245
11916TIP3    H235690   2.777   0.337   6.340
11917TIP3   OH235691   3.173   2.993   6.466
11917TIP3    H135692   3.213   3.071   6.428
11917TIP3    H235693   3.176   3.007   6.560
11918TIP3   OH235694   7.135   3.388   0.677
11918TIP3    H135695   7.179   3.444   0.741
11918TIP3    H235696   7.088   3.324   0.731
11919TIP3   OH235697   0.698   1.064   2.304
11919TIP3    H135698   0.646   1.035   2.229
11919TIP3    H235699   0.752   1.135   2.270
11920TIP3   OH235700   6.000   5.092   6.180
11920TIP3    H135701   5.932   5.051   6.126
11920TIP3    H235702   5.975   5.069   6.270
11921TIP3   OH235703   6.103   3.723   0.630
11921TIP3    H135704   6.127   3.648   0.576
11921TIP3    H235705   6.172   3.787   0.613
11922TIP3   OH235706   7.939   4.610   5.285
11922TIP3    H135707   7.893   4.645   5.361
11922TIP3    H235708   7.895   4.527   5.266
11923TIP3   OH235709   2.006   1.148   3.905
11923TIP3    H135710   2.006   1.151   4.000
11923TIP3    H235711   2.069   1.079   3.883
11924TIP3   OH235712   8.374   2.421   5.708
11924TIP3    H135713   8.285   2.387   5.693
11924TIP3    H235714   8.422   2.348   5.746
11925TIP3   OH235715   6.362   5.284   5.760
11925TIP3    H135716   6.395   5.243   5.680
11925TIP3    H235717   6.326   5.211   5.810
11926TIP3   OH235718   3.958   5.039   4.431
11926TIP3    H135719   3.874   5.082   4.445
11926TIP3    H235720   3.980   4.999   4.515
11927TIP3   OH235721   1.702   5.279   4.469
11927TIP3    H135722   1.609   5.277   4.448
11927TIP3    H235723   1.708   5.336   4.546
11928TIP3   OH235724   5.375   4.088   3.706
11928TIP3    H135725   5.437   4.134   3.763
11928TIP3    H235726   5.394   3.995   3.719
11929TIP3   OH235727   4.772   3.502   3.381
11929TIP3    H135728   4.768   3.559   3.457
11929TIP3    H235729   4.819   3.552   3.315
11930TIP3   OH235730   1.647   6.843   5.628
11930TIP3    H135731   1.712   6.785   5.588
11930TIP3    H235732   1.663   6.835   5.722
11931TIP3   OH235733   0.456   7.131   5.832
11931TIP3    H135734   0.377   7.098   5.789
11931TIP3    H235735   0.425   7.202   5.887
11932TIP3   OH235736   0.228   5.358   3.352
11932TIP3    H135737   0.194   5.326   3.268
11932TIP3    H235738   0.323   5.347   3.345
11933TIP3   OH235739   1.115   2.345   4.828
11933TIP3    H135740   1.174   2.271   4.815
11933TIP3    H235741   1.044   2.310   4.882
11934TIP3   OH235742   5.906   2.672   3.371
11934TIP3    H135743   5.952   2.754   3.351
11934TIP3    H235744   5.967   2.603   3.345
11935TIP3   OH235745   7.603   3.313   0.224
11935TIP3    H135746   7.698   3.302   0.218
11935TIP3    H235747   7.567   3.235   0.182
11936TIP3   OH235748   6.268   7.584   3.408
11936TIP3    H135749   6.313   7.668   3.400
11936TIP3    H235750   6.184   7.597   3.364
11937TIP3   OH235751   2.422   7.187   4.182
11937TIP3    H135752   2.475   7.112   4.158
11937TIP3    H235753   2.422   7.188   4.278
11938TIP3   OH235754   3.449   6.972   3.363
11938TIP3    H135755   3.420   6.938   3.279
11938TIP3    H235756   3.378   7.031   3.390
11939TIP3   OH235757   0.586   6.504   5.740
11939TIP3    H135758   0.669   6.473   5.704
11939TIP3    H235759   0.519   6.457   5.690
11940TIP3   OH235760   3.438   4.268   3.591
11940TIP3    H135761   3.438   4.190   3.535
11940TIP3    H235762   3.354   4.310   3.573
11941TIP3   OH235763   4.004   5.271   1.248
11941TIP3    H135764   4.097   5.256   1.237
11941TIP3    H235765   3.968   5.187   1.275
11942TIP3   OH235766   4.800   7.474   3.420
11942TIP3    H135767   4.808   7.401   3.359
11942TIP3    H235768   4.793   7.432   3.506
11943TIP3   OH235769   7.665   0.477   4.086
11943TIP3    H135770   7.746   0.462   4.136
11943TIP3    H235771   7.682   0.438   4.001
11944TIP3   OH235772   1.369   1.968   1.547
11944TIP3    H135773   1.365   1.879   1.512
11944TIP3    H235774   1.297   1.973   1.610
11945TIP3   OH235775   3.110   1.371   0.425
11945TIP3    H135776   3.037   1.422   0.458
11945TIP3    H235777   3.183   1.393   0.483
11946TIP3   OH235778   5.215   5.329   5.433
11946TIP3    H135779   5.255   5.413   5.452
11946TIP3    H235780   5.143   5.349   5.374
11947TIP3   OH235781   5.607   6.309   4.174
11947TIP3    H135782   5.602   6.392   4.222
11947TIP3    H235783   5.525   6.264   4.195
11948TIP3   OH235784   7.651   0.046   2.157
11948TIP3    H135785   7.617  -0.004   2.082
11948TIP3    H235786   7.715  -0.012   2.197
11949TIP3   OH235787   0.869   4.291   2.287
11949TIP3    H135788   0.908   4.306   2.200
11949TIP3    H235789   0.842   4.378   2.316
11950TIP3   OH235790   0.957   2.766   1.666
11950TIP3    H135791   0.866   2.757   1.635
11950TIP3    H235792   0.984   2.852   1.634
11951TIP3   OH235793   1.380   4.146   6.625
11951TIP3    H135794   1.304   4.109   6.670
11951TIP3    H235795   1.454   4.126   6.683
11952TIP3   OH235796   8.197   4.524   5.905
11952TIP3    H135797   8.271   4.466   5.892
11952TIP3    H235798   8.213   4.597   5.845
11953TIP3   OH235799   1.239   2.863   4.467
11953TIP3    H135800   1.206   2.836   4.553
11953TIP3    H235801   1.262   2.781   4.424
11954TIP3   OH235802   2.074   2.990   5.568
11954TIP3    H135803   2.071   3.031   5.481
11954TIP3    H235804   2.167   2.980   5.587
11955TIP3   OH235805   4.773   7.065   6.327
11955TIP3    H135806   4.686   7.027   6.314
11955TIP3    H235807   4.774   7.143   6.272
11956TIP3   OH235808   6.740   3.118   1.858
11956TIP3    H135809   6.751   3.207   1.892
11956TIP3    H235810   6.682   3.129   1.782
11957TIP3   OH235811   0.515   1.339   1.226
11957TIP3    H135812   0.431   1.313   1.189
11957TIP3    H235813   0.530   1.428   1.195
11958TIP3   OH235814   3.373   1.747   3.313
11958TIP3    H135815   3.278   1.743   3.329
11958TIP3    H235816   3.381   1.761   3.219
11959TIP3   OH235817   5.078   0.410   5.760
11959TIP3    H135818   5.043   0.328   5.727
11959TIP3    H235819   5.172   0.405   5.742
11960TIP3   OH235820   8.070   3.485   2.758
11960TIP3    H135821   8.098   3.563   2.709
11960TIP3    H235822   7.985   3.509   2.795
11961TIP3   OH235823   1.135   2.043   3.909
11961TIP3    H135824   1.185   2.120   3.935
11961TIP3    H235825   1.190   2.000   3.843
11962TIP3   OH235826   3.685   2.160   0.338
11962TIP3    H135827   3.668   2.203   0.422
11962TIP3    H235828   3.673   2.067   0.356
11963TIP3   OH235829   3.966   7.708   4.242
11963TIP3    H135830   3.959   7.613   4.251
11963TIP3    H235831   3.945   7.742   4.329
11964TIP3   OH235832   0.347   2.775   3.000
11964TIP3    H135833   0.278   2.783   3.065
11964TIP3    H235834   0.412   2.717   3.041
11965TIP3   OH235835   6.117   4.639   3.949
11965TIP3    H135836   6.044   4.612   3.894
11965TIP3    H235837   6.135   4.729   3.923
11966TIP3   OH235838   1.879   4.728   2.277
11966TIP3    H135839   1.807   4.681   2.235
11966TIP3    H235840   1.851   4.819   2.278
11967TIP3   OH235841   8.243   2.635   5.560
11967TIP3    H135842   8.261   2.577   5.634
11967TIP3    H235843   8.203   2.713   5.599
11968TIP3   OH235844   6.357   1.981   4.680
11968TIP3    H135845   6.335   1.907   4.737
11968TIP3    H235846   6.302   1.968   4.603
11969TIP3   OH235847   5.354   4.841   2.785
11969TIP3    H135848   5.375   4.854   2.878
11969TIP3    H235849   5.354   4.930   2.749
11970TIP3   OH235850   7.998   4.702   4.041
11970TIP3    H135851   7.909   4.693   4.008
11970TIP3    H235852   8.003   4.643   4.116
11971TIP3   OH235853   6.056   5.552   1.634
11971TIP3    H135854   6.045   5.578   1.543
11971TIP3    H235855   5.967   5.541   1.667
11972TIP3   OH235856   5.720   7.602   0.605
11972TIP3    H135857   5.634   7.643   0.599
11972TIP3    H235858   5.715   7.546   0.682
11973TIP3   OH235859   0.745   6.906   4.235
11973TIP3    H135860   0.763   6.879   4.145
11973TIP3    H235861   0.650   6.915   4.240
11974TIP3   OH235862   2.740   1.435   6.068
11974TIP3    H135863   2.730   1.373   5.996
11974TIP3    H235864   2.792   1.388   6.133
11975TIP3   OH235865   1.251   4.855   4.588
11975TIP3    H135866   1.183   4.833   4.651
11975TIP3    H235867   1.216   4.828   4.503
11976TIP3   OH235868   7.541   0.944   4.331
11976TIP3    H135869   7.496   0.929   4.248
11976TIP3    H235870   7.619   0.994   4.307
11977TIP3   OH235871   4.025   2.009   4.672
11977TIP3    H135872   4.059   2.092   4.705
11977TIP3    H235873   3.931   2.025   4.660
11978TIP3   OH235874   4.301   3.901   4.755
11978TIP3    H135875   4.269   3.889   4.665
11978TIP3    H235876   4.255   3.978   4.787
11979TIP3   OH235877   5.974   6.929   2.831
11979TIP3    H135878   5.998   6.880   2.752
11979TIP3    H235879   6.056   6.972   2.856
11980TIP3   OH235880   3.818   6.588   6.018
11980TIP3    H135881   3.906   6.624   6.003
11980TIP3    H235882   3.761   6.641   5.963
11981TIP3   OH235883   4.777   6.319   3.613
11981TIP3    H135884   4.709   6.252   3.615
11981TIP3    H235885   4.827   6.301   3.534
11982TIP3   OH235886   8.364   1.511   3.407
11982TIP3    H135887   8.340   1.554   3.326
11982TIP3    H235888   8.376   1.419   3.383
11983TIP3   OH235889   8.187   4.857   2.686
11983TIP3    H135890   8.230   4.776   2.713
11983TIP3    H235891   8.253   4.903   2.634
11984TIP3   OH235892   2.780   2.290   4.463
11984TIP3    H135893   2.689   2.314   4.446
11984TIP3    H235894   2.775   2.205   4.506
11985TIP3   OH235895   3.463   1.492   1.810
11985TIP3    H135896   3.395   1.441   1.766
11985TIP3    H235897   3.457   1.579   1.771
11986TIP3   OH235898   7.242   1.670   1.060
11986TIP3    H135899   7.198   1.593   1.024
11986TIP3    H235900   7.289   1.637   1.137
11987TIP3   OH235901   5.633   4.391   4.643
11987TIP3    H135902   5.585   4.316   4.678
11987TIP3    H235903   5.569   4.463   4.647
11988TIP3   OH235904   0.162   4.065   6.176
11988TIP3    H135905   0.099   4.088   6.244
11988TIP3    H235906   0.153   4.134   6.110
11989TIP3   OH235907   1.425   5.086   1.185
11989TIP3    H135908   1.359   5.155   1.195
11989TIP3    H235909   1.375   5.008   1.161
11990TIP3   OH235910   0.273   4.600   5.660
11990TIP3    H135911   0.249   4.688   5.691
11990TIP3    H235912   0.369   4.598   5.668
11991TIP3   OH235913   2.575   4.724   0.054
11991TIP3    H135914   2.604   4.651   0.109
11991TIP3    H235915   2.517   4.683  -0.011
11992TIP3   OH235916   4.538   5.241   3.214
11992TIP3    H135917   4.481   5.294   3.158
11992TIP3    H235918   4.609   5.213   3.156
11993TIP3   OH235919   5.123   4.645   3.592
11993TIP3    H135920   5.192   4.613   3.534
11993TIP3    H235921   5.113   4.738   3.569
11994TIP3   OH235922   7.112   4.794   3.488
11994TIP3    H135923   7.190   4.839   3.520
11994TIP3    H235924   7.127   4.784   3.394
11995TIP3   OH235925   3.211   5.563   1.073
11995TIP3    H135926   3.144   5.609   1.123
11995TIP3    H235927   3.163   5.497   1.023
11996TIP3   OH235928   4.051   7.454   6.321
11996TIP3    H135929   4.102   7.410   6.389
11996TIP3    H235930   4.100   7.438   6.241
11997TIP3   OH235931   6.971   1.359   3.942
11997TIP3    H135932   7.020   1.298   3.886
11997TIP3    H235933   6.884   1.319   3.949
11998TIP3   OH235934   7.765   7.862   5.536
11998TIP3    H135935   7.820   7.941   5.534
11998TIP3    H235936   7.702   7.875   5.465
11999TIP3   OH235937   3.613   6.291   1.990
11999TIP3    H135938   3.647   6.361   2.045
11999TIP3    H235939   3.520   6.286   2.012
12000TIP3   OH235940   4.965   0.717   3.607
12000TIP3    H135941   4.926   0.672   3.532
12000TIP3    H235942   4.894   0.720   3.672
12001TIP3   OH235943   4.124   2.733   3.875
12001TIP3    H135944   4.207   2.702   3.839
12001TIP3    H235945   4.096   2.803   3.815
12002TIP3   OH235946   4.397   6.190   5.110
12002TIP3    H135947   4.316   6.140   5.110
12002TIP3    H235948   4.398   6.235   5.026
12003TIP3   OH235949   8.270   0.612   3.810
12003TIP3    H135950   8.245   0.643   3.897
12003TIP3    H235951   8.187   0.602   3.764
12004TIP3   OH235952   1.970   0.135   0.425
12004TIP3    H135953   2.028   0.152   0.350
12004TIP3    H235954   1.901   0.079   0.390
12005TIP3   OH235955   8.305   6.663   6.007
12005TIP3    H135956   8.382   6.607   6.018
12005TIP3    H235957   8.286   6.658   5.913
12006TIP3   OH235958   1.341   0.404   0.883
12006TIP3    H135959   1.250   0.409   0.855
12006TIP3    H235960   1.383   0.479   0.840
12007TIP3   OH235961   7.699   6.741   3.861
12007TIP3    H135962   7.644   6.667   3.886
12007TIP3    H235963   7.740   6.713   3.779
12008TIP3   OH235964   5.674   6.560   6.405
12008TIP3    H135965   5.676   6.623   6.477
12008TIP3    H235966   5.658   6.475   6.448
12009TIP3   OH235967   3.711   0.581   2.285
12009TIP3    H135968   3.664   0.500   2.303
12009TIP3    H235969   3.774   0.590   2.357
12010TIP3   OH235970   1.997   2.112   3.590
12010TIP3    H135971   2.072   2.059   3.615
12010TIP3    H235972   1.949   2.126   3.671
12011TIP3   OH235973   5.729   2.476   5.958
12011TIP3    H135974   5.767   2.391   5.979
12011TIP3    H235975   5.720   2.520   6.043
12012TIP3   OH235976   5.108   3.170   3.188
12012TIP3    H135977   5.050   3.148   3.261
12012TIP3    H235978   5.178   3.222   3.229
12013TIP3   OH235979   1.540   2.857   6.125
12013TIP3    H135980   1.468   2.888   6.181
12013TIP3    H235981   1.608   2.923   6.135
12014TIP3   OH235982   3.629   6.307   0.642
12014TIP3    H135983   3.609   6.400   0.655
12014TIP3    H235984   3.640   6.298   0.547
12015TIP3   OH235985   4.558   3.975   4.748
12015TIP3    H135986   4.483   3.918   4.733
12015TIP3    H235987   4.622   3.919   4.793
12016TIP3   OH235988   6.603   0.341   4.769
12016TIP3    H135989   6.685   0.293   4.782
12016TIP3    H235990   6.534   0.275   4.780
12017TIP3   OH235991   5.992   3.829   1.206
12017TIP3    H135992   6.011   3.910   1.159
12017TIP3    H235993   5.979   3.764   1.136
12018TIP3   OH235994   3.609   2.163   2.960
12018TIP3    H135995   3.601   2.209   2.877
12018TIP3    H235996   3.686   2.203   3.002
12019TIP3   OH235997   0.327   3.558   1.667
12019TIP3    H135998   0.411   3.515   1.653
12019TIP3    H235999   0.320   3.568   1.762
12020TIP3   OH236000   0.248   5.581   5.186
12020TIP3    H136001   0.248   5.488   5.167
12020TIP3    H236002   0.331   5.597   5.230
12021TIP3   OH236003   4.075   3.346   1.102
12021TIP3    H136004   3.996   3.310   1.063
12021TIP3    H236005   4.143   3.281   1.083
12022TIP3   OH236006   2.765   7.716   0.515
12022TIP3    H136007   2.738   7.720   0.423
12022TIP3    H236008   2.840   7.775   0.521
12023TIP3   OH236009   7.364   1.504   4.230
12023TIP3    H136010   7.458   1.486   4.219
12023TIP3    H236011   7.326   1.420   4.253
12024TIP3   OH236012   8.145   4.467   6.506
12024TIP3    H136013   8.155   4.535   6.439
12024TIP3    H236014   8.129   4.515   6.587
12025TIP3   OH236015   0.228   2.135   3.672
12025TIP3    H136016   0.186   2.209   3.628
12025TIP3    H236017   0.273   2.174   3.747
12026TIP3   OH236018   1.316   4.275   4.171
12026TIP3    H136019   1.410   4.261   4.188
12026TIP3    H236020   1.308   4.369   4.155
12027TIP3   OH236021   2.067   3.765   1.435
12027TIP3    H136022   1.977   3.737   1.418
12027TIP3    H236023   2.094   3.715   1.512
12028TIP3   OH236024   5.324   3.183   2.066
12028TIP3    H136025   5.412   3.184   2.029
12028TIP3    H236026   5.322   3.105   2.120
12029TIP3   OH236027   4.707   4.342   0.120
12029TIP3    H136028   4.761   4.312   0.047
12029TIP3    H236029   4.631   4.383   0.079
12030TIP3   OH236030   4.659   6.656   0.498
12030TIP3    H136031   4.710   6.575   0.501
12030TIP3    H236032   4.638   6.674   0.589
12031TIP3   OH236033   4.882   1.259   3.197
12031TIP3    H136034   4.883   1.164   3.204
12031TIP3    H236035   4.828   1.287   3.271
12032TIP3   OH236036   4.997   2.621   5.697
12032TIP3    H136037   5.051   2.637   5.774
12032TIP3    H236038   4.917   2.669   5.714
12033TIP3   OH236039   4.709   3.899   4.083
12033TIP3    H136040   4.683   3.949   4.006
12033TIP3    H236041   4.805   3.907   4.086
12034TIP3   OH236042   7.027   1.303   3.489
12034TIP3    H136043   6.954   1.270   3.542
12034TIP3    H236044   7.101   1.305   3.549
12035TIP3   OH236045   5.737   7.714   2.237
12035TIP3    H136046   5.777   7.731   2.323
12035TIP3    H236047   5.779   7.775   2.178
12036TIP3   OH236048   2.122   3.577   5.063
12036TIP3    H136049   2.066   3.546   5.135
12036TIP3    H236050   2.172   3.500   5.037
12037TIP3   OH236051   6.341   6.208   1.110
12037TIP3    H136052   6.432   6.179   1.109
12037TIP3    H236053   6.342   6.288   1.163
12038TIP3   OH236054   4.623   4.289   3.521
12038TIP3    H136055   4.533   4.316   3.502
12038TIP3    H236056   4.639   4.215   3.463
12039TIP3   OH236057   3.792   5.735   1.853
12039TIP3    H136058   3.830   5.655   1.889
12039TIP3    H236059   3.742   5.773   1.925
12040TIP3   OH236060   6.905   5.875   2.446
12040TIP3    H136061   6.948   5.954   2.477
12040TIP3    H236062   6.815   5.901   2.427
12041TIP3   OH236063   7.318   5.854   1.712
12041TIP3    H136064   7.245   5.838   1.772
12041TIP3    H236065   7.339   5.947   1.725
12042TIP3   OH236066   2.184   4.452   0.372
12042TIP3    H136067   2.127   4.449   0.448
12042TIP3    H236068   2.234   4.533   0.382
12043TIP3   OH236069   1.544   3.277   6.854
12043TIP3    H136070   1.570   3.362   6.819
12043TIP3    H236071   1.623   3.223   6.846
12044TIP3   OH236072   2.897   6.692   1.324
12044TIP3    H136073   2.929   6.648   1.402
12044TIP3    H236074   2.926   6.638   1.251
12045TIP3   OH236075   5.165   4.918   3.541
12045TIP3    H136076   5.155   5.009   3.570
12045TIP3    H236077   5.085   4.898   3.494
12046TIP3   OH236078   0.293   4.643   1.524
12046TIP3    H136079   0.380   4.618   1.555
12046TIP3    H236080   0.301   4.647   1.429
12047TIP3   OH236081   7.191   7.622   0.224
12047TIP3    H136082   7.124   7.565   0.262
12047TIP3    H236083   7.142   7.694   0.185
12048TIP3   OH236084   1.736   5.990   0.104
12048TIP3    H136085   1.646   5.987   0.135
12048TIP3    H236086   1.768   6.076   0.130
12049TIP3   OH236087   0.121   1.863   2.558
12049TIP3    H136088   0.204   1.894   2.521
12049TIP3    H236089   0.147   1.803   2.628
12050TIP3   OH236090   5.950   1.990   4.772
12050TIP3    H136091   5.977   2.063   4.716
12050TIP3    H236092   5.942   2.029   4.859
12051TIP3   OH236093   6.112   5.410   0.263
12051TIP3    H136094   6.109   5.366   0.178
12051TIP3    H236095   6.202   5.444   0.269
12052TIP3   OH236096   6.364   1.851   1.718
12052TIP3    H136097   6.369   1.945   1.735
12052TIP3    H236098   6.326   1.845   1.631
12053TIP3   OH236099   5.879   2.265   0.198
12053TIP3    H136100   5.873   2.297   0.108
12053TIP3    H236101   5.929   2.333   0.243
12054TIP3   OH236102   2.248   4.221   1.959
12054TIP3    H136103   2.208   4.148   2.006
12054TIP3    H236104   2.341   4.215   1.979
12055TIP3   OH236105   0.481   1.060   1.757
12055TIP3    H136106   0.439   1.035   1.675
12055TIP3    H236107   0.457   1.152   1.770
12056TIP3   OH236108   0.719   7.516   4.499
12056TIP3    H136109   0.803   7.506   4.454
12056TIP3    H236110   0.714   7.609   4.521
12057TIP3   OH236111   5.312   7.157   5.818
12057TIP3    H136112   5.225   7.166   5.779
12057TIP3    H236113   5.311   7.071   5.860
12058TIP3   OH236114   0.450   2.897   4.052
12058TIP3    H136115   0.429   2.984   4.019
12058TIP3    H236116   0.408   2.837   3.990
12059TIP3   OH236117   0.800   7.247   6.033
12059TIP3    H136118   0.750   7.206   6.104
12059TIP3    H236119   0.849   7.175   5.994
12060TIP3   OH236120   3.194   2.179   6.608
12060TIP3    H136121   3.109   2.212   6.580
12060TIP3    H236122   3.229   2.135   6.531
12061TIP3   OH236123   1.332   3.003   0.293
12061TIP3    H136124   1.356   2.960   0.375
12061TIP3    H236125   1.366   3.092   0.302
12062TIP3   OH236126   2.910   7.565   0.097
12062TIP3    H136127   2.994   7.588   0.137
12062TIP3    H236128   2.925   7.575   0.003
12063TIP3   OH236129   7.029   0.521   5.960
12063TIP3    H136130   7.101   0.576   5.990
12063TIP3    H236131   7.070   0.436   5.942
12064TIP3   OH236132   6.907   3.367   5.090
12064TIP3    H136133   6.981   3.376   5.151
12064TIP3    H236134   6.844   3.313   5.137
12065TIP3   OH236135   1.667   1.010   3.243
12065TIP3    H136136   1.705   0.926   3.270
12065TIP3    H236137   1.602   1.030   3.311
12066TIP3   OH236138   4.790   1.153   4.021
12066TIP3    H136139   4.796   1.105   4.103
12066TIP3    H236140   4.754   1.090   3.959
12067TIP3   OH236141   8.180   4.324   2.118
12067TIP3    H136142   8.095   4.359   2.093
12067TIP3    H236143   8.166   4.230   2.127
12068TIP3   OH236144   1.922   7.533   1.132
12068TIP3    H136145   1.993   7.469   1.132
12068TIP3    H236146   1.843   7.481   1.117
12069TIP3   OH236147   5.003   0.779   4.118
12069TIP3    H136148   5.030   0.865   4.086
12069TIP3    H236149   5.074   0.720   4.093
12070TIP3   OH236150   2.678   1.670   3.831
12070TIP3    H136151   2.634   1.754   3.816
12070TIP3    H236152   2.608   1.606   3.826
12071TIP3   OH236153   3.614   1.836   2.539
12071TIP3    H136154   3.646   1.790   2.616
12071TIP3    H236155   3.661   1.920   2.540
12072TIP3   OH236156   4.145   0.823   2.040
12072TIP3    H136157   4.207   0.869   2.097
12072TIP3    H236158   4.076   0.792   2.100
12073TIP3   OH236159   6.190   1.770   4.775
12073TIP3    H136160   6.158   1.855   4.804
12073TIP3    H236161   6.131   1.746   4.704
12074TIP3   OH236162   1.155   5.554   5.098
12074TIP3    H136163   1.176   5.607   5.175
12074TIP3    H236164   1.063   5.530   5.109
12075TIP3   OH236165   1.297   7.407   5.343
12075TIP3    H136166   1.306   7.312   5.340
12075TIP3    H236167   1.290   7.434   5.251
12076TIP3   OH236168   0.869   5.594   5.146
12076TIP3    H136169   0.841   5.546   5.225
12076TIP3    H236170   0.894   5.680   5.178
12077TIP3   OH236171   6.771   0.358   4.164
12077TIP3    H136172   6.849   0.338   4.217
12077TIP3    H236173   6.699   0.318   4.211
12078TIP3   OH236174   5.537   5.876   0.860
12078TIP3    H136175   5.516   5.876   0.767
12078TIP3    H236176   5.630   5.894   0.864
12079TIP3   OH236177   5.159   7.560   1.883
12079TIP3    H136178   5.222   7.607   1.937
12079TIP3    H236179   5.103   7.514   1.946
12080TIP3   OH236180   1.735   2.419   3.518
12080TIP3    H136181   1.715   2.504   3.558
12080TIP3    H236182   1.808   2.438   3.459
12081TIP3   OH236183   4.201   2.303   3.598
12081TIP3    H136184   4.192   2.396   3.579
12081TIP3    H236185   4.266   2.271   3.535
12082TIP3   OH236186   4.687   0.235   5.621
12082TIP3    H136187   4.699   0.244   5.715
12082TIP3    H236188   4.776   0.224   5.586
12083TIP3   OH236189   6.702   6.978   2.012
12083TIP3    H136190   6.727   7.060   1.969
12083TIP3    H236191   6.767   6.915   1.981
12084TIP3   OH236192   6.200   6.114   1.881
12084TIP3    H136193   6.208   6.208   1.862
12084TIP3    H236194   6.110   6.102   1.909
12085TIP3   OH236195   1.174   2.844   2.440
12085TIP3    H136196   1.194   2.752   2.426
12085TIP3    H236197   1.187   2.885   2.354
12086TIP3   OH236198   5.604   3.931   0.297
12086TIP3    H136199   5.693   3.896   0.304
12086TIP3    H236200   5.573   3.899   0.212
12087TIP3   OH236201   7.628   6.432   6.741
12087TIP3    H136202   7.671   6.359   6.786
12087TIP3    H236203   7.571   6.390   6.676
12088TIP3   OH236204   7.868   0.432   6.467
12088TIP3    H136205   7.823   0.359   6.509
12088TIP3    H236206   7.942   0.391   6.421
12089TIP3   OH236207   3.248   5.069   4.916
12089TIP3    H136208   3.216   4.989   4.959
12089TIP3    H236209   3.330   5.042   4.875
12090TIP3   OH236210   0.555   4.577   3.020
12090TIP3    H136211   0.478   4.543   2.974
12090TIP3    H236212   0.599   4.499   3.054
12091TIP3   OH236213   3.508   1.892   2.043
12091TIP3    H136214   3.579   1.906   1.980
12091TIP3    H236215   3.429   1.914   1.995
12092TIP3   OH236216   0.458   5.770   6.359
12092TIP3    H136217   0.522   5.835   6.328
12092TIP3    H236218   0.437   5.797   6.448
12093TIP3   OH236219   3.516   3.379   3.919
12093TIP3    H136220   3.546   3.307   3.863
12093TIP3    H236221   3.513   3.340   4.007
12094TIP3   OH236222   3.317   5.740   1.384
12094TIP3    H136223   3.230   5.705   1.402
12094TIP3    H236224   3.340   5.704   1.298
12095TIP3   OH236225   2.373   3.857   4.928
12095TIP3    H136226   2.348   3.843   4.837
12095TIP3    H236227   2.378   3.952   4.938
12096TIP3   OH236228   2.316   0.189   3.698
12096TIP3    H136229   2.359   0.226   3.620
12096TIP3    H236230   2.263   0.117   3.664
12097TIP3   OH236231   0.431   2.540   6.514
12097TIP3    H136232   0.378   2.619   6.510
12097TIP3    H236233   0.413   2.495   6.431
12098TIP3   OH236234   2.193   7.528   0.436
12098TIP3    H136235   2.232   7.598   0.489
12098TIP3    H236236   2.266   7.490   0.388
12099TIP3   OH236237   3.979   0.431   1.729
12099TIP3    H136238   4.005   0.517   1.696
12099TIP3    H236239   3.889   0.444   1.759
12100TIP3   OH236240   0.964   6.791   4.823
12100TIP3    H136241   0.906   6.814   4.750
12100TIP3    H236242   0.943   6.699   4.843
12101TIP3   OH236243   3.732   5.369   5.182
12101TIP3    H136244   3.816   5.376   5.138
12101TIP3    H236245   3.708   5.460   5.202
12102TIP3   OH236246   2.896   4.070   5.338
12102TIP3    H136247   2.942   4.076   5.422
12102TIP3    H236248   2.842   3.991   5.346
12103TIP3   OH236249   7.556   4.259   0.978
12103TIP3    H136250   7.503   4.326   0.935
12103TIP3    H236251   7.579   4.297   1.063
12104TIP3   OH236252   6.770   1.466   6.602
12104TIP3    H136253   6.848   1.421   6.571
12104TIP3    H236254   6.731   1.504   6.523
12105TIP3   OH236255   4.407   7.203   0.904
12105TIP3    H136256   4.473   7.210   0.974
12105TIP3    H236257   4.450   7.153   0.835
12106TIP3   OH236258   1.537   1.140   5.323
12106TIP3    H136259   1.539   1.051   5.360
12106TIP3    H236260   1.580   1.131   5.238
12107TIP3   OH236261   8.114   4.246   4.117
12107TIP3    H136262   8.030   4.279   4.085
12107TIP3    H236263   8.166   4.325   4.129
12108TIP3   OH236264   1.195   3.490   5.447
12108TIP3    H136265   1.148   3.546   5.509
12108TIP3    H236266   1.212   3.547   5.372
12109TIP3   OH236267   7.781   1.651   2.521
12109TIP3    H136268   7.698   1.624   2.483
12109TIP3    H236269   7.777   1.747   2.522
12110TIP3   OH236270   2.592   7.122   6.397
12110TIP3    H136271   2.667   7.149   6.343
12110TIP3    H236272   2.521   7.180   6.371
12111TIP3   OH236273   2.459   4.156   4.952
12111TIP3    H136274   2.552   4.134   4.948
12111TIP3    H236275   2.452   4.242   4.910
12112TIP3   OH236276   4.745   3.751   1.442
12112TIP3    H136277   4.661   3.796   1.434
12112TIP3    H236278   4.810   3.818   1.418
12113TIP3   OH236279   5.092   1.542   5.930
12113TIP3    H136280   4.996   1.545   5.924
12113TIP3    H236281   5.119   1.489   5.855
12114TIP3   OH236282   6.383   2.286   1.819
12114TIP3    H136283   6.406   2.206   1.866
12114TIP3    H236284   6.290   2.299   1.838
12115TIP3   OH236285   5.914   1.072   4.651
12115TIP3    H136286   5.863   1.142   4.611
12115TIP3    H236287   6.005   1.098   4.637
12116TIP3   OH236288   1.068   4.090   6.718
12116TIP3    H136289   1.063   4.073   6.812
12116TIP3    H236290   1.096   4.007   6.680
12117TIP3   OH236291   7.160   3.632   4.876
12117TIP3    H136292   7.084   3.630   4.934
12117TIP3    H236293   7.123   3.642   4.788
12118TIP3   OH236294   1.896   5.718   5.857
12118TIP3    H136295   1.981   5.721   5.902
12118TIP3    H236296   1.916   5.746   5.767
12119TIP3   OH236297   7.135   0.135   1.002
12119TIP3    H136298   7.194   0.207   0.977
12119TIP3    H236299   7.116   0.151   1.094
12120TIP3   OH236300   0.410   3.627   6.615
12120TIP3    H136301   0.483   3.687   6.605
12120TIP3    H236302   0.432   3.574   6.691
12121TIP3   OH236303   1.122   0.369   3.333
12121TIP3    H136304   1.065   0.293   3.342
12121TIP3    H236305   1.203   0.344   3.378
12122TIP3   OH236306   7.406  -0.005   0.589
12122TIP3    H136307   7.400  -0.025   0.683
12122TIP3    H236308   7.448   0.082   0.587
12123TIP3   OH236309   0.455   5.401   1.561
12123TIP3    H136310   0.542   5.404   1.603
12123TIP3    H236311   0.447   5.311   1.529
12124TIP3   OH236312   0.759   2.010   4.672
12124TIP3    H136313   0.851   2.004   4.645
12124TIP3    H236314   0.711   1.966   4.601
12125TIP3   OH236315   0.720   3.850   3.672
12125TIP3    H136316   0.784   3.798   3.624
12125TIP3    H236317   0.669   3.786   3.721
12126TIP3   OH236318   1.725   3.862   2.548
12126TIP3    H136319   1.745   3.768   2.546
12126TIP3    H236320   1.638   3.869   2.509
12127TIP3   OH236321   3.092   7.341   6.534
12127TIP3    H136322   3.088   7.261   6.587
12127TIP3    H236323   3.003   7.353   6.501
12128TIP3   OH236324   7.697   4.543   6.330
12128TIP3    H136325   7.657   4.456   6.321
12128TIP3    H236326   7.791   4.526   6.337
12129TIP3   OH236327   0.707   1.524   3.055
12129TIP3    H136328   0.663   1.597   3.010
12129TIP3    H236329   0.671   1.445   3.015
12130TIP3   OH236330   1.012   0.965   6.324
12130TIP3    H136331   0.920   0.940   6.332
12130TIP3    H236332   1.039   0.927   6.240
12131TIP3   OH236333   7.996   1.664   4.669
12131TIP3    H136334   8.035   1.593   4.618
12131TIP3    H236335   7.982   1.734   4.606
12132TIP3   OH236336   3.643   4.452   2.450
12132TIP3    H136337   3.623   4.515   2.518
12132TIP3    H236338   3.713   4.397   2.487
12133TIP3   OH236339   4.405   2.699   5.146
12133TIP3    H136340   4.393   2.605   5.132
12133TIP3    H236341   4.500   2.710   5.155
12134TIP3   OH236342   7.768   2.872   4.565
12134TIP3    H136343   7.784   2.936   4.634
12134TIP3    H236344   7.791   2.788   4.605
12135TIP3   OH236345   5.589   1.754   3.978
12135TIP3    H136346   5.670   1.804   3.976
12135TIP3    H236347   5.538   1.789   3.905
12136TIP3   OH236348   5.728   0.890   2.156
12136TIP3    H136349   5.777   0.971   2.141
12136TIP3    H236350   5.794   0.828   2.187
12137TIP3   OH236351   2.336   3.807   5.209
12137TIP3    H136352   2.324   3.808   5.114
12137TIP3    H236353   2.391   3.730   5.226
12138TIP3   OH236354   7.165   3.714   2.030
12138TIP3    H136355   7.135   3.684   2.116
12138TIP3    H236356   7.235   3.653   2.006
12139TIP3   OH236357   3.123   6.454   3.268
12139TIP3    H136358   3.171   6.415   3.195
12139TIP3    H236359   3.191   6.489   3.326
12140TIP3   OH236360   1.394   3.146   0.004
12140TIP3    H136361   1.484   3.165   0.033
12140TIP3    H236362   1.342   3.218   0.039
12141TIP3   OH236363   6.527   5.141   1.015
12141TIP3    H136364   6.576   5.186   1.084
12141TIP3    H236365   6.444   5.189   1.011
12142TIP3   OH236366   2.578   1.610   5.118
12142TIP3    H136367   2.538   1.696   5.105
12142TIP3    H236368   2.592   1.604   5.212
12143TIP3   OH236369   1.190   7.358   5.043
12143TIP3    H136370   1.165   7.305   4.967
12143TIP3    H236371   1.177   7.299   5.118
12144TIP3   OH236372   6.873   7.839   1.603
12144TIP3    H136373   6.909   7.764   1.554
12144TIP3    H236374   6.785   7.850   1.568
12145TIP3   OH236375   5.367   2.207   1.497
12145TIP3    H136376   5.362   2.275   1.430
12145TIP3    H236377   5.460   2.183   1.500
12146TIP3   OH236378   2.449   1.161   1.634
12146TIP3    H136379   2.386   1.233   1.632
12146TIP3    H236380   2.446   1.128   1.724
12147TIP3   OH236381   4.418   5.522   4.107
12147TIP3    H136382   4.446   5.431   4.100
12147TIP3    H236383   4.492   5.567   4.146
12148TIP3   OH236384   5.179   6.885   2.428
12148TIP3    H136385   5.235   6.850   2.358
12148TIP3    H236386   5.229   6.959   2.463
12149TIP3   OH236387   6.528   3.500   3.571
12149TIP3    H136388   6.516   3.481   3.664
12149TIP3    H236389   6.504   3.418   3.527
12150TIP3   OH236390   7.394   1.448   6.712
12150TIP3    H136391   7.471   1.499   6.736
12150TIP3    H236392   7.349   1.432   6.795
12151TIP3   OH236393   3.351   5.378   0.702
12151TIP3    H136394   3.409   5.404   0.630
12151TIP3    H236395   3.392   5.414   0.781
12152TIP3   OH236396   2.308   6.031   6.811
12152TIP3    H136397   2.286   6.060   6.899
12152TIP3    H236398   2.278   6.102   6.754
12153TIP3   OH236399   4.971   0.950   5.072
12153TIP3    H136400   4.968   0.854   5.072
12153TIP3    H236401   5.022   0.972   4.994
12154TIP3   OH236402   3.280   0.499   1.859
12154TIP3    H136403   3.299   0.580   1.811
12154TIP3    H236404   3.247   0.439   1.792
12155TIP3   OH236405   5.771   7.426   5.608
12155TIP3    H136406   5.777   7.510   5.653
12155TIP3    H236407   5.778   7.361   5.678
12156TIP3   OH236408   6.171   7.761   5.272
12156TIP3    H136409   6.091   7.791   5.315
12156TIP3    H236410   6.241   7.783   5.333
12157TIP3   OH236411   1.357   0.440   6.221
12157TIP3    H136412   1.338   0.400   6.136
12157TIP3    H236413   1.422   0.383   6.261
12158TIP3   OH236414   7.928   3.785   5.344
12158TIP3    H136415   8.010   3.833   5.355
12158TIP3    H236416   7.875   3.840   5.285
12159TIP3   OH236417   7.123   1.999   5.834
12159TIP3    H136418   7.214   2.026   5.851
12159TIP3    H236419   7.129   1.942   5.757
12160TIP3   OH236420   3.505   5.659   2.288
12160TIP3    H136421   3.429   5.717   2.296
12160TIP3    H236422   3.487   5.588   2.349
12161TIP3   OH236423   1.604   2.369   6.278
12161TIP3    H136424   1.583   2.446   6.227
12161TIP3    H236425   1.633   2.403   6.363
12162TIP3   OH236426   0.050   2.109   5.329
12162TIP3    H136427   0.072   2.070   5.245
12162TIP3    H236428   0.112   2.069   5.391
12163TIP3   OH236429   5.567   0.218   3.472
12163TIP3    H136430   5.526   0.143   3.429
12163TIP3    H236431   5.647   0.233   3.423
12164TIP3   OH236432   3.626   5.780   5.826
12164TIP3    H136433   3.578   5.719   5.770
12164TIP3    H236434   3.560   5.812   5.888
12165TIP3   OH236435   3.161   6.105   1.718
12165TIP3    H136436   3.081   6.156   1.733
12165TIP3    H236437   3.131   6.024   1.678
12166TIP3   OH236438   3.993   5.492   1.443
12166TIP3    H136439   4.008   5.410   1.396
12166TIP3    H236440   4.068   5.547   1.422
12167TIP3   OH236441   8.080   0.385   1.887
12167TIP3    H136442   8.144   0.407   1.954
12167TIP3    H236443   7.996   0.393   1.930
12168TIP3   OH236444   0.135   2.356   2.042
12168TIP3    H136445   0.144   2.420   1.970
12168TIP3    H236446   0.209   2.376   2.100
12169TIP3   OH236447   4.920   7.913   4.900
12169TIP3    H136448   4.937   7.820   4.883
12169TIP3    H236449   4.962   7.929   4.985
12170TIP3   OH236450   0.783   1.883   1.837
12170TIP3    H136451   0.705   1.839   1.871
12170TIP3    H236452   0.857   1.834   1.873
12171TIP3   OH236453   8.402   6.333   5.624
12171TIP3    H136454   8.335   6.325   5.692
12171TIP3    H236455   8.442   6.246   5.621
12172TIP3   OH236456   4.648   2.408   4.989
12172TIP3    H136457   4.616   2.320   4.972
12172TIP3    H236458   4.729   2.395   5.039
12173TIP3   OH236459   2.521   0.661   5.188
12173TIP3    H136460   2.464   0.611   5.247
12173TIP3    H236461   2.523   0.750   5.225
12174TIP3   OH236462   6.894   6.445   2.572
12174TIP3    H136463   6.839   6.393   2.514
12174TIP3    H236464   6.939   6.380   2.626
12175TIP3   OH236465   3.998   0.088   0.253
12175TIP3    H136466   3.946   0.015   0.221
12175TIP3    H236467   4.088   0.055   0.252
12176TIP3   OH236468   0.950   6.819   5.125
12176TIP3    H136469   0.862   6.794   5.156
12176TIP3    H236470   0.941   6.823   5.030
12177TIP3   OH236471   3.010   5.356   4.417
12177TIP3    H136472   2.946   5.380   4.485
12177TIP3    H236473   3.075   5.426   4.420
12178TIP3   OH236474   6.346   2.970   1.296
12178TIP3    H136475   6.437   2.943   1.310
12178TIP3    H236476   6.337   3.052   1.345
12179TIP3   OH236477   2.331   2.547   1.188
12179TIP3    H136478   2.397   2.495   1.142
12179TIP3    H236479   2.312   2.619   1.129
12180TIP3   OH236480   1.782   7.013   2.365
12180TIP3    H136481   1.755   6.922   2.353
12180TIP3    H236482   1.848   7.009   2.435
12181TIP3   OH236483   1.615   3.483   5.805
12181TIP3    H136484   1.588   3.393   5.822
12181TIP3    H236485   1.556   3.514   5.736
12182TIP3   OH236486   1.310   7.786   2.013
12182TIP3    H136487   1.405   7.771   2.008
12182TIP3    H236488   1.278   7.714   2.067
12183TIP3   OH236489   3.851   1.017   3.554
12183TIP3    H136490   3.863   1.068   3.634
12183TIP3    H236491   3.907   0.940   3.566
12184TIP3   OH236492   0.514   4.173   4.104
12184TIP3    H136493   0.604   4.171   4.135
12184TIP3    H236494   0.499   4.086   4.067
12185TIP3   OH236495   1.604   7.750   5.645
12185TIP3    H136496   1.590   7.843   5.625
12185TIP3    H236497   1.519   7.710   5.629
12186TIP3   OH236498   8.232   1.125   1.182
12186TIP3    H136499   8.326   1.114   1.190
12186TIP3    H236500   8.212   1.199   1.239
12187TIP3   OH236501   7.530   7.490   3.214
12187TIP3    H136502   7.618   7.506   3.247
12187TIP3    H236503   7.483   7.453   3.289
12188TIP3   OH236504   7.259   7.413   2.531
12188TIP3    H136505   7.231   7.326   2.560
12188TIP3    H236506   7.254   7.466   2.610
12189TIP3   OH236507   4.156   1.677   5.798
12189TIP3    H136508   4.061   1.666   5.810
12189TIP3    H236509   4.185   1.594   5.761
12190TIP3   OH236510   1.130   0.379   1.114
12190TIP3    H136511   1.156   0.465   1.146
12190TIP3    H236512   1.126   0.324   1.192
12191TIP3   OH236513   5.108   5.085   6.519
12191TIP3    H136514   5.172   5.015   6.504
12191TIP3    H236515   5.123   5.147   6.448
12192TIP3   OH236516   3.957   2.460   6.494
12192TIP3    H136517   3.935   2.401   6.421
12192TIP3    H236518   3.877   2.464   6.546
12193TIP3   OH236519   3.383   0.432   1.564
12193TIP3    H136520   3.342   0.519   1.562
12193TIP3    H236521   3.320   0.375   1.519
12194TIP3   OH236522   4.389   5.831   3.926
12194TIP3    H136523   4.473   5.872   3.906
12194TIP3    H236524   4.395   5.807   4.019
12195TIP3   OH236525   6.909   3.214   0.782
12195TIP3    H136526   6.907   3.239   0.874
12195TIP3    H236527   6.850   3.275   0.739
12196TIP3   OH236528   1.216   2.072   5.714
12196TIP3    H136529   1.129   2.105   5.694
12196TIP3    H236530   1.201   1.993   5.767
12197TIP3   OH236531   6.141   3.597   4.841
12197TIP3    H136532   6.102   3.665   4.786
12197TIP3    H236533   6.090   3.599   4.921
12198TIP3   OH236534   2.085   6.402   4.254
12198TIP3    H136535   2.080   6.497   4.268
12198TIP3    H236536   2.019   6.384   4.188
12199TIP3   OH236537   3.992   0.672   4.672
12199TIP3    H136538   4.023   0.602   4.729
12199TIP3    H236539   4.049   0.747   4.692
12200TIP3   OH236540   7.631   2.410   0.882
12200TIP3    H136541   7.566   2.354   0.923
12200TIP3    H236542   7.592   2.498   0.884
12201TIP3   OH236543   7.652   7.792   4.332
12201TIP3    H136544   7.598   7.744   4.395
12201TIP3    H236545   7.722   7.731   4.308
12202TIP3   OH236546   4.571   4.205   4.596
12202TIP3    H136547   4.635   4.265   4.634
12202TIP3    H236548   4.583   4.123   4.644
12203TIP3   OH236549   0.109   4.726   5.116
12203TIP3    H136550   0.114   4.803   5.173
12203TIP3    H236551   0.062   4.660   5.167
12204TIP3   OH236552   3.122   6.209   2.706
12204TIP3    H136553   3.129   6.218   2.801
12204TIP3    H236554   3.210   6.183   2.679
12205TIP3   OH236555   4.755   4.021   3.379
12205TIP3    H136556   4.804   3.981   3.451
12205TIP3    H236557   4.668   3.981   3.383
12206TIP3   OH236558   2.139   6.743   5.157
12206TIP3    H136559   2.055   6.768   5.195
12206TIP3    H236560   2.169   6.822   5.111
12207TIP3   OH236561   0.648   4.297   0.776
12207TIP3    H136562   0.631   4.331   0.688
12207TIP3    H236563   0.739   4.270   0.775
12208TIP3   OH236564   7.590   4.275   2.444
12208TIP3    H136565   7.525   4.226   2.395
12208TIP3    H236566   7.544   4.302   2.524
12209TIP3   OH236567   0.579   1.325   0.129
12209TIP3    H136568   0.549   1.396   0.186
12209TIP3    H236569   0.506   1.263   0.128
12210TIP3   OH236570   2.785   2.178   3.375
12210TIP3    H136571   2.869   2.158   3.334
12210TIP3    H236572   2.749   2.093   3.400
12211TIP3   OH236573   8.198   0.450   5.883
12211TIP3    H136574   8.239   0.371   5.918
12211TIP3    H236575   8.229   0.456   5.793
12212TIP3   OH236576   2.878   2.627   2.883
12212TIP3    H136577   2.802   2.674   2.917
12212TIP3    H236578   2.853   2.534   2.887
12213TIP3   OH236579   0.393   6.217   4.866
12213TIP3    H136580   0.458   6.162   4.910
12213TIP3    H236581   0.370   6.168   4.787
12214TIP3   OH236582   6.095   1.692   5.928
12214TIP3    H136583   6.188   1.696   5.949
12214TIP3    H236584   6.087   1.737   5.844
12215TIP3   OH236585   2.223   2.175   5.374
12215TIP3    H136586   2.196   2.189   5.283
12215TIP3    H236587   2.163   2.107   5.406
12216TIP3   OH236588   0.484   0.646   3.964
12216TIP3    H136589   0.427   0.720   3.944
12216TIP3    H236590   0.526   0.624   3.881
12217TIP3   OH236591   1.855   2.228   6.178
12217TIP3    H136592   1.786   2.162   6.175
12217TIP3    H236593   1.815   2.307   6.144
12218TIP3   OH236594   7.234   0.143   2.319
12218TIP3    H136595   7.142   0.166   2.329
12218TIP3    H236596   7.253   0.160   2.227
12219TIP3   OH236597   7.486   7.807   5.360
12219TIP3    H136598   7.401   7.850   5.353
12219TIP3    H236599   7.548   7.873   5.329
12220TIP3   OH236600   0.029   5.628   1.979
12220TIP3    H136601  -0.033   5.641   1.908
12220TIP3    H236602   0.100   5.690   1.961
12221TIP3   OH236603   1.708   0.258   3.809
12221TIP3    H136604   1.710   0.226   3.899
12221TIP3    H236605   1.795   0.237   3.775
12222TIP3   OH236606   2.368   3.284   0.451
12222TIP3    H136607   2.338   3.300   0.540
12222TIP3    H236608   2.420   3.361   0.429
12223TIP3   OH236609   1.028   2.284   1.185
12223TIP3    H136610   1.069   2.365   1.155
12223TIP3    H236611   0.949   2.313   1.230
12224TIP3   OH236612   6.524   4.107   3.126
12224TIP3    H136613   6.592   4.173   3.114
12224TIP3    H236614   6.445   4.146   3.088
12225TIP3   OH236615   5.011   0.934   5.352
12225TIP3    H136616   5.097   0.909   5.317
12225TIP3    H236617   4.970   0.984   5.281
12226TIP3   OH236618   3.224   0.232   1.740
12226TIP3    H136619   3.247   0.163   1.803
12226TIP3    H236620   3.272   0.209   1.661
12227TIP3   OH236621   5.601   4.764   0.876
12227TIP3    H136622   5.604   4.668   0.880
12227TIP3    H236623   5.674   4.788   0.819
12228TIP3   OH236624   5.775   4.711   6.011
12228TIP3    H136625   5.841   4.648   6.040
12228TIP3    H236626   5.797   4.729   5.919
12229TIP3   OH236627   0.188   2.539   4.606
12229TIP3    H136628   0.186   2.524   4.701
12229TIP3    H236629   0.232   2.624   4.596
12230TIP3   OH236630   2.794   5.842   6.041
12230TIP3    H136631   2.726   5.855   6.106
12230TIP3    H236632   2.872   5.821   6.091
12231TIP3   OH236633   8.156   1.263   2.872
12231TIP3    H136634   8.143   1.331   2.938
12231TIP3    H236635   8.088   1.281   2.806
12232TIP3   OH236636   6.609   6.188   1.026
12232TIP3    H136637   6.605   6.144   0.940
12232TIP3    H236638   6.694   6.230   1.027
12233TIP3   OH236639   6.037   2.591   4.200
12233TIP3    H136640   6.022   2.504   4.163
12233TIP3    H236641   5.997   2.651   4.137
12234TIP3   OH236642   7.573   0.062   0.960
12234TIP3    H136643   7.500   0.023   0.911
12234TIP3    H236644   7.532   0.134   1.008
12235TIP3   OH236645   6.918   3.833   2.766
12235TIP3    H136646   6.954   3.918   2.741
12235TIP3    H236647   6.975   3.769   2.724
12236TIP3   OH236648   7.335   1.957   4.797
12236TIP3    H136649   7.403   1.893   4.778
12236TIP3    H236650   7.335   1.965   4.893
12237TIP3   OH236651   2.156   6.612   5.946
12237TIP3    H136652   2.230   6.651   5.900
12237TIP3    H236653   2.195   6.560   6.016
12238TIP3   OH236654   6.059   1.225   3.870
12238TIP3    H136655   6.079   1.133   3.887
12238TIP3    H236656   5.965   1.227   3.851
12239TIP3   OH236657   6.750   1.516   2.068
12239TIP3    H136658   6.702   1.467   2.001
12239TIP3    H236659   6.799   1.449   2.115
12240TIP3   OH236660   2.810   1.564   3.211
12240TIP3    H136661   2.716   1.576   3.228
12240TIP3    H236662   2.827   1.473   3.234
12241TIP3   OH236663   1.994   5.667   1.841
12241TIP3    H136664   2.026   5.683   1.752
12241TIP3    H236665   2.032   5.739   1.892
12242TIP3   OH236666   0.861   2.698   2.165
12242TIP3    H136667   0.873   2.775   2.220
12242TIP3    H236668   0.878   2.728   2.076
12243TIP3   OH236669   2.257   1.450   5.630
12243TIP3    H136670   2.290   1.540   5.633
12243TIP3    H236671   2.298   1.407   5.706
12244TIP3   OH236672   4.044   6.755   1.321
12244TIP3    H136673   3.949   6.739   1.325
12244TIP3    H236674   4.073   6.708   1.243
12245TIP3   OH236675   0.295   1.858   6.265
12245TIP3    H136676   0.225   1.793   6.259
12245TIP3    H236677   0.372   1.808   6.289
12246TIP3   OH236678   4.171   4.904   3.183
12246TIP3    H136679   4.161   4.891   3.277
12246TIP3    H236680   4.265   4.897   3.167
12247TIP3   OH236681   2.460   3.199   4.784
12247TIP3    H136682   2.504   3.281   4.808
12247TIP3    H236683   2.429   3.212   4.695
12248TIP3   OH236684   7.188   6.693   2.154
12248TIP3    H136685   7.213   6.622   2.212
12248TIP3    H236686   7.170   6.767   2.213
12249TIP3   OH236687   1.268   7.287   4.486
12249TIP3    H136688   1.272   7.204   4.438
12249TIP3    H236689   1.201   7.338   4.440
12250TIP3   OH236690   3.631   1.049   4.142
12250TIP3    H136691   3.540   1.018   4.143
12250TIP3    H236692   3.657   1.042   4.050
12251TIP3   OH236693   5.352   2.934   6.812
12251TIP3    H136694   5.341   2.953   6.719
12251TIP3    H236695   5.446   2.927   6.824
12252TIP3   OH236696   7.780   0.262   5.177
12252TIP3    H136697   7.767   0.167   5.177
12252TIP3    H236698   7.810   0.282   5.265
12253TIP3   OH236699   7.191   0.193   3.021
12253TIP3    H136700   7.261   0.219   2.961
12253TIP3    H236701   7.233   0.138   3.086
12254TIP3   OH236702   5.212   5.951   3.201
12254TIP3    H136703   5.255   5.866   3.193
12254TIP3    H236704   5.141   5.948   3.137
12255TIP3   OH236705   3.456   4.974   6.656
12255TIP3    H136706   3.371   5.017   6.650
12255TIP3    H236707   3.480   4.980   6.748
12256TIP3   OH236708   2.567   6.594   4.540
12256TIP3    H136709   2.489   6.593   4.484
12256TIP3    H236710   2.535   6.623   4.625
12257TIP3   OH236711   6.395   0.924   4.586
12257TIP3    H136712   6.356   0.840   4.609
12257TIP3    H236713   6.348   0.989   4.638
12258TIP3   OH236714   7.710   5.643   5.201
12258TIP3    H136715   7.721   5.733   5.171
12258TIP3    H236716   7.783   5.595   5.161
12259TIP3   OH236717   5.732   1.297   1.134
12259TIP3    H136718   5.687   1.362   1.080
12259TIP3    H236719   5.691   1.214   1.111
12260TIP3   OH236720   3.788   0.197   4.273
12260TIP3    H136721   3.749   0.284   4.276
12260TIP3    H236722   3.821   0.188   4.184
12261TIP3   OH236723   2.670   5.104   1.679
12261TIP3    H136724   2.684   5.020   1.635
12261TIP3    H236725   2.735   5.105   1.749
12262TIP3   OH236726   0.831   5.559   1.898
12262TIP3    H136727   0.804   5.514   1.818
12262TIP3    H236728   0.922   5.584   1.881
12263TIP3   OH236729   4.327   5.891   1.418
12263TIP3    H136730   4.409   5.842   1.424
12263TIP3    H236731   4.350   5.969   1.368
12264TIP3   OH236732   5.365   4.442   0.982
12264TIP3    H136733   5.443   4.418   0.932
12264TIP3    H236734   5.376   4.536   0.999
12265TIP3   OH236735   4.292   5.721   5.367
12265TIP3    H136736   4.237   5.720   5.288
12265TIP3    H236737   4.233   5.750   5.437
12266TIP3   OH236738   3.337   6.480   0.216
12266TIP3    H136739   3.311   6.572   0.209
12266TIP3    H236740   3.337   6.448   0.126
12267TIP3   OH236741   6.116   6.247   4.826
12267TIP3    H136742   6.053   6.308   4.787
12267TIP3    H236743   6.153   6.200   4.751
12268TIP3   OH236744   4.449   3.839   6.738
12268TIP3    H136745   4.448   3.758   6.789
12268TIP3    H236746   4.523   3.889   6.774
12269TIP3   OH236747   4.594   6.471   4.682
12269TIP3    H136748   4.544   6.551   4.698
12269TIP3    H236749   4.569   6.444   4.593
12270TIP3   OH236750   1.761   0.601   1.051
12270TIP3    H136751   1.787   0.522   1.098
12270TIP3    H236752   1.788   0.585   0.961
12271TIP3   OH236753   1.311   2.954   1.884
12271TIP3    H136754   1.318   2.880   1.824
12271TIP3    H236755   1.396   2.998   1.878
12272TIP3   OH236756   0.599   3.605   4.469
12272TIP3    H136757   0.692   3.605   4.493
12272TIP3    H236758   0.566   3.691   4.496
12273TIP3   OH236759   6.596   3.790   1.775
12273TIP3    H136760   6.540   3.749   1.840
12273TIP3    H236761   6.662   3.838   1.826
12274TIP3   OH236762   6.158   5.628   5.978
12274TIP3    H136763   6.138   5.566   6.048
12274TIP3    H236764   6.145   5.579   5.897
12275TIP3   OH236765   7.734   7.925   0.218
12275TIP3    H136766   7.658   7.886   0.176
12275TIP3    H236767   7.809   7.891   0.168
12276TIP3   OH236768   3.892   5.694   0.594
12276TIP3    H136769   3.951   5.717   0.666
12276TIP3    H236770   3.949   5.650   0.530
12277TIP3   OH236771   3.509   6.720   4.100
12277TIP3    H136772   3.596   6.681   4.110
12277TIP3    H236773   3.526   6.813   4.086
12278TIP3   OH236774   4.752   6.697   2.141
12278TIP3    H136775   4.715   6.779   2.175
12278TIP3    H236776   4.844   6.700   2.167
12279TIP3   OH236777   3.680   4.565   5.059
12279TIP3    H136778   3.742   4.519   5.002
12279TIP3    H236779   3.652   4.641   5.009
12280TIP3   OH236780   0.903   0.057   3.044
12280TIP3    H136781   0.967  -0.010   3.022
12280TIP3    H236782   0.954   0.138   3.052
12281TIP3   OH236783   8.056   0.084   5.141
12281TIP3    H136784   7.962   0.067   5.149
12281TIP3    H236785   8.079   0.050   5.055
12282TIP3   OH236786   0.053   2.973   5.629
12282TIP3    H136787   0.020   2.924   5.705
12282TIP3    H236788   0.109   2.910   5.583
12283TIP3   OH236789   0.080   2.278   6.578
12283TIP3    H136790   0.054   2.292   6.487
12283TIP3    H236791   0.138   2.351   6.599
12284TIP3   OH236792   1.990   5.218   2.496
12284TIP3    H136793   1.955   5.273   2.425
12284TIP3    H236794   2.017   5.137   2.452
12285TIP3   OH236795   6.498   6.601   3.515
12285TIP3    H136796   6.440   6.591   3.590
12285TIP3    H236797   6.442   6.588   3.439
12286TIP3   OH236798   0.669   1.532   2.079
12286TIP3    H136799   0.620   1.492   2.008
12286TIP3    H236800   0.760   1.506   2.063
12287TIP3   OH236801   4.741   7.269   0.829
12287TIP3    H136802   4.730   7.363   0.835
12287TIP3    H236803   4.685   7.242   0.756
12288TIP3   OH236804   5.352   7.685   4.825
12288TIP3    H136805   5.297   7.649   4.756
12288TIP3    H236806   5.314   7.771   4.844
12289TIP3   OH236807   3.135   5.403   3.531
12289TIP3    H136808   3.170   5.465   3.596
12289TIP3    H236809   3.144   5.317   3.572
12290TIP3   OH236810   1.044   7.045   5.639
12290TIP3    H136811   1.049   7.008   5.550
12290TIP3    H236812   1.132   7.077   5.656
12291TIP3   OH236813   3.021   0.879   4.403
12291TIP3    H136814   3.081   0.817   4.361
12291TIP3    H236815   3.063   0.901   4.486
12292TIP3   OH236816   6.708   3.230   0.323
12292TIP3    H136817   6.687   3.323   0.326
12292TIP3    H236818   6.672   3.200   0.239
12293TIP3   OH236819   3.420   2.893   6.683
12293TIP3    H136820   3.458   2.954   6.746
12293TIP3    H236821   3.325   2.910   6.687
12294TIP3   OH236822   6.450   4.119   0.309
12294TIP3    H136823   6.383   4.130   0.242
12294TIP3    H236824   6.533   4.134   0.264
12295TIP3   OH236825   1.631   4.632   2.144
12295TIP3    H136826   1.569   4.702   2.124
12295TIP3    H236827   1.595   4.556   2.098
12296TIP3   OH236828   3.069   2.204   3.853
12296TIP3    H136829   3.001   2.140   3.874
12296TIP3    H236830   3.125   2.205   3.930
12297TIP3   OH236831   3.910   7.302   5.113
12297TIP3    H136832   4.005   7.311   5.112
12297TIP3    H236833   3.889   7.278   5.204
12298TIP3   OH236834   0.688   2.003   0.029
12298TIP3    H136835   0.686   2.011  -0.066
12298TIP3    H236836   0.712   1.911   0.044
12299TIP3   OH236837   6.076   5.656   6.618
12299TIP3    H136838   6.009   5.699   6.671
12299TIP3    H236839   6.040   5.656   6.529
12300TIP3   OH236840   2.559   0.563   4.943
12300TIP3    H136841   2.482   0.576   4.887
12300TIP3    H236842   2.539   0.613   5.022
12301TIP3   OH236843   7.838   4.706   1.187
12301TIP3    H136844   7.803   4.689   1.100
12301TIP3    H236845   7.831   4.801   1.197
12302TIP3   OH236846   0.088   0.833   3.981
12302TIP3    H136847   0.162   0.894   3.985
12302TIP3    H236848   0.118   0.756   4.030
12303TIP3   OH236849   8.260   0.200   4.211
12303TIP3    H136850   8.284   0.109   4.195
12303TIP3    H236851   8.213   0.226   4.131
12304TIP3   OH236852   6.440   6.072   4.404
12304TIP3    H136853   6.415   5.984   4.430
12304TIP3    H236854   6.499   6.059   4.329
12305TIP3   OH236855   1.000   7.047   6.357
12305TIP3    H136856   1.064   7.009   6.417
12305TIP3    H236857   0.981   7.133   6.393
12306TIP3   OH236858   5.572   3.783   1.213
12306TIP3    H136859   5.606   3.866   1.178
12306TIP3    H236860   5.650   3.740   1.249
12307TIP3   OH236861   7.293   7.207   4.162
12307TIP3    H136862   7.360   7.164   4.215
12307TIP3    H236863   7.210   7.171   4.193
12308TIP3   OH236864   0.133   5.644   0.781
12308TIP3    H136865   0.107   5.662   0.871
12308TIP3    H236866   0.210   5.588   0.788
12309TIP3   OH236867   0.133   4.259   6.712
12309TIP3    H136868   0.145   4.241   6.619
12309TIP3    H236869   0.040   4.240   6.728
12310TIP3   OH236870   4.370   1.468   2.267
12310TIP3    H136871   4.309   1.508   2.330
12310TIP3    H236872   4.446   1.526   2.268
12311TIP3   OH236873   5.145   3.353   3.550
12311TIP3    H136874   5.138   3.258   3.561
12311TIP3    H236875   5.200   3.363   3.472
12312TIP3   OH236876   4.580   0.746   2.205
12312TIP3    H136877   4.546   0.786   2.125
12312TIP3    H236878   4.527   0.667   2.217
12313TIP3   OH236879   1.257   4.894   6.824
12313TIP3    H136880   1.303   4.974   6.799
12313TIP3    H236881   1.275   4.833   6.752
12314TIP3   OH236882   8.343   2.833   1.432
12314TIP3    H136883   8.408   2.853   1.364
12314TIP3    H236884   8.273   2.896   1.417
12315TIP3   OH236885   7.006   1.561   6.245
12315TIP3    H136886   7.004   1.491   6.309
12315TIP3    H236887   7.047   1.635   6.290
12316TIP3   OH236888   4.865   0.119   1.553
12316TIP3    H136889   4.903   0.178   1.489
12316TIP3    H236890   4.773   0.146   1.560
12317TIP3   OH236891   5.896   0.565   2.486
12317TIP3    H136892   5.921   0.591   2.574
12317TIP3    H236893   5.800   0.575   2.484
12318TIP3   OH236894   5.942   7.035   4.286
12318TIP3    H136895   5.914   7.060   4.198
12318TIP3    H236896   5.862   7.039   4.338
12319TIP3   OH236897   0.536   6.366   3.909
12319TIP3    H136898   0.549   6.306   3.835
12319TIP3    H236899   0.563   6.451   3.876
12320TIP3   OH236900   6.118   2.326   1.917
12320TIP3    H136901   6.044   2.364   1.871
12320TIP3    H236902   6.080   2.254   1.968
12321TIP3   OH236903   0.688   5.942   4.943
12321TIP3    H136904   0.725   5.920   5.028
12321TIP3    H236905   0.722   6.030   4.925
12322TIP3   OH236906   3.239   4.802   5.978
12322TIP3    H136907   3.206   4.808   5.888
12322TIP3    H236908   3.176   4.850   6.031
12323TIP3   OH236909   4.967   4.908   1.568
12323TIP3    H136910   5.041   4.900   1.507
12323TIP3    H236911   4.951   4.819   1.598
12324TIP3   OH236912   1.252   0.886   0.493
12324TIP3    H136913   1.347   0.884   0.504
12324TIP3    H236914   1.225   0.968   0.536
12325TIP3   OH236915   0.891   0.922   6.683
12325TIP3    H136916   0.800   0.909   6.709
12325TIP3    H236917   0.891   1.008   6.640
12326TIP3   OH236918   2.934   4.219   2.627
12326TIP3    H136919   2.847   4.258   2.617
12326TIP3    H236920   2.933   4.143   2.568
12327TIP3   OH236921   0.140   1.785   1.393
12327TIP3    H136922   0.064   1.819   1.441
12327TIP3    H236923   0.213   1.793   1.455
12328TIP3   OH236924   4.295   2.312   5.494
12328TIP3    H136925   4.216   2.259   5.494
12328TIP3    H236926   4.367   2.249   5.491
12329TIP3   OH236927   1.166   1.136   0.581
12329TIP3    H136928   1.184   1.136   0.675
12329TIP3    H236929   1.127   1.222   0.564
12330TIP3   OH236930   0.761   6.570   4.808
12330TIP3    H136931   0.703   6.633   4.851
12330TIP3    H236932   0.702   6.501   4.777
12331TIP3   OH236933   4.222   7.384   6.121
12331TIP3    H136934   4.312   7.409   6.145
12331TIP3    H236935   4.215   7.292   6.147
12332TIP3   OH236936   1.691   2.492   2.562
12332TIP3    H136937   1.748   2.422   2.529
12332TIP3    H236938   1.631   2.510   2.489
12333TIP3   OH236939   1.966   5.259   1.312
12333TIP3    H136940   1.877   5.234   1.338
12333TIP3    H236941   2.020   5.185   1.337
12334TIP3   OH236942   2.874   0.472   2.215
12334TIP3    H136943   2.967   0.488   2.200
12334TIP3    H236944   2.871   0.413   2.290
12335TIP3   OH236945   0.296   7.157   5.441
12335TIP3    H136946   0.303   7.101   5.364
12335TIP3    H236947   0.384   7.194   5.451
12336TIP3   OH236948   2.949   6.524   4.401
12336TIP3    H136949   2.997   6.460   4.454
12336TIP3    H236950   2.865   6.483   4.383
12337TIP3   OH236951   2.594   6.959   4.158
12337TIP3    H136952   2.641   6.931   4.237
12337TIP3    H236953   2.650   7.026   4.119
12338TIP3   OH236954   5.771   5.284   5.172
12338TIP3    H136955   5.704   5.330   5.222
12338TIP3    H236956   5.743   5.294   5.081
12339TIP3   OH236957   1.579   2.069   4.672
12339TIP3    H136958   1.517   2.128   4.629
12339TIP3    H236959   1.662   2.086   4.628
12340TIP3   OH236960   1.285   0.210   2.744
12340TIP3    H136961   1.294   0.295   2.703
12340TIP3    H236962   1.233   0.226   2.823
12341TIP3   OH236963   3.298   6.720   5.447
12341TIP3    H136964   3.256   6.710   5.532
12341TIP3    H236965   3.348   6.801   5.455
12342TIP3   OH236966   2.119   5.616   1.004
12342TIP3    H136967   2.148   5.575   0.923
12342TIP3    H236968   2.158   5.704   1.002
12343TIP3   OH236969   4.347   6.348   5.343
12343TIP3    H136970   4.440   6.360   5.358
12343TIP3    H236971   4.341   6.270   5.288
12344TIP3   OH236972   4.345   6.990   5.251
12344TIP3    H136973   4.279   7.033   5.305
12344TIP3    H236974   4.390   7.062   5.207
12345TIP3   OH236975   7.524   7.385   4.762
12345TIP3    H136976   7.483   7.336   4.834
12345TIP3    H236977   7.501   7.337   4.683
12346TIP3   OH236978   1.060   7.590   1.099
12346TIP3    H136979   1.003   7.644   1.045
12346TIP3    H236980   1.078   7.512   1.046
12347TIP3   OH236981   7.037   1.893   4.300
12347TIP3    H136982   7.106   1.939   4.348
12347TIP3    H236983   7.083   1.847   4.230
12348TIP3   OH236984   0.713   1.458   1.624
12348TIP3    H136985   0.677   1.385   1.573
12348TIP3    H236986   0.651   1.469   1.696
12349TIP3   OH236987   3.378   5.551   5.735
12349TIP3    H136988   3.324   5.568   5.658
12349TIP3    H236989   3.345   5.469   5.770
12350TIP3   OH236990   8.139   1.455   1.086
12350TIP3    H136991   8.112   1.517   1.019
12350TIP3    H236992   8.093   1.374   1.063
12351TIP3   OH236993   3.597   6.051   6.255
12351TIP3    H136994   3.525   6.114   6.265
12351TIP3    H236995   3.575   6.003   6.175
12352TIP3   OH236996   5.424   2.284   2.932
12352TIP3    H136997   5.490   2.225   2.896
12352TIP3    H236998   5.404   2.344   2.860
12353TIP3   OH236999   3.500   6.637   2.887
12353TIP3    H137000   3.469   6.654   2.798
12353TIP3    H237001   3.554   6.713   2.909
12354TIP3   OH237002   1.460   1.405   1.367
12354TIP3    H137003   1.531   1.361   1.414
12354TIP3    H237004   1.501   1.440   1.288
12355TIP3   OH237005   5.793   5.749   6.159
12355TIP3    H137006   5.751   5.781   6.239
12355TIP3    H237007   5.805   5.655   6.174
12356TIP3   OH237008   2.074   2.018   4.854
12356TIP3    H137009   2.005   1.955   4.876
12356TIP3    H237010   2.098   1.996   4.764
12357TIP3   OH237011   4.150   7.885   0.330
12357TIP3    H137012   4.083   7.894   0.399
12357TIP3    H237013   4.226   7.931   0.366
12358TIP3   OH237014   0.818   4.940   1.519
12358TIP3    H137015   0.746   4.978   1.570
12358TIP3    H237016   0.792   4.952   1.428
12359TIP3   OH237017   5.624   4.598   5.499
12359TIP3    H137018   5.701   4.615   5.552
12359TIP3    H237019   5.617   4.503   5.496
12360TIP3   OH237020   1.867   1.452   6.594
12360TIP3    H137021   1.777   1.460   6.625
12360TIP3    H237022   1.891   1.361   6.613
12361TIP3   OH237023   0.761   4.821   3.622
12361TIP3    H137024   0.814   4.844   3.697
12361TIP3    H237025   0.798   4.738   3.590
12362TIP3   OH237026   7.743   5.246   3.563
12362TIP3    H137027   7.815   5.210   3.512
12362TIP3    H237028   7.666   5.235   3.508
12363TIP3   OH237029   6.847   4.058   0.208
12363TIP3    H137030   6.856   4.064   0.303
12363TIP3    H237031   6.778   4.120   0.186
12364TIP3   OH237032   6.979   2.203   4.873
12364TIP3    H137033   6.933   2.286   4.860
12364TIP3    H237034   7.019   2.211   4.960
12365TIP3   OH237035   7.258   7.602   1.942
12365TIP3    H137036   7.192   7.659   1.982
12365TIP3    H237037   7.334   7.608   1.999
12366TIP3   OH237038   2.520   3.382   3.683
12366TIP3    H137039   2.570   3.365   3.763
12366TIP3    H237040   2.498   3.295   3.650
12367TIP3   OH237041   0.379   3.232   2.081
12367TIP3    H137042   0.353   3.144   2.056
12367TIP3    H237043   0.462   3.246   2.035
12368TIP3   OH237044   4.911   0.912   3.018
12368TIP3    H137045   4.972   0.844   2.991
12368TIP3    H237046   4.918   0.914   3.114
12369TIP3   OH237047   5.502   5.617   1.413
12369TIP3    H137048   5.467   5.639   1.327
12369TIP3    H237049   5.584   5.572   1.395
12370TIP3   OH237050   5.984   0.220   0.610
12370TIP3    H137051   5.958   0.250   0.697
12370TIP3    H237052   5.901   0.204   0.565
12371TIP3   OH237053   0.756   5.221   0.897
12371TIP3    H137054   0.840   5.184   0.870
12371TIP3    H237055   0.700   5.213   0.820
12372TIP3   OH237056   7.320   7.409   6.036
12372TIP3    H137057   7.249   7.362   6.079
12372TIP3    H237058   7.375   7.341   5.997
12373TIP3   OH237059   4.160   6.216   1.353
12373TIP3    H137060   4.254   6.218   1.339
12373TIP3    H237061   4.149   6.180   1.441
12374TIP3   OH237062   1.589   1.504   6.545
12374TIP3    H137063   1.576   1.595   6.519
12374TIP3    H237064   1.565   1.453   6.468
12375TIP3   OH237065   3.783   4.579   5.606
12375TIP3    H137066   3.704   4.566   5.555
12375TIP3    H237067   3.754   4.625   5.685
12376TIP3   OH237068   5.294   6.224   4.856
12376TIP3    H137069   5.204   6.231   4.890
12376TIP3    H237070   5.349   6.254   4.928
12377TIP3   OH237071   2.015   2.561   5.257
12377TIP3    H137072   1.978   2.618   5.323
12377TIP3    H237073   2.027   2.617   5.180
12378TIP3   OH237074   5.731   1.404   6.562
12378TIP3    H137075   5.746   1.318   6.522
12378TIP3    H237076   5.799   1.460   6.525
12379TIP3   OH237077   4.311   3.123   3.596
12379TIP3    H137078   4.332   3.079   3.678
12379TIP3    H237079   4.370   3.084   3.532
12380TIP3   OH237080   8.310   7.622   5.979
12380TIP3    H137081   8.228   7.625   5.929
12380TIP3    H237082   8.287   7.576   6.060
12381TIP3   OH237083   7.204   2.162   3.945
12381TIP3    H137084   7.191   2.246   3.902
12381TIP3    H237085   7.118   2.142   3.984
12382TIP3   OH237086   0.472   3.281   2.329
12382TIP3    H137087   0.425   3.352   2.372
12382TIP3    H237088   0.460   3.298   2.235
12383TIP3   OH237089   2.689   7.710   2.068
12383TIP3    H137090   2.657   7.800   2.069
12383TIP3    H237091   2.721   7.694   2.157
12384TIP3   OH237092   0.543   2.166   1.477
12384TIP3    H137093   0.585   2.245   1.511
12384TIP3    H237094   0.610   2.098   1.486
12385TIP3   OH237095   7.672   5.374   2.889
12385TIP3    H137096   7.742   5.314   2.863
12385TIP3    H237097   7.691   5.396   2.980
12386TIP3   OH237098   0.418   3.303   6.208
12386TIP3    H137099   0.489   3.320   6.271
12386TIP3    H237100   0.338   3.327   6.256
12387TIP3   OH237101   6.219   6.392   4.499
12387TIP3    H137102   6.160   6.350   4.561
12387TIP3    H237103   6.306   6.366   4.527
12388TIP3   OH237104   8.362   5.559   3.395
12388TIP3    H137105   8.442   5.577   3.443
12388TIP3    H237106   8.388   5.495   3.329
12389TIP3   OH237107   6.891   6.504   3.346
12389TIP3    H137108   6.887   6.441   3.418
12389TIP3    H237109   6.944   6.461   3.280
12390TIP3   OH237110   2.487   4.652   6.845
12390TIP3    H137111   2.448   4.575   6.805
12390TIP3    H237112   2.581   4.632   6.849
12391TIP3   OH237113   0.935   2.474   2.563
12391TIP3    H137114   0.997   2.437   2.626
12391TIP3    H237115   0.891   2.543   2.612
12392TIP3   OH237116   3.671   0.461   4.307
12392TIP3    H137117   3.718   0.527   4.255
12392TIP3    H237118   3.672   0.495   4.396
12393TIP3   OH237119   1.377   2.821   6.673
12393TIP3    H137120   1.313   2.787   6.735
12393TIP3    H237121   1.412   2.900   6.714
12394TIP3   OH237122   1.436   4.828   0.357
12394TIP3    H137123   1.383   4.906   0.349
12394TIP3    H237124   1.375   4.759   0.382
12395TIP3   OH237125   8.289   2.111   0.029
12395TIP3    H137126   8.242   2.186   0.066
12395TIP3    H237127   8.380   2.125   0.056
12396TIP3   OH237128   6.056   0.244   5.048
12396TIP3    H137129   6.130   0.221   5.105
12396TIP3    H237130   6.037   0.163   5.001
12397TIP3   OH237131   5.534   6.152   0.349
12397TIP3    H137132   5.499   6.064   0.365
12397TIP3    H237133   5.555   6.186   0.437
12398TIP3   OH237134   4.625   6.063   2.519
12398TIP3    H137135   4.685   6.050   2.592
12398TIP3    H237136   4.586   5.976   2.505
12399TIP3   OH237137   0.799   1.932   3.859
12399TIP3    H137138   0.717   1.912   3.904
12399TIP3    H237139   0.858   1.860   3.884
12400TIP3   OH237140   5.288   7.370   3.362
12400TIP3    H137141   5.365   7.321   3.334
12400TIP3    H237142   5.238   7.385   3.282
12401TIP3   OH237143   7.173   3.209   4.685
12401TIP3    H137144   7.163   3.123   4.642
12401TIP3    H237145   7.119   3.268   4.632
12402TIP3   OH237146   0.876   2.197   3.496
12402TIP3    H137147   0.863   2.291   3.509
12402TIP3    H237148   0.930   2.169   3.569
12403TIP3   OH237149   2.105   1.383   5.952
12403TIP3    H137150   2.064   1.297   5.961
12403TIP3    H237151   2.155   1.394   6.034
12404TIP3   OH237152   4.766   2.771   5.827
12404TIP3    H137153   4.700   2.717   5.783
12404TIP3    H237154   4.767   2.739   5.918
12405TIP3   OH237155   6.148   0.769   1.167
12405TIP3    H137156   6.142   0.770   1.071
12405TIP3    H237157   6.095   0.843   1.195
12406TIP3   OH237158   0.680   0.036   4.643
12406TIP3    H137159   0.716  -0.052   4.651
12406TIP3    H237160   0.643   0.055   4.729
12407TIP3   OH237161   1.872   3.552   4.486
12407TIP3    H137162   1.787   3.556   4.529
12407TIP3    H237163   1.889   3.458   4.475
12408TIP3   OH237164   6.667   1.315   4.648
12408TIP3    H137165   6.714   1.326   4.565
12408TIP3    H237166   6.637   1.402   4.671
12409TIP3   OH237167   6.904   4.267   5.237
12409TIP3    H137168   6.861   4.287   5.154
12409TIP3    H237169   6.835   4.273   5.302
12410TIP3   OH237170   8.372   7.338   5.889
12410TIP3    H137171   8.369   7.340   5.794
12410TIP3    H237172   8.336   7.423   5.916
12411TIP3   OH237173   7.144   6.824   2.900
12411TIP3    H137174   7.165   6.865   2.985
12411TIP3    H237175   7.228   6.794   2.867
12412TIP3   OH237176   3.101   0.162   0.417
12412TIP3    H137177   3.105   0.235   0.479
12412TIP3    H237178   3.088   0.203   0.332
12413TIP3   OH237179   2.187   0.972   4.310
12413TIP3    H137180   2.274   1.004   4.285
12413TIP3    H237181   2.197   0.941   4.399
12414TIP3   OH237182   1.484   3.979   4.079
12414TIP3    H137183   1.511   3.954   3.991
12414TIP3    H237184   1.563   4.015   4.119
12415TIP3   OH237185   8.038   7.245   1.193
12415TIP3    H137186   8.104   7.277   1.255
12415TIP3    H237187   7.961   7.299   1.210
12416TIP3   OH237188   5.888   1.599   6.433
12416TIP3    H137189   5.851   1.684   6.408
12416TIP3    H237190   5.949   1.619   6.504
12417TIP3   OH237191   4.008   3.625   2.802
12417TIP3    H137192   3.937   3.678   2.766
12417TIP3    H237193   4.021   3.556   2.736
12418TIP3   OH237194   7.027   1.397   1.550
12418TIP3    H137195   6.950   1.397   1.608
12418TIP3    H237196   7.027   1.485   1.511
12419TIP3   OH237197   1.248   4.900   1.079
12419TIP3    H137198   1.245   4.854   1.163
12419TIP3    H237199   1.158   4.898   1.047
12420TIP3   OH237200   4.078   2.314   0.999
12420TIP3    H137201   4.061   2.353   0.913
12420TIP3    H237202   4.084   2.389   1.059
12421TIP3   OH237203   4.144   1.601   0.588
12421TIP3    H137204   4.224   1.563   0.552
12421TIP3    H237205   4.105   1.530   0.639
12422TIP3   OH237206   2.146   0.745   3.037
12422TIP3    H137207   2.122   0.837   3.048
12422TIP3    H237208   2.228   0.748   2.989
12423TIP3   OH237209   6.041   6.194   6.482
12423TIP3    H137210   6.043   6.283   6.447
12423TIP3    H237211   6.059   6.205   6.575
12424TIP3   OH237212   4.374   6.951   1.164
12424TIP3    H137213   4.450   7.008   1.182
12424TIP3    H237214   4.357   6.965   1.071
12425TIP3   OH237215   2.077   7.010   2.307
12425TIP3    H137216   2.039   7.013   2.395
12425TIP3    H237217   2.117   6.924   2.300
12426TIP3   OH237218   6.008   2.165   2.096
12426TIP3    H137219   6.008   2.240   2.157
12426TIP3    H237220   6.047   2.094   2.146
12427TIP3   OH237221   3.729   3.157   2.166
12427TIP3    H137222   3.663   3.101   2.126
12427TIP3    H237223   3.740   3.122   2.254
12428TIP3   OH237224   1.400   4.610   3.194
12428TIP3    H137225   1.390   4.630   3.287
12428TIP3    H237226   1.482   4.561   3.189
12429TIP3   OH237227   7.418   4.371   0.780
12429TIP3    H137228   7.459   4.422   0.710
12429TIP3    H237229   7.327   4.360   0.752
12430TIP3   OH237230   3.445   0.454   0.113
12430TIP3    H137231   3.510   0.391   0.084
12430TIP3    H237232   3.390   0.407   0.175
12431TIP3   OH237233   2.603   1.831   1.814
12431TIP3    H137234   2.628   1.894   1.746
12431TIP3    H237235   2.649   1.751   1.790
12432TIP3   OH237236   3.577   5.178   5.057
12432TIP3    H137237   3.632   5.251   5.086
12432TIP3    H237238   3.531   5.150   5.136
12433TIP3   OH237239   4.882   2.139   5.852
12433TIP3    H137240   4.823   2.087   5.798
12433TIP3    H237241   4.838   2.145   5.937
12434TIP3   OH237242   4.062   5.205   5.316
12434TIP3    H137243   4.128   5.274   5.330
12434TIP3    H237244   4.063   5.191   5.222
12435TIP3   OH237245   2.124   5.924   2.973
12435TIP3    H137246   2.203   5.949   2.925
12435TIP3    H237247   2.107   5.834   2.946
12436TIP3   OH237248   5.782   3.218   1.028
12436TIP3    H137249   5.791   3.127   1.056
12436TIP3    H237250   5.714   3.215   0.960
12437TIP3   OH237251   0.678   6.169   5.660
12437TIP3    H137252   0.732   6.147   5.585
12437TIP3    H237253   0.725   6.133   5.735
12438TIP3   OH237254   7.263   3.872   1.268
12438TIP3    H137255   7.327   3.940   1.292
12438TIP3    H237256   7.211   3.859   1.347
12439TIP3   OH237257   3.688   3.480   5.711
12439TIP3    H137258   3.598   3.496   5.682
12439TIP3    H237259   3.690   3.512   5.801
12440TIP3   OH237260   7.337   6.273   5.409
12440TIP3    H137261   7.357   6.353   5.458
12440TIP3    H237262   7.381   6.284   5.325
12441TIP3   OH237263   3.275   4.509   4.922
12441TIP3    H137264   3.296   4.519   5.014
12441TIP3    H237265   3.307   4.422   4.899
12442TIP3   OH237266   7.262   4.988   3.899
12442TIP3    H137267   7.346   4.949   3.875
12442TIP3    H237268   7.283   5.044   3.974
12443TIP3   OH237269   5.568   3.292   3.513
12443TIP3    H137270   5.585   3.356   3.444
12443TIP3    H237271   5.630   3.314   3.583
12444TIP3   OH237272   6.446   7.262   5.234
12444TIP3    H137273   6.390   7.335   5.259
12444TIP3    H237274   6.449   7.207   5.312
12445TIP3   OH237275   5.500   3.083   2.405
12445TIP3    H137276   5.595   3.089   2.397
12445TIP3    H237277   5.467   3.158   2.356
12446TIP3   OH237278   0.384   6.303   3.354
12446TIP3    H137279   0.413   6.391   3.331
12446TIP3    H237280   0.391   6.253   3.273
12447TIP3   OH237281   7.690   7.071   5.789
12447TIP3    H137282   7.657   7.161   5.796
12447TIP3    H237283   7.750   7.074   5.714
12448TIP3   OH237284   7.330   5.163   4.116
12448TIP3    H137285   7.335   5.137   4.208
12448TIP3    H237286   7.270   5.237   4.115
12449TIP3   OH237287   2.017   3.760   4.841
12449TIP3    H137288   2.078   3.708   4.893
12449TIP3    H237289   1.939   3.705   4.832
12450TIP3   OH237290   0.324   0.576   3.292
12450TIP3    H137291   0.258   0.645   3.290
12450TIP3    H237292   0.278   0.500   3.329
12451TIP3   OH237293   2.729   0.651   2.988
12451TIP3    H137294   2.662   0.583   2.985
12451TIP3    H237295   2.808   0.606   3.018
12452TIP3   OH237296   6.927   7.070   3.675
12452TIP3    H137297   6.847   7.103   3.714
12452TIP3    H237298   6.991   7.072   3.746
12453TIP3   OH237299   5.624   6.724   3.507
12453TIP3    H137300   5.626   6.739   3.601
12453TIP3    H237301   5.564   6.650   3.496
12454TIP3   OH237302   7.542   4.513   2.923
12454TIP3    H137303   7.450   4.529   2.942
12454TIP3    H237304   7.572   4.593   2.880
12455TIP3   OH237305   7.870   7.024   3.830
12455TIP3    H137306   7.793   7.050   3.880
12455TIP3    H237307   7.943   7.070   3.872
12456TIP3   OH237308   0.212   1.694   5.554
12456TIP3    H137309   0.275   1.745   5.503
12456TIP3    H237310   0.242   1.604   5.544
12457TIP3   OH237311   5.306   4.339   0.081
12457TIP3    H137312   5.276   4.427   0.057
12457TIP3    H237313   5.285   4.286   0.004
12458TIP3   OH237314   6.356   5.069   4.133
12458TIP3    H137315   6.358   5.165   4.130
12458TIP3    H237316   6.289   5.049   4.199
12459TIP3   OH237317   0.164   5.139   1.305
12459TIP3    H137318   0.150   5.168   1.395
12459TIP3    H237319   0.076   5.141   1.266
12460TIP3   OH237320  -0.017   7.655   4.194
12460TIP3    H137321  -0.007   7.747   4.171
12460TIP3    H237322   0.069   7.630   4.228
12461TIP3   OH237323   0.286   0.366   5.929
12461TIP3    H137324   0.308   0.282   5.969
12461TIP3    H237325   0.240   0.342   5.848
12462TIP3   OH237326   2.391   4.814   0.931
12462TIP3    H137327   2.344   4.812   0.848
12462TIP3    H237328   2.353   4.742   0.982
12463TIP3   OH237329   6.410   4.362   6.644
12463TIP3    H137330   6.440   4.364   6.735
12463TIP3    H237331   6.444   4.280   6.609
12464TIP3   OH237332   4.959   5.835   5.581
12464TIP3    H137333   4.953   5.884   5.499
12464TIP3    H237334   4.983   5.746   5.555
12465TIP3   OH237335   1.138   0.477   4.674
12465TIP3    H137336   1.160   0.498   4.765
12465TIP3    H237337   1.143   0.382   4.669
12466TIP3   OH237338   3.391   3.840   3.106
12466TIP3    H137339   3.425   3.911   3.052
12466TIP3    H237340   3.298   3.836   3.083
12467TIP3   OH237341   5.618   5.032   1.236
12467TIP3    H137342   5.583   4.982   1.310
12467TIP3    H237343   5.692   4.979   1.205
12468TIP3   OH237344   1.471   0.110   3.931
12468TIP3    H137345   1.499   0.185   3.878
12468TIP3    H237346   1.539   0.044   3.917
12469TIP3   OH237347   1.158   6.964   1.586
12469TIP3    H137348   1.145   6.925   1.499
12469TIP3    H237349   1.104   6.911   1.644
12470TIP3   OH237350   6.676   7.529   1.597
12470TIP3    H137351   6.698   7.458   1.536
12470TIP3    H237352   6.661   7.605   1.541
12471TIP3   OH237353   5.991   7.926   2.562
12471TIP3    H137354   6.047   7.900   2.635
12471TIP3    H237355   5.936   7.850   2.545
12472TIP3   OH237356   3.227   0.396   6.455
12472TIP3    H137357   3.194   0.316   6.416
12472TIP3    H237358   3.150   0.435   6.497
12473TIP3   OH237359   2.652   1.949   3.678
12473TIP3    H137360   2.729   1.969   3.730
12473TIP3    H237361   2.682   1.955   3.587
12474TIP3   OH237362   2.642   5.935   4.907
12474TIP3    H137363   2.658   5.954   4.815
12474TIP3    H237364   2.697   5.859   4.925
12475TIP3   OH237365   1.275   2.593   6.292
12475TIP3    H137366   1.261   2.520   6.352
12475TIP3    H237367   1.360   2.574   6.251
12476TIP3   OH237368   6.715   4.505   3.004
12476TIP3    H137369   6.643   4.513   3.066
12476TIP3    H237370   6.725   4.411   2.991
12477TIP3   OH237371   4.146   1.215   5.177
12477TIP3    H137372   4.140   1.182   5.087
12477TIP3    H237373   4.099   1.150   5.229
12478TIP3   OH237374   7.854   7.682   3.920
12478TIP3    H137375   7.845   7.604   3.866
12478TIP3    H237376   7.864   7.649   4.009
12479TIP3   OH237377   2.722   1.096   1.674
12479TIP3    H137378   2.722   1.006   1.706
12479TIP3    H237379   2.630   1.116   1.659
12480TIP3   OH237380   7.167   6.975   0.108
12480TIP3    H137381   7.160   7.069   0.097
12480TIP3    H237382   7.079   6.947   0.133
12481TIP3   OH237383   3.088   1.854   1.860
12481TIP3    H137384   3.106   1.781   1.801
12481TIP3    H237385   3.020   1.821   1.920
12482TIP3   OH237386   7.396   7.296   4.995
12482TIP3    H137387   7.308   7.259   4.993
12482TIP3    H237388   7.385   7.384   5.031
12483TIP3   OH237389   1.020   1.384   2.892
12483TIP3    H137390   0.998   1.385   2.985
12483TIP3    H237391   1.053   1.472   2.874
12484TIP3   OH237392   3.216   7.925   6.266
12484TIP3    H137393   3.300   7.968   6.279
12484TIP3    H237394   3.235   7.850   6.210
12485TIP3   OH237395   0.817   4.478   2.564
12485TIP3    H137396   0.816   4.517   2.477
12485TIP3    H237397   0.766   4.540   2.618
12486TIP3   OH237398   6.135   6.916   2.022
12486TIP3    H137399   6.210   6.858   2.038
12486TIP3    H237400   6.156   6.996   2.069
12487TIP3   OH237401   2.912   4.218   4.566
12487TIP3    H137402   2.998   4.200   4.605
12487TIP3    H237403   2.910   4.165   4.487
12488TIP3   OH237404   5.608   1.773   2.335
12488TIP3    H137405   5.514   1.777   2.318
12488TIP3    H237406   5.617   1.801   2.426
12489TIP3   OH237407   5.084   6.113   6.263
12489TIP3    H137408   5.096   6.193   6.314
12489TIP3    H237409   5.009   6.131   6.207
12490TIP3   OH237410   0.972   4.567   3.850
12490TIP3    H137411   0.910   4.639   3.863
12490TIP3    H237412   0.968   4.517   3.932
12491TIP3   OH237413   7.503   1.261   0.726
12491TIP3    H137414   7.471   1.297   0.809
12491TIP3    H237415   7.429   1.211   0.692
12492TIP3   OH237416   2.121   2.823   2.450
12492TIP3    H137417   2.095   2.798   2.539
12492TIP3    H237418   2.217   2.822   2.452
12493TIP3   OH237419   7.949   0.281   3.748
12493TIP3    H137420   7.948   0.195   3.706
12493TIP3    H237421   8.000   0.336   3.689
12494TIP3   OH237422   3.585   4.930   1.165
12494TIP3    H137423   3.678   4.911   1.154
12494TIP3    H237424   3.567   4.905   1.256
12495TIP3   OH237425   6.617   1.685   0.615
12495TIP3    H137426   6.617   1.780   0.606
12495TIP3    H237427   6.530   1.657   0.589
12496TIP3   OH237428   0.256   5.936   3.577
12496TIP3    H137429   0.342   5.906   3.547
12496TIP3    H237430   0.253   6.029   3.554
12497TIP3   OH237431   7.154   7.189   4.924
12497TIP3    H137432   7.080   7.153   4.973
12497TIP3    H237433   7.181   7.117   4.866
12498TIP3   OH237434   4.150   5.326   0.939
12498TIP3    H137435   4.163   5.243   0.983
12498TIP3    H237436   4.217   5.384   0.976
12499TIP3   OH237437   7.594   6.587   5.177
12499TIP3    H137438   7.534   6.610   5.107
12499TIP3    H237439   7.554   6.624   5.256
12500TIP3   OH237440   4.760   3.049   2.304
12500TIP3    H137441   4.744   3.140   2.330
12500TIP3    H237442   4.714   2.997   2.371
12501TIP3   OH237443   6.409   5.713   6.020
12501TIP3    H137444   6.464   5.645   5.981
12501TIP3    H237445   6.319   5.683   6.005
12502TIP3   OH237446   5.997   6.118   4.125
12502TIP3    H137447   6.009   6.206   4.090
12502TIP3    H237448   5.981   6.132   4.219
12503TIP3   OH237449   6.741   0.458   5.638
12503TIP3    H137450   6.659   0.419   5.608
12503TIP3    H237451   6.772   0.399   5.707
12504TIP3   OH237452   7.396   4.127   1.306
12504TIP3    H137453   7.363   4.196   1.363
12504TIP3    H237454   7.490   4.145   1.299
12505TIP3   OH237455   2.171   0.929   0.481
12505TIP3    H137456   2.094   0.965   0.437
12505TIP3    H237457   2.187   0.989   0.554
12506TIP3   OH237458   3.552   2.898   6.441
12506TIP3    H137459   3.497   2.877   6.516
12506TIP3    H237460   3.639   2.912   6.478
12507TIP3   OH237461   7.376   7.731   6.737
12507TIP3    H137462   7.437   7.795   6.699
12507TIP3    H237463   7.290   7.773   6.732
12508TIP3   OH237464   1.017   2.841   3.171
12508TIP3    H137465   1.027   2.932   3.200
12508TIP3    H237466   0.923   2.829   3.161
12509TIP3   OH237467   0.340   4.506   0.045
12509TIP3    H137468   0.387   4.423   0.049
12509TIP3    H237469   0.262   4.492   0.099
12510TIP3   OH237470   4.442   2.700   4.792
12510TIP3    H137471   4.435   2.667   4.703
12510TIP3    H237472   4.536   2.706   4.809
12511TIP3   OH237473   5.651   0.761   5.725
12511TIP3    H137474   5.729   0.716   5.693
12511TIP3    H237475   5.588   0.754   5.654
12512TIP3   OH237476   4.681   3.003   2.056
12512TIP3    H137477   4.724   3.027   2.138
12512TIP3    H237478   4.593   3.040   2.063
12513TIP3   OH237479   7.216   2.833   5.439
12513TIP3    H137480   7.277   2.798   5.504
12513TIP3    H237481   7.258   2.913   5.407
12514TIP3   OH237482   0.927   6.230   1.512
12514TIP3    H137483   0.901   6.182   1.590
12514TIP3    H237484   0.879   6.189   1.441
12515TIP3   OH237485   1.099   6.731   5.625
12515TIP3    H137486   1.102   6.758   5.717
12515TIP3    H237487   1.190   6.721   5.600
12516TIP3   OH237488   7.512   5.027   0.722
12516TIP3    H137489   7.557   5.093   0.774
12516TIP3    H237490   7.476   4.967   0.787
12517TIP3   OH237491   6.289   3.800   6.558
12517TIP3    H137492   6.308   3.713   6.592
12517TIP3    H237493   6.261   3.850   6.634
12518TIP3   OH237494   2.672   7.806   6.567
12518TIP3    H137495   2.649   7.803   6.660
12518TIP3    H237496   2.646   7.720   6.534
12519TIP3   OH237497   2.159   4.776   6.574
12519TIP3    H137498   2.236   4.763   6.519
12519TIP3    H237499   2.177   4.727   6.654
12520TIP3   OH237500   1.107   0.737   5.967
12520TIP3    H137501   1.057   0.814   5.994
12520TIP3    H237502   1.113   0.683   6.045
12521TIP3   OH237503   7.940   6.546   3.416
12521TIP3    H137504   7.889   6.617   3.454
12521TIP3    H237505   8.021   6.589   3.387
12522TIP3   OH237506   6.305   2.261   4.329
12522TIP3    H137507   6.285   2.339   4.277
12522TIP3    H237508   6.225   2.208   4.325
12523TIP3   OH237509   1.504   2.842   3.405
12523TIP3    H137510   1.417   2.819   3.436
12523TIP3    H237511   1.491   2.923   3.355
12524TIP3   OH237512   4.158   0.011   5.778
12524TIP3    H137513   4.190  -0.052   5.842
12524TIP3    H237514   4.176   0.096   5.818
12525TIP3   OH237515   2.652   5.798   3.723
12525TIP3    H137516   2.647   5.893   3.731
12525TIP3    H237517   2.741   5.776   3.749
12526TIP3   OH237518   3.758   2.942   5.173
12526TIP3    H137519   3.791   3.029   5.192
12526TIP3    H237520   3.663   2.950   5.180
12527TIP3   OH237521   3.180   4.480   1.537
12527TIP3    H137522   3.253   4.454   1.593
12527TIP3    H237523   3.207   4.566   1.502
12528TIP3   OH237524   1.655   5.453   2.102
12528TIP3    H137525   1.623   5.515   2.167
12528TIP3    H237526   1.639   5.495   2.018
12529TIP3   OH237527   3.789   0.854   1.122
12529TIP3    H137528   3.847   0.906   1.067
12529TIP3    H237529   3.713   0.910   1.137
12530TIP3   OH237530   6.268   7.687   3.911
12530TIP3    H137531   6.253   7.673   3.817
12530TIP3    H237532   6.360   7.668   3.923
12531TIP3   OH237533   5.426   4.513   0.596
12531TIP3    H137534   5.507   4.496   0.547
12531TIP3    H237535   5.408   4.430   0.640
12532TIP3   OH237536   1.508   0.674   4.381
12532TIP3    H137537   1.517   0.580   4.371
12532TIP3    H237538   1.419   0.687   4.413
12533TIP3   OH237539   3.161   6.539   5.181
12533TIP3    H137540   3.191   6.591   5.106
12533TIP3    H237541   3.219   6.462   5.180
12534TIP3   OH237542   3.997   1.367   4.281
12534TIP3    H137543   4.070   1.419   4.250
12534TIP3    H237544   4.015   1.353   4.374
12535TIP3   OH237545   0.779   1.853   3.090
12535TIP3    H137546   0.702   1.909   3.098
12535TIP3    H237547   0.814   1.847   3.178
12536TIP3   OH237548   8.319   2.663   0.424
12536TIP3    H137549   8.249   2.597   0.427
12536TIP3    H237550   8.335   2.685   0.516
12537TIP3   OH237551   0.365   4.621   0.469
12537TIP3    H137552   0.409   4.669   0.398
12537TIP3    H237553   0.421   4.635   0.545
12538TIP3   OH237554   5.647   3.271   6.561
12538TIP3    H137555   5.701   3.242   6.487
12538TIP3    H237556   5.559   3.281   6.524
12539TIP3   OH237557   5.021   0.601   1.074
12539TIP3    H137558   5.043   0.592   1.167
12539TIP3    H237559   5.105   0.589   1.029
12540TIP3   OH237560   4.325   2.154   5.058
12540TIP3    H137561   4.387   2.172   5.128
12540TIP3    H237562   4.261   2.094   5.098
12541TIP3   OH237563   2.477   3.291   2.131
12541TIP3    H137564   2.456   3.353   2.061
12541TIP3    H237565   2.544   3.234   2.093
12542TIP3   OH237566   0.860   6.293   2.047
12542TIP3    H137567   0.906   6.233   1.988
12542TIP3    H237568   0.778   6.248   2.068
12543TIP3   OH237569   5.814   5.554   6.584
12543TIP3    H137570   5.802   5.647   6.604
12543TIP3    H237571   5.872   5.552   6.508
12544TIP3   OH237572   1.526   0.806   0.526
12544TIP3    H137573   1.612   0.787   0.488
12544TIP3    H237574   1.543   0.871   0.594
12545TIP3   OH237575   5.427   5.912   0.353
12545TIP3    H137576   5.435   5.831   0.303
12545TIP3    H237577   5.338   5.942   0.335
12546TIP3   OH237578   1.553   3.318   5.376
12546TIP3    H137579   1.602   3.268   5.440
12546TIP3    H237580   1.548   3.406   5.412
12547TIP3   OH237581   3.255   5.262   4.740
12547TIP3    H137582   3.208   5.228   4.663
12547TIP3    H237583   3.243   5.193   4.806
12548TIP3   OH237584   1.243   4.988   0.789
12548TIP3    H137585   1.255   4.936   0.710
12548TIP3    H237586   1.227   4.924   0.858
12549TIP3   OH237587   3.007   3.701   2.398
12549TIP3    H137588   2.918   3.731   2.417
12549TIP3    H237589   3.024   3.635   2.464
12550TIP3   OH237590   1.900   4.720   6.455
12550TIP3    H137591   1.886   4.625   6.450
12550TIP3    H237592   1.993   4.729   6.476
12551TIP3   OH237593   3.889   5.384   5.795
12551TIP3    H137594   3.797   5.410   5.788
12551TIP3    H237595   3.938   5.465   5.780
12552TIP3   OH237596   3.195   7.024   5.667
12552TIP3    H137597   3.148   6.941   5.658
12552TIP3    H237598   3.133   7.090   5.635
12553TIP3   OH237599   0.108   5.761   1.527
12553TIP3    H137600   0.203   5.751   1.534
12553TIP3    H237601   0.076   5.674   1.504
12554TIP3   OH237602   5.020   7.380  -0.008
12554TIP3    H137603   4.929   7.367   0.018
12554TIP3    H237604   5.069   7.379   0.074
12555TIP3   OH237605   2.637   4.869   5.754
12555TIP3    H137606   2.638   4.840   5.663
12555TIP3    H237607   2.687   4.802   5.801
12556TIP3   OH237608   7.717   5.681   3.522
12556TIP3    H137609   7.650   5.747   3.541
12556TIP3    H237610   7.712   5.620   3.595
12557TIP3   OH237611   0.230   5.631   5.934
12557TIP3    H137612   0.140   5.598   5.937
12557TIP3    H237613   0.250   5.654   6.024
12558TIP3   OH237614   5.170   5.421   6.434
12558TIP3    H137615   5.263   5.407   6.450
12558TIP3    H237616   5.157   5.515   6.444
12559TIP3   OH237617   7.569   7.512   0.654
12559TIP3    H137618   7.583   7.419   0.637
12559TIP3    H237619   7.504   7.514   0.725
12560TIP3   OH237620   1.676   6.648   6.274
12560TIP3    H137621   1.638   6.634   6.361
12560TIP3    H237622   1.633   6.727   6.241
12561TIP3   OH237623   6.379   2.665   2.048
12561TIP3    H137624   6.405   2.591   1.992
12561TIP3    H237625   6.283   2.668   2.041
12562TIP3   OH237626   1.826   6.646   5.469
12562TIP3    H137627   1.910   6.675   5.504
12562TIP3    H237628   1.833   6.659   5.375
12563TIP3   OH237629   2.266   6.015   4.812
12563TIP3    H137630   2.285   6.077   4.882
12563TIP3    H237631   2.178   6.037   4.784
12564TIP3   OH237632   4.135   6.041   5.905
12564TIP3    H137633   4.176   5.989   5.837
12564TIP3    H237634   4.048   6.002   5.916
12565TIP3   OH237635   3.743   1.931   1.449
12565TIP3    H137636   3.832   1.902   1.467
12565TIP3    H237637   3.690   1.891   1.519
12566TIP3   OH237638   5.469   2.826   0.391
12566TIP3    H137639   5.556   2.801   0.359
12566TIP3    H237640   5.423   2.742   0.401
12567TIP3   OH237641   1.029   5.193   5.612
12567TIP3    H137642   1.103   5.179   5.671
12567TIP3    H237643   1.065   5.245   5.541
12568TIP3   OH237644   0.674   0.829   4.713
12568TIP3    H137645   0.733   0.757   4.691
12568TIP3    H237646   0.727   0.887   4.768
12569TIP3   OH237647   2.729   0.726   0.179
12569TIP3    H137648   2.727   0.799   0.117
12569TIP3    H237649   2.643   0.727   0.220
12570TIP3   OH237650   3.001   5.781   0.879
12570TIP3    H137651   3.045   5.741   0.804
12570TIP3    H237652   2.928   5.723   0.898
12571TIP3   OH237653   6.064   7.791   1.567
12571TIP3    H137654   6.068   7.865   1.506
12571TIP3    H237655   6.122   7.816   1.639
12572TIP3   OH237656   6.804   0.014   2.255
12572TIP3    H137657   6.721   0.056   2.231
12572TIP3    H237658   6.822   0.044   2.344
12573TIP3   OH237659   2.727   4.819   1.870
12573TIP3    H137660   2.709   4.743   1.925
12573TIP3    H237661   2.640   4.852   1.846
12574TIP3   OH237662   2.871   5.234   0.393
12574TIP3    H137663   2.867   5.328   0.372
12574TIP3    H237664   2.779   5.208   0.402
12575TIP3   OH237665   5.826   0.953   4.144
12575TIP3    H137666   5.906   0.951   4.093
12575TIP3    H237667   5.840   1.024   4.207
12576TIP3   OH237668   7.166   6.405   5.017
12576TIP3    H137669   7.160   6.310   5.006
12576TIP3    H237670   7.130   6.441   4.936
12577TIP3   OH237671   1.537   5.280   2.936
12577TIP3    H137672   1.602   5.293   2.867
12577TIP3    H237673   1.467   5.230   2.895
12578TIP3   OH237674   2.823   4.804   4.949
12578TIP3    H137675   2.897   4.754   4.982
12578TIP3    H237676   2.817   4.779   4.856
12579TIP3   OH237677   1.774   4.652   2.727
12579TIP3    H137678   1.821   4.574   2.753
12579TIP3    H237679   1.721   4.625   2.652
12580TIP3   OH237680   3.868   6.983   6.809
12580TIP3    H137681   3.903   7.037   6.739
12580TIP3    H237682   3.859   6.896   6.770
12581TIP3   OH237683   4.480   7.191   5.099
12581TIP3    H137684   4.573   7.181   5.078
12581TIP3    H237685   4.473   7.280   5.133
12582TIP3   OH237686   2.822   1.788   1.575
12582TIP3    H137687   2.870   1.738   1.510
12582TIP3    H237688   2.825   1.734   1.654
12583TIP3   OH237689   8.375   2.329   0.688
12583TIP3    H137690   8.379   2.242   0.728
12583TIP3    H237691   8.380   2.390   0.762
12584TIP3   OH237692   2.888   3.122   6.624
12584TIP3    H137693   2.902   3.213   6.651
12584TIP3    H237694   2.963   3.074   6.659
12585TIP3   OH237695   2.402   6.670   3.722
12585TIP3    H137696   2.328   6.671   3.782
12585TIP3    H237697   2.396   6.586   3.677
12586TIP3   OH237698   4.522   0.560   4.271
12586TIP3    H137699   4.567   0.568   4.354
12586TIP3    H237700   4.504   0.650   4.243
12587TIP3   OH237701   4.850   7.242   3.620
12587TIP3    H137702   4.774   7.202   3.580
12587TIP3    H237703   4.814   7.306   3.681
12588TIP3   OH237704   2.764   7.135   5.836
12588TIP3    H137705   2.811   7.203   5.787
12588TIP3    H237706   2.797   7.052   5.800
12589TIP3   OH237707   5.491   1.443   1.033
12589TIP3    H137708   5.480   1.410   1.122
12589TIP3    H237709   5.481   1.538   1.041
12590TIP3   OH237710   7.194   3.311   6.273
12590TIP3    H137711   7.232   3.224   6.261
12590TIP3    H237712   7.270   3.370   6.268
12591TIP3   OH237713   3.491   1.539   4.934
12591TIP3    H137714   3.506   1.559   5.026
12591TIP3    H237715   3.413   1.589   4.910
12592TIP3   OH237716   5.872   3.657   6.193
12592TIP3    H137717   5.874   3.572   6.149
12592TIP3    H237718   5.803   3.706   6.147
12593TIP3   OH237719   4.970   3.069   1.158
12593TIP3    H137720   4.986   3.149   1.207
12593TIP3    H237721   4.958   3.001   1.225
12594TIP3   OH237722   6.423   1.283   4.039
12594TIP3    H137723   6.398   1.235   3.961
12594TIP3    H237724   6.342   1.323   4.070
12595TIP3   OH237725   6.157   5.680   3.468
12595TIP3    H137726   6.189   5.630   3.543
12595TIP3    H237727   6.061   5.673   3.475
12596TIP3   OH237728   6.718   5.235   4.190
12596TIP3    H137729   6.667   5.316   4.194
12596TIP3    H237730   6.722   5.204   4.280
12597TIP3   OH237731   2.819   2.367   6.313
12597TIP3    H137732   2.791   2.276   6.305
12597TIP3    H237733   2.913   2.365   6.294
12598TIP3   OH237734   3.798   5.880   4.318
12598TIP3    H137735   3.808   5.835   4.234
12598TIP3    H237736   3.731   5.947   4.302
12599TIP3   OH237737   6.099   2.071   2.689
12599TIP3    H137738   6.060   2.154   2.718
12599TIP3    H237739   6.181   2.065   2.738
12600TIP3   OH237740   7.905   7.857   5.981
12600TIP3    H137741   7.961   7.934   5.974
12600TIP3    H237742   7.816   7.891   5.980
12601TIP3   OH237743   8.369   6.314   6.495
12601TIP3    H137744   8.458   6.298   6.527
12601TIP3    H237745   8.312   6.269   6.558
12602TIP3   OH237746   6.718   3.837   3.156
12602TIP3    H137747   6.744   3.759   3.206
12602TIP3    H237748   6.623   3.828   3.147
12603TIP3   OH237749   2.637   3.224   3.279
12603TIP3    H137750   2.617   3.140   3.320
12603TIP3    H237751   2.582   3.288   3.326
12604TIP3   OH237752   1.751   4.944   1.711
12604TIP3    H137753   1.728   4.944   1.804
12604TIP3    H237754   1.831   4.998   1.707
12605TIP3   OH237755   6.551   5.488   6.544
12605TIP3    H137756   6.627   5.519   6.593
12605TIP3    H237757   6.517   5.567   6.501
12606TIP3   OH237758   7.006   4.904   3.892
12606TIP3    H137759   7.090   4.947   3.872
12606TIP3    H237760   7.002   4.832   3.829
12607TIP3   OH237761   2.939   0.579   4.415
12607TIP3    H137762   2.943   0.503   4.473
12607TIP3    H237763   3.027   0.617   4.418
12608TIP3   OH237764   7.566   7.884   2.115
12608TIP3    H137765   7.540   7.969   2.149
12608TIP3    H237766   7.596   7.902   2.026
12609TIP3   OH237767   7.758   5.827   0.828
12609TIP3    H137768   7.679   5.881   0.817
12609TIP3    H237769   7.785   5.806   0.738
12610TIP3   OH237770   0.013   1.408   5.878
12610TIP3    H137771  -0.073   1.443   5.856
12610TIP3    H237772   0.068   1.485   5.893
12611TIP3   OH237773   3.853   6.471   4.923
12611TIP3    H137774   3.758   6.485   4.920
12611TIP3    H237775   3.885   6.537   4.983
12612TIP3   OH237776   5.690   3.713   3.096
12612TIP3    H137777   5.666   3.641   3.038
12612TIP3    H237778   5.607   3.755   3.119
12613TIP3   OH237779   1.846   4.127   4.067
12613TIP3    H137780   1.937   4.155   4.057
12613TIP3    H237781   1.846   4.035   4.041
12614TIP3   OH237782   0.638   0.583   3.759
12614TIP3    H137783   0.654   0.564   3.666
12614TIP3    H237784   0.648   0.500   3.803
12615TIP3   OH237785   6.749   0.670   5.227
12615TIP3    H137786   6.683   0.696   5.163
12615TIP3    H237787   6.812   0.618   5.176
12616TIP3   OH237788   6.885   7.032   5.893
12616TIP3    H137789   6.832   6.952   5.891
12616TIP3    H237790   6.924   7.033   5.981
12617TIP3   OH237791   5.129   7.679   6.120
12617TIP3    H137792   5.224   7.689   6.116
12617TIP3    H237793   5.104   7.654   6.032
12618TIP3   OH237794   0.618   5.021   5.607
12618TIP3    H137795   0.548   4.955   5.609
12618TIP3    H237796   0.572   5.105   5.603
12619TIP3   OH237797   5.386   3.312   0.500
12619TIP3    H137798   5.337   3.326   0.419
12619TIP3    H237799   5.438   3.234   0.483
12620TIP3   OH237800   3.601   5.801   0.297
12620TIP3    H137801   3.583   5.814   0.390
12620TIP3    H237802   3.532   5.741   0.268
12621TIP3   OH237803   6.435   1.015   2.496
12621TIP3    H137804   6.462   1.030   2.587
12621TIP3    H237805   6.354   0.964   2.504
12622TIP3   OH237806   5.369   7.575   0.075
12622TIP3    H137807   5.440   7.605   0.132
12622TIP3    H237808   5.376   7.479   0.076
12623TIP3   OH237809   5.116   1.976   0.560
12623TIP3    H137810   5.045   1.989   0.623
12623TIP3    H237811   5.073   1.933   0.486
12624TIP3   OH237812   8.282   4.797   5.909
12624TIP3    H137813   8.224   4.759   5.976
12624TIP3    H237814   8.355   4.833   5.959
12625TIP3   OH237815   5.182   0.066   0.967
12625TIP3    H137816   5.132   0.049   0.888
12625TIP3    H237817   5.219   0.153   0.954
12626TIP3   OH237818   0.562   1.551   0.610
12626TIP3    H137819   0.553   1.457   0.627
12626TIP3    H237820   0.615   1.582   0.684
12627TIP3   OH237821   6.505   4.973   1.888
12627TIP3    H137822   6.466   5.054   1.854
12627TIP3    H237823   6.529   4.924   1.809
12628TIP3   OH237824   7.339   1.286   0.426
12628TIP3    H137825   7.397   1.361   0.437
12628TIP3    H237826   7.357   1.255   0.337
12629TIP3   OH237827   4.676   5.616   2.754
12629TIP3    H137828   4.647   5.647   2.840
12629TIP3    H237829   4.760   5.573   2.771
12630TIP3   OH237830   6.248   2.187   0.611
12630TIP3    H137831   6.192   2.135   0.553
12630TIP3    H237832   6.284   2.123   0.673
12631TIP3   OH237833   0.390   3.050   0.649
12631TIP3    H137834   0.407   3.089   0.736
12631TIP3    H237835   0.437   2.967   0.650
12632TIP3   OH237836   0.654   1.046   2.994
12632TIP3    H137837   0.716   1.040   3.067
12632TIP3    H237838   0.645   1.140   2.978
12633TIP3   OH237839   0.858   0.183   1.344
12633TIP3    H137840   0.944   0.141   1.337
12633TIP3    H237841   0.824   0.152   1.428
12634TIP3   OH237842   0.077   6.922   6.664
12634TIP3    H137843   0.081   6.966   6.749
12634TIP3    H237844  -0.015   6.897   6.654
12635TIP3   OH237845   3.883   2.748   6.035
12635TIP3    H137846   3.956   2.686   6.040
12635TIP3    H237847   3.816   2.711   6.093
12636TIP3   OH237848   6.821   7.627   1.804
12636TIP3    H137849   6.810   7.718   1.775
12636TIP3    H237850   6.771   7.575   1.741
12637TIP3   OH237851   4.696   3.952   1.110
12637TIP3    H137852   4.685   4.000   1.192
12637TIP3    H237853   4.742   4.013   1.052
12638TIP3   OH237854   6.747   3.219   2.786
12638TIP3    H137855   6.672   3.168   2.757
12638TIP3    H237856   6.821   3.158   2.781
12639TIP3   OH237857   6.650   0.704   1.773
12639TIP3    H137858   6.559   0.700   1.745
12639TIP3    H237859   6.647   0.752   1.856
12640TIP3   OH237860   1.181   5.537   4.009
12640TIP3    H137861   1.123   5.578   3.946
12640TIP3    H237862   1.256   5.596   4.015
12641TIP3   OH237863   3.802   4.991   6.801
12641TIP3    H137864   3.815   5.086   6.794
12641TIP3    H237865   3.715   4.982   6.839
12642TIP3   OH237866   1.342   7.658   2.523
12642TIP3    H137867   1.430   7.695   2.511
12642TIP3    H237868   1.283   7.730   2.504
12643TIP3   OH237869   3.340   2.445   0.985
12643TIP3    H137870   3.350   2.381   0.915
12643TIP3    H237871   3.327   2.529   0.941
12644TIP3   OH237872   2.224   0.804   2.730
12644TIP3    H137873   2.171   0.758   2.666
12644TIP3    H237874   2.263   0.877   2.682
12645TIP3   OH237875   3.339   4.369   5.937
12645TIP3    H137876   3.344   4.280   5.902
12645TIP3    H237877   3.403   4.370   6.007
12646TIP3   OH237878   2.119   5.290   5.223
12646TIP3    H137879   2.113   5.195   5.213
12646TIP3    H237880   2.035   5.323   5.191
12647TIP3   OH237881   5.043   4.111   5.710
12647TIP3    H137882   4.957   4.153   5.718
12647TIP3    H237883   5.054   4.098   5.616
12648TIP3   OH237884   5.859   5.396   3.298
12648TIP3    H137885   5.932   5.334   3.306
12648TIP3    H237886   5.885   5.471   3.350
12649TIP3   OH237887   1.361   0.331   1.978
12649TIP3    H137888   1.344   0.265   1.911
12649TIP3    H237889   1.368   0.282   2.059
12650TIP3   OH237890   8.042   7.447   2.519
12650TIP3    H137891   8.069   7.535   2.547
12650TIP3    H237892   8.106   7.388   2.558
12651TIP3   OH237893   5.727   6.320   1.659
12651TIP3    H137894   5.712   6.263   1.583
12651TIP3    H237895   5.732   6.408   1.622
12652TIP3   OH237896   1.455   0.470   5.195
12652TIP3    H137897   1.469   0.510   5.280
12652TIP3    H237898   1.541   0.474   5.152
12653TIP3   OH237899   8.297   6.167   5.272
12653TIP3    H137900   8.331   6.149   5.360
12653TIP3    H237901   8.202   6.157   5.280
12654TIP3   OH237902   5.752   7.456   2.917
12654TIP3    H137903   5.688   7.476   2.849
12654TIP3    H237904   5.804   7.537   2.925
12655TIP3   OH237905   2.606   5.720   1.767
12655TIP3    H137906   2.557   5.741   1.846
12655TIP3    H237907   2.571   5.637   1.737
12656TIP3   OH237908   6.741   6.494   3.634
12656TIP3    H137909   6.765   6.558   3.701
12656TIP3    H237910   6.655   6.523   3.603
12657TIP3   OH237911   6.738   1.663   0.372
12657TIP3    H137912   6.818   1.712   0.390
12657TIP3    H237913   6.695   1.655   0.457
12658TIP3   OH237914   1.284   1.305   2.397
12658TIP3    H137915   1.214   1.339   2.453
12658TIP3    H237916   1.331   1.244   2.454
12659TIP3   OH237917   8.369   6.355   6.801
12659TIP3    H137918   8.297   6.397   6.755
12659TIP3    H237919   8.346   6.262   6.802
12660TIP3   OH237920   0.419   7.717   4.988
12660TIP3    H137921   0.373   7.633   4.981
12660TIP3    H237922   0.473   7.721   4.910
12661TIP3   OH237923   2.227   4.270   5.411
12661TIP3    H137924   2.255   4.341   5.354
12661TIP3    H237925   2.162   4.309   5.469
12662TIP3   OH237926   5.150   2.616   1.010
12662TIP3    H137927   5.150   2.522   1.030
12662TIP3    H237928   5.058   2.636   0.990
12663TIP3   OH237929   0.338   6.187   0.706
12663TIP3    H137930   0.433   6.182   0.697
12663TIP3    H237931   0.311   6.249   0.638
12664TIP3   OH237932   5.395   5.356   3.243
12664TIP3    H137933   5.438   5.290   3.189
12664TIP3    H237934   5.462   5.385   3.304
12665TIP3   OH237935   5.072   0.865   0.765
12665TIP3    H137936   5.020   0.787   0.745
12665TIP3    H237937   5.162   0.841   0.741
12666TIP3   OH237938   2.186   6.642   1.379
12666TIP3    H137939   2.205   6.567   1.323
12666TIP3    H237940   2.143   6.605   1.456
12667TIP3   OH237941   2.548   5.707   0.508
12667TIP3    H137942   2.504   5.629   0.542
12667TIP3    H237943   2.624   5.719   0.566
12668TIP3   OH237944   3.671   7.662   4.508
12668TIP3    H137945   3.586   7.699   4.533
12668TIP3    H237946   3.660   7.567   4.519
12669TIP3   OH237947   0.486   7.367   1.054
12669TIP3    H137948   0.420   7.367   0.984
12669TIP3    H237949   0.538   7.445   1.038
12670TIP3   OH237950   4.183   0.903   0.078
12670TIP3    H137951   4.261   0.907   0.133
12670TIP3    H237952   4.120   0.961   0.121
12671TIP3   OH237953   0.017   3.259   3.126
12671TIP3    H137954   0.100   3.306   3.134
12671TIP3    H237955  -0.049   3.319   3.160
12672TIP3   OH237956   7.160   3.526   6.625
12672TIP3    H137957   7.191   3.436   6.635
12672TIP3    H237958   7.076   3.527   6.672
12673TIP3   OH237959   8.355   6.986   3.294
12673TIP3    H137960   8.313   7.066   3.262
12673TIP3    H237961   8.371   6.934   3.216
12674TIP3   OH237962   2.471   3.680   2.947
12674TIP3    H137963   2.524   3.632   3.010
12674TIP3    H237964   2.497   3.772   2.960
12675TIP3   OH237965   4.299   1.249   6.238
12675TIP3    H137966   4.314   1.327   6.291
12675TIP3    H237967   4.384   1.205   6.234
12676TIP3   OH237968   0.902   5.191   6.008
12676TIP3    H137969   0.899   5.286   5.997
12676TIP3    H237970   0.945   5.179   6.092
12677TIP3   OH237971   2.265   6.473   4.747
12677TIP3    H137972   2.188   6.531   4.754
12677TIP3    H237973   2.248   6.420   4.670
12678TIP3   OH237974   5.247   3.766   4.914
12678TIP3    H137975   5.177   3.782   4.978
12678TIP3    H237976   5.249   3.670   4.905
12679TIP3   OH237977   0.372   7.113   2.417
12679TIP3    H137978   0.433   7.050   2.454
12679TIP3    H237979   0.285   7.077   2.435
12680TIP3   OH237980   1.502   2.972   4.177
12680TIP3    H137981   1.528   2.953   4.087
12680TIP3    H237982   1.407   2.982   4.173
12681TIP3   OH237983   2.030   2.450   1.326
12681TIP3    H137984   1.941   2.469   1.296
12681TIP3    H237985   2.085   2.466   1.249
12682TIP3   OH237986   0.247   0.746   4.205
12682TIP3    H137987   0.275   0.832   4.173
12682TIP3    H237988   0.318   0.718   4.263
12683TIP3   OH237989   3.878   4.304   2.511
12683TIP3    H137990   3.923   4.244   2.451
12683TIP3    H237991   3.849   4.248   2.583
12684TIP3   OH237992   6.557   5.295   4.999
12684TIP3    H137993   6.509   5.234   4.943
12684TIP3    H237994   6.524   5.381   4.975
12685TIP3   OH237995   5.947   6.612   4.947
12685TIP3    H137996   5.979   6.697   4.978
12685TIP3    H237997   5.878   6.634   4.884
12686TIP3   OH237998   4.510   5.826   2.429
12686TIP3    H137999   4.432   5.880   2.414
12686TIP3    H238000   4.499   5.793   2.518
12687TIP3   OH238001   7.646   2.299   2.635
12687TIP3    H138002   7.673   2.391   2.638
12687TIP3    H238003   7.661   2.272   2.544
12688TIP3   OH238004   3.753   5.671   2.452
12688TIP3    H138005   3.666   5.683   2.414
12688TIP3    H238006   3.812   5.664   2.377
12689TIP3   OH238007   6.883   7.287   4.409
12689TIP3    H138008   6.958   7.333   4.448
12689TIP3    H238009   6.817   7.285   4.479
12690TIP3   OH238010   6.977   2.139   2.854
12690TIP3    H138011   7.028   2.065   2.821
12690TIP3    H238012   6.901   2.099   2.897
12691TIP3   OH238013   1.891   2.652   2.664
12691TIP3    H138014   1.937   2.597   2.728
12691TIP3    H238015   1.819   2.599   2.633
12692TIP3   OH238016   5.303   7.653   4.074
12692TIP3    H138017   5.211   7.657   4.100
12692TIP3    H238018   5.302   7.610   3.988
12693TIP3   OH238019   0.347   0.813   3.803
12693TIP3    H138020   0.314   0.903   3.806
12693TIP3    H238021   0.424   0.818   3.746
12694TIP3   OH238022   7.992   2.536   4.072
12694TIP3    H138023   8.005   2.592   4.148
12694TIP3    H238024   8.055   2.568   4.008
12695TIP3   OH238025   0.751   6.915   0.016
12695TIP3    H138026   0.800   6.995  -0.004
12695TIP3    H238027   0.696   6.939   0.091
12696TIP3   OH238028   6.157   4.426   4.126
12696TIP3    H138029   6.161   4.337   4.092
12696TIP3    H238030   6.122   4.478   4.053
12697TIP3   OH238031   8.352   0.779   5.692
12697TIP3    H138032   8.281   0.778   5.629
12697TIP3    H238033   8.410   0.707   5.665
12698TIP3   OH238034   0.639   6.696   5.925
12698TIP3    H138035   0.613   6.653   5.844
12698TIP3    H238036   0.727   6.663   5.944
12699TIP3   OH238037   2.512   6.213   6.253
12699TIP3    H138038   2.559   6.213   6.170
12699TIP3    H238039   2.461   6.133   6.251
12700TIP3   OH238040   1.497   4.336   0.540
12700TIP3    H138041   1.431   4.344   0.610
12700TIP3    H238042   1.553   4.413   0.551
12701TIP3   OH238043   7.423   1.135   6.078
12701TIP3    H138044   7.406   1.074   6.150
12701TIP3    H238045   7.348   1.194   6.079
12702TIP3   OH238046   3.196   4.984   4.391
12702TIP3    H138047   3.286   5.013   4.408
12702TIP3    H238048   3.166   5.041   4.320
12703TIP3   OH238049   1.377   3.986   0.856
12703TIP3    H138050   1.443   3.988   0.786
12703TIP3    H238051   1.322   3.910   0.835
12704TIP3   OH238052   5.243   7.779   3.110
12704TIP3    H138053   5.318   7.795   3.167
12704TIP3    H238054   5.173   7.833   3.147
12705TIP3   OH238055   2.819   2.981   0.726
12705TIP3    H138056   2.914   2.968   0.726
12705TIP3    H238057   2.801   3.030   0.806
12706TIP3   OH238058   3.507   3.072   5.140
12706TIP3    H138059   3.432   3.043   5.089
12706TIP3    H238060   3.506   3.168   5.132
12707TIP3   OH238061   5.878   1.218   5.385
12707TIP3    H138062   5.912   1.167   5.311
12707TIP3    H238063   5.799   1.260   5.351
12708TIP3   OH238064   5.994   7.452   6.072
12708TIP3    H138065   6.032   7.414   6.151
12708TIP3    H238066   5.973   7.542   6.097
12709TIP3   OH238067   4.090   1.632   1.606
12709TIP3    H138068   4.075   1.538   1.617
12709TIP3    H238069   4.183   1.638   1.581
12710TIP3   OH238070   1.113   1.850   1.553
12710TIP3    H138071   1.053   1.904   1.502
12710TIP3    H238072   1.063   1.772   1.575
12711TIP3   OH238073   3.820   5.426   2.729
12711TIP3    H138074   3.742   5.388   2.688
12711TIP3    H238075   3.847   5.496   2.670
12712TIP3   OH238076   3.200   0.041   3.892
12712TIP3    H138077   3.112   0.061   3.924
12712TIP3    H238078   3.259   0.087   3.952
12713TIP3   OH238079   7.805   3.869   3.354
12713TIP3    H138080   7.824   3.786   3.310
12713TIP3    H238081   7.771   3.926   3.285
12714TIP3   OH238082   0.143   2.187   3.976
12714TIP3    H138083   0.099   2.184   3.891
12714TIP3    H238084   0.092   2.127   4.031
12715TIP3   OH238085   4.376   6.433   6.632
12715TIP3    H138086   4.413   6.506   6.681
12715TIP3    H238087   4.281   6.448   6.633
12716TIP3   OH238088   4.189   1.491   0.248
12716TIP3    H138089   4.107   1.463   0.289
12716TIP3    H238090   4.216   1.415   0.196
12717TIP3   OH238091   5.203   3.838   0.704
12717TIP3    H138092   5.202   3.756   0.754
12717TIP3    H238093   5.291   3.843   0.667
12718TIP3   OH238094   7.393   0.851   2.421
12718TIP3    H138095   7.484   0.834   2.395
12718TIP3    H238096   7.357   0.902   2.349
12719TIP3   OH238097   0.361   2.181   6.350
12719TIP3    H138098   0.342   2.093   6.318
12719TIP3    H238099   0.344   2.238   6.275
12720TIP3   OH238100   5.375   5.175   0.805
12720TIP3    H138101   5.458   5.210   0.837
12720TIP3    H238102   5.363   5.093   0.852
12721TIP3   OH238103   8.027   6.137   2.017
12721TIP3    H138104   8.084   6.093   1.953
12721TIP3    H238105   8.040   6.088   2.098
12722TIP3   OH238106   1.907   5.383   5.074
12722TIP3    H138107   1.968   5.385   4.999
12722TIP3    H238108   1.863   5.468   5.071
12723TIP3   OH238109   2.446   3.751   6.664
12723TIP3    H138110   2.503   3.827   6.678
12723TIP3    H238111   2.504   3.675   6.672
12724TIP3   OH238112   3.657   0.535   4.573
12724TIP3    H138113   3.695   0.592   4.640
12724TIP3    H238114   3.724   0.468   4.558
12725TIP3   OH238115   4.475   7.590   3.695
12725TIP3    H138116   4.489   7.498   3.717
12725TIP3    H238117   4.380   7.600   3.692
12726TIP3   OH238118   1.210   2.304   5.468
12726TIP3    H138119   1.143   2.258   5.519
12726TIP3    H238120   1.253   2.361   5.531
12727TIP3   OH238121   2.360   2.360   5.866
12727TIP3    H138122   2.410   2.350   5.785
12727TIP3    H238123   2.376   2.278   5.913
12728TIP3   OH238124   4.073   2.647   2.260
12728TIP3    H138125   4.070   2.743   2.255
12728TIP3    H238126   4.064   2.618   2.169
12729TIP3   OH238127   4.420   7.792   4.865
12729TIP3    H138128   4.495   7.843   4.835
12729TIP3    H238129   4.388   7.747   4.786
12730TIP3   OH238130   7.654   2.003   0.643
12730TIP3    H138131   7.666   1.976   0.552
12730TIP3    H238132   7.712   2.080   0.652
12731TIP3   OH238133   1.254   5.292   1.103
12731TIP3    H138134   1.198   5.240   1.046
12731TIP3    H238135   1.242   5.382   1.072
12732TIP3   OH238136   3.029   2.535   5.381
12732TIP3    H138137   3.026   2.515   5.475
12732TIP3    H238138   3.065   2.456   5.341
12733TIP3   OH238139   0.146   6.420   2.077
12733TIP3    H138140   0.111   6.427   2.166
12733TIP3    H238141   0.097   6.349   2.037
12734TIP3   OH238142   3.411   4.646   3.612
12734TIP3    H138143   3.454   4.713   3.559
12734TIP3    H238144   3.459   4.646   3.695
12735TIP3   OH238145   4.183   3.993   4.098
12735TIP3    H138146   4.268   4.026   4.127
12735TIP3    H238147   4.200   3.903   4.072
12736TIP3   OH238148   2.369   3.380   5.322
12736TIP3    H138149   2.380   3.288   5.346
12736TIP3    H238150   2.334   3.377   5.233
12737TIP3   OH238151   0.683   4.308   6.399
12737TIP3    H138152   0.648   4.220   6.385
12737TIP3    H238153   0.741   4.299   6.475
12738TIP3   OH238154   5.927   6.825   1.875
12738TIP3    H138155   6.004   6.854   1.924
12738TIP3    H238156   5.955   6.746   1.830
12739TIP3   OH238157   8.287   6.181   0.963
12739TIP3    H138158   8.237   6.128   1.025
12739TIP3    H238159   8.321   6.118   0.900
12740TIP3   OH238160   2.585   5.385   4.611
12740TIP3    H138161   2.596   5.290   4.616
12740TIP3    H238162   2.509   5.397   4.555
12741TIP3   OH238163   1.980   5.681   6.609
12741TIP3    H138164   1.993   5.702   6.517
12741TIP3    H238165   2.015   5.757   6.656
12742TIP3   OH238166   3.137   0.924   1.058
12742TIP3    H138167   3.180   0.840   1.068
12742TIP3    H238168   3.202   0.980   1.015
12743TIP3   OH238169   2.066   0.586   6.674
12743TIP3    H138170   1.995   0.535   6.633
12743TIP3    H238171   2.027   0.620   6.755
12744TIP3   OH238172   6.647   1.685   1.585
12744TIP3    H138173   6.599   1.638   1.654
12744TIP3    H238174   6.738   1.680   1.612
12745TIP3   OH238175   2.396   6.666   1.920
12745TIP3    H138176   2.327   6.723   1.954
12745TIP3    H238177   2.349   6.595   1.876
12746TIP3   OH238178   5.444   1.879   2.042
12746TIP3    H138179   5.484   1.841   1.964
12746TIP3    H238180   5.508   1.945   2.072
12747TIP3   OH238181   7.969   7.182   1.951
12747TIP3    H138182   7.879   7.215   1.964
12747TIP3    H238183   8.022   7.261   1.942
12748TIP3   OH238184   1.992   2.768   6.073
12748TIP3    H138185   2.004   2.810   5.987
12748TIP3    H238186   2.022   2.678   6.060
12749TIP3   OH238187   4.659   3.307   2.964
12749TIP3    H138188   4.708   3.292   2.883
12749TIP3    H238189   4.572   3.333   2.935
12750TIP3   OH238190   8.011   4.522   1.757
12750TIP3    H138191   8.085   4.577   1.731
12750TIP3    H238192   8.051   4.451   1.808
12751TIP3   OH238193   2.900   5.012   6.888
12751TIP3    H138194   2.888   4.931   6.839
12751TIP3    H238195   2.897   5.081   6.821
12752TIP3   OH238196   4.706   0.951   5.682
12752TIP3    H138197   4.647   0.946   5.607
12752TIP3    H238198   4.668   0.893   5.747
12753TIP3   OH238199   6.298   2.728   6.759
12753TIP3    H138200   6.351   2.798   6.798
12753TIP3    H238201   6.260   2.683   6.835
12754TIP3   OH238202   1.434   6.808   6.271
12754TIP3    H138203   1.343   6.826   6.246
12754TIP3    H238204   1.444   6.849   6.357
12755TIP3   OH238205   0.854   0.092   3.996
12755TIP3    H138206   0.777   0.044   4.029
12755TIP3    H238207   0.891   0.035   3.929
12756TIP3   OH238208   0.290   4.184   2.564
12756TIP3    H138209   0.299   4.191   2.659
12756TIP3    H238210   0.199   4.156   2.551
12757TIP3   OH238211   0.346   1.416   5.132
12757TIP3    H138212   0.285   1.341   5.130
12757TIP3    H238213   0.394   1.405   5.214
12758TIP3   OH238214   6.067   1.587   6.643
12758TIP3    H138215   6.056   1.519   6.709
12758TIP3    H238216   6.149   1.630   6.665
12759TIP3   OH238217   6.746   3.362   3.121
12759TIP3    H138218   6.694   3.434   3.158
12759TIP3    H238219   6.754   3.384   3.028
12760TIP3   OH238220   4.628   4.504   5.826
12760TIP3    H138221   4.545   4.540   5.856
12760TIP3    H238222   4.618   4.496   5.731
12761TIP3   OH238223   6.701   4.056   1.288
12761TIP3    H138224   6.680   4.030   1.198
12761TIP3    H238225   6.625   4.107   1.316
12762TIP3   OH238226   8.072   5.180   1.764
12762TIP3    H138227   8.107   5.211   1.681
12762TIP3    H238228   8.143   5.128   1.802
12763TIP3   OH238229   8.215   3.719   5.607
12763TIP3    H138230   8.188   3.628   5.621
12763TIP3    H238231   8.211   3.730   5.511
12764TIP3   OH238232   1.592   4.437   4.165
12764TIP3    H138233   1.643   4.487   4.101
12764TIP3    H238234   1.501   4.464   4.151
12765TIP3   OH238235   1.516   3.711   4.360
12765TIP3    H138236   1.423   3.691   4.350
12765TIP3    H238237   1.518   3.805   4.375
12766TIP3   OH238238   3.780   2.579   4.600
12766TIP3    H138239   3.784   2.664   4.558
12766TIP3    H238240   3.867   2.541   4.587
12767TIP3   OH238241   2.150   7.385   4.891
12767TIP3    H138242   2.100   7.319   4.939
12767TIP3    H238243   2.124   7.468   4.931
12768TIP3   OH238244   0.566   3.993   1.704
12768TIP3    H138245   0.566   3.911   1.754
12768TIP3    H238246   0.473   4.007   1.683
12769TIP3   OH238247   7.758   6.214   3.103
12769TIP3    H138248   7.728   6.123   3.101
12769TIP3    H238249   7.680   6.266   3.084
12770TIP3   OH238250   8.362   4.638   1.111
12770TIP3    H138251   8.436   4.579   1.094
12770TIP3    H238252   8.340   4.674   1.025
12771TIP3   OH238253   4.950   3.677   6.696
12771TIP3    H138254   4.959   3.705   6.605
12771TIP3    H238255   5.001   3.597   6.703
12772TIP3   OH238256   0.674   3.464   3.480
12772TIP3    H138257   0.740   3.429   3.540
12772TIP3    H238258   0.621   3.522   3.535
12773TIP3   OH238259   2.236   6.223   1.152
12773TIP3    H138260   2.223   6.311   1.116
12773TIP3    H238261   2.323   6.198   1.121
12774TIP3   OH238262   5.756   1.916   0.811
12774TIP3    H138263   5.719   1.933   0.724
12774TIP3    H238264   5.750   1.821   0.821
12775TIP3   OH238265   3.934   6.122   3.891
12775TIP3    H138266   4.016   6.154   3.854
12775TIP3    H238267   3.914   6.043   3.841
12776TIP3   OH238268   5.129   5.506   1.427
12776TIP3    H138269   5.109   5.470   1.341
12776TIP3    H238270   5.048   5.552   1.453
12777TIP3   OH238271   1.914   0.364   1.385
12777TIP3    H138272   1.909   0.358   1.289
12777TIP3    H238273   2.002   0.336   1.406
12778TIP3   OH238274   5.477   3.876   4.756
12778TIP3    H138275   5.402   3.854   4.810
12778TIP3    H238276   5.534   3.800   4.760
12779TIP3   OH238277   1.435   3.321   0.399
12779TIP3    H138278   1.468   3.397   0.352
12779TIP3    H238279   1.358   3.354   0.446
12780TIP3   OH238280   3.528   6.072   2.536
12780TIP3    H138281   3.595   6.092   2.471
12780TIP3    H238282   3.574   6.024   2.605
12781TIP3   OH238283   1.693   7.431   6.566
12781TIP3    H138284   1.600   7.413   6.552
12781TIP3    H238285   1.698   7.527   6.572
12782TIP3   OH238286   5.565   4.136   4.778
12782TIP3    H138287   5.521   4.051   4.780
12782TIP3    H238288   5.527   4.184   4.852
12783TIP3   OH238289   5.849   4.069   4.452
12783TIP3    H138290   5.868   4.039   4.541
12783TIP3    H238291   5.794   4.000   4.415
12784TIP3   OH238292   3.743   5.488   6.426
12784TIP3    H138293   3.754   5.416   6.487
12784TIP3    H238294   3.818   5.482   6.367
12785TIP3   OH238295   0.275   1.593   5.873
12785TIP3    H138296   0.222   1.672   5.858
12785TIP3    H238297   0.356   1.626   5.913
12786TIP3   OH238298   3.084   3.002   0.291
12786TIP3    H138299   3.109   2.960   0.208
12786TIP3    H238300   3.019   2.944   0.329
12787TIP3   OH238301   4.336   0.688   1.298
12787TIP3    H138302   4.305   0.774   1.268
12787TIP3    H238303   4.338   0.634   1.219
12788TIP3   OH238304   4.251   1.986   2.140
12788TIP3    H138305   4.254   1.951   2.051
12788TIP3    H238306   4.337   2.025   2.153
12789TIP3   OH238307   8.318   1.667   1.918
12789TIP3    H138308   8.342   1.577   1.896
12789TIP3    H238309   8.223   1.669   1.917
12790TIP3   OH238310   5.427   7.293   0.072
12790TIP3    H138311   5.451   7.292   0.165
12790TIP3    H238312   5.472   7.216   0.036
12791TIP3   OH238313   3.101   7.272   5.911
12791TIP3    H138314   3.157   7.205   5.870
12791TIP3    H238315   3.161   7.344   5.931
12792TIP3   OH238316   4.421   1.621   6.705
12792TIP3    H138317   4.482   1.667   6.647
12792TIP3    H238318   4.475   1.592   6.779
12793TIP3   OH238319   2.176   2.740   2.722
12793TIP3    H138320   2.081   2.737   2.738
12793TIP3    H238321   2.211   2.782   2.801
12794TIP3   OH238322   3.258   7.538   5.940
12794TIP3    H138323   3.288   7.571   6.024
12794TIP3    H238324   3.329   7.480   5.911
12795TIP3   OH238325   5.464   1.353   1.283
12795TIP3    H138326   5.530   1.319   1.343
12795TIP3    H238327   5.404   1.280   1.270
12796TIP3   OH238328   0.681   7.058   5.230
12796TIP3    H138329   0.694   7.098   5.144
12796TIP3    H238330   0.707   7.126   5.292
12797TIP3   OH238331   5.586   4.362   1.732
12797TIP3    H138332   5.492   4.348   1.726
12797TIP3    H238333   5.625   4.283   1.694
12798TIP3   OH238334   6.181   2.660   6.173
12798TIP3    H138335   6.201   2.621   6.258
12798TIP3    H238336   6.089   2.637   6.157
12799TIP3   OH238337   3.211   5.347   6.572
12799TIP3    H138338   3.144   5.377   6.633
12799TIP3    H238339   3.275   5.418   6.569
12800TIP3   OH238340   2.047   3.430   1.797
12800TIP3    H138341   2.070   3.355   1.853
12800TIP3    H238342   1.972   3.470   1.841
12801TIP3   OH238343   1.323   1.170   5.052
12801TIP3    H138344   1.315   1.081   5.086
12801TIP3    H238345   1.263   1.222   5.106
12802TIP3   OH238346   6.028   2.094   1.295
12802TIP3    H138347   5.945   2.046   1.304
12802TIP3    H238348   6.005   2.170   1.241
12803TIP3   OH238349   1.435   1.544   5.184
12803TIP3    H138350   1.382   1.610   5.228
12803TIP3    H238351   1.501   1.519   5.248
12804TIP3   OH238352   0.287   3.420   6.442
12804TIP3    H138353   0.290   3.512   6.417
12804TIP3    H238354   0.360   3.410   6.503
12805TIP3   OH238355   2.707   5.112   4.510
12805TIP3    H138356   2.719   5.096   4.416
12805TIP3    H238357   2.629   5.061   4.533
12806TIP3   OH238358   3.644   3.125   1.695
12806TIP3    H138359   3.642   3.221   1.702
12806TIP3    H238360   3.626   3.107   1.603
12807TIP3   OH238361   3.535   5.008   1.741
12807TIP3    H138362   3.524   4.915   1.759
12807TIP3    H238363   3.618   5.031   1.783
12808TIP3   OH238364   4.911   2.264   0.536
12808TIP3    H138365   4.969   2.189   0.551
12808TIP3    H238366   4.835   2.246   0.591
12809TIP3   OH238367   8.130   0.585   2.832
12809TIP3    H138368   8.068   0.625   2.772
12809TIP3    H238369   8.200   0.649   2.841
12810TIP3   OH238370   3.822   5.013   2.744
12810TIP3    H138371   3.898   5.014   2.802
12810TIP3    H238372   3.789   5.102   2.747
12811TIP3   OH238373   3.569   7.068   1.648
12811TIP3    H138374   3.474   7.081   1.647
12811TIP3    H238375   3.584   7.001   1.714
12812TIP3   OH238376   8.262   2.832   2.888
12812TIP3    H138377   8.269   2.848   2.794
12812TIP3    H238378   8.351   2.807   2.914
12813TIP3   OH238379   0.124   0.332   1.152
12813TIP3    H138380   0.115   0.260   1.214
12813TIP3    H238381   0.152   0.406   1.206
12814TIP3   OH238382   2.702   0.110   5.343
12814TIP3    H138383   2.762   0.141   5.411
12814TIP3    H238384   2.749   0.038   5.301
12815TIP3   OH238385   7.788   3.182   3.617
12815TIP3    H138386   7.732   3.148   3.547
12815TIP3    H238387   7.796   3.109   3.678
12816TIP3   OH238388   5.535   3.354   6.809
12816TIP3    H138389   5.565   3.441   6.836
12816TIP3    H238390   5.583   3.335   6.729
12817TIP3   OH238391   1.821   0.974   5.312
12817TIP3    H138392   1.783   0.961   5.399
12817TIP3    H238393   1.903   0.925   5.314
12818TIP3   OH238394   6.430   5.240   1.807
12818TIP3    H138395   6.363   5.191   1.759
12818TIP3    H238396   6.420   5.330   1.777
12819TIP3   OH238397   2.810   4.001   1.184
12819TIP3    H138398   2.798   4.095   1.173
12819TIP3    H238399   2.734   3.962   1.142
12820TIP3   OH238400   7.276   2.631   2.736
12820TIP3    H138401   7.294   2.657   2.826
12820TIP3    H238402   7.193   2.672   2.715
12821TIP3   OH238403   3.553   4.912   3.128
12821TIP3    H138404   3.493   4.845   3.095
12821TIP3    H238405   3.497   4.976   3.170
12822TIP3   OH238406   3.241   0.937   3.812
12822TIP3    H138407   3.155   0.960   3.845
12822TIP3    H238408   3.239   0.964   3.720
12823TIP3   OH238409   6.553   5.954   4.991
12823TIP3    H138410   6.635   6.004   4.996
12823TIP3    H238411   6.499   5.991   5.061
12824TIP3   OH238412   7.517   1.692   6.786
12824TIP3    H138413   7.441   1.736   6.824
12824TIP3    H238414   7.587   1.703   6.851
12825TIP3   OH238415   4.141   0.365   2.891
12825TIP3    H138416   4.108   0.358   2.981
12825TIP3    H238417   4.218   0.308   2.889
12826TIP3   OH238418   6.249   5.830   5.231
12826TIP3    H138419   6.321   5.785   5.274
12826TIP3    H238420   6.264   5.923   5.248
12827TIP3   OH238421   7.658   0.566   0.222
12827TIP3    H138422   7.572   0.574   0.262
12827TIP3    H238423   7.660   0.477   0.187
12828TIP3   OH238424   2.414   2.378   4.681
12828TIP3    H138425   2.410   2.443   4.611
12828TIP3    H238426   2.508   2.371   4.702
12829TIP3   OH238427   7.877   6.103   3.926
12829TIP3    H138428   7.944   6.128   3.862
12829TIP3    H238429   7.864   6.009   3.911
12830TIP3   OH238430   4.224   3.131   5.918
12830TIP3    H138431   4.298   3.173   5.962
12830TIP3    H238432   4.264   3.064   5.862
12831TIP3   OH238433   0.714   3.141   4.777
12831TIP3    H138434   0.698   3.103   4.864
12831TIP3    H238435   0.703   3.235   4.789
12832TIP3   OH238436   0.317   0.421   0.838
12832TIP3    H138437   0.326   0.334   0.878
12832TIP3    H238438   0.258   0.407   0.764
12833TIP3   OH238439   5.835   1.720   0.537
12833TIP3    H138440   5.893   1.750   0.608
12833TIP3    H238441   5.747   1.747   0.565
12834TIP3   OH238442   3.841   0.813   1.446
12834TIP3    H138443   3.917   0.866   1.422
12834TIP3    H238444   3.830   0.753   1.373
12835TIP3   OH238445   0.470   4.679   6.475
12835TIP3    H138446   0.402   4.691   6.541
12835TIP3    H238447   0.423   4.648   6.397
12836TIP3   OH238448   6.700   3.109   0.055
12836TIP3    H138449   6.673   3.018   0.040
12836TIP3    H238450   6.640   3.161   0.003
12837TIP3   OH238451   6.033   2.887   1.142
12837TIP3    H138452   6.030   2.931   1.227
12837TIP3    H238453   5.941   2.882   1.115
12838TIP3   OH238454   3.708   7.029   2.311
12838TIP3    H138455   3.642   7.097   2.326
12838TIP3    H238456   3.755   7.060   2.233
12839TIP3   OH238457   1.854   0.503   6.062
12839TIP3    H138458   1.819   0.487   5.975
12839TIP3    H238459   1.795   0.567   6.101
12840TIP3   OH238460   1.916   5.385   0.340
12840TIP3    H138461   1.871   5.468   0.354
12840TIP3    H238462   1.850   5.318   0.356
12841TIP3   OH238463   2.218   4.916   0.102
12841TIP3    H138464   2.293   4.901   0.044
12841TIP3    H238465   2.172   4.991   0.063
12842TIP3   OH238466   2.621   7.699   4.759
12842TIP3    H138467   2.586   7.725   4.674
12842TIP3    H238468   2.576   7.617   4.779
12843TIP3   OH238469   1.605   3.560   4.603
12843TIP3    H138470   1.544   3.495   4.636
12843TIP3    H238471   1.555   3.608   4.536
12844TIP3   OH238472   6.760   7.868   2.190
12844TIP3    H138473   6.681   7.848   2.240
12844TIP3    H238474   6.791   7.783   2.160
12845TIP3   OH238475   0.279   2.329   5.595
12845TIP3    H138476   0.322   2.404   5.636
12845TIP3    H238477   0.224   2.368   5.527
12846TIP3   OH238478   4.401   7.029   6.658
12846TIP3    H138479   4.318   7.048   6.702
12846TIP3    H238480   4.458   6.995   6.727
12847TIP3   OH238481   3.413   2.919   4.422
12847TIP3    H138482   3.363   2.838   4.413
12847TIP3    H238483   3.504   2.892   4.423
12848TIP3   OH238484   7.995   0.033   4.805
12848TIP3    H138485   8.020   0.109   4.752
12848TIP3    H238486   7.904   0.051   4.831
12849TIP3   OH238487   4.998   0.530   2.259
12849TIP3    H138488   4.973   0.523   2.351
12849TIP3    H238489   4.967   0.617   2.233
12850TIP3   OH238490   6.851   7.621   3.620
12850TIP3    H138491   6.937   7.585   3.600
12850TIP3    H238492   6.829   7.585   3.705
12851TIP3   OH238493   3.283   5.908   6.642
12851TIP3    H138494   3.222   5.835   6.649
12851TIP3    H238495   3.232   5.985   6.669
12852TIP3   OH238496   0.882   6.370   3.565
12852TIP3    H138497   0.839   6.431   3.624
12852TIP3    H238498   0.818   6.356   3.494
12853TIP3   OH238499   1.719   6.615   4.886
12853TIP3    H138500   1.642   6.582   4.839
12853TIP3    H238501   1.718   6.567   4.969
12854TIP3   OH238502   5.622   5.950   6.621
12854TIP3    H138503   5.554   5.892   6.653
12854TIP3    H238504   5.615   6.028   6.675
12855TIP3   OH238505   7.998   0.480   1.175
12855TIP3    H138506   7.992   0.557   1.118
12855TIP3    H238507   7.918   0.431   1.156
12856TIP3   OH238508   2.294   1.594   6.774
12856TIP3    H138509   2.264   1.683   6.789
12856TIP3    H238510   2.320   1.593   6.682
12857TIP3   OH238511   2.413   6.043   0.813
12857TIP3    H138512   2.430   5.949   0.825
12857TIP3    H238513   2.318   6.051   0.816
12858TIP3   OH238514   2.156   3.283   5.635
12858TIP3    H138515   2.081   3.229   5.613
12858TIP3    H238516   2.217   3.272   5.561
12859TIP3   OH238517   8.029   4.731   3.554
12859TIP3    H138518   8.048   4.669   3.483
12859TIP3    H238519   8.049   4.681   3.634
12860TIP3   OH238520   7.753   0.617   3.336
12860TIP3    H138521   7.694   0.656   3.272
12860TIP3    H238522   7.839   0.652   3.314
12861TIP3   OH238523   4.911   6.017   6.604
12861TIP3    H138524   4.872   5.944   6.652
12861TIP3    H238525   4.908   5.990   6.512
12862TIP3   OH238526   4.176   4.466   0.631
12862TIP3    H138527   4.091   4.482   0.590
12862TIP3    H238528   4.161   4.476   0.725
12863TIP3   OH238529   2.373   1.499   2.277
12863TIP3    H138530   2.387   1.491   2.183
12863TIP3    H238531   2.279   1.483   2.289
12864TIP3   OH238532   1.133   6.487   6.037
12864TIP3    H138533   1.211   6.520   6.080
12864TIP3    H238534   1.165   6.422   5.974
12865TIP3   OH238535   5.251   0.561   4.336
12865TIP3    H138536   5.212   0.515   4.411
12865TIP3    H238537   5.283   0.643   4.373
12866TIP3   OH238538   0.976   7.684   2.578
12866TIP3    H138539   1.067   7.703   2.556
12866TIP3    H238540   0.978   7.656   2.669
12867TIP3   OH238541   2.737   1.956   2.492
12867TIP3    H138542   2.793   1.882   2.517
12867TIP3    H238543   2.754   1.969   2.399
12868TIP3   OH238544   0.970   2.895   6.633
12868TIP3    H138545   0.987   2.855   6.719
12868TIP3    H238546   0.998   2.829   6.570
12869TIP3   OH238547   7.706   2.219   0.230
12869TIP3    H138548   7.623   2.230   0.183
12869TIP3    H238549   7.693   2.267   0.312
12870TIP3   OH238550   5.945   3.396   6.063
12870TIP3    H138551   6.032   3.434   6.075
12870TIP3    H238552   5.961   3.316   6.011
12871TIP3   OH238553   5.078   7.313   6.729
12871TIP3    H138554   5.062   7.366   6.807
12871TIP3    H238555   4.999   7.260   6.720
12872TIP3   OH238556   2.551   1.680   0.840
12872TIP3    H138557   2.639   1.701   0.808
12872TIP3    H238558   2.566   1.620   0.913
12873TIP3   OH238559   6.500   2.265   4.526
12873TIP3    H138560   6.430   2.258   4.461
12873TIP3    H238561   6.480   2.198   4.591
12874TIP3   OH238562   0.101   7.789   1.471
12874TIP3    H138563   0.052   7.769   1.391
12874TIP3    H238564   0.127   7.880   1.462
12875TIP3   OH238565   7.201   1.737   5.177
12875TIP3    H138566   7.178   1.669   5.240
12875TIP3    H238567   7.121   1.750   5.126
12876TIP3   OH238568   6.499   3.660   5.409
12876TIP3    H138569   6.428   3.704   5.456
12876TIP3    H238570   6.464   3.644   5.322
12877TIP3   OH238571   0.783   6.897   6.498
12877TIP3    H138572   0.835   6.955   6.443
12877TIP3    H238573   0.709   6.950   6.527
12878TIP3   OH238574   7.221   3.093   0.101
12878TIP3    H138575   7.230   3.071   0.008
12878TIP3    H238576   7.210   3.188   0.102
12879TIP3   OH238577   4.532   2.738   4.064
12879TIP3    H138578   4.534   2.651   4.102
12879TIP3    H238579   4.505   2.724   3.973
12880TIP3   OH238580   0.161   7.434   1.616
12880TIP3    H138581   0.095   7.372   1.648
12880TIP3    H238582   0.184   7.487   1.693
12881TIP3   OH238583   6.816   6.101   5.142
12881TIP3    H138584   6.851   6.013   5.149
12881TIP3    H238585   6.831   6.125   5.050
12882TIP3   OH238586   5.797   0.906   3.041
12882TIP3    H138587   5.746   0.959   2.980
12882TIP3    H238588   5.734   0.880   3.108
12883TIP3   OH238589   5.366   7.525   3.815
12883TIP3    H138590   5.460   7.530   3.798
12883TIP3    H238591   5.326   7.575   3.743
12884TIP3   OH238592   4.281   2.026   4.423
12884TIP3    H138593   4.198   2.069   4.443
12884TIP3    H238594   4.263   1.974   4.345
12885TIP3   OH238595   1.361   7.119   1.083
12885TIP3    H138596   1.319   7.040   1.049
12885TIP3    H238597   1.292   7.185   1.082
12886TIP3   OH238598   0.878   2.704   2.899
12886TIP3    H138599   0.824   2.775   2.933
12886TIP3    H238600   0.849   2.691   2.809
12887TIP3   OH238601   8.355   6.705   1.816
12887TIP3    H138602   8.446   6.727   1.796
12887TIP3    H238603   8.353   6.703   1.912
12888TIP3   OH238604   0.312   2.522   3.665
12888TIP3    H138605   0.345   2.463   3.732
12888TIP3    H238606   0.217   2.510   3.666
12889TIP3   OH238607   7.197   5.765   5.236
12889TIP3    H138608   7.271   5.704   5.234
12889TIP3    H238609   7.159   5.754   5.323
12890TIP3   OH238610   5.746   5.954   6.371
12890TIP3    H138611   5.736   5.966   6.466
12890TIP3    H238612   5.717   6.038   6.334
12891TIP3   OH238613   2.706   0.940   3.143
12891TIP3    H138614   2.660   0.875   3.089
12891TIP3    H238615   2.666   1.024   3.119
12892TIP3   OH238616   3.103   6.262   0.213
12892TIP3    H138617   3.117   6.168   0.217
12892TIP3    H238618   3.166   6.293   0.148
12893TIP3   OH238619   2.250   1.338   3.736
12893TIP3    H138620   2.255   1.259   3.681
12893TIP3    H238621   2.162   1.372   3.719
12894TIP3   OH238622   3.881   2.268   5.400
12894TIP3    H138623   3.818   2.324   5.446
12894TIP3    H238624   3.935   2.231   5.469
12895TIP3   OH238625   0.097   4.071   4.171
12895TIP3    H138626   0.029   4.040   4.111
12895TIP3    H238627   0.072   4.035   4.256
12896TIP3   OH238628   0.268   3.153   6.569
12896TIP3    H138629   0.286   3.247   6.582
12896TIP3    H238630   0.347   3.110   6.602
12897TIP3   OH238631   3.574   4.795   3.423
12897TIP3    H138632   3.586   4.847   3.344
12897TIP3    H238633   3.626   4.716   3.409
12898TIP3   OH238634   1.583   4.335   5.361
12898TIP3    H138635   1.638   4.270   5.318
12898TIP3    H238636   1.494   4.313   5.334
12899TIP3   OH238637   0.097   1.110   1.190
12899TIP3    H138638   0.141   1.084   1.271
12899TIP3    H238639   0.165   1.153   1.138
12900TIP3   OH238640   1.316   6.560   0.791
12900TIP3    H138641   1.402   6.602   0.795
12900TIP3    H238642   1.254   6.629   0.814
12901TIP3   OH238643   0.813   7.298   2.923
12901TIP3    H138644   0.859   7.367   2.971
12901TIP3    H238645   0.744   7.343   2.875
12902TIP3   OH238646   1.783   4.934   6.016
12902TIP3    H138647   1.696   4.920   6.054
12902TIP3    H238648   1.765   4.969   5.929
12903TIP3   OH238649   4.603   6.344   2.742
12903TIP3    H138650   4.676   6.381   2.692
12903TIP3    H238651   4.525   6.376   2.697
12904TIP3   OH238652   4.624   0.146   1.178
12904TIP3    H138653   4.543   0.155   1.128
12904TIP3    H238654   4.597   0.107   1.261
12905TIP3   OH238655   8.291   3.858   0.532
12905TIP3    H138656   8.326   3.772   0.555
12905TIP3    H238657   8.214   3.868   0.588
12906TIP3   OH238658   7.080   7.488   4.490
12906TIP3    H138659   7.098   7.476   4.584
12906TIP3    H238660   7.063   7.581   4.480
12907TIP3   OH238661   1.528   2.588   3.295
12907TIP3    H138662   1.600   2.615   3.237
12907TIP3    H238663   1.483   2.670   3.316
12908TIP3   OH238664   6.591   6.020   3.928
12908TIP3    H138665   6.560   6.110   3.928
12908TIP3    H238666   6.520   5.970   3.889
12909TIP3   OH238667   3.287   6.678   2.384
12909TIP3    H138668   3.283   6.623   2.306
12909TIP3    H238669   3.207   6.730   2.380
12910TIP3   OH238670   3.717   0.642   2.910
12910TIP3    H138671   3.700   0.549   2.896
12910TIP3    H238672   3.651   0.670   2.973
12911TIP3   OH238673   4.220   4.444   0.116
12911TIP3    H138674   4.214   4.349   0.110
12911TIP3    H238675   4.145   4.476   0.066
12912TIP3   OH238676   7.544   2.380   4.195
12912TIP3    H138677   7.525   2.388   4.288
12912TIP3    H238678   7.547   2.471   4.163
12913TIP3   OH238679   8.239   5.542   4.178
12913TIP3    H138680   8.258   5.466   4.234
12913TIP3    H238681   8.171   5.590   4.225
12914TIP3   OH238682   4.985   2.192   2.350
12914TIP3    H138683   5.061   2.191   2.291
12914TIP3    H238684   4.927   2.258   2.312
12915TIP3   OH238685   7.069   5.360   3.779
12915TIP3    H138686   7.130   5.429   3.803
12915TIP3    H238687   7.051   5.314   3.861
12916TIP3   OH238688   2.178   1.221   2.498
12916TIP3    H138689   2.203   1.284   2.566
12916TIP3    H238690   2.138   1.274   2.430
12917TIP3   OH238691   6.996   1.873   5.066
12917TIP3    H138692   6.909   1.900   5.094
12917TIP3    H238693   6.985   1.846   4.975
12918TIP3   OH238694   6.299   0.017   0.243
12918TIP3    H138695   6.235   0.025   0.313
12918TIP3    H238696   6.318   0.108   0.217
12919TIP3   OH238697   7.621   7.425   2.738
12919TIP3    H138698   7.669   7.507   2.733
12919TIP3    H238699   7.601   7.402   2.647
12920TIP3   OH238700   2.507   0.791   6.614
12920TIP3    H138701   2.450   0.866   6.631
12920TIP3    H238702   2.479   0.759   6.529
12921TIP3   OH238703   7.577   6.318   5.252
12921TIP3    H138704   7.581   6.405   5.212
12921TIP3    H238705   7.557   6.259   5.179
12922TIP3   OH238706   6.635   4.643   4.930
12922TIP3    H138707   6.554   4.648   4.880
12922TIP3    H238708   6.614   4.685   5.014
12923TIP3   OH238709   1.420   4.732   5.171
12923TIP3    H138710   1.454   4.821   5.178
12923TIP3    H238711   1.351   4.728   5.237
12924TIP3   OH238712   4.942   2.779   6.126
12924TIP3    H138713   4.880   2.735   6.185
12924TIP3    H238714   4.972   2.709   6.066
12925TIP3   OH238715   7.974   7.614   2.181
12925TIP3    H138716   7.891   7.659   2.191
12925TIP3    H238717   8.040   7.683   2.190
12926TIP3   OH238718   1.362   3.061   3.539
12926TIP3    H138719   1.403   3.066   3.452
12926TIP3    H238720   1.316   2.977   3.538
12927TIP3   OH238721   5.360   6.679   5.239
12927TIP3    H138722   5.284   6.737   5.235
12927TIP3    H238723   5.403   6.690   5.154
12928TIP3   OH238724   5.175   3.748   1.519
12928TIP3    H138725   5.256   3.773   1.476
12928TIP3    H238726   5.172   3.653   1.511
12929TIP3   OH238727   4.920   7.448   5.948
12929TIP3    H138728   4.908   7.368   5.998
12929TIP3    H238729   4.980   7.423   5.877
12930TIP3   OH238730   3.952   7.520   3.938
12930TIP3    H138731   3.888   7.454   3.912
12930TIP3    H238732   3.959   7.512   4.033
12931TIP3   OH238733   8.343   5.245   1.910
12931TIP3    H138734   8.404   5.219   1.979
12931TIP3    H238735   8.367   5.190   1.835
12932TIP3   OH238736   0.737   3.657   1.942
12932TIP3    H138737   0.749   3.742   1.984
12932TIP3    H238738   0.654   3.625   1.976
12933TIP3   OH238739   1.060   3.253   0.334
12933TIP3    H138740   1.109   3.332   0.357
12933TIP3    H238741   1.104   3.182   0.381
12934TIP3   OH238742   6.924   2.840   5.485
12934TIP3    H138743   7.019   2.833   5.490
12934TIP3    H238744   6.897   2.871   5.572
12935TIP3   OH238745   2.257   4.217   2.856
12935TIP3    H138746   2.251   4.204   2.951
12935TIP3    H238747   2.345   4.188   2.833
12936TIP3   OH238748   4.382   4.488   4.158
12936TIP3    H138749   4.318   4.428   4.197
12936TIP3    H238750   4.448   4.431   4.119
12937TIP3   OH238751   4.589   6.688   3.585
12937TIP3    H138752   4.498   6.661   3.596
12937TIP3    H238753   4.623   6.632   3.516
12938TIP3   OH238754   5.479   6.210   4.451
12938TIP3    H138755   5.438   6.199   4.366
12938TIP3    H238756   5.414   6.258   4.503
12939TIP3   OH238757   0.671   5.093   3.747
12939TIP3    H138758   0.696   5.003   3.727
12939TIP3    H238759   0.753   5.142   3.747
12940TIP3   OH238760   2.224   6.834   4.622
12940TIP3    H138761   2.177   6.803   4.700
12940TIP3    H238762   2.155   6.852   4.558
12941TIP3   OH238763   5.559   7.316   0.332
12941TIP3    H138764   5.607   7.249   0.381
12941TIP3    H238765   5.626   7.362   0.281
12942TIP3   OH238766   2.377   3.946   6.244
12942TIP3    H138767   2.350   3.872   6.190
12942TIP3    H238768   2.468   3.962   6.220
12943TIP3   OH238769   0.498   0.606   4.797
12943TIP3    H138770   0.542   0.670   4.740
12943TIP3    H238771   0.438   0.559   4.738
12944TIP3   OH238772   5.585   4.655   3.152
12944TIP3    H138773   5.508   4.636   3.098
12944TIP3    H238774   5.624   4.569   3.169
12945TIP3   OH238775   7.693   4.346   4.254
12945TIP3    H138776   7.686   4.251   4.245
12945TIP3    H238777   7.757   4.359   4.324
12946TIP3   OH238778   0.407   4.044   6.597
12946TIP3    H138779   0.415   4.139   6.605
12946TIP3    H238780   0.478   4.009   6.651
12947TIP3   OH238781   8.368   3.597   0.534
12947TIP3    H138782   8.416   3.543   0.596
12947TIP3    H238783   8.377   3.551   0.451
12948TIP3   OH238784   1.218   5.910   6.052
12948TIP3    H138785   1.141   5.959   6.080
12948TIP3    H238786   1.191   5.819   6.053
12949TIP3   OH238787   1.004   1.719   5.475
12949TIP3    H138788   0.993   1.692   5.566
12949TIP3    H238789   0.920   1.759   5.452
12950TIP3   OH238790   1.982   5.196   2.199
12950TIP3    H138791   1.985   5.223   2.107
12950TIP3    H238792   1.912   5.131   2.204
12951TIP3   OH238793   5.896   5.605   2.041
12951TIP3    H138794   5.868   5.631   1.954
12951TIP3    H238795   5.957   5.674   2.068
12952TIP3   OH238796   3.380   7.226   1.104
12952TIP3    H138797   3.459   7.180   1.134
12952TIP3    H238798   3.311   7.198   1.164
12953TIP3   OH238799   7.521   6.977   1.378
12953TIP3    H138800   7.503   6.956   1.470
12953TIP3    H238801   7.453   7.040   1.355
12954TIP3   OH238802   2.132   4.235   0.935
12954TIP3    H138803   2.097   4.150   0.964
12954TIP3    H238804   2.066   4.299   0.963
12955TIP3   OH238805   1.139   3.851   2.939
12955TIP3    H138806   1.083   3.783   2.977
12955TIP3    H238807   1.173   3.813   2.859
12956TIP3   OH238808   0.001   7.545   0.947
12956TIP3    H138809   0.036   7.508   0.866
12956TIP3    H238810  -0.007   7.470   1.006
12957TIP3   OH238811   7.157   2.498   6.803
12957TIP3    H138812   7.147   2.491   6.708
12957TIP3    H238813   7.252   2.503   6.816
12958TIP3   OH238814   5.851   3.033   4.419
12958TIP3    H138815   5.766   3.022   4.463
12958TIP3    H238816   5.832   3.089   4.344
12959TIP3   OH238817   5.057   6.768   4.429
12959TIP3    H138818   4.972   6.726   4.423
12959TIP3    H238819   5.096   6.757   4.342
12960TIP3   OH238820   2.079   5.449   2.192
12960TIP3    H138821   2.008   5.461   2.130
12960TIP3    H238822   2.075   5.356   2.216
12961TIP3   OH238823   4.055   0.615   3.371
12961TIP3    H138824   3.967   0.618   3.409
12961TIP3    H238825   4.075   0.521   3.364
12962TIP3   OH238826   6.226   4.112   5.610
12962TIP3    H138827   6.174   4.059   5.670
12962TIP3    H238828   6.267   4.048   5.552
12963TIP3   OH238829   6.539   0.557   4.592
12963TIP3    H138830   6.610   0.619   4.574
12963TIP3    H238831   6.582   0.480   4.628
12964TIP3   OH238832   3.965   2.170   2.959
12964TIP3    H138833   3.974   2.166   3.054
12964TIP3    H238834   3.967   2.078   2.931
12965TIP3   OH238835   3.812   3.990   1.942
12965TIP3    H138836   3.875   3.976   1.871
12965TIP3    H238837   3.765   4.069   1.917
12966TIP3   OH238838   7.152   1.997   4.570
12966TIP3    H138839   7.208   1.991   4.648
12966TIP3    H238840   7.111   2.083   4.577
12967TIP3   OH238841   2.180   1.146   0.684
12967TIP3    H138842   2.115   1.164   0.616
12967TIP3    H238843   2.130   1.136   0.764
12968TIP3   OH238844   2.571   7.789   5.657
12968TIP3    H138845   2.604   7.872   5.623
12968TIP3    H238846   2.510   7.814   5.726
12969TIP3   OH238847   2.980   1.233   6.758
12969TIP3    H138848   3.013   1.149   6.723
12969TIP3    H238849   3.031   1.247   6.838
12970TIP3   OH238850   3.324   0.125   4.910
12970TIP3    H138851   3.245   0.078   4.883
12970TIP3    H238852   3.306   0.216   4.887
12971TIP3   OH238853   8.212   2.570   5.905
12971TIP3    H138854   8.250   2.521   5.978
12971TIP3    H238855   8.285   2.586   5.846
12972TIP3   OH238856   1.841   6.807   4.069
12972TIP3    H138857   1.935   6.821   4.056
12972TIP3    H238858   1.807   6.893   4.095
12973TIP3   OH238859   7.211   1.325   6.114
12973TIP3    H138860   7.180   1.292   6.198
12973TIP3    H238861   7.197   1.420   6.119
12974TIP3   OH238862   7.192   5.282   5.176
12974TIP3    H138863   7.220   5.349   5.238
12974TIP3    H238864   7.096   5.289   5.176
12975TIP3   OH238865   7.833   1.928   3.740
12975TIP3    H138866   7.776   1.855   3.716
12975TIP3    H238867   7.801   1.956   3.826
12976TIP3   OH238868   1.978   1.135   4.182
12976TIP3    H138869   1.946   1.208   4.236
12976TIP3    H238870   2.043   1.092   4.236
12977TIP3   OH238871   0.968   6.176   3.900
12977TIP3    H138872   1.062   6.180   3.915
12977TIP3    H238873   0.940   6.093   3.938
12978TIP3   OH238874   4.585   6.881   2.632
12978TIP3    H138875   4.548   6.854   2.716
12978TIP3    H238876   4.541   6.826   2.567
12979TIP3   OH238877   4.191   3.185   1.467
12979TIP3    H138878   4.224   3.095   1.467
12979TIP3    H238879   4.097   3.175   1.480
12980TIP3   OH238880   4.571   1.215   6.089
12980TIP3    H138881   4.613   1.195   6.005
12980TIP3    H238882   4.629   1.279   6.130
12981TIP3   OH238883   6.154   6.588   3.977
12981TIP3    H138884   6.203   6.670   3.977
12981TIP3    H238885   6.220   6.520   3.983
12982TIP3   OH238886   4.716   6.727   5.355
12982TIP3    H138887   4.636   6.774   5.377
12982TIP3    H238888   4.728   6.742   5.261
12983TIP3   OH238889   2.623   7.439   2.649
12983TIP3    H138890   2.534   7.434   2.615
12983TIP3    H238891   2.615   7.492   2.729
12984TIP3   OH238892   6.365   7.416   2.921
12984TIP3    H138893   6.401   7.368   2.997
12984TIP3    H238894   6.418   7.386   2.847
12985TIP3   OH238895   0.214   5.924   3.843
12985TIP3    H138896   0.210   5.917   3.747
12985TIP3    H238897   0.289   5.869   3.867
12986TIP3   OH238898   3.177   2.027   1.559
12986TIP3    H138899   3.207   2.077   1.483
12986TIP3    H238900   3.193   1.936   1.535
12987TIP3   OH238901   5.060   4.659   6.580
12987TIP3    H138902   5.010   4.730   6.620
12987TIP3    H238903   5.038   4.663   6.486
12988TIP3   OH238904   3.026   7.894   0.051
12988TIP3    H138905   3.064   7.869   0.135
12988TIP3    H238906   3.079   7.968   0.022
12989TIP3   OH238907   5.413   0.612   5.877
12989TIP3    H138908   5.416   0.676   5.806
12989TIP3    H238909   5.504   0.604   5.907
12990TIP3   OH238910   5.246   5.465   4.793
12990TIP3    H138911   5.166   5.428   4.755
12990TIP3    H238912   5.218   5.546   4.835
12991TIP3   OH238913   2.659   1.664   2.658
12991TIP3    H138914   2.586   1.616   2.619
12991TIP3    H238915   2.728   1.598   2.670
12992TIP3   OH238916   0.364   2.672   3.444
12992TIP3    H138917   0.458   2.668   3.426
12992TIP3    H238918   0.351   2.612   3.517
12993TIP3   OH238919   4.487   0.921   5.153
12993TIP3    H138920   4.513   0.839   5.112
12993TIP3    H238921   4.392   0.917   5.159
12994TIP3   OH238922   4.985   7.889   3.130
12994TIP3    H138923   4.910   7.944   3.153
12994TIP3    H238924   5.010   7.848   3.213
12995TIP3   OH238925   2.913   1.449   3.595
12995TIP3    H138926   2.937   1.379   3.534
12995TIP3    H238927   2.817   1.442   3.603
12996TIP3   OH238928   6.595   1.924   4.847
12996TIP3    H138929   6.661   1.974   4.798
12996TIP3    H238930   6.521   1.984   4.856
12997TIP3   OH238931   4.647   6.941   3.712
12997TIP3    H138932   4.584   6.876   3.681
12997TIP3    H238933   4.709   6.951   3.639
12998TIP3   OH238934   2.927   2.802   6.062
12998TIP3    H138935   2.839   2.814   6.099
12998TIP3    H238936   2.980   2.772   6.136
12999TIP3   OH238937   6.820   4.987   6.563
12999TIP3    H138938   6.797   4.905   6.521
12999TIP3    H238939   6.778   5.055   6.510
13000TIP3   OH238940   6.688   4.266   3.372
13000TIP3    H138941   6.738   4.323   3.431
13000TIP3    H238942   6.746   4.191   3.357
13001TIP3   OH238943   5.028   1.203   4.451
13001TIP3    H138944   4.937   1.173   4.451
13001TIP3    H238945   5.080   1.124   4.466
13002TIP3   OH238946   3.188   3.967   4.216
13002TIP3    H138947   3.261   3.918   4.256
13002TIP3    H238948   3.159   3.911   4.144
13003TIP3   OH238949   2.428   0.836   1.136
13003TIP3    H138950   2.506   0.880   1.103
13003TIP3    H238951   2.461   0.765   1.191
13004TIP3   OH238952   0.458   7.325   0.674
13004TIP3    H138953   0.400   7.360   0.742
13004TIP3    H238954   0.447   7.385   0.600
13005TIP3   OH238955   7.047   2.938   3.312
13005TIP3    H138956   6.953   2.955   3.305
13005TIP3    H238957   7.058   2.848   3.282
13006TIP3   OH238958   6.848   0.550   0.897
13006TIP3    H138959   6.795   0.493   0.953
13006TIP3    H238960   6.790   0.621   0.873
13007TIP3   OH238961   6.993   4.507   2.969
13007TIP3    H138962   6.900   4.523   2.981
13007TIP3    H238963   7.009   4.425   3.017
13008TIP3   OH238964   5.473   0.471   1.212
13008TIP3    H138965   5.431   0.498   1.293
13008TIP3    H238966   5.530   0.544   1.188
13009TIP3   OH238967   8.152   2.216   5.645
13009TIP3    H138968   8.188   2.140   5.691
13009TIP3    H238969   8.066   2.229   5.683
13010TIP3   OH238970   2.619   0.177   0.483
13010TIP3    H138971   2.670   0.223   0.416
13010TIP3    H238972   2.594   0.245   0.545
13011TIP3   OH238973   6.401   0.261   0.192
13011TIP3    H138974   6.480   0.209   0.202
13011TIP3    H238975   6.427   0.351   0.214
13012TIP3   OH238976   2.462   1.095   4.265
13012TIP3    H138977   2.496   1.124   4.349
13012TIP3    H238978   2.514   1.017   4.244
13013TIP3   OH238979   0.884   2.218   3.790
13013TIP3    H138980   0.790   2.205   3.807
13013TIP3    H238981   0.928   2.154   3.846
13014TIP3   OH238982   0.954   5.623   1.171
13014TIP3    H138983   0.934   5.532   1.150
13014TIP3    H238984   0.939   5.670   1.089
13015TIP3   OH238985   8.260   3.006   3.380
13015TIP3    H138986   8.182   3.060   3.392
13015TIP3    H238987   8.311   3.052   3.313
13016TIP3   OH238988   2.109   2.807   1.406
13016TIP3    H138989   2.032   2.765   1.370
13016TIP3    H238990   2.116   2.772   1.495
13017TIP3   OH238991   3.520   7.356   0.878
13017TIP3    H138992   3.609   7.336   0.907
13017TIP3    H238993   3.530   7.428   0.816
13018TIP3   OH238994   7.905   4.064   0.678
13018TIP3    H138995   7.878   4.137   0.734
13018TIP3    H238996   7.837   4.060   0.610
13019TIP3   OH238997   4.749   7.025   0.208
13019TIP3    H138998   4.766   7.013   0.114
13019TIP3    H238999   4.681   6.960   0.228
13020TIP3   OH239000   3.390   5.187   3.628
13020TIP3    H139001   3.387   5.245   3.703
13020TIP3    H239002   3.477   5.148   3.630
13021TIP3   OH239003   2.377   3.942   1.165
13021TIP3    H139004   2.445   3.953   1.100
13021TIP3    H239005   2.401   4.001   1.236
13022TIP3   OH239006   4.769   2.511   1.515
13022TIP3    H139007   4.767   2.565   1.594
13022TIP3    H239008   4.852   2.465   1.519
13023TIP3   OH239009   3.074   5.610   0.121
13023TIP3    H139010   3.011   5.640   0.055
13023TIP3    H239011   3.053   5.517   0.133
13024TIP3   OH239012   4.605   5.526   0.683
13024TIP3    H139013   4.578   5.567   0.601
13024TIP3    H239014   4.675   5.466   0.658
13025TIP3   OH239015   5.299   0.452   6.787
13025TIP3    H139016   5.243   0.524   6.759
13025TIP3    H239017   5.282   0.381   6.725
13026TIP3   OH239018   2.029   2.506   4.881
13026TIP3    H139019   1.976   2.447   4.936
13026TIP3    H239020   2.099   2.450   4.846
13027TIP3   OH239021   2.524   0.441   3.006
13027TIP3    H139022   2.465   0.490   3.063
13027TIP3    H239023   2.582   0.394   3.067
13028TIP3   OH239024   3.930   4.820   5.541
13028TIP3    H139025   3.884   4.738   5.523
13028TIP3    H239026   4.022   4.794   5.550
13029TIP3   OH239027   0.263   7.736   1.719
13029TIP3    H139028   0.215   7.761   1.640
13029TIP3    H239029   0.355   7.734   1.692
13030TIP3   OH239030   5.401   0.188   5.361
13030TIP3    H139031   5.462   0.163   5.292
13030TIP3    H239032   5.370   0.275   5.335
13031TIP3   OH239033   5.554   2.190   6.503
13031TIP3    H139034   5.516   2.112   6.463
13031TIP3    H239035   5.482   2.254   6.504
13032TIP3   OH239036   4.499   7.397   4.370
13032TIP3    H139037   4.496   7.484   4.409
13032TIP3    H239038   4.565   7.403   4.301
13033TIP3   OH239039   7.624   4.792   6.852
13033TIP3    H139040   7.544   4.811   6.900
13033TIP3    H239041   7.608   4.825   6.764
13034TIP3   OH239042   3.249   3.578   6.579
13034TIP3    H139043   3.300   3.550   6.503
13034TIP3    H239044   3.163   3.601   6.543
13035TIP3   OH239045   3.591   7.634   1.271
13035TIP3    H139046   3.513   7.594   1.233
13035TIP3    H239047   3.571   7.728   1.273
13036TIP3   OH239048   2.065   3.736   6.115
13036TIP3    H139049   2.034   3.648   6.092
13036TIP3    H239050   2.060   3.739   6.210
13037TIP3   OH239051   6.557   1.169   1.639
13037TIP3    H139052   6.505   1.177   1.559
13037TIP3    H239053   6.502   1.120   1.700
13038TIP3   OH239054   0.062   0.036   5.297
13038TIP3    H139055   0.025   0.089   5.227
13038TIP3    H239056  -0.014  -0.009   5.335
13039TIP3   OH239057   6.513   1.533   1.754
13039TIP3    H139058   6.449   1.536   1.683
13039TIP3    H239059   6.466   1.569   1.830
13040TIP3   OH239060   1.123   0.601   5.737
13040TIP3    H139061   1.129   0.507   5.757
13040TIP3    H239062   1.130   0.644   5.822
13041TIP3   OH239063   6.476   2.664   3.317
13041TIP3    H139064   6.523   2.724   3.375
13041TIP3    H239065   6.452   2.590   3.373
13042TIP3   OH239066   6.693   4.539   3.949
13042TIP3    H139067   6.704   4.521   4.042
13042TIP3    H239068   6.681   4.633   3.943
13043TIP3   OH239069   8.139   4.729   6.428
13043TIP3    H139070   8.137   4.822   6.408
13043TIP3    H239071   8.211   4.719   6.491
13044TIP3   OH239072   6.945   1.834   3.988
13044TIP3    H139073   6.866   1.889   3.985
13044TIP3    H239074   6.939   1.788   4.071
13045TIP3   OH239075   5.070   2.629   4.472
13045TIP3    H139076   5.104   2.540   4.468
13045TIP3    H239077   4.979   2.619   4.500
13046TIP3   OH239078   5.015   5.248   3.281
13046TIP3    H139079   5.075   5.216   3.213
13046TIP3    H239080   4.941   5.188   3.278
13047TIP3   OH239081   4.553   0.023   3.368
13047TIP3    H139082   4.518   0.110   3.389
13047TIP3    H239083   4.477  -0.035   3.372
13048TIP3   OH239084   4.643   1.767   5.506
13048TIP3    H139085   4.559   1.795   5.542
13048TIP3    H239086   4.620   1.700   5.442
13049TIP3   OH239087   3.207   0.501   0.390
13049TIP3    H139088   3.146   0.497   0.316
13049TIP3    H239089   3.163   0.452   0.459
13050TIP3   OH239090   0.599   2.785   3.711
13050TIP3    H139091   0.593   2.879   3.729
13050TIP3    H239092   0.508   2.758   3.699
13051TIP3   OH239093   2.136   7.137   3.134
13051TIP3    H139094   2.210   7.096   3.179
13051TIP3    H239095   2.059   7.104   3.179
13052TIP3   OH239096   0.068   4.278   4.642
13052TIP3    H139097   0.146   4.320   4.605
13052TIP3    H239098   0.073   4.298   4.736
13053TIP3   OH239099   2.867   2.559   4.464
13053TIP3    H139100   2.850   2.465   4.469
13053TIP3    H239101   2.894   2.574   4.374
13054TIP3   OH239102   2.421   6.325   0.722
13054TIP3    H139103   2.443   6.233   0.732
13054TIP3    H239104   2.463   6.368   0.796
13055TIP3   OH239105   7.302   5.657   5.782
13055TIP3    H139106   7.302   5.717   5.857
13055TIP3    H239107   7.395   5.637   5.768
13056TIP3   OH239108   3.059   5.608   0.655
13056TIP3    H139109   3.042   5.636   0.566
13056TIP3    H239110   3.052   5.512   0.652
13057TIP3   OH239111   0.873   0.810   1.334
13057TIP3    H139112   0.882   0.878   1.267
13057TIP3    H239113   0.885   0.857   1.417
13058TIP3   OH239114   3.524   1.806   5.820
13058TIP3    H139115   3.489   1.895   5.822
13058TIP3    H239116   3.455   1.752   5.858
13059TIP3   OH239117   2.796   5.602   0.948
13059TIP3    H139118   2.714   5.561   0.920
13059TIP3    H239119   2.788   5.610   1.043
13060TIP3   OH239120   8.181   0.733   4.051
13060TIP3    H139121   8.207   0.823   4.034
13060TIP3    H239122   8.103   0.741   4.106
13061TIP3   OH239123   2.285   6.249   4.951
13061TIP3    H139124   2.306   6.340   4.934
13061TIP3    H239125   2.197   6.237   4.915
13062TIP3   OH239126   7.298   3.977   4.067
13062TIP3    H139127   7.385   3.973   4.107
13062TIP3    H239128   7.315   3.996   3.975
13063TIP3   OH239129   4.466   4.000   4.153
13063TIP3    H139130   4.469   4.093   4.134
13063TIP3    H239131   4.555   3.979   4.182
13064TIP3   OH239132   7.631   1.771   3.569
13064TIP3    H139133   7.545   1.740   3.542
13064TIP3    H239134   7.638   1.858   3.531
13065TIP3   OH239135   6.631   3.857   0.333
13065TIP3    H139136   6.647   3.794   0.403
13065TIP3    H239137   6.651   3.942   0.372
13066TIP3   OH239138   3.757   0.761   5.405
13066TIP3    H139139   3.705   0.682   5.422
13066TIP3    H239140   3.800   0.779   5.488
13067TIP3   OH239141   7.244   3.233   1.056
13067TIP3    H139142   7.211   3.172   0.990
13067TIP3    H239143   7.196   3.210   1.136
13068TIP3   OH239144   5.937   5.333   2.893
13068TIP3    H139145   5.902   5.404   2.839
13068TIP3    H239146   6.026   5.320   2.861
13069TIP3   OH239147   5.717   4.166   5.582
13069TIP3    H139148   5.644   4.137   5.637
13069TIP3    H239149   5.676   4.224   5.517
13070TIP3   OH239150  -0.034   0.025   0.127
13070TIP3    H139151  -0.014   0.086   0.198
13070TIP3    H239152   0.052   0.001   0.092
13071TIP3   OH239153   1.431   3.247   2.027
13071TIP3    H139154   1.415   3.335   2.060
13071TIP3    H239155   1.468   3.200   2.102
13072TIP3   OH239156   0.378   2.711   4.982
13072TIP3    H139157   0.307   2.663   4.940
13072TIP3    H239158   0.337   2.754   5.057
13073TIP3   OH239159   2.023   3.998   6.636
13073TIP3    H139160   2.008   3.949   6.717
13073TIP3    H239161   2.099   3.956   6.596
13074TIP3   OH239162   6.842   5.841   0.887
13074TIP3    H139163   6.885   5.790   0.818
13074TIP3    H239164   6.750   5.818   0.880
13075TIP3   OH239165   1.293   5.213   0.076
13075TIP3    H139166   1.321   5.201   0.166
13075TIP3    H239167   1.301   5.126   0.036
13076TIP3   OH239168   1.005   1.605   5.736
13076TIP3    H139169   1.062   1.531   5.757
13076TIP3    H239170   0.934   1.599   5.800
13077TIP3   OH239171   1.845   3.504   1.984
13077TIP3    H139172   1.853   3.441   2.056
13077TIP3    H239173   1.771   3.472   1.933
13078TIP3   OH239174   1.291   5.094   6.437
13078TIP3    H139175   1.329   5.009   6.416
13078TIP3    H239176   1.339   5.123   6.515
13079TIP3   OH239177   5.571   3.636   4.821
13079TIP3    H139178   5.529   3.631   4.907
13079TIP3    H239179   5.653   3.588   4.832
13080TIP3   OH239180   5.061   5.341   5.896
13080TIP3    H139181   5.041   5.257   5.937
13080TIP3    H239182   5.155   5.336   5.878
13081TIP3   OH239183   4.116   7.123   6.160
13081TIP3    H139184   4.033   7.080   6.140
13081TIP3    H239185   4.155   7.069   6.229
13082TIP3   OH239186   2.465   2.981   3.966
13082TIP3    H139187   2.542   3.031   3.993
13082TIP3    H239188   2.392   3.023   4.011
13083TIP3   OH239189   5.211   1.662   1.054
13083TIP3    H139190   5.145   1.612   1.006
13083TIP3    H239191   5.164   1.696   1.131
13084TIP3   OH239192   5.979   2.598   4.469
13084TIP3    H139193   5.967   2.572   4.378
13084TIP3    H239194   6.022   2.684   4.464
13085TIP3   OH239195   1.303   0.408   1.667
13085TIP3    H139196   1.236   0.385   1.731
13085TIP3    H239197   1.316   0.328   1.616
13086TIP3   OH239198   6.100   6.572   4.321
13086TIP3    H139199   6.062   6.487   4.298
13086TIP3    H239200   6.182   6.551   4.365
13087TIP3   OH239201   3.490   5.582   1.907
13087TIP3    H139202   3.456   5.589   1.818
13087TIP3    H239203   3.546   5.659   1.917
13088TIP3   OH239204   2.244   5.902   1.288
13088TIP3    H139205   2.202   5.974   1.336
13088TIP3    H239206   2.293   5.855   1.356
13089TIP3   OH239207   4.382   6.534   1.893
13089TIP3    H139208   4.297   6.577   1.884
13089TIP3    H239209   4.424   6.546   1.808
13090TIP3   OH239210   6.357   4.503   5.818
13090TIP3    H139211   6.296   4.561   5.863
13090TIP3    H239212   6.302   4.439   5.774
13091TIP3   OH239213   0.031   6.476   3.071
13091TIP3    H139214   0.046   6.568   3.048
13091TIP3    H239215  -0.064   6.466   3.069
13092TIP3   OH239216   0.654   2.627   4.980
13092TIP3    H139217   0.560   2.646   4.977
13092TIP3    H239218   0.680   2.621   4.888
13093TIP3   OH239219   5.604   5.162   5.841
13093TIP3    H139220   5.594   5.106   5.764
13093TIP3    H239221   5.661   5.233   5.811
13094TIP3   OH239222   2.582   1.972   0.297
13094TIP3    H139223   2.497   1.941   0.329
13094TIP3    H239224   2.579   1.957   0.202
13095TIP3   OH239225   6.166   1.040   5.721
13095TIP3    H139226   6.090   1.090   5.691
13095TIP3    H239227   6.128   0.967   5.770
13096TIP3   OH239228   8.103   4.293   6.004
13096TIP3    H139229   8.194   4.261   6.010
13096TIP3    H239230   8.112   4.383   5.971
13097TIP3   OH239231   5.527   0.086   5.592
13097TIP3    H139232   5.602   0.041   5.552
13097TIP3    H239233   5.490   0.139   5.522
13098TIP3   OH239234   0.450   7.360   6.669
13098TIP3    H139235   0.435   7.405   6.751
13098TIP3    H239236   0.364   7.329   6.641
13099TIP3   OH239237   6.751   5.405   3.945
13099TIP3    H139238   6.809   5.479   3.961
13099TIP3    H239239   6.674   5.444   3.904
13100TIP3   OH239240   5.569   4.370   6.170
13100TIP3    H139241   5.552   4.358   6.264
13100TIP3    H239242   5.613   4.289   6.143
13101TIP3   OH239243   3.415   4.197   6.723
13101TIP3    H139244   3.408   4.268   6.659
13101TIP3    H239245   3.509   4.180   6.730
13102TIP3   OH239246   3.103   4.516   4.202
13102TIP3    H139247   3.014   4.490   4.227
13102TIP3    H239248   3.096   4.610   4.185
13103TIP3   OH239249   0.993   0.584   2.386
13103TIP3    H139250   1.019   0.632   2.465
13103TIP3    H239251   1.020   0.494   2.402
13104TIP3   OH239252   4.015   0.371   6.120
13104TIP3    H139253   4.024   0.446   6.062
13104TIP3    H239254   3.941   0.392   6.176
13105TIP3   OH239255   1.628   3.556   2.190
13105TIP3    H139256   1.694   3.490   2.211
13105TIP3    H239257   1.544   3.511   2.204
13106TIP3   OH239258   7.858   4.663   1.537
13106TIP3    H139259   7.894   4.612   1.610
13106TIP3    H239260   7.908   4.633   1.461
13107TIP3   OH239261   1.592   4.984   3.736
13107TIP3    H139262   1.574   4.913   3.797
13107TIP3    H239263   1.687   4.984   3.727
13108TIP3   OH239264   1.938   5.600   2.369
13108TIP3    H139265   1.982   5.553   2.298
13108TIP3    H239266   1.875   5.537   2.404
13109TIP3   OH239267   2.475   5.596   6.084
13109TIP3    H139268   2.451   5.612   6.175
13109TIP3    H239269   2.491   5.502   6.079
13110TIP3   OH239270   2.074   4.936   0.524
13110TIP3    H139271   2.028   4.997   0.466
13110TIP3    H239272   2.163   4.932   0.488
13111TIP3   OH239273   3.784   5.698   1.159
13111TIP3    H139274   3.855   5.635   1.159
13111TIP3    H239275   3.767   5.717   1.067
13112TIP3   OH239276   6.130   7.845   5.852
13112TIP3    H139277   6.070   7.824   5.924
13112TIP3    H239278   6.217   7.822   5.886
13113TIP3   OH239279   5.301   7.706   3.602
13113TIP3    H139280   5.377   7.694   3.544
13113TIP3    H239281   5.232   7.654   3.561
13114TIP3   OH239282   7.745   0.956   4.724
13114TIP3    H139283   7.667   1.012   4.727
13114TIP3    H239284   7.802   0.990   4.792
13115TIP3   OH239285   2.436   0.064   4.883
13115TIP3    H139286   2.464   0.108   4.802
13115TIP3    H239287   2.471   0.117   4.953
13116TIP3   OH239288   6.807   3.992   1.523
13116TIP3    H139289   6.761   4.058   1.574
13116TIP3    H239290   6.777   4.007   1.433
13117TIP3   OH239291   1.301   4.337   0.350
13117TIP3    H139292   1.372   4.327   0.414
13117TIP3    H239293   1.227   4.289   0.388
13118TIP3   OH239294   6.791   3.116   6.295
13118TIP3    H139295   6.847   3.054   6.249
13118TIP3    H239296   6.708   3.113   6.247
13119TIP3   OH239297   6.068   6.956   3.379
13119TIP3    H139298   5.982   6.958   3.421
13119TIP3    H239299   6.094   7.048   3.374
13120TIP3   OH239300   0.942   7.788   0.617
13120TIP3    H139301   0.886   7.718   0.582
13120TIP3    H239302   0.899   7.869   0.590
13121TIP3   OH239303   2.830   3.188   0.559
13121TIP3    H139304   2.794   3.120   0.617
13121TIP3    H239305   2.853   3.142   0.479
13122TIP3   OH239306   6.864   6.715   0.877
13122TIP3    H139307   6.958   6.706   0.857
13122TIP3    H239308   6.819   6.687   0.797
13123TIP3   OH239309   1.975   0.138   2.957
13123TIP3    H139310   1.953   0.172   2.871
13123TIP3    H239311   1.937   0.050   2.959
13124TIP3   OH239312   5.660   7.438   6.022
13124TIP3    H139313   5.695   7.461   6.108
13124TIP3    H239314   5.661   7.520   5.973
13125TIP3   OH239315   6.078   7.874   6.696
13125TIP3    H139316   6.171   7.890   6.682
13125TIP3    H239317   6.075   7.800   6.758
13126TIP3   OH239318   2.392   5.239   6.250
13126TIP3    H139319   2.347   5.158   6.276
13126TIP3    H239320   2.322   5.305   6.248
13127TIP3   OH239321   1.263   3.634   5.221
13127TIP3    H139322   1.347   3.599   5.191
13127TIP3    H239323   1.257   3.721   5.182
13128TIP3   OH239324   6.137   0.525   2.168
13128TIP3    H139325   6.090   0.604   2.142
13128TIP3    H239326   6.181   0.496   2.087
13129TIP3   OH239327   6.217   7.324   0.626
13129TIP3    H139328   6.213   7.382   0.550
13129TIP3    H239329   6.308   7.296   0.630
13130TIP3   OH239330   0.111   0.113   2.890
13130TIP3    H139331   0.106   0.164   2.809
13130TIP3    H239332   0.026   0.128   2.933
13131TIP3   OH239333   5.459   3.507   5.051
13131TIP3    H139334   5.435   3.564   5.125
13131TIP3    H239335   5.531   3.454   5.084
13132TIP3   OH239336   5.114   4.008   3.367
13132TIP3    H139337   5.074   4.087   3.403
13132TIP3    H239338   5.141   3.957   3.443
13133TIP3   OH239339   3.039   2.306   3.408
13133TIP3    H139340   2.999   2.341   3.488
13133TIP3    H239341   3.127   2.278   3.435
13134TIP3   OH239342   7.581   5.553   1.886
13134TIP3    H139343   7.507   5.508   1.847
13134TIP3    H239344   7.565   5.550   1.980
13135TIP3   OH239345   7.580   1.390   6.069
13135TIP3    H139346   7.524   1.370   6.144
13135TIP3    H239347   7.592   1.306   6.025
13136TIP3   OH239348   5.925   0.711   1.994
13136TIP3    H139349   5.845   0.720   1.942
13136TIP3    H239350   5.894   0.690   2.082
13137TIP3   OH239351   2.489   1.550   0.469
13137TIP3    H139352   2.453   1.555   0.558
13137TIP3    H239353   2.552   1.479   0.472
13138TIP3   OH239354   1.532   5.982   1.724
13138TIP3    H139355   1.528   6.068   1.767
13138TIP3    H239356   1.441   5.953   1.718
13139TIP3   OH239357   6.198   0.334   3.155
13139TIP3    H139358   6.163   0.327   3.244
13139TIP3    H239359   6.276   0.389   3.164
13140TIP3   OH239360   5.539   0.246   2.164
13140TIP3    H139361   5.624   0.214   2.194
13140TIP3    H239362   5.492   0.270   2.244
13141TIP3   OH239363   1.529   4.784   0.065
13141TIP3    H139364   1.623   4.799   0.069
13141TIP3    H239365   1.499   4.789   0.156
13142TIP3   OH239366   6.736   7.470   0.099
13142TIP3    H139367   6.676   7.469   0.173
13142TIP3    H239368   6.683   7.446   0.024
13143TIP3   OH239369   5.937   7.765   5.510
13143TIP3    H139370   5.974   7.850   5.531
13143TIP3    H239371   5.860   7.757   5.567
13144TIP3   OH239372   2.550   5.934   5.305
13144TIP3    H139373   2.502   5.852   5.312
13144TIP3    H239374   2.543   5.958   5.213
13145TIP3   OH239375   7.487   4.584   5.775
13145TIP3    H139376   7.392   4.579   5.761
13145TIP3    H239377   7.496   4.626   5.861
13146TIP3   OH239378   8.350   7.851   4.695
13146TIP3    H139379   8.275   7.816   4.648
13146TIP3    H239380   8.421   7.790   4.677
13147TIP3   OH239381   5.541   7.246   4.965
13147TIP3    H139382   5.560   7.152   4.975
13147TIP3    H239383   5.592   7.288   5.034
13148TIP3   OH239384   5.131   2.955   5.822
13148TIP3    H139385   5.142   2.872   5.869
13148TIP3    H239386   5.197   2.952   5.753
13149TIP3   OH239387   4.423   3.800   3.614
13149TIP3    H139388   4.405   3.876   3.670
13149TIP3    H239389   4.450   3.731   3.675
13150TIP3   OH239390   0.550   6.890   3.438
13150TIP3    H139391   0.590   6.822   3.383
13150TIP3    H239392   0.470   6.914   3.391
13151TIP3   OH239393   8.065   2.923   6.516
13151TIP3    H139394   7.980   2.886   6.541
13151TIP3    H239395   8.094   2.972   6.593
13152TIP3   OH239396   1.529   6.748   0.793
13152TIP3    H139397   1.580   6.690   0.849
13152TIP3    H239398   1.564   6.835   0.811
13153TIP3   OH239399   7.342   5.738   4.595
13153TIP3    H139400   7.256   5.764   4.563
13153TIP3    H239401   7.401   5.809   4.568
13154TIP3   OH239402   2.276   4.982   5.920
13154TIP3    H139403   2.242   5.066   5.891
13154TIP3    H239404   2.243   4.972   6.010
13155TIP3   OH239405   3.339   1.349   5.556
13155TIP3    H139406   3.432   1.357   5.537
13155TIP3    H239407   3.326   1.397   5.638
13156TIP3   OH239408   2.549   5.712   5.857
13156TIP3    H139409   2.509   5.682   5.939
13156TIP3    H239410   2.627   5.658   5.847
13157TIP3   OH239411   5.301   0.123   2.818
13157TIP3    H139412   5.338   0.066   2.751
13157TIP3    H239413   5.230   0.071   2.856
13158TIP3   OH239414   6.388   1.012   3.380
13158TIP3    H139415   6.383   1.017   3.285
13158TIP3    H239416   6.474   1.049   3.401
13159TIP3   OH239417   8.157   5.577   0.090
13159TIP3    H139418   8.245   5.538   0.095
13159TIP3    H239419   8.109   5.520   0.031
13160TIP3   OH239420   7.066   6.013   2.746
13160TIP3    H139421   7.075   6.061   2.828
13160TIP3    H239422   7.105   5.927   2.765
13161TIP3   OH239423   6.775   0.688   4.606
13161TIP3    H139424   6.740   0.694   4.695
13161TIP3    H239425   6.867   0.664   4.619
13162TIP3   OH239426   5.168   6.752   6.641
13162TIP3    H139427   5.089   6.773   6.591
13162TIP3    H239428   5.240   6.787   6.588
13163TIP3   OH239429   7.000   3.327   0.331
13163TIP3    H139430   6.922   3.275   0.353
13163TIP3    H239431   7.073   3.267   0.346
13164TIP3   OH239432   1.818   2.692   5.019
13164TIP3    H139433   1.793   2.761   4.957
13164TIP3    H239434   1.856   2.624   4.964
13165TIP3   OH239435   1.823   0.985   1.767
13165TIP3    H139436   1.851   0.903   1.807
13165TIP3    H239437   1.727   0.979   1.765
13166TIP3   OH239438   0.251   3.733   4.604
13166TIP3    H139439   0.184   3.714   4.669
13166TIP3    H239440   0.282   3.821   4.626
13167TIP3   OH239441   5.265   6.506   6.721
13167TIP3    H139442   5.226   6.591   6.700
13167TIP3    H239443   5.360   6.521   6.715
13168TIP3   OH239444   1.389   3.688   3.634
13168TIP3    H139445   1.347   3.771   3.657
13168TIP3    H239446   1.363   3.672   3.544
13169TIP3   OH239447   2.795   7.852   1.126
13169TIP3    H139448   2.887   7.879   1.136
13169TIP3    H239449   2.761   7.851   1.215
13170TIP3   OH239450   7.341   2.099   0.307
13170TIP3    H139451   7.300   2.122   0.224
13170TIP3    H239452   7.306   2.012   0.328
13171TIP3   OH239453   3.040   7.407   2.343
13171TIP3    H139454   2.983   7.447   2.276
13171TIP3    H239455   3.007   7.442   2.425
13172TIP3   OH239456   5.996   6.937   5.587
13172TIP3    H139457   5.929   6.982   5.638
13172TIP3    H239458   5.983   6.844   5.608
13173TIP3   OH239459   8.254   0.415   5.602
13173TIP3    H139460   8.226   0.486   5.545
13173TIP3    H239461   8.200   0.340   5.575
13174TIP3   OH239462   0.209   4.392   0.472
13174TIP3    H139463   0.277   4.458   0.458
13174TIP3    H239464   0.140   4.438   0.520
13175TIP3   OH239465   0.903   5.199   4.281
13175TIP3    H139466   0.878   5.239   4.364
13175TIP3    H239467   0.821   5.194   4.231
13176TIP3   OH239468   3.180   6.495   1.250
13176TIP3    H139469   3.227   6.567   1.293
13176TIP3    H239470   3.128   6.538   1.182
13177TIP3   OH239471   7.818   6.881   5.340
13177TIP3    H139472   7.854   6.927   5.265
13177TIP3    H239473   7.724   6.898   5.335
13178TIP3   OH239474   3.732   6.877   5.228
13178TIP3    H139475   3.694   6.962   5.204
13178TIP3    H239476   3.660   6.815   5.220
13179TIP3   OH239477   6.324   6.692   0.190
13179TIP3    H139478   6.270   6.721   0.263
13179TIP3    H239479   6.364   6.772   0.155
13180TIP3   OH239480   6.548   2.434   5.846
13180TIP3    H139481   6.586   2.475   5.769
13180TIP3    H239482   6.549   2.503   5.913
13181TIP3   OH239483   3.509   7.799   5.277
13181TIP3    H139484   3.479   7.886   5.250
13181TIP3    H239485   3.596   7.814   5.314
13182TIP3   OH239486   8.369   2.992   6.411
13182TIP3    H139487   8.448   3.039   6.384
13182TIP3    H239488   8.334   3.044   6.483
13183TIP3   OH239489   1.030   2.578   3.344
13183TIP3    H139490   1.033   2.658   3.292
13183TIP3    H239491   1.078   2.514   3.291
13184TIP3   OH239492   4.451   6.477   4.052
13184TIP3    H139493   4.470   6.430   4.133
13184TIP3    H239494   4.534   6.521   4.030
13185TIP3   OH239495   2.566   2.040   6.480
13185TIP3    H139496   2.581   2.127   6.515
13185TIP3    H239497   2.484   2.048   6.430
13186TIP3   OH239498   1.459   1.857   4.807
13186TIP3    H139499   1.511   1.921   4.758
13186TIP3    H239500   1.412   1.909   4.872
13187TIP3   OH239501   3.112   6.186   0.627
13187TIP3    H139502   3.093   6.129   0.701
13187TIP3    H239503   3.041   6.169   0.565
13188TIP3   OH239504   4.682   0.172   2.351
13188TIP3    H139505   4.683   0.166   2.446
13188TIP3    H239506   4.774   0.181   2.326
13189TIP3   OH239507   3.609   5.783   3.603
13189TIP3    H139508   3.517   5.764   3.584
13189TIP3    H239509   3.650   5.698   3.610
13190TIP3   OH239510   6.298   6.538   5.720
13190TIP3    H139511   6.226   6.490   5.760
13190TIP3    H239512   6.295   6.512   5.627
13191TIP3   OH239513   6.375   7.526   5.836
13191TIP3    H139514   6.282   7.533   5.815
13191TIP3    H239515   6.377   7.512   5.931
13192TIP3   OH239516   1.144   2.418   5.199
13192TIP3    H139517   1.163   2.396   5.291
13192TIP3    H239518   1.068   2.364   5.177
13193TIP3   OH239519   0.735   4.806   1.814
13193TIP3    H139520   0.697   4.811   1.902
13193TIP3    H239521   0.821   4.848   1.823
13194TIP3   OH239522   4.227   2.835   4.892
13194TIP3    H139523   4.206   2.744   4.874
13194TIP3    H239524   4.321   2.843   4.873
13195TIP3   OH239525   2.630   6.062   6.606
13195TIP3    H139526   2.720   6.089   6.586
13195TIP3    H239527   2.619   6.084   6.698
13196TIP3   OH239528   4.325   5.636   1.609
13196TIP3    H139529   4.379   5.567   1.571
13196TIP3    H239530   4.268   5.663   1.537
13197TIP3   OH239531   7.151   2.181   3.380
13197TIP3    H139532   7.231   2.233   3.380
13197TIP3    H239533   7.098   2.217   3.451
13198TIP3   OH239534   5.508   0.239   5.812
13198TIP3    H139535   5.530   0.181   5.739
13198TIP3    H239536   5.582   0.300   5.818
13199TIP3   OH239537   6.653   6.561   2.966
13199TIP3    H139538   6.605   6.583   3.045
13199TIP3    H239539   6.585   6.530   2.905
13200TIP3   OH239540   3.577   6.369   6.223
13200TIP3    H139541   3.500   6.336   6.270
13200TIP3    H239542   3.562   6.342   6.132
13201TIP3   OH239543   0.466   2.144   5.817
13201TIP3    H139544   0.466   2.226   5.867
13201TIP3    H239545   0.404   2.088   5.864
13202TIP3   OH239546   7.558   2.650   3.336
13202TIP3    H139547   7.470   2.676   3.362
13202TIP3    H239548   7.607   2.644   3.418
13203TIP3   OH239549   1.411   2.186   4.492
13203TIP3    H139550   1.355   2.251   4.536
13203TIP3    H239551   1.430   2.224   4.407
13204TIP3   OH239552   7.914   0.991   0.923
13204TIP3    H139553   7.836   1.003   0.868
13204TIP3    H239554   7.968   0.929   0.873
13205TIP3   OH239555   4.264   5.842   6.816
13205TIP3    H139556   4.187   5.899   6.810
13205TIP3    H239557   4.332   5.896   6.856
13206TIP3   OH239558   3.417   6.358   5.079
13206TIP3    H139559   3.462   6.275   5.099
13206TIP3    H239560   3.335   6.331   5.037
13207TIP3   OH239561   5.126   1.119   6.846
13207TIP3    H139562   5.144   1.027   6.866
13207TIP3    H239563   5.209   1.154   6.814
13208TIP3   OH239564   6.785   3.232   4.885
13208TIP3    H139565   6.829   3.295   4.942
13208TIP3    H239566   6.731   3.286   4.828
13209TIP3   OH239567   6.327   1.522   1.522
13209TIP3    H139568   6.345   1.490   1.434
13209TIP3    H239569   6.319   1.617   1.512
13210TIP3   OH239570   6.544   6.739   5.171
13210TIP3    H139571   6.515   6.695   5.091
13210TIP3    H239572   6.637   6.718   5.177
13211TIP3   OH239573   5.709   6.084   4.714
13211TIP3    H139574   5.780   6.038   4.759
13211TIP3    H239575   5.753   6.152   4.663
13212TIP3   OH239576   3.873   3.942   3.716
13212TIP3    H139577   3.876   3.854   3.679
13212TIP3    H239578   3.854   3.929   3.809
13213TIP3   OH239579   1.343   1.506   0.748
13213TIP3    H139580   1.335   1.602   0.748
13213TIP3    H239581   1.381   1.486   0.662
13214TIP3   OH239582   3.044   7.770   4.523
13214TIP3    H139583   3.071   7.761   4.432
13214TIP3    H239584   2.977   7.703   4.535
13215TIP3   OH239585   3.033   7.554   0.511
13215TIP3    H139586   3.053   7.597   0.428
13215TIP3    H239587   2.971   7.613   0.555
13216TIP3   OH239588   0.469   3.646   0.304
13216TIP3    H139589   0.390   3.695   0.325
13216TIP3    H239590   0.488   3.668   0.212
13217TIP3   OH239591   1.259   1.052   5.643
13217TIP3    H139592   1.238   0.959   5.635
13217TIP3    H239593   1.326   1.067   5.576
13218TIP3   OH239594   0.844   7.889   5.977
13218TIP3    H139595   0.844   7.861   5.885
13218TIP3    H239596   0.835   7.984   5.972
13219TIP3   OH239597   1.229   5.629   5.872
13219TIP3    H139598   1.255   5.575   5.797
13219TIP3    H239599   1.306   5.628   5.929
13220TIP3   OH239600   6.942   4.024   4.083
13220TIP3    H139601   6.974   4.094   4.026
13220TIP3    H239602   6.866   4.061   4.127
13221TIP3   OH239603   2.920   4.154   0.267
13221TIP3    H139604   2.902   4.098   0.191
13221TIP3    H239605   2.996   4.114   0.309
13222TIP3   OH239606   7.529   6.161   2.785
13222TIP3    H139607   7.542   6.158   2.880
13222TIP3    H239608   7.488   6.245   2.768
13223TIP3   OH239609   6.169   2.685   0.088
13223TIP3    H139610   6.097   2.713   0.144
13223TIP3    H239611   6.246   2.690   0.145
13224TIP3   OH239612   0.224   7.223   6.570
13224TIP3    H139613   0.251   7.187   6.486
13224TIP3    H239614   0.133   7.247   6.558
13225TIP3   OH239615   1.748   3.492   6.809
13225TIP3    H139616   1.682   3.540   6.858
13225TIP3    H239617   1.820   3.480   6.871
13226TIP3   OH239618   0.698   3.391   5.452
13226TIP3    H139619   0.633   3.349   5.509
13226TIP3    H239620   0.678   3.356   5.365
13227TIP3   OH239621   7.309   5.654   6.256
13227TIP3    H139622   7.220   5.679   6.279
13227TIP3    H239623   7.301   5.565   6.222
13228TIP3   OH239624   1.999   6.456   2.864
13228TIP3    H139625   1.934   6.498   2.920
13228TIP3    H239626   2.082   6.465   2.913
13229TIP3   OH239627   6.424   4.787   5.504
13229TIP3    H139628   6.398   4.822   5.589
13229TIP3    H239629   6.459   4.862   5.456
13230TIP3   OH239630   2.501   2.910   6.125
13230TIP3    H139631   2.583   2.876   6.160
13230TIP3    H239632   2.511   3.005   6.127
13231TIP3   OH239633   6.338   2.022   4.968
13231TIP3    H139634   6.270   2.025   5.035
13231TIP3    H239635   6.318   2.096   4.911
13232TIP3   OH239636   6.568   6.632   1.985
13232TIP3    H139637   6.651   6.642   1.937
13232TIP3    H239638   6.564   6.538   2.004
13233TIP3   OH239639   2.883   2.965   3.916
13233TIP3    H139640   2.891   2.986   4.009
13233TIP3    H239641   2.973   2.953   3.886
13234TIP3   OH239642   4.758   4.358   4.743
13234TIP3    H139643   4.668   4.384   4.762
13234TIP3    H239644   4.770   4.278   4.795
13235TIP3   OH239645   7.400   0.629   5.179
13235TIP3    H139646   7.366   0.625   5.090
13235TIP3    H239647   7.414   0.722   5.196
13236TIP3   OH239648   8.019   6.380   4.786
13236TIP3    H139649   8.026   6.292   4.822
13236TIP3    H239650   7.925   6.395   4.777
13237TIP3   OH239651   3.496   3.690   1.277
13237TIP3    H139652   3.490   3.622   1.210
13237TIP3    H239653   3.424   3.750   1.256
13238TIP3   OH239654   0.221   3.246   3.756
13238TIP3    H139655   0.276   3.307   3.708
13238TIP3    H239656   0.132   3.264   3.724
13239TIP3   OH239657   7.249   0.430   3.552
13239TIP3    H139658   7.213   0.420   3.641
13239TIP3    H239659   7.313   0.501   3.560
13240TIP3   OH239660   5.276   2.671   5.205
13240TIP3    H139661   5.327   2.724   5.144
13240TIP3    H239662   5.226   2.735   5.256
13241TIP3   OH239663   0.484   1.232   4.462
13241TIP3    H139664   0.491   1.153   4.514
13241TIP3    H239665   0.405   1.218   4.409
13242TIP3   OH239666   1.362   1.054   1.497
13242TIP3    H139667   1.390   1.012   1.416
13242TIP3    H239668   1.267   1.045   1.497
13243TIP3   OH239669   4.622   5.476   0.092
13243TIP3    H139670   4.609   5.461   0.186
13243TIP3    H239671   4.618   5.571   0.081
13244TIP3   OH239672   4.776   5.280   0.011
13244TIP3    H139673   4.782   5.195   0.056
13244TIP3    H239674   4.721   5.333   0.068
13245TIP3   OH239675   0.416   6.181   2.689
13245TIP3    H139676   0.505   6.215   2.682
13245TIP3    H239677   0.418   6.100   2.637
13246TIP3   OH239678   5.480   3.502   6.041
13246TIP3    H139679   5.431   3.563   6.097
13246TIP3    H239680   5.518   3.439   6.102
13247TIP3   OH239681   0.392   1.050   0.877
13247TIP3    H139682   0.303   1.055   0.913
13247TIP3    H239683   0.382   1.074   0.785
13248TIP3   OH239684   4.644   1.624   0.204
13248TIP3    H139685   4.682   1.658   0.285
13248TIP3    H239686   4.619   1.534   0.224
13249TIP3   OH239687   6.832   1.667   0.809
13249TIP3    H139688   6.778   1.673   0.730
13249TIP3    H239689   6.870   1.754   0.819
13250TIP3   OH239690   0.026   0.084   2.421
13250TIP3    H139691   0.002   0.158   2.365
13250TIP3    H239692   0.113   0.059   2.392
13251TIP3   OH239693   0.022   1.454   0.915
13251TIP3    H139694  -0.058   1.401   0.917
13251TIP3    H239695   0.091   1.394   0.887
13252TIP3   OH239696   0.313   2.918   1.193
13252TIP3    H139697   0.296   2.875   1.277
13252TIP3    H239698   0.245   2.985   1.185
13253TIP3   OH239699   5.761   6.299   3.174
13253TIP3    H139700   5.685   6.353   3.194
13253TIP3    H239701   5.773   6.245   3.252
13254TIP3   OH239702   2.840   5.454   1.521
13254TIP3    H139703   2.850   5.435   1.614
13254TIP3    H239704   2.763   5.403   1.495
13255TIP3   OH239705   3.270   3.717   5.152
13255TIP3    H139706   3.279   3.625   5.126
13255TIP3    H239707   3.335   3.730   5.220
13256TIP3   OH239708   4.927   7.447   5.523
13256TIP3    H139709   4.975   7.428   5.603
13256TIP3    H239710   4.952   7.536   5.500
13257TIP3   OH239711   7.172   1.020   5.642
13257TIP3    H139712   7.110   1.086   5.674
13257TIP3    H239713   7.217   0.989   5.721
13258TIP3   OH239714   4.562   7.058   4.282
13258TIP3    H139715   4.478   7.098   4.264
13258TIP3    H239716   4.620   7.090   4.214
13259TIP3   OH239717   1.733   6.367   1.419
13259TIP3    H139718   1.684   6.289   1.446
13259TIP3    H239719   1.728   6.426   1.494
13260TIP3   OH239720   5.390   0.051   2.032
13260TIP3    H139721   5.335   0.008   2.098
13260TIP3    H239722   5.433   0.122   2.080
13261TIP3   OH239723   4.983   1.401   2.105
13261TIP3    H139724   5.024   1.388   2.190
13261TIP3    H239725   4.965   1.313   2.073
13262TIP3   OH239726   4.986   6.556   4.221
13262TIP3    H139727   4.893   6.540   4.239
13262TIP3    H239728   5.031   6.480   4.259
13263TIP3   OH239729   4.782   4.492   1.864
13263TIP3    H139730   4.820   4.536   1.939
13263TIP3    H239731   4.757   4.406   1.896
13264TIP3   OH239732   7.053   6.796   0.427
13264TIP3    H139733   7.062   6.712   0.382
13264TIP3    H239734   7.137   6.807   0.472
13265TIP3   OH239735   1.171   3.852   6.624
13265TIP3    H139736   1.141   3.809   6.704
13265TIP3    H239737   1.138   3.796   6.553
13266TIP3   OH239738   4.681   5.556   6.708
13266TIP3    H139739   4.723   5.547   6.622
13266TIP3    H239740   4.697   5.647   6.733
13267TIP3   OH239741   3.993   3.758   5.388
13267TIP3    H139742   4.078   3.786   5.422
13267TIP3    H239743   4.010   3.673   5.347
13268TIP3   OH239744   6.856   1.261   6.206
13268TIP3    H139745   6.796   1.186   6.204
13268TIP3    H239746   6.799   1.338   6.202
13269TIP3   OH239747   6.501   0.234   5.071
13269TIP3    H139748   6.465   0.313   5.030
13269TIP3    H239749   6.484   0.164   5.008
13270TIP3   OH239750   2.873   7.835   3.570
13270TIP3    H139751   2.943   7.793   3.520
13270TIP3    H239752   2.910   7.921   3.594
13271TIP3   OH239753   7.191   5.667   2.764
13271TIP3    H139754   7.257   5.629   2.822
13271TIP3    H239755   7.114   5.679   2.820
13272TIP3   OH239756   6.452   6.491   2.453
13272TIP3    H139757   6.543   6.501   2.426
13272TIP3    H239758   6.406   6.468   2.373
13273TIP3   OH239759   5.281   4.389   1.227
13273TIP3    H139760   5.323   4.409   1.144
13273TIP3    H239761   5.353   4.366   1.286
13274TIP3   OH239762   4.243   3.897   5.487
13274TIP3    H139763   4.292   3.921   5.565
13274TIP3    H239764   4.242   3.977   5.434
13275TIP3   OH239765   7.740   1.609   4.419
13275TIP3    H139766   7.670   1.652   4.369
13275TIP3    H239767   7.809   1.593   4.355
13276TIP3   OH239768   4.452   5.751   2.678
13276TIP3    H139769   4.530   5.724   2.727
13276TIP3    H239770   4.381   5.698   2.715
13277TIP3   OH239771   7.537   6.945   0.297
13277TIP3    H139772   7.467   6.887   0.268
13277TIP3    H239773   7.581   6.971   0.217
13278TIP3   OH239774   2.830   7.787   1.390
13278TIP3    H139775   2.764   7.802   1.459
13278TIP3    H239776   2.891   7.724   1.429
13279TIP3   OH239777   2.197   0.969   5.788
13279TIP3    H139778   2.194   0.887   5.837
13279TIP3    H239779   2.243   1.030   5.847
13280TIP3   OH239780   3.857   6.191   1.968
13280TIP3    H139781   3.766   6.219   1.956
13280TIP3    H239782   3.894   6.192   1.880
13281TIP3   OH239783   2.818   5.919   2.217
13281TIP3    H139784   2.818   5.947   2.309
13281TIP3    H239785   2.894   5.861   2.210
13282TIP3   OH239786   7.187   3.581   2.894
13282TIP3    H139787   7.221   3.644   2.958
13282TIP3    H239788   7.154   3.508   2.947
13283TIP3   OH239789   7.096   1.177   6.322
13283TIP3    H139790   7.101   1.083   6.338
13283TIP3    H239791   7.010   1.190   6.280
13284TIP3   OH239792   5.908   6.332   3.730
13284TIP3    H139793   6.000   6.311   3.718
13284TIP3    H239794   5.904   6.377   3.814
13285TIP3   OH239795   1.033   1.636   0.902
13285TIP3    H139796   1.030   1.622   0.807
13285TIP3    H239797   1.017   1.729   0.914
13286TIP3   OH239798   4.090   4.808   6.371
13286TIP3    H139799   4.046   4.837   6.451
13286TIP3    H239800   4.046   4.855   6.300
13287TIP3   OH239801   1.545   2.455   2.297
13287TIP3    H139802   1.494   2.510   2.238
13287TIP3    H239803   1.491   2.378   2.310
13288TIP3   OH239804   0.534   4.214   3.765
13288TIP3    H139805   0.463   4.264   3.805
13288TIP3    H239806   0.508   4.122   3.777
13289TIP3   OH239807   4.560   4.229   3.225
13289TIP3    H139808   4.466   4.233   3.208
13289TIP3    H239809   4.585   4.138   3.209
13290TIP3   OH239810   0.264   0.449   1.432
13290TIP3    H139811   0.272   0.543   1.422
13290TIP3    H239812   0.335   0.413   1.379
13291TIP3   OH239813   3.464   0.292   2.821
13291TIP3    H139814   3.467   0.233   2.746
13291TIP3    H239815   3.555   0.313   2.839
13292TIP3   OH239816   2.626   5.416   4.000
13292TIP3    H139817   2.561   5.352   4.028
13292TIP3    H239818   2.579   5.473   3.939
13293TIP3   OH239819   3.710   4.666   6.444
13293TIP3    H139820   3.723   4.756   6.414
13293TIP3    H239821   3.682   4.675   6.535
13294TIP3   OH239822   7.998   6.200   0.768
13294TIP3    H139823   7.955   6.153   0.839
13294TIP3    H239824   8.015   6.287   0.804
13295TIP3   OH239825   3.086   1.607   1.008
13295TIP3    H139826   3.148   1.535   0.999
13295TIP3    H239827   3.140   1.682   1.035
13296TIP3   OH239828   0.416   0.795   0.183
13296TIP3    H139829   0.345   0.764   0.126
13296TIP3    H239830   0.496   0.769   0.137
13297TIP3   OH239831   2.395   4.489   0.749
13297TIP3    H139832   2.417   4.410   0.798
13297TIP3    H239833   2.350   4.545   0.813
13298TIP3   OH239834   5.126   2.789   2.927
13298TIP3    H139835   5.191   2.725   2.956
13298TIP3    H239836   5.177   2.870   2.914
13299TIP3   OH239837   6.938   3.513   5.590
13299TIP3    H139838   6.967   3.486   5.677
13299TIP3    H239839   6.895   3.597   5.605
13300TIP3   OH239840   0.250   3.415   0.297
13300TIP3    H139841   0.299   3.367   0.363
13300TIP3    H239842   0.211   3.347   0.242
13301TIP3   OH239843   2.086   4.478   1.224
13301TIP3    H139844   2.152   4.451   1.288
13301TIP3    H239845   2.097   4.573   1.217
13302TIP3   OH239846   0.193   0.877   2.659
13302TIP3    H139847   0.105   0.839   2.653
13302TIP3    H239848   0.214   0.874   2.752
13303TIP3   OH239849   4.056   7.548   3.493
13303TIP3    H139850   4.050   7.520   3.584
13303TIP3    H239851   4.074   7.468   3.444
13304TIP3   OH239852   1.567   0.964   5.996
13304TIP3    H139853   1.645   0.907   5.997
13304TIP3    H239854   1.493   0.903   6.000
13305TIP3   OH239855   5.532   4.666   6.224
13305TIP3    H139856   5.545   4.577   6.193
13305TIP3    H239857   5.603   4.716   6.182
13306TIP3   OH239858   3.574   2.177   4.448
13306TIP3    H139859   3.650   2.119   4.448
13306TIP3    H239860   3.591   2.237   4.521
13307TIP3   OH239861   3.823   5.248   6.180
13307TIP3    H139862   3.819   5.205   6.095
13307TIP3    H239863   3.733   5.250   6.211
13308TIP3   OH239864   0.956   0.237   6.790
13308TIP3    H139865   1.001   0.153   6.806
13308TIP3    H239866   0.921   0.228   6.701
13309TIP3   OH239867   8.108   3.989   3.512
13309TIP3    H139868   8.079   4.000   3.421
13309TIP3    H239869   8.139   3.899   3.516
13310TIP3   OH239870   7.934   2.567   4.960
13310TIP3    H139871   7.999   2.504   4.991
13310TIP3    H239872   7.941   2.641   5.020
13311TIP3   OH239873   3.535   5.901   0.870
13311TIP3    H139874   3.451   5.863   0.843
13311TIP3    H239875   3.514   5.991   0.896
13312TIP3   OH239876   0.574   4.096   4.437
13312TIP3    H139877   0.632   4.113   4.363
13312TIP3    H239878   0.486   4.115   4.404
13313TIP3   OH239879   5.305   1.056   2.299
13313TIP3    H139880   5.353   1.113   2.359
13313TIP3    H239881   5.360   0.977   2.292
13314TIP3   OH239882   2.975   6.339   4.970
13314TIP3    H139883   2.929   6.272   4.919
13314TIP3    H239884   3.067   6.327   4.947
13315TIP3   OH239885   5.145   6.012   3.456
13315TIP3    H139886   5.093   5.935   3.479
13315TIP3    H239887   5.168   5.998   3.364
13316TIP3   OH239888   8.177   7.188   5.999
13316TIP3    H139889   8.260   7.216   5.959
13316TIP3    H239890   8.170   7.095   5.977
13317TIP3   OH239891   8.076   1.899   6.421
13317TIP3    H139892   7.984   1.897   6.395
13317TIP3    H239893   8.091   1.988   6.451
13318TIP3   OH239894   6.857   5.337   5.130
13318TIP3    H139895   6.796   5.263   5.130
13318TIP3    H239896   6.890   5.341   5.220
13319TIP3   OH239897   3.745   1.299   6.441
13319TIP3    H139898   3.776   1.349   6.516
13319TIP3    H239899   3.817   1.302   6.378
13320TIP3   OH239900   4.478   4.600   3.449
13320TIP3    H139901   4.573   4.605   3.455
13320TIP3    H239902   4.446   4.649   3.525
13321TIP3   OH239903   6.808   7.605   4.254
13321TIP3    H139904   6.811   7.533   4.316
13321TIP3    H239905   6.739   7.663   4.286
13322TIP3   OH239906   1.984   3.009   1.051
13322TIP3    H139907   1.954   2.922   1.078
13322TIP3    H239908   2.062   3.025   1.104
13323TIP3   OH239909   0.114   2.553   1.838
13323TIP3    H139910   0.185   2.612   1.810
13323TIP3    H239911   0.043   2.571   1.776
13324TIP3   OH239912   4.925   2.075   2.774
13324TIP3    H139913   4.977   2.147   2.739
13324TIP3    H239914   4.967   1.996   2.739
13325TIP3   OH239915   2.617   3.932   0.249
13325TIP3    H139916   2.573   4.006   0.206
13325TIP3    H239917   2.688   3.909   0.189
13326TIP3   OH239918   4.560   6.525   5.023
13326TIP3    H139919   4.486   6.540   4.965
13326TIP3    H239920   4.586   6.612   5.052
13327TIP3   OH239921   4.609   7.277   6.529
13327TIP3    H139922   4.581   7.216   6.461
13327TIP3    H239923   4.579   7.363   6.499
13328TIP3   OH239924   4.348   3.293   0.257
13328TIP3    H139925   4.259   3.323   0.276
13328TIP3    H239926   4.357   3.299   0.162
13329TIP3   OH239927   3.522   0.061   5.091
13329TIP3    H139928   3.445   0.075   5.035
13329TIP3    H239929   3.596   0.072   5.032
13330TIP3   OH239930   1.545   6.281   4.026
13330TIP3    H139931   1.554   6.335   3.947
13330TIP3    H239932   1.457   6.300   4.059
13331TIP3   OH239933   7.912   6.323   2.888
13331TIP3    H139934   7.916   6.248   2.828
13331TIP3    H239935   7.877   6.287   2.969
13332TIP3   OH239936   8.325   4.726   0.767
13332TIP3    H139937   8.245   4.739   0.819
13332TIP3    H239938   8.349   4.814   0.739
13333TIP3   OH239939   5.451   0.581   4.867
13333TIP3    H139940   5.375   0.622   4.826
13333TIP3    H239941   5.511   0.562   4.794
13334TIP3   OH239942   3.848   6.641   0.663
13334TIP3    H139943   3.836   6.687   0.580
13334TIP3    H239944   3.759   6.621   0.692
13335TIP3   OH239945   8.280   6.063   1.467
13335TIP3    H139946   8.245   6.152   1.457
13335TIP3    H239947   8.339   6.069   1.542
13336TIP3   OH239948   3.809   2.452   0.795
13336TIP3    H139949   3.730   2.501   0.818
13336TIP3    H239950   3.784   2.360   0.802
13337TIP3   OH239951   5.957   2.006   0.233
13337TIP3    H139952   6.002   1.969   0.158
13337TIP3    H239953   5.914   2.084   0.199
13338TIP3   OH239954   7.303   4.120   0.409
13338TIP3    H139955   7.291   4.046   0.468
13338TIP3    H239956   7.216   4.160   0.402
13339TIP3   OH239957   6.443   3.912   6.168
13339TIP3    H139958   6.521   3.926   6.222
13339TIP3    H239959   6.370   3.942   6.223
13340TIP3   OH239960   1.936   5.404   1.064
13340TIP3    H139961   1.975   5.341   1.124
13340TIP3    H239962   1.865   5.356   1.021
13341TIP3   OH239963   7.886   1.223   4.177
13341TIP3    H139964   7.960   1.240   4.119
13341TIP3    H239965   7.888   1.128   4.191
13342TIP3   OH239966   7.359   2.863   3.689
13342TIP3    H139967   7.420   2.803   3.732
13342TIP3    H239968   7.367   2.944   3.739
13343TIP3   OH239969   7.002   6.499   1.984
13343TIP3    H139970   7.094   6.510   2.011
13343TIP3    H239971   6.977   6.586   1.952
13344TIP3   OH239972   4.502   3.014   4.112
13344TIP3    H139973   4.516   2.924   4.084
13344TIP3    H239974   4.590   3.053   4.115
13345TIP3   OH239975   0.580   3.689   6.385
13345TIP3    H139976   0.514   3.620   6.377
13345TIP3    H239977   0.536   3.768   6.353
13346TIP3   OH239978   5.724   3.823   3.569
13346TIP3    H139979   5.630   3.822   3.552
13346TIP3    H239980   5.761   3.767   3.501
13347TIP3   OH239981   1.904   0.184   5.074
13347TIP3    H139982   1.904   0.246   5.001
13347TIP3    H239983   1.829   0.211   5.128
13348TIP3   OH239984   0.480   6.747   2.717
13348TIP3    H139985   0.402   6.693   2.731
13348TIP3    H239986   0.458   6.832   2.756
13349TIP3   OH239987   0.040   7.282   2.887
13349TIP3    H139988   0.125   7.299   2.847
13349TIP3    H239989  -0.011   7.239   2.818
13350TIP3   OH239990   5.199   2.345   1.076
13350TIP3    H139991   5.258   2.324   1.148
13350TIP3    H239992   5.127   2.282   1.085
13351TIP3   OH239993   1.458   5.596   6.028
13351TIP3    H139994   1.522   5.661   5.996
13351TIP3    H239995   1.512   5.528   6.070
13352TIP3   OH239996   6.843   0.974   6.305
13352TIP3    H139997   6.780   0.903   6.302
13352TIP3    H239998   6.804   1.039   6.364
13353TIP3   OH239999   7.581   0.791   2.831
13353TIP3    H140000   7.497   0.810   2.789
13353TIP3    H240001   7.618   0.877   2.851
13354TIP3   OH240002   3.453   5.432   4.902
13354TIP3    H140003   3.404   5.375   4.842
13354TIP3    H240004   3.544   5.424   4.873
13355TIP3   OH240005   3.622   5.191   0.067
13355TIP3    H140006   3.671   5.109   0.064
13355TIP3    H240007   3.558   5.179   0.137
13356TIP3   OH240008   6.530   6.052   1.326
13356TIP3    H140009   6.551   5.997   1.401
13356TIP3    H240010   6.552   5.998   1.250
13357TIP3   OH240011   7.983   0.278   5.414
13357TIP3    H140012   7.935   0.265   5.496
13357TIP3    H240013   8.060   0.222   5.422
13358TIP3   OH240014   3.277   5.201   6.340
13358TIP3    H140015   3.246   5.264   6.406
13358TIP3    H240016   3.269   5.116   6.382
13359TIP3   OH240017   2.639   4.516   1.375
13359TIP3    H140018   2.639   4.482   1.464
13359TIP3    H240019   2.730   4.542   1.359
13360TIP3   OH240020   1.578   5.671   4.176
13360TIP3    H140021   1.536   5.627   4.250
13360TIP3    H240022   1.616   5.750   4.214
13361TIP3   OH240023   6.161   2.793   6.529
13361TIP3    H140024   6.159   2.699   6.512
13361TIP3    H240025   6.225   2.803   6.600
13362TIP3   OH240026   5.488   4.053   6.133
13362TIP3    H140027   5.434   4.002   6.072
13362TIP3    H240028   5.480   4.143   6.103
13363TIP3   OH240029   2.399   1.546   4.124
13363TIP3    H140030   2.368   1.475   4.068
13363TIP3    H240031   2.494   1.542   4.119
13364TIP3   OH240032   6.294   1.649   1.888
13364TIP3    H140033   6.311   1.693   1.971
13364TIP3    H240034   6.306   1.716   1.821
13365TIP3   OH240035   0.095   4.221   2.011
13365TIP3    H140036   0.163   4.284   2.034
13365TIP3    H240037   0.092   4.222   1.916
13366TIP3   OH240038   5.560   7.178   0.904
13366TIP3    H140039   5.582   7.086   0.918
13366TIP3    H240040   5.475   7.176   0.859
13367TIP3   OH240041   1.722   4.352   5.700
13367TIP3    H140042   1.724   4.283   5.633
13367TIP3    H240043   1.685   4.428   5.655
13368TIP3   OH240044   1.782   3.914   5.495
13368TIP3    H140045   1.714   3.888   5.556
13368TIP3    H240046   1.857   3.936   5.550
13369TIP3   OH240047   7.851   7.511   0.773
13369TIP3    H140048   7.946   7.518   0.765
13369TIP3    H240049   7.820   7.496   0.684
13370TIP3   OH240050   6.507   2.034   3.699
13370TIP3    H140051   6.536   2.123   3.720
13370TIP3    H240052   6.586   1.980   3.706
13371TIP3   OH240053   2.447   5.438   0.084
13371TIP3    H140054   2.430   5.450  -0.010
13371TIP3    H240055   2.493   5.354   0.089
13372TIP3   OH240056   2.293   2.810   0.296
13372TIP3    H140057   2.334   2.792   0.381
13372TIP3    H240058   2.203   2.779   0.307
13373TIP3   OH240059   7.131   3.886   2.481
13373TIP3    H140060   7.168   3.831   2.550
13373TIP3    H240061   7.170   3.972   2.495
13374TIP3   OH240062   2.702   1.438   6.566
13374TIP3    H140063   2.773   1.452   6.629
13374TIP3    H240064   2.664   1.525   6.554
13375TIP3   OH240065   3.742   2.022   3.884
13375TIP3    H140066   3.693   2.051   3.807
13375TIP3    H240067   3.714   1.931   3.897
13376TIP3   OH240068   2.332   0.409   5.866
13376TIP3    H140069   2.259   0.347   5.862
13376TIP3    H240070   2.363   0.415   5.776
13377TIP3   OH240071   1.739   4.040   3.627
13377TIP3    H140072   1.668   4.087   3.671
13377TIP3    H240073   1.695   3.967   3.582
13378TIP3   OH240074   1.310   1.092   2.864
13378TIP3    H140075   1.338   1.046   2.943
13378TIP3    H240076   1.218   1.112   2.879
13379TIP3   OH240077   1.013   1.348   3.597
13379TIP3    H140078   1.012   1.411   3.525
13379TIP3    H240079   0.949   1.282   3.572
13380TIP3   OH240080   5.027   7.092   4.203
13380TIP3    H140081   5.032   7.122   4.113
13380TIP3    H240082   5.018   6.997   4.196
13381TIP3   OH240083   1.608   4.075   2.169
13381TIP3    H140084   1.638   3.992   2.130
13381TIP3    H240085   1.659   4.083   2.249
13382TIP3   OH240086   5.624   2.062   2.506
13382TIP3    H140087   5.636   1.975   2.545
13382TIP3    H240088   5.711   2.087   2.475
13383TIP3   OH240089   5.581   3.946   6.444
13383TIP3    H140090   5.538   3.982   6.521
13383TIP3    H240091   5.657   3.900   6.478
13384TIP3   OH240092   2.851   6.629   6.274
13384TIP3    H140093   2.788   6.561   6.300
13384TIP3    H240094   2.827   6.705   6.328
13385TIP3   OH240095   7.458   0.840   1.141
13385TIP3    H140096   7.499   0.769   1.090
13385TIP3    H240097   7.453   0.806   1.230
13386TIP3   OH240098   7.494   2.561   2.008
13386TIP3    H140099   7.418   2.573   1.950
13386TIP3    H240100   7.455   2.557   2.096
13387TIP3   OH240101   6.962   2.993   1.742
13387TIP3    H140102   7.022   3.061   1.773
13387TIP3    H240103   6.877   3.018   1.778
13388TIP3   OH240104   0.254   4.171   2.836
13388TIP3    H140105   0.174   4.179   2.888
13388TIP3    H240106   0.315   4.123   2.893
13389TIP3   OH240107   5.241   1.034   1.945
13389TIP3    H140108   5.174   1.097   1.973
13389TIP3    H240109   5.232   0.961   2.006
13390TIP3   OH240110   1.062   2.282   6.634
13390TIP3    H140111   1.092   2.335   6.708
13390TIP3    H240112   1.124   2.302   6.564
13391TIP3   OH240113   4.220   2.484   6.299
13391TIP3    H140114   4.290   2.476   6.363
13391TIP3    H240115   4.157   2.544   6.339
13392TIP3   OH240116   0.851   0.047   0.372
13392TIP3    H140117   0.895   0.009   0.448
13392TIP3    H240118   0.760   0.058   0.400
13393TIP3   OH240119   8.387   5.618   5.254
13393TIP3    H140120   8.314   5.632   5.194
13393TIP3    H240121   8.463   5.606   5.197
13394TIP3   OH240122   6.997   1.075   1.134
13394TIP3    H140123   7.049   1.031   1.201
13394TIP3    H240124   7.056   1.140   1.097
13395TIP3   OH240125   1.245   5.796   5.633
13395TIP3    H140126   1.329   5.843   5.634
13395TIP3    H240127   1.226   5.781   5.726
13396TIP3   OH240128   2.463   0.813   3.035
13396TIP3    H140129   2.450   0.794   3.128
13396TIP3    H240130   2.422   0.899   3.023
13397TIP3   OH240131   0.454   3.929   3.927
13397TIP3    H140132   0.360   3.910   3.921
13397TIP3    H240133   0.487   3.867   3.992
13398TIP3   OH240134   1.508   2.719   0.632
13398TIP3    H140135   1.586   2.686   0.588
13398TIP3    H240136   1.437   2.662   0.603
13399TIP3   OH240137   6.871   2.772   2.189
13399TIP3    H140138   6.882   2.866   2.175
13399TIP3    H240139   6.776   2.758   2.185
13400TIP3   OH240140   7.536   7.489   4.310
13400TIP3    H140141   7.537   7.406   4.358
13400TIP3    H240142   7.493   7.550   4.370
13401TIP3   OH240143   2.198   5.879   3.747
13401TIP3    H140144   2.275   5.933   3.728
13401TIP3    H240145   2.152   5.873   3.663
13402TIP3   OH240146   1.387   0.896   5.434
13402TIP3    H140147   1.309   0.843   5.451
13402TIP3    H240148   1.451   0.866   5.498
13403TIP3   OH240149   4.661   5.048   6.135
13403TIP3    H140150   4.569   5.051   6.109
13403TIP3    H240151   4.707   5.097   6.067
13404TIP3   OH240152   3.671   4.011   2.327
13404TIP3    H140153   3.641   4.102   2.316
13404TIP3    H240154   3.618   3.961   2.266
13405TIP3   OH240155   6.275   1.075   1.730
13405TIP3    H140156   6.184   1.074   1.759
13405TIP3    H240157   6.323   1.030   1.799
13406TIP3   OH240158   2.875   3.990   6.316
13406TIP3    H140159   2.902   3.955   6.231
13406TIP3    H240160   2.828   3.918   6.358
13407TIP3   OH240161   7.615   7.800   6.151
13407TIP3    H140162   7.603   7.719   6.101
13407TIP3    H240163   7.578   7.781   6.237
13408TIP3   OH240164   0.198   6.835   4.570
13408TIP3    H140165   0.155   6.750   4.558
13408TIP3    H240166   0.168   6.865   4.656
13409TIP3   OH240167   3.155   6.832   0.714
13409TIP3    H140168   3.184   6.753   0.760
13409TIP3    H240169   3.074   6.857   0.759
13410TIP3   OH240170   0.601   6.327   3.512
13410TIP3    H140171   0.622   6.240   3.544
13410TIP3    H240172   0.533   6.312   3.445
13411TIP3   OH240173   0.328   0.946   6.095
13411TIP3    H140174   0.258   0.949   6.030
13411TIP3    H240175   0.369   0.860   6.082
13412TIP3   OH240176   4.595   7.589   1.793
13412TIP3    H140177   4.581   7.672   1.747
13412TIP3    H240178   4.514   7.540   1.779
13413TIP3   OH240179   3.516   3.096   6.844
13413TIP3    H140180   3.573   3.107   6.768
13413TIP3    H240181   3.564   3.039   6.903
13414TIP3   OH240182   1.848   6.387   1.831
13414TIP3    H140183   1.782   6.345   1.776
13414TIP3    H240184   1.797   6.433   1.898
13415TIP3   OH240185   6.384   1.796   3.158
13415TIP3    H140186   6.318   1.782   3.227
13415TIP3    H240187   6.434   1.714   3.156
13416TIP3   OH240188   4.844   1.134   0.622
13416TIP3    H140189   4.906   1.144   0.695
13416TIP3    H240190   4.896   1.097   0.551
13417TIP3   OH240191   5.583   2.101   3.136
13417TIP3    H140192   5.653   2.155   3.099
13417TIP3    H240193   5.628   2.029   3.178
13418TIP3   OH240194   6.587   5.526   2.811
13418TIP3    H140195   6.656   5.587   2.785
13418TIP3    H240196   6.569   5.546   2.903
13419TIP3   OH240197   6.209   0.113   1.414
13419TIP3    H140198   6.276   0.044   1.418
13419TIP3    H240199   6.258   0.192   1.393
13420TIP3   OH240200   5.646   2.513   0.700
13420TIP3    H140201   5.578   2.451   0.672
13420TIP3    H240202   5.717   2.501   0.637
13421TIP3   OH240203   4.589   1.927   2.791
13421TIP3    H140204   4.638   1.956   2.869
13421TIP3    H240205   4.587   2.004   2.735
13422TIP3   OH240206   6.182   0.903   4.852
13422TIP3    H140207   6.272   0.931   4.868
13422TIP3    H240208   6.145   0.972   4.796
13423TIP3   OH240209   4.665   4.300   6.453
13423TIP3    H140210   4.702   4.285   6.540
13423TIP3    H240211   4.572   4.317   6.468
13424TIP3   OH240212   3.933   4.366   5.446
13424TIP3    H140213   3.895   4.405   5.524
13424TIP3    H240214   3.926   4.272   5.460
13425TIP3   OH240215   4.395   2.901   2.687
13425TIP3    H140216   4.336   2.934   2.755
13425TIP3    H240217   4.372   2.808   2.678
13426TIP3   OH240218   8.267   4.509   5.092
13426TIP3    H140219   8.190   4.451   5.091
13426TIP3    H240220   8.231   4.597   5.086
13427TIP3   OH240221   5.276   1.679   5.033
13427TIP3    H140222   5.236   1.737   5.098
13427TIP3    H240223   5.235   1.594   5.050
13428TIP3   OH240224   0.026   5.978   1.710
13428TIP3    H140225   0.024   5.896   1.660
13428TIP3    H240226   0.119   6.001   1.714
13429TIP3   OH240227   6.395   2.621   0.245
13429TIP3    H140228   6.372   2.564   0.318
13429TIP3    H240229   6.407   2.561   0.171
13430TIP3   OH240230   5.097   5.199   0.399
13430TIP3    H140231   5.187   5.196   0.367
13430TIP3    H240232   5.058   5.116   0.371
13431TIP3   OH240233   6.094   3.226   1.757
13431TIP3    H140234   6.188   3.238   1.745
13431TIP3    H240235   6.081   3.131   1.751
13432TIP3   OH240236   3.089   7.179   2.469
13432TIP3    H140237   3.137   7.204   2.549
13432TIP3    H240238   3.078   7.262   2.422
13433TIP3   OH240239   8.323   5.055   2.517
13433TIP3    H140240   8.406   5.039   2.471
13433TIP3    H240241   8.266   5.096   2.451
13434TIP3   OH240242   1.009   2.633   0.180
13434TIP3    H140243   0.986   2.700   0.244
13434TIP3    H240244   1.035   2.557   0.232
13435TIP3   OH240245   7.024   6.221   6.602
13435TIP3    H140246   7.028   6.315   6.622
13435TIP3    H240247   6.998   6.180   6.685
13436TIP3   OH240248   4.453   2.493   3.099
13436TIP3    H140249   4.520   2.551   3.064
13436TIP3    H240250   4.501   2.431   3.154
13437TIP3   OH240251   4.532   3.599   3.760
13437TIP3    H140252   4.461   3.535   3.759
13437TIP3    H240253   4.555   3.607   3.853
13438TIP3   OH240254   1.307   3.851   1.493
13438TIP3    H140255   1.264   3.929   1.526
13438TIP3    H240256   1.240   3.782   1.499
13439TIP3   OH240257   6.521   5.469   1.317
13439TIP3    H140258   6.505   5.382   1.354
13439TIP3    H240259   6.434   5.499   1.289
13440TIP3   OH240260   0.351   2.790   2.553
13440TIP3    H140261   0.425   2.739   2.521
13440TIP3    H240262   0.356   2.872   2.505
13441TIP3   OH240263   7.432   7.698   3.567
13441TIP3    H140264   7.488   7.672   3.641
13441TIP3    H240265   7.490   7.698   3.491
13442TIP3   OH240266   1.993   6.216   4.407
13442TIP3    H140267   2.037   6.284   4.357
13442TIP3    H240268   2.002   6.137   4.354
13443TIP3   OH240269   5.744   5.988   2.268
13443TIP3    H140270   5.716   5.939   2.190
13443TIP3    H240271   5.837   5.968   2.277
13444TIP3   OH240272   0.174   4.959   2.486
13444TIP3    H140273   0.165   4.927   2.576
13444TIP3    H240274   0.267   4.982   2.478
13445TIP3   OH240275   1.420   0.055   1.826
13445TIP3    H140276   1.495   0.113   1.811
13445TIP3    H240277   1.411   0.005   1.745
13446TIP3   OH240278   1.436   1.177   6.760
13446TIP3    H140279   1.408   1.218   6.678
13446TIP3    H240280   1.487   1.245   6.804
13447TIP3   OH240281   3.372   4.349   5.636
13447TIP3    H140282   3.382   4.391   5.722
13447TIP3    H240283   3.407   4.413   5.574
13448TIP3   OH240284   3.378   1.091   5.410
13448TIP3    H140285   3.433   1.112   5.486
13448TIP3    H240286   3.308   1.156   5.413
13449TIP3   OH240287   1.220   3.886   1.839
13449TIP3    H140288   1.287   3.821   1.816
13449TIP3    H240289   1.162   3.889   1.763
13450TIP3   OH240290   4.193   4.738   5.576
13450TIP3    H140291   4.237   4.819   5.548
13450TIP3    H240292   4.262   4.686   5.616
13451TIP3   OH240293   3.407   0.874   4.447
13451TIP3    H140294   3.399   0.968   4.437
13451TIP3    H240295   3.490   0.852   4.404
13452TIP3   OH240296   3.706   2.688   5.083
13452TIP3    H140297   3.749   2.755   5.136
13452TIP3    H240298   3.727   2.606   5.127
13453TIP3   OH240299   2.543   0.341   0.084
13453TIP3    H140300   2.489   0.411   0.122
13453TIP3    H240301   2.484   0.297   0.022
13454TIP3   OH240302   1.716   6.270   2.174
13454TIP3    H140303   1.727   6.264   2.269
13454TIP3    H240304   1.806   6.276   2.140
13455TIP3   OH240305   1.823   1.595   1.261
13455TIP3    H140306   1.834   1.503   1.238
13455TIP3    H240307   1.911   1.625   1.286
13456TIP3   OH240308   3.322   7.689   6.149
13456TIP3    H140309   3.408   7.686   6.190
13456TIP3    H240310   3.272   7.619   6.192
13457TIP3   OH240311   5.895   0.646   3.988
13457TIP3    H140312   5.860   0.672   3.903
13457TIP3    H240313   5.951   0.571   3.970
13458TIP3   OH240314   0.011   4.716   1.360
13458TIP3    H140315  -0.007   4.702   1.267
13458TIP3    H240316   0.088   4.662   1.378
13459TIP3   OH240317   4.027   1.215   6.333
13459TIP3    H140318   4.121   1.217   6.315
13459TIP3    H240319   4.003   1.307   6.344
13460TIP3   OH240320   1.656   0.321   0.760
13460TIP3    H140321   1.612   0.402   0.785
13460TIP3    H240322   1.614   0.297   0.677
13461TIP3   OH240323   2.617   4.114   5.800
13461TIP3    H140324   2.612   4.061   5.720
13461TIP3    H240325   2.541   4.086   5.852
13462TIP3   OH240326   4.706   3.053   1.071
13462TIP3    H140327   4.800   3.045   1.088
13462TIP3    H240328   4.700   3.070   0.977
13463TIP3   OH240329   8.149   2.475   1.227
13463TIP3    H140330   8.147   2.570   1.214
13463TIP3    H240331   8.242   2.453   1.229
13464TIP3   OH240332   1.403   2.410   4.789
13464TIP3    H140333   1.388   2.424   4.882
13464TIP3    H240334   1.413   2.315   4.780
13465TIP3   OH240335   0.868   5.113   0.605
13465TIP3    H140336   0.822   5.047   0.658
13465TIP3    H240337   0.921   5.062   0.544
13466TIP3   OH240338   4.186   7.060   2.495
13466TIP3    H140339   4.196   7.068   2.590
13466TIP3    H240340   4.170   6.966   2.481
13467TIP3   OH240341   2.874   1.607   4.750
13467TIP3    H140342   2.948   1.555   4.718
13467TIP3    H240343   2.821   1.546   4.799
13468TIP3   OH240344   1.648   2.178   3.637
13468TIP3    H140345   1.712   2.150   3.702
13468TIP3    H240346   1.682   2.260   3.603
13469TIP3   OH240347   4.975   1.273   0.286
13469TIP3    H140348   4.893   1.243   0.247
13469TIP3    H240349   5.016   1.194   0.319
13470TIP3   OH240350   6.832   6.203   4.885
13470TIP3    H140351   6.747   6.245   4.886
13470TIP3    H240352   6.842   6.169   4.796
13471TIP3   OH240353   1.156   0.003   1.915
13471TIP3    H140354   1.251   0.014   1.902
13471TIP3    H240355   1.146  -0.016   2.008
13472TIP3   OH240356   7.623   6.963   2.620
13472TIP3    H140357   7.670   6.923   2.546
13472TIP3    H240358   7.543   6.998   2.582
13473TIP3   OH240359   3.244   2.270   4.886
13473TIP3    H140360   3.334   2.300   4.886
13473TIP3    H240361   3.225   2.251   4.978
13474TIP3   OH240362   3.427   2.025   2.329
13474TIP3    H140363   3.507   1.973   2.317
13474TIP3    H240364   3.454   2.116   2.314
13475TIP3   OH240365   1.840   2.715   2.283
13475TIP3    H140366   1.919   2.732   2.232
13475TIP3    H240367   1.872   2.667   2.360
13476TIP3   OH240368   6.246   4.452   1.578
13476TIP3    H140369   6.229   4.436   1.485
13476TIP3    H240370   6.264   4.366   1.615
13477TIP3   OH240371   2.169   7.680   4.663
13477TIP3    H140372   2.098   7.625   4.630
13477TIP3    H240373   2.232   7.619   4.700
13478TIP3   OH240374   7.723   3.837   1.120
13478TIP3    H140375   7.753   3.901   1.184
13478TIP3    H240376   7.719   3.884   1.037
13479TIP3   OH240377   7.987   5.330   2.157
13479TIP3    H140378   8.010   5.382   2.080
13479TIP3    H240379   7.904   5.289   2.134
13480TIP3   OH240380   8.231   1.551   0.657
13480TIP3    H140381   8.314   1.597   0.642
13480TIP3    H240382   8.257   1.468   0.698
13481TIP3   OH240383   4.810   3.586   2.873
13481TIP3    H140384   4.863   3.664   2.859
13481TIP3    H240385   4.720   3.614   2.857
13482TIP3   OH240386   2.770   4.461   5.041
13482TIP3    H140387   2.772   4.389   5.104
13482TIP3    H240388   2.827   4.528   5.079
13483TIP3   OH240389   5.277   2.850   1.782
13483TIP3    H140390   5.247   2.853   1.691
13483TIP3    H240391   5.234   2.773   1.819
13484TIP3   OH240392   0.574   0.476   3.229
13484TIP3    H140393   0.580   0.411   3.298
13484TIP3    H240394   0.480   0.492   3.219
13485TIP3   OH240395   8.032   3.855   1.632
13485TIP3    H140396   8.119   3.854   1.592
13485TIP3    H240397   7.999   3.766   1.616
13486TIP3   OH240398   5.582   5.963   4.502
13486TIP3    H140399   5.544   6.051   4.504
13486TIP3    H240400   5.618   5.950   4.590
13487TIP3   OH240401   2.539   2.108   2.040
13487TIP3    H140402   2.471   2.059   2.088
13487TIP3    H240403   2.604   2.042   2.017
13488TIP3   OH240404   6.090   2.803   0.874
13488TIP3    H140405   6.065   2.850   0.953
13488TIP3    H240406   6.186   2.811   0.870
13489TIP3   OH240407   3.194   7.542   4.022
13489TIP3    H140408   3.268   7.592   4.057
13489TIP3    H240409   3.134   7.608   3.988
13490TIP3   OH240410   1.410   0.082   5.417
13490TIP3    H140411   1.349   0.035   5.475
13490TIP3    H240412   1.378   0.063   5.329
13491TIP3   OH240413   4.352   1.453   3.838
13491TIP3    H140414   4.339   1.436   3.745
13491TIP3    H240415   4.345   1.548   3.846
13492TIP3   OH240416   2.199   0.906   6.100
13492TIP3    H140417   2.284   0.872   6.127
13492TIP3    H240418   2.142   0.893   6.176
13493TIP3   OH240419   7.093   5.523   0.920
13493TIP3    H140420   7.081   5.601   0.973
13493TIP3    H240421   7.178   5.535   0.878
13494TIP3   OH240422   0.230   4.851   2.738
13494TIP3    H140423   0.294   4.785   2.712
13494TIP3    H240424   0.269   4.894   2.814
13495TIP3   OH240425   6.059   3.468   2.943
13495TIP3    H140426   6.074   3.426   3.027
13495TIP3    H240427   6.014   3.402   2.890
13496TIP3   OH240428   7.877   3.665   0.329
13496TIP3    H140429   7.942   3.595   0.325
13496TIP3    H240430   7.842   3.661   0.417
13497TIP3   OH240431   0.179   6.691   6.313
13497TIP3    H140432   0.203   6.744   6.389
13497TIP3    H240433   0.204   6.745   6.238
13498TIP3   OH240434   6.336   0.234   1.063
13498TIP3    H140435   6.380   0.158   1.026
13498TIP3    H240436   6.346   0.224   1.158
13499TIP3   OH240437   4.064   1.766   3.028
13499TIP3    H140438   4.018   1.818   2.962
13499TIP3    H240439   4.142   1.817   3.048
13500TIP3   OH240440   2.966   2.656   4.202
13500TIP3    H140441   3.023   2.705   4.143
13500TIP3    H240442   3.010   2.571   4.212
13501TIP3   OH240443   6.004   2.343   4.130
13501TIP3    H140444   6.032   2.252   4.119
13501TIP3    H240445   5.947   2.341   4.207
13502TIP3   OH240446   5.638   4.679   4.869
13502TIP3    H140447   5.676   4.673   4.781
13502TIP3    H240448   5.698   4.630   4.925
13503TIP3   OH240449   7.561   0.558   6.707
13503TIP3    H140450   7.500   0.533   6.637
13503TIP3    H240451   7.599   0.641   6.677
13504TIP3   OH240452   7.334   6.895   1.042
13504TIP3    H140453   7.295   6.811   1.018
13504TIP3    H240454   7.429   6.880   1.037
13505TIP3   OH240455   6.831   4.048   3.310
13505TIP3    H140456   6.868   3.985   3.372
13505TIP3    H240457   6.774   3.995   3.254
13506TIP3   OH240458   6.677   1.542   2.853
13506TIP3    H140459   6.744   1.589   2.902
13506TIP3    H240460   6.701   1.554   2.761
13507TIP3   OH240461   6.360   5.033   1.451
13507TIP3    H140462   6.453   5.055   1.449
13507TIP3    H240463   6.337   5.019   1.360
13508TIP3   OH240464   6.563   5.968   4.708
13508TIP3    H140465   6.552   5.905   4.779
13508TIP3    H240466   6.477   5.970   4.665
13509TIP3   OH240467   7.894   3.119   3.172
13509TIP3    H140468   7.821   3.073   3.130
13509TIP3    H240469   7.970   3.094   3.120
13510TIP3   OH240470   1.882   5.966   4.671
13510TIP3    H140471   1.811   5.930   4.724
13510TIP3    H240472   1.845   5.973   4.583
13511TIP3   OH240473   3.681   3.730   0.556
13511TIP3    H140474   3.687   3.748   0.462
13511TIP3    H240475   3.750   3.784   0.594
13512TIP3   OH240476   6.128   5.033   5.352
13512TIP3    H140477   6.196   5.050   5.288
13512TIP3    H240478   6.046   5.040   5.303
13513TIP3   OH240479   4.201   2.249   0.225
13513TIP3    H140480   4.148   2.217   0.298
13513TIP3    H240481   4.287   2.265   0.263
13514TIP3   OH240482   1.887   2.159   3.356
13514TIP3    H140483   1.873   2.254   3.356
13514TIP3    H240484   1.935   2.143   3.438
13515TIP3   OH240485   7.313   2.638   6.280
13515TIP3    H140486   7.397   2.628   6.237
13515TIP3    H240487   7.329   2.616   6.372
13516TIP3   OH240488   8.166   5.457   4.914
13516TIP3    H140489   8.144   5.402   4.839
13516TIP3    H240490   8.257   5.482   4.899
13517TIP3   OH240491   1.051   4.868   6.552
13517TIP3    H140492   1.122   4.831   6.604
13517TIP3    H240493   1.069   4.838   6.463
13518TIP3   OH240494   4.690   6.292   6.310
13518TIP3    H140495   4.764   6.248   6.267
13518TIP3    H240496   4.684   6.377   6.267
13519TIP3   OH240497   1.524   3.716   2.414
13519TIP3    H140498   1.599   3.668   2.378
13519TIP3    H240499   1.466   3.647   2.447
13520TIP3   OH240500   6.444   3.303   5.098
13520TIP3    H140501   6.442   3.258   5.014
13520TIP3    H240502   6.521   3.267   5.142
13521TIP3   OH240503   7.478   3.384   0.897
13521TIP3    H140504   7.456   3.477   0.896
13521TIP3    H240505   7.560   3.380   0.947
13522TIP3   OH240506   6.647   5.491   2.140
13522TIP3    H140507   6.614   5.409   2.104
13522TIP3    H240508   6.712   5.463   2.205
13523TIP3   OH240509   7.711   1.787   5.326
13523TIP3    H140510   7.731   1.699   5.360
13523TIP3    H240511   7.795   1.832   5.324
13524TIP3   OH240512   6.992   7.283   5.770
13524TIP3    H140513   6.963   7.197   5.798
13524TIP3    H240514   6.994   7.335   5.850
13525TIP3   OH240515   3.926   3.738   5.869
13525TIP3    H140516   3.992   3.749   5.938
13525TIP3    H240517   3.874   3.663   5.897
13526TIP3   OH240518   4.436   7.559   2.902
13526TIP3    H140519   4.424   7.603   2.986
13526TIP3    H240520   4.350   7.523   2.881
13527TIP3   OH240521   6.028   5.583   0.603
13527TIP3    H140522   6.012   5.490   0.588
13527TIP3    H240523   6.093   5.608   0.538
13528TIP3   OH240524   4.125   3.241   6.744
13528TIP3    H140525   4.192   3.276   6.803
13528TIP3    H240526   4.143   3.147   6.740
13529TIP3   OH240527   0.315   6.496   4.491
13529TIP3    H140528   0.291   6.538   4.409
13529TIP3    H240529   0.251   6.425   4.501
13530TIP3   OH240530   4.436   6.357   3.022
13530TIP3    H140531   4.491   6.278   3.019
13530TIP3    H240532   4.495   6.427   2.993
13531TIP3   OH240533   5.601   2.271   5.543
13531TIP3    H140534   5.508   2.292   5.553
13531TIP3    H240535   5.610   2.183   5.579
13532TIP3   OH240536   0.230   3.104   4.985
13532TIP3    H140537   0.304   3.163   4.999
13532TIP3    H240538   0.154   3.152   5.018
13533TIP3   OH240539   6.889   1.362   2.241
13533TIP3    H140540   6.901   1.277   2.200
13533TIP3    H240541   6.850   1.342   2.327
13534TIP3   OH240542   2.005   4.678   0.890
13534TIP3    H140543   1.938   4.611   0.881
13534TIP3    H240544   1.959   4.760   0.876
13535TIP3   OH240545   1.642   3.453   6.513
13535TIP3    H140546   1.709   3.400   6.556
13535TIP3    H240547   1.591   3.390   6.462
13536TIP3   OH240548   6.890   2.219   1.647
13536TIP3    H140549   6.958   2.278   1.677
13536TIP3    H240550   6.848   2.188   1.727
13537TIP3   OH240551   8.378   1.492   4.692
13537TIP3    H140552   8.307   1.427   4.688
13537TIP3    H240553   8.422   1.485   4.608
13538TIP3   OH240554   1.537   4.212   6.297
13538TIP3    H140555   1.589   4.137   6.325
13538TIP3    H240556   1.588   4.253   6.227
13539TIP3   OH240557   3.802   3.873   1.460
13539TIP3    H140558   3.874   3.831   1.413
13539TIP3    H240559   3.815   3.966   1.445
13540TIP3   OH240560   6.573   3.775   4.469
13540TIP3    H140561   6.527   3.715   4.527
13540TIP3    H240562   6.576   3.858   4.517
13541TIP3   OH240563   7.043   7.066   1.662
13541TIP3    H140564   7.073   7.125   1.732
13541TIP3    H240565   7.118   7.009   1.646
13542TIP3   OH240566   6.537   2.225   6.098
13542TIP3    H140567   6.597   2.283   6.052
13542TIP3    H240568   6.464   2.281   6.125
13543TIP3   OH240569   1.648   4.867   5.511
13543TIP3    H140570   1.725   4.923   5.503
13543TIP3    H240571   1.682   4.778   5.507
13544TIP3   OH240572   4.247   2.961   2.930
13544TIP3    H140573   4.214   2.900   2.996
13544TIP3    H240574   4.338   2.978   2.956
13545TIP3   OH240575   3.692   6.779   3.068
13545TIP3    H140576   3.764   6.807   3.124
13545TIP3    H240577   3.708   6.822   2.984
13546TIP3   OH240578   8.179   7.946   1.254
13546TIP3    H140579   8.133   7.873   1.214
13546TIP3    H240580   8.261   7.909   1.287
13547TIP3   OH240581   1.036   2.508   1.534
13547TIP3    H140582   1.122   2.489   1.571
13547TIP3    H240583   1.017   2.597   1.561
13548TIP3   OH240584   4.229   5.625   2.745
13548TIP3    H140585   4.200   5.714   2.726
13548TIP3    H240586   4.205   5.575   2.667
13549TIP3   OH240587   4.105   1.052   6.540
13549TIP3    H140588   4.167   1.116   6.575
13549TIP3    H240589   4.058   1.099   6.471
13550TIP3   OH240590   1.073   3.848   6.331
13550TIP3    H140591   1.114   3.932   6.351
13550TIP3    H240592   1.000   3.869   6.273
13551TIP3   OH240593   4.262   5.651   3.465
13551TIP3    H140594   4.282   5.653   3.559
13551TIP3    H240595   4.167   5.650   3.461
13552TIP3   OH240596   5.647   0.339   6.574
13552TIP3    H140597   5.647   0.428   6.537
13552TIP3    H240598   5.564   0.301   6.546
13553TIP3   OH240599   2.376   1.486   1.999
13553TIP3    H140600   2.451   1.463   1.946
13553TIP3    H240601   2.302   1.440   1.959
13554TIP3   OH240602   3.123   7.751   1.528
13554TIP3    H140603   3.183   7.816   1.566
13554TIP3    H240604   3.076   7.715   1.604
13555TIP3   OH240605   3.535   0.063   1.062
13555TIP3    H140606   3.521   0.156   1.079
13555TIP3    H240607   3.629   0.050   1.076
13556TIP3   OH240608   1.742   6.756   1.898
13556TIP3    H140609   1.792   6.779   1.977
13556TIP3    H240610   1.677   6.693   1.928
13557TIP3   OH240611   6.716   3.467   5.370
13557TIP3    H140612   6.801   3.501   5.398
13557TIP3    H240613   6.659   3.543   5.369
13558TIP3   OH240614   2.464   5.386   2.016
13558TIP3    H140615   2.552   5.425   2.015
13558TIP3    H240616   2.409   5.454   2.054
13559TIP3   OH240617   7.755   4.292   0.779
13559TIP3    H140618   7.703   4.296   0.859
13559TIP3    H240619   7.704   4.344   0.716
13560TIP3   OH240620   4.404   6.803   3.867
13560TIP3    H140621   4.478   6.745   3.885
13560TIP3    H240622   4.336   6.773   3.927
13561TIP3   OH240623   6.593   1.524   0.845
13561TIP3    H140624   6.584   1.583   0.770
13561TIP3    H240625   6.687   1.515   0.858
13562TIP3   OH240626   3.700   4.534   1.739
13562TIP3    H140627   3.613   4.494   1.727
13562TIP3    H240628   3.747   4.471   1.793
13563TIP3   OH240629   1.446   0.095   4.843
13563TIP3    H140630   1.379   0.031   4.870
13563TIP3    H240631   1.514   0.042   4.801
13564TIP3   OH240632   6.600   3.586   4.245
13564TIP3    H140633   6.524   3.539   4.210
13564TIP3    H240634   6.567   3.629   4.324
13565TIP3   OH240635   2.978   3.872   5.834
13565TIP3    H140636   2.972   3.821   5.753
13565TIP3    H240637   2.892   3.913   5.843
13566TIP3   OH240638   3.312   1.308   1.678
13566TIP3    H140639   3.247   1.288   1.611
13566TIP3    H240640   3.277   1.271   1.758
13567TIP3   OH240641   3.815   5.120   5.943
13567TIP3    H140642   3.808   5.048   5.881
13567TIP3    H240643   3.856   5.191   5.893
13568TIP3   OH240644   3.023   6.818   2.623
13568TIP3    H140645   3.101   6.873   2.615
13568TIP3    H240646   2.971   6.839   2.546
13569TIP3   OH240647   0.181   4.775   4.689
13569TIP3    H140648   0.189   4.760   4.595
13569TIP3    H240649   0.262   4.741   4.727
13570TIP3   OH240650   7.010   4.290   3.106
13570TIP3    H140651   7.100   4.298   3.137
13570TIP3    H240652   6.978   4.210   3.147
13571TIP3   OH240653   1.389   1.593   3.330
13571TIP3    H140654   1.441   1.605   3.410
13571TIP3    H240655   1.420   1.661   3.271
13572TIP3   OH240656   7.065   7.659   5.507
13572TIP3    H140657   6.984   7.614   5.530
13572TIP3    H240658   7.101   7.687   5.592
13573TIP3   OH240659   2.496   6.414   5.297
13573TIP3    H140660   2.575   6.430   5.245
13573TIP3    H240661   2.424   6.435   5.238
13574TIP3   OH240662   4.356   7.495   4.006
13574TIP3    H140663   4.406   7.462   3.931
13574TIP3    H240664   4.269   7.455   3.997
13575TIP3   OH240665   2.774   4.170   4.847
13575TIP3    H140666   2.790   4.174   4.753
13575TIP3    H240667   2.820   4.246   4.882
13576TIP3   OH240668   0.255   7.310   4.403
13576TIP3    H140669   0.242   7.302   4.308
13576TIP3    H240670   0.184   7.368   4.432
13577TIP3   OH240671   5.391   4.085   0.911
13577TIP3    H140672   5.315   4.028   0.902
13577TIP3    H240673   5.422   4.069   1.000
13578TIP3   OH240674   7.078   5.893   3.666
13578TIP3    H140675   7.093   5.924   3.756
13578TIP3    H240676   7.160   5.911   3.621
13579TIP3   OH240677   7.862   6.575   6.744
13579TIP3    H140678   7.828   6.622   6.820
13579TIP3    H240679   7.787   6.528   6.709
13580TIP3   OH240680   2.611   3.902   1.855
13580TIP3    H140681   2.531   3.857   1.879
13580TIP3    H240682   2.679   3.862   1.911
13581TIP3   OH240683   2.706   5.082   4.241
13581TIP3    H140684   2.624   5.035   4.254
13581TIP3    H240685   2.724   5.075   4.148
13582TIP3   OH240686   0.916   1.840   1.265
13582TIP3    H140687   0.841   1.869   1.213
13582TIP3    H240688   0.989   1.838   1.203
13583TIP3   OH240689   5.751   1.005   4.859
13583TIP3    H140690   5.800   1.017   4.778
13583TIP3    H240691   5.760   0.912   4.880
13584TIP3   OH240692   4.951   3.618   1.926
13584TIP3    H140693   4.877   3.665   1.890
13584TIP3    H240694   5.020   3.626   1.859
13585TIP3   OH240695   0.911   2.872   5.582
13585TIP3    H140696   0.995   2.912   5.603
13585TIP3    H240697   0.846   2.925   5.629
13586TIP3   OH240698   8.376   0.411   2.304
13586TIP3    H140699   8.293   0.375   2.335
13586TIP3    H240700   8.404   0.472   2.372
13587TIP3   OH240701   4.980   5.678   6.331
13587TIP3    H140702   4.885   5.685   6.336
13587TIP3    H240703   4.996   5.606   6.269
13588TIP3   OH240704   1.227   7.158   3.184
13588TIP3    H140705   1.200   7.156   3.092
13588TIP3    H240706   1.280   7.079   3.195
13589TIP3   OH240707   5.612   1.967   0.578
13589TIP3    H140708   5.596   2.002   0.490
13589TIP3    H240709   5.526   1.946   0.612
13590TIP3   OH240710   3.468   0.484   0.730
13590TIP3    H140711   3.531   0.555   0.743
13590TIP3    H240712   3.389   0.514   0.775
13591TIP3   OH240713   7.683   2.979   4.320
13591TIP3    H140714   7.678   3.072   4.341
13591TIP3    H240715   7.676   2.934   4.404
13592TIP3   OH240716   7.670   5.089   5.510
13592TIP3    H140717   7.666   5.045   5.595
13592TIP3    H240718   7.583   5.077   5.472
13593TIP3   OH240719   7.538   1.137   6.480
13593TIP3    H140720   7.499   1.096   6.403
13593TIP3    H240721   7.507   1.227   6.478
13594TIP3   OH240722   4.594   7.567   5.663
13594TIP3    H140723   4.499   7.576   5.673
13594TIP3    H240724   4.610   7.581   5.570
13595TIP3   OH240725   8.231   4.386   0.202
13595TIP3    H140726   8.187   4.316   0.249
13595TIP3    H240727   8.201   4.377   0.111
13596TIP3   OH240728   1.387   7.710   5.334
13596TIP3    H140729   1.377   7.630   5.387
13596TIP3    H240730   1.400   7.779   5.398
13597TIP3   OH240731   2.177   3.385   4.243
13597TIP3    H140732   2.169   3.470   4.287
13597TIP3    H240733   2.134   3.397   4.159
13598TIP3   OH240734   7.806   2.275   0.724
13598TIP3    H140735   7.889   2.312   0.695
13598TIP3    H240736   7.764   2.347   0.773
13599TIP3   OH240737   3.472   6.708   1.702
13599TIP3    H140738   3.380   6.725   1.682
13599TIP3    H240739   3.472   6.620   1.740
13600TIP3   OH240740   4.271   4.593   6.559
13600TIP3    H140741   4.294   4.668   6.506
13600TIP3    H240742   4.244   4.630   6.643
13601TIP3   OH240743   0.444   3.321   4.961
13601TIP3    H140744   0.376   3.386   4.979
13601TIP3    H240745   0.478   3.343   4.874
13602TIP3   OH240746   2.535   5.116   5.815
13602TIP3    H140747   2.445   5.095   5.788
13602TIP3    H240748   2.581   5.032   5.814
13603TIP3   OH240749   6.733   1.508   6.173
13603TIP3    H140750   6.701   1.550   6.093
13603TIP3    H240751   6.828   1.524   6.172
13604TIP3   OH240752   4.130   6.024   4.183
13604TIP3    H140753   4.089   5.972   4.253
13604TIP3    H240754   4.077   6.104   4.179
13605TIP3   OH240755   5.061   7.842   2.840
13605TIP3    H140756   5.060   7.799   2.926
13605TIP3    H240757   5.049   7.771   2.777
13606TIP3   OH240758   4.537   5.969   6.656
13606TIP3    H140759   4.487   6.008   6.728
13606TIP3    H240760   4.471   5.951   6.589
13607TIP3   OH240761   1.070   7.338   4.225
13607TIP3    H140762   0.991   7.285   4.231
13607TIP3    H240763   1.127   7.289   4.165
13608TIP3   OH240764   1.520   3.211   3.937
13608TIP3    H140765   1.500   3.230   3.845
13608TIP3    H240766   1.515   3.295   3.981
13609TIP3   OH240767   0.826   5.311   3.211
13609TIP3    H140768   0.747   5.268   3.178
13609TIP3    H240769   0.894   5.289   3.148
13610TIP3   OH240770   2.820   4.666   0.646
13610TIP3    H140771   2.764   4.612   0.590
13610TIP3    H240772   2.775   4.667   0.730
13611TIP3   OH240773   3.064   4.921   5.390
13611TIP3    H140774   3.150   4.924   5.431
13611TIP3    H240775   3.028   4.836   5.415
13612TIP3   OH240776   2.421   4.106   1.400
13612TIP3    H140777   2.494   4.118   1.461
13612TIP3    H240778   2.343   4.122   1.453
13613TIP3   OH240779   2.901   4.007   3.758
13613TIP3    H140780   2.855   3.927   3.732
13613TIP3    H240781   2.939   4.040   3.677
13614TIP3   OH240782   1.278   2.817   5.035
13614TIP3    H140783   1.244   2.738   4.994
13614TIP3    H240784   1.291   2.793   5.127
13615TIP3   OH240785   6.161   4.635   2.718
13615TIP3    H140786   6.142   4.729   2.709
13615TIP3    H240787   6.095   4.603   2.778
13616TIP3   OH240788   8.002   0.549   1.586
13616TIP3    H140789   8.075   0.602   1.619
13616TIP3    H240790   8.038   0.461   1.576
13617TIP3   OH240791   6.951   0.616   6.297
13617TIP3    H140792   7.030   0.563   6.297
13617TIP3    H240793   6.965   0.681   6.229
13618TIP3   OH240794   2.322   1.444   4.749
13618TIP3    H140795   2.236   1.473   4.779
13618TIP3    H240796   2.377   1.444   4.828
13619TIP3   OH240797   5.131   3.989   0.028
13619TIP3    H140798   5.172   4.002   0.114
13619TIP3    H240799   5.145   4.072  -0.018
13620TIP3   OH240800   5.466   0.973   4.924
13620TIP3    H140801   5.504   0.935   4.844
13620TIP3    H240802   5.532   1.034   4.956
13621TIP3   OH240803   4.584   5.191   1.608
13621TIP3    H140804   4.561   5.105   1.643
13621TIP3    H240805   4.676   5.184   1.583
13622TIP3   OH240806   2.321   1.250   5.155
13622TIP3    H140807   2.295   1.158   5.151
13622TIP3    H240808   2.377   1.257   5.232
13623TIP3   OH240809   8.063   4.982   3.212
13623TIP3    H140810   8.097   4.901   3.175
13623TIP3    H240811   8.119   5.050   3.174
13624TIP3   OH240812   1.613   1.265   0.635
13624TIP3    H140813   1.535   1.301   0.593
13624TIP3    H240814   1.686   1.301   0.585
13625TIP3   OH240815   0.749   4.801   6.604
13625TIP3    H140816   0.838   4.837   6.597
13625TIP3    H240817   0.707   4.854   6.672
13626TIP3   OH240818   0.320   5.621   4.502
13626TIP3    H140819   0.344   5.542   4.453
13626TIP3    H240820   0.266   5.590   4.574
13627TIP3   OH240821   5.132   7.492   4.925
13627TIP3    H140822   5.225   7.499   4.905
13627TIP3    H240823   5.109   7.402   4.904
13628TIP3   OH240824   5.188   0.137   2.446
13628TIP3    H140825   5.233   0.062   2.404
13628TIP3    H240826   5.136   0.097   2.515
13629TIP3   OH240827   2.537   6.595   4.102
13629TIP3    H140828   2.458   6.613   4.153
13629TIP3    H240829   2.568   6.510   4.134
13630TIP3   OH240830   4.512   2.942   3.012
13630TIP3    H140831   4.529   2.970   3.102
13630TIP3    H240832   4.584   2.978   2.961
13631TIP3   OH240833   0.790   6.521   0.537
13631TIP3    H140834   0.709   6.506   0.585
13631TIP3    H240835   0.859   6.496   0.599
13632TIP3   OH240836   3.709   0.130   3.714
13632TIP3    H140837   3.662   0.200   3.667
13632TIP3    H240838   3.704   0.155   3.806
13633TIP3   OH240839   8.045   6.350   4.501
13633TIP3    H140840   7.961   6.391   4.477
13633TIP3    H240841   8.059   6.377   4.592
13634TIP3   OH240842   1.828   1.138   1.097
13634TIP3    H140843   1.861   1.056   1.060
13634TIP3    H240844   1.767   1.171   1.032
13635TIP3   OH240845   7.529   3.921   0.003
13635TIP3    H140846   7.546   3.850   0.065
13635TIP3    H240847   7.456   3.970   0.042
13636TIP3   OH240848   6.604   3.402   4.773
13636TIP3    H140849   6.632   3.491   4.797
13636TIP3    H240850   6.509   3.403   4.785
13637TIP3   OH240851   7.226   7.267   6.855
13637TIP3    H140852   7.310   7.308   6.877
13637TIP3    H240853   7.242   7.223   6.772
13638TIP3   OH240854   8.125   7.771   2.480
13638TIP3    H140855   8.047   7.827   2.475
13638TIP3    H240856   8.139   7.743   2.389
13639TIP3   OH240857   4.759   0.330   6.683
13639TIP3    H140858   4.768   0.410   6.734
13639TIP3    H240859   4.791   0.353   6.596
13640TIP3   OH240860   6.149   4.641   5.901
13640TIP3    H140861   6.076   4.579   5.908
13640TIP3    H240862   6.186   4.645   5.990
13641TIP3   OH240863   0.852   0.533   5.647
13641TIP3    H140864   0.831   0.452   5.693
13641TIP3    H240865   0.935   0.562   5.684
13642TIP3   OH240866   4.094   0.276   1.370
13642TIP3    H140867   4.138   0.353   1.407
13642TIP3    H240868   4.119   0.204   1.428
13643TIP3   OH240869   5.577   0.641   0.350
13643TIP3    H140870   5.568   0.564   0.406
13643TIP3    H240871   5.542   0.613   0.265
13644TIP3   OH240872   7.157   3.716   6.438
13644TIP3    H140873   7.159   3.634   6.487
13644TIP3    H240874   7.109   3.776   6.494
13645TIP3   OH240875   4.399   2.973   3.815
13645TIP3    H140876   4.368   2.945   3.901
13645TIP3    H240877   4.450   2.899   3.783
13646TIP3   OH240878   4.183   4.971   5.843
13646TIP3    H140879   4.211   4.894   5.891
13646TIP3    H240880   4.092   4.953   5.819
13647TIP3   OH240881   6.178   7.381   4.340
13647TIP3    H140882   6.200   7.298   4.299
13647TIP3    H240883   6.148   7.437   4.268
13648TIP3   OH240884   6.856   6.905   4.613
13648TIP3    H140885   6.802   6.973   4.571
13648TIP3    H240886   6.834   6.911   4.706
13649TIP3   OH240887   5.399   2.372   1.259
13649TIP3    H140888   5.449   2.387   1.178
13649TIP3    H240889   5.373   2.460   1.287
13650TIP3   OH240890   4.323   4.641   1.846
13650TIP3    H140891   4.383   4.569   1.826
13650TIP3    H240892   4.237   4.599   1.851
13651TIP3   OH240893   2.075   0.196   1.102
13651TIP3    H140894   2.108   0.175   1.015
13651TIP3    H240895   2.145   0.247   1.143
13652TIP3   OH240896   6.198   3.757   5.778
13652TIP3    H140897   6.231   3.718   5.860
13652TIP3    H240898   6.152   3.836   5.806
13653TIP3   OH240899   6.647   5.213   6.480
13653TIP3    H140900   6.687   5.241   6.398
13653TIP3    H240901   6.609   5.293   6.517
13654TIP3   OH240902   0.222   7.114   3.053
13654TIP3    H140903   0.143   7.151   3.013
13654TIP3    H240904   0.267   7.070   2.981
13655TIP3   OH240905   6.761   2.027   4.618
13655TIP3    H140906   6.733   2.073   4.538
13655TIP3    H240907   6.800   1.945   4.586
13656TIP3   OH240908   5.605   2.217   5.254
13656TIP3    H140909   5.624   2.275   5.328
13656TIP3    H240910   5.532   2.162   5.285
13657TIP3   OH240911   3.702   0.942   2.965
13657TIP3    H140912   3.656   0.883   2.905
13657TIP3    H240913   3.691   1.028   2.925
13658TIP3   OH240914   7.428   1.715   0.552
13658TIP3    H140915   7.348   1.725   0.604
13658TIP3    H240916   7.485   1.786   0.581
13659TIP3   OH240917   7.421   5.909   4.858
13659TIP3    H140918   7.374   5.963   4.795
13659TIP3    H240919   7.424   5.822   4.819
13660TIP3   OH240920   5.803   7.856   0.083
13660TIP3    H140921   5.869   7.868   0.151
13660TIP3    H240922   5.851   7.820   0.009
13661TIP3   OH240923   7.175   1.470   4.485
13661TIP3    H140924   7.202   1.430   4.402
13661TIP3    H240925   7.217   1.416   4.552
13662TIP3   OH240926   7.640   5.548   3.282
13662TIP3    H140927   7.546   5.536   3.292
13662TIP3    H240928   7.670   5.576   3.369
13663TIP3   OH240929   3.213   1.768   2.951
13663TIP3    H140930   3.197   1.859   2.926
13663TIP3    H240931   3.133   1.740   2.995
13664TIP3   OH240932   1.181   6.221   5.961
13664TIP3    H140933   1.134   6.173   5.892
13664TIP3    H240934   1.274   6.212   5.938
13665TIP3   OH240935   2.004   0.429   0.218
13665TIP3    H140936   1.988   0.494   0.150
13665TIP3    H240937   2.013   0.481   0.298
13666TIP3   OH240938   3.386   7.204   5.067
13666TIP3    H140939   3.329   7.130   5.087
13666TIP3    H240940   3.371   7.267   5.139
13667TIP3   OH240941   6.616   1.598   6.409
13667TIP3    H140942   6.682   1.603   6.340
13667TIP3    H240943   6.533   1.589   6.363
13668TIP3   OH240944   2.896   5.520   3.606
13668TIP3    H140945   2.963   5.481   3.550
13668TIP3    H240946   2.932   5.515   3.694
13669TIP3   OH240947   3.903   2.805   3.220
13669TIP3    H140948   3.815   2.769   3.227
13669TIP3    H240949   3.949   2.743   3.163
13670TIP3   OH240950   3.151   6.999   0.239
13670TIP3    H140951   3.123   7.089   0.226
13670TIP3    H240952   3.070   6.949   0.242
13671TIP3   OH240953   2.123   3.579   1.011
13671TIP3    H140954   2.035   3.575   1.048
13671TIP3    H240955   2.145   3.672   1.013
13672TIP3   OH240956   3.659   1.334   1.209
13672TIP3    H140957   3.688   1.350   1.298
13672TIP3    H240958   3.642   1.421   1.172
13673TIP3   OH240959   7.393   3.146   4.909
13673TIP3    H140960   7.398   3.074   4.973
13673TIP3    H240961   7.299   3.156   4.893
13674TIP3   OH240962   0.323   1.104   0.602
13674TIP3    H140963   0.228   1.101   0.617
13674TIP3    H240964   0.337   1.046   0.527
13675TIP3   OH240965   6.303   7.140   1.673
13675TIP3    H140966   6.309   7.047   1.698
13675TIP3    H240967   6.209   7.158   1.673
13676TIP3   OH240968   8.079   1.343   2.020
13676TIP3    H140969   8.061   1.372   2.110
13676TIP3    H240970   8.173   1.329   2.018
13677TIP3   OH240971   5.937   0.532   3.441
13677TIP3    H140972   6.005   0.467   3.424
13677TIP3    H240973   5.886   0.536   3.359
13678TIP3   OH240974   1.788   1.371   0.451
13678TIP3    H140975   1.831   1.457   0.456
13678TIP3    H240976   1.748   1.369   0.365
13679TIP3   OH240977   5.976   1.299   0.214
13679TIP3    H140978   5.970   1.370   0.278
13679TIP3    H240979   6.070   1.281   0.207
13680TIP3   OH240980   0.547   1.878   4.898
13680TIP3    H140981   0.618   1.814   4.891
13680TIP3    H240982   0.591   1.959   4.924
13681TIP3   OH240983   1.231   3.369   6.060
13681TIP3    H140984   1.284   3.299   6.097
13681TIP3    H240985   1.148   3.365   6.109
13682TIP3   OH240986   5.355   7.749   0.816
13682TIP3    H140987   5.430   7.759   0.874
13682TIP3    H240988   5.394   7.728   0.731
13683TIP3   OH240989   1.401   6.027   1.283
13683TIP3    H140990   1.487   5.998   1.254
13683TIP3    H240991   1.340   5.969   1.238
13684TIP3   OH240992   1.983   6.493   5.013
13684TIP3    H140993   1.969   6.505   5.107
13684TIP3    H240994   1.925   6.420   4.989
13685TIP3   OH240995   2.089   5.370   0.587
13685TIP3    H140996   2.028   5.329   0.525
13685TIP3    H240997   2.102   5.458   0.553
13686TIP3   OH240998   6.900   3.859   1.777
13686TIP3    H140999   6.868   3.885   1.690
13686TIP3    H241000   6.943   3.774   1.762
13687TIP3   OH241001   8.172   4.991   5.002
13687TIP3    H141002   8.220   4.974   4.921
13687TIP3    H241003   8.108   5.059   4.978
13688TIP3   OH241004   2.403   7.285   6.280
13688TIP3    H141005   2.430   7.343   6.208
13688TIP3    H241006   2.335   7.230   6.241
13689TIP3   OH241007   5.878   4.451   6.724
13689TIP3    H141008   5.902   4.538   6.754
13689TIP3    H241009   5.958   4.399   6.737
13690TIP3   OH241010   4.719   1.729   0.442
13690TIP3    H141011   4.728   1.662   0.510
13690TIP3    H241012   4.637   1.773   0.462
13691TIP3   OH241013   3.963   2.847   0.288
13691TIP3    H141014   3.926   2.866   0.374
13691TIP3    H241015   4.058   2.842   0.304
13692TIP3   OH241016   2.205   2.650   4.073
13692TIP3    H141017   2.114   2.681   4.075
13692TIP3    H241018   2.227   2.648   3.980
13693TIP3   OH241019   3.017   6.578   5.450
13693TIP3    H141020   2.959   6.506   5.425
13693TIP3    H241021   3.059   6.605   5.368
13694TIP3   OH241022   6.194   3.690   3.821
13694TIP3    H141023   6.233   3.605   3.840
13694TIP3    H241024   6.262   3.737   3.771
13695TIP3   OH241025   5.767   5.409   0.472
13695TIP3    H141026   5.773   5.440   0.562
13695TIP3    H241027   5.834   5.341   0.466
13696TIP3   OH241028   0.121   3.232   5.723
13696TIP3    H141029   0.095   3.151   5.679
13696TIP3    H241030   0.045   3.257   5.776
13697TIP3   OH241031   0.580   5.172   2.767
13697TIP3    H141032   0.499   5.218   2.786
13697TIP3    H241033   0.552   5.084   2.741
13698TIP3   OH241034   5.703   1.463   6.234
13698TIP3    H141035   5.763   1.506   6.294
13698TIP3    H241036   5.696   1.373   6.267
13699TIP3   OH241037   4.359   2.914   3.305
13699TIP3    H141038   4.417   2.896   3.379
13699TIP3    H241039   4.370   3.007   3.288
13700TIP3   OH241040   2.445   5.454   6.558
13700TIP3    H141041   2.415   5.373   6.601
13700TIP3    H241042   2.514   5.426   6.498
13701TIP3   OH241043   7.204   5.753   3.155
13701TIP3    H141044   7.192   5.816   3.226
13701TIP3    H241045   7.292   5.769   3.123
13702TIP3   OH241046   2.986   5.253   0.098
13702TIP3    H141047   2.918   5.320   0.095
13702TIP3    H241048   2.940   5.173   0.121
13703TIP3   OH241049   6.682   7.763   0.865
13703TIP3    H141050   6.670   7.853   0.896
13703TIP3    H241051   6.771   7.762   0.829
13704TIP3   OH241052   0.240   0.106   4.725
13704TIP3    H141053   0.288   0.137   4.648
13704TIP3    H241054   0.167   0.056   4.689
13705TIP3   OH241055   3.762   2.776   0.093
13705TIP3    H141056   3.832   2.797   0.155
13705TIP3    H241057   3.713   2.857   0.084
13706TIP3   OH241058   8.428   6.742   2.991
13706TIP3    H141059   8.336   6.731   3.017
13706TIP3    H241060   8.424   6.801   2.915
13707TIP3   OH241061   2.632   1.375   4.220
13707TIP3    H141062   2.712   1.361   4.171
13707TIP3    H241063   2.573   1.305   4.192
13708TIP3   OH241064   7.313   1.121   2.689
13708TIP3    H141065   7.218   1.118   2.698
13708TIP3    H241066   7.343   1.037   2.723
13709TIP3   OH241067   4.039   7.146   1.556
13709TIP3    H141068   4.090   7.107   1.485
13709TIP3    H241069   3.951   7.110   1.546
13710TIP3   OH241070   4.294   4.974   3.508
13710TIP3    H141071   4.381   4.998   3.477
13710TIP3    H241072   4.306   4.888   3.548
13711TIP3   OH241073   0.322   3.631   6.246
13711TIP3    H141074   0.299   3.723   6.247
13711TIP3    H241075   0.406   3.628   6.199
13712TIP3   OH241076   1.155   3.312   0.087
13712TIP3    H141077   1.185   3.378   0.150
13712TIP3    H241078   1.097   3.255   0.138
13713TIP3   OH241079   5.438   5.278   4.773
13713TIP3    H141080   5.376   5.349   4.762
13713TIP3    H241081   5.399   5.222   4.840
13714TIP3   OH241082   0.923   4.641   6.179
13714TIP3    H141083   0.995   4.695   6.212
13714TIP3    H241084   0.903   4.677   6.093
13715TIP3   OH241085   1.292   7.737   1.004
13715TIP3    H141086   1.214   7.695   1.040
13715TIP3    H241087   1.365   7.698   1.051
13716TIP3   OH241088   3.992   3.637   0.840
13716TIP3    H141089   4.060   3.571   0.850
13716TIP3    H241090   4.039   3.717   0.817
13717TIP3   OH241091   5.655   2.139   6.808
13717TIP3    H141092   5.657   2.200   6.734
13717TIP3    H241093   5.630   2.193   6.883
13718TIP3   OH241094   5.612   5.575   4.467
13718TIP3    H141095   5.518   5.592   4.478
13718TIP3    H241096   5.648   5.577   4.555
13719TIP3   OH241097   4.066   4.364   6.827
13719TIP3    H141098   3.982   4.322   6.846
13719TIP3    H241099   4.106   4.308   6.761
13720TIP3   OH241100   8.190   4.739   1.655
13720TIP3    H141101   8.123   4.806   1.666
13720TIP3    H241102   8.242   4.743   1.735
13721TIP3   OH241103   0.179   2.096   4.831
13721TIP3    H141104   0.131   2.142   4.761
13721TIP3    H241105   0.234   2.033   4.785
13722TIP3   OH241106   6.543   7.099   1.163
13722TIP3    H141107   6.613   7.132   1.219
13722TIP3    H241108   6.576   7.015   1.131
13723TIP3   OH241109   3.567   6.324  -0.021
13723TIP3    H141110   3.608   6.316   0.066
13723TIP3    H241111   3.532   6.236  -0.038
13724TIP3   OH241112   4.016   7.055   0.842
13724TIP3    H141113   4.050   7.102   0.918
13724TIP3    H241114   4.054   6.967   0.850
13725TIP3   OH241115   7.456   7.860   4.148
13725TIP3    H141116   7.456   7.792   4.080
13725TIP3    H241117   7.525   7.834   4.209
13726TIP3   OH241118   4.160   0.182   2.185
13726TIP3    H141119   4.253   0.198   2.202
13726TIP3    H241120   4.127   0.145   2.267
13727TIP3   OH241121   4.683   1.916   0.979
13727TIP3    H141122   4.750   1.864   1.024
13727TIP3    H241123   4.659   1.863   0.903
13728TIP3   OH241124   0.704   5.055   2.063
13728TIP3    H141125   0.620   5.040   2.105
13728TIP3    H241126   0.761   4.987   2.097
13729TIP3   OH241127   3.707   6.737   1.564
13729TIP3    H141128   3.730   6.729   1.657
13729TIP3    H241129   3.614   6.759   1.564
13730TIP3   OH241130   8.325   0.674   0.973
13730TIP3    H141131   8.359   0.716   1.051
13730TIP3    H241132   8.325   0.580   0.993
13731TIP3   OH241133   7.163   3.099   0.369
13731TIP3    H141134   7.213   3.087   0.288
13731TIP3    H241135   7.076   3.064   0.349
13732TIP3   OH241136   5.538   4.949   4.576
13732TIP3    H141137   5.560   5.039   4.554
13732TIP3    H241138   5.491   4.956   4.659
13733TIP3   OH241139   0.628   3.937   3.113
13733TIP3    H141140   0.563   3.867   3.104
13733TIP3    H241141   0.705   3.893   3.149
13734TIP3   OH241142   0.712   6.212   5.186
13734TIP3    H141143   0.802   6.188   5.206
13734TIP3    H241144   0.661   6.176   5.259
13735TIP3   OH241145   0.987   2.205   5.638
13735TIP3    H141146   0.907   2.154   5.623
13735TIP3    H241147   0.958   2.279   5.691
13736TIP3   OH241148   6.991   3.945   4.572
13736TIP3    H141149   7.083   3.933   4.596
13736TIP3    H241150   6.986   4.036   4.542
13737TIP3   OH241151   7.134   5.554   4.349
13737TIP3    H141152   7.227   5.532   4.347
13737TIP3    H241153   7.091   5.479   4.307
13738TIP3   OH241154   1.142   0.567   2.062
13738TIP3    H141155   1.049   0.582   2.080
13738TIP3    H241156   1.187   0.641   2.103
13739TIP3   OH241157   2.213   4.810   5.647
13739TIP3    H141158   2.128   4.780   5.678
13739TIP3    H241159   2.249   4.860   5.721
13740TIP3   OH241160   2.525   4.878   4.163
13740TIP3    H141161   2.519   4.856   4.070
13740TIP3    H241162   2.454   4.827   4.203
13741TIP3   OH241163   0.406   2.189   3.373
13741TIP3    H141164   0.471   2.157   3.436
13741TIP3    H241165   0.339   2.120   3.371
13742TIP3   OH241166   5.445   0.172   0.864
13742TIP3    H141167   5.419   0.081   0.878
13742TIP3    H241168   5.421   0.216   0.946
13743TIP3   OH241169   8.226   3.241   6.669
13743TIP3    H141170   8.320   3.246   6.687
13743TIP3    H241171   8.204   3.149   6.682
13744TIP3   OH241172   1.983   7.046   0.154
13744TIP3    H141173   2.019   7.005   0.075
13744TIP3    H241174   2.049   7.109   0.181
13745TIP3   OH241175   1.971   4.452   3.102
13745TIP3    H141176   2.056   4.463   3.059
13745TIP3    H241177   1.927   4.384   3.050
13746TIP3   OH241178   3.772   4.151   1.386
13746TIP3    H141179   3.821   4.172   1.307
13746TIP3    H241180   3.805   4.213   1.452
13747TIP3   OH241181   1.119   2.986   2.676
13747TIP3    H141182   1.211   2.995   2.700
13747TIP3    H241183   1.121   2.937   2.594
13748TIP3   OH241184   2.066   3.078   6.821
13748TIP3    H141185   2.082   3.009   6.757
13748TIP3    H241186   2.150   3.121   6.832
13749TIP3   OH241187   6.362   3.995   1.541
13749TIP3    H141188   6.320   3.917   1.575
13749TIP3    H241189   6.303   4.067   1.564
13750TIP3   OH241190   1.427   4.470   1.998
13750TIP3    H141191   1.452   4.532   1.929
13750TIP3    H241192   1.421   4.386   1.954
13751TIP3   OH241193   6.380   4.293   1.948
13751TIP3    H141194   6.425   4.255   2.024
13751TIP3    H241195   6.288   4.298   1.975
13752TIP3   OH241196   8.049   3.443   0.401
13752TIP3    H141197   8.006   3.387   0.337
13752TIP3    H241198   8.142   3.420   0.394
13753TIP3   OH241199   5.282   7.108   5.095
13753TIP3    H141200   5.322   7.188   5.062
13753TIP3    H241201   5.348   7.040   5.083
13754TIP3   OH241202   6.997   2.514   3.705
13754TIP3    H141203   7.040   2.590   3.666
13754TIP3    H241204   6.905   2.522   3.680
13755TIP3   OH241205   6.510   3.217   5.823
13755TIP3    H141206   6.450   3.292   5.824
13755TIP3    H241207   6.567   3.233   5.747
13756TIP3   OH241208   1.658   1.878   2.434
13756TIP3    H141209   1.691   1.960   2.470
13756TIP3    H241210   1.648   1.895   2.341
13757TIP3   OH241211   5.433   5.687   5.253
13757TIP3    H141212   5.389   5.633   5.188
13757TIP3    H241213   5.367   5.703   5.320
13758TIP3   OH241214   7.508   7.552   5.269
13758TIP3    H141215   7.515   7.647   5.278
13758TIP3    H241216   7.417   7.537   5.244
13759TIP3   OH241217   3.256   2.026   4.730
13759TIP3    H141218   3.218   2.097   4.782
13759TIP3    H241219   3.341   2.010   4.771
13760TIP3   OH241220   3.273   6.609   4.002
13760TIP3    H141221   3.348   6.660   4.033
13760TIP3    H241222   3.222   6.591   4.081
13761TIP3   OH241223   5.459   2.318   4.167
13761TIP3    H141224   5.517   2.394   4.173
13761TIP3    H241225   5.381   2.344   4.217
13762TIP3   OH241226   4.823   1.672   6.121
13762TIP3    H141227   4.776   1.755   6.120
13762TIP3    H241228   4.821   1.642   6.030
13763TIP3   OH241229   5.665   3.191   3.173
13763TIP3    H141230   5.679   3.112   3.122
13763TIP3    H241231   5.718   3.180   3.252
13764TIP3   OH241232   3.460   4.703   5.309
13764TIP3    H141233   3.541   4.736   5.268
13764TIP3    H241234   3.405   4.780   5.319
13765TIP3   OH241235   8.150   5.594   1.372
13765TIP3    H141236   8.192   5.573   1.289
13765TIP3    H241237   8.068   5.544   1.370
13766TIP3   OH241238   1.308   5.838   6.741
13766TIP3    H141239   1.327   5.756   6.695
13766TIP3    H241240   1.328   5.820   6.832
13767TIP3   OH241241   3.856   6.859   4.219
13767TIP3    H141242   3.846   6.906   4.301
13767TIP3    H241243   3.942   6.885   4.187
13768TIP3   OH241244   7.631   3.777   6.373
13768TIP3    H141245   7.570   3.794   6.301
13768TIP3    H241246   7.717   3.798   6.337
13769TIP3   OH241247   4.679   3.382   6.234
13769TIP3    H141248   4.749   3.428   6.282
13769TIP3    H241249   4.678   3.425   6.148
13770TIP3   OH241250   1.563   2.638   5.475
13770TIP3    H141251   1.610   2.584   5.412
13770TIP3    H241252   1.535   2.715   5.425
13771TIP3   OH241253   3.133   7.702   2.500
13771TIP3    H141254   3.225   7.727   2.492
13771TIP3    H241255   3.134   7.607   2.510
13772TIP3   OH241256   5.222   3.619   0.888
13772TIP3    H141257   5.289   3.555   0.864
13772TIP3    H241258   5.260   3.665   0.963
13773TIP3   OH241259   0.489   7.825   0.408
13773TIP3    H141260   0.560   7.888   0.408
13773TIP3    H241261   0.410   7.878   0.424
13774TIP3   OH241262   3.294   1.544   3.107
13774TIP3    H141263   3.384   1.577   3.111
13774TIP3    H241264   3.257   1.588   3.030
13775TIP3   OH241265   6.285   5.228   1.182
13775TIP3    H141266   6.220   5.158   1.185
13775TIP3    H241267   6.265   5.283   1.257
13776TIP3   OH241268   0.155   5.757   5.668
13776TIP3    H141269   0.204   5.741   5.748
13776TIP3    H241270   0.077   5.701   5.675
13777TIP3   OH241271   8.221   1.860   4.851
13777TIP3    H141272   8.234   1.766   4.865
13777TIP3    H241273   8.168   1.888   4.925
13778TIP3   OH241274   5.415   6.154   6.046
13778TIP3    H141275   5.359   6.127   5.973
13778TIP3    H241276   5.503   6.163   6.007
13779TIP3   OH241277   5.508   5.684   1.872
13779TIP3    H141278   5.524   5.715   1.783
13779TIP3    H241279   5.427   5.634   1.866
13780TIP3   OH241280   7.833   0.084   1.277
13780TIP3    H141281   7.752   0.090   1.329
13780TIP3    H241282   7.804   0.051   1.192
13781TIP3   OH241283   7.540   6.012   1.957
13781TIP3    H141284   7.630   6.009   1.924
13781TIP3    H241285   7.486   6.026   1.880
13782TIP3   OH241286   3.191   2.087   2.172
13782TIP3    H141287   3.247   2.073   2.248
13782TIP3    H241288   3.205   2.179   2.148
13783TIP3   OH241289   4.210   3.469   0.790
13783TIP3    H141290   4.258   3.506   0.716
13783TIP3    H241291   4.272   3.409   0.832
13784TIP3   OH241292   5.105   4.198   1.354
13784TIP3    H141293   5.053   4.189   1.274
13784TIP3    H241294   5.164   4.271   1.336
13785TIP3   OH241295   2.801   4.073   2.895
13785TIP3    H141296   2.897   4.071   2.892
13785TIP3    H241297   2.778   4.165   2.905
13786TIP3   OH241298   3.104   6.436   4.623
13786TIP3    H141299   3.059   6.518   4.640
13786TIP3    H241300   3.194   6.451   4.653
13787TIP3   OH241301   5.919   2.021   2.494
13787TIP3    H141302   5.985   2.054   2.556
13787TIP3    H241303   5.936   1.927   2.488
13788TIP3   OH241304   2.843   5.251   4.786
13788TIP3    H141305   2.888   5.200   4.718
13788TIP3    H241306   2.767   5.197   4.809
13789TIP3   OH241307   0.817   1.107   3.192
13789TIP3    H141308   0.756   1.163   3.239
13789TIP3    H241309   0.826   1.029   3.246
13790TIP3   OH241310   6.490   2.990   5.472
13790TIP3    H141311   6.556   2.926   5.447
13790TIP3    H241312   6.431   2.942   5.530
13791TIP3   OH241313   3.416   6.294   2.393
13791TIP3    H141314   3.419   6.373   2.447
13791TIP3    H241315   3.461   6.228   2.446
13792TIP3   OH241316   2.489   0.276   4.173
13792TIP3    H141317   2.487   0.238   4.085
13792TIP3    H241318   2.532   0.210   4.227
13793TIP3   OH241319   3.595   1.458   5.559
13793TIP3    H141320   3.673   1.442   5.505
13793TIP3    H241321   3.628   1.464   5.648
13794TIP3   OH241322   6.559   5.824   2.971
13794TIP3    H141323   6.556   5.845   3.064
13794TIP3    H241324   6.545   5.907   2.927
13795TIP3   OH241325   1.182   7.658   3.568
13795TIP3    H141326   1.113   7.724   3.575
13795TIP3    H241327   1.228   7.679   3.487
13796TIP3   OH241328   0.719   6.094   4.116
13796TIP3    H141329   0.716   6.010   4.160
13796TIP3    H241330   0.742   6.157   4.185
13797TIP3   OH241331   1.308   2.007   6.532
13797TIP3    H141332   1.293   2.052   6.615
13797TIP3    H241333   1.303   1.914   6.553
13798TIP3   OH241334   4.080   4.264   2.069
13798TIP3    H141335   4.092   4.200   1.999
13798TIP3    H241336   3.990   4.295   2.059
13799TIP3   OH241337   7.779   0.524   1.761
13799TIP3    H141338   7.827   0.523   1.844
13799TIP3    H241339   7.844   0.551   1.696
13800TIP3   OH241340   6.666   6.351   5.166
13800TIP3    H141341   6.710   6.275   5.203
13800TIP3    H241342   6.678   6.420   5.232
13801TIP3   OH241343   8.404   3.713   2.704
13801TIP3    H141344   8.355   3.683   2.628
13801TIP3    H241345   8.384   3.650   2.773
13802TIP3   OH241346   3.881   4.331   4.645
13802TIP3    H141347   3.885   4.239   4.672
13802TIP3    H241348   3.829   4.330   4.565
13803TIP3   OH241349   5.290   1.297   0.353
13803TIP3    H141350   5.301   1.390   0.371
13803TIP3    H241351   5.281   1.291   0.258
13804TIP3   OH241352   3.308   3.407   2.651
13804TIP3    H141353   3.307   3.335   2.713
13804TIP3    H241354   3.377   3.465   2.682
13805TIP3   OH241355   6.603   4.175   1.665
13805TIP3    H141356   6.509   4.158   1.653
13805TIP3    H241357   6.607   4.265   1.697
13806TIP3   OH241358   4.038   3.235   3.217
13806TIP3    H141359   3.951   3.202   3.240
13806TIP3    H241360   4.098   3.187   3.274
13807TIP3   OH241361   3.416   3.577   4.908
13807TIP3    H141362   3.464   3.576   4.991
13807TIP3    H241363   3.384   3.488   4.898
13808TIP3   OH241364   1.005   5.262   2.297
13808TIP3    H141365   0.990   5.182   2.247
13808TIP3    H241366   0.937   5.322   2.267
13809TIP3   OH241367   4.468   3.817   2.169
13809TIP3    H141368   4.389   3.865   2.194
13809TIP3    H241369   4.534   3.845   2.232
13810TIP3   OH241370   8.026   5.521   1.667
13810TIP3    H141371   8.074   5.475   1.598
13810TIP3    H241372   7.941   5.541   1.628
13811TIP3   OH241373   4.070   7.320   2.144
13811TIP3    H141374   4.048   7.310   2.237
13811TIP3    H241375   4.073   7.414   2.130
13812TIP3   OH241376   0.592   1.260   1.471
13812TIP3    H141377   0.598   1.173   1.430
13812TIP3    H241378   0.583   1.320   1.397
13813TIP3   OH241379   6.538   1.890   0.968
13813TIP3    H141380   6.496   1.806   0.984
13813TIP3    H241381   6.594   1.903   1.045
13814TIP3   OH241382   5.268   4.755   3.963
13814TIP3    H141383   5.270   4.783   4.055
13814TIP3    H241384   5.205   4.683   3.961
13815TIP3   OH241385   5.109   5.146   2.479
13815TIP3    H141386   5.055   5.190   2.544
13815TIP3    H241387   5.082   5.184   2.395
13816TIP3   OH241388   7.995   6.703   5.884
13816TIP3    H141389   8.084   6.685   5.854
13816TIP3    H241390   7.967   6.621   5.925
13817TIP3   OH241391   2.895   2.277   2.359
13817TIP3    H141392   2.920   2.187   2.343
13817TIP3    H241393   2.977   2.326   2.361
13818TIP3   OH241394   7.038   1.650   5.954
13818TIP3    H141395   6.996   1.587   5.894
13818TIP3    H241396   6.997   1.633   6.039
13819TIP3   OH241397   7.914   5.881   3.743
13819TIP3    H141398   7.863   5.922   3.673
13819TIP3    H241399   8.005   5.890   3.715
13820TIP3   OH241400   2.393   4.854   4.897
13820TIP3    H141401   2.437   4.843   4.981
13820TIP3    H241402   2.310   4.896   4.918
13821TIP3   OH241403   4.969   7.355   2.781
13821TIP3    H141404   5.021   7.274   2.787
13821TIP3    H241405   4.913   7.341   2.705
13822TIP3   OH241406   8.122   4.610   1.219
13822TIP3    H141407   8.048   4.625   1.161
13822TIP3    H241408   8.199   4.610   1.162
13823TIP3   OH241409   1.622   3.700   1.142
13823TIP3    H141410   1.562   3.760   1.185
13823TIP3    H241411   1.614   3.618   1.190
13824TIP3   OH241412   6.946   1.246   3.147
13824TIP3    H141413   7.005   1.260   3.222
13824TIP3    H241414   6.921   1.334   3.119
13825TIP3   OH241415   5.617   0.656   3.101
13825TIP3    H141416   5.622   0.560   3.100
13825TIP3    H241417   5.622   0.679   3.194
13826TIP3   OH241418   8.214   6.376   2.752
13826TIP3    H141419   8.122   6.394   2.772
13826TIP3    H241420   8.232   6.293   2.794
13827TIP3   OH241421   8.406   4.195   2.530
13827TIP3    H141422   8.323   4.231   2.500
13827TIP3    H241423   8.454   4.270   2.563
13828TIP3   OH241424   8.140   3.490   2.015
13828TIP3    H141425   8.141   3.396   2.032
13828TIP3    H241426   8.071   3.524   2.072
13829TIP3   OH241427   1.678   3.708   3.879
13829TIP3    H141428   1.659   3.795   3.845
13829TIP3    H241429   1.604   3.654   3.850
13830TIP3   OH241430   0.955   2.603   5.743
13830TIP3    H141431   0.925   2.583   5.655
13830TIP3    H241432   0.979   2.696   5.740
13831TIP3   OH241433   3.185   4.245   4.670
13831TIP3    H141434   3.259   4.238   4.729
13831TIP3    H241435   3.204   4.322   4.617
13832TIP3   OH241436   6.866   2.116   5.761
13832TIP3    H141437   6.955   2.081   5.761
13832TIP3    H241438   6.863   2.175   5.686
13833TIP3   OH241439   5.852   3.372   4.827
13833TIP3    H141440   5.836   3.389   4.734
13833TIP3    H241441   5.940   3.333   4.830
13834TIP3   OH241442   3.382   0.608   4.545
13834TIP3    H141443   3.395   0.701   4.527
13834TIP3    H241444   3.457   0.582   4.599
13835TIP3   OH241445   4.335   1.895   6.190
13835TIP3    H141446   4.308   1.949   6.114
13835TIP3    H241447   4.288   1.813   6.178
13836TIP3   OH241448   7.551   0.289   0.280
13836TIP3    H141449   7.528   0.336   0.360
13836TIP3    H241450   7.478   0.228   0.266
13837TIP3   OH241451   7.892   7.918   2.405
13837TIP3    H141452   7.844   7.941   2.484
13837TIP3    H241453   7.836   7.854   2.360
13838TIP3   OH241454   7.667   0.105   5.697
13838TIP3    H141455   7.688   0.067   5.782
13838TIP3    H241456   7.718   0.186   5.693
13839TIP3   OH241457   0.611   0.792   2.576
13839TIP3    H141458   0.552   0.720   2.600
13839TIP3    H241459   0.649   0.820   2.659
13840TIP3   OH241460   6.571   4.708   6.070
13840TIP3    H141461   6.533   4.645   6.130
13840TIP3    H241462   6.665   4.700   6.082
13841TIP3   OH241463   7.008   1.155   1.479
13841TIP3    H141464   7.104   1.151   1.482
13841TIP3    H241465   6.987   1.245   1.502
13842TIP3   OH241466   0.628   2.997   5.460
13842TIP3    H141467   0.715   3.016   5.493
13842TIP3    H241468   0.642   2.941   5.384
13843TIP3   OH241469   0.613   5.067   1.652
13843TIP3    H141470   0.542   5.021   1.698
13843TIP3    H241471   0.568   5.130   1.596
13844TIP3   OH241472   6.169   0.162   2.136
13844TIP3    H141473   6.173   0.180   2.230
13844TIP3    H241474   6.221   0.082   2.126
13845TIP3   OH241475   7.159   4.851   1.245
13845TIP3    H141476   7.160   4.847   1.149
13845TIP3    H241477   7.138   4.942   1.265
13846TIP3   OH241478   1.132   5.846   0.793
13846TIP3    H141479   1.215   5.803   0.814
13846TIP3    H241480   1.145   5.880   0.704
13847TIP3   OH241481   7.733   6.466   0.125
13847TIP3    H141482   7.802   6.518   0.083
13847TIP3    H241483   7.771   6.379   0.134
13848TIP3   OH241484   4.697   7.383   3.048
13848TIP3    H141485   4.710   7.354   2.957
13848TIP3    H241486   4.769   7.342   3.096
13849TIP3   OH241487   1.835   0.660   3.016
13849TIP3    H141488   1.930   0.672   3.027
13849TIP3    H241489   1.796   0.713   3.085
13850TIP3   OH241490   0.608   1.676   3.869
13850TIP3    H141491   0.631   1.644   3.957
13850TIP3    H241492   0.533   1.733   3.883
13851TIP3   OH241493   5.568   2.503   4.638
13851TIP3    H141494   5.528   2.540   4.717
13851TIP3    H241495   5.635   2.565   4.613
13852TIP3   OH241496   1.190   1.416   5.810
13852TIP3    H141497   1.164   1.327   5.788
13852TIP3    H241498   1.245   1.407   5.888
13853TIP3   OH241499   2.466   1.149   5.639
13853TIP3    H141500   2.424   1.218   5.690
13853TIP3    H241501   2.560   1.163   5.650
13854TIP3   OH241502   4.290   6.487   4.910
13854TIP3    H141503   4.262   6.569   4.870
13854TIP3    H241504   4.228   6.473   4.982
13855TIP3   OH241505   5.242   3.466   2.416
13855TIP3    H141506   5.243   3.405   2.490
13855TIP3    H241507   5.158   3.511   2.423
13856TIP3   OH241508   4.503   6.666   0.872
13856TIP3    H141509   4.495   6.672   0.967
13856TIP3    H241510   4.420   6.700   0.838
13857TIP3   OH241511   2.155   5.906   6.580
13857TIP3    H141512   2.247   5.878   6.587
13857TIP3    H241513   2.160   5.997   6.551
13858TIP3   OH241514   4.068   3.411   0.227
13858TIP3    H141515   3.991   3.465   0.243
13858TIP3    H241516   4.121   3.463   0.166
13859TIP3   OH241517   0.105   0.885   5.978
13859TIP3    H141518   0.041   0.830   6.025
13859TIP3    H241519   0.067   0.973   5.979
13860TIP3   OH241520   0.803   4.760   2.723
13860TIP3    H141521   0.869   4.806   2.671
13860TIP3    H241522   0.850   4.685   2.760
13861TIP3   OH241523   5.831   6.523   2.999
13861TIP3    H141524   5.870   6.580   3.065
13861TIP3    H241525   5.814   6.441   3.045
13862TIP3   OH241526   6.780   7.663   2.621
13862TIP3    H141527   6.841   7.678   2.548
13862TIP3    H241528   6.735   7.747   2.633
13863TIP3   OH241529   8.099   1.471   4.478
13863TIP3    H141530   8.149   1.486   4.398
13863TIP3    H241531   8.093   1.376   4.485
13864TIP3   OH241532   6.943   5.401   1.334
13864TIP3    H141533   6.943   5.364   1.422
13864TIP3    H241534   6.943   5.496   1.348
13865TIP3   OH241535   1.515   2.421   5.968
13865TIP3    H141536   1.545   2.427   5.877
13865TIP3    H241537   1.466   2.339   5.971
13866TIP3   OH241538   0.752   4.043   3.984
13866TIP3    H141539   0.685   3.997   3.933
13866TIP3    H241540   0.767   4.124   3.935
13867TIP3   OH241541   2.786   3.080   0.981
13867TIP3    H141542   2.816   3.032   1.058
13867TIP3    H241543   2.723   3.143   1.015
13868TIP3   OH241544   5.764   5.522   4.250
13868TIP3    H141545   5.758   5.427   4.242
13868TIP3    H241546   5.707   5.545   4.323
13869TIP3   OH241547   1.826   5.655   3.476
13869TIP3    H141548   1.733   5.634   3.488
13869TIP3    H241549   1.833   5.678   3.383
13870TIP3   OH241550   3.779   0.050   2.317
13870TIP3    H141551   3.699   0.079   2.361
13870TIP3    H241552   3.767   0.075   2.226
13871TIP3   OH241553   6.073   4.683   1.992
13871TIP3    H141554   5.991   4.669   2.039
13871TIP3    H241555   6.064   4.631   1.912
13872TIP3   OH241556   2.942   7.892   6.571
13872TIP3    H141557   2.850   7.868   6.560
13872TIP3    H241558   2.966   7.933   6.488
13873TIP3   OH241559   5.817   5.240   2.430
13873TIP3    H141560   5.867   5.311   2.472
13873TIP3    H241561   5.800   5.178   2.501
13874TIP3   OH241562   5.813   4.977   3.228
13874TIP3    H141563   5.835   5.029   3.150
13874TIP3    H241564   5.874   5.007   3.295
13875TIP3   OH241565   6.895   3.291   1.050
13875TIP3    H141566   6.920   3.213   1.099
13875TIP3    H241567   6.893   3.362   1.115
13876TIP3   OH241568   1.457   6.650   1.089
13876TIP3    H141569   1.409   6.573   1.120
13876TIP3    H241570   1.537   6.651   1.140
13877TIP3   OH241571   6.312   2.856   5.645
13877TIP3    H141572   6.283   2.769   5.673
13877TIP3    H241573   6.317   2.907   5.726
13878TIP3   OH241574   2.361   4.764   3.214
13878TIP3    H141575   2.276   4.806   3.226
13878TIP3    H241576   2.424   4.833   3.235
13879TIP3   OH241577   4.644   1.880   6.094
13879TIP3    H141578   4.568   1.888   6.036
13879TIP3    H241579   4.695   1.960   6.077
13880TIP3   OH241580   0.211   0.318   3.185
13880TIP3    H141581   0.135   0.318   3.126
13880TIP3    H241582   0.173   0.318   3.273
13881TIP3   OH241583   3.413   4.035   0.207
13881TIP3    H141584   3.473   4.046   0.134
13881TIP3    H241585   3.368   3.952   0.188
13882TIP3   OH241586   2.128   6.138   1.495
13882TIP3    H141587   2.210   6.110   1.536
13882TIP3    H241588   2.064   6.136   1.567
13883TIP3   OH241589   2.084   4.197   1.539
13883TIP3    H141590   2.013   4.211   1.476
13883TIP3    H241591   2.088   4.279   1.588
13884TIP3   OH241592   5.372   7.023   1.421
13884TIP3    H141593   5.406   6.943   1.461
13884TIP3    H241594   5.386   7.011   1.327
13885TIP3   OH241595   1.240   2.228   3.347
13885TIP3    H141596   1.296   2.294   3.388
13885TIP3    H241597   1.249   2.151   3.404
13886TIP3   OH241598   1.082   4.209   2.966
13886TIP3    H141599   0.991   4.181   2.979
13886TIP3    H241600   1.093   4.211   2.871
13887TIP3   OH241601   2.209   3.729   2.867
13887TIP3    H141602   2.284   3.711   2.923
13887TIP3    H241603   2.228   3.814   2.827
13888TIP3   OH241604   5.120   6.809   5.643
13888TIP3    H141605   5.072   6.730   5.667
13888TIP3    H241606   5.211   6.790   5.666
13889TIP3   OH241607   5.486   4.343   1.403
13889TIP3    H141608   5.480   4.427   1.449
13889TIP3    H241609   5.493   4.278   1.472
13890TIP3   OH241610   7.913   7.282   3.949
13890TIP3    H141611   7.984   7.224   3.977
13890TIP3    H241612   7.850   7.278   4.022
13891TIP3   OH241613   6.553   4.535   4.585
13891TIP3    H141614   6.508   4.531   4.669
13891TIP3    H241615   6.486   4.512   4.521
13892TIP3   OH241616   5.392   6.662   0.843
13892TIP3    H141617   5.420   6.571   0.850
13892TIP3    H241618   5.306   6.664   0.886
13893TIP3   OH241619   4.815   3.226   2.758
13893TIP3    H141620   4.878   3.210   2.828
13893TIP3    H241621   4.778   3.140   2.738
13894TIP3   OH241622   6.773   0.275   5.819
13894TIP3    H141623   6.864   0.290   5.844
13894TIP3    H241624   6.724   0.284   5.900
13895TIP3   OH241625   8.148   6.486   1.132
13895TIP3    H141626   8.127   6.535   1.211
13895TIP3    H241627   8.113   6.399   1.147
13896TIP3   OH241628   5.166   2.570   6.241
13896TIP3    H141629   5.163   2.664   6.224
13896TIP3    H241630   5.163   2.530   6.154
13897TIP3   OH241631   3.208   1.749   5.654
13897TIP3    H141632   3.289   1.722   5.611
13897TIP3    H241633   3.233   1.822   5.709
13898TIP3   OH241634   0.833   2.981   2.070
13898TIP3    H141635   0.781   3.031   2.132
13898TIP3    H241636   0.906   3.039   2.047
13899TIP3   OH241637   2.906   1.780   2.046
13899TIP3    H141638   2.933   1.715   2.111
13899TIP3    H241639   2.812   1.767   2.036
13900TIP3   OH241640   8.229   0.117   0.756
13900TIP3    H141641   8.291   0.065   0.806
13900TIP3    H241642   8.203   0.061   0.683
13901TIP3   OH241643   6.988   0.332   0.326
13901TIP3    H141644   6.920   0.303   0.386
13901TIP3    H241645   6.979   0.427   0.324
13902TIP3   OH241646   1.335   2.727   1.694
13902TIP3    H141647   1.311   2.636   1.713
13902TIP3    H241648   1.413   2.719   1.639
13903TIP3   OH241649   0.431   4.662   1.908
13903TIP3    H141650   0.468   4.623   1.829
13903TIP3    H241651   0.498   4.649   1.976
13904TIP3   OH241652   2.728   5.186   6.532
13904TIP3    H141653   2.765   5.108   6.489
13904TIP3    H241654   2.679   5.231   6.463
13905TIP3   OH241655   2.864   7.503   1.577
13905TIP3    H141656   2.778   7.518   1.615
13905TIP3    H241657   2.921   7.484   1.652
13906TIP3   OH241658   0.868   0.308   2.779
13906TIP3    H141659   0.938   0.374   2.780
13906TIP3    H241660   0.872   0.267   2.866
13907TIP3   OH241661   7.483   5.339   3.663
13907TIP3    H141662   7.495   5.394   3.586
13907TIP3    H241663   7.479   5.400   3.736
13908TIP3   OH241664   2.179   7.360   5.695
13908TIP3    H141665   2.151   7.438   5.742
13908TIP3    H241666   2.249   7.390   5.637
13909TIP3   OH241667   4.732   1.691   2.554
13909TIP3    H141668   4.666   1.632   2.517
13909TIP3    H241669   4.686   1.774   2.563
13910TIP3   OH241670   2.208   1.199   6.220
13910TIP3    H141671   2.290   1.239   6.248
13910TIP3    H241672   2.185   1.139   6.291
13911TIP3   OH241673   3.580   6.574   1.147
13911TIP3    H141674   3.497   6.527   1.152
13911TIP3    H241675   3.556   6.663   1.120
13912TIP3   OH241676   7.974   5.618   5.780
13912TIP3    H141677   7.967   5.528   5.747
13912TIP3    H241678   7.991   5.609   5.874
13913TIP3   OH241679   6.158   4.884   1.550
13913TIP3    H141680   6.169   4.910   1.641
13913TIP3    H241681   6.234   4.922   1.505
13914TIP3   OH241682   5.169   4.139   5.162
13914TIP3    H141683   5.136   4.211   5.109
13914TIP3    H241684   5.148   4.060   5.111
13915TIP3   OH241685   2.207   1.884   3.224
13915TIP3    H141686   2.156   1.823   3.277
13915TIP3    H241687   2.171   1.875   3.136
13916TIP3   OH241688   1.882   7.380   3.967
13916TIP3    H141689   1.898   7.470   3.996
13916TIP3    H241690   1.945   7.366   3.896
13917TIP3   OH241691   2.488   3.007   5.246
13917TIP3    H141692   2.576   2.998   5.282
13917TIP3    H241693   2.456   2.917   5.238
13918TIP3   OH241694   6.137   7.652   3.649
13918TIP3    H141695   6.188   7.634   3.570
13918TIP3    H241696   6.093   7.569   3.668
13919TIP3   OH241697   1.834   2.115   0.644
13919TIP3    H141698   1.820   2.054   0.717
13919TIP3    H241699   1.756   2.107   0.590
13920TIP3   OH241700   4.045   7.050   0.315
13920TIP3    H141701   4.065   7.114   0.247
13920TIP3    H241702   4.026   7.104   0.392
13921TIP3   OH241703   6.265   7.405   5.416
13921TIP3    H141704   6.180   7.447   5.429
13921TIP3    H241705   6.245   7.311   5.412
13922TIP3   OH241706   1.724   1.978   2.975
13922TIP3    H141707   1.790   1.952   2.912
13922TIP3    H241708   1.722   2.074   2.970
13923TIP3   OH241709   1.878   4.424   5.299
13923TIP3    H141710   1.911   4.365   5.231
13923TIP3    H241711   1.930   4.504   5.288
13924TIP3   OH241712   3.525   2.470   6.015
13924TIP3    H141713   3.439   2.512   6.011
13924TIP3    H241714   3.582   2.527   5.964
13925TIP3   OH241715   7.185   4.960   0.289
13925TIP3    H141716   7.094   4.979   0.308
13925TIP3    H241717   7.229   4.964   0.374
13926TIP3   OH241718   4.249   3.203   5.423
13926TIP3    H141719   4.205   3.288   5.432
13926TIP3    H241720   4.214   3.150   5.495
13927TIP3   OH241721   4.331   7.773   3.074
13927TIP3    H141722   4.384   7.828   3.132
13927TIP3    H241723   4.279   7.835   3.023
13928TIP3   OH241724   6.286   0.622   2.982
13928TIP3    H141725   6.327   0.596   3.065
13928TIP3    H241726   6.338   0.696   2.952
13929TIP3   OH241727   2.182   0.515   2.817
13929TIP3    H141728   2.209   0.592   2.866
13929TIP3    H241729   2.249   0.505   2.749
13930TIP3   OH241730   6.785   5.531   1.775
13930TIP3    H141731   6.863   5.522   1.720
13930TIP3    H241732   6.761   5.442   1.797
13931TIP3   OH241733   6.410   0.007   3.029
13931TIP3    H141734   6.462  -0.060   2.985
13931TIP3    H241735   6.474   0.057   3.079
13932TIP3   OH241736   6.812   0.166   4.796
13932TIP3    H141737   6.830   0.079   4.760
13932TIP3    H241738   6.848   0.163   4.884
13933TIP3   OH241739   5.367   4.622   2.965
13933TIP3    H141740   5.300   4.621   3.033
13933TIP3    H241741   5.319   4.642   2.884
13934TIP3   OH241742   1.848   6.952   4.807
13934TIP3    H141743   1.783   7.010   4.768
13934TIP3    H241744   1.848   6.874   4.751
13935TIP3   OH241745   3.842   7.058   3.449
13935TIP3    H141746   3.811   6.983   3.400
13935TIP3    H241747   3.785   7.061   3.527
13936TIP3   OH241748   7.733   0.354   6.796
13936TIP3    H141749   7.743   0.329   6.705
13936TIP3    H241750   7.683   0.436   6.794
13937TIP3   OH241751   7.347   4.542   3.813
13937TIP3    H141752   7.376   4.620   3.861
13937TIP3    H241753   7.376   4.468   3.867
13938TIP3   OH241754   1.485   2.039   0.923
13938TIP3    H141755   1.480   2.054   1.017
13938TIP3    H241756   1.402   2.072   0.889
13939TIP3   OH241757   7.998   2.538   0.809
13939TIP3    H141758   7.992   2.634   0.812
13939TIP3    H241759   7.965   2.510   0.895
13940TIP3   OH241760   8.362   0.757   5.033
13940TIP3    H141761   8.338   0.683   5.088
13940TIP3    H241762   8.308   0.747   4.954
13941TIP3   OH241763   5.660   5.156   0.638
13941TIP3    H141764   5.717   5.083   0.664
13941TIP3    H241765   5.685   5.228   0.697
13942TIP3   OH241766   6.265   6.991   2.900
13942TIP3    H141767   6.295   7.061   2.842
13942TIP3    H241768   6.345   6.954   2.937
13943TIP3   OH241769   0.391   1.051   2.192
13943TIP3    H141770   0.418   1.142   2.204
13943TIP3    H241771   0.355   1.049   2.103
13944TIP3   OH241772   1.343   3.775   0.461
13944TIP3    H141773   1.410   3.713   0.431
13944TIP3    H241774   1.382   3.861   0.448
13945TIP3   OH241775   6.142   4.985   1.182
13945TIP3    H141776   6.155   4.907   1.128
13945TIP3    H241777   6.052   4.978   1.214
13946TIP3   OH241778   6.007   0.889   5.076
13946TIP3    H141779   6.015   0.795   5.096
13946TIP3    H241780   6.057   0.900   4.996
13947TIP3   OH241781   2.150   2.683   6.435
13947TIP3    H141782   2.103   2.601   6.450
13947TIP3    H241783   2.185   2.674   6.346
13948TIP3   OH241784   4.458   2.933   0.075
13948TIP3    H141785   4.465   2.863   0.141
13948TIP3    H241786   4.420   3.007   0.123
13949TIP3   OH241787   1.255   4.618   3.447
13949TIP3    H141788   1.178   4.584   3.400
13949TIP3    H241789   1.317   4.546   3.448
13950TIP3   OH241790   6.469   5.452   5.311
13950TIP3    H141791   6.492   5.450   5.218
13950TIP3    H241792   6.473   5.545   5.335
13951TIP3   OH241793   5.674   2.151   1.497
13951TIP3    H141794   5.676   2.181   1.406
13951TIP3    H241795   5.755   2.101   1.508
13952TIP3   OH241796   3.423   1.195   2.633
13952TIP3    H141797   3.370   1.153   2.564
13952TIP3    H241798   3.363   1.257   2.675
13953TIP3   OH241799   7.823   1.535   5.390
13953TIP3    H141800   7.897   1.565   5.443
13953TIP3    H241801   7.782   1.466   5.441
13954TIP3   OH241802   4.144   0.407   0.915
13954TIP3    H141803   4.056   0.391   0.882
13954TIP3    H241804   4.193   0.437   0.838
13955TIP3   OH241805   5.953   2.960   2.953
13955TIP3    H141806   5.860   2.949   2.971
13955TIP3    H241807   5.971   2.898   2.882
13956TIP3   OH241808   2.791   5.684   0.652
13956TIP3    H141809   2.787   5.643   0.739
13956TIP3    H241810   2.849   5.759   0.664
13957TIP3   OH241811   7.929   2.222   2.912
13957TIP3    H141812   7.889   2.308   2.898
13957TIP3    H241813   7.915   2.204   3.005
13958TIP3   OH241814   7.110   6.680   0.731
13958TIP3    H141815   7.187   6.696   0.676
13958TIP3    H241816   7.088   6.588   0.715
13959TIP3   OH241817   7.348   3.002   4.329
13959TIP3    H141818   7.351   2.916   4.370
13959TIP3    H241819   7.431   3.043   4.352
13960TIP3   OH241820   0.968   3.140   5.049
13960TIP3    H141821   0.981   3.076   4.980
13960TIP3    H241822   1.051   3.188   5.054
13961TIP3   OH241823   7.535   3.510   3.670
13961TIP3    H141824   7.504   3.512   3.579
13961TIP3    H241825   7.458   3.533   3.721
13962TIP3   OH241826   1.318   5.162   1.808
13962TIP3    H141827   1.367   5.183   1.887
13962TIP3    H241828   1.273   5.244   1.785
13963TIP3   OH241829   4.175   0.288   3.703
13963TIP3    H141830   4.120   0.215   3.731
13963TIP3    H241831   4.144   0.363   3.755
13964TIP3   OH241832   1.120   6.962   4.676
13964TIP3    H141833   1.050   6.964   4.611
13964TIP3    H241834   1.090   6.900   4.742
13965TIP3   OH241835   0.460   2.735   0.554
13965TIP3    H141836   0.555   2.732   0.562
13965TIP3    H241837   0.444   2.719   0.461
13966TIP3   OH241838   3.190   1.623   2.417
13966TIP3    H141839   3.252   1.649   2.485
13966TIP3    H241840   3.192   1.695   2.354
13967TIP3   OH241841   1.634   6.487   5.560
13967TIP3    H141842   1.708   6.538   5.526
13967TIP3    H241843   1.673   6.427   5.624
13968TIP3   OH241844   1.895   2.739   0.187
13968TIP3    H141845   1.923   2.746   0.278
13968TIP3    H241846   1.821   2.678   0.190
13969TIP3   OH241847   0.481   5.581   2.133
13969TIP3    H141848   0.490   5.498   2.181
13969TIP3    H241849   0.458   5.645   2.200
13970TIP3   OH241850   7.702   1.013   3.167
13970TIP3    H141851   7.704   1.106   3.186
13970TIP3    H241852   7.609   0.991   3.162
13971TIP3   OH241853   7.879   1.636   1.237
13971TIP3    H141854   7.784   1.643   1.239
13971TIP3    H241855   7.897   1.545   1.259
13972TIP3   OH241856   0.644   3.142   5.078
13972TIP3    H141857   0.614   3.142   5.169
13972TIP3    H241858   0.579   3.195   5.032
13973TIP3   OH241859   0.747   6.114   3.450
13973TIP3    H141860   0.791   6.086   3.531
13973TIP3    H241861   0.818   6.130   3.388
13974TIP3   OH241862   4.912   5.528   1.259
13974TIP3    H141863   4.851   5.484   1.318
13974TIP3    H241864   4.890   5.621   1.268
13975TIP3   OH241865   2.562   2.465   2.492
13975TIP3    H141866   2.581   2.376   2.524
13975TIP3    H241867   2.648   2.508   2.491
13976TIP3   OH241868   4.181   7.897   4.225
13976TIP3    H141869   4.111   7.833   4.213
13976TIP3    H241870   4.257   7.857   4.183
13977TIP3   OH241871   3.507   2.060   4.824
13977TIP3    H141872   3.560   2.139   4.834
13977TIP3    H241873   3.470   2.045   4.911
13978TIP3   OH241874   6.702   3.728   5.964
13978TIP3    H141875   6.791   3.759   5.980
13978TIP3    H241876   6.704   3.635   5.989
13979TIP3   OH241877   5.111   1.308   5.353
13979TIP3    H141878   5.043   1.248   5.324
13979TIP3    H241879   5.067   1.392   5.365
13980TIP3   OH241880   2.723   5.163   3.484
13980TIP3    H141881   2.661   5.106   3.437
13980TIP3    H241882   2.802   5.160   3.430
13981TIP3   OH241883   6.256   1.411   3.431
13981TIP3    H141884   6.269   1.400   3.525
13981TIP3    H241885   6.324   1.358   3.391
13982TIP3   OH241886   6.087   7.475   2.801
13982TIP3    H141887   6.043   7.560   2.801
13982TIP3    H241888   6.073   7.440   2.713
13983TIP3   OH241889   1.680   1.668   0.481
13983TIP3    H141890   1.599   1.714   0.506
13983TIP3    H241891   1.682   1.675   0.385
13984TIP3   OH241892   2.803   3.722   2.984
13984TIP3    H141893   2.804   3.711   2.889
13984TIP3    H241894   2.804   3.633   3.019
13985TIP3   OH241895   3.626   2.861   2.295
13985TIP3    H141896   3.646   2.938   2.348
13985TIP3    H241897   3.570   2.894   2.225
13986TIP3   OH241898   2.778   5.300   2.392
13986TIP3    H141899   2.858   5.350   2.410
13986TIP3    H241900   2.707   5.362   2.406
13987TIP3   OH241901   7.519   6.938   4.232
13987TIP3    H141902   7.512   6.902   4.320
13987TIP3    H241903   7.435   6.919   4.191
13988TIP3   OH241904   4.712   0.200   6.269
13988TIP3    H141905   4.629   0.155   6.282
13988TIP3    H241906   4.723   0.203   6.174
13989TIP3   OH241907   1.415   2.425   0.255
13989TIP3    H141908   1.440   2.411   0.164
13989TIP3    H241909   1.350   2.356   0.273
13990TIP3   OH241910   7.054   0.783   3.086
13990TIP3    H141911   7.124   0.718   3.092
13990TIP3    H241912   7.099   0.867   3.097
13991TIP3   OH241913   5.357   5.967   4.738
13991TIP3    H141914   5.325   6.050   4.775
13991TIP3    H241915   5.446   5.959   4.773
13992TIP3   OH241916   0.533   0.861   0.744
13992TIP3    H141917   0.465   0.908   0.793
13992TIP3    H241918   0.613   0.873   0.796
13993TIP3   OH241919   1.868   3.277   6.544
13993TIP3    H141920   1.839   3.247   6.630
13993TIP3    H241921   1.897   3.198   6.499
13994TIP3   OH241922   0.631   1.310   3.366
13994TIP3    H141923   0.693   1.268   3.425
13994TIP3    H241924   0.665   1.399   3.354
13995TIP3   OH241925   4.786   5.371   2.463
13995TIP3    H141926   4.865   5.369   2.408
13995TIP3    H241927   4.804   5.307   2.532
13996TIP3   OH241928   0.335   0.379   5.206
13996TIP3    H141929   0.357   0.291   5.238
13996TIP3    H241930   0.387   0.390   5.127
13997TIP3   OH241931   2.200   0.016   4.617
13997TIP3    H141932   2.143  -0.049   4.576
13997TIP3    H241933   2.143   0.062   4.678
13998TIP3   OH241934   5.581   4.748   1.160
13998TIP3    H141935   5.612   4.758   1.070
13998TIP3    H241936   5.662   4.738   1.212
13999TIP3   OH241937   4.032   1.917   3.821
13999TIP3    H141938   4.077   1.835   3.842
13999TIP3    H241939   3.962   1.923   3.886
14000TIP3   OH241940   7.514   4.724   1.362
14000TIP3    H141941   7.515   4.804   1.415
14000TIP3    H241942   7.423   4.714   1.335
14001TIP3   OH241943   3.296   6.733   0.084
14001TIP3    H141944   3.265   6.798   0.147
14001TIP3    H241945   3.311   6.782   0.004
14002TIP3   OH241946   0.068   5.348   2.934
14002TIP3    H141947   0.066   5.323   2.841
14002TIP3    H241948   0.142   5.299   2.970
14003TIP3   OH241949   0.427   3.846   0.959
14003TIP3    H141950   0.414   3.927   1.008
14003TIP3    H241951   0.519   3.848   0.933
14004TIP3   OH241952   4.596   0.058   3.671
14004TIP3    H141953   4.624  -0.018   3.620
14004TIP3    H241954   4.565   0.121   3.606
14005TIP3   OH241955   7.467   1.902   5.826
14005TIP3    H141956   7.430   1.819   5.859
14005TIP3    H241957   7.561   1.888   5.827
14006TIP3   OH241958   0.807   6.604   6.502
14006TIP3    H141959   0.862   6.606   6.581
14006TIP3    H241960   0.765   6.690   6.500
14007TIP3   OH241961   0.100   7.354   2.194
14007TIP3    H141962   0.104   7.443   2.157
14007TIP3    H241963   0.171   7.307   2.149
14008TIP3   OH241964   3.053   0.709   3.258
14008TIP3    H141965   3.054   0.794   3.214
14008TIP3    H241966   3.034   0.730   3.349
14009TIP3   OH241967   0.732   5.862   4.246
14009TIP3    H141968   0.649   5.847   4.292
14009TIP3    H241969   0.791   5.796   4.282
14010TIP3   OH241970   3.476   4.958   4.715
14010TIP3    H141971   3.569   4.980   4.726
14010TIP3    H241972   3.471   4.865   4.738
14011TIP3   OH241973   0.664   1.901   5.220
14011TIP3    H141974   0.739   1.841   5.226
14011TIP3    H241975   0.588   1.845   5.234
14012TIP3   OH241976   7.530   7.749   3.832
14012TIP3    H141977   7.573   7.667   3.859
14012TIP3    H241978   7.600   7.814   3.836
14013TIP3   OH241979   1.311   6.472   4.760
14013TIP3    H141980   1.217   6.466   4.740
14013TIP3    H241981   1.353   6.474   4.674
14014TIP3   OH241982   1.240   2.036   3.542
14014TIP3    H141983   1.330   2.017   3.571
14014TIP3    H241984   1.184   1.997   3.609
14015TIP3   OH241985   4.841   1.505   5.843
14015TIP3    H141986   4.885   1.424   5.819
14015TIP3    H241987   4.748   1.489   5.823
14016TIP3   OH241988   3.204   1.629   6.496
14016TIP3    H141989   3.125   1.667   6.534
14016TIP3    H241990   3.266   1.627   6.569
14017TIP3   OH241991   0.253   7.801   2.754
14017TIP3    H141992   0.333   7.853   2.768
14017TIP3    H241993   0.217   7.789   2.842
14018TIP3   OH241994   7.280   1.848   0.371
14018TIP3    H141995   7.209   1.784   0.361
14018TIP3    H241996   7.349   1.800   0.417
14019TIP3   OH241997   7.760   0.192   6.533
14019TIP3    H141998   7.683   0.154   6.491
14019TIP3    H241999   7.826   0.124   6.528
14020TIP3   OH242000   4.688   7.512   2.788
14020TIP3    H142001   4.594   7.516   2.805
14020TIP3    H242002   4.702   7.574   2.717
14021TIP3   OH242003   2.587   7.136   1.052
14021TIP3    H142004   2.522   7.103   0.990
14021TIP3    H242005   2.629   7.209   1.007
14022TIP3   OH242006   7.041   5.806   5.995
14022TIP3    H142007   7.079   5.824   6.081
14022TIP3    H242008   7.000   5.720   6.004
14023TIP3   OH242009   6.163   1.533   5.166
14023TIP3    H142010   6.197   1.446   5.144
14023TIP3    H242011   6.191   1.588   5.092
14024TIP3   OH242012   3.477   0.722   0.197
14024TIP3    H142013   3.537   0.765   0.258
14024TIP3    H242014   3.471   0.631   0.229
14025TIP3   OH242015   1.390   6.284   0.772
14025TIP3    H142016   1.356   6.373   0.773
14025TIP3    H242017   1.348   6.242   0.697
14026TIP3   OH242018   0.131   1.804   5.780
14026TIP3    H142019   0.157   1.764   5.697
14026TIP3    H242020   0.037   1.784   5.787
14027TIP3   OH242021   7.395   6.224   1.435
14027TIP3    H142022   7.426   6.176   1.512
14027TIP3    H242023   7.352   6.157   1.381
14028TIP3   OH242024   0.554   4.397   1.293
14028TIP3    H142025   0.492   4.391   1.220
14028TIP3    H242026   0.510   4.353   1.365
14029TIP3   OH242027   2.117   2.508   5.952
14029TIP3    H142028   2.055   2.467   5.891
14029TIP3    H242029   2.202   2.471   5.928
14030TIP3   OH242030   7.380   6.896   2.281
14030TIP3    H142031   7.304   6.903   2.338
14030TIP3    H242032   7.446   6.852   2.334
14031TIP3   OH242033   6.767   6.676   2.643
14031TIP3    H142034   6.789   6.718   2.559
14031TIP3    H242035   6.798   6.586   2.634
14032TIP3   OH242036   8.383   6.210   4.808
14032TIP3    H142037   8.431   6.197   4.890
14032TIP3    H242038   8.295   6.179   4.826
14033TIP3   OH242039   2.151   0.628   5.053
14033TIP3    H142040   2.242   0.617   5.023
14033TIP3    H242041   2.146   0.719   5.082
14034TIP3   OH242042   1.262   7.695   4.728
14034TIP3    H142043   1.313   7.742   4.794
14034TIP3    H242044   1.309   7.613   4.714
14035TIP3   OH242045   5.528   6.053   3.121
14035TIP3    H142046   5.488   6.119   3.177
14035TIP3    H242047   5.591   6.102   3.068
14036TIP3   OH242048   2.139   0.167   3.962
14036TIP3    H142049   2.145   0.142   4.054
14036TIP3    H242050   2.230   0.176   3.933
14037TIP3   OH242051   5.933   5.874   5.232
14037TIP3    H142052   6.028   5.867   5.242
14037TIP3    H242053   5.899   5.790   5.262
14038TIP3   OH242054   8.344   2.587   3.908
14038TIP3    H142055   8.403   2.512   3.899
14038TIP3    H242056   8.260   2.549   3.930
14039TIP3   OH242057   4.993   3.496   0.788
14039TIP3    H142058   5.061   3.558   0.813
14039TIP3    H242059   5.025   3.412   0.820
14040TIP3   OH242060   5.208   3.286   4.306
14040TIP3    H142061   5.208   3.366   4.254
14040TIP3    H242062   5.116   3.261   4.312
14041TIP3   OH242063   4.628   4.819   3.295
14041TIP3    H142064   4.612   4.894   3.352
14041TIP3    H242065   4.648   4.747   3.355
14042TIP3   OH242066   1.497   7.547   5.851
14042TIP3    H142067   1.426   7.571   5.792
14042TIP3    H242068   1.502   7.451   5.845
14043TIP3   OH242069   8.019   3.188   3.406
14043TIP3    H142070   7.952   3.224   3.464
14043TIP3    H242071   7.974   3.176   3.322
14044TIP3   OH242072   0.003   3.618   5.809
14044TIP3    H142073   0.062   3.553   5.845
14044TIP3    H242074  -0.021   3.584   5.723
14045TIP3   OH242075   3.632   6.521   3.859
14045TIP3    H142076   3.666   6.608   3.876
14045TIP3    H242077   3.576   6.501   3.934
14046TIP3   OH242078   0.382   0.719   1.753
14046TIP3    H142079   0.309   0.658   1.747
14046TIP3    H242080   0.449   0.681   1.696
14047TIP3   OH242081   5.924   0.306   6.578
14047TIP3    H142082   5.936   0.312   6.483
14047TIP3    H242083   5.842   0.259   6.589
14048TIP3   OH242084   4.042   6.584   0.835
14048TIP3    H142085   3.999   6.526   0.897
14048TIP3    H242086   3.971   6.615   0.778
14049TIP3   OH242087   1.650   7.513   2.578
14049TIP3    H142088   1.648   7.439   2.639
14049TIP3    H242089   1.733   7.504   2.532
14050TIP3   OH242090   8.254   7.861   5.653
14050TIP3    H142091   8.274   7.912   5.732
14050TIP3    H242092   8.337   7.824   5.627
14051TIP3   OH242093   1.053   1.437   2.502
14051TIP3    H142094   0.974   1.386   2.489
14051TIP3    H242095   1.027   1.528   2.484
14052TIP3   OH242096   6.078   2.437   3.278
14052TIP3    H142097   6.128   2.398   3.348
14052TIP3    H242098   6.143   2.473   3.218
14053TIP3   OH242099   6.745   4.952   0.458
14053TIP3    H142100   6.788   4.920   0.537
14053TIP3    H242101   6.817   4.964   0.395
14054TIP3   OH242102   0.661   6.973   2.931
14054TIP3    H142103   0.666   7.025   3.010
14054TIP3    H242104   0.714   6.896   2.949
14055TIP3   OH242105   6.270   4.526   1.114
14055TIP3    H142106   6.245   4.483   1.033
14055TIP3    H242107   6.283   4.455   1.177
14056TIP3   OH242108   6.138   5.913   4.037
14056TIP3    H142109   6.176   5.887   4.121
14056TIP3    H242110   6.099   5.998   4.054
14057TIP3   OH242111   2.587   3.382   5.079
14057TIP3    H142112   2.660   3.380   5.017
14057TIP3    H242113   2.618   3.335   5.156
14058TIP3   OH242114   5.565   6.372   4.792
14058TIP3    H142115   5.565   6.298   4.732
14058TIP3    H242116   5.547   6.333   4.878
14059TIP3   OH242117   4.689   7.581   4.672
14059TIP3    H142118   4.636   7.510   4.708
14059TIP3    H242119   4.714   7.551   4.584
14060TIP3   OH242120   0.982   0.507   3.690
14060TIP3    H142121   1.018   0.486   3.776
14060TIP3    H242122   1.058   0.519   3.634
14061TIP3   OH242123   5.499   3.226   4.224
14061TIP3    H142124   5.470   3.136   4.240
14061TIP3    H242125   5.438   3.259   4.158
14062TIP3   OH242126   6.455   7.504   0.710
14062TIP3    H142127   6.447   7.420   0.756
14062TIP3    H242128   6.531   7.493   0.653
14063TIP3   OH242129   5.413   0.414   0.753
14063TIP3    H142130   5.336   0.440   0.805
14063TIP3    H242131   5.429   0.323   0.778
14064TIP3   OH242132   5.505   6.505   3.833
14064TIP3    H142133   5.518   6.538   3.744
14064TIP3    H242134   5.417   6.466   3.831
14065TIP3   OH242135   1.948   3.620   6.638
14065TIP3    H142136   1.907   3.538   6.663
14065TIP3    H242137   2.021   3.595   6.581
14066TIP3   OH242138   2.281   3.788   4.277
14066TIP3    H142139   2.240   3.743   4.351
14066TIP3    H242140   2.214   3.788   4.208
14067TIP3   OH242141   7.384   0.815   3.260
14067TIP3    H142142   7.328   0.861   3.198
14067TIP3    H242143   7.454   0.778   3.206
14068TIP3   OH242144   5.897   5.101   0.924
14068TIP3    H142145   5.974   5.075   0.873
14068TIP3    H242146   5.864   5.178   0.878
14069TIP3   OH242147   3.920   6.929   2.554
14069TIP3    H142148   3.956   7.018   2.554
14069TIP3    H242149   3.826   6.942   2.565
14070TIP3   OH242150   6.232   3.432   6.130
14070TIP3    H142151   6.291   3.362   6.157
14070TIP3    H242152   6.232   3.494   6.203
14071TIP3   OH242153   1.122   0.770   6.664
14071TIP3    H142154   1.063   0.845   6.660
14071TIP3    H242155   1.202   0.800   6.619
14072TIP3   OH242156   4.879   1.487   3.443
14072TIP3    H142157   4.940   1.496   3.370
14072TIP3    H242158   4.891   1.567   3.494
14073TIP3   OH242159   6.188   0.270   4.537
14073TIP3    H142160   6.249   0.326   4.490
14073TIP3    H242161   6.181   0.310   4.624
14074TIP3   OH242162   2.845   6.436   3.230
14074TIP3    H142163   2.800   6.473   3.306
14074TIP3    H242164   2.935   6.421   3.261
14075TIP3   OH242165   7.883   3.316   4.647
14075TIP3    H142166   7.887   3.332   4.741
14075TIP3    H242167   7.826   3.239   4.638
14076TIP3   OH242168   6.277   5.102   5.925
14076TIP3    H142169   6.193   5.119   5.970
14076TIP3    H242170   6.331   5.060   5.992
14077TIP3   OH242171   1.734   0.443   2.535
14077TIP3    H142172   1.684   0.431   2.455
14077TIP3    H242173   1.820   0.405   2.517
14078TIP3   OH242174   7.888   2.898   1.071
14078TIP3    H142175   7.808   2.852   1.096
14078TIP3    H242176   7.878   2.985   1.109
14079TIP3   OH242177   0.909   0.782   4.389
14079TIP3    H142178   0.891   0.690   4.408
14079TIP3    H242179   0.997   0.797   4.423
14080TIP3   OH242180   3.522   1.557   0.203
14080TIP3    H142181   3.488   1.646   0.194
14080TIP3    H242182   3.466   1.505   0.146
14081TIP3   OH242183   4.205   0.260   5.886
14081TIP3    H142184   4.233   0.340   5.842
14081TIP3    H242185   4.119   0.282   5.922
14082TIP3   OH242186   1.151   0.780   5.546
14082TIP3    H142187   1.140   0.713   5.614
14082TIP3    H242188   1.062   0.809   5.527
14083TIP3   OH242189   1.257   3.899   5.112
14083TIP3    H142190   1.177   3.916   5.064
14083TIP3    H242191   1.324   3.948   5.065
14084TIP3   OH242192   0.346   3.689   5.720
14084TIP3    H142193   0.333   3.714   5.629
14084TIP3    H242194   0.280   3.739   5.768
14085TIP3   OH242195   0.673   6.767   5.223
14085TIP3    H142196   0.669   6.714   5.302
14085TIP3    H242197   0.671   6.857   5.255
14086TIP3   OH242198   7.009   1.336   0.649
14086TIP3    H142199   6.921   1.304   0.668
14086TIP3    H242200   7.037   1.376   0.732
14087TIP3   OH242201   4.320   0.531   5.022
14087TIP3    H142202   4.312   0.582   4.941
14087TIP3    H242203   4.288   0.443   4.998
14088TIP3   OH242204   7.853   7.581   5.950
14088TIP3    H142205   7.837   7.563   5.858
14088TIP3    H242206   7.877   7.673   5.953
14089TIP3   OH242207   5.970   3.290   6.325
14089TIP3    H142208   6.045   3.231   6.318
14089TIP3    H242209   5.949   3.313   6.235
14090TIP3   OH242210   6.711   0.914   2.695
14090TIP3    H142211   6.639   0.853   2.709
14090TIP3    H242212   6.783   0.881   2.749
14091TIP3   OH242213   7.388   3.741   6.637
14091TIP3    H142214   7.313   3.683   6.647
14091TIP3    H242215   7.358   3.810   6.578
14092TIP3   OH242216   2.168   0.113   0.845
14092TIP3    H142217   2.208   0.127   0.759
14092TIP3    H242218   2.089   0.062   0.826
14093TIP3   OH242219   7.638   4.374   1.730
14093TIP3    H142220   7.677   4.366   1.643
14093TIP3    H242221   7.637   4.284   1.764
14094TIP3   OH242222   7.442   2.960   5.337
14094TIP3    H142223   7.537   2.948   5.338
14094TIP3    H242224   7.427   3.037   5.392
14095TIP3   OH242225   7.421   6.620   3.690
14095TIP3    H142226   7.471   6.584   3.616
14095TIP3    H242227   7.463   6.583   3.767
14096TIP3   OH242228   4.654   3.652   6.415
14096TIP3    H142229   4.702   3.655   6.333
14096TIP3    H242230   4.599   3.731   6.414
14097TIP3   OH242231   2.456   0.664   1.559
14097TIP3    H142232   2.383   0.704   1.608
14097TIP3    H242233   2.532   0.676   1.616
14098TIP3   OH242234   6.428   6.497   2.820
14098TIP3    H142235   6.361   6.434   2.848
14098TIP3    H242236   6.491   6.444   2.772
14099TIP3   OH242237   7.630   0.739   5.922
14099TIP3    H142238   7.557   0.748   5.983
14099TIP3    H242239   7.708   0.732   5.977
14100TIP3   OH242240   0.793   5.153   0.158
14100TIP3    H142241   0.699   5.171   0.158
14100TIP3    H242242   0.800   5.059   0.145
14101TIP3   OH242243   6.032   0.634   1.761
14101TIP3    H142244   5.945   0.624   1.723
14101TIP3    H242245   6.019   0.627   1.855
14102TIP3   OH242246   0.820   3.115   0.637
14102TIP3    H142247   0.749   3.111   0.573
14102TIP3    H242248   0.865   3.031   0.628
14103TIP3   OH242249   8.359   7.357   3.639
14103TIP3    H142250   8.332   7.321   3.555
14103TIP3    H242251   8.298   7.429   3.656
14104TIP3   OH242252   5.109   6.790   3.778
14104TIP3    H142253   5.197   6.803   3.814
14104TIP3    H242254   5.084   6.703   3.808
14105TIP3   OH242255   3.547   1.514   2.804
14105TIP3    H142256   3.472   1.472   2.762
14105TIP3    H242257   3.608   1.442   2.820
14106TIP3   OH242258   4.844   7.204   4.367
14106TIP3    H142259   4.783   7.270   4.334
14106TIP3    H242260   4.897   7.180   4.291
14107TIP3   OH242261   5.913   3.650   1.022
14107TIP3    H142262   5.967   3.585   0.978
14107TIP3    H242263   5.826   3.611   1.026
14108TIP3   OH242264   1.756   5.311   1.684
14108TIP3    H142265   1.699   5.254   1.735
14108TIP3    H242266   1.763   5.391   1.736
14109TIP3   OH242267   3.138   0.039   5.768
14109TIP3    H142268   3.171   0.105   5.707
14109TIP3    H242269   3.063   0.000   5.724
14110TIP3   OH242270   1.455   0.166   4.220
14110TIP3    H142271   1.367   0.192   4.245
14110TIP3    H242272   1.448   0.143   4.127
14111TIP3   OH242273   0.299   4.074   5.315
14111TIP3    H142274   0.333   4.013   5.249
14111TIP3    H242275   0.328   4.037   5.399
14112TIP3   OH242276   4.398   7.164   2.875
14112TIP3    H142277   4.418   7.211   2.794
14112TIP3    H242278   4.302   7.162   2.879
14113TIP3   OH242279   5.831   3.158   5.380
14113TIP3    H142280   5.855   3.209   5.457
14113TIP3    H242281   5.800   3.075   5.415
14114TIP3   OH242282   3.805   5.649   1.522
14114TIP3    H142283   3.888   5.611   1.492
14114TIP3    H242284   3.738   5.600   1.475
14115TIP3   OH242285   6.796   1.338   4.427
14115TIP3    H142286   6.852   1.279   4.376
14115TIP3    H242287   6.747   1.387   4.361
14116TIP3   OH242288   0.165   7.682   5.881
14116TIP3    H142289   0.228   7.622   5.922
14116TIP3    H242290   0.083   7.666   5.928
14117TIP3   OH242291   4.190   4.411   5.765
14117TIP3    H142292   4.171   4.391   5.857
14117TIP3    H242293   4.259   4.350   5.741
14118TIP3   OH242294   4.040   2.167   4.358
14118TIP3    H142295   4.040   2.149   4.264
14118TIP3    H242296   3.972   2.110   4.393
14119TIP3   OH242297   3.223   6.014   4.140
14119TIP3    H142298   3.292   5.984   4.200
14119TIP3    H242299   3.262   6.006   4.053
14120TIP3   OH242300   5.414   0.703   1.050
14120TIP3    H142301   5.358   0.767   1.094
14120TIP3    H242302   5.502   0.725   1.080
14121TIP3   OH242303   1.413   5.848   3.261
14121TIP3    H142304   1.337   5.876   3.313
14121TIP3    H242305   1.389   5.762   3.228
14122TIP3   OH242306   0.608   0.177   2.024
14122TIP3    H142307   0.565   0.238   2.085
14122TIP3    H242308   0.571   0.092   2.046
14123TIP3   OH242309   7.309   3.650   1.128
14123TIP3    H142310   7.372   3.595   1.174
14123TIP3    H242311   7.291   3.722   1.189
14124TIP3   OH242312   7.191   0.323   3.850
14124TIP3    H142313   7.277   0.293   3.819
14124TIP3    H242314   7.152   0.246   3.890
14125TIP3   OH242315   1.656   3.617   0.508
14125TIP3    H142316   1.608   3.565   0.444
14125TIP3    H242317   1.748   3.611   0.480
14126TIP3   OH242318   1.967   3.195   0.596
14126TIP3    H142319   1.951   3.104   0.570
14126TIP3    H242320   2.016   3.188   0.678
14127TIP3   OH242321   7.708   2.081   1.137
14127TIP3    H142322   7.620   2.048   1.119
14127TIP3    H242323   7.766   2.011   1.111
14128TIP3   OH242324   4.509   5.719   2.044
14128TIP3    H142325   4.567   5.643   2.044
14128TIP3    H242326   4.568   5.794   2.037
14129TIP3   OH242327   6.286   2.284   6.360
14129TIP3    H142328   6.344   2.225   6.408
14129TIP3    H242329   6.215   2.227   6.328
14130TIP3   OH242330   2.941   2.052   5.451
14130TIP3    H142331   2.904   1.986   5.393
14130TIP3    H242332   2.955   2.006   5.534
14131TIP3   OH242333   0.267   4.958   5.295
14131TIP3    H142334   0.198   4.973   5.230
14131TIP3    H242335   0.304   5.045   5.311
14132TIP3   OH242336   2.664   3.291   3.910
14132TIP3    H142337   2.734   3.354   3.928
14132TIP3    H242338   2.633   3.264   3.997
14133TIP3   OH242339   2.110   4.498   5.650
14133TIP3    H142340   2.055   4.477   5.725
14133TIP3    H242341   2.200   4.483   5.681
14134TIP3   OH242342   0.084   6.161   3.191
14134TIP3    H142343   0.053   6.182   3.278
14134TIP3    H242344   0.073   6.243   3.141
14135TIP3   OH242345   7.453   5.128   6.533
14135TIP3    H142346   7.480   5.213   6.498
14135TIP3    H242347   7.408   5.085   6.460
14136TIP3   OH242348   7.952   0.561   3.074
14136TIP3    H142349   7.988   0.547   2.987
14136TIP3    H242350   7.873   0.508   3.077
14137TIP3   OH242351   2.552   6.447   6.740
14137TIP3    H142352   2.622   6.507   6.714
14137TIP3    H242353   2.508   6.424   6.659
14138TIP3   OH242354   1.784   2.002   0.899
14138TIP3    H142355   1.764   1.914   0.933
14138TIP3    H242356   1.749   2.062   0.964
14139TIP3   OH242357   7.702   4.706   0.938
14139TIP3    H142358   7.720   4.730   0.847
14139TIP3    H242359   7.659   4.783   0.975
14140TIP3   OH242360   2.257   5.308   1.842
14140TIP3    H142361   2.341   5.342   1.875
14140TIP3    H242362   2.252   5.220   1.880
14141TIP3   OH242363   6.028   2.960   1.730
14141TIP3    H142364   6.057   2.881   1.685
14141TIP3    H242365   5.933   2.949   1.740
14142TIP3   OH242366   3.939   7.268   3.623
14142TIP3    H142367   3.866   7.328   3.636
14142TIP3    H242368   3.921   7.228   3.537
14143TIP3   OH242369   2.265   4.631   3.957
14143TIP3    H142370   2.353   4.595   3.949
14143TIP3    H242371   2.248   4.631   4.052
14144TIP3   OH242372   7.562   6.348   6.009
14144TIP3    H142373   7.519   6.284   6.066
14144TIP3    H242374   7.569   6.426   6.063
14145TIP3   OH242375   3.948   1.761   6.381
14145TIP3    H142376   3.960   1.852   6.355
14145TIP3    H242377   3.861   1.738   6.348
14146TIP3   OH242378   2.257   0.361   2.411
14146TIP3    H142379   2.315   0.310   2.355
14146TIP3    H242380   2.306   0.373   2.492
14147TIP3   OH242381   5.183   0.672   4.784
14147TIP3    H142382   5.119   0.743   4.791
14147TIP3    H242383   5.200   0.647   4.875
14148TIP3   OH242384   7.876   6.920   2.819
14148TIP3    H142385   7.823   6.998   2.802
14148TIP3    H242386   7.902   6.889   2.732
14149TIP3   OH242387   4.571   0.911   2.427
14149TIP3    H142388   4.558   0.852   2.353
14149TIP3    H242389   4.620   0.985   2.391
14150TIP3   OH242390   4.499   1.759   3.214
14150TIP3    H142391   4.443   1.835   3.197
14150TIP3    H242392   4.500   1.711   3.131
14151TIP3   OH242393   4.569   6.745   4.267
14151TIP3    H142394   4.591   6.837   4.278
14151TIP3    H242395   4.598   6.723   4.178
14152TIP3   OH242396   2.869   6.991   2.428
14152TIP3    H142397   2.944   7.049   2.444
14152TIP3    H242398   2.839   7.013   2.340
14153TIP3   OH242399   6.659   3.103   6.048
14153TIP3    H142400   6.611   3.110   5.966
14153TIP3    H242401   6.746   3.139   6.028
14154TIP3   OH242402   2.455   5.836   4.325
14154TIP3    H142403   2.547   5.833   4.351
14154TIP3    H242404   2.457   5.843   4.230
14155TIP3   OH242405   4.166   1.892   5.386
14155TIP3    H142406   4.218   1.916   5.309
14155TIP3    H242407   4.088   1.850   5.351
14156TIP3   OH242408   4.299   6.053   5.617
14156TIP3    H142409   4.376   6.093   5.657
14156TIP3    H242410   4.317   5.959   5.619
14157TIP3   OH242411   2.523   3.749   0.084
14157TIP3    H142412   2.569   3.795   0.154
14157TIP3    H242413   2.431   3.753   0.110
14158TIP3   OH242414   5.509   2.670   1.150
14158TIP3    H142415   5.587   2.682   1.205
14158TIP3    H242416   5.540   2.686   1.061
14159TIP3   OH242417   7.133   7.738   2.985
14159TIP3    H142418   7.065   7.802   3.008
14159TIP3    H242419   7.213   7.790   2.980
14160TIP3   OH242420   4.705   5.534   4.809
14160TIP3    H142421   4.680   5.454   4.762
14160TIP3    H242422   4.645   5.601   4.777
14161TIP3   OH242423   7.499   6.915   1.644
14161TIP3    H142424   7.564   6.844   1.645
14161TIP3    H242425   7.446   6.900   1.723
14162TIP3   OH242426   2.141   4.799   1.695
14162TIP3    H142427   2.184   4.789   1.780
14162TIP3    H242428   2.172   4.884   1.663
14163TIP3   OH242429   4.617   2.173   2.708
14163TIP3    H142430   4.596   2.241   2.643
14163TIP3    H242431   4.712   2.171   2.711
14164TIP3   OH242432   6.551   6.576   4.865
14164TIP3    H142433   6.492   6.605   4.795
14164TIP3    H242434   6.550   6.480   4.859
14165TIP3   OH242435   1.523   5.103   4.701
14165TIP3    H142436   1.537   5.014   4.670
14165TIP3    H242437   1.509   5.154   4.621
14166TIP3   OH242438   6.132   0.248   6.746
14166TIP3    H142439   6.155   0.264   6.654
14166TIP3    H242440   6.037   0.255   6.748
14167TIP3   OH242441   0.465   2.247   1.984
14167TIP3    H142442   0.393   2.254   2.047
14167TIP3    H242443   0.544   2.263   2.036
14168TIP3   OH242444   4.478   4.293   2.485
14168TIP3    H142445   4.485   4.367   2.546
14168TIP3    H242446   4.418   4.324   2.417
14169TIP3   OH242447   0.983   4.625   1.088
14169TIP3    H142448   1.072   4.629   1.052
14169TIP3    H242449   0.989   4.561   1.159
14170TIP3   OH242450   8.218   3.543   1.754
14170TIP3    H142451   8.257   3.629   1.747
14170TIP3    H242452   8.150   3.552   1.821
14171TIP3   OH242453   0.070   4.188   0.599
14171TIP3    H142454  -0.025   4.189   0.587
14171TIP3    H242455   0.102   4.257   0.541
14172TIP3   OH242456   6.873   0.241   5.440
14172TIP3    H142457   6.883   0.168   5.501
14172TIP3    H242458   6.791   0.223   5.394
14173TIP3   OH242459   4.750   6.028   0.335
14173TIP3    H142460   4.750   5.955   0.398
14173TIP3    H242461   4.693   5.999   0.264
14174TIP3   OH242462   3.666   3.005   0.409
14174TIP3    H142463   3.620   2.993   0.326
14174TIP3    H242464   3.736   3.066   0.389
14175TIP3   OH242465   5.618   7.477   1.638
14175TIP3    H142466   5.560   7.545   1.604
14175TIP3    H242467   5.704   7.519   1.641
14176TIP3   OH242468   8.387   2.933   4.954
14176TIP3    H142469   8.473   2.974   4.950
14176TIP3    H242470   8.326   3.006   4.966
14177TIP3   OH242471   0.971   1.550   1.265
14177TIP3    H142472   0.954   1.644   1.269
14177TIP3    H242473   1.060   1.543   1.230
14178TIP3   OH242474   3.330   3.429   0.421
14178TIP3    H142475   3.306   3.506   0.474
14178TIP3    H242476   3.395   3.383   0.474
14179TIP3   OH242477   4.326   5.503   4.807
14179TIP3    H142478   4.364   5.585   4.774
14179TIP3    H242479   4.311   5.519   4.900
14180TIP3   OH242480   4.034   6.514   1.730
14180TIP3    H142481   4.094   6.589   1.722
14180TIP3    H242482   4.014   6.489   1.640
14181TIP3   OH242483   5.750   4.133   6.309
14181TIP3    H142484   5.675   4.078   6.285
14181TIP3    H242485   5.739   4.148   6.403
14182TIP3   OH242486   7.394   3.142   3.742
14182TIP3    H142487   7.467   3.167   3.799
14182TIP3    H242488   7.316   3.153   3.796
14183TIP3   OH242489   8.301   7.538   1.934
14183TIP3    H142490   8.293   7.605   1.867
14183TIP3    H242491   8.379   7.562   1.984
14184TIP3   OH242492   0.418   1.597   2.223
14184TIP3    H142493   0.487   1.648   2.265
14184TIP3    H242494   0.437   1.506   2.247
14185TIP3   OH242495   2.829   1.193   4.083
14185TIP3    H142496   2.878   1.259   4.033
14185TIP3    H242497   2.849   1.110   4.040
14186TIP3   OH242498   3.327   1.664   0.418
14186TIP3    H142499   3.329   1.665   0.323
14186TIP3    H242500   3.368   1.747   0.444
14187TIP3   OH242501   7.747   6.221   1.520
14187TIP3    H142502   7.813   6.163   1.559
14187TIP3    H242503   7.796   6.300   1.498
14188TIP3   OH242504   5.347   0.736   5.645
14188TIP3    H142505   5.326   0.818   5.689
14188TIP3    H242506   5.265   0.709   5.605
14189TIP3   OH242507   2.628   1.644   5.394
14189TIP3    H142508   2.652   1.725   5.439
14189TIP3    H242509   2.629   1.577   5.462
14190TIP3   OH242510   3.369   4.660   5.691
14190TIP3    H142511   3.387   4.643   5.784
14190TIP3    H242512   3.440   4.616   5.645
14191TIP3   OH242513   6.460   1.404   5.844
14191TIP3    H142514   6.426   1.372   5.927
14191TIP3    H242515   6.386   1.398   5.784
14192TIP3   OH242516   6.226   7.115   4.224
14192TIP3    H142517   6.151   7.105   4.282
14192TIP3    H242518   6.191   7.097   4.136
14193TIP3   OH242519   6.130   1.299   2.080
14193TIP3    H142520   6.052   1.248   2.104
14193TIP3    H242521   6.096   1.387   2.063
14194TIP3   OH242522   0.280   0.722   1.129
14194TIP3    H142523   0.310   0.655   1.067
14194TIP3    H242524   0.350   0.787   1.130
14195TIP3   OH242525   2.312   0.909   4.542
14195TIP3    H142526   2.362   0.833   4.513
14195TIP3    H242527   2.375   0.962   4.590
14196TIP3   OH242528   7.860   7.464   3.758
14196TIP3    H142529   7.824   7.414   3.685
14196TIP3    H242530   7.887   7.398   3.822
14197TIP3   OH242531   2.436   6.039   5.066
14197TIP3    H142532   2.408   6.123   5.030
14197TIP3    H242533   2.499   6.005   5.003
14198TIP3   OH242534   7.934   0.668   4.155
14198TIP3    H142535   7.901   0.653   4.243
14198TIP3    H242536   7.959   0.582   4.123
14199TIP3   OH242537   7.096   4.900   2.360
14199TIP3    H142538   7.167   4.963   2.348
14199TIP3    H242539   7.116   4.856   2.442
14200TIP3   OH242540   0.668   5.116   5.305
14200TIP3    H142541   0.574   5.134   5.314
14200TIP3    H242542   0.709   5.166   5.374
14201TIP3   OH242543   2.139   0.323   1.730
14201TIP3    H142544   2.161   0.232   1.745
14201TIP3    H242545   2.197   0.351   1.659
14202TIP3   OH242546   6.808   6.639   6.447
14202TIP3    H142547   6.857   6.722   6.444
14202TIP3    H242548   6.742   6.648   6.379
14203TIP3   OH242549   0.064   4.435   5.816
14203TIP3    H142550   0.117   4.502   5.772
14203TIP3    H242551   0.031   4.381   5.744
14204TIP3   OH242552   7.600   3.546   6.535
14204TIP3    H142553   7.522   3.600   6.548
14204TIP3    H242554   7.658   3.599   6.480
14205TIP3   OH242555   2.877   1.026   2.907
14205TIP3    H142556   2.808   0.981   2.957
14205TIP3    H242557   2.868   1.117   2.933
14206TIP3   OH242558   5.789   7.675   3.549
14206TIP3    H142559   5.721   7.609   3.537
14206TIP3    H242560   5.762   7.724   3.627
14207TIP3   OH242561   3.902   7.728   1.506
14207TIP3    H142562   3.971   7.788   1.478
14207TIP3    H242563   3.833   7.785   1.540
14208TIP3   OH242564   3.366   4.074   1.044
14208TIP3    H142565   3.423   4.125   0.985
14208TIP3    H242566   3.393   3.983   1.031
14209TIP3   OH242567   4.023   0.479   2.331
14209TIP3    H142568   4.012   0.520   2.417
14209TIP3    H242569   4.044   0.388   2.351
14210TIP3   OH242570   4.227   3.704   3.426
14210TIP3    H142571   4.226   3.608   3.432
14210TIP3    H242572   4.302   3.730   3.480
14211TIP3   OH242573   7.434   4.112   2.276
14211TIP3    H142574   7.392   4.131   2.192
14211TIP3    H242575   7.368   4.133   2.342
14212TIP3   OH242576   0.213   6.340   2.497
14212TIP3    H142577   0.306   6.332   2.475
14212TIP3    H242578   0.192   6.259   2.544
14213TIP3   OH242579   2.496   7.677   6.179
14213TIP3    H142580   2.438   7.691   6.254
14213TIP3    H242581   2.455   7.606   6.130
14214TIP3   OH242582   0.718   0.596   0.810
14214TIP3    H142583   0.756   0.556   0.888
14214TIP3    H242584   0.792   0.631   0.761
14215TIP3   OH242585   1.489   3.520   3.809
14215TIP3    H142586   1.492   3.435   3.765
14215TIP3    H242587   1.445   3.578   3.747
14216TIP3   OH242588   6.309   6.896   1.348
14216TIP3    H142589   6.225   6.920   1.310
14216TIP3    H242590   6.372   6.958   1.311
14217TIP3   OH242591   4.731   7.728   2.007
14217TIP3    H142592   4.755   7.640   1.980
14217TIP3    H242593   4.685   7.765   1.931
14218TIP3   OH242594   4.624   3.088   5.931
14218TIP3    H142595   4.571   3.159   5.968
14218TIP3    H242596   4.682   3.132   5.868
14219TIP3   OH242597   7.921   7.547   1.039
14219TIP3    H142598   7.962   7.569   1.123
14219TIP3    H242599   7.992   7.553   0.976
14220TIP3   OH242600   4.031   1.367   4.954
14220TIP3    H142601   3.951   1.314   4.958
14220TIP3    H242602   4.007   1.450   4.995
14221TIP3   OH242603   2.889   7.497   6.227
14221TIP3    H142604   2.864   7.570   6.170
14221TIP3    H242605   2.887   7.420   6.169
14222TIP3   OH242606   0.743   4.576   6.365
14222TIP3    H142607   0.813   4.571   6.300
14222TIP3    H242608   0.721   4.485   6.384
14223TIP3   OH242609   0.541   0.320   2.759
14223TIP3    H142610   0.618   0.341   2.812
14223TIP3    H242611   0.576   0.274   2.683
14224TIP3   OH242612   4.029   5.390   0.234
14224TIP3    H142613   4.043   5.308   0.281
14224TIP3    H242614   3.992   5.364   0.149
14225TIP3   OH242615   1.575   5.131   4.110
14225TIP3    H142616   1.606   5.045   4.137
14225TIP3    H242617   1.648   5.190   4.128
14226TIP3   OH242618   2.242   7.568   0.091
14226TIP3    H142619   2.265   7.628   0.161
14226TIP3    H242620   2.151   7.545   0.108
14227TIP3   OH242621   1.232   4.829   3.133
14227TIP3    H142622   1.282   4.748   3.138
14227TIP3    H242623   1.209   4.838   3.040
14228TIP3   OH242624   6.903   4.431   4.395
14228TIP3    H142625   6.925   4.491   4.466
14228TIP3    H242626   6.940   4.472   4.317
14229TIP3   OH242627   5.554   0.187   5.144
14229TIP3    H142628   5.649   0.183   5.159
14229TIP3    H242629   5.539   0.130   5.069
14230TIP3   OH242630   6.478   4.866   1.019
14230TIP3    H142631   6.486   4.961   1.014
14230TIP3    H242632   6.419   4.843   0.947
14231TIP3   OH242633   4.726   4.435   6.192
14231TIP3    H142634   4.796   4.385   6.151
14231TIP3    H242635   4.723   4.403   6.282
14232TIP3   OH242636   7.158   5.931   0.152
14232TIP3    H142637   7.087   5.894   0.100
14232TIP3    H242638   7.213   5.976   0.088
14233TIP3   OH242639   3.135   3.035   3.700
14233TIP3    H142640   3.080   2.990   3.636
14233TIP3    H242641   3.203   3.078   3.647
14234TIP3   OH242642   4.138   6.812   0.186
14234TIP3    H142643   4.201   6.865   0.136
14234TIP3    H242644   4.092   6.875   0.241
14235TIP3   OH242645   8.040   0.741   6.209
14235TIP3    H142646   8.026   0.649   6.188
14235TIP3    H242647   8.043   0.785   6.124
14236TIP3   OH242648   5.549   0.113   3.187
14236TIP3    H142649   5.456   0.120   3.209
14236TIP3    H242650   5.551   0.119   3.091
14237TIP3   OH242651   5.506   5.180   2.467
14237TIP3    H142652   5.533   5.214   2.552
14237TIP3    H242653   5.571   5.112   2.447
14238TIP3   OH242654   7.198   1.693   3.124
14238TIP3    H142655   7.164   1.759   3.185
14238TIP3    H242656   7.135   1.622   3.126
14239TIP3   OH242657   3.128   0.495   3.707
14239TIP3    H142658   3.080   0.495   3.623
14239TIP3    H242659   3.218   0.472   3.683
14240TIP3   OH242660   6.760   0.624   1.551
14240TIP3    H142661   6.778   0.701   1.495
14240TIP3    H242662   6.729   0.661   1.633
14241TIP3   OH242663   4.803   4.278   5.395
14241TIP3    H142664   4.883   4.291   5.344
14241TIP3    H242665   4.780   4.365   5.426
14242TIP3   OH242666   5.620   6.678   5.016
14242TIP3    H142667   5.655   6.695   4.929
14242TIP3    H242668   5.655   6.591   5.039
14243TIP3   OH242669   2.801   0.023   4.220
14243TIP3    H142670   2.826   0.032   4.312
14243TIP3    H242671   2.717   0.068   4.214
14244TIP3   OH242672   7.597   1.285   1.590
14244TIP3    H142673   7.548   1.215   1.634
14244TIP3    H242674   7.578   1.364   1.640
14245TIP3   OH242675   2.415   4.932   2.391
14245TIP3    H142676   2.453   4.865   2.334
14245TIP3    H242677   2.328   4.948   2.353
14246TIP3   OH242678   7.812   2.598   6.602
14246TIP3    H142679   7.861   2.563   6.528
14246TIP3    H242680   7.784   2.685   6.574
14247TIP3   OH242681   7.112   0.681   4.669
14247TIP3    H142682   7.165   0.602   4.659
14247TIP3    H242683   7.157   0.746   4.614
14248TIP3   OH242684   5.076   2.306   0.234
14248TIP3    H142685   4.985   2.335   0.230
14248TIP3    H242686   5.096   2.302   0.328
14249TIP3   OH242687   1.006   5.914   3.960
14249TIP3    H142688   1.067   5.894   3.890
14249TIP3    H242689   0.950   5.837   3.966
14250TIP3   OH242690   0.244   5.847   2.867
14250TIP3    H142691   0.192   5.850   2.947
14250TIP3    H242692   0.330   5.880   2.893
14251TIP3   OH242693   1.699   7.655   0.198
14251TIP3    H142694   1.672   7.610   0.118
14251TIP3    H242695   1.653   7.609   0.268
14252TIP3   OH242696   2.225   7.710   0.847
14252TIP3    H142697   2.232   7.714   0.942
14252TIP3    H242698   2.211   7.801   0.820
14253TIP3   OH242699   0.916   7.683   5.041
14253TIP3    H142700   1.008   7.673   5.067
14253TIP3    H242701   0.869   7.697   5.123
14254TIP3   OH242702   2.646   4.780   3.597
14254TIP3    H142703   2.626   4.842   3.526
14254TIP3    H242704   2.668   4.698   3.552
14255TIP3   OH242705   3.394   1.505   4.259
14255TIP3    H142706   3.371   1.590   4.221
14255TIP3    H242707   3.466   1.525   4.319
14256TIP3   OH242708   0.311   2.118   2.373
14256TIP3    H142709   0.382   2.177   2.346
14256TIP3    H242710   0.356   2.043   2.411
14257TIP3   OH242711   1.999   2.147   5.906
14257TIP3    H142712   1.953   2.132   5.989
14257TIP3    H242713   2.065   2.078   5.903
14258TIP3   OH242714   3.415   7.860   4.748
14258TIP3    H142715   3.387   7.772   4.727
14258TIP3    H242716   3.474   7.884   4.676
14259TIP3   OH242717   5.082   7.349   5.755
14259TIP3    H142718   5.039   7.264   5.743
14259TIP3    H242719   5.153   7.350   5.691
14260TIP3   OH242720   3.203   5.159   4.099
14260TIP3    H142721   3.133   5.129   4.156
14260TIP3    H242722   3.197   5.104   4.021
14261TIP3   OH242723   1.483   3.233   5.766
14261TIP3    H142724   1.485   3.162   5.829
14261TIP3    H242725   1.502   3.191   5.682
14262TIP3   OH242726   7.400   6.700   2.870
14262TIP3    H142727   7.450   6.674   2.948
14262TIP3    H242728   7.466   6.706   2.801
14263TIP3   OH242729   5.738   3.436   0.748
14263TIP3    H142730   5.827   3.427   0.780
14263TIP3    H242731   5.694   3.489   0.815
14264TIP3   OH242732   5.788   6.948   3.433
14264TIP3    H142733   5.784   6.962   3.338
14264TIP3    H242734   5.736   6.869   3.448
14265TIP3   OH242735   5.713   6.203   2.419
14265TIP3    H142736   5.799   6.218   2.458
14265TIP3    H242737   5.726   6.129   2.360
14266TIP3   OH242738   0.656   2.601   5.276
14266TIP3    H142739   0.570   2.622   5.313
14266TIP3    H242740   0.710   2.676   5.301
14267TIP3   OH242741   7.170   4.035   6.409
14267TIP3    H142742   7.193   4.109   6.354
14267TIP3    H242743   7.242   3.973   6.398
14268TIP3   OH242744   5.305   2.955   5.614
14268TIP3    H142745   5.397   2.931   5.597
14268TIP3    H242746   5.308   3.048   5.635
14269TIP3   OH242747   8.115   1.823   2.260
14269TIP3    H142748   8.206   1.850   2.252
14269TIP3    H242749   8.080   1.875   2.332
14270TIP3   OH242750   3.508   1.964   4.156
14270TIP3    H142751   3.520   1.920   4.072
14270TIP3    H242752   3.498   1.893   4.219
14271TIP3   OH242753   0.800   0.249   6.499
14271TIP3    H142754   0.733   0.310   6.467
14271TIP3    H242755   0.883   0.290   6.475
14272TIP3   OH242756   5.677   4.617   1.589
14272TIP3    H142757   5.731   4.667   1.651
14272TIP3    H242758   5.646   4.542   1.640
14273TIP3   OH242759   1.077   0.615   6.196
14273TIP3    H142760   1.053   0.621   6.288
14273TIP3    H242761   1.074   0.522   6.176
14274TIP3   OH242762   2.711   3.651   6.112
14274TIP3    H142763   2.720   3.665   6.018
14274TIP3    H242764   2.764   3.573   6.130
14275TIP3   OH242765   4.075   5.842   1.968
14275TIP3    H142766   4.159   5.796   1.961
14275TIP3    H242767   4.015   5.791   1.913
14276TIP3   OH242768   1.730   6.865   3.587
14276TIP3    H142769   1.728   6.869   3.491
14276TIP3    H242770   1.797   6.800   3.606
14277TIP3   OH242771   7.513   0.847   6.581
14277TIP3    H142772   7.514   0.942   6.580
14277TIP3    H242773   7.447   0.825   6.647
14278TIP3   OH242774   6.943   0.269   6.584
14278TIP3    H142775   6.914   0.351   6.623
14278TIP3    H242776   6.964   0.212   6.658
14279TIP3   OH242777   7.887   3.620   0.843
14279TIP3    H142778   7.899   3.714   0.825
14279TIP3    H242779   7.965   3.578   0.807
14280TIP3   OH242780   2.270   7.854   2.039
14280TIP3    H142781   2.288   7.938   2.081
14280TIP3    H242782   2.251   7.875   1.948
14281TIP3   OH242783   0.708   3.400   2.701
14281TIP3    H142784   0.732   3.309   2.717
14281TIP3    H242785   0.684   3.434   2.788
14282TIP3   OH242786   6.705   3.719   3.757
14282TIP3    H142787   6.643   3.667   3.707
14282TIP3    H242788   6.788   3.673   3.748
14283TIP3   OH242789   0.495   6.311   0.063
14283TIP3    H142790   0.475   6.351  -0.022
14283TIP3    H242791   0.428   6.346   0.123
14284TIP3   OH242792   8.268   0.483   1.171
14284TIP3    H142793   8.177   0.469   1.145
14284TIP3    H242794   8.310   0.398   1.156
14285TIP3   OH242795   2.879   1.082   6.136
14285TIP3    H142796   2.901   1.012   6.076
14285TIP3    H242797   2.826   1.040   6.204
14286TIP3   OH242798   4.085   0.239   5.087
14286TIP3    H142799   4.037   0.313   5.123
14286TIP3    H242800   4.177   0.264   5.093
14287TIP3   OH242801   4.913   2.413   2.190
14287TIP3    H142802   4.934   2.504   2.170
14287TIP3    H242803   4.869   2.380   2.112
14288TIP3   OH242804   2.179   1.930   2.563
14288TIP3    H142805   2.193   1.837   2.545
14288TIP3    H242806   2.162   1.969   2.478
14289TIP3   OH242807   3.909   5.853   3.800
14289TIP3    H142808   3.980   5.869   3.862
14289TIP3    H242809   3.904   5.758   3.792
14290TIP3   OH242810   3.802   0.132   3.249
14290TIP3    H142811   3.778   0.040   3.238
14290TIP3    H242812   3.888   0.129   3.291
14291TIP3   OH242813   5.495   6.918   5.030
14291TIP3    H142814   5.568   6.962   5.075
14291TIP3    H242815   5.529   6.831   5.009
14292TIP3   OH242816   0.165   3.820   1.571
14292TIP3    H142817   0.148   3.822   1.477
14292TIP3    H242818   0.242   3.763   1.580
14293TIP3   OH242819   6.793   0.240   0.527
14293TIP3    H142820   6.743   0.159   0.538
14293TIP3    H242821   6.818   0.265   0.616
14294TIP3   OH242822   6.632   6.323   6.133
14294TIP3    H142823   6.621   6.400   6.077
14294TIP3    H242824   6.699   6.271   6.088
14295TIP3   OH242825   4.338   5.899   3.123
14295TIP3    H142826   4.345   5.845   3.044
14295TIP3    H242827   4.332   5.989   3.090
14296TIP3   OH242828   7.105   3.525   5.809
14296TIP3    H142829   7.189   3.538   5.764
14296TIP3    H242830   7.126   3.467   5.882
14297TIP3   OH242831   1.540   2.149   3.172
14297TIP3    H142832   1.476   2.219   3.168
14297TIP3    H242833   1.611   2.178   3.114
14298TIP3   OH242834   1.476   6.940   0.448
14298TIP3    H142835   1.416   6.976   0.514
14298TIP3    H242836   1.422   6.931   0.370
14299TIP3   OH242837   0.391   2.618   6.225
14299TIP3    H142838   0.331   2.690   6.206
14299TIP3    H242839   0.477   2.659   6.232
14300TIP3   OH242840   0.638   0.139   4.303
14300TIP3    H142841   0.586   0.078   4.251
14300TIP3    H242842   0.714   0.088   4.332
14301TIP3   OH242843   1.748   2.260   2.973
14301TIP3    H142844   1.824   2.304   2.935
14301TIP3    H242845   1.681   2.263   2.904
14302TIP3   OH242846   5.662   6.901   0.882
14302TIP3    H142847   5.663   6.872   0.791
14302TIP3    H242848   5.624   6.827   0.930
14303TIP3   OH242849   4.057   5.492   5.524
14303TIP3    H142850   4.055   5.548   5.601
14303TIP3    H242851   3.977   5.514   5.476
14304TIP3   OH242852   4.497   2.662   6.157
14304TIP3    H142853   4.500   2.747   6.111
14304TIP3    H242854   4.446   2.606   6.099
14305TIP3   OH242855   0.860   5.220   1.780
14305TIP3    H142856   0.951   5.208   1.752
14305TIP3    H242857   0.817   5.138   1.757
14306TIP3   OH242858   4.983   6.467   3.224
14306TIP3    H142859   5.053   6.402   3.225
14306TIP3    H242860   4.987   6.506   3.137
14307TIP3   OH242861   4.324   5.053   4.601
14307TIP3    H142862   4.343   4.969   4.643
14307TIP3    H242863   4.263   5.096   4.661
14308TIP3   OH242864   1.790   7.508   2.060
14308TIP3    H142865   1.793   7.414   2.041
14308TIP3    H242866   1.714   7.517   2.119
14309TIP3   OH242867   3.676   7.633   3.520
14309TIP3    H142868   3.620   7.656   3.593
14309TIP3    H242869   3.757   7.682   3.535
14310TIP3   OH242870   4.489   7.698   4.402
14310TIP3    H142871   4.463   7.738   4.319
14310TIP3    H242872   4.573   7.738   4.424
14311TIP3   OH242873   3.476   1.018   3.624
14311TIP3    H142874   3.400   0.961   3.616
14311TIP3    H242875   3.442   1.106   3.604
14312TIP3   OH242876   8.114   6.638   1.357
14312TIP3    H142877   8.044   6.703   1.349
14312TIP3    H242878   8.146   6.649   1.447
14313TIP3   OH242879   0.710   7.577   2.789
14313TIP3    H142880   0.767   7.530   2.728
14313TIP3    H242881   0.694   7.661   2.748
14314TIP3   OH242882   5.328   5.504   5.802
14314TIP3    H142883   5.349   5.564   5.874
14314TIP3    H242884   5.332   5.417   5.841
14315TIP3   OH242885   2.369   3.109   5.480
14315TIP3    H142886   2.394   3.055   5.405
14315TIP3    H242887   2.448   3.112   5.535
14316TIP3   OH242888   4.668   6.099   3.249
14316TIP3    H142889   4.637   6.063   3.167
14316TIP3    H242890   4.602   6.163   3.274
14317TIP3   OH242891   5.737   2.712   1.309
14317TIP3    H142892   5.710   2.643   1.370
14317TIP3    H242893   5.755   2.787   1.365
14318TIP3   OH242894   7.977   1.885   5.260
14318TIP3    H142895   8.049   1.905   5.319
14318TIP3    H242896   8.018   1.837   5.188
14319TIP3   OH242897   2.686   5.161   2.820
14319TIP3    H142898   2.664   5.253   2.827
14319TIP3    H242899   2.699   5.132   2.911
14320TIP3   OH242900   1.636   7.805   6.148
14320TIP3    H142901   1.591   7.871   6.096
14320TIP3    H242902   1.662   7.852   6.228
14321TIP3   OH242903   5.694   6.310   3.579
14321TIP3    H142904   5.643   6.234   3.609
14321TIP3    H242905   5.776   6.304   3.629
14322TIP3   OH242906   7.530   0.402   6.310
14322TIP3    H142907   7.556   0.310   6.308
14322TIP3    H242908   7.475   0.410   6.388
14323TIP3   OH242909   7.224   1.205   0.996
14323TIP3    H142910   7.311   1.239   1.014
14323TIP3    H242911   7.240   1.123   0.949
14324TIP3   OH242912   7.552   2.379   1.763
14324TIP3    H142913   7.538   2.456   1.818
14324TIP3    H242914   7.646   2.378   1.748
14325TIP3   OH242915   0.183   4.179   1.436
14325TIP3    H142916   0.110   4.237   1.455
14325TIP3    H242917   0.180   4.164   1.342
14326TIP3   OH242918   7.693   0.590   1.183
14326TIP3    H142919   7.714   0.662   1.243
14326TIP3    H242920   7.694   0.512   1.237
14327TIP3   OH242921   7.801   5.446   3.768
14327TIP3    H142922   7.877   5.400   3.804
14327TIP3    H242923   7.778   5.397   3.689
14328TIP3   OH242924   4.185   3.865   1.351
14328TIP3    H142925   4.109   3.841   1.298
14328TIP3    H242926   4.253   3.804   1.324
14329TIP3   OH242927   6.077   0.936   4.007
14329TIP3    H142928   6.128   0.965   4.082
14329TIP3    H242929   6.078   0.840   4.013
14330TIP3   OH242930   4.331   7.478   2.292
14330TIP3    H142931   4.411   7.472   2.344
14330TIP3    H242932   4.356   7.526   2.214
14331TIP3   OH242933   3.961   2.873   4.366
14331TIP3    H142934   4.015   2.809   4.320
14331TIP3    H242935   4.008   2.890   4.448
14332TIP3   OH242936   4.304   1.522   4.439
14332TIP3    H142937   4.394   1.555   4.445
14332TIP3    H242938   4.310   1.431   4.466
14333TIP3   OH242939   2.007   0.314   0.635
14333TIP3    H142940   1.987   0.231   0.679
14333TIP3    H242941   1.991   0.296   0.543
14334TIP3   OH242942   2.781   5.821   1.475
14334TIP3    H142943   2.792   5.835   1.569
14334TIP3    H242944   2.704   5.874   1.452
14335TIP3   OH242945   1.121   7.351   0.496
14335TIP3    H142946   1.055   7.288   0.465
14335TIP3    H242947   1.190   7.347   0.431
14336TIP3   OH242948   0.620   0.867   3.675
14336TIP3    H142949   0.629   0.871   3.579
14336TIP3    H242950   0.641   0.776   3.697
14337TIP3   OH242951   4.009   3.462   6.629
14337TIP3    H142952   4.069   3.390   6.649
14337TIP3    H242953   4.044   3.536   6.678
14338TIP3   OH242954   4.658   0.336   1.420
14338TIP3    H142955   4.613   0.298   1.494
14338TIP3    H242956   4.656   0.269   1.352
14339TIP3   OH242957   3.394   5.216   5.446
14339TIP3    H142958   3.344   5.271   5.385
14339TIP3    H242959   3.483   5.250   5.442
14340TIP3   OH242960   2.503   3.053   0.511
14340TIP3    H142961   2.478   3.142   0.487
14340TIP3    H242962   2.419   3.008   0.525
14341TIP3   OH242963   3.877   6.348   3.416
14341TIP3    H142964   3.790   6.384   3.397
14341TIP3    H242965   3.862   6.254   3.430
14342TIP3   OH242966   5.463   7.418   6.810
14342TIP3    H142967   5.416   7.501   6.797
14342TIP3    H242968   5.554   7.444   6.824
14343TIP3   OH242969   6.627   0.080   1.108
14343TIP3    H142970   6.580   0.022   1.049
14343TIP3    H242971   6.712   0.092   1.067
14344TIP3   OH242972   4.079   5.962   5.005
14344TIP3    H142973   4.084   6.051   5.042
14344TIP3    H242974   4.111   5.971   4.916
14345TIP3   OH242975   6.516   1.259   1.358
14345TIP3    H142976   6.528   1.353   1.348
14345TIP3    H242977   6.597   1.220   1.327
14346TIP3   OH242978   4.200   6.794   2.205
14346TIP3    H142979   4.293   6.801   2.183
14346TIP3    H242980   4.157   6.859   2.149
14347TIP3   OH242981   0.375   5.910   5.945
14347TIP3    H142982   0.322   5.832   5.962
14347TIP3    H242983   0.410   5.933   6.031
14348TIP3   OH242984   3.397   4.471   4.145
14348TIP3    H142985   3.419   4.563   4.159
14348TIP3    H242986   3.473   4.435   4.101
14349TIP3   OH242987   1.466   6.638   1.488
14349TIP3    H142988   1.497   6.616   1.576
14349TIP3    H242989   1.394   6.577   1.472
14350TIP3   OH242990   1.795   4.881   0.833
14350TIP3    H142991   1.749   4.881   0.917
14350TIP3    H242992   1.774   4.966   0.793
14351TIP3   OH242993   7.475   7.162   2.303
14351TIP3    H142994   7.448   7.101   2.371
14351TIP3    H242995   7.430   7.132   2.224
14352TIP3   OH242996   4.440   3.451   5.247
14352TIP3    H142997   4.362   3.414   5.206
14352TIP3    H242998   4.408   3.526   5.297
14353TIP3   OH242999   6.683   0.877   3.947
14353TIP3    H143000   6.614   0.917   3.894
14353TIP3    H243001   6.637   0.833   4.018
14354TIP3   OH243002   2.615   1.469   5.637
14354TIP3    H143003   2.531   1.444   5.677
14354TIP3    H243004   2.658   1.385   5.619
14355TIP3   OH243005   1.205   7.263   3.455
14355TIP3    H143006   1.281   7.318   3.437
14355TIP3    H243007   1.191   7.214   3.374
14356TIP3   OH243008   7.298   7.824   5.869
14356TIP3    H143009   7.382   7.810   5.826
14356TIP3    H243010   7.295   7.918   5.886
14357TIP3   OH243011   1.957   5.367   1.969
14357TIP3    H143012   2.031   5.390   1.913
14357TIP3    H243013   1.890   5.432   1.948
14358TIP3   OH243014   6.169   3.382   0.245
14358TIP3    H143015   6.096   3.400   0.185
14358TIP3    H243016   6.247   3.389   0.189
14359TIP3   OH243017   0.182   2.416   0.526
14359TIP3    H143018   0.090   2.396   0.541
14359TIP3    H243019   0.217   2.339   0.481
14360TIP3   OH243020   1.748   2.838   6.653
14360TIP3    H143021   1.726   2.745   6.652
14360TIP3    H243022   1.843   2.839   6.666
14361TIP3   OH243023   5.287   3.255   4.628
14361TIP3    H143024   5.370   3.293   4.655
14361TIP3    H243025   5.289   3.258   4.533
14362TIP3   OH243026   3.674   2.812   4.419
14362TIP3    H143027   3.660   2.717   4.413
14362TIP3    H243028   3.767   2.823   4.400
14363TIP3   OH243029   5.717   6.500   5.900
14363TIP3    H143030   5.670   6.556   5.962
14363TIP3    H243031   5.804   6.538   5.895
14364TIP3   OH243032   3.416   3.706   5.418
14364TIP3    H143033   3.509   3.689   5.407
14364TIP3    H243034   3.412   3.790   5.465
14365TIP3   OH243035   3.404   0.830   5.336
14365TIP3    H143036   3.459   0.795   5.406
14365TIP3    H243037   3.391   0.922   5.358
14366TIP3   OH243038   0.124   5.416   5.662
14366TIP3    H143039   0.104   5.323   5.662
14366TIP3    H243040   0.039   5.459   5.646
14367TIP3   OH243041   8.255   2.436   6.774
14367TIP3    H143042   8.316   2.367   6.798
14367TIP3    H243043   8.303   2.517   6.788
14368TIP3   OH243044   0.044   5.020   1.782
14368TIP3    H143045   0.108   4.952   1.762
14368TIP3    H243046  -0.019   4.977   1.841
14369TIP3   OH243047   8.141   1.180   5.969
14369TIP3    H143048   8.095   1.183   6.053
14369TIP3    H243049   8.137   1.088   5.943
14370TIP3   OH243050   3.926   0.276   0.799
14370TIP3    H143051   3.930   0.181   0.810
14370TIP3    H243052   3.836   0.293   0.772
14371TIP3   OH243053   3.802   4.036   5.942
14371TIP3    H143054   3.876   3.988   5.906
14371TIP3    H243055   3.733   4.027   5.877
14372TIP3   OH243056   8.150   4.266   2.462
14372TIP3    H143057   8.119   4.347   2.420
14372TIP3    H243058   8.085   4.200   2.438
14373TIP3   OH243059   4.091   5.186   3.427
14373TIP3    H143060   4.132   5.211   3.344
14373TIP3    H243061   4.144   5.114   3.459
14374TIP3   OH243062   7.483   6.715   2.447
14374TIP3    H143063   7.423   6.646   2.475
14374TIP3    H243064   7.568   6.688   2.481
14375TIP3   OH243065   6.501   5.036   5.380
14375TIP3    H143066   6.463   5.104   5.435
14375TIP3    H243067   6.439   5.025   5.308
14376TIP3   OH243068   6.288   1.985   0.246
14376TIP3    H143069   6.219   1.986   0.313
14376TIP3    H243070   6.293   1.894   0.218
14377TIP3   OH243071   6.471   3.278   4.315
14377TIP3    H143072   6.454   3.233   4.233
14377TIP3    H243073   6.396   3.337   4.327
14378TIP3   OH243074   7.337   5.356   1.467
14378TIP3    H143075   7.432   5.353   1.468
14378TIP3    H243076   7.314   5.396   1.383
14379TIP3   OH243077   5.875   0.240   1.720
14379TIP3    H143078   5.785   0.210   1.728
14379TIP3    H243079   5.874   0.330   1.752
14380TIP3   OH243080   7.124   5.909   3.935
14380TIP3    H143081   7.149   5.999   3.955
14380TIP3    H243082   7.205   5.865   3.912
14381TIP3   OH243083   1.766   0.702   0.732
14381TIP3    H143084   1.818   0.749   0.667
14381TIP3    H243085   1.824   0.633   0.763
14382TIP3   OH243086   5.386   7.542   6.409
14382TIP3    H143087   5.405   7.549   6.503
14382TIP3    H243088   5.291   7.526   6.405
14383TIP3   OH243089   4.348   5.317   0.217
14383TIP3    H143090   4.399   5.236   0.215
14383TIP3    H243091   4.366   5.359   0.133
14384TIP3   OH243092   7.137   7.099   2.325
14384TIP3    H143093   7.132   7.177   2.380
14384TIP3    H243094   7.125   7.025   2.385
14385TIP3   OH243095   7.142   4.589   1.492
14385TIP3    H143096   7.209   4.605   1.559
14385TIP3    H243097   7.191   4.556   1.417
14386TIP3   OH243098   5.658   6.362   6.590
14386TIP3    H143099   5.614   6.418   6.654
14386TIP3    H243100   5.665   6.277   6.633
14387TIP3   OH243101   1.779   4.276   2.069
14387TIP3    H143102   1.805   4.195   2.026
14387TIP3    H243103   1.703   4.253   2.122
14388TIP3   OH243104   2.127   1.989   4.276
14388TIP3    H143105   2.153   1.933   4.203
14388TIP3    H243106   2.099   1.928   4.344
14389TIP3   OH243107   8.083   2.094   1.366
14389TIP3    H143108   8.102   2.118   1.275
14389TIP3    H243109   8.066   2.000   1.364
14390TIP3   OH243110   4.031   1.098   0.197
14390TIP3    H143111   4.100   1.157   0.230
14390TIP3    H243112   4.017   1.126   0.107
14391TIP3   OH243113   1.651   5.196   6.459
14391TIP3    H143114   1.676   5.104   6.447
14391TIP3    H243115   1.703   5.244   6.395
14392TIP3   OH243116   1.411   3.970   2.396
14392TIP3    H143117   1.426   3.875   2.395
14392TIP3    H243118   1.462   4.001   2.471
14393TIP3   OH243119   4.539   6.111   2.996
14393TIP3    H143120   4.475   6.051   2.960
14393TIP3    H243121   4.589   6.142   2.921
14394TIP3   OH243122   7.384   1.913   1.327
14394TIP3    H143123   7.355   1.981   1.266
14394TIP3    H243124   7.478   1.905   1.312
14395TIP3   OH243125   3.166   5.317   2.539
14395TIP3    H143126   3.146   5.331   2.632
14395TIP3    H243127   3.092   5.357   2.493
14396TIP3   OH243128   7.458   7.410   3.465
14396TIP3    H143129   7.436   7.321   3.438
14396TIP3    H243130   7.374   7.453   3.479
14397TIP3   OH243131   3.248   7.511   4.374
14397TIP3    H143132   3.312   7.443   4.351
14397TIP3    H243133   3.302   7.588   4.392
14398TIP3   OH243134   1.394   5.563   3.255
14398TIP3    H143135   1.445   5.532   3.180
14398TIP3    H243136   1.311   5.516   3.249
14399TIP3   OH243137   2.592   6.107   1.839
14399TIP3    H143138   2.547   6.191   1.833
14399TIP3    H243139   2.662   6.121   1.903
14400TIP3   OH243140   0.463   5.303   2.516
14400TIP3    H143141   0.491   5.393   2.502
14400TIP3    H243142   0.433   5.301   2.608
14401TIP3   OH243143   2.279   5.735   2.768
14401TIP3    H143144   2.206   5.764   2.714
14401TIP3    H243145   2.299   5.647   2.736
14402TIP3   OH243146   5.886   4.069   2.074
14402TIP3    H143147   5.807   4.053   2.126
14402TIP3    H243148   5.958   4.041   2.130
14403TIP3   OH243149   2.841   5.868   2.746
14403TIP3    H143150   2.834   5.962   2.763
14403TIP3    H243151   2.828   5.828   2.832
14404TIP3   OH243152   1.140   2.720   2.865
14404TIP3    H143153   1.046   2.720   2.850
14404TIP3    H243154   1.165   2.812   2.855
14405TIP3   OH243155   5.632   3.060   0.099
14405TIP3    H143156   5.659   3.146   0.066
14405TIP3    H243157   5.540   3.072   0.123
14406TIP3   OH243158   0.282   3.262   4.354
14406TIP3    H143159   0.281   3.356   4.373
14406TIP3    H243160   0.204   3.228   4.397
14407TIP3   OH243161   0.278   4.846   3.646
14407TIP3    H143162   0.223   4.890   3.580
14407TIP3    H243163   0.264   4.897   3.726
14408TIP3   OH243164   3.618   4.699   6.740
14408TIP3    H143165   3.591   4.644   6.814
14408TIP3    H243166   3.695   4.746   6.772
14409TIP3   OH243167   5.151   1.308   2.665
14409TIP3    H143168   5.241   1.276   2.662
14409TIP3    H243169   5.118   1.277   2.750
14410TIP3   OH243170   3.635   4.514   1.476
14410TIP3    H143171   3.621   4.505   1.570
14410TIP3    H243172   3.583   4.445   1.437
14411TIP3   OH243173   7.729   3.461   2.578
14411TIP3    H143174   7.761   3.387   2.629
14411TIP3    H243175   7.666   3.504   2.635
14412TIP3   OH243176   2.506   3.439   6.258
14412TIP3    H143177   2.466   3.417   6.173
14412TIP3    H243178   2.433   3.439   6.319
14413TIP3   OH243179   0.884   3.900   1.209
14413TIP3    H143180   0.836   3.969   1.163
14413TIP3    H243181   0.960   3.883   1.153
14414TIP3   OH243182   4.330   4.557   4.640
14414TIP3    H143183   4.395   4.517   4.697
14414TIP3    H243184   4.378   4.581   4.561
14415TIP3   OH243185   7.579   2.602   6.223
14415TIP3    H143186   7.624   2.626   6.142
14415TIP3    H243187   7.641   2.545   6.269
14416TIP3   OH243188   6.771   7.218   1.309
14416TIP3    H143189   6.724   7.296   1.336
14416TIP3    H243190   6.815   7.243   1.227
14417TIP3   OH243191   5.960   5.151   5.861
14417TIP3    H143192   5.904   5.134   5.785
14417TIP3    H243193   5.918   5.103   5.933
14418TIP3   OH243194   1.276   5.071   4.802
14418TIP3    H143195   1.352   5.123   4.775
14418TIP3    H243196   1.226   5.128   4.860
14419TIP3   OH243197   6.059   5.390   5.537
14419TIP3    H143198   6.103   5.328   5.478
14419TIP3    H243199   6.113   5.469   5.533
14420TIP3   OH243200   2.643   0.555   5.843
14420TIP3    H143201   2.728   0.584   5.808
14420TIP3    H243202   2.665   0.479   5.898
14421TIP3   OH243203   6.069   3.176   5.665
14421TIP3    H143204   6.024   3.109   5.717
14421TIP3    H243205   6.134   3.213   5.725
14422TIP3   OH243206   6.967   5.774   2.964
14422TIP3    H143207   6.937   5.856   3.002
14422TIP3    H243208   7.037   5.745   3.024
14423TIP3   OH243209   7.560   4.094   4.194
14423TIP3    H143210   7.621   4.025   4.218
14423TIP3    H243211   7.566   4.099   4.099
14424TIP3   OH243212   0.354   2.132   6.629
14424TIP3    H143213   0.347   2.164   6.539
14424TIP3    H243214   0.358   2.037   6.621
14425TIP3   OH243215   5.263   4.222   4.774
14425TIP3    H143216   5.268   4.309   4.734
14425TIP3    H243217   5.293   4.236   4.865
14426TIP3   OH243218   4.196   2.439   6.632
14426TIP3    H143219   4.118   2.444   6.577
14426TIP3    H243220   4.191   2.517   6.687
14427TIP3   OH243221   0.935   1.483   2.031
14427TIP3    H143222   1.004   1.526   2.081
14427TIP3    H243223   0.978   1.449   1.953
14428TIP3   OH243224   6.390   7.414   4.965
14428TIP3    H143225   6.452   7.486   4.948
14428TIP3    H243226   6.383   7.412   5.061
14429TIP3   OH243227   3.293   3.282   4.901
14429TIP3    H143228   3.229   3.334   4.949
14429TIP3    H243229   3.245   3.206   4.870
14430TIP3   OH243230   5.154   4.252   0.285
14430TIP3    H143231   5.086   4.319   0.283
14430TIP3    H243232   5.207   4.271   0.208
14431TIP3   OH243233   7.021   5.376   2.910
14431TIP3    H143234   7.035   5.325   2.830
14431TIP3    H243235   6.935   5.348   2.941
14432TIP3   OH243236   2.364   5.168   3.480
14432TIP3    H143237   2.408   5.117   3.412
14432TIP3    H243238   2.286   5.117   3.501
14433TIP3   OH243239   0.130   2.191   4.356
14433TIP3    H143240   0.078   2.201   4.436
14433TIP3    H243241   0.088   2.120   4.308
14434TIP3   OH243242   6.230   2.017   3.702
14434TIP3    H143243   6.212   2.000   3.610
14434TIP3    H243244   6.326   2.018   3.708
14435TIP3   OH243245   3.585   5.617   1.378
14435TIP3    H143246   3.490   5.624   1.371
14435TIP3    H243247   3.618   5.647   1.294
14436TIP3   OH243248   7.347   6.498   3.142
14436TIP3    H143249   7.282   6.534   3.202
14436TIP3    H243250   7.417   6.563   3.141
14437TIP3   OH243251   6.614   0.824   2.022
14437TIP3    H143252   6.574   0.777   2.095
14437TIP3    H243253   6.702   0.847   2.053
14438TIP3   OH243254   8.195   5.901   2.556
14438TIP3    H143255   8.250   5.972   2.589
14438TIP3    H243256   8.107   5.938   2.550
14439TIP3   OH243257   1.074   4.199   4.288
14439TIP3    H143258   1.089   4.104   4.285
14439TIP3    H243259   1.161   4.237   4.277
14440TIP3   OH243260   2.905   7.844   2.385
14440TIP3    H143261   2.819   7.805   2.371
14440TIP3    H243262   2.953   7.778   2.435
14441TIP3   OH243263   5.389   2.453   3.158
14441TIP3    H143264   5.398   2.394   3.083
14441TIP3    H243265   5.370   2.395   3.232
14442TIP3   OH243266   4.949   5.529   1.962
14442TIP3    H143267   4.974   5.498   1.875
14442TIP3    H243268   5.023   5.505   2.018
14443TIP3   OH243269   3.331   5.735   0.779
14443TIP3    H143270   3.250   5.695   0.749
14443TIP3    H243271   3.389   5.662   0.799
14444TIP3   OH243272   4.919   4.042   4.435
14444TIP3    H143273   4.966   3.960   4.424
14444TIP3    H243274   4.974   4.094   4.493
14445TIP3   OH243275   1.812   6.285   1.158
14445TIP3    H143276   1.760   6.354   1.116
14445TIP3    H243277   1.810   6.306   1.251
14446TIP3   OH243278   3.601   0.355   6.505
14446TIP3    H143279   3.584   0.283   6.444
14446TIP3    H243280   3.554   0.332   6.585
14447TIP3   OH243281   5.743   2.950   1.797
14447TIP3    H143282   5.660   2.994   1.817
14447TIP3    H243283   5.728   2.906   1.714
14448TIP3   OH243284   3.146   4.834   5.005
14448TIP3    H143285   3.211   4.793   4.949
14448TIP3    H243286   3.067   4.783   4.992
14449TIP3   OH243287   0.879   2.042   2.915
14449TIP3    H143288   0.968   2.006   2.915
14449TIP3    H243289   0.829   1.982   2.970
14450TIP3   OH243290   3.981   3.126   5.293
14450TIP3    H143291   4.006   3.217   5.311
14450TIP3    H243292   4.054   3.091   5.243
14451TIP3   OH243293   8.372   3.852   3.027
14451TIP3    H143294   8.347   3.928   2.974
14451TIP3    H243295   8.307   3.786   3.005
14452TIP3   OH243296   8.265   2.560   6.385
14452TIP3    H143297   8.346   2.612   6.382
14452TIP3    H243298   8.223   2.587   6.467
14453TIP3   OH243299   0.259   2.632   0.357
14453TIP3    H143300   0.210   2.555   0.385
14453TIP3    H243301   0.195   2.703   0.359
14454TIP3   OH243302   0.370   4.256   1.837
14454TIP3    H143303   0.349   4.166   1.811
14454TIP3    H243304   0.466   4.261   1.833
14455TIP3   OH243305   6.599   1.113   6.046
14455TIP3    H143306   6.528   1.084   5.989
14455TIP3    H243307   6.613   1.205   6.023
14456TIP3   OH243308   3.072   1.016   5.878
14456TIP3    H143309   3.078   0.958   5.953
14456TIP3    H243310   3.031   0.963   5.809
14457TIP3   OH243311   3.854   2.833   6.483
14457TIP3    H143312   3.934   2.840   6.431
14457TIP3    H243313   3.802   2.768   6.438
14458TIP3   OH243314   2.059   2.771   3.290
14458TIP3    H143315   2.137   2.760   3.345
14458TIP3    H243316   2.041   2.865   3.293
14459TIP3   OH243317   4.466   4.470   0.613
14459TIP3    H143318   4.389   4.468   0.670
14459TIP3    H243319   4.457   4.391   0.558
14460TIP3   OH243320   1.128   1.633   2.844
14460TIP3    H143321   1.169   1.595   2.767
14460TIP3    H243322   1.190   1.700   2.874
14461TIP3   OH243323   0.072   4.583   2.544
14461TIP3    H143324   0.037   4.654   2.490
14461TIP3    H243325   0.069   4.506   2.487
14462TIP3   OH243326   8.000   2.870   1.892
14462TIP3    H143327   7.960   2.922   1.961
14462TIP3    H243328   8.071   2.823   1.935
14463TIP3   OH243329   3.839   0.882   3.200
14463TIP3    H143330   3.774   0.844   3.259
14463TIP3    H243331   3.789   0.905   3.121
14464TIP3   OH243332   7.268   7.841   6.449
14464TIP3    H143333   7.248   7.840   6.355
14464TIP3    H243334   7.344   7.898   6.456
14465TIP3   OH243335   6.239   0.638   0.630
14465TIP3    H143336   6.166   0.651   0.569
14465TIP3    H243337   6.251   0.543   0.634
14466TIP3   OH243338   0.123   4.267   0.869
14466TIP3    H143339   0.074   4.214   0.932
14466TIP3    H243340   0.110   4.223   0.785
14467TIP3   OH243341   3.137   1.672   4.322
14467TIP3    H143342   3.086   1.742   4.362
14467TIP3    H243343   3.194   1.717   4.259
14468TIP3   OH243344   4.586   1.319   4.570
14468TIP3    H143345   4.663   1.261   4.568
14468TIP3    H243346   4.621   1.406   4.551
14469TIP3   OH243347   2.521   4.752   1.256
14469TIP3    H143348   2.552   4.670   1.294
14469TIP3    H243349   2.439   4.770   1.302
14470TIP3   OH243350   2.875   2.472   2.094
14470TIP3    H143351   2.946   2.408   2.100
14470TIP3    H243352   2.813   2.433   2.032
14471TIP3   OH243353   3.610   5.272   2.670
14471TIP3    H143354   3.539   5.252   2.731
14471TIP3    H243355   3.566   5.296   2.589
14472TIP3   OH243356   1.395   7.265   0.074
14472TIP3    H143357   1.466   7.215   0.033
14472TIP3    H243358   1.346   7.200   0.124
14473TIP3   OH243359   5.400   3.352   3.985
14473TIP3    H143360   5.344   3.413   3.937
14473TIP3    H243361   5.353   3.269   3.981
14474TIP3   OH243362   6.436   6.153   5.493
14474TIP3    H143363   6.518   6.156   5.543
14474TIP3    H243364   6.367   6.152   5.559
14475TIP3   OH243365   4.528   6.819   1.804
14475TIP3    H143366   4.538   6.755   1.734
14475TIP3    H243367   4.435   6.813   1.828
14476TIP3   OH243368   7.326   4.688   2.230
14476TIP3    H143369   7.356   4.777   2.244
14476TIP3    H243370   7.402   4.643   2.194
14477TIP3   OH243371   2.386   7.067   0.869
14477TIP3    H143372   2.296   7.074   0.839
14477TIP3    H243373   2.433   7.135   0.821
14478TIP3   OH243374   1.187   2.107   3.094
14478TIP3    H143375   1.094   2.113   3.116
14478TIP3    H243376   1.231   2.155   3.164
14479TIP3   OH243377   2.922   0.474   3.536
14479TIP3    H143378   2.913   0.378   3.533
14479TIP3    H243379   2.847   0.506   3.485
14480TIP3   OH243380   0.396   6.617   1.337
14480TIP3    H143381   0.429   6.696   1.381
14480TIP3    H243382   0.344   6.573   1.404
14481TIP3   OH243383   2.994   3.943   1.382
14481TIP3    H143384   2.969   4.006   1.450
14481TIP3    H243385   2.942   3.967   1.306
14482TIP3   OH243386   5.625   3.831   5.416
14482TIP3    H143387   5.595   3.746   5.451
14482TIP3    H243388   5.673   3.870   5.489
14483TIP3   OH243389   3.261   4.122   6.006
14483TIP3    H143390   3.257   4.027   6.015
14483TIP3    H243391   3.260   4.155   6.096
14484TIP3   OH243392   5.295   3.500   1.588
14484TIP3    H143393   5.236   3.514   1.663
14484TIP3    H243394   5.382   3.521   1.623
14485TIP3   OH243395   6.797   2.918   3.693
14485TIP3    H143396   6.784   2.996   3.639
14485TIP3    H243397   6.891   2.916   3.711
14486TIP3   OH243398   5.794   6.599   0.809
14486TIP3    H143399   5.714   6.560   0.845
14486TIP3    H243400   5.766   6.641   0.728
14487TIP3   OH243401   3.727   3.768   0.846
14487TIP3    H143402   3.814   3.730   0.838
14487TIP3    H243403   3.728   3.844   0.788
14488TIP3   OH243404   4.696   7.256   0.325
14488TIP3    H143405   4.775   7.240   0.377
14488TIP3    H243406   4.686   7.177   0.272
14489TIP3   OH243407   5.099   1.289   3.809
14489TIP3    H143408   5.103   1.368   3.755
14489TIP3    H243409   5.006   1.278   3.829
14490TIP3   OH243410   3.848   5.834   2.651
14490TIP3    H143411   3.808   5.785   2.579
14490TIP3    H243412   3.775   5.884   2.689
14491TIP3   OH243413   4.512   2.488   1.464
14491TIP3    H143414   4.450   2.557   1.488
14491TIP3    H243415   4.597   2.523   1.488
14492TIP3   OH243416   2.994   0.537   6.566
14492TIP3    H143417   2.902   0.513   6.579
14492TIP3    H243418   2.998   0.630   6.587
14493TIP3   OH243419   4.667   0.970   0.719
14493TIP3    H143420   4.738   1.027   0.689
14493TIP3    H243421   4.671   0.975   0.815
14494TIP3   OH243422   6.170   5.342   3.861
14494TIP3    H143423   6.085   5.385   3.869
14494TIP3    H243424   6.230   5.413   3.838
14495TIP3   OH243425   7.771   3.387   1.238
14495TIP3    H143426   7.750   3.390   1.145
14495TIP3    H243427   7.835   3.456   1.251
14496TIP3   OH243428   1.796   0.192   5.853
14496TIP3    H143429   1.882   0.161   5.825
14496TIP3    H243430   1.799   0.287   5.840
14497TIP3   OH243431   8.092   0.575   0.721
14497TIP3    H143432   8.062   0.489   0.753
14497TIP3    H243433   8.185   0.562   0.702
14498TIP3   OH243434   0.244   1.635   3.697
14498TIP3    H143435   0.215   1.726   3.705
14498TIP3    H243436   0.323   1.640   3.643
14499TIP3   OH243437   6.500   2.108   1.649
14499TIP3    H143438   6.571   2.104   1.714
14499TIP3    H243439   6.481   2.201   1.641
14500TIP3   OH243440   3.825   0.401   1.264
14500TIP3    H143441   3.764   0.374   1.332
14500TIP3    H243442   3.912   0.389   1.304
14501TIP3   OH243443   2.340   7.519   5.524
14501TIP3    H143444   2.395   7.587   5.486
14501TIP3    H243445   2.252   7.539   5.492
14502TIP3   OH243446   1.717   7.688   3.745
14502TIP3    H143447   1.704   7.782   3.736
14502TIP3    H243448   1.668   7.649   3.673
14503TIP3   OH243449   4.060   3.700   6.804
14503TIP3    H143450   4.032   3.633   6.867
14503TIP3    H243451   4.004   3.775   6.823
14504TIP3   OH243452   0.741   3.816   3.370
14504TIP3    H143453   0.787   3.824   3.453
14504TIP3    H243454   0.794   3.753   3.320
14505TIP3   OH243455   7.309   6.523   2.566
14505TIP3    H143456   7.227   6.568   2.588
14505TIP3    H243457   7.341   6.490   2.649
14506TIP3   OH243458   5.905   4.904   4.488
14506TIP3    H143459   5.849   4.860   4.425
14506TIP3    H243460   5.881   4.996   4.482
14507TIP3   OH243461   7.931   5.345   5.690
14507TIP3    H143462   7.919   5.262   5.737
14507TIP3    H243463   7.878   5.336   5.611
14508TIP3   OH243464   1.678   7.043   4.101
14508TIP3    H143465   1.617   7.113   4.078
14508TIP3    H243466   1.628   6.984   4.158
14509TIP3   OH243467   5.613   4.237   3.179
14509TIP3    H143468   5.567   4.227   3.096
14509TIP3    H243469   5.680   4.303   3.161
14510TIP3   OH243470   5.663   7.041   3.764
14510TIP3    H143471   5.645   6.949   3.744
14510TIP3    H243472   5.598   7.065   3.830
14511TIP3   OH243473   0.898   7.296   5.040
14511TIP3    H143474   0.950   7.346   4.977
14511TIP3    H243475   0.880   7.213   4.996
14512TIP3   OH243476   7.740   6.875   2.366
14512TIP3    H143477   7.762   6.948   2.307
14512TIP3    H243478   7.731   6.799   2.308
14513TIP3   OH243479   8.330   2.432   2.219
14513TIP3    H143480   8.412   2.383   2.206
14513TIP3    H243481   8.349   2.492   2.291
14514TIP3   OH243482   7.430   7.237   5.478
14514TIP3    H143483   7.397   7.182   5.407
14514TIP3    H243484   7.353   7.285   5.510
14515TIP3   OH243485   3.831   7.710   6.103
14515TIP3    H143486   3.922   7.705   6.130
14515TIP3    H243487   3.823   7.795   6.060
14516TIP3   OH243488   1.685   1.239   0.224
14516TIP3    H143489   1.722   1.258   0.139
14516TIP3    H243490   1.621   1.169   0.208
14517TIP3   OH243491   3.951   6.553   6.391
14517TIP3    H143492   4.037   6.587   6.366
14517TIP3    H243493   3.933   6.486   6.325
14518TIP3   OH243494   6.644   3.504   0.287
14518TIP3    H143495   6.726   3.541   0.253
14518TIP3    H243496   6.630   3.548   0.371
14519TIP3   OH243497   6.815   3.450   1.676
14519TIP3    H143498   6.852   3.364   1.697
14519TIP3    H243499   6.757   3.469   1.750
14520TIP3   OH243500   4.050   6.419   2.286
14520TIP3    H143501   4.130   6.466   2.308
14520TIP3    H243502   4.055   6.404   2.192
14521TIP3   OH243503   4.610   4.661   4.079
14521TIP3    H143504   4.523   4.689   4.107
14521TIP3    H243505   4.624   4.578   4.126
14522TIP3   OH243506   1.332   4.214   5.358
14522TIP3    H143507   1.236   4.216   5.368
14522TIP3    H243508   1.357   4.129   5.395
14523TIP3   OH243509   4.590   0.129   4.898
14523TIP3    H143510   4.501   0.110   4.926
14523TIP3    H243511   4.643   0.059   4.937
14524TIP3   OH243512   2.297   0.521   4.341
14524TIP3    H143513   2.343   0.591   4.388
14524TIP3    H243514   2.302   0.445   4.399
14525TIP3   OH243515   7.626   2.897   0.507
14525TIP3    H143516   7.577   2.815   0.504
14525TIP3    H243517   7.658   2.910   0.418
14526TIP3   OH243518   1.771   5.387   2.327
14526TIP3    H143519   1.750   5.403   2.235
14526TIP3    H243520   1.688   5.362   2.367
14527TIP3   OH243521   0.817   5.589   5.634
14527TIP3    H143522   0.760   5.665   5.631
14527TIP3    H243523   0.856   5.591   5.721
14528TIP3   OH243524   0.200   5.912   4.288
14528TIP3    H143525   0.144   5.847   4.329
14528TIP3    H243526   0.139   5.974   4.247
14529TIP3   OH243527   2.576   3.413   1.474
14529TIP3    H143528   2.633   3.364   1.414
14529TIP3    H243529   2.582   3.503   1.444
14530TIP3   OH243530   8.159   4.920   3.704
14530TIP3    H143531   8.182   4.990   3.642
14530TIP3    H243532   8.125   4.851   3.648
14531TIP3   OH243533   1.215   1.149   1.044
14531TIP3    H143534   1.264   1.097   1.108
14531TIP3    H243535   1.276   1.219   1.018
14532TIP3   OH243536   8.350   1.840   0.778
14532TIP3    H143537   8.408   1.782   0.729
14532TIP3    H243538   8.273   1.850   0.722
14533TIP3   OH243539   5.228   0.911   2.657
14533TIP3    H143540   5.258   1.002   2.657
14533TIP3    H243541   5.161   0.908   2.589
14534TIP3   OH243542   5.789   5.091   3.976
14534TIP3    H143543   5.869   5.055   4.014
14534TIP3    H243544   5.776   5.040   3.896
14535TIP3   OH243545   6.737   7.818   2.998
14535TIP3    H143546   6.739   7.722   2.992
14535TIP3    H243547   6.819   7.841   3.042
14536TIP3   OH243548   6.763   3.934   1.012
14536TIP3    H143549   6.822   3.924   1.087
14536TIP3    H243550   6.779   3.855   0.960
14537TIP3   OH243551   0.518   5.336   5.078
14537TIP3    H143552   0.594   5.296   5.035
14537TIP3    H243553   0.463   5.366   5.006
14538TIP3   OH243554   6.215   5.970   1.431
14538TIP3    H143555   6.295   5.996   1.477
14538TIP3    H243556   6.191   6.048   1.379
14539TIP3   OH243557   1.545   2.084   6.400
14539TIP3    H143558   1.523   2.171   6.367
14539TIP3    H243559   1.481   2.068   6.469
14540TIP3   OH243560   1.678   7.495   0.875
14540TIP3    H143561   1.670   7.412   0.922
14540TIP3    H243562   1.603   7.496   0.815
14541TIP3   OH243563   1.324   1.932   5.501
14541TIP3    H143564   1.234   1.947   5.471
14541TIP3    H243565   1.333   1.988   5.578
14542TIP3   OH243566   0.935   7.712   4.754
14542TIP3    H143567   1.030   7.698   4.744
14542TIP3    H243568   0.920   7.702   4.849
14543TIP3   OH243569   2.511   4.689   1.689
14543TIP3    H143570   2.555   4.615   1.647
14543TIP3    H243571   2.516   4.759   1.624
14544TIP3   OH243572   4.173   1.359   1.717
14544TIP3    H143573   4.243   1.315   1.765
14544TIP3    H243574   4.120   1.288   1.681
14545TIP3   OH243575   7.574   1.223   2.111
14545TIP3    H143576   7.662   1.221   2.073
14545TIP3    H243577   7.515   1.229   2.036
14546TIP3   OH243578   7.443   0.850   0.491
14546TIP3    H143579   7.522   0.868   0.439
14546TIP3    H243580   7.457   0.897   0.573
14547TIP3   OH243581   3.712   7.537   5.474
14547TIP3    H143582   3.678   7.487   5.548
14547TIP3    H243583   3.736   7.622   5.512
14548TIP3   OH243584   8.151   2.485   1.533
14548TIP3    H143585   8.164   2.468   1.440
14548TIP3    H243586   8.151   2.398   1.573
14549TIP3   OH243587   3.967   1.110   4.082
14549TIP3    H143588   3.922   1.128   4.000
14549TIP3    H243589   4.014   1.190   4.102
14550TIP3   OH243590   3.040   7.012   3.189
14550TIP3    H143591   2.998   7.013   3.103
14550TIP3    H243592   3.070   6.922   3.200
14551TIP3   OH243593   1.851   5.637   5.160
14551TIP3    H143594   1.915   5.628   5.231
14551TIP3    H243595   1.766   5.633   5.204
14552TIP3   OH243596   4.433   2.311   0.350
14552TIP3    H143597   4.509   2.370   0.354
14552TIP3    H243598   4.384   2.329   0.430
14553TIP3   OH243599   3.852   4.883   1.165
14553TIP3    H143600   3.872   4.790   1.174
14553TIP3    H243601   3.914   4.926   1.225
14554TIP3   OH243602   4.639   2.413   3.298
14554TIP3    H143603   4.722   2.377   3.265
14554TIP3    H243604   4.617   2.357   3.373
14555TIP3   OH243605   2.353   0.234   4.528
14555TIP3    H143606   2.386   0.272   4.609
14555TIP3    H243607   2.292   0.166   4.557
14556TIP3   OH243608   5.711   4.471   4.365
14556TIP3    H143609   5.622   4.436   4.359
14556TIP3    H243610   5.726   4.482   4.459
14557TIP3   OH243611   2.573   1.083   6.387
14557TIP3    H143612   2.663   1.054   6.405
14557TIP3    H243613   2.526   1.068   6.468
14558TIP3   OH243614   5.920   6.888   5.302
14558TIP3    H143615   6.001   6.858   5.343
14558TIP3    H243616   5.901   6.972   5.344
14559TIP3   OH243617   1.682   2.006   6.148
14559TIP3    H143618   1.619   2.046   6.208
14559TIP3    H243619   1.634   1.993   6.066
14560TIP3   OH243620   5.394   7.655   2.896
14560TIP3    H143621   5.346   7.573   2.897
14560TIP3    H243622   5.350   7.709   2.962
14561TIP3   OH243623   3.771   6.758   0.400
14561TIP3    H143624   3.751   6.736   0.309
14561TIP3    H243625   3.748   6.851   0.408
14562TIP3   OH243626   5.568   2.023   6.274
14562TIP3    H143627   5.520   1.975   6.207
14562TIP3    H243628   5.562   2.115   6.247
14563TIP3   OH243629   6.762   5.643   0.048
14563TIP3    H143630   6.772   5.693   0.129
14563TIP3    H243631   6.702   5.695  -0.005
14564TIP3   OH243632   1.167   1.215   6.224
14564TIP3    H143633   1.229   1.277   6.184
14564TIP3    H243634   1.190   1.130   6.186
14565TIP3   OH243635   1.442   3.074   4.479
14565TIP3    H143636   1.397   3.038   4.402
14565TIP3    H243637   1.468   2.997   4.529
14566TIP3   OH243638   2.760   7.288   4.630
14566TIP3    H143639   2.777   7.234   4.707
14566TIP3    H243640   2.765   7.227   4.556
14567TIP3   OH243641   8.379   6.089   6.678
14567TIP3    H143642   8.316   6.019   6.661
14567TIP3    H243643   8.452   6.047   6.722
14568TIP3   OH243644   4.683   4.798   5.695
14568TIP3    H143645   4.593   4.766   5.707
14568TIP3    H243646   4.679   4.851   5.616
14569TIP3   OH243647   0.859   7.723   3.900
14569TIP3    H143648   0.916   7.697   3.828
14569TIP3    H243649   0.849   7.644   3.953
14570TIP3   OH243650   5.831   3.160   5.116
14570TIP3    H143651   5.834   3.148   5.211
14570TIP3    H243652   5.923   3.169   5.090
14571TIP3   OH243653   6.948   6.733   4.085
14571TIP3    H143654   6.943   6.793   4.159
14571TIP3    H243655   7.036   6.695   4.091
14572TIP3   OH243656   7.974   6.646   2.636
14572TIP3    H143657   7.987   6.740   2.629
14572TIP3    H243658   7.962   6.616   2.546
14573TIP3   OH243659   8.051   5.595   3.750
14573TIP3    H143660   7.960   5.565   3.751
14573TIP3    H243661   8.050   5.676   3.801
14574TIP3   OH243662   6.824   6.657   1.781
14574TIP3    H143663   6.838   6.668   1.687
14574TIP3    H243664   6.787   6.569   1.790
14575TIP3   OH243665   3.198   6.744   1.594
14575TIP3    H143666   3.136   6.762   1.665
14575TIP3    H243667   3.168   6.662   1.556
14576TIP3   OH243668   2.779   0.192   0.049
14576TIP3    H143669   2.707   0.224   0.104
14576TIP3    H243670   2.830   0.271   0.028
14577TIP3   OH243671   3.183   4.315   5.426
14577TIP3    H143672   3.114   4.264   5.469
14577TIP3    H243673   3.258   4.309   5.484
14578TIP3   OH243674   2.364   1.984   3.750
14578TIP3    H143675   2.459   1.987   3.738
14578TIP3    H243676   2.349   1.909   3.807
14579TIP3   OH243677   8.302   3.305   3.964
14579TIP3    H143678   8.334   3.339   3.881
14579TIP3    H243679   8.375   3.252   3.998
14580TIP3   OH243680   7.718   0.390   3.817
14580TIP3    H143681   7.808   0.358   3.827
14580TIP3    H243682   7.728   0.478   3.781
14581TIP3   OH243683   7.203   3.118   3.940
14581TIP3    H143684   7.131   3.159   3.988
14581TIP3    H243685   7.279   3.128   3.997
14582TIP3   OH243686   5.827   7.511   4.988
14582TIP3    H143687   5.752   7.554   4.947
14582TIP3    H243688   5.869   7.581   5.039
14583TIP3   OH243689   0.334   5.536   0.976
14583TIP3    H143690   0.302   5.446   0.987
14583TIP3    H243691   0.429   5.529   0.985
14584TIP3   OH243692   6.074   2.469   0.676
14584TIP3    H143693   6.148   2.419   0.639
14584TIP3    H243694   6.098   2.483   0.768
14585TIP3   OH243695   0.849   2.437   4.920
14585TIP3    H143696   0.794   2.360   4.932
14585TIP3    H243697   0.859   2.445   4.825
14586TIP3   OH243698   3.379   5.676   2.719
14586TIP3    H143699   3.295   5.703   2.758
14586TIP3    H243700   3.443   5.691   2.789
14587TIP3   OH243701   8.121   7.586   1.292
14587TIP3    H143702   8.170   7.545   1.363
14587TIP3    H243703   8.188   7.621   1.234
14588TIP3   OH243704   7.005   7.634   1.450
14588TIP3    H143705   7.015   7.540   1.465
14588TIP3    H243706   7.095   7.668   1.451
14589TIP3   OH243707   2.282   3.902   5.615
14589TIP3    H143708   2.239   3.885   5.699
14589TIP3    H243709   2.215   3.946   5.562
14590TIP3   OH243710   4.363   7.700   6.207
14590TIP3    H143711   4.452   7.722   6.235
14590TIP3    H243712   4.375   7.650   6.126
14591TIP3   OH243713   6.184   7.192   2.140
14591TIP3    H143714   6.092   7.218   2.132
14591TIP3    H243715   6.233   7.274   2.128
14592TIP3   OH243716   7.811   1.892   4.183
14592TIP3    H143717   7.818   1.900   4.278
14592TIP3    H243718   7.790   1.799   4.168
14593TIP3   OH243719   4.499   1.228   2.814
14593TIP3    H143720   4.471   1.319   2.825
14593TIP3    H243721   4.586   1.225   2.856
14594TIP3   OH243722   0.478   4.627   4.433
14594TIP3    H143723   0.549   4.659   4.489
14594TIP3    H243724   0.515   4.550   4.390
14595TIP3   OH243725   2.489   1.550   6.015
14595TIP3    H143726   2.498   1.639   6.048
14595TIP3    H243727   2.574   1.509   6.033
14596TIP3   OH243728   3.812   0.594   1.898
14596TIP3    H143729   3.751   0.575   1.970
14596TIP3    H243730   3.778   0.674   1.858
14597TIP3   OH243731   4.716   5.353   5.037
14597TIP3    H143732   4.686   5.325   4.951
14597TIP3    H243733   4.798   5.400   5.021
14598TIP3   OH243734   5.729   0.890   5.996
14598TIP3    H143735   5.772   0.827   6.054
14598TIP3    H243736   5.724   0.845   5.911
14599TIP3   OH243737   5.796   0.756   0.215
14599TIP3    H143738   5.739   0.721   0.283
14599TIP3    H243739   5.874   0.701   0.218
14600TIP3   OH243740   3.627   1.149   0.311
14600TIP3    H143741   3.714   1.111   0.299
14600TIP3    H243742   3.598   1.168   0.221
14601TIP3   OH243743   4.350   0.374   3.171
14601TIP3    H143744   4.362   0.300   3.112
14601TIP3    H243745   4.408   0.442   3.137
14602TIP3   OH243746   0.878   6.578   5.624
14602TIP3    H143747   0.936   6.651   5.645
14602TIP3    H243748   0.935   6.501   5.625
14603TIP3   OH243749   1.544   0.519   3.054
14603TIP3    H143750   1.548   0.466   2.974
14603TIP3    H243751   1.585   0.602   3.030
14604TIP3   OH243752   7.685   6.958   6.729
14604TIP3    H143753   7.740   6.953   6.807
14604TIP3    H243754   7.688   7.050   6.703
14605TIP3   OH243755   5.085   4.580   0.938
14605TIP3    H143756   5.139   4.507   0.909
14605TIP3    H243757   5.133   4.618   1.011
14606TIP3   OH243758   4.751   3.851   4.903
14606TIP3    H143759   4.845   3.849   4.884
14606TIP3    H243760   4.731   3.766   4.940
14607TIP3   OH243761   5.020   2.097   3.930
14607TIP3    H143762   4.950   2.144   3.976
14607TIP3    H243763   5.064   2.048   3.999
14608TIP3   OH243764   1.273   3.438   4.947
14608TIP3    H143765   1.204   3.496   4.978
14608TIP3    H243766   1.232   3.352   4.940
14609TIP3   OH243767   0.761   1.267   4.898
14609TIP3    H143768   0.850   1.300   4.911
14609TIP3    H243769   0.728   1.317   4.823
14610TIP3   OH243770   6.298   7.869   2.398
14610TIP3    H143771   6.299   7.773   2.389
14610TIP3    H243772   6.339   7.886   2.482
14611TIP3   OH243773   3.089   4.049   3.465
14611TIP3    H143774   3.116   4.054   3.373
14611TIP3    H243775   3.112   4.134   3.502
14612TIP3   OH243776   4.804   1.343   4.279
14612TIP3    H143777   4.818   1.255   4.314
14612TIP3    H243778   4.729   1.333   4.220
14613TIP3   OH243779   5.215   0.089   6.133
14613TIP3    H143780   5.168   0.166   6.102
14613TIP3    H243781   5.151   0.018   6.128
14614TIP3   OH243782   1.436   2.445   0.643
14614TIP3    H143783   1.482   2.423   0.724
14614TIP3    H243784   1.372   2.375   0.632
14615TIP3   OH243785   6.328   2.893   6.092
14615TIP3    H143786   6.408   2.882   6.144
14615TIP3    H243787   6.271   2.822   6.120
14616TIP3   OH243788   5.243   0.962   5.732
14616TIP3    H143789   5.149   0.945   5.725
14616TIP3    H243790   5.261   1.031   5.668
14617TIP3   OH243791   8.125   3.050   3.022
14617TIP3    H143792   8.210   3.006   3.020
14617TIP3    H243793   8.126   3.106   2.945
14618TIP3   OH243794   1.235   4.933   4.284
14618TIP3    H143795   1.228   4.998   4.354
14618TIP3    H243796   1.185   4.970   4.211
14619TIP3   OH243797   3.124   5.580   3.068
14619TIP3    H143798   3.163   5.601   3.153
14619TIP3    H243799   3.037   5.545   3.090
14620TIP3   OH243800   3.232   0.442   1.011
14620TIP3    H143801   3.253   0.481   0.926
14620TIP3    H243802   3.215   0.350   0.992
14621TIP3   OH243803   6.737   1.976   2.911
14621TIP3    H143804   6.659   1.924   2.892
14621TIP3    H243805   6.703   2.064   2.929
14622TIP3   OH243806   5.442   1.729   0.942
14622TIP3    H143807   5.444   1.825   0.940
14622TIP3    H243808   5.357   1.708   0.981
14623TIP3   OH243809   5.125   2.291   3.127
14623TIP3    H143810   5.159   2.214   3.082
14623TIP3    H243811   5.087   2.344   3.057
14624TIP3   OH243812   3.931   0.237   2.798
14624TIP3    H143813   4.010   0.287   2.821
14624TIP3    H243814   3.964   0.162   2.748
14625TIP3   OH243815   7.750   2.686   5.183
14625TIP3    H143816   7.771   2.613   5.241
14625TIP3    H243817   7.762   2.764   5.237
14626TIP3   OH243818   6.717   0.071   6.722
14626TIP3    H143819   6.782   0.128   6.765
14626TIP3    H243820   6.769   0.004   6.679
14627TIP3   OH243821   5.094   2.990   1.951
14627TIP3    H143822   5.113   3.040   2.030
14627TIP3    H243823   5.173   2.938   1.935
14628TIP3   OH243824   0.998   1.017   4.181
14628TIP3    H143825   0.938   1.091   4.180
14628TIP3    H243826   0.953   0.951   4.234
14629TIP3   OH243827   5.728   4.166   5.978
14629TIP3    H143828   5.718   4.084   5.929
14629TIP3    H243829   5.740   4.233   5.911
14630TIP3   OH243830   8.062   0.574   0.395
14630TIP3    H143831   7.976   0.602   0.363
14630TIP3    H243832   8.060   0.595   0.489
14631TIP3   OH243833   5.198   6.156   0.098
14631TIP3    H143834   5.284   6.180   0.063
14631TIP3    H243835   5.167   6.236   0.141
14632TIP3   OH243836   5.510   6.698   4.438
14632TIP3    H143837   5.529   6.792   4.439
14632TIP3    H243838   5.523   6.670   4.529
14633TIP3   OH243839   6.565   0.901   5.254
14633TIP3    H143840   6.553   0.970   5.319
14633TIP3    H243841   6.637   0.848   5.288
14634TIP3   OH243842   1.905   0.506   0.838
14634TIP3    H143843   1.988   0.491   0.884
14634TIP3    H243844   1.902   0.439   0.770
14635TIP3   OH243845   1.624   1.972   5.427
14635TIP3    H143846   1.534   1.940   5.422
14635TIP3    H243847   1.676   1.894   5.448
14636TIP3   OH243848   2.322   5.407   5.341
14636TIP3    H143849   2.340   5.489   5.295
14636TIP3    H243850   2.245   5.371   5.297
14637TIP3   OH243851   4.719   3.789   4.345
14637TIP3    H143852   4.651   3.835   4.395
14637TIP3    H243853   4.719   3.832   4.259
14638TIP3   OH243854   1.030   3.858   3.858
14638TIP3    H143855   0.994   3.945   3.841
14638TIP3    H243856   1.047   3.857   3.952
14639TIP3   OH243857   7.557   5.724   6.204
14639TIP3    H143858   7.466   5.703   6.224
14639TIP3    H243859   7.592   5.644   6.165
14640TIP3   OH243860   4.514   5.455   2.579
14640TIP3    H143861   4.455   5.393   2.622
14640TIP3    H243862   4.564   5.493   2.652
14641TIP3   OH243863   2.821   5.582   6.474
14641TIP3    H143864   2.914   5.604   6.461
14641TIP3    H243865   2.807   5.504   6.421
14642TIP3   OH243866   5.772   1.846   5.538
14642TIP3    H143867   5.796   1.872   5.449
14642TIP3    H243868   5.791   1.752   5.541
14643TIP3   OH243869   7.816   2.326   1.700
14643TIP3    H143870   7.876   2.331   1.774
14643TIP3    H243871   7.817   2.415   1.662
14644TIP3   OH243872   7.355   4.208   6.610
14644TIP3    H143873   7.390   4.201   6.698
14644TIP3    H243874   7.396   4.136   6.561
14645TIP3   OH243875   3.243   5.097   2.395
14645TIP3    H143876   3.206   5.124   2.312
14645TIP3    H243877   3.201   5.154   2.460
14646TIP3   OH243878   0.621   1.628   6.589
14646TIP3    H143879   0.561   1.554   6.574
14646TIP3    H243880   0.668   1.604   6.669
14647TIP3   OH243881   5.425   3.370   1.843
14647TIP3    H143882   5.436   3.455   1.801
14647TIP3    H243883   5.339   3.374   1.884
14648TIP3   OH243884   6.860   6.891   6.748
14648TIP3    H143885   6.893   6.813   6.794
14648TIP3    H243886   6.919   6.901   6.673
14649TIP3   OH243887   3.708   7.609   2.880
14649TIP3    H143888   3.680   7.585   2.968
14649TIP3    H243889   3.767   7.538   2.853
14650TIP3   OH243890   0.164   4.973   3.429
14650TIP3    H143891   0.102   5.046   3.433
14650TIP3    H243892   0.125   4.912   3.367
14651TIP3   OH243893   5.576   4.263   2.406
14651TIP3    H143894   5.600   4.335   2.348
14651TIP3    H243895   5.647   4.199   2.395
14652TIP3   OH243896   2.927   3.986   2.208
14652TIP3    H143897   2.948   3.895   2.189
14652TIP3    H243898   2.996   4.036   2.164
14653TIP3   OH243899   6.420   2.217   5.704
14653TIP3    H143900   6.449   2.244   5.617
14653TIP3    H243901   6.481   2.260   5.764
14654TIP3   OH243902   0.185   1.849   4.470
14654TIP3    H143903   0.157   1.793   4.397
14654TIP3    H243904   0.121   1.833   4.539
14655TIP3   OH243905   6.595   2.569   5.372
14655TIP3    H143906   6.501   2.551   5.370
14655TIP3    H243907   6.636   2.485   5.351
14656TIP3   OH243908   3.613   7.254   1.450
14656TIP3    H143909   3.633   7.346   1.470
14656TIP3    H243910   3.607   7.212   1.535
14657TIP3   OH243911   0.023   1.190   3.368
14657TIP3    H143912   0.115   1.216   3.371
14657TIP3    H243913   0.018   1.128   3.295
14658TIP3   OH243914   5.383   2.556   2.568
14658TIP3    H143915   5.374   2.556   2.663
14658TIP3    H243916   5.351   2.643   2.541
14659TIP3   OH243917   5.315   2.306   2.088
14659TIP3    H143918   5.384   2.278   2.028
14659TIP3    H243919   5.236   2.310   2.034
14660TIP3   OH243920   6.342   7.248   2.490
14660TIP3    H143921   6.409   7.211   2.432
14660TIP3    H243922   6.277   7.178   2.498
14661TIP3   OH243923   4.757   1.163   2.874
14661TIP3    H143924   4.788   1.242   2.830
14661TIP3    H243925   4.837   1.120   2.905
14662TIP3   OH243926   4.523   2.405   5.243
14662TIP3    H143927   4.546   2.313   5.251
14662TIP3    H243928   4.533   2.425   5.150
14663TIP3   OH243929   6.260   6.097   4.632
14663TIP3    H143930   6.301   6.048   4.703
14663TIP3    H243931   6.325   6.095   4.561
14664TIP3   OH243932   6.021   0.206   2.657
14664TIP3    H143933   6.075   0.239   2.585
14664TIP3    H243934   6.083   0.193   2.729
14665TIP3   OH243935   2.860   0.741   2.227
14665TIP3    H143936   2.905   0.741   2.311
14665TIP3    H243937   2.846   0.648   2.207
14666TIP3   OH243938   2.340   7.196   5.021
14666TIP3    H143939   2.276   7.266   5.030
14666TIP3    H243940   2.344   7.155   5.108
14667TIP3   OH243941   2.830   4.833   3.270
14667TIP3    H143942   2.739   4.861   3.260
14667TIP3    H243943   2.876   4.912   3.297
14668TIP3   OH243944   5.440   7.019   3.041
14668TIP3    H143945   5.381   7.082   3.083
14668TIP3    H243946   5.393   6.936   3.045
14669TIP3   OH243947   5.870   5.645   0.836
14669TIP3    H143948   5.928   5.718   0.859
14669TIP3    H243949   5.923   5.588   0.781
14670TIP3   OH243950   7.837   5.694   6.461
14670TIP3    H143951   7.925   5.712   6.427
14670TIP3    H243952   7.785   5.770   6.434
14671TIP3   OH243953   0.709   5.471   4.352
14671TIP3    H143954   0.639   5.501   4.410
14671TIP3    H243955   0.665   5.445   4.272
14672TIP3   OH243956   0.111   3.466   6.162
14672TIP3    H143957   0.138   3.462   6.071
14672TIP3    H243958   0.182   3.512   6.207
14673TIP3   OH243959   6.934   2.489   4.806
14673TIP3    H143960   7.018   2.535   4.797
14673TIP3    H243961   6.880   2.524   4.735
14674TIP3   OH243962   6.536   0.050   3.374
14674TIP3    H143963   6.501   0.138   3.365
14674TIP3    H243964   6.631   0.061   3.369
14675TIP3   OH243965   0.489   0.099   1.406
14675TIP3    H143966   0.568   0.146   1.433
14675TIP3    H243967   0.465   0.138   1.323
14676TIP3   OH243968   5.829   6.914   5.996
14676TIP3    H143969   5.744   6.881   6.025
14676TIP3    H243970   5.808   6.976   5.925
14677TIP3   OH243971   7.369   3.870   5.301
14677TIP3    H143972   7.369   3.952   5.351
14677TIP3    H243973   7.307   3.814   5.347
14678TIP3   OH243974   1.936   1.888   6.265
14678TIP3    H143975   1.925   1.898   6.360
14678TIP3    H243976   1.862   1.936   6.227
14679TIP3   OH243977   6.135   1.331   5.378
14679TIP3    H143978   6.186   1.324   5.297
14679TIP3    H243979   6.078   1.254   5.376
14680TIP3   OH243980   6.874   4.447   1.053
14680TIP3    H143981   6.939   4.418   0.989
14680TIP3    H243982   6.793   4.403   1.027
14681TIP3   OH243983   5.142   0.627   1.812
14681TIP3    H143984   5.074   0.614   1.878
14681TIP3    H243985   5.096   0.668   1.738
14682TIP3   OH243986   7.547   0.424   3.421
14682TIP3    H143987   7.612   0.490   3.397
14682TIP3    H243988   7.507   0.458   3.501
14683TIP3   OH243989   7.231   5.602   3.777
14683TIP3    H143990   7.245   5.695   3.763
14683TIP3    H243991   7.241   5.589   3.872
14684TIP3   OH243992  -0.016   4.666   0.188
14684TIP3    H143993   0.008   4.574   0.182
14684TIP3    H243994   0.056   4.707   0.236
14685TIP3   OH243995   0.669   6.616   5.444
14685TIP3    H143996   0.741   6.595   5.503
14685TIP3    H243997   0.613   6.675   5.496
14686TIP3   OH243998   3.448   5.886   3.199
14686TIP3    H143999   3.353   5.901   3.202
14686TIP3    H244000   3.486   5.974   3.203
14687TIP3   OH244001   5.915   2.923   5.714
14687TIP3    H144002   5.856   2.876   5.772
14687TIP3    H244003   5.924   2.866   5.638
14688TIP3   OH244004   5.582   2.681   4.325
14688TIP3    H144005   5.513   2.619   4.302
14688TIP3    H244006   5.629   2.696   4.242
14689TIP3   OH244007   6.168   6.732   5.918
14689TIP3    H144008   6.177   6.696   5.830
14689TIP3    H244009   6.170   6.827   5.905
14690TIP3   OH244010   7.501   6.130   5.566
14690TIP3    H144011   7.464   6.173   5.489
14690TIP3    H244012   7.559   6.196   5.605
14691TIP3   OH244013   7.781   6.139   4.754
14691TIP3    H144014   7.793   6.107   4.843
14691TIP3    H244015   7.690   6.121   4.733
14692TIP3   OH244016   3.385   6.988   5.868
14692TIP3    H144017   3.330   6.994   5.946
14692TIP3    H244018   3.325   7.000   5.795
14693TIP3   OH244019   3.053   3.863   2.952
14693TIP3    H144020   2.959   3.843   2.952
14693TIP3    H244021   3.058   3.957   2.937
14694TIP3   OH244022   6.878   1.243   5.178
14694TIP3    H144023   6.920   1.285   5.253
14694TIP3    H244024   6.902   1.151   5.186
14695TIP3   OH244025   4.924   0.676   1.620
14695TIP3    H144026   4.883   0.742   1.563
14695TIP3    H244027   4.852   0.616   1.641
14696TIP3   OH244028   3.580   6.958   0.404
14696TIP3    H144029   3.576   6.932   0.496
14696TIP3    H244030   3.632   7.038   0.405
14697TIP3   OH244031   5.018   7.819   1.856
14697TIP3    H144032   4.927   7.798   1.876
14697TIP3    H244033   5.051   7.743   1.808
14698TIP3   OH244034   6.079   2.458   6.672
14698TIP3    H144035   6.063   2.376   6.624
14698TIP3    H244036   6.140   2.506   6.617
14699TIP3   OH244037   6.814   7.626   3.988
14699TIP3    H144038   6.796   7.720   3.984
14699TIP3    H244039   6.838   7.610   4.079
14700TIP3   OH244040   7.531   0.158   4.796
14700TIP3    H144041   7.502   0.191   4.881
14700TIP3    H244042   7.594   0.089   4.818
14701TIP3   OH244043   3.598   3.504   3.502
14701TIP3    H144044   3.563   3.417   3.486
14701TIP3    H244045   3.551   3.561   3.441
14702TIP3   OH244046   4.843   4.437   0.862
14702TIP3    H144047   4.938   4.443   0.854
14702TIP3    H244048   4.812   4.421   0.773
14703TIP3   OH244049   2.855   2.883   2.654
14703TIP3    H144050   2.809   2.960   2.621
14703TIP3    H244051   2.857   2.895   2.749
14704TIP3   OH244052   4.366   5.506   0.824
14704TIP3    H144053   4.449   5.524   0.780
14704TIP3    H244054   4.300   5.537   0.762
14705TIP3   OH244055   4.278   7.782   5.895
14705TIP3    H144056   4.298   7.796   5.802
14705TIP3    H244057   4.322   7.853   5.941
14706TIP3   OH244058   6.982   4.786   0.169
14706TIP3    H144059   6.953   4.802   0.080
14706TIP3    H244060   7.031   4.864   0.194
14707TIP3   OH244061   1.145   4.190   0.124
14707TIP3    H144062   1.050   4.196   0.130
14707TIP3    H244063   1.177   4.264   0.176
14708TIP3   OH244064   5.094   3.251   4.809
14708TIP3    H144065   5.145   3.179   4.847
14708TIP3    H244066   5.135   3.267   4.724
14709TIP3   OH244067   0.896   1.275   6.212
14709TIP3    H144068   0.880   1.309   6.125
14709TIP3    H244069   0.990   1.258   6.214
14710TIP3   OH244070   6.436   4.673   2.461
14710TIP3    H144071   6.396   4.650   2.377
14710TIP3    H244072   6.435   4.592   2.512
14711TIP3   OH244073   6.964   1.401  -0.002
14711TIP3    H144074   6.892   1.425   0.057
14711TIP3    H244075   7.043   1.431   0.043
14712TIP3   OH244076   0.728   2.617   6.800
14712TIP3    H144077   0.734   2.525   6.827
14712TIP3    H244078   0.688   2.661   6.875
14713TIP3   OH244079   7.389   7.741   1.723
14713TIP3    H144080   7.418   7.821   1.766
14713TIP3    H244081   7.318   7.708   1.779
14714TIP3   OH244082   0.114   2.686   5.509
14714TIP3    H144083   0.022   2.671   5.532
14714TIP3    H244084   0.132   2.621   5.442
14715TIP3   OH244085   7.313   7.291   0.623
14715TIP3    H144086   7.393   7.327   0.661
14715TIP3    H244087   7.343   7.218   0.569
14716TIP3   OH244088   6.963   4.180   1.254
14716TIP3    H144089   6.876   4.152   1.225
14716TIP3    H244090   6.946   4.247   1.320
14717TIP3   OH244091   6.106   3.724   3.057
14717TIP3    H144092   6.122   3.634   3.030
14717TIP3    H244093   6.151   3.732   3.141
14718TIP3   OH244094   8.038   5.347   4.629
14718TIP3    H144095   8.016   5.334   4.537
14718TIP3    H244096   7.954   5.354   4.673
14719TIP3   OH244097   7.184   0.103   5.181
14719TIP3    H144098   7.197   0.010   5.199
14719TIP3    H244099   7.249   0.147   5.236
14720TIP3   OH244100   3.783   3.418   2.192
14720TIP3    H144101   3.860   3.412   2.135
14720TIP3    H244102   3.759   3.327   2.209
14721TIP3   OH244103   6.163   6.226   3.737
14721TIP3    H144104   6.183   6.220   3.831
14721TIP3    H244105   6.171   6.136   3.706
14722TIP3   OH244106   6.035   1.042   3.295
14722TIP3    H144107   6.084   0.967   3.262
14722TIP3    H244108   6.041   1.107   3.225
14723TIP3   OH244109   3.779   0.676   0.235
14723TIP3    H144110   3.874   0.666   0.233
14723TIP3    H244111   3.751   0.627   0.312
14724TIP3   OH244112   2.732   6.404   2.134
14724TIP3    H144113   2.717   6.383   2.226
14724TIP3    H244114   2.757   6.320   2.095
14725TIP3   OH244115   7.530   2.838   6.371
14725TIP3    H144116   7.534   2.744   6.353
14725TIP3    H244117   7.448   2.851   6.418
14726TIP3   OH244118   1.857   7.287   3.049
14726TIP3    H144119   1.934   7.234   3.030
14726TIP3    H244120   1.891   7.364   3.093
14727TIP3   OH244121   7.511   7.697   6.362
14727TIP3    H144122   7.507   7.603   6.381
14727TIP3    H244123   7.431   7.733   6.401
14728TIP3   OH244124   3.967   2.196   1.283
14728TIP3    H144125   3.998   2.284   1.262
14728TIP3    H244126   3.933   2.203   1.372
14729TIP3   OH244127   5.246   1.904   6.175
14729TIP3    H144128   5.335   1.874   6.156
14729TIP3    H244129   5.195   1.823   6.186
14730TIP3   OH244130   1.889   5.284   2.958
14730TIP3    H144131   1.888   5.374   2.991
14730TIP3    H244132   1.940   5.289   2.877
14731TIP3   OH244133   6.019   5.422   2.543
14731TIP3    H144134   6.031   5.472   2.624
14731TIP3    H244135   5.972   5.482   2.485
14732TIP3   OH244136   2.124   3.158   0.834
14732TIP3    H144137   2.076   3.110   0.902
14732TIP3    H244138   2.149   3.241   0.876
14733TIP3   OH244139   4.497   6.500   5.569
14733TIP3    H144140   4.430   6.555   5.611
14733TIP3    H244141   4.580   6.545   5.588
14734TIP3   OH244142   8.309   2.844   2.203
14734TIP3    H144143   8.317   2.937   2.179
14734TIP3    H244144   8.342   2.797   2.126
14735TIP3   OH244145   5.413   3.105   3.381
14735TIP3    H144146   5.450   3.132   3.296
14735TIP3    H244147   5.440   3.173   3.442
14736TIP3   OH244148   6.110   4.744   5.070
14736TIP3    H144149   6.036   4.771   5.125
14736TIP3    H244150   6.179   4.720   5.133
14737TIP3   OH244151   2.142   0.245   0.056
14737TIP3    H144152   2.141   0.175   0.121
14737TIP3    H244153   2.111   0.322   0.104
14738TIP3   OH244154   3.876   3.923   4.002
14738TIP3    H144155   3.897   3.830   4.012
14738TIP3    H244156   3.907   3.964   4.083
14739TIP3   OH244157   0.149   6.931   0.324
14739TIP3    H144158   0.123   6.974   0.242
14739TIP3    H244159   0.097   6.974   0.391
14740TIP3   OH244160   4.750   7.266   1.301
14740TIP3    H144161   4.836   7.307   1.307
14740TIP3    H244162   4.692   7.326   1.349
14741TIP3   OH244163   1.956   1.109   3.182
14741TIP3    H144164   1.918   1.145   3.262
14741TIP3    H244165   2.041   1.073   3.211
14742TIP3   OH244166   4.101   1.230   2.765
14742TIP3    H144167   4.119   1.278   2.846
14742TIP3    H244168   4.174   1.169   2.756
14743TIP3   OH244169   0.223   6.408   4.970
14743TIP3    H144170   0.261   6.323   4.946
14743TIP3    H244171   0.129   6.389   4.979
14744TIP3   OH244172   0.084   3.304   2.466
14744TIP3    H144173   0.110   3.377   2.409
14744TIP3    H244174   0.138   3.313   2.544
14745TIP3   OH244175   7.975   6.850   4.640
14745TIP3    H144176   8.007   6.939   4.622
14745TIP3    H244177   7.972   6.808   4.554
14746TIP3   OH244178   4.805   1.608  -0.022
14746TIP3    H144179   4.725   1.602   0.029
14746TIP3    H244180   4.875   1.585   0.039
14747TIP3   OH244181   7.251   5.414   6.100
14747TIP3    H144182   7.286   5.410   6.011
14747TIP3    H244183   7.156   5.410   6.089
14748TIP3   OH244184   8.040   2.262   4.608
14748TIP3    H144185   8.097   2.256   4.684
14748TIP3    H244186   7.952   2.249   4.643
14749TIP3   OH244187   3.481   6.299   3.614
14749TIP3    H144188   3.402   6.354   3.605
14749TIP3    H244189   3.530   6.315   3.534
14750TIP3   OH244190   4.683   5.913   1.803
14750TIP3    H144191   4.646   5.839   1.755
14750TIP3    H244192   4.732   5.873   1.875
14751TIP3   OH244193   3.694   3.911   6.672
14751TIP3    H144194   3.637   3.975   6.630
14751TIP3    H244195   3.648   3.827   6.662
14752TIP3   OH244196   2.522   6.205   2.417
14752TIP3    H144197   2.508   6.221   2.511
14752TIP3    H244198   2.516   6.110   2.408
14753TIP3   OH244199   2.154   2.245   1.703
14753TIP3    H144200   2.143   2.329   1.747
14753TIP3    H244201   2.099   2.185   1.753
14754TIP3   OH244202   2.588   0.141   2.628
14754TIP3    H144203   2.564   0.070   2.568
14754TIP3    H244204   2.671   0.113   2.666
14755TIP3   OH244205   6.175   3.677   3.332
14755TIP3    H144206   6.192   3.748   3.393
14755TIP3    H244207   6.248   3.617   3.343
14756TIP3   OH244208   6.139   3.355   4.043
14756TIP3    H144209   6.147   3.447   4.067
14756TIP3    H244210   6.093   3.356   3.959
14757TIP3   OH244211   1.790   6.205   3.241
14757TIP3    H144212   1.726   6.135   3.232
14757TIP3    H244213   1.853   6.190   3.170
14758TIP3   OH244214   6.307   0.285   3.695
14758TIP3    H144215   6.345   0.365   3.658
14758TIP3    H244216   6.381   0.226   3.706
14759TIP3   OH244217   6.461   1.794   5.733
14759TIP3    H144218   6.542   1.821   5.689
14759TIP3    H244219   6.396   1.859   5.704
14760TIP3   OH244220   0.744   6.689   3.327
14760TIP3    H144221   0.719   6.608   3.284
14760TIP3    H244222   0.820   6.667   3.380
14761TIP3   OH244223   3.103   7.433   3.533
14761TIP3    H144224   3.166   7.455   3.602
14761TIP3    H244225   3.026   7.403   3.580
14762TIP3   OH244226   1.060   0.380   5.461
14762TIP3    H144227   1.106   0.368   5.544
14762TIP3    H244228   1.130   0.391   5.397
14763TIP3   OH244229   6.681   4.083   1.935
14763TIP3    H144230   6.604   4.054   1.984
14763TIP3    H244231   6.648   4.097   1.846
14764TIP3   OH244232   8.012   4.198   2.692
14764TIP3    H144233   8.064   4.227   2.618
14764TIP3    H244234   8.030   4.104   2.699
14765TIP3   OH244235   2.031   2.267   0.066
14765TIP3    H144236   1.954   2.306   0.107
14765TIP3    H244237   2.050   2.325  -0.009
14766TIP3   OH244238   0.984   1.619   1.673
14766TIP3    H144239   1.044   1.553   1.708
14766TIP3    H244240   0.898   1.577   1.675
14767TIP3   OH244241   2.047   1.468   4.182
14767TIP3    H144242   2.114   1.527   4.218
14767TIP3    H244243   2.020   1.415   4.257
14768TIP3   OH244244   0.951   3.658   2.811
14768TIP3    H144245   0.878   3.686   2.755
14768TIP3    H244246   0.913   3.652   2.898
14769TIP3   OH244247   1.177   3.178   1.620
14769TIP3    H144248   1.209   3.256   1.666
14769TIP3    H244249   1.137   3.212   1.540
14770TIP3   OH244250   1.957   2.503   3.329
14770TIP3    H144251   1.987   2.594   3.325
14770TIP3    H244252   1.910   2.489   3.247
14771TIP3   OH244253   1.377   7.015   5.947
14771TIP3    H144254   1.365   7.106   5.975
14771TIP3    H244255   1.288   6.984   5.931
14772TIP3   OH244256   6.252   3.538   0.452
14772TIP3    H144257   6.233   3.462   0.397
14772TIP3    H244258   6.291   3.601   0.392
14773TIP3   OH244259   1.879   3.899   2.774
14773TIP3    H144260   1.834   3.967   2.824
14773TIP3    H244261   1.827   3.890   2.694
14774TIP3   OH244262   4.357   0.431   2.056
14774TIP3    H144263   4.348   0.513   2.105
14774TIP3    H244264   4.450   0.424   2.036
14775TIP3   OH244265   0.342   5.548   2.898
14775TIP3    H144266   0.346   5.636   2.860
14775TIP3    H244267   0.274   5.554   2.965
14776TIP3   OH244268   0.735   5.467   6.792
14776TIP3    H144269   0.735   5.525   6.715
14776TIP3    H244270   0.825   5.437   6.799
14777TIP3   OH244271   7.197   2.945   6.237
14777TIP3    H144272   7.238   2.859   6.222
14777TIP3    H244273   7.229   2.972   6.323
14778TIP3   OH244274   3.434   0.375   6.119
14778TIP3    H144275   3.472   0.303   6.168
14778TIP3    H244276   3.476   0.454   6.154
14779TIP3   OH244277   1.364   3.475   2.437
14779TIP3    H144278   1.302   3.526   2.384
14779TIP3    H244279   1.408   3.418   2.374
14780TIP3   OH244280   5.837   3.926   5.574
14780TIP3    H144281   5.919   3.904   5.530
14780TIP3    H244282   5.822   4.018   5.552
14781TIP3   OH244283   5.231   5.283   1.572
14781TIP3    H144284   5.288   5.213   1.542
14781TIP3    H244285   5.210   5.333   1.493
14782TIP3   OH244286   4.972   6.770   6.834
14782TIP3    H144287   5.049   6.759   6.777
14782TIP3    H244288   4.996   6.725   6.915
14783TIP3   OH244289   3.255   3.844   1.365
14783TIP3    H144290   3.247   3.812   1.455
14783TIP3    H244291   3.165   3.868   1.340
14784TIP3   OH244292   2.201   7.500   6.501
14784TIP3    H144293   2.283   7.484   6.549
14784TIP3    H244294   2.133   7.497   6.569
14785TIP3   OH244295   0.832   2.308   6.510
14785TIP3    H144296   0.762   2.298   6.574
14785TIP3    H244297   0.913   2.310   6.562
14786TIP3   OH244298   2.063   1.655   6.547
14786TIP3    H144299   2.065   1.671   6.642
14786TIP3    H244300   2.151   1.679   6.517
14787TIP3   OH244301   2.430   0.198   2.266
14787TIP3    H144302   2.526   0.188   2.264
14787TIP3    H244303   2.401   0.126   2.322
14788TIP3   OH244304   6.779   4.806   0.981
14788TIP3    H144305   6.685   4.813   0.998
14788TIP3    H244306   6.812   4.749   1.050
14789TIP3   OH244307   1.257   2.124   6.815
14789TIP3    H144308   1.209   2.205   6.795
14789TIP3    H244309   1.188   2.059   6.831
14790TIP3   OH244310   3.859   0.547   3.776
14790TIP3    H144311   3.878   0.500   3.695
14790TIP3    H244312   3.923   0.514   3.839
14791TIP3   OH244313   5.302   2.196   0.443
14791TIP3    H144314   5.358   2.157   0.376
14791TIP3    H244315   5.246   2.124   0.472
14792TIP3   OH244316   6.186   7.921   6.215
14792TIP3    H144317   6.114   7.874   6.172
14792TIP3    H244318   6.218   7.860   6.281
14793TIP3   OH244319   8.053   7.439   1.973
14793TIP3    H144320   8.024   7.489   2.049
14793TIP3    H244321   8.141   7.471   1.955
14794TIP3   OH244322   7.318   5.688   5.509
14794TIP3    H144323   7.270   5.700   5.592
14794TIP3    H244324   7.379   5.761   5.506
14795TIP3   OH244325   5.650   7.334   5.203
14795TIP3    H144326   5.638   7.316   5.296
14795TIP3    H244327   5.744   7.340   5.191
14796TIP3   OH244328   0.707   3.243   1.261
14796TIP3    H144329   0.619   3.215   1.287
14796TIP3    H244330   0.727   3.191   1.184
14797TIP3   OH244331   1.608   0.796   5.062
14797TIP3    H144332   1.539   0.862   5.068
14797TIP3    H244333   1.610   0.755   5.149
14798TIP3   OH244334   4.435   6.791   5.093
14798TIP3    H144335   4.410   6.843   5.170
14798TIP3    H244336   4.521   6.825   5.069
14799TIP3   OH244337   8.103   3.222   1.957
14799TIP3    H144338   8.169   3.166   1.917
14799TIP3    H244339   8.044   3.244   1.885
14800TIP3   OH244340   3.739   3.057   4.886
14800TIP3    H144341   3.828   3.055   4.920
14800TIP3    H244342   3.685   3.025   4.958
14801TIP3   OH244343   7.722   7.597   1.994
14801TIP3    H144344   7.629   7.620   1.996
14801TIP3    H244345   7.739   7.553   2.076
14802TIP3   OH244346   1.756   4.084   4.842
14802TIP3    H144347   1.715   4.014   4.892
14802TIP3    H244348   1.698   4.098   4.767
14803TIP3   OH244349   3.917   7.010   5.011
14803TIP3    H144350   3.829   6.994   4.979
14803TIP3    H244351   3.909   7.090   5.064
14804TIP3   OH244352   4.363   2.569   3.525
14804TIP3    H144353   4.269   2.587   3.525
14804TIP3    H244354   4.378   2.516   3.447
14805TIP3   OH244355   2.847   1.171   1.282
14805TIP3    H144356   2.912   1.218   1.335
14805TIP3    H244357   2.776   1.152   1.343
14806TIP3   OH244358   6.247   4.614   6.157
14806TIP3    H144359   6.202   4.693   6.189
14806TIP3    H244360   6.262   4.561   6.235
14807TIP3   OH244361   3.743   1.747   5.954
14807TIP3    H144362   3.792   1.726   5.875
14807TIP3    H244363   3.658   1.776   5.923
14808TIP3   OH244364   1.777   6.943   2.798
14808TIP3    H144365   1.778   6.857   2.839
14808TIP3    H244366   1.842   6.938   2.728
14809TIP3   OH244367   1.428   6.096   2.041
14809TIP3    H144368   1.336   6.076   2.030
14809TIP3    H244369   1.462   6.026   2.096
14810TIP3   OH244370   1.973   3.802   6.385
14810TIP3    H144371   2.051   3.853   6.404
14810TIP3    H244372   1.940   3.775   6.470
14811TIP3   OH244373   5.752   0.640   5.297
14811TIP3    H144374   5.659   0.616   5.296
14811TIP3    H244375   5.799   0.557   5.289
14812TIP3   OH244376   5.304   5.964   1.668
14812TIP3    H144377   5.260   5.882   1.645
14812TIP3    H244378   5.341   5.995   1.586
14813TIP3   OH244379   7.508   0.234   3.171
14813TIP3    H144380   7.441   0.299   3.189
14813TIP3    H244381   7.478   0.190   3.092
14814TIP3   OH244382   7.981   0.569   4.929
14814TIP3    H144383   8.006   0.516   5.005
14814TIP3    H244384   7.965   0.656   4.965
14815TIP3   OH244385   2.196   6.184   2.553
14815TIP3    H144386   2.124   6.201   2.613
14815TIP3    H244387   2.154   6.169   2.468
14816TIP3   OH244388   4.757   4.277   2.528
14816TIP3    H144389   4.770   4.202   2.585
14816TIP3    H244390   4.662   4.281   2.515
14817TIP3   OH244391   5.616   1.529   2.520
14817TIP3    H144392   5.704   1.554   2.548
14817TIP3    H244393   5.587   1.601   2.465
14818TIP3   OH244394   2.652   3.296   4.407
14818TIP3    H144395   2.732   3.244   4.412
14818TIP3    H244396   2.681   3.384   4.383
14819TIP3   OH244397   8.304   4.477   1.908
14819TIP3    H144398   8.316   4.398   1.854
14819TIP3    H244399   8.296   4.443   1.997
14820TIP3   OH244400   5.848   5.869   3.104
14820TIP3    H144401   5.936   5.862   3.142
14820TIP3    H244402   5.862   5.868   3.010
14821TIP3   OH244403   5.641   0.389   5.541
14821TIP3    H144404   5.700   0.458   5.511
14821TIP3    H244405   5.554   0.430   5.543
14822TIP3   OH244406   6.532   2.626   6.033
14822TIP3    H144407   6.477   2.561   6.076
14822TIP3    H244408   6.589   2.659   6.103
14823TIP3   OH244409   3.625   0.082   1.738
14823TIP3    H144410   3.551   0.063   1.795
14823TIP3    H244411   3.623   0.177   1.726
14824TIP3   OH244412   6.900   1.149   2.081
14824TIP3    H144413   6.812   1.170   2.049
14824TIP3    H244414   6.958   1.175   2.010
14825TIP3   OH244415   4.980   0.779   6.713
14825TIP3    H144416   5.023   0.801   6.796
14825TIP3    H244417   4.904   0.837   6.709
14826TIP3   OH244418   7.445   6.817   5.989
14826TIP3    H144419   7.436   6.905   5.952
14826TIP3    H244420   7.376   6.812   6.055
14827TIP3   OH244421   6.261   0.756   6.578
14827TIP3    H144422   6.329   0.820   6.559
14827TIP3    H244423   6.200   0.802   6.637
14828TIP3   OH244424   5.959   0.445   3.168
14828TIP3    H144425   5.994   0.531   3.146
14828TIP3    H244426   6.022   0.383   3.130
14829TIP3   OH244427   5.052   1.746   6.742
14829TIP3    H144428   5.013   1.763   6.828
14829TIP3    H244429   5.122   1.811   6.734
14830TIP3   OH244430   4.752   6.496   6.000
14830TIP3    H144431   4.805   6.428   5.958
14830TIP3    H244432   4.815   6.557   6.038
14831TIP3   OH244433   5.385   1.684   6.410
14831TIP3    H144434   5.313   1.746   6.421
14831TIP3    H244435   5.438   1.722   6.340
14832TIP3   OH244436   5.202   5.667   4.956
14832TIP3    H144437   5.145   5.728   5.003
14832TIP3    H244438   5.233   5.606   5.023
14833TIP3   OH244439   1.925   1.385   0.722
14833TIP3    H144440   1.896   1.444   0.792
14833TIP3    H244441   2.005   1.427   0.688
14834TIP3   OH244442   3.955   7.456   1.454
14834TIP3    H144443   3.937   7.542   1.493
14834TIP3    H244444   4.006   7.410   1.521
14835TIP3   OH244445   4.056   6.694   6.126
14835TIP3    H144446   4.116   6.747   6.178
14835TIP3    H244447   4.112   6.630   6.082
14836TIP3   OH244448   0.109   2.423   0.053
14836TIP3    H144449   0.145   2.334   0.058
14836TIP3    H244450   0.125   2.450  -0.037
14837TIP3   OH244451   8.104   5.905   0.884
14837TIP3    H144452   8.138   5.881   0.970
14837TIP3    H244453   8.024   5.955   0.903
14838TIP3   OH244454   3.233   7.942   5.426
14838TIP3    H144455   3.252   7.850   5.411
14838TIP3    H244456   3.143   7.943   5.459
14839TIP3   OH244457   1.637   5.974   6.763
14839TIP3    H144458   1.563   5.966   6.702
14839TIP3    H244459   1.704   6.020   6.713
14840TIP3   OH244460   4.081   2.423   5.757
14840TIP3    H144461   4.020   2.443   5.828
14840TIP3    H244462   4.047   2.471   5.682
14841TIP3   OH244463   2.831   4.612   5.895
14841TIP3    H144464   2.789   4.609   5.809
14841TIP3    H244465   2.925   4.608   5.875
14842TIP3   OH244466   6.841   6.748   3.816
14842TIP3    H144467   6.878   6.718   3.898
14842TIP3    H244468   6.811   6.837   3.834
14843TIP3   OH244469   1.677   2.753   3.910
14843TIP3    H144470   1.629   2.836   3.901
14843TIP3    H244471   1.658   2.705   3.830
14844TIP3   OH244472   5.350   5.951   2.908
14844TIP3    H144473   5.370   6.030   2.856
14844TIP3    H244474   5.426   5.940   2.964
14845TIP3   OH244475   1.963   3.150   1.706
14845TIP3    H144476   1.966   3.242   1.679
14845TIP3    H244477   2.013   3.104   1.638
14846TIP3   OH244478   2.663   5.175   1.064
14846TIP3    H144479   2.624   5.106   1.118
14846TIP3    H244480   2.740   5.133   1.025
14847TIP3   OH244481   5.407   2.827   2.465
14847TIP3    H144482   5.452   2.782   2.393
14847TIP3    H244483   5.410   2.919   2.441
14848TIP3   OH244484   1.733   3.721   0.106
14848TIP3    H144485   1.789   3.770   0.166
14848TIP3    H244486   1.743   3.629   0.132
14849TIP3   OH244487   6.755   2.253   6.477
14849TIP3    H144488   6.801   2.291   6.402
14849TIP3    H244489   6.759   2.320   6.545
14850TIP3   OH244490   6.670   0.392   0.286
14850TIP3    H144491   6.661   0.345   0.369
14850TIP3    H244492   6.730   0.464   0.304
14851TIP3   OH244493   4.751   2.751   2.285
14851TIP3    H144494   4.691   2.690   2.329
14851TIP3    H244495   4.711   2.837   2.296
14852TIP3   OH244496   4.050   2.323   1.857
14852TIP3    H144497   3.958   2.311   1.834
14852TIP3    H244498   4.060   2.417   1.873
14853TIP3   OH244499   7.771   0.282   0.049
14853TIP3    H144500   7.751   0.285   0.142
14853TIP3    H244501   7.839   0.215   0.040
14854TIP3   OH244502   4.906   5.120   5.119
14854TIP3    H144503   4.920   5.142   5.027
14854TIP3    H244504   4.841   5.049   5.116
14855TIP3   OH244505   5.461   2.178   1.874
14855TIP3    H144506   5.527   2.230   1.827
14855TIP3    H244507   5.502   2.091   1.882
14856TIP3   OH244508   3.081   7.237   4.319
14856TIP3    H144509   2.997   7.268   4.287
14856TIP3    H244510   3.096   7.288   4.399
14857TIP3   OH244511   1.415   6.902   1.405
14857TIP3    H144512   1.332   6.885   1.361
14857TIP3    H244513   1.439   6.818   1.445
14858TIP3   OH244514   4.684   7.158   4.062
14858TIP3    H144515   4.636   7.093   4.012
14858TIP3    H244516   4.760   7.179   4.007
14859TIP3   OH244517   6.158   1.409   1.741
14859TIP3    H144518   6.179   1.463   1.818
14859TIP3    H244519   6.215   1.442   1.672
14860TIP3   OH244520   4.744   3.499   6.630
14860TIP3    H144521   4.821   3.538   6.670
14860TIP3    H244522   4.717   3.562   6.564
14861TIP3   OH244523   1.456   1.340   4.727
14861TIP3    H144524   1.515   1.408   4.759
14861TIP3    H244525   1.481   1.328   4.635
14862TIP3   OH244526   7.105   7.238   3.024
14862TIP3    H144527   7.131   7.324   3.059
14862TIP3    H244528   7.182   7.207   2.976
14863TIP3   OH244529   1.555   0.477   3.777
14863TIP3    H144530   1.607   0.397   3.783
14863TIP3    H244531   1.468   0.447   3.751
14864TIP3   OH244532   4.301   1.876   5.151
14864TIP3    H144533   4.394   1.858   5.139
14864TIP3    H244534   4.257   1.818   5.088
14865TIP3   OH244535   4.394   7.754   4.144
14865TIP3    H144536   4.397   7.819   4.074
14865TIP3    H244537   4.371   7.673   4.100
14866TIP3   OH244538   4.897   2.813   5.205
14866TIP3    H144539   4.842   2.866   5.147
14866TIP3    H244540   4.928   2.874   5.272
14867TIP3   OH244541   4.614   1.429   5.480
14867TIP3    H144542   4.591   1.347   5.524
14867TIP3    H244543   4.531   1.474   5.470
14868TIP3   OH244544   3.975   7.503   4.505
14868TIP3    H144545   4.012   7.464   4.584
14868TIP3    H244546   4.037   7.480   4.436
14869TIP3   OH244547   1.602   5.704   1.671
14869TIP3    H144548   1.578   5.796   1.684
14869TIP3    H244549   1.524   5.665   1.632
14870TIP3   OH244550   6.706   2.268   1.015
14870TIP3    H144551   6.612   2.282   0.999
14870TIP3    H244552   6.711   2.243   1.107
14871TIP3   OH244553   6.894   1.609   5.256
14871TIP3    H144554   6.799   1.604   5.270
14871TIP3    H244555   6.903   1.658   5.174
14872TIP3   OH244556   1.792   2.329   2.193
14872TIP3    H144557   1.737   2.404   2.215
14872TIP3    H244558   1.775   2.313   2.100
14873TIP3   OH244559   1.828   5.555   3.808
14873TIP3    H144560   1.753   5.603   3.771
14873TIP3    H244561   1.888   5.623   3.838
14874TIP3   OH244562   8.025   2.741   3.447
14874TIP3    H144563   8.060   2.761   3.361
14874TIP3    H244564   8.092   2.771   3.508
14875TIP3   OH244565   5.146   6.443   1.363
14875TIP3    H144566   5.105   6.520   1.401
14875TIP3    H244567   5.188   6.399   1.437
14876TIP3   OH244568   3.732   3.067   6.648
14876TIP3    H144569   3.763   3.081   6.558
14876TIP3    H244570   3.793   3.004   6.685
14877TIP3   OH244571   1.942   2.446   2.840
14877TIP3    H144572   1.997   2.418   2.767
14877TIP3    H244573   1.991   2.420   2.918
14878TIP3   OH244574   5.905   2.560   2.662
14878TIP3    H144575   5.812   2.556   2.639
14878TIP3    H244576   5.947   2.495   2.606
14879TIP3   OH244577   5.732   6.832   0.005
14879TIP3    H144578   5.767   6.877   0.081
14879TIP3    H244579   5.784   6.752  -0.001
14880TIP3   OH244580   5.377   2.894   5.113
14880TIP3    H144581   5.463   2.902   5.074
14880TIP3    H244582   5.388   2.928   5.202
14881TIP3   OH244583   3.142   7.246   5.368
14881TIP3    H144584   3.200   7.304   5.319
14881TIP3    H244585   3.140   7.282   5.456
14882TIP3   OH244586   7.910   6.655   6.474
14882TIP3    H144587   7.816   6.640   6.461
14882TIP3    H244588   7.921   6.658   6.569
14883TIP3   OH244589   4.463   4.055   4.994
14883TIP3    H144590   4.375   4.017   5.000
14883TIP3    H244591   4.487   4.045   4.902
14884TIP3   OH244592   2.712   7.309   2.082
14884TIP3    H144593   2.713   7.317   2.178
14884TIP3    H244594   2.649   7.375   2.054
14885TIP3   OH244595   7.816   6.321   5.407
14885TIP3    H144596   7.732   6.305   5.365
14885TIP3    H244597   7.802   6.398   5.462
14886TIP3   OH244598   6.630   0.341   2.043
14886TIP3    H144599   6.684   0.374   1.971
14886TIP3    H244600   6.649   0.400   2.116
14887TIP3   OH244601   0.084   4.313   4.919
14887TIP3    H144602   0.029   4.389   4.941
14887TIP3    H244603   0.039   4.239   4.960
14888TIP3   OH244604   5.110   2.670   3.951
14888TIP3    H144605   5.105   2.575   3.940
14888TIP3    H244606   5.194   2.694   3.911
14889TIP3   OH244607   2.460   0.065   0.223
14889TIP3    H144608   2.447  -0.013   0.278
14889TIP3    H244609   2.485   0.134   0.285
14890TIP3   OH244610   7.246   3.964   3.129
14890TIP3    H144611   7.152   3.948   3.138
14890TIP3    H244612   7.284   3.878   3.111
14891TIP3   OH244613   1.666   3.421   2.433
14891TIP3    H144614   1.684   3.333   2.400
14891TIP3    H244615   1.669   3.413   2.528
14892TIP3   OH244616   8.017   4.520   2.328
14892TIP3    H144617   7.946   4.577   2.358
14892TIP3    H244618   7.978   4.465   2.261
14893TIP3   OH244619   5.963   4.576   2.900
14893TIP3    H144620   5.883   4.616   2.934
14893TIP3    H244621   6.008   4.543   2.978
14894TIP3   OH244622   7.034   5.181   4.907
14894TIP3    H144623   6.977   5.258   4.913
14894TIP3    H244624   7.117   5.215   4.872
14895TIP3   OH244625   5.964   3.907   6.249
14895TIP3    H144626   5.971   3.812   6.242
14895TIP3    H244627   5.870   3.925   6.245
14896TIP3   OH244628   0.201   5.113   0.043
14896TIP3    H144629   0.189   5.208   0.048
14896TIP3    H244630   0.164   5.089  -0.041
14897TIP3   OH244631   7.430   6.277   0.380
14897TIP3    H144632   7.515   6.243   0.353
14897TIP3    H244633   7.369   6.205   0.366
14898TIP3   OH244634   1.638   2.046   0.059
14898TIP3    H144635   1.598   2.107   0.121
14898TIP3    H244636   1.732   2.051   0.079
14899TIP3   OH244637   0.992   6.969   3.199
14899TIP3    H144638   1.004   6.878   3.172
14899TIP3    H244639   1.058   7.018   3.149
14900TIP3   OH244640   2.108   7.143   0.794
14900TIP3    H144641   2.026   7.138   0.842
14900TIP3    H244642   2.146   7.227   0.819
14901TIP3   OH244643   4.844   7.177   6.674
14901TIP3    H144644   4.804   7.177   6.761
14901TIP3    H244645   4.772   7.195   6.614
14902TIP3   OH244646   4.328   6.048   2.373
14902TIP3    H144647   4.235   6.057   2.396
14902TIP3    H244648   4.354   6.135   2.345
14903TIP3   OH244649   7.686   6.693   2.112
14903TIP3    H144650   7.740   6.750   2.057
14903TIP3    H244651   7.603   6.685   2.064
14904TIP3   OH244652   4.743   3.700   1.735
14904TIP3    H144653   4.740   3.749   1.653
14904TIP3    H244654   4.720   3.764   1.802
14905TIP3   OH244655   1.206   4.495   2.211
14905TIP3    H144656   1.263   4.521   2.139
14905TIP3    H244657   1.231   4.405   2.230
14906TIP3   OH244658   3.134   4.680   1.238
14906TIP3    H144659   3.148   4.715   1.325
14906TIP3    H244660   3.202   4.720   1.184
14907TIP3   OH244661   6.820   5.843   1.177
14907TIP3    H144662   6.824   5.847   1.082
14907TIP3    H244663   6.750   5.781   1.196
14908TIP3   OH244664   5.452   5.443   6.496
14908TIP3    H144665   5.475   5.533   6.515
14908TIP3    H244666   5.512   5.391   6.549
14909TIP3   OH244667   4.369   0.531   6.534
14909TIP3    H144668   4.449   0.584   6.543
14909TIP3    H244669   4.397   0.453   6.486
14910TIP3   OH244670   5.709   2.648   2.872
14910TIP3    H144671   5.706   2.743   2.867
14910TIP3    H244672   5.788   2.624   2.823
14911TIP3   OH244673   5.521   1.558   6.627
14911TIP3    H144674   5.503   1.573   6.534
14911TIP3    H244675   5.591   1.492   6.627
14912TIP3   OH244676   6.895   3.656   4.506
14912TIP3    H144677   6.801   3.671   4.521
14912TIP3    H244678   6.931   3.744   4.492
14913TIP3   OH244679   7.044   5.110   3.153
14913TIP3    H144680   7.121   5.105   3.097
14913TIP3    H244681   7.062   5.183   3.212
14914TIP3   OH244682   4.915   7.034   0.831
14914TIP3    H144683   4.866   7.116   0.821
14914TIP3    H244684   4.972   7.031   0.753
14915TIP3   OH244685   4.678   3.467   5.966
14915TIP3    H144686   4.752   3.440   5.911
14915TIP3    H244687   4.603   3.466   5.907
14916TIP3   OH244688   0.106   3.261   0.087
14916TIP3    H144689   0.123   3.325   0.018
14916TIP3    H244690   0.010   3.254   0.090
14917TIP3   OH244691   4.873   2.984   0.521
14917TIP3    H144692   4.896   2.899   0.485
14917TIP3    H244693   4.778   2.983   0.526
14918TIP3   OH244694   7.471   7.636   2.136
14918TIP3    H144695   7.500   7.726   2.151
14918TIP3    H244696   7.415   7.617   2.211
14919TIP3   OH244697   0.389   2.364   6.130
14919TIP3    H144698   0.460   2.357   6.066
14919TIP3    H244699   0.402   2.448   6.173
14920TIP3   OH244700   4.252   2.528   2.419
14920TIP3    H144701   4.185   2.493   2.478
14920TIP3    H244702   4.204   2.585   2.359
14921TIP3   OH244703   4.046   4.478   2.946
14921TIP3    H144704   4.063   4.487   3.040
14921TIP3    H244705   4.118   4.526   2.904
14922TIP3   OH244706   5.495   5.064   6.383
14922TIP3    H144707   5.549   5.133   6.343
14922TIP3    H244708   5.422   5.111   6.423
14923TIP3   OH244709   7.589   4.867   5.220
14923TIP3    H144710   7.567   4.909   5.137
14923TIP3    H244711   7.549   4.923   5.287
14924TIP3   OH244712   3.449   6.893   0.652
14924TIP3    H144713   3.405   6.921   0.572
14924TIP3    H244714   3.388   6.834   0.694
14925TIP3   OH244715   0.804   3.230   1.521
14925TIP3    H144716   0.890   3.212   1.483
14925TIP3    H244717   0.743   3.219   1.448
14926TIP3   OH244718   4.415   4.877   2.828
14926TIP3    H144719   4.460   4.960   2.843
14926TIP3    H244720   4.353   4.870   2.900
14927TIP3   OH244721   5.346   7.793   1.806
14927TIP3    H144722   5.356   7.750   1.891
14927TIP3    H244723   5.297   7.872   1.826
14928TIP3   OH244724   4.250   2.701   3.118
14928TIP3    H144725   4.337   2.665   3.097
14928TIP3    H244726   4.265   2.758   3.193
14929TIP3   OH244727   0.461   0.083   5.640
14929TIP3    H144728   0.499   0.048   5.721
14929TIP3    H244729   0.368   0.093   5.659
14930TIP3   OH244730   7.051   2.253   5.152
14930TIP3    H144731   7.133   2.302   5.160
14930TIP3    H244732   7.078   2.161   5.157
14931TIP3   OH244733   1.208   7.878   1.326
14931TIP3    H144734   1.232   7.786   1.335
14931TIP3    H244735   1.291   7.925   1.332
14932TIP3   OH244736   1.628   3.610   3.332
14932TIP3    H144737   1.550   3.556   3.343
14932TIP3    H244738   1.700   3.547   3.325
14933TIP3   OH244739   4.659   7.901   0.226
14933TIP3    H144740   4.694   7.860   0.147
14933TIP3    H244741   4.570   7.926   0.203
14934TIP3   OH244742   0.586   5.197   4.833
14934TIP3    H144743   0.576   5.255   4.757
14934TIP3    H244744   0.513   5.136   4.826
14935TIP3   OH244745   3.247   0.324   5.787
14935TIP3    H144746   3.279   0.381   5.857
14935TIP3    H244747   3.316   0.325   5.721
14936TIP3   OH244748   0.369   2.740   2.042
14936TIP3    H144749   0.385   2.717   1.950
14936TIP3    H244750   0.411   2.670   2.092
14937TIP3   OH244751   8.016   2.995   5.008
14937TIP3    H144752   7.921   2.998   5.019
14937TIP3    H244753   8.040   3.081   4.973
14938TIP3   OH244754   5.113   6.956   0.607
14938TIP3    H144755   5.187   6.906   0.641
14938TIP3    H244756   5.098   6.920   0.520
14939TIP3   OH244757   1.987   6.167   2.360
14939TIP3    H144758   1.997   6.077   2.391
14939TIP3    H244759   1.898   6.191   2.386
14940TIP3   OH244760   0.282   0.970   1.925
14940TIP3    H144761   0.363   0.965   1.874
14940TIP3    H244762   0.235   0.889   1.903
14941TIP3   OH244763   5.340   2.859   0.647
14941TIP3    H144764   5.333   2.775   0.691
14941TIP3    H244765   5.396   2.841   0.571
14942TIP3   OH244766   4.796   4.115   0.900
14942TIP3    H144767   4.721   4.135   0.844
14942TIP3    H244768   4.870   4.113   0.841
14943TIP3   OH244769   7.501   1.343   5.673
14943TIP3    H144770   7.462   1.405   5.611
14943TIP3    H244771   7.528   1.398   5.747
14944TIP3   OH244772   1.325   0.771   4.072
14944TIP3    H144773   1.297   0.816   4.152
14944TIP3    H244774   1.414   0.802   4.056
14945TIP3   OH244775   2.073   6.388   5.473
14945TIP3    H144776   2.022   6.397   5.554
14945TIP3    H244777   2.088   6.294   5.466
14946TIP3   OH244778   8.276   4.038   4.021
14946TIP3    H144779   8.206   4.102   4.036
14946TIP3    H244780   8.235   3.970   3.967
14947TIP3   OH244781   0.968   6.527   3.009
14947TIP3    H144782   0.931   6.607   2.972
14947TIP3    H244783   1.016   6.555   3.086
14948TIP3   OH244784   1.211   2.475   2.149
14948TIP3    H144785   1.266   2.535   2.098
14948TIP3    H244786   1.148   2.532   2.193
14949TIP3   OH244787   2.426   2.532   0.425
14949TIP3    H144788   2.330   2.525   0.432
14949TIP3    H244789   2.449   2.470   0.355
14950TIP3   OH244790   5.577   6.266   1.896
14950TIP3    H144791   5.499   6.320   1.894
14950TIP3    H244792   5.616   6.275   1.809
14951TIP3   OH244793   1.616   2.112   5.706
14951TIP3    H144794   1.634   2.108   5.612
14951TIP3    H244795   1.684   2.171   5.741
14952TIP3   OH244796   7.672   3.920   4.871
14952TIP3    H144797   7.599   3.910   4.931
14952TIP3    H244798   7.721   3.995   4.903
14953TIP3   OH244799   4.937   7.269   0.480
14953TIP3    H144800   5.003   7.242   0.416
14953TIP3    H244801   4.976   7.248   0.565
14954TIP3   OH244802   4.036   4.494   2.361
14954TIP3    H144803   4.099   4.422   2.359
14954TIP3    H244804   3.976   4.472   2.432
14955TIP3   OH244805   1.263   6.273   2.569
14955TIP3    H144806   1.277   6.322   2.650
14955TIP3    H244807   1.290   6.333   2.500
14956TIP3   OH244808   2.476   4.574   6.281
14956TIP3    H144809   2.507   4.518   6.353
14956TIP3    H244810   2.538   4.559   6.210
14957TIP3   OH244811   5.314   0.346   1.025
14957TIP3    H144812   5.286   0.428   0.984
14957TIP3    H244813   5.369   0.373   1.099
14958TIP3   OH244814   7.810   1.460   5.955
14958TIP3    H144815   7.820   1.550   5.986
14958TIP3    H244816   7.726   1.432   5.990
14959TIP3   OH244817   6.154   1.496   2.432
14959TIP3    H144818   6.208   1.571   2.454
14959TIP3    H244819   6.191   1.423   2.482
14960TIP3   OH244820   1.054   4.739   5.032
14960TIP3    H144821   0.972   4.692   5.042
14960TIP3    H244822   1.122   4.671   5.031
14961TIP3   OH244823   6.002   5.862   2.260
14961TIP3    H144824   6.048   5.815   2.191
14961TIP3    H244825   6.063   5.862   2.334
14962TIP3   OH244826   7.393   4.120   5.421
14962TIP3    H144827   7.457   4.167   5.474
14962TIP3    H244828   7.318   4.180   5.416
14963TIP3   OH244829   8.411   5.705   0.279
14963TIP3    H144830   8.399   5.683   0.372
14963TIP3    H244831   8.383   5.626   0.233
14964TIP3   OH244832   5.275   0.515   0.250
14964TIP3    H144833   5.303   0.546   0.164
14964TIP3    H244834   5.230   0.433   0.232
14965TIP3   OH244835   1.001   3.156   4.661
14965TIP3    H144836   1.037   3.076   4.699
14965TIP3    H244837   0.913   3.162   4.697
14966TIP3   OH244838   4.756   1.500   3.122
14966TIP3    H144839   4.788   1.412   3.100
14966TIP3    H244840   4.724   1.492   3.212
14967TIP3   OH244841   5.753   6.639   5.319
14967TIP3    H144842   5.777   6.725   5.285
14967TIP3    H244843   5.792   6.636   5.407
14968TIP3   OH244844   0.583   1.844   2.023
14968TIP3    H144845   0.526   1.881   1.955
14968TIP3    H244846   0.547   1.756   2.039
14969TIP3   OH244847   5.247   6.822   4.037
14969TIP3    H144848   5.159   6.858   4.052
14969TIP3    H244849   5.252   6.747   4.097
14970TIP3   OH244850   8.358   4.889   4.814
14970TIP3    H144851   8.309   4.807   4.816
14970TIP3    H244852   8.446   4.864   4.785
14971TIP3   OH244853   6.326   1.662   4.972
14971TIP3    H144854   6.282   1.698   4.895
14971TIP3    H244855   6.383   1.732   5.003
14972TIP3   OH244856   0.237   3.034   2.682
14972TIP3    H144857   0.239   3.128   2.700
14972TIP3    H244858   0.310   3.019   2.623
14973TIP3   OH244859   7.988   1.062   2.416
14973TIP3    H144860   7.958   1.151   2.399
14973TIP3    H244861   7.924   1.026   2.477
14974TIP3   OH244862   4.142   1.589   2.383
14974TIP3    H144863   4.089   1.509   2.386
14974TIP3    H244864   4.100   1.647   2.447
14975TIP3   OH244865   3.362   0.159   0.206
14975TIP3    H144866   3.422   0.126   0.139
14975TIP3    H244867   3.277   0.121   0.183
14976TIP3   OH244868   2.603   6.052   2.674
14976TIP3    H144869   2.691   6.078   2.699
14976TIP3    H244870   2.550   6.130   2.691
14977TIP3   OH244871   3.064   2.435   3.680
14977TIP3    H144872   3.051   2.372   3.751
14977TIP3    H244873   3.154   2.467   3.692
14978TIP3   OH244874   1.081   6.604   1.343
14978TIP3    H144875   1.128   6.667   1.288
14978TIP3    H244876   0.990   6.635   1.342
14979TIP3   OH244877   7.233   4.729   5.391
14979TIP3    H144878   7.293   4.741   5.317
14979TIP3    H244879   7.152   4.772   5.364
14980TIP3   OH244880   7.822   6.121   5.025
14980TIP3    H144881   7.742   6.117   5.077
14980TIP3    H244882   7.882   6.176   5.077
14981TIP3   OH244883   6.358   1.842   6.710
14981TIP3    H144884   6.423   1.803   6.768
14981TIP3    H244885   6.404   1.851   6.626
14982TIP3   OH244886   5.655   7.506   4.513
14982TIP3    H144887   5.615   7.496   4.599
14982TIP3    H244888   5.750   7.500   4.530
14983TIP3   OH244889   7.542   3.771   3.922
14983TIP3    H144890   7.562   3.841   3.861
14983TIP3    H244891   7.459   3.735   3.891
14984TIP3   OH244892   7.320   0.140   6.552
14984TIP3    H144893   7.254   0.110   6.615
14984TIP3    H244894   7.375   0.062   6.536
14985TIP3   OH244895   4.944   3.566   4.893
14985TIP3    H144896   5.033   3.529   4.888
14985TIP3    H244897   4.930   3.606   4.807
14986TIP3   OH244898   1.766   5.788   0.643
14986TIP3    H144899   1.745   5.694   0.649
14986TIP3    H244900   1.708   5.820   0.573
14987TIP3   OH244901   6.927   1.128   2.461
14987TIP3    H144902   6.999   1.118   2.398
14987TIP3    H244903   6.865   1.059   2.437
14988TIP3   OH244904   2.699   5.085   3.973
14988TIP3    H144905   2.680   5.129   3.890
14988TIP3    H244906   2.694   4.992   3.952
14989TIP3   OH244907   2.813   6.969   2.146
14989TIP3    H144908   2.778   6.895   2.097
14989TIP3    H244909   2.770   7.046   2.108
14990TIP3   OH244910   0.271   0.141   2.347
14990TIP3    H144911   0.321   0.100   2.418
14990TIP3    H244912   0.337   0.188   2.296
14991TIP3   OH244913   5.527   6.813   5.436
14991TIP3    H144914   5.445   6.825   5.387
14991TIP3    H244915   5.559   6.727   5.407
14992TIP3   OH244916   0.982   6.471   4.950
14992TIP3    H144917   0.891   6.494   4.930
14992TIP3    H244918   0.999   6.395   4.895
14993TIP3   OH244919   4.849   0.563   6.865
14993TIP3    H144920   4.926   0.574   6.809
14993TIP3    H244921   4.802   0.646   6.858
14994TIP3   OH244922   7.109   1.907   2.778
14994TIP3    H144923   7.133   1.902   2.685
14994TIP3    H244924   7.096   1.816   2.804
14995TIP3   OH244925   2.344   3.971   3.211
14995TIP3    H144926   2.262   3.948   3.254
14995TIP3    H244927   2.326   4.055   3.169
14996TIP3   OH244928   5.899   0.567   1.115
14996TIP3    H144929   5.916   0.601   1.027
14996TIP3    H244930   5.975   0.595   1.166
14997TIP3   OH244931   7.256   4.642   4.546
14997TIP3    H144932   7.320   4.578   4.577
14997TIP3    H244933   7.240   4.617   4.455
14998TIP3   OH244934   2.591   1.551   3.501
14998TIP3    H144935   2.606   1.538   3.408
14998TIP3    H244936   2.647   1.625   3.525
14999TIP3   OH244937   3.197   6.839   2.024
14999TIP3    H144938   3.152   6.902   2.080
14999TIP3    H244939   3.280   6.881   2.003
15000TIP3   OH244940   6.387   2.255   2.610
15000TIP3    H144941   6.466   2.217   2.648
15000TIP3    H244942   6.383   2.218   2.522
15001TIP3   OH244943   5.050   1.210   2.918
15001TIP3    H144944   5.012   1.146   2.978
15001TIP3    H244945   5.106   1.265   2.973
15002TIP3   OH244946   8.119   2.317   0.126
15002TIP3    H144947   8.126   2.376   0.202
15002TIP3    H244948   8.138   2.373   0.051
15003TIP3   OH244949   3.327   1.167   0.616
15003TIP3    H144950   3.249   1.189   0.666
15003TIP3    H244951   3.399   1.173   0.680
15004TIP3   OH244952   4.409   4.476   6.166
15004TIP3    H144953   4.450   4.427   6.094
15004TIP3    H244954   4.483   4.518   6.210
15005TIP3   OH244955   2.659   2.095   0.813
15005TIP3    H144956   2.614   2.057   0.889
15005TIP3    H244957   2.589   2.109   0.749
15006TIP3   OH244958   6.136   4.278   2.837
15006TIP3    H144959   6.187   4.197   2.846
15006TIP3    H244960   6.179   4.340   2.895
15007TIP3   OH244961   0.077   3.759   1.274
15007TIP3    H144962   0.117   3.707   1.344
15007TIP3    H244963   0.108   3.717   1.193
15008TIP3   OH244964   1.541   4.859   6.127
15008TIP3    H144965   1.524   4.765   6.116
15008TIP3    H244966   1.461   4.902   6.095
15009TIP3   OH244967   0.514   2.447   4.320
15009TIP3    H144968   0.435   2.410   4.281
15009TIP3    H244969   0.583   2.384   4.298
15010TIP3   OH244970   2.021   5.872   3.518
15010TIP3    H144971   2.048   5.907   3.434
15010TIP3    H244972   1.945   5.818   3.499
15011TIP3   OH244973   6.871   6.025   3.047
15011TIP3    H144974   6.840   6.037   2.958
15011TIP3    H244975   6.874   6.113   3.084
15012TIP3   OH244976   3.897   5.516   1.988
15012TIP3    H144977   3.857   5.430   1.983
15012TIP3    H244978   3.880   5.545   2.078
15013TIP3   OH244979   2.024   1.345   3.377
15013TIP3    H144980   2.104   1.390   3.348
15013TIP3    H244981   1.954   1.408   3.361
15014TIP3   OH244982   5.058   0.107   4.628
15014TIP3    H144983   5.020   0.021   4.610
15014TIP3    H244984   5.023   0.164   4.559
15015TIP3   OH244985   1.801   4.771   0.022
15015TIP3    H144986   1.829   4.859   0.046
15015TIP3    H244987   1.876   4.715   0.041
15016TIP3   OH244988   1.208   3.521   4.563
15016TIP3    H144989   1.217   3.426   4.566
15016TIP3    H244990   1.160   3.538   4.482
15017TIP3   OH244991   7.368   7.136   3.433
15017TIP3    H144992   7.370   7.059   3.490
15017TIP3    H244993   7.288   7.182   3.457
15018TIP3   OH244994   2.421   1.611   2.506
15018TIP3    H144995   2.429   1.563   2.424
15018TIP3    H244996   2.433   1.703   2.482
15019TIP3   OH244997   4.838   7.033   2.827
15019TIP3    H144998   4.921   7.045   2.782
15019TIP3    H244999   4.773   7.073   2.769
15020TIP3   OH245000   0.316   5.257   6.310
15020TIP3    H145001   0.364   5.325   6.357
15020TIP3    H245002   0.369   5.178   6.321
15021TIP3   OH245003   1.849   5.254   4.052
15021TIP3    H145004   1.802   5.338   4.052
15021TIP3    H245005   1.892   5.251   4.137
15022TIP3   OH245006   7.628   3.945   5.736
15022TIP3    H145007   7.701   3.902   5.691
15022TIP3    H245008   7.664   4.030   5.764
15023TIP3   OH245009   5.740   5.008   2.313
15023TIP3    H145010   5.817   4.959   2.341
15023TIP3    H245011   5.768   5.100   2.314
15024TIP3   OH245012   0.625   4.587   6.001
15024TIP3    H145013   0.615   4.537   5.920
15024TIP3    H245014   0.630   4.521   6.070
15025TIP3   OH245015   6.261   4.095   4.504
15025TIP3    H145016   6.320   4.153   4.456
15025TIP3    H245017   6.311   4.070   4.582
15026TIP3   OH245018   4.211   0.667   5.624
15026TIP3    H145019   4.205   0.672   5.529
15026TIP3    H245020   4.261   0.744   5.649
15027TIP3   OH245021   0.211   1.636   2.722
15027TIP3    H145022   0.247   1.673   2.803
15027TIP3    H245023   0.130   1.593   2.749
15028TIP3   OH245024   5.899   2.158   3.491
15028TIP3    H145025   5.989   2.181   3.469
15028TIP3    H245026   5.907   2.080   3.546
15029TIP3   OH245027   2.332   4.283   0.608
15029TIP3    H145028   2.320   4.378   0.608
15029TIP3    H245029   2.329   4.258   0.701
15030TIP3   OH245030   2.043   5.837   2.664
15030TIP3    H145031   1.972   5.894   2.692
15030TIP3    H245032   2.010   5.748   2.681
15031TIP3   OH245033   7.681   0.915   1.395
15031TIP3    H145034   7.715   1.000   1.423
15031TIP3    H245035   7.757   0.857   1.398
15032TIP3   OH245036   4.836   3.385   4.560
15032TIP3    H145037   4.858   3.303   4.603
15032TIP3    H245038   4.754   3.367   4.515
15033TIP3   OH245039   6.014   7.057   1.569
15033TIP3    H145040   6.040   6.990   1.632
15033TIP3    H245041   5.993   7.009   1.489
15034TIP3   OH245042   3.566   7.369   0.147
15034TIP3    H145043   3.552   7.275   0.139
15034TIP3    H245044   3.546   7.388   0.239
15035TIP3   OH245045   1.739   6.978   0.517
15035TIP3    H145046   1.792   6.979   0.437
15035TIP3    H245047   1.649   6.984   0.486
15036TIP3   OH245048   2.285   4.218   3.124
15036TIP3    H145049   2.364   4.272   3.115
15036TIP3    H245050   2.232   4.266   3.188
15037TIP3   OH245051   0.116   6.160   2.704
15037TIP3    H145052   0.182   6.101   2.668
15037TIP3    H245053   0.059   6.104   2.757
15038TIP3   OH245054   1.035   0.056   6.559
15038TIP3    H145055   1.091   0.126   6.524
15038TIP3    H245056   0.998   0.014   6.482
15039TIP3   OH245057   7.661   4.941   4.026
15039TIP3    H145058   7.710   4.929   4.107
15039TIP3    H245059   7.675   5.033   4.003
15040TIP3   OH245060   7.498   0.646   3.926
15040TIP3    H145061   7.569   0.609   3.978
15040TIP3    H245062   7.443   0.572   3.902
15041TIP3   OH245063   1.678   7.340   5.997
15041TIP3    H145064   1.687   7.330   6.091
15041TIP3    H245065   1.696   7.433   5.981
15042TIP3   OH245066   5.665   1.352   5.252
15042TIP3    H145067   5.733   1.340   5.185
15042TIP3    H245068   5.661   1.447   5.264
15043TIP3   OH245069   6.255   6.341   0.331
15043TIP3    H145070   6.284   6.396   0.258
15043TIP3    H245071   6.332   6.289   0.354
15044TIP3   OH245072   2.682   6.455   2.679
15044TIP3    H145073   2.609   6.395   2.696
15044TIP3    H245074   2.749   6.429   2.741
15045TIP3   OH245075   1.224   3.202   5.132
15045TIP3    H145076   1.318   3.209   5.114
15045TIP3    H245077   1.217   3.203   5.228
15046TIP3   OH245078   3.876   4.132   6.602
15046TIP3    H145079   3.968   4.126   6.627
15046TIP3    H245080   3.861   4.054   6.548
15047TIP3   OH245081   3.984   6.569   2.839
15047TIP3    H145082   4.044   6.505   2.878
15047TIP3    H245083   4.041   6.621   2.781
15048TIP3   OH245084   7.163   6.960   3.174
15048TIP3    H145085   7.075   6.992   3.154
15048TIP3    H245086   7.218   7.039   3.173
15049TIP3   OH245087   5.154   3.123   1.681
15049TIP3    H145088   5.228   3.121   1.620
15049TIP3    H245089   5.173   3.054   1.744
15050TIP3   OH245090   5.085   1.519   3.284
15050TIP3    H145091   5.101   1.502   3.191
15050TIP3    H245092   5.161   1.481   3.328
15051TIP3   OH245093   4.759   6.587   0.789
15051TIP3    H145094   4.800   6.560   0.871
15051TIP3    H245095   4.668   6.605   0.813
15052TIP3   OH245096   4.978   6.641   4.832
15052TIP3    H145097   4.911   6.586   4.871
15052TIP3    H245098   4.939   6.729   4.831
15053TIP3   OH245099   6.397   4.850   2.119
15053TIP3    H145100   6.489   4.842   2.145
15053TIP3    H245101   6.398   4.909   2.044
15054TIP3   OH245102   5.817  -0.011   2.029
15054TIP3    H145103   5.839  -0.027   1.937
15054TIP3    H245104   5.829   0.083   2.041
15055TIP3   OH245105   0.387   2.684   1.759
15055TIP3    H145106   0.427   2.598   1.764
15055TIP3    H245107   0.428   2.725   1.682
15056TIP3   OH245108   6.473   4.280   5.217
15056TIP3    H145109   6.422   4.199   5.212
15056TIP3    H245110   6.551   4.262   5.164
15057TIP3   OH245111   2.506   1.522   1.511
15057TIP3    H145112   2.591   1.482   1.495
15057TIP3    H245113   2.460   1.460   1.568
15058TIP3   OH245114   1.862   4.935   3.592
15058TIP3    H145115   1.839   4.933   3.499
15058TIP3    H245116   1.869   4.843   3.617
15059TIP3   OH245117   3.737   5.384   1.327
15059TIP3    H145118   3.697   5.467   1.351
15059TIP3    H245119   3.820   5.382   1.374
15060TIP3   OH245120   5.573   2.034   5.633
15060TIP3    H145121   5.579   1.992   5.719
15060TIP3    H245122   5.568   1.961   5.571
15061TIP3   OH245123   5.164   5.015   3.968
15061TIP3    H145124   5.242   5.070   3.973
15061TIP3    H245125   5.198   4.925   3.968
15062TIP3   OH245126   0.439   5.661   3.307
15062TIP3    H145127   0.462   5.748   3.273
15062TIP3    H245128   0.521   5.612   3.303
15063TIP3   OH245129   1.553   1.033   6.464
15063TIP3    H145130   1.561   1.061   6.373
15063TIP3    H245131   1.535   1.114   6.512
15064TIP3   OH245132   3.204   0.701   2.802
15064TIP3    H145133   3.228   0.734   2.715
15064TIP3    H245134   3.112   0.726   2.812
15065TIP3   OH245135   3.058   1.185   4.983
15065TIP3    H145136   3.137   1.199   5.036
15065TIP3    H245137   3.075   1.230   4.901
15066TIP3   OH245138   2.459   7.192   2.259
15066TIP3    H145139   2.497   7.250   2.193
15066TIP3    H245140   2.411   7.127   2.209
15067TIP3   OH245141   8.338   2.185   3.372
15067TIP3    H145142   8.294   2.155   3.292
15067TIP3    H245143   8.410   2.239   3.340
15068TIP3   OH245144   1.749   7.893   2.667
15068TIP3    H145145   1.768   7.986   2.664
15068TIP3    H245146   1.823   7.854   2.713
15069TIP3   OH245147   0.949   7.774   5.737
15069TIP3    H145148   0.890   7.751   5.666
15069TIP3    H245149   0.961   7.693   5.786
15070TIP3   OH245150   2.694   0.992   0.739
15070TIP3    H145151   2.773   0.998   0.684
15070TIP3    H245152   2.664   0.902   0.727
15071TIP3   OH245153   7.436   0.004   2.422
15071TIP3    H145154   7.351   0.016   2.381
15071TIP3    H245155   7.487   0.080   2.397
15072TIP3   OH245156   5.347   0.583   2.717
15072TIP3    H145157   5.309   0.575   2.805
15072TIP3    H245158   5.359   0.493   2.688
15073TIP3   OH245159   3.469   1.896   0.472
15073TIP3    H145160   3.513   1.924   0.552
15073TIP3    H245161   3.537   1.899   0.404
15074TIP3   OH245162   2.567   3.453   2.793
15074TIP3    H145163   2.591   3.392   2.863
15074TIP3    H245164   2.514   3.520   2.837
15075TIP3   OH245165   2.835   1.775   3.440
15075TIP3    H145166   2.893   1.841   3.479
15075TIP3    H245167   2.893   1.718   3.391
15076TIP3   OH245168   3.309   2.028   6.393
15076TIP3    H145169   3.377   1.982   6.443
15076TIP3    H245170   3.358   2.083   6.331
15077TIP3   OH245171   4.932   7.229   6.108
15077TIP3    H145172   4.903   7.138   6.104
15077TIP3    H245173   5.024   7.223   6.133
15078TIP3   OH245174   2.066   1.562   2.651
15078TIP3    H145175   2.002   1.504   2.691
15078TIP3    H245176   2.066   1.538   2.559
15079TIP3   OH245177   6.884   0.391   5.192
15079TIP3    H145178   6.851   0.370   5.280
15079TIP3    H245179   6.887   0.308   5.147
15080TIP3   OH245180   5.660   6.281   3.909
15080TIP3    H145181   5.631   6.269   3.999
15080TIP3    H245182   5.617   6.361   3.880
15081TIP3   OH245183   0.234   5.180   4.846
15081TIP3    H145184   0.295   5.109   4.828
15081TIP3    H245185   0.164   5.168   4.781
15082TIP3   OH245186   7.666   5.305   5.944
15082TIP3    H145187   7.581   5.323   5.983
15082TIP3    H245188   7.666   5.351   5.860
15083TIP3   OH245189   5.543   7.220   5.688
15083TIP3    H145190   5.541   7.316   5.693
15083TIP3    H245191   5.460   7.193   5.728
15084TIP3   OH245192   7.918   6.494   6.068
15084TIP3    H145193   7.907   6.572   6.121
15084TIP3    H245194   7.912   6.421   6.130
15085TIP3   OH245195   6.640   4.419   1.329
15085TIP3    H145196   6.591   4.337   1.327
15085TIP3    H245197   6.731   4.393   1.323
15086TIP3   OH245198   0.932   3.264   5.905
15086TIP3    H145199   0.880   3.241   5.827
15086TIP3    H245200   1.015   3.295   5.870
15087TIP3   OH245201   1.764   4.612   5.974
15087TIP3    H145202   1.686   4.662   5.949
15087TIP3    H245203   1.828   4.678   6.000
15088TIP3   OH245204   2.019   1.161   1.838
15088TIP3    H145205   1.941   1.108   1.820
15088TIP3    H245206   2.092   1.098   1.834
15089TIP3   OH245207   2.336   0.758   0.720
15089TIP3    H145208   2.365   0.700   0.791
15089TIP3    H245209   2.363   0.845   0.748
15090TIP3   OH245210   6.700   3.937   3.937
15090TIP3    H145211   6.778   3.934   3.993
15090TIP3    H245212   6.716   3.869   3.871
15091TIP3   OH245213   7.645   2.190   2.344
15091TIP3    H145214   7.627   2.251   2.273
15091TIP3    H245215   7.739   2.176   2.341
15092TIP3   OH245216   5.570   4.347   5.410
15092TIP3    H145217   5.588   4.342   5.316
15092TIP3    H245218   5.476   4.331   5.418
15093TIP3   OH245219   0.129   6.647   0.558
15093TIP3    H145220   0.077   6.720   0.592
15093TIP3    H245221   0.204   6.641   0.617
15094TIP3   OH245222   4.185   7.805   6.547
15094TIP3    H145223   4.211   7.833   6.459
15094TIP3    H245224   4.267   7.802   6.596
15095TIP3   OH245225   0.677   5.891   5.883
15095TIP3    H145226   0.584   5.889   5.903
15095TIP3    H245227   0.719   5.908   5.967
15096TIP3   OH245228   4.026   6.327   0.986
15096TIP3    H145229   4.027   6.238   0.950
15096TIP3    H245230   4.108   6.366   0.955
15097TIP3   OH245231   5.276   5.494   3.952
15097TIP3    H145232   5.335   5.509   4.026
15097TIP3    H245233   5.210   5.433   3.986
15098TIP3   OH245234   6.249   4.230   6.020
15098TIP3    H145235   6.212   4.286   5.952
15098TIP3    H245236   6.175   4.178   6.052
15099TIP3   OH245237   2.613   1.874   5.567
15099TIP3    H145238   2.615   1.969   5.553
15099TIP3    H245239   2.634   1.863   5.660
15100TIP3   OH245240   3.383   2.171   0.715
15100TIP3    H145241   3.330   2.182   0.636
15100TIP3    H245242   3.321   2.144   0.783
15101TIP3   OH245243   6.914   6.927   0.209
15101TIP3    H145244   6.847   6.995   0.213
15101TIP3    H245245   6.968   6.941   0.287
15102TIP3   OH245246   5.436   1.372   5.810
15102TIP3    H145247   5.358   1.324   5.837
15102TIP3    H245248   5.488   1.379   5.890
15103TIP3   OH245249   8.371   2.731   5.162
15103TIP3    H145250   8.299   2.669   5.177
15103TIP3    H245251   8.347   2.776   5.082
15104TIP3   OH245252   2.891   2.482   0.760
15104TIP3    H145253   2.798   2.505   0.758
15104TIP3    H245254   2.893   2.389   0.737
15105TIP3   OH245255   2.449   5.597   5.561
15105TIP3    H145256   2.479   5.510   5.535
15105TIP3    H245257   2.526   5.638   5.601
15106TIP3   OH245258   5.776   0.491   3.735
15106TIP3    H145259   5.844   0.482   3.668
15106TIP3    H245260   5.778   0.408   3.782
15107TIP3   OH245261   5.313   4.621   1.497
15107TIP3    H145262   5.230   4.613   1.451
15107TIP3    H245263   5.290   4.620   1.590
15108TIP3   OH245264   7.307   7.078   5.279
15108TIP3    H145265   7.257   7.160   5.274
15108TIP3    H245266   7.341   7.065   5.191
15109TIP3   OH245267   1.672   1.534   0.918
15109TIP3    H145268   1.616   1.582   0.857
15109TIP3    H245269   1.761   1.564   0.897
15110TIP3   OH245270   6.913   2.960   1.467
15110TIP3    H145271   6.973   2.892   1.437
15110TIP3    H245272   6.934   2.970   1.560
15111TIP3   OH245273   6.085   3.765   5.178
15111TIP3    H145274   5.991   3.758   5.158
15111TIP3    H245275   6.105   3.686   5.227
15112TIP3   OH245276   5.041   2.115   6.754
15112TIP3    H145277   5.111   2.170   6.789
15112TIP3    H245278   5.084   2.062   6.687
15113TIP3   OH245279   3.239   5.571   5.484
15113TIP3    H145280   3.247   5.660   5.452
15113TIP3    H245281   3.310   5.523   5.440
15114TIP3   OH245282   7.910   2.530   0.011
15114TIP3    H145283   8.000   2.553  -0.013
15114TIP3    H245284   7.917   2.499   0.102
15115TIP3   OH245285   4.871   2.886   3.108
15115TIP3    H145286   4.884   2.832   3.185
15115TIP3    H245287   4.798   2.944   3.130
15116TIP3   OH245288   0.023   0.808   1.187
15116TIP3    H145289   0.035   0.900   1.213
15116TIP3    H245290   0.111   0.770   1.194
15117TIP3   OH245291   4.976   3.882   1.329
15117TIP3    H145292   4.976   3.977   1.343
15117TIP3    H245293   5.047   3.850   1.385
15118TIP3   OH245294   7.137   3.037   0.867
15118TIP3    H145295   7.148   3.072   0.778
15118TIP3    H245296   7.047   3.005   0.869
15119TIP3   OH245297   5.832   4.731   2.125
15119TIP3    H145298   5.794   4.697   2.044
15119TIP3    H245299   5.778   4.692   2.194
15120TIP3   OH245300   3.984   7.555   0.935
15120TIP3    H145301   3.898   7.519   0.955
15120TIP3    H245302   4.043   7.479   0.939
15121TIP3   OH245303   0.400   0.443   1.958
15121TIP3    H145304   0.354   0.450   1.875
15121TIP3    H245305   0.484   0.487   1.943
15122TIP3   OH245306   8.325   6.839   0.916
15122TIP3    H145307   8.399   6.782   0.941
15122TIP3    H245308   8.338   6.918   0.968
15123TIP3   OH245309   3.921   5.319   3.106
15123TIP3    H145310   3.876   5.235   3.104
15123TIP3    H245311   3.883   5.364   3.182
15124TIP3   OH245312   8.014   6.787   3.659
15124TIP3    H145313   8.063   6.813   3.582
15124TIP3    H245314   7.993   6.869   3.703
15125TIP3   OH245315   0.049   2.728   4.156
15125TIP3    H145316  -0.039   2.700   4.183
15125TIP3    H245317   0.094   2.746   4.238
15126TIP3   OH245318   2.320   4.628   5.935
15126TIP3    H145319   2.229   4.629   5.964
15126TIP3    H245320   2.317   4.660   5.845
15127TIP3   OH245321   6.575   0.726   1.162
15127TIP3    H145322   6.555   0.766   1.247
15127TIP3    H245323   6.636   0.786   1.121
15128TIP3   OH245324   2.573   3.639   5.167
15128TIP3    H145325   2.585   3.550   5.199
15128TIP3    H245326   2.615   3.641   5.081
15129TIP3   OH245327   4.019   7.112   5.838
15129TIP3    H145328   3.990   7.032   5.794
15129TIP3    H245329   4.114   7.104   5.843
15130TIP3   OH245330   6.939   4.891   3.025
15130TIP3    H145331   6.848   4.901   2.995
15130TIP3    H245332   6.959   4.973   3.068
15131TIP3   OH245333   4.133   2.801   2.528
15131TIP3    H145334   4.096   2.843   2.606
15131TIP3    H245335   4.192   2.734   2.563
15132TIP3   OH245336   7.263   2.565   0.560
15132TIP3    H145337   7.178   2.539   0.595
15132TIP3    H245338   7.284   2.499   0.494
15133TIP3   OH245339   0.843   6.035   1.322
15133TIP3    H145340   0.831   5.945   1.350
15133TIP3    H245341   0.911   6.030   1.254
15134TIP3   OH245342   6.269   0.350   6.526
15134TIP3    H145343   6.362   0.344   6.549
15134TIP3    H245344   6.262   0.431   6.476
15135TIP3   OH245345   7.638   5.522   5.498
15135TIP3    H145346   7.692   5.451   5.463
15135TIP3    H245347   7.670   5.600   5.452
15136TIP3   OH245348   1.520   5.505   3.802
15136TIP3    H145349   1.482   5.443   3.864
15136TIP3    H245350   1.508   5.591   3.844
15137TIP3   OH245351   7.266   3.374   4.166
15137TIP3    H145352   7.202   3.304   4.181
15137TIP3    H245353   7.343   3.330   4.131
15138TIP3   OH245354   2.484   0.618   1.296
15138TIP3    H145355   2.452   0.638   1.384
15138TIP3    H245356   2.491   0.522   1.294
15139TIP3   OH245357   5.908   7.790   6.506
15139TIP3    H145358   5.982   7.803   6.566
15139TIP3    H245359   5.906   7.869   6.453
15140TIP3   OH245360   3.301   7.512   1.624
15140TIP3    H145361   3.357   7.589   1.635
15140TIP3    H245362   3.299   7.497   1.529
15141TIP3   OH245363   6.028   2.839   5.273
15141TIP3    H145364   6.003   2.777   5.342
15141TIP3    H245365   6.076   2.908   5.319
15142TIP3   OH245366   8.236   5.870   3.737
15142TIP3    H145367   8.285   5.818   3.801
15142TIP3    H245368   8.269   5.841   3.652
15143TIP3   OH245369   5.745   0.404   6.208
15143TIP3    H145370   5.808   0.430   6.276
15143TIP3    H245371   5.698   0.330   6.246
15144TIP3   OH245372   3.114   4.083   1.116
15144TIP3    H145373   3.208   4.076   1.101
15144TIP3    H245374   3.106   4.093   1.211
15145TIP3   OH245375   5.660   3.434   3.023
15145TIP3    H145376   5.670   3.351   3.069
15145TIP3    H245377   5.690   3.415   2.934
15146TIP3   OH245378   1.676   4.405   1.682
15146TIP3    H145379   1.703   4.432   1.595
15146TIP3    H245380   1.630   4.481   1.718
15147TIP3   OH245381   7.425   6.784   2.030
15147TIP3    H145382   7.428   6.819   2.119
15147TIP3    H245383   7.332   6.768   2.013
15148TIP3   OH245384   1.873   2.290   4.684
15148TIP3    H145385   1.907   2.309   4.596
15148TIP3    H245386   1.951   2.264   4.734
15149TIP3   OH245387   4.719   4.414   1.108
15149TIP3    H145388   4.767   4.408   1.025
15149TIP3    H245389   4.638   4.365   1.092
15150TIP3   OH245390   6.434   3.519   3.256
15150TIP3    H145391   6.444   3.534   3.162
15150TIP3    H245392   6.464   3.600   3.296
15151TIP3   OH245393   3.771   1.552   3.162
15151TIP3    H145394   3.757   1.460   3.184
15151TIP3    H245395   3.826   1.586   3.233
15152TIP3   OH245396   3.552   6.947   4.662
15152TIP3    H145397   3.524   7.032   4.628
15152TIP3    H245398   3.490   6.885   4.624
15153TIP3   OH245399   3.566   2.299   2.700
15153TIP3    H145400   3.521   2.363   2.755
15153TIP3    H245401   3.497   2.239   2.672
15154TIP3   OH245402   6.911   4.767   6.143
15154TIP3    H145403   6.947   4.840   6.093
15154TIP3    H245404   6.964   4.692   6.116
15155TIP3   OH245405   2.067   4.651   5.185
15155TIP3    H145406   2.114   4.734   5.185
15155TIP3    H245407   2.135   4.584   5.186
15156TIP3   OH245408   4.998   5.344   1.736
15156TIP3    H145409   5.051   5.351   1.656
15156TIP3    H245410   5.054   5.297   1.798
15157TIP3   OH245411   7.728   1.309   5.527
15157TIP3    H145412   7.647   1.302   5.578
15157TIP3    H245413   7.796   1.275   5.585
15158TIP3   OH245414   5.401   3.842   1.763
15158TIP3    H145415   5.305   3.838   1.760
15158TIP3    H245416   5.426   3.870   1.674
15159TIP3   OH245417   7.171   1.878   3.341
15159TIP3    H145418   7.099   1.877   3.403
15159TIP3    H245419   7.199   1.969   3.339
15160TIP3   OH245420   6.502   3.553   1.664
15160TIP3    H145421   6.562   3.627   1.665
15160TIP3    H245422   6.497   3.524   1.755
15161TIP3   OH245423   0.978   1.934   3.639
15161TIP3    H145424   0.912   1.953   3.705
15161TIP3    H245425   0.949   1.851   3.599
15162TIP3   OH245426   0.787   1.742  -0.004
15162TIP3    H145427   0.738   1.734   0.078
15162TIP3    H245428   0.815   1.652  -0.024
15163TIP3   OH245429   1.040   4.909   0.465
15163TIP3    H145430   1.079   4.921   0.379
15163TIP3    H245431   1.111   4.876   0.519
15164TIP3   OH245432   4.882   4.540   2.122
15164TIP3    H145433   4.882   4.509   2.213
15164TIP3    H245434   4.973   4.562   2.104
15165TIP3   OH245435   6.235   5.426   4.738
15165TIP3    H145436   6.296   5.380   4.681
15165TIP3    H245437   6.290   5.463   4.807
15166TIP3   OH245438   7.387   5.188   4.970
15166TIP3    H145439   7.330   5.226   5.037
15166TIP3    H245440   7.466   5.242   4.973
15167TIP3   OH245441   4.776   6.107   2.749
15167TIP3    H145442   4.805   6.116   2.839
15167TIP3    H245443   4.733   6.190   2.728
15168TIP3   OH245444   3.684   2.923   3.934
15168TIP3    H145445   3.752   2.891   3.874
15168TIP3    H245446   3.603   2.884   3.903
15169TIP3   OH245447   8.253   1.723   2.901
15169TIP3    H145448   8.197   1.792   2.864
15169TIP3    H245449   8.216   1.707   2.987
15170TIP3   OH245450   1.774   7.899   5.818
15170TIP3    H145451   1.733   7.816   5.793
15170TIP3    H245452   1.731   7.964   5.763
15171TIP3   OH245453   4.428   4.298   5.632
15171TIP3    H145454   4.495   4.230   5.640
15171TIP3    H245455   4.367   4.263   5.568
15172TIP3   OH245456   0.799   6.666   2.102
15172TIP3    H145457   0.885   6.692   2.069
15172TIP3    H245458   0.743   6.742   2.087
15173TIP3   OH245459   3.015   5.895   2.552
15173TIP3    H145460   2.957   5.864   2.622
15173TIP3    H245461   3.103   5.874   2.582
15174TIP3   OH245462   8.232   5.419   3.910
15174TIP3    H145463   8.215   5.485   3.843
15174TIP3    H245464   8.266   5.469   3.984
15175TIP3   OH245465   0.167   3.868   2.089
15175TIP3    H145466   0.115   3.945   2.113
15175TIP3    H245467   0.102   3.805   2.059
15176TIP3   OH245468   4.606   0.638   5.584
15176TIP3    H145469   4.592   0.732   5.580
15176TIP3    H245470   4.687   0.627   5.633
15177TIP3   OH245471   7.372   4.595   3.290
15177TIP3    H145472   7.366   4.690   3.282
15177TIP3    H245473   7.418   4.581   3.373
15178TIP3   OH245474   1.684   6.307   3.494
15178TIP3    H145475   1.710   6.290   3.404
15178TIP3    H245476   1.631   6.231   3.518
15179TIP3   OH245477   6.884   4.413   2.017
15179TIP3    H145478   6.875   4.322   2.044
15179TIP3    H245479   6.978   4.431   2.023
15180TIP3   OH245480   3.462   0.303   5.653
15180TIP3    H145481   3.467   0.375   5.590
15180TIP3    H245482   3.529   0.241   5.624
15181TIP3   OH245483   3.856   3.092   3.570
15181TIP3    H145484   3.805   3.116   3.492
15181TIP3    H245485   3.799   3.031   3.617
15182TIP3   OH245486   0.020   4.078   2.212
15182TIP3    H145487   0.035   4.143   2.144
15182TIP3    H245488   0.038   4.124   2.294
15183TIP3   OH245489   6.834   0.594   3.071
15183TIP3    H145490   6.860   0.502   3.074
15183TIP3    H245491   6.915   0.641   3.050
15184TIP3   OH245492   5.981   0.927   0.092
15184TIP3    H145493   5.947   1.015   0.107
15184TIP3    H245494   5.929   0.871   0.150
15185TIP3   OH245495   1.833   0.468   6.631
15185TIP3    H145496   1.825   0.387   6.581
15185TIP3    H245497   1.784   0.452   6.711
15186TIP3   OH245498   5.470   3.912   0.580
15186TIP3    H145499   5.471   3.858   0.501
15186TIP3    H245500   5.450   4.001   0.548
15187TIP3   OH245501   4.709   2.975   2.789
15187TIP3    H145502   4.763   2.897   2.798
15187TIP3    H245503   4.627   2.943   2.752
15188TIP3   OH245504   5.312   1.247   6.023
15188TIP3    H145505   5.222   1.250   6.055
15188TIP3    H245506   5.337   1.155   6.030
15189TIP3   OH245507   1.793   1.613   4.363
15189TIP3    H145508   1.823   1.564   4.440
15189TIP3    H245509   1.698   1.614   4.371
15190TIP3   OH245510   4.993   1.517   0.995
15190TIP3    H145511   4.906   1.486   0.971
15190TIP3    H245512   5.051   1.442   0.978
15191TIP3   OH245513   6.440   5.363   3.424
15191TIP3    H145514   6.500   5.430   3.459
15191TIP3    H245515   6.451   5.288   3.483
15192TIP3   OH245516   3.442   3.460   5.991
15192TIP3    H145517   3.515   3.398   5.985
15192TIP3    H245518   3.364   3.406   5.979
15193TIP3   OH245519   0.779   0.942   0.868
15193TIP3    H145520   0.849   0.885   0.901
15193TIP3    H245521   0.760   1.001   0.941
15194TIP3   OH245522   4.812   1.748   4.100
15194TIP3    H145523   4.856   1.680   4.151
15194TIP3    H245524   4.718   1.727   4.109
15195TIP3   OH245525   1.638   1.768   1.915
15195TIP3    H145526   1.660   1.845   1.968
15195TIP3    H245527   1.641   1.798   1.825
15196TIP3   OH245528   5.274   2.821   1.516
15196TIP3    H145529   5.305   2.846   1.428
15196TIP3    H245530   5.279   2.725   1.517
15197TIP3   OH245531   6.380   7.223   1.414
15197TIP3    H145532   6.335   7.199   1.495
15197TIP3    H245533   6.444   7.153   1.400
15198TIP3   OH245534   1.230   2.348   6.397
15198TIP3    H145535   1.234   2.284   6.325
15198TIP3    H245536   1.308   2.329   6.449
15199TIP3   OH245537   7.063   5.957   2.157
15199TIP3    H145538   7.136   5.898   2.177
15199TIP3    H245539   7.093   6.043   2.185
15200TIP3   OH245540   7.958   7.802   0.699
15200TIP3    H145541   7.919   7.723   0.662
15200TIP3    H245542   7.919   7.874   0.649
15201TIP3   OH245543   1.452   4.828   2.057
15201TIP3    H145544   1.413   4.850   2.142
15201TIP3    H245545   1.381   4.840   1.994
15202TIP3   OH245546   6.659   5.997   2.407
15202TIP3    H145547   6.642   6.071   2.464
15202TIP3    H245548   6.669   6.035   2.320
15203TIP3   OH245549   5.165   4.621   5.486
15203TIP3    H145550   5.223   4.564   5.536
15203TIP3    H245551   5.086   4.630   5.540
15204TIP3   OH245552   7.872   2.366   6.033
15204TIP3    H145553   7.900   2.441   6.086
15204TIP3    H245554   7.884   2.395   5.943
15205TIP3   OH245555   6.695   1.185   4.098
15205TIP3    H145556   6.612   1.221   4.069
15205TIP3    H245557   6.671   1.106   4.146
15206TIP3   OH245558   7.596   3.242   3.231
15206TIP3    H145559   7.571   3.215   3.320
15206TIP3    H245560   7.675   3.295   3.243
15207TIP3   OH245561   0.804   1.853   4.221
15207TIP3    H145562   0.772   1.873   4.309
15207TIP3    H245563   0.821   1.759   4.223
15208TIP3   OH245564   1.813   1.339   1.921
15208TIP3    H145565   1.789   1.307   2.008
15208TIP3    H245566   1.895   1.295   1.901
15209TIP3   OH245567   1.390   6.080   2.893
15209TIP3    H145568   1.458   6.018   2.921
15209TIP3    H245569   1.436   6.143   2.837
15210TIP3   OH245570   3.138   0.897   5.201
15210TIP3    H145571   3.157   0.942   5.118
15210TIP3    H245572   3.223   0.880   5.239
15211TIP3   OH245573   0.354   1.285   1.615
15211TIP3    H145574   0.443   1.277   1.579
15211TIP3    H245575   0.328   1.375   1.596
15212TIP3   OH245576   0.879   5.352   1.450
15212TIP3    H145577   0.939   5.299   1.396
15212TIP3    H245578   0.797   5.352   1.402
15213TIP3   OH245579   5.646   1.965   1.083
15213TIP3    H145580   5.684   2.000   1.003
15213TIP3    H245581   5.721   1.948   1.141
15214TIP3   OH245582   6.348   4.689   4.801
15214TIP3    H145583   6.348   4.695   4.706
15214TIP3    H245584   6.274   4.743   4.829
15215TIP3   OH245585   2.727   0.587   3.358
15215TIP3    H145586   2.686   0.571   3.443
15215TIP3    H245587   2.743   0.681   3.356
15216TIP3   OH245588   2.216   7.070   0.280
15216TIP3    H145589   2.205   7.035   0.369
15216TIP3    H245590   2.287   7.133   0.289
15217TIP3   OH245591   0.139   2.970   3.699
15217TIP3    H145592   0.076   2.972   3.771
15217TIP3    H245593   0.169   3.061   3.691
15218TIP3   OH245594   6.286   0.672   4.609
15218TIP3    H145595   6.364   0.621   4.631
15218TIP3    H245596   6.219   0.642   4.669
15219TIP3   OH245597   4.909   5.875   2.326
15219TIP3    H145598   4.832   5.894   2.272
15219TIP3    H245599   4.877   5.879   2.416
15220TIP3   OH245600   6.425   2.980   1.853
15220TIP3    H145601   6.406   2.896   1.811
15220TIP3    H245602   6.452   3.037   1.781
15221TIP3   OH245603   7.170   0.845   5.426
15221TIP3    H145604   7.247   0.868   5.373
15221TIP3    H245605   7.170   0.908   5.497
15222TIP3   OH245606   4.948   3.587   4.267
15222TIP3    H145607   4.884   3.543   4.210
15222TIP3    H245608   4.895   3.629   4.335
15223TIP3   OH245609   3.052   3.709   2.118
15223TIP3    H145610   3.037   3.688   2.211
15223TIP3    H245611   3.114   3.643   2.089
15224TIP3   OH245612   0.686   4.149   3.325
15224TIP3    H145613   0.627   4.121   3.256
15224TIP3    H245614   0.748   4.077   3.335
15225TIP3   OH245615   7.715   1.194   6.851
15225TIP3    H145616   7.726   1.289   6.855
15225TIP3    H245617   7.757   1.168   6.769
15226TIP3   OH245618   7.841   0.661   0.848
15226TIP3    H145619   7.867   0.648   0.757
15226TIP3    H245620   7.923   0.676   0.895
15227TIP3   OH245621   5.536   4.289   3.835
15227TIP3    H145622   5.611   4.279   3.777
15227TIP3    H245623   5.500   4.375   3.815
15228TIP3   OH245624   6.539   5.912   1.551
15228TIP3    H145625   6.585   5.834   1.521
15228TIP3    H245626   6.495   5.884   1.631
15229TIP3   OH245627   5.132   3.366   1.814
15229TIP3    H145628   5.141   3.275   1.788
15229TIP3    H245629   5.052   3.396   1.770
15230TIP3   OH245630   0.496   0.713   6.793
15230TIP3    H145631   0.472   0.635   6.743
15230TIP3    H245632   0.452   0.701   6.878
15231TIP3   OH245633   4.034   2.093   4.094
15231TIP3    H145634   3.950   2.051   4.111
15231TIP3    H245635   4.030   2.121   4.003
15232TIP3   OH245636   1.873   0.915   4.091
15232TIP3    H145637   1.905   0.846   4.150
15232TIP3    H245638   1.917   0.994   4.122
15233TIP3   OH245639   0.393   3.547   5.471
15233TIP3    H145640   0.337   3.620   5.444
15233TIP3    H245641   0.482   3.577   5.453
15234TIP3   OH245642   1.274   0.778   1.400
15234TIP3    H145643   1.243   0.766   1.490
15234TIP3    H245644   1.222   0.850   1.365
15235TIP3   OH245645   5.907   4.283   5.379
15235TIP3    H145646   5.830   4.300   5.326
15235TIP3    H245647   5.946   4.204   5.341
15236TIP3   OH245648   1.889   5.186   0.752
15236TIP3    H145649   1.860   5.239   0.677
15236TIP3    H245650   1.984   5.185   0.745
15237TIP3   OH245651   0.535   3.627   3.658
15237TIP3    H145652   0.476   3.698   3.633
15237TIP3    H245653   0.506   3.600   3.745
15238TIP3   OH245654   6.181   0.601   5.561
15238TIP3    H145655   6.086   0.604   5.562
15238TIP3    H245656   6.209   0.688   5.588
15239TIP3   OH245657   1.828   7.306   2.341
15239TIP3    H145658   1.817   7.217   2.374
15239TIP3    H245659   1.782   7.308   2.258
15240TIP3   OH245660   7.878   2.466   1.348
15240TIP3    H145661   7.972   2.453   1.339
15240TIP3    H245662   7.867   2.505   1.435
15241TIP3   OH245663   6.568   1.290   6.301
15241TIP3    H145664   6.566   1.362   6.238
15241TIP3    H245665   6.542   1.213   6.250
15242TIP3   OH245666   4.161   1.062   3.067
15242TIP3    H145667   4.135   1.027   2.982
15242TIP3    H245668   4.147   0.990   3.128
15243TIP3   OH245669   7.636   6.346   1.761
15243TIP3    H145670   7.653   6.301   1.679
15243TIP3    H245671   7.657   6.438   1.743
15244TIP3   OH245672   4.005   1.965   2.413
15244TIP3    H145673   4.088   1.974   2.366
15244TIP3    H245674   4.029   1.926   2.497
15245TIP3   OH245675   5.584   5.904   5.350
15245TIP3    H145676   5.529   5.830   5.329
15245TIP3    H245677   5.604   5.945   5.266
15246TIP3   OH245678   0.242   3.164   1.769
15246TIP3    H145679   0.220   3.226   1.839
15246TIP3    H245680   0.301   3.101   1.810
15247TIP3   OH245681   3.584   0.444   5.131
15247TIP3    H145682   3.494   0.414   5.120
15247TIP3    H245683   3.581   0.537   5.107
15248TIP3   OH245684   1.519   0.642   1.426
15248TIP3    H145685   1.599   0.692   1.408
15248TIP3    H245686   1.448   0.703   1.408
15249TIP3   OH245687   1.096   7.061   2.153
15249TIP3    H145688   1.093   7.131   2.219
15249TIP3    H245689   1.188   7.036   2.149
15250TIP3   OH245690   1.497   3.173   0.750
15250TIP3    H145691   1.534   3.200   0.834
15250TIP3    H245692   1.529   3.238   0.688
15251TIP3   OH245693   6.494   6.811   0.491
15251TIP3    H145694   6.572   6.807   0.436
15251TIP3    H245695   6.441   6.881   0.452
15252TIP3   OH245696   7.338   3.719   3.080
15252TIP3    H145697   7.342   3.629   3.114
15252TIP3    H245698   7.428   3.740   3.057
15253TIP3   OH245699   5.541   6.874   2.677
15253TIP3    H145700   5.556   6.947   2.737
15253TIP3    H245701   5.585   6.800   2.718
15254TIP3   OH245702   2.980   6.048   0.853
15254TIP3    H145703   2.941   5.961   0.867
15254TIP3    H245704   2.907   6.109   0.861
15255TIP3   OH245705   4.554   2.283   2.432
15255TIP3    H145706   4.589   2.259   2.346
15255TIP3    H245707   4.525   2.200   2.470
15256TIP3   OH245708   4.794   2.820   4.585
15256TIP3    H145709   4.757   2.782   4.505
15256TIP3    H245710   4.818   2.744   4.638
15257TIP3   OH245711   0.307   6.759   5.391
15257TIP3    H145712   0.239   6.711   5.344
15257TIP3    H245713   0.286   6.747   5.483
15258TIP3   OH245714   1.871   0.116   0.778
15258TIP3    H145715   1.802   0.182   0.776
15258TIP3    H245716   1.826   0.034   0.799
15259TIP3   OH245717   5.162   7.783   4.355
15259TIP3    H145718   5.159   7.791   4.259
15259TIP3    H245719   5.100   7.712   4.374
15260TIP3   OH245720   5.169   3.603   2.995
15260TIP3    H145721   5.248   3.556   3.023
15260TIP3    H245722   5.097   3.547   3.024
15261TIP3   OH245723   3.643   6.051   3.572
15261TIP3    H145724   3.668   6.059   3.480
15261TIP3    H245725   3.626   5.958   3.585
15262TIP3   OH245726   2.006   7.889   3.396
15262TIP3    H145727   1.974   7.828   3.462
15262TIP3    H245728   1.930   7.908   3.341
15263TIP3   OH245729   6.042   5.386   0.898
15263TIP3    H145730   6.052   5.361   0.806
15263TIP3    H245731   6.128   5.372   0.937
15264TIP3   OH245732   7.460   1.853   1.870
15264TIP3    H145733   7.510   1.918   1.821
15264TIP3    H245734   7.415   1.801   1.803
15265TIP3   OH245735   6.415   0.779   4.318
15265TIP3    H145736   6.322   0.764   4.300
15265TIP3    H245737   6.417   0.807   4.410
15266TIP3   OH245738   6.769   7.209   6.815
15266TIP3    H145739   6.725   7.269   6.876
15266TIP3    H245740   6.770   7.125   6.860
15267TIP3   OH245741   3.156   5.594   4.366
15267TIP3    H145742   3.252   5.592   4.364
15267TIP3    H245743   3.136   5.674   4.415
15268TIP3   OH245744   5.713   6.764   6.591
15268TIP3    H145745   5.678   6.833   6.647
15268TIP3    H245746   5.741   6.810   6.512
15269TIP3   OH245747   2.788   0.904   1.878
15269TIP3    H145748   2.737   0.889   1.958
15269TIP3    H245749   2.878   0.908   1.908
15270TIP3   OH245750   0.783   0.940   0.537
15270TIP3    H145751   0.827   0.856   0.551
15270TIP3    H245752   0.736   0.956   0.619
15271TIP3   OH245753   4.020   1.929   4.996
15271TIP3    H145754   4.040   1.873   5.071
15271TIP3    H245755   3.924   1.927   4.989
15272TIP3   OH245756   5.689   6.228   5.997
15272TIP3    H145757   5.684   6.311   5.950
15272TIP3    H245758   5.716   6.164   5.931
15273TIP3   OH245759   4.866   7.399   5.197
15273TIP3    H145760   4.950   7.363   5.223
15273TIP3    H245761   4.832   7.337   5.132
15274TIP3   OH245762   7.668   1.940   2.241
15274TIP3    H145763   7.719   1.920   2.320
15274TIP3    H245764   7.613   2.014   2.266
15275TIP3   OH245765   7.142   7.303   5.284
15275TIP3    H145766   7.095   7.295   5.367
15275TIP3    H245767   7.078   7.340   5.224
15276TIP3   OH245768   5.266   2.935   2.192
15276TIP3    H145769   5.291   2.845   2.168
15276TIP3    H245770   5.182   2.925   2.237
15277TIP3   OH245771   7.424   2.536   1.170
15277TIP3    H145772   7.357   2.478   1.132
15277TIP3    H245773   7.489   2.476   1.207
15278TIP3   OH245774   3.004   0.733   2.456
15278TIP3    H145775   3.019   0.640   2.442
15278TIP3    H245776   3.085   0.765   2.496
15279TIP3   OH245777   5.035   5.186   6.834
15279TIP3    H145778   5.070   5.106   6.795
15279TIP3    H245779   5.021   5.245   6.760
15280TIP3   OH245780   5.617   0.342   1.533
15280TIP3    H145781   5.662   0.422   1.560
15280TIP3    H245782   5.680   0.295   1.479
15281TIP3   OH245783   0.990   0.402   0.214
15281TIP3    H145784   0.932   0.393   0.289
15281TIP3    H245785   1.020   0.312   0.196
15282TIP3   OH245786   3.826   2.826   0.554
15282TIP3    H145787   3.808   2.733   0.567
15282TIP3    H245788   3.745   2.861   0.516
15283TIP3   OH245789   6.149   1.322   2.879
15283TIP3    H145790   6.071   1.270   2.899
15283TIP3    H245791   6.135   1.405   2.925
15284TIP3   OH245792   1.973   4.456   6.720
15284TIP3    H145793   1.908   4.389   6.700
15284TIP3    H245794   2.049   4.433   6.666
15285TIP3   OH245795   4.968   1.024   5.616
15285TIP3    H145796   4.876   0.998   5.618
15285TIP3    H245797   4.997   1.002   5.528
15286TIP3   OH245798   3.740   6.184   6.499
15286TIP3    H145799   3.682   6.177   6.423
15286TIP3    H245800   3.701   6.253   6.552
15287TIP3   OH245801   3.143   6.524   4.220
15287TIP3    H145802   3.148   6.435   4.187
15287TIP3    H245803   3.059   6.529   4.266
15288TIP3   OH245804   8.193   2.964   6.756
15288TIP3    H145805   8.283   2.943   6.783
15288TIP3    H245806   8.139   2.896   6.798
15289TIP3   OH245807   5.252   6.409   3.836
15289TIP3    H145808   5.175   6.461   3.861
15289TIP3    H245809   5.218   6.344   3.775
15290TIP3   OH245810   5.813   3.670   5.254
15290TIP3    H145811   5.834   3.615   5.330
15290TIP3    H245812   5.738   3.722   5.282
15291TIP3   OH245813   1.437   3.188   2.601
15291TIP3    H145814   1.394   3.257   2.652
15291TIP3    H245815   1.431   3.110   2.657
15292TIP3   OH245816   3.033   4.526   2.867
15292TIP3    H145817   2.974   4.591   2.829
15292TIP3    H245818   3.116   4.539   2.821
15293TIP3   OH245819   5.186   4.084   4.134
15293TIP3    H145820   5.240   4.157   4.103
15293TIP3    H245821   5.246   4.030   4.186
15294TIP3   OH245822   4.659   4.703   2.124
15294TIP3    H145823   4.752   4.691   2.105
15294TIP3    H245824   4.650   4.682   2.217
15295TIP3   OH245825   3.099   6.566   2.949
15295TIP3    H145826   3.104   6.559   2.853
15295TIP3    H245827   3.120   6.657   2.968
15296TIP3   OH245828   2.219   0.441   3.813
15296TIP3    H145829   2.127   0.466   3.802
15296TIP3    H245830   2.228   0.360   3.763
15297TIP3   OH245831   3.547   3.649   1.819
15297TIP3    H145832   3.581   3.676   1.734
15297TIP3    H245833   3.549   3.553   1.817
15298TIP3   OH245834   7.700   4.801   2.094
15298TIP3    H145835   7.744   4.819   2.177
15298TIP3    H245836   7.651   4.720   2.109
15299TIP3   OH245837   5.229   5.775   4.281
15299TIP3    H145838   5.250   5.757   4.372
15299TIP3    H245839   5.251   5.867   4.269
15300TIP3   OH245840   1.048   2.348   3.167
15300TIP3    H145841   0.975   2.293   3.195
15300TIP3    H245842   1.120   2.324   3.226
15301TIP3   OH245843   0.080   4.174   3.593
15301TIP3    H145844   0.089   4.162   3.688
15301TIP3    H245845   0.139   4.246   3.573
15302TIP3   OH245846   1.010   4.458   0.721
15302TIP3    H145847   0.977   4.525   0.662
15302TIP3    H245848   0.941   4.392   0.724
15303TIP3   OH245849   5.093   0.911   0.324
15303TIP3    H145850   5.076   0.934   0.233
15303TIP3    H245851   5.064   0.820   0.331
15304TIP3   OH245852   6.321   5.921   0.481
15304TIP3    H145853   6.259   5.993   0.468
15304TIP3    H245854   6.359   5.907   0.394
15305TIP3   OH245855   4.009   1.259   4.530
15305TIP3    H145856   3.971   1.188   4.583
15305TIP3    H245857   4.104   1.243   4.534
15306TIP3   OH245858   1.116   7.340   6.723
15306TIP3    H145859   1.177   7.414   6.722
15306TIP3    H245860   1.035   7.376   6.759
15307TIP3   OH245861   7.319   0.322   0.923
15307TIP3    H145862   7.358   0.368   0.849
15307TIP3    H245863   7.383   0.331   0.994
15308TIP3   OH245864   4.083   4.537   1.888
15308TIP3    H145865   4.024   4.609   1.868
15308TIP3    H245866   4.049   4.499   1.969
15309TIP3   OH245867   8.089   2.909   5.949
15309TIP3    H145868   8.011   2.939   5.903
15309TIP3    H245869   8.062   2.901   6.040
15310TIP3   OH245870   1.281   0.478   6.527
15310TIP3    H145871   1.357   0.441   6.484
15310TIP3    H245872   1.295   0.573   6.524
15311TIP3   OH245873   2.051   3.936   3.884
15311TIP3    H145874   1.978   3.891   3.926
15311TIP3    H245875   2.063   4.016   3.935
15312TIP3   OH245876   4.364   5.969   2.838
15312TIP3    H145877   4.387   5.910   2.766
15312TIP3    H245878   4.297   6.026   2.801
15313TIP3   OH245879   7.043   4.087   2.762
15313TIP3    H145880   7.031   4.157   2.699
15313TIP3    H245881   7.109   4.121   2.823
15314TIP3   OH245882   3.422   3.542   1.054
15314TIP3    H145883   3.415   3.632   1.020
15314TIP3    H245884   3.343   3.498   1.021
15315TIP3   OH245885   1.497   5.246   6.002
15315TIP3    H145886   1.529   5.306   5.935
15315TIP3    H245887   1.576   5.217   6.048
15316TIP3   OH245888   6.498   4.022   2.734
15316TIP3    H145889   6.574   3.993   2.784
15316TIP3    H245890   6.477   4.108   2.770
15317TIP3   OH245891   5.178   6.449   0.259
15317TIP3    H145892   5.156   6.539   0.235
15317TIP3    H245893   5.247   6.457   0.325
15318TIP3   OH245894   0.789   1.368   5.598
15318TIP3    H145895   0.789   1.397   5.689
15318TIP3    H245896   0.751   1.280   5.600
15319TIP3   OH245897   0.310   0.183   1.581
15319TIP3    H145898   0.355   0.156   1.501
15319TIP3    H245899   0.272   0.268   1.560
15320TIP3   OH245900   4.010   2.403   4.463
15320TIP3    H145901   4.021   2.322   4.415
15320TIP3    H245902   4.046   2.385   4.550
15321TIP3   OH245903   2.920   5.776   3.791
15321TIP3    H145904   2.977   5.851   3.775
15321TIP3    H245905   2.978   5.700   3.785
15322TIP3   OH245906   4.077   7.622   5.488
15322TIP3    H145907   4.049   7.668   5.409
15322TIP3    H245908   4.006   7.637   5.550
15323TIP3   OH245909   0.287   6.866   6.509
15323TIP3    H145910   0.353   6.818   6.560
15323TIP3    H245911   0.213   6.874   6.569
15324TIP3   OH245912   5.800   4.426   3.155
15324TIP3    H145913   5.820   4.483   3.229
15324TIP3    H245914   5.883   4.416   3.109
15325TIP3   OH245915   2.116   4.095   4.842
15325TIP3    H145916   2.134   4.182   4.807
15325TIP3    H245917   2.115   4.108   4.937
15326TIP3   OH245918   2.548   1.883   4.400
15326TIP3    H145919   2.507   1.821   4.461
15326TIP3    H245920   2.503   1.868   4.317
15327TIP3   OH245921   5.348   5.155   0.383
15327TIP3    H145922   5.344   5.064   0.411
15327TIP3    H245923   5.415   5.156   0.315
15328TIP3   OH245924   5.742   3.402   2.356
15328TIP3    H145925   5.654   3.398   2.319
15328TIP3    H245926   5.781   3.317   2.334
15329TIP3   OH245927   7.040   5.044   4.570
15329TIP3    H145928   7.113   4.996   4.609
15329TIP3    H245929   7.048   5.028   4.476
15330TIP3   OH245930   5.880   2.216   0.860
15330TIP3    H145931   5.792   2.251   0.845
15330TIP3    H245932   5.903   2.173   0.777
15331TIP3   OH245933   4.245   0.261   5.436
15331TIP3    H145934   4.312   0.323   5.463
15331TIP3    H245935   4.163   0.310   5.445
15332TIP3   OH245936   2.356   0.602   5.394
15332TIP3    H145937   2.366   0.672   5.458
15332TIP3    H245938   2.388   0.524   5.439
15333TIP3   OH245939   5.218   7.143   4.383
15333TIP3    H145940   5.287   7.136   4.316
15333TIP3    H245941   5.139   7.113   4.339
15334TIP3   OH245942   4.822   5.391   0.574
15334TIP3    H145943   4.877   5.313   0.584
15334TIP3    H245944   4.871   5.460   0.618
15335TIP3   OH245945  -0.013   6.155   0.412
15335TIP3    H145946   0.013   6.068   0.444
15335TIP3    H245947   0.033   6.216   0.469
15336TIP3   OH245948   5.983   6.282   2.999
15336TIP3    H145949   6.032   6.200   2.999
15336TIP3    H245950   5.919   6.271   3.070
15337TIP3   OH245951   1.067   0.031   3.623
15337TIP3    H145952   1.033   0.113   3.660
15337TIP3    H245953   1.022   0.022   3.540
15338TIP3   OH245954   3.613   3.239   5.898
15338TIP3    H145955   3.690   3.263   5.846
15338TIP3    H245956   3.638   3.158   5.942
15339TIP3   OH245957   2.884   7.255   6.070
15339TIP3    H145958   2.830   7.229   5.995
15339TIP3    H245959   2.974   7.242   6.041
15340TIP3   OH245960   6.319   3.081   3.358
15340TIP3    H145961   6.317   3.019   3.285
15340TIP3    H245962   6.236   3.068   3.404
15341TIP3   OH245963   4.755   1.618   5.033
15341TIP3    H145964   4.670   1.577   5.015
15341TIP3    H245965   4.791   1.637   4.947
15342TIP3   OH245966   2.074   4.156   5.714
15342TIP3    H145967   2.078   4.196   5.801
15342TIP3    H245968   2.054   4.064   5.732
15343TIP3   OH245969   0.217   7.724   4.693
15343TIP3    H145970   0.219   7.631   4.717
15343TIP3    H245971   0.280   7.732   4.621
15344TIP3   OH245972   0.514   2.920   4.346
15344TIP3    H145973   0.505   2.893   4.255
15344TIP3    H245974   0.564   3.002   4.341
15345TIP3   OH245975   2.652   2.111   4.234
15345TIP3    H145976   2.652   2.033   4.289
15345TIP3    H245977   2.592   2.172   4.277
15346TIP3   OH245978   5.983   5.688   1.389
15346TIP3    H145979   5.917   5.696   1.320
15346TIP3    H245980   6.066   5.686   1.342
15347TIP3   OH245981   4.770   1.745   3.257
15347TIP3    H145982   4.677   1.748   3.281
15347TIP3    H245983   4.784   1.655   3.228
15348TIP3   OH245984   7.733   5.801   2.693
15348TIP3    H145985   7.646   5.838   2.677
15348TIP3    H245986   7.727   5.711   2.661
15349TIP3   OH245987   4.140   0.546   1.449
15349TIP3    H145988   4.164   0.601   1.374
15349TIP3    H245989   4.082   0.601   1.501
15350TIP3   OH245990   3.649   4.556   3.356
15350TIP3    H145991   3.670   4.516   3.272
15350TIP3    H245992   3.662   4.486   3.420
15351TIP3   OH245993   4.861   0.314   2.150
15351TIP3    H145994   4.929   0.246   2.157
15351TIP3    H245995   4.887   0.380   2.213
15352TIP3   OH245996   7.840   1.489   0.918
15352TIP3    H145997   7.905   1.422   0.938
15352TIP3    H245998   7.875   1.569   0.956
15353TIP3   OH245999   0.745   6.424   0.958
15353TIP3    H146000   0.743   6.501   1.015
15353TIP3    H246001   0.808   6.365   0.999
15354TIP3   OH246002   5.249   1.125   1.682
15354TIP3    H146003   5.244   1.148   1.775
15354TIP3    H246004   5.317   1.058   1.678
15355TIP3   OH246005   6.847   1.724   2.988
15355TIP3    H146006   6.815   1.799   2.938
15355TIP3    H246007   6.824   1.744   3.079
15356TIP3   OH246008   0.631   5.234   0.644
15356TIP3    H146009   0.699   5.190   0.593
15356TIP3    H246010   0.602   5.306   0.589
15357TIP3   OH246011   5.327   3.710   3.281
15357TIP3    H146012   5.232   3.702   3.270
15357TIP3    H246013   5.358   3.740   3.196
15358TIP3   OH246014   3.208   0.481   3.297
15358TIP3    H146015   3.163   0.565   3.287
15358TIP3    H246016   3.244   0.463   3.210
15359TIP3   OH246017   0.318   4.960   6.674
15359TIP3    H146018   0.268   5.005   6.742
15359TIP3    H246019   0.302   4.867   6.690
15360TIP3   OH246020   2.935   1.191   3.481
15360TIP3    H146021   2.912   1.129   3.551
15360TIP3    H246022   2.999   1.145   3.427
15361TIP3   OH246023   6.921   2.596   1.965
15361TIP3    H146024   6.856   2.548   2.015
15361TIP3    H246025   6.926   2.681   2.008
15362TIP3   OH246026   8.174   6.564   3.891
15362TIP3    H146027   8.248   6.547   3.950
15362TIP3    H246028   8.210   6.548   3.803
15363TIP3   OH246029   4.294   6.945   0.015
15363TIP3    H146030   4.382   6.923  -0.016
15363TIP3    H246031   4.303   7.035   0.046
15364TIP3   OH246032   2.580   1.371   1.853
15364TIP3    H146033   2.601   1.278   1.851
15364TIP3    H246034   2.626   1.404   1.930
15365TIP3   OH246035   0.607   6.525   4.271
15365TIP3    H146036   0.587   6.553   4.361
15365TIP3    H246037   0.593   6.603   4.218
15366TIP3   OH246038   6.710   2.777   0.487
15366TIP3    H146039   6.657   2.851   0.460
15366TIP3    H246040   6.767   2.812   0.555
15367TIP3   OH246041   0.421   1.319   6.785
15367TIP3    H146042   0.351   1.299   6.848
15367TIP3    H246043   0.406   1.260   6.712
15368TIP3   OH246044   0.762   1.685   3.626
15368TIP3    H146045   0.829   1.643   3.680
15368TIP3    H246046   0.705   1.730   3.688
15369TIP3   OH246047   5.770   0.918   5.264
15369TIP3    H146048   5.770   0.826   5.289
15369TIP3    H246049   5.848   0.928   5.210
15370TIP3   OH246050   3.796   3.387   3.666
15370TIP3    H146051   3.759   3.457   3.612
15370TIP3    H246052   3.866   3.430   3.715
15371TIP3   OH246053   3.009   4.084   4.372
15371TIP3    H146054   3.057   4.038   4.303
15371TIP3    H246055   2.969   4.015   4.425
   8.39851   7.91819   6.85735   0.00000   0.00000  -2.79950   0.00000  -2.79950  -3.95909
