Title t= 161.00000 step= 80500
19942
    1ASP      N    1   1.102   1.903   3.412
    1ASP    HT1    2   1.127   1.950   3.323
    1ASP    HT2    3   1.143   1.964   3.485
    1ASP    HT3    4   0.999   1.916   3.415
    1ASP     CA    5   1.143   1.760   3.430
    1ASP     HA    6   1.251   1.761   3.437
    1ASP     CB    7   1.083   1.702   3.558
    1ASP    HB1    8   0.974   1.722   3.550
    1ASP    HB2    9   1.122   1.761   3.644
    1ASP     CG   10   1.125   1.555   3.586
    1ASP    OD1   11   1.032   1.472   3.621
    1ASP    OD2   12   1.246   1.515   3.579
    1ASP      C   13   1.115   1.679   3.301
    1ASP      O   14   1.212   1.629   3.235
    2ALA      N   15   0.982   1.656   3.269
    2ALA     HN   16   0.900   1.687   3.318
    2ALA     CA   17   0.948   1.550   3.173
    2ALA     HA   18   1.032   1.498   3.128
    2ALA     CB   19   0.862   1.431   3.236
    2ALA    HB1   20   0.815   1.359   3.165
    2ALA    HB2   21   0.785   1.468   3.306
    2ALA    HB3   22   0.926   1.361   3.294
    2ALA      C   23   0.873   1.601   3.053
    2ALA      O   24   0.792   1.690   3.069
    3ASP      N   25   0.899   1.544   2.930
    3ASP     HN   26   0.967   1.473   2.922
    3ASP     CA   27   0.836   1.588   2.806
    3ASP     HA   28   0.767   1.668   2.827
    3ASP     CB   29   0.951   1.638   2.708
    3ASP    HB1   30   0.900   1.651   2.610
    3ASP    HB2   31   1.036   1.568   2.703
    3ASP     CG   32   1.010   1.765   2.760
    3ASP    OD1   33   1.135   1.773   2.774
    3ASP    OD2   34   0.932   1.858   2.794
    3ASP      C   35   0.757   1.466   2.752
    3ASP      O   36   0.804   1.349   2.763
    4GLY      N   37   0.634   1.486   2.706
    4GLY     HN   38   0.586   1.573   2.713
    4GLY     CA   39   0.540   1.384   2.649
    4GLY    HA1   40   0.462   1.435   2.596
    4GLY    HA2   41   0.505   1.323   2.732
    4GLY      C   42   0.600   1.295   2.538
    4GLY      O   43   0.708   1.324   2.489
    5PRO      N   44   0.523   1.194   2.483
    5PRO     CD   45   0.393   1.156   2.541
    5PRO    HD1   46   0.335   1.246   2.573
    5PRO    HD2   47   0.409   1.088   2.627
    5PRO     CA   48   0.549   1.117   2.358
    5PRO     HA   49   0.644   1.067   2.370
    5PRO     CB   50   0.441   1.010   2.361
    5PRO    HB1   51   0.479   0.932   2.430
    5PRO    HB2   52   0.414   0.973   2.260
    5PRO     CG   53   0.324   1.072   2.434
    5PRO    HG1   54   0.264   1.138   2.368
    5PRO    HG2   55   0.265   0.986   2.472
    5PRO      C   56   0.561   1.193   2.234
    5PRO      O   57   0.493   1.292   2.213
    6GLY      N   58   0.650   1.141   2.140
    6GLY     HN   59   0.711   1.069   2.173
    6GLY     CA   60   0.660   1.172   2.003
    6GLY    HA1   61   0.757   1.135   1.973
    6GLY    HA2   62   0.651   1.279   1.991
    6GLY      C   63   0.553   1.099   1.930
    6GLY      O   64   0.443   1.069   1.974
    7ASP      N   65   0.589   1.054   1.804
    7ASP     HN   66   0.675   1.077   1.759
    7ASP     CA   67   0.511   0.962   1.723
    7ASP     HA   68   0.413   1.006   1.714
    7ASP     CB   69   0.583   0.959   1.583
    7ASP    HB1   70   0.672   0.893   1.590
    7ASP    HB2   71   0.617   1.062   1.557
    7ASP     CG   72   0.497   0.899   1.474
    7ASP    OD1   73   0.552   0.873   1.364
    7ASP    OD2   74   0.372   0.906   1.483
    7ASP      C   75   0.509   0.815   1.784
    7ASP      O   76   0.614   0.779   1.838
    8PRO      N   77   0.407   0.730   1.777
    8PRO     CD   78   0.268   0.770   1.767
    8PRO    HD1   79   0.246   0.763   1.659
    8PRO    HD2   80   0.239   0.870   1.806
    8PRO     CA   81   0.424   0.595   1.834
    8PRO     HA   82   0.460   0.603   1.935
    8PRO     CB   83   0.288   0.531   1.823
    8PRO    HB1   84   0.275   0.460   1.908
    8PRO    HB2   85   0.248   0.492   1.727
    8PRO     CG   86   0.195   0.657   1.843
    8PRO    HG1   87   0.088   0.645   1.815
    8PRO    HG2   88   0.199   0.680   1.952
    8PRO      C   89   0.526   0.508   1.756
    8PRO      O   90   0.538   0.385   1.783
    9ASP      N   91   0.598   0.564   1.653
    9ASP     HN   92   0.573   0.648   1.605
    9ASP     CA   93   0.709   0.505   1.578
    9ASP     HA   94   0.711   0.397   1.584
    9ASP     CB   95   0.694   0.551   1.425
    9ASP    HB1   96   0.789   0.523   1.374
    9ASP    HB2   97   0.687   0.661   1.433
    9ASP     CG   98   0.580   0.488   1.355
    9ASP    OD1   99   0.504   0.572   1.296
    9ASP    OD2  100   0.556   0.363   1.360
    9ASP      C  101   0.843   0.548   1.639
    9ASP      O  102   0.943   0.523   1.571
   10ALA      N  103   0.843   0.614   1.756
   10ALA     HN  104   0.757   0.621   1.804
   10ALA     CA  105   0.962   0.666   1.823
   10ALA     HA  106   1.055   0.630   1.780
   10ALA     CB  107   0.952   0.813   1.829
   10ALA    HB1  108   1.041   0.857   1.879
   10ALA    HB2  109   0.860   0.844   1.883
   10ALA    HB3  110   0.937   0.855   1.727
   10ALA      C  111   0.961   0.610   1.965
   10ALA      O  112   0.855   0.558   2.012
   11GLY      N  113   1.071   0.633   2.035
   11GLY     HN  114   1.146   0.689   2.001
   11GLY     CA  115   1.089   0.582   2.169
   11GLY    HA1  116   1.193   0.554   2.176
   11GLY    HA2  117   1.015   0.511   2.202
   11GLY      C  118   1.071   0.706   2.265
   11GLY    OT1  119   0.953   0.727   2.316
   11GLY    OT2  120   1.171   0.779   2.282
   12LIT    LIT  121   4.114   4.082   4.354
   13LIT    LIT  122   1.135   3.053   2.321
   14LIT    LIT  123   0.879   5.833   3.769
   15LIT    LIT  124   2.167   1.958   0.317
   16LIT    LIT  125   3.701   5.859   3.209
   17LIT    LIT  126   2.776   4.826   3.827
   18LIT    LIT  127   6.257   5.507   2.905
   19LIT    LIT  128   0.542   0.745   1.203
   20LIT    LIT  129   4.055   5.401   0.110
   21LIT    LIT  130   1.548   5.968   2.718
   22LIT    LIT  131   3.906   3.288   1.588
   23LIT    LIT  132   1.784   1.602   2.015
   24LIT    LIT  133   2.533   5.251   4.534
   25LIT    LIT  134   2.542   5.942   0.762
   26LIT    LIT  135   4.959   4.988   0.160
   27LIT    LIT  136   3.618   5.820   2.546
   28LIT    LIT  137   1.338   1.592   3.960
   29LIT    LIT  138   3.398   3.753   2.906
   30LIT    LIT  139   1.262   1.902   2.005
   31LIT    LIT  140   4.711   2.556   3.785
   32LIT    LIT  141   2.555   5.647   1.188
   33LIT    LIT  142   5.234   1.304   2.328
   34CLA    CLA  143   5.408   1.741   2.268
   35CLA    CLA  144   0.212   0.469   4.767
   36CLA    CLA  145   3.706   0.278   4.722
   37CLA    CLA  146   5.643   5.578   4.467
   38CLA    CLA  147   4.578   4.810   0.118
   39CLA    CLA  148   3.580   4.327   3.967
   40CLA    CLA  149   3.859   2.624   0.486
   41CLA    CLA  150   2.298   2.500   1.298
   42CLA    CLA  151   4.408   4.188   1.476
   43CLA    CLA  152   1.672   3.472   1.587
   44CLA    CLA  153   3.434   0.353   0.270
   45CLA    CLA  154   2.508   0.570   3.378
   46CLA    CLA  155   4.753   5.499   3.408
   47CLA    CLA  156   5.161   4.867   0.141
   48CLA    CLA  157   3.362   4.428   4.717
   49CLA    CLA  158   6.306   4.393   1.788
   50CLA    CLA  159   2.598   2.226   1.882
   51CLA    CLA  160   1.281   5.322   1.653
   52TIP3   OH2  161   5.945   2.285   1.001
   52TIP3    H1  162   5.875   2.343   1.030
   52TIP3    H2  163   6.020   2.343   0.987
   53TIP3   OH2  164   5.961   1.055   2.101
   53TIP3    H1  165   6.009   1.001   2.164
   53TIP3    H2  166   5.869   1.040   2.121
   54TIP3   OH2  167   6.156   1.944   3.377
   54TIP3    H1  168   6.126   1.853   3.382
   54TIP3    H2  169   6.081   1.995   3.408
   55TIP3   OH2  170   2.708   4.719   1.910
   55TIP3    H1  171   2.705   4.740   1.816
   55TIP3    H2  172   2.653   4.786   1.951
   56TIP3   OH2  173   2.713   1.846   1.595
   56TIP3    H1  174   2.780   1.782   1.570
   56TIP3    H2  175   2.635   1.820   1.545
   57TIP3   OH2  176   4.579   2.179   4.546
   57TIP3    H1  177   4.617   2.138   4.468
   57TIP3    H2  178   4.628   2.142   4.619
   58TIP3   OH2  179   0.604   3.346   0.528
   58TIP3    H1  180   0.522   3.320   0.485
   58TIP3    H2  181   0.590   3.436   0.555
   59TIP3   OH2  182   4.265   2.781   3.392
   59TIP3    H1  183   4.195   2.835   3.356
   59TIP3    H2  184   4.239   2.762   3.482
   60TIP3   OH2  185   2.392   5.218   5.051
   60TIP3    H1  186   2.408   5.183   5.139
   60TIP3    H2  187   2.311   5.176   5.023
   61TIP3   OH2  188   5.743   2.496   2.178
   61TIP3    H1  189   5.736   2.402   2.195
   61TIP3    H2  190   5.836   2.512   2.164
   62TIP3   OH2  191   3.879   4.900   3.708
   62TIP3    H1  192   3.863   4.883   3.801
   62TIP3    H2  193   3.973   4.885   3.696
   63TIP3   OH2  194   2.627   2.611   1.797
   63TIP3    H1  195   2.558   2.554   1.762
   63TIP3    H2  196   2.590   2.647   1.877
   64TIP3   OH2  197   3.094   5.278   1.972
   64TIP3    H1  198   3.045   5.209   1.927
   64TIP3    H2  199   3.185   5.263   1.948
   65TIP3   OH2  200   0.169   5.803   0.199
   65TIP3    H1  201   0.145   5.852   0.278
   65TIP3    H2  202   0.218   5.866   0.146
   66TIP3   OH2  203   0.983   2.807   3.821
   66TIP3    H1  204   0.939   2.809   3.736
   66TIP3    H2  205   0.931   2.865   3.876
   67TIP3   OH2  206   3.719   0.552   0.521
   67TIP3    H1  207   3.713   0.617   0.592
   67TIP3    H2  208   3.685   0.471   0.560
   68TIP3   OH2  209   1.486   0.482   0.102
   68TIP3    H1  210   1.570   0.438   0.111
   68TIP3    H2  211   1.421   0.413   0.110
   69TIP3   OH2  212   5.149   3.632   0.244
   69TIP3    H1  213   5.075   3.645   0.304
   69TIP3    H2  214   5.144   3.540   0.219
   70TIP3   OH2  215   5.684   0.454   4.267
   70TIP3    H1  216   5.707   0.449   4.360
   70TIP3    H2  217   5.631   0.534   4.260
   71TIP3   OH2  218   4.530   4.996   1.247
   71TIP3    H1  219   4.440   5.012   1.220
   71TIP3    H2  220   4.561   4.928   1.187
   72TIP3   OH2  221   5.826   5.903   0.730
   72TIP3    H1  222   5.802   5.815   0.700
   72TIP3    H2  223   5.910   5.890   0.775
   73TIP3   OH2  224   3.005   0.413   2.710
   73TIP3    H1  225   2.926   0.371   2.676
   73TIP3    H2  226   2.987   0.426   2.803
   74TIP3   OH2  227   4.866   1.301   3.644
   74TIP3    H1  228   4.806   1.295   3.718
   74TIP3    H2  229   4.847   1.386   3.604
   75TIP3   OH2  230   6.358   3.218   0.949
   75TIP3    H1  231   6.309   3.192   1.027
   75TIP3    H2  232   6.399   3.301   0.974
   76TIP3   OH2  233   4.533   4.643   1.211
   76TIP3    H1  234   4.518   4.642   1.305
   76TIP3    H2  235   4.585   4.565   1.194
   77TIP3   OH2  236   0.793   1.378   3.568
   77TIP3    H1  237   0.885   1.399   3.587
   77TIP3    H2  238   0.755   1.463   3.543
   78TIP3   OH2  239   1.710   2.381   3.260
   78TIP3    H1  240   1.705   2.309   3.196
   78TIP3    H2  241   1.799   2.374   3.296
   79TIP3   OH2  242   0.950   0.056   2.219
   79TIP3    H1  243   0.878   0.072   2.158
   79TIP3    H2  244   1.028   0.053   2.164
   80TIP3   OH2  245   0.132   2.130   4.648
   80TIP3    H1  246   0.212   2.125   4.596
   80TIP3    H2  247   0.095   2.041   4.645
   81TIP3   OH2  248   1.501   3.770   2.789
   81TIP3    H1  249   1.454   3.796   2.710
   81TIP3    H2  250   1.439   3.718   2.839
   82TIP3   OH2  251   0.217   0.184   4.925
   82TIP3    H1  252   0.221   0.276   4.897
   82TIP3    H2  253   0.297   0.172   4.977
   83TIP3   OH2  254   0.653   0.940   3.066
   83TIP3    H1  255   0.657   1.022   3.018
   83TIP3    H2  256   0.744   0.911   3.072
   84TIP3   OH2  257   1.858   3.302   0.955
   84TIP3    H1  258   1.833   3.368   0.891
   84TIP3    H2  259   1.802   3.321   1.031
   85TIP3   OH2  260   6.044   0.055   4.179
   85TIP3    H1  261   6.015   0.146   4.174
   85TIP3    H2  262   6.067   0.032   4.089
   86TIP3   OH2  263   5.315   1.713   1.522
   86TIP3    H1  264   5.299   1.786   1.461
   86TIP3    H2  265   5.227   1.689   1.553
   87TIP3   OH2  266   4.445   4.686   2.485
   87TIP3    H1  267   4.351   4.666   2.491
   87TIP3    H2  268   4.454   4.770   2.529
   88TIP3   OH2  269   5.498   2.510   1.872
   88TIP3    H1  270   5.494   2.421   1.908
   88TIP3    H2  271   5.528   2.564   1.945
   89TIP3   OH2  272   2.757   4.307   4.653
   89TIP3    H1  273   2.799   4.222   4.642
   89TIP3    H2  274   2.824   4.371   4.627
   90TIP3   OH2  275   4.729   3.782   0.649
   90TIP3    H1  276   4.742   3.792   0.743
   90TIP3    H2  277   4.737   3.871   0.614
   91TIP3   OH2  278   5.376   0.216   4.955
   91TIP3    H1  279   5.414   0.167   4.883
   91TIP3    H2  280   5.415   0.303   4.949
   92TIP3   OH2  281   1.245   4.908   5.143
   92TIP3    H1  282   1.217   4.847   5.211
   92TIP3    H2  283   1.261   4.853   5.066
   93TIP3   OH2  284   5.796   0.498   1.648
   93TIP3    H1  285   5.774   0.445   1.725
   93TIP3    H2  286   5.863   0.559   1.679
   94TIP3   OH2  287   4.084   4.398   3.003
   94TIP3    H1  288   4.065   4.421   2.912
   94TIP3    H2  289   4.138   4.470   3.035
   95TIP3   OH2  290   3.773   0.027   2.246
   95TIP3    H1  291   3.695   0.082   2.253
   95TIP3    H2  292   3.807   0.045   2.158
   96TIP3   OH2  293   1.360   4.752   0.250
   96TIP3    H1  294   1.317   4.667   0.242
   96TIP3    H2  295   1.403   4.766   0.166
   97TIP3   OH2  296   0.883   3.665   4.560
   97TIP3    H1  297   0.813   3.628   4.613
   97TIP3    H2  298   0.963   3.628   4.597
   98TIP3   OH2  299   4.866   3.420   0.314
   98TIP3    H1  300   4.956   3.389   0.297
   98TIP3    H2  301   4.811   3.361   0.263
   99TIP3   OH2  302   1.146   2.026   2.892
   99TIP3    H1  303   1.086   1.969   2.843
   99TIP3    H2  304   1.199   2.068   2.825
  100TIP3   OH2  305   4.571   2.166   2.997
  100TIP3    H1  306   4.557   2.142   2.906
  100TIP3    H2  307   4.530   2.252   3.006
  101TIP3   OH2  308   5.678   5.339   1.940
  101TIP3    H1  309   5.770   5.342   1.965
  101TIP3    H2  310   5.654   5.247   1.951
  102TIP3   OH2  311   1.232   2.784   4.491
  102TIP3    H1  312   1.177   2.819   4.561
  102TIP3    H2  313   1.318   2.772   4.531
  103TIP3   OH2  314   2.146   1.627   1.519
  103TIP3    H1  315   2.194   1.649   1.599
  103TIP3    H2  316   2.075   1.691   1.515
  104TIP3   OH2  317   0.143   1.483   1.873
  104TIP3    H1  318   0.129   1.409   1.932
  104TIP3    H2  319   0.064   1.537   1.883
  105TIP3   OH2  320   1.558   2.415   0.546
  105TIP3    H1  321   1.576   2.361   0.469
  105TIP3    H2  322   1.619   2.383   0.613
  106TIP3   OH2  323   0.550   4.374   0.055
  106TIP3    H1  324   0.488   4.301   0.055
  106TIP3    H2  325   0.506   4.443   0.104
  107TIP3   OH2  326   5.693   0.791   4.713
  107TIP3    H1  327   5.701   0.713   4.658
  107TIP3    H2  328   5.655   0.760   4.794
  108TIP3   OH2  329   0.099   5.007   4.063
  108TIP3    H1  330   0.112   4.921   4.025
  108TIP3    H2  331   0.056   4.990   4.147
  109TIP3   OH2  332   2.080   1.156   0.252
  109TIP3    H1  333   2.138   1.138   0.178
  109TIP3    H2  334   2.059   1.070   0.289
  110TIP3   OH2  335   4.924   5.588   3.034
  110TIP3    H1  336   4.994   5.621   3.091
  110TIP3    H2  337   4.843   5.616   3.078
  111TIP3   OH2  338   0.899   5.698   4.608
  111TIP3    H1  339   0.891   5.757   4.682
  111TIP3    H2  340   0.878   5.752   4.531
  112TIP3   OH2  341   4.838   3.861   1.826
  112TIP3    H1  342   4.843   3.858   1.921
  112TIP3    H2  343   4.809   3.773   1.800
  113TIP3   OH2  344   2.504   0.054   3.147
  113TIP3    H1  345   2.537   0.132   3.192
  113TIP3    H2  346   2.579  -0.005   3.143
  114TIP3   OH2  347   1.064   2.918   2.201
  114TIP3    H1  348   0.987   2.867   2.226
  114TIP3    H2  349   1.102   2.870   2.127
  115TIP3   OH2  350   5.436   1.223   4.526
  115TIP3    H1  351   5.390   1.290   4.575
  115TIP3    H2  352   5.417   1.142   4.573
  116TIP3   OH2  353   3.545   2.993   4.851
  116TIP3    H1  354   3.625   2.969   4.898
  116TIP3    H2  355   3.549   2.942   4.770
  117TIP3   OH2  356   3.589   4.491   3.148
  117TIP3    H1  357   3.682   4.468   3.152
  117TIP3    H2  358   3.550   4.424   3.092
  118TIP3   OH2  359   3.956   4.682   3.498
  118TIP3    H1  360   3.984   4.750   3.560
  118TIP3    H2  361   4.028   4.619   3.500
  119TIP3   OH2  362   5.497   5.598   1.467
  119TIP3    H1  363   5.462   5.669   1.520
  119TIP3    H2  364   5.585   5.626   1.444
  120TIP3   OH2  365   0.331   2.850   0.059
  120TIP3    H1  366   0.299   2.879  -0.027
  120TIP3    H2  367   0.404   2.909   0.079
  121TIP3   OH2  368   0.397   0.341   4.230
  121TIP3    H1  369   0.361   0.398   4.297
  121TIP3    H2  370   0.445   0.273   4.278
  122TIP3   OH2  371   4.471   5.052   3.694
  122TIP3    H1  372   4.507   4.971   3.730
  122TIP3    H2  373   4.514   5.122   3.744
  123TIP3   OH2  374   3.943   5.750   0.262
  123TIP3    H1  375   4.001   5.727   0.334
  123TIP3    H2  376   3.979   5.832   0.227
  124TIP3   OH2  377   5.226   1.584   4.947
  124TIP3    H1  378   5.141   1.557   4.980
  124TIP3    H2  379   5.289   1.528   4.992
  125TIP3   OH2  380   2.987   4.940   0.445
  125TIP3    H1  381   3.078   4.965   0.436
  125TIP3    H2  382   2.984   4.847   0.421
  126TIP3   OH2  383   2.325   4.918   1.189
  126TIP3    H1  384   2.338   4.848   1.125
  126TIP3    H2  385   2.231   4.938   1.184
  127TIP3   OH2  386   0.808   4.523   3.542
  127TIP3    H1  387   0.853   4.582   3.483
  127TIP3    H2  388   0.722   4.563   3.556
  128TIP3   OH2  389   5.475   4.331   0.718
  128TIP3    H1  390   5.542   4.389   0.682
  128TIP3    H2  391   5.398   4.345   0.662
  129TIP3   OH2  392   3.476   1.502   4.754
  129TIP3    H1  393   3.474   1.412   4.721
  129TIP3    H2  394   3.459   1.557   4.678
  130TIP3   OH2  395   3.038   1.193   3.960
  130TIP3    H1  396   3.051   1.288   3.957
  130TIP3    H2  397   3.009   1.176   4.050
  131TIP3   OH2  398   1.241   5.615   0.941
  131TIP3    H1  399   1.229   5.520   0.934
  131TIP3    H2  400   1.254   5.630   1.035
  132TIP3   OH2  401   2.660   1.344   2.488
  132TIP3    H1  402   2.737   1.287   2.495
  132TIP3    H2  403   2.659   1.393   2.570
  133TIP3   OH2  404   5.344   0.905   4.155
  133TIP3    H1  405   5.370   0.996   4.169
  133TIP3    H2  406   5.256   0.899   4.191
  134TIP3   OH2  407   5.576   1.845   0.500
  134TIP3    H1  408   5.638   1.904   0.458
  134TIP3    H2  409   5.494   1.894   0.504
  135TIP3   OH2  410   1.876   2.218   2.724
  135TIP3    H1  411   1.826   2.297   2.743
  135TIP3    H2  412   1.841   2.152   2.784
  136TIP3   OH2  413   5.897   1.982   4.466
  136TIP3    H1  414   5.981   1.960   4.425
  136TIP3    H2  415   5.832   1.959   4.400
  137TIP3   OH2  416   6.195   3.993   2.728
  137TIP3    H1  417   6.172   4.072   2.777
  137TIP3    H2  418   6.133   3.927   2.757
  138TIP3   OH2  419   3.384   3.251   4.141
  138TIP3    H1  420   3.297   3.235   4.179
  138TIP3    H2  421   3.413   3.331   4.185
  139TIP3   OH2  422   2.097   5.863   3.211
  139TIP3    H1  423   2.164   5.797   3.195
  139TIP3    H2  424   2.100   5.920   3.134
  140TIP3   OH2  425   1.876   4.807   4.717
  140TIP3    H1  426   1.948   4.750   4.743
  140TIP3    H2  427   1.917   4.875   4.663
  141TIP3   OH2  428   5.465   1.036   3.404
  141TIP3    H1  429   5.492   1.081   3.324
  141TIP3    H2  430   5.412   1.100   3.451
  142TIP3   OH2  431   3.582   2.616   2.943
  142TIP3    H1  432   3.657   2.559   2.962
  142TIP3    H2  433   3.531   2.566   2.879
  143TIP3   OH2  434   0.104   1.320   2.187
  143TIP3    H1  435   0.141   1.269   2.115
  143TIP3    H2  436   0.179   1.368   2.223
  144TIP3   OH2  437   4.168   4.260   4.315
  144TIP3    H1  438   4.234   4.295   4.375
  144TIP3    H2  439   4.174   4.317   4.238
  145TIP3   OH2  440   5.940   4.927   3.430
  145TIP3    H1  441   5.933   4.940   3.525
  145TIP3    H2  442   5.884   4.996   3.393
  146TIP3   OH2  443   2.951   0.843   1.815
  146TIP3    H1  444   2.949   0.936   1.793
  146TIP3    H2  445   2.957   0.798   1.731
  147TIP3   OH2  446   1.443   3.381   1.068
  147TIP3    H1  447   1.404   3.309   1.117
  147TIP3    H2  448   1.415   3.367   0.978
  148TIP3   OH2  449   5.638   2.561   2.805
  148TIP3    H1  450   5.627   2.599   2.892
  148TIP3    H2  451   5.578   2.610   2.750
  149TIP3   OH2  452   0.613   0.584   4.389
  149TIP3    H1  453   0.679   0.614   4.327
  149TIP3    H2  454   0.611   0.489   4.378
  150TIP3   OH2  455   4.374   5.600   5.038
  150TIP3    H1  456   4.328   5.671   4.994
  150TIP3    H2  457   4.439   5.570   4.974
  151TIP3   OH2  458   5.230   0.910   1.663
  151TIP3    H1  459   5.325   0.919   1.651
  151TIP3    H2  460   5.192   0.964   1.594
  152TIP3   OH2  461   4.052   4.231   5.132
  152TIP3    H1  462   4.070   4.182   5.051
  152TIP3    H2  463   4.106   4.187   5.198
  153TIP3   OH2  464   1.133   3.769   4.780
  153TIP3    H1  465   1.107   3.710   4.851
  153TIP3    H2  466   1.087   3.851   4.800
  154TIP3   OH2  467   4.117   4.813   0.186
  154TIP3    H1  468   4.179   4.741   0.176
  154TIP3    H2  469   4.115   4.855   0.100
  155TIP3   OH2  470   2.522   2.820   0.924
  155TIP3    H1  471   2.598   2.876   0.909
  155TIP3    H2  472   2.546   2.767   1.000
  156TIP3   OH2  473   3.988   0.950   4.067
  156TIP3    H1  474   3.949   0.865   4.045
  156TIP3    H2  475   4.051   0.966   3.997
  157TIP3   OH2  476   0.856   4.019   4.707
  157TIP3    H1  477   0.793   3.974   4.763
  157TIP3    H2  478   0.807   4.092   4.669
  158TIP3   OH2  479   3.423   2.437   2.816
  158TIP3    H1  480   3.358   2.468   2.753
  158TIP3    H2  481   3.435   2.344   2.794
  159TIP3   OH2  482   0.294   3.201   5.104
  159TIP3    H1  483   0.232   3.205   5.032
  159TIP3    H2  484   0.244   3.228   5.181
  160TIP3   OH2  485   5.176   2.859   1.085
  160TIP3    H1  486   5.155   2.766   1.091
  160TIP3    H2  487   5.092   2.901   1.066
  161TIP3   OH2  488   6.202   0.377   0.540
  161TIP3    H1  489   6.215   0.327   0.621
  161TIP3    H2  490   6.159   0.457   0.568
  162TIP3   OH2  491   1.830   0.856   1.480
  162TIP3    H1  492   1.880   0.876   1.401
  162TIP3    H2  493   1.768   0.788   1.453
  163TIP3   OH2  494   3.192   0.996   3.243
  163TIP3    H1  495   3.180   1.091   3.248
  163TIP3    H2  496   3.217   0.979   3.152
  164TIP3   OH2  497   5.649   2.279   0.391
  164TIP3    H1  498   5.627   2.277   0.484
  164TIP3    H2  499   5.733   2.234   0.386
  165TIP3   OH2  500   3.368   1.955   2.220
  165TIP3    H1  501   3.360   1.875   2.170
  165TIP3    H2  502   3.408   2.018   2.159
  166TIP3   OH2  503   2.817   5.563   0.836
  166TIP3    H1  504   2.770   5.482   0.856
  166TIP3    H2  505   2.908   5.544   0.859
  167TIP3   OH2  506   6.047   1.109   2.797
  167TIP3    H1  507   6.116   1.153   2.847
  167TIP3    H2  508   6.092   1.039   2.750
  168TIP3   OH2  509   1.242   0.344   0.726
  168TIP3    H1  510   1.301   0.398   0.778
  168TIP3    H2  511   1.274   0.254   0.738
  169TIP3   OH2  512   6.148   0.111   4.634
  169TIP3    H1  513   6.075   0.135   4.577
  169TIP3    H2  514   6.210   0.184   4.626
  170TIP3   OH2  515   6.015   1.909   1.893
  170TIP3    H1  516   5.982   1.925   1.982
  170TIP3    H2  517   6.105   1.882   1.905
  171TIP3   OH2  518   4.664   3.475   0.893
  171TIP3    H1  519   4.614   3.505   0.818
  171TIP3    H2  520   4.755   3.476   0.863
  172TIP3   OH2  521   3.273   0.076   0.299
  172TIP3    H1  522   3.302   0.166   0.285
  172TIP3    H2  523   3.298   0.056   0.389
  173TIP3   OH2  524   1.688   3.319   3.621
  173TIP3    H1  525   1.729   3.276   3.546
  173TIP3    H2  526   1.616   3.370   3.584
  174TIP3   OH2  527   5.842   1.199   4.965
  174TIP3    H1  528   5.871   1.156   5.046
  174TIP3    H2  529   5.913   1.183   4.903
  175TIP3   OH2  530   0.124   5.149   1.408
  175TIP3    H1  531   0.175   5.146   1.327
  175TIP3    H2  532   0.182   5.112   1.474
  176TIP3   OH2  533   1.515   0.393   3.595
  176TIP3    H1  534   1.486   0.416   3.507
  176TIP3    H2  535   1.603   0.431   3.602
  177TIP3   OH2  536   5.759   0.007   3.681
  177TIP3    H1  537   5.678  -0.043   3.670
  177TIP3    H2  538   5.765   0.025   3.775
  178TIP3   OH2  539   2.289   1.542   3.686
  178TIP3    H1  540   2.360   1.477   3.694
  178TIP3    H2  541   2.330   1.617   3.644
  179TIP3   OH2  542   3.576   0.147   0.755
  179TIP3    H1  543   3.646   0.161   0.818
  179TIP3    H2  544   3.540   0.061   0.777
  180TIP3   OH2  545   0.502   4.436   0.898
  180TIP3    H1  546   0.512   4.405   0.808
  180TIP3    H2  547   0.408   4.450   0.909
  181TIP3   OH2  548   5.751   3.756   4.779
  181TIP3    H1  549   5.741   3.846   4.811
  181TIP3    H2  550   5.828   3.760   4.723
  182TIP3   OH2  551   5.429   0.295   1.785
  182TIP3    H1  552   5.401   0.374   1.737
  182TIP3    H2  553   5.508   0.266   1.738
  183TIP3   OH2  554   4.300   2.372   0.335
  183TIP3    H1  555   4.286   2.345   0.244
  183TIP3    H2  556   4.348   2.299   0.375
  184TIP3   OH2  557   1.030   2.518   0.218
  184TIP3    H1  558   1.111   2.494   0.172
  184TIP3    H2  559   0.972   2.551   0.149
  185TIP3   OH2  560   0.766   2.989   2.207
  185TIP3    H1  561   0.831   2.977   2.138
  185TIP3    H2  562   0.731   2.902   2.223
  186TIP3   OH2  563   2.133   4.158   3.566
  186TIP3    H1  564   2.229   4.161   3.555
  186TIP3    H2  565   2.107   4.077   3.523
  187TIP3   OH2  566   3.679   5.833   4.122
  187TIP3    H1  567   3.593   5.821   4.163
  187TIP3    H2  568   3.736   5.770   4.166
  188TIP3   OH2  569   0.853   2.012   2.065
  188TIP3    H1  570   0.822   2.052   1.984
  188TIP3    H2  571   0.778   1.963   2.098
  189TIP3   OH2  572   1.872   5.251   0.948
  189TIP3    H1  573   1.857   5.273   0.856
  189TIP3    H2  574   1.875   5.336   0.993
  190TIP3   OH2  575   2.363   1.410   2.177
  190TIP3    H1  576   2.402   1.418   2.090
  190TIP3    H2  577   2.336   1.499   2.199
  191TIP3   OH2  578   4.729   1.283   3.320
  191TIP3    H1  579   4.791   1.210   3.318
  191TIP3    H2  580   4.778   1.356   3.358
  192TIP3   OH2  581   2.235   3.785   1.024
  192TIP3    H1  582   2.185   3.849   0.974
  192TIP3    H2  583   2.218   3.807   1.116
  193TIP3   OH2  584   5.024   2.127   2.646
  193TIP3    H1  585   4.998   2.199   2.703
  193TIP3    H2  586   5.054   2.169   2.565
  194TIP3   OH2  587   4.895   1.935   0.456
  194TIP3    H1  588   4.989   1.948   0.459
  194TIP3    H2  589   4.864   1.998   0.391
  195TIP3   OH2  590   4.706   0.838   1.557
  195TIP3    H1  591   4.719   0.891   1.478
  195TIP3    H2  592   4.785   0.784   1.562
  196TIP3   OH2  593   3.410   0.682   0.347
  196TIP3    H1  594   3.406   0.657   0.440
  196TIP3    H2  595   3.397   0.600   0.300
  197TIP3   OH2  596   4.502   1.372   3.774
  197TIP3    H1  597   4.571   1.315   3.807
  197TIP3    H2  598   4.420   1.329   3.801
  198TIP3   OH2  599   1.114   0.484   3.069
  198TIP3    H1  600   1.123   0.403   3.119
  198TIP3    H2  601   1.020   0.493   3.054
  199TIP3   OH2  602   3.683   2.413   2.387
  199TIP3    H1  603   3.707   2.391   2.296
  199TIP3    H2  604   3.646   2.501   2.382
  200TIP3   OH2  605   5.176   0.501   3.274
  200TIP3    H1  606   5.257   0.450   3.266
  200TIP3    H2  607   5.192   0.558   3.349
  201TIP3   OH2  608   5.331   1.970   3.432
  201TIP3    H1  609   5.408   1.971   3.490
  201TIP3    H2  610   5.334   1.885   3.390
  202TIP3   OH2  611   3.332   4.622   2.389
  202TIP3    H1  612   3.353   4.584   2.304
  202TIP3    H2  613   3.242   4.594   2.406
  203TIP3   OH2  614   3.155   2.571   2.829
  203TIP3    H1  615   3.208   2.594   2.753
  203TIP3    H2  616   3.146   2.476   2.823
  204TIP3   OH2  617   4.436   3.858   0.975
  204TIP3    H1  618   4.454   3.952   0.983
  204TIP3    H2  619   4.345   3.849   1.003
  205TIP3   OH2  620   3.677   1.477   4.925
  205TIP3    H1  621   3.737   1.528   4.870
  205TIP3    H2  622   3.595   1.475   4.876
  206TIP3   OH2  623   0.312   4.773   0.729
  206TIP3    H1  624   0.220   4.791   0.709
  206TIP3    H2  625   0.352   4.756   0.644
  207TIP3   OH2  626   5.133   3.952   3.846
  207TIP3    H1  627   5.146   3.858   3.858
  207TIP3    H2  628   5.207   3.992   3.891
  208TIP3   OH2  629   3.726   1.311   3.563
  208TIP3    H1  630   3.737   1.259   3.484
  208TIP3    H2  631   3.681   1.391   3.533
  209TIP3   OH2  632   0.759   5.227   0.292
  209TIP3    H1  633   0.664   5.215   0.295
  209TIP3    H2  634   0.792   5.162   0.354
  210TIP3   OH2  635   4.279   5.672   4.211
  210TIP3    H1  636   4.329   5.623   4.146
  210TIP3    H2  637   4.343   5.731   4.251
  211TIP3   OH2  638   0.403   3.894   2.434
  211TIP3    H1  639   0.426   3.877   2.525
  211TIP3    H2  640   0.482   3.935   2.397
  212TIP3   OH2  641   3.584   1.967   0.612
  212TIP3    H1  642   3.598   2.060   0.594
  212TIP3    H2  643   3.521   1.966   0.684
  213TIP3   OH2  644   0.617   0.965   4.955
  213TIP3    H1  645   0.600   0.951   4.862
  213TIP3    H2  646   0.627   0.878   4.992
  214TIP3   OH2  647   1.421   3.529   0.273
  214TIP3    H1  648   1.376   3.445   0.270
  214TIP3    H2  649   1.379   3.576   0.346
  215TIP3   OH2  650   3.323   3.443   0.878
  215TIP3    H1  651   3.375   3.480   0.807
  215TIP3    H2  652   3.303   3.517   0.935
  216TIP3   OH2  653   2.138   4.407   0.229
  216TIP3    H1  654   2.218   4.457   0.209
  216TIP3    H2  655   2.167   4.316   0.233
  217TIP3   OH2  656   0.124   4.158   4.492
  217TIP3    H1  657   0.095   4.073   4.524
  217TIP3    H2  658   0.129   4.213   4.570
  218TIP3   OH2  659   4.852   1.500   3.473
  218TIP3    H1  660   4.930   1.541   3.511
  218TIP3    H2  661   4.808   1.572   3.427
  219TIP3   OH2  662   3.385   5.634   0.029
  219TIP3    H1  663   3.471   5.612   0.067
  219TIP3    H2  664   3.323   5.577   0.075
  220TIP3   OH2  665   3.248   1.757   1.456
  220TIP3    H1  666   3.194   1.769   1.535
  220TIP3    H2  667   3.189   1.778   1.384
  221TIP3   OH2  668   5.478   5.734   2.171
  221TIP3    H1  669   5.504   5.816   2.129
  221TIP3    H2  670   5.467   5.673   2.098
  222TIP3   OH2  671   2.561   3.542   2.092
  222TIP3    H1  672   2.561   3.512   2.001
  222TIP3    H2  673   2.587   3.634   2.087
  223TIP3   OH2  674   3.081   5.050   1.019
  223TIP3    H1  675   3.121   5.081   1.100
  223TIP3    H2  676   3.006   5.108   1.005
  224TIP3   OH2  677   2.046   1.516   2.920
  224TIP3    H1  678   2.025   1.578   2.849
  224TIP3    H2  679   1.961   1.495   2.958
  225TIP3   OH2  680   0.354   0.915   3.717
  225TIP3    H1  681   0.339   0.903   3.624
  225TIP3    H2  682   0.377   1.008   3.726
  226TIP3   OH2  683   3.879   3.178   0.079
  226TIP3    H1  684   3.838   3.261   0.055
  226TIP3    H2  685   3.820   3.140   0.144
  227TIP3   OH2  686   5.505   4.739   2.705
  227TIP3    H1  687   5.544   4.808   2.650
  227TIP3    H2  688   5.453   4.787   2.770
  228TIP3   OH2  689   3.531   3.783   3.566
  228TIP3    H1  690   3.507   3.871   3.593
  228TIP3    H2  691   3.599   3.795   3.500
  229TIP3   OH2  692   1.082   3.297   0.879
  229TIP3    H1  693   1.084   3.273   0.972
  229TIP3    H2  694   1.038   3.223   0.836
  230TIP3   OH2  695   5.574   2.081   4.229
  230TIP3    H1  696   5.501   2.068   4.169
  230TIP3    H2  697   5.554   2.162   4.275
  231TIP3   OH2  698   5.135   3.235   1.785
  231TIP3    H1  699   5.051   3.232   1.831
  231TIP3    H2  700   5.125   3.175   1.712
  232TIP3   OH2  701   1.737   4.170   3.652
  232TIP3    H1  702   1.733   4.168   3.556
  232TIP3    H2  703   1.668   4.232   3.677
  233TIP3   OH2  704   4.190   3.451   3.561
  233TIP3    H1  705   4.182   3.466   3.655
  233TIP3    H2  706   4.256   3.382   3.554
  234TIP3   OH2  707   4.604   4.955   4.988
  234TIP3    H1  708   4.612   4.951   4.893
  234TIP3    H2  709   4.528   4.901   5.008
  235TIP3   OH2  710   1.721   3.876   3.280
  235TIP3    H1  711   1.740   3.786   3.253
  235TIP3    H2  712   1.726   3.874   3.375
  236TIP3   OH2  713   2.522   0.011   3.585
  236TIP3    H1  714   2.462   0.021   3.510
  236TIP3    H2  715   2.569   0.095   3.589
  237TIP3   OH2  716   4.540   1.151   4.502
  237TIP3    H1  717   4.454   1.175   4.535
  237TIP3    H2  718   4.565   1.224   4.445
  238TIP3   OH2  719   1.207   0.401   1.731
  238TIP3    H1  720   1.152   0.348   1.789
  238TIP3    H2  721   1.280   0.429   1.786
  239TIP3   OH2  722   4.465   4.731   3.334
  239TIP3    H1  723   4.412   4.807   3.308
  239TIP3    H2  724   4.510   4.759   3.414
  240TIP3   OH2  725   6.270   4.751   3.179
  240TIP3    H1  726   6.262   4.737   3.085
  240TIP3    H2  727   6.362   4.775   3.192
  241TIP3   OH2  728   0.848   4.201   3.853
  241TIP3    H1  729   0.757   4.199   3.881
  241TIP3    H2  730   0.846   4.180   3.760
  242TIP3   OH2  731   3.273   3.665   1.978
  242TIP3    H1  732   3.313   3.585   2.009
  242TIP3    H2  733   3.300   3.672   1.886
  243TIP3   OH2  734   4.104   4.221   2.766
  243TIP3    H1  735   4.123   4.131   2.739
  243TIP3    H2  736   4.024   4.244   2.720
  244TIP3   OH2  737   3.508   0.545   2.230
  244TIP3    H1  738   3.525   0.531   2.323
  244TIP3    H2  739   3.412   0.547   2.224
  245TIP3   OH2  740   2.469   2.857   4.797
  245TIP3    H1  741   2.561   2.873   4.818
  245TIP3    H2  742   2.470   2.787   4.732
  246TIP3   OH2  743   3.161   4.538   3.175
  246TIP3    H1  744   3.189   4.570   3.261
  246TIP3    H2  745   3.088   4.595   3.151
  247TIP3   OH2  746   2.268   3.548   2.448
  247TIP3    H1  747   2.337   3.500   2.401
  247TIP3    H2  748   2.237   3.486   2.514
  248TIP3   OH2  749   2.575   4.334   2.695
  248TIP3    H1  750   2.658   4.319   2.740
  248TIP3    H2  751   2.514   4.358   2.764
  249TIP3   OH2  752   0.571   2.397   2.247
  249TIP3    H1  753   0.518   2.383   2.325
  249TIP3    H2  754   0.569   2.313   2.202
  250TIP3   OH2  755   1.119   4.705   3.035
  250TIP3    H1  756   1.153   4.773   2.976
  250TIP3    H2  757   1.197   4.670   3.078
  251TIP3   OH2  758   2.046   2.051   2.058
  251TIP3    H1  759   2.093   2.001   2.124
  251TIP3    H2  760   1.966   2.080   2.102
  252TIP3   OH2  761   4.124   3.060   2.037
  252TIP3    H1  762   4.118   3.154   2.020
  252TIP3    H2  763   4.116   3.052   2.132
  253TIP3   OH2  764   1.807   5.800   0.696
  253TIP3    H1  765   1.731   5.836   0.650
  253TIP3    H2  766   1.775   5.720   0.737
  254TIP3   OH2  767   4.763   0.183   4.095
  254TIP3    H1  768   4.787   0.263   4.142
  254TIP3    H2  769   4.839   0.165   4.040
  255TIP3   OH2  770   1.507   2.349   4.465
  255TIP3    H1  771   1.454   2.407   4.519
  255TIP3    H2  772   1.446   2.280   4.438
  256TIP3   OH2  773   5.956   5.385   1.333
  256TIP3    H1  774   6.041   5.398   1.291
  256TIP3    H2  775   5.923   5.473   1.350
  257TIP3   OH2  776   4.467   0.488   5.133
  257TIP3    H1  777   4.399   0.436   5.090
  257TIP3    H2  778   4.506   0.540   5.063
  258TIP3   OH2  779   4.206   3.164   3.957
  258TIP3    H1  780   4.272   3.201   4.016
  258TIP3    H2  781   4.256   3.137   3.879
  259TIP3   OH2  782   2.042   4.441   3.568
  259TIP3    H1  783   2.026   4.373   3.503
  259TIP3    H2  784   2.118   4.409   3.617
  260TIP3   OH2  785   1.087   4.991   2.677
  260TIP3    H1  786   1.015   4.994   2.615
  260TIP3    H2  787   1.133   5.074   2.665
  261TIP3   OH2  788   1.869   4.785   2.271
  261TIP3    H1  789   1.822   4.863   2.302
  261TIP3    H2  790   1.903   4.809   2.185
  262TIP3   OH2  791   6.229   3.297   2.908
  262TIP3    H1  792   6.172   3.366   2.872
  262TIP3    H2  793   6.189   3.215   2.880
  263TIP3   OH2  794   3.094   2.054   2.321
  263TIP3    H1  795   3.132   1.986   2.377
  263TIP3    H2  796   3.141   2.045   2.238
  264TIP3   OH2  797   6.204   4.541   3.933
  264TIP3    H1  798   6.201   4.578   4.021
  264TIP3    H2  799   6.245   4.609   3.880
  265TIP3   OH2  800   2.180   5.875   1.702
  265TIP3    H1  801   2.224   5.807   1.651
  265TIP3    H2  802   2.198   5.852   1.793
  266TIP3   OH2  803   1.904   0.225   5.003
  266TIP3    H1  804   1.882   0.211   5.096
  266TIP3    H2  805   1.826   0.267   4.967
  267TIP3   OH2  806   4.447   5.921   0.803
  267TIP3    H1  807   4.427   5.978   0.877
  267TIP3    H2  808   4.459   5.981   0.729
  268TIP3   OH2  809   3.766   2.899   2.903
  268TIP3    H1  810   3.713   2.972   2.935
  268TIP3    H2  811   3.756   2.902   2.808
  269TIP3   OH2  812   1.864   4.980   2.945
  269TIP3    H1  813   1.902   4.984   3.033
  269TIP3    H2  814   1.844   5.071   2.923
  270TIP3   OH2  815   3.694   5.661   2.240
  270TIP3    H1  816   3.672   5.574   2.207
  270TIP3    H2  817   3.610   5.705   2.250
  271TIP3   OH2  818   5.596   0.206   4.201
  271TIP3    H1  819   5.602   0.147   4.276
  271TIP3    H2  820   5.608   0.293   4.237
  272TIP3   OH2  821   4.627   3.849   1.365
  272TIP3    H1  822   4.698   3.844   1.301
  272TIP3    H2  823   4.630   3.940   1.396
  273TIP3   OH2  824   3.036   3.132   2.381
  273TIP3    H1  825   3.117   3.135   2.432
  273TIP3    H2  826   3.004   3.222   2.382
  274TIP3   OH2  827   0.504   5.466   0.151
  274TIP3    H1  828   0.501   5.524   0.227
  274TIP3    H2  829   0.512   5.378   0.189
  275TIP3   OH2  830   4.967   4.848   1.624
  275TIP3    H1  831   4.928   4.790   1.690
  275TIP3    H2  832   4.905   4.920   1.616
  276TIP3   OH2  833   4.262   5.028   2.437
  276TIP3    H1  834   4.207   4.951   2.453
  276TIP3    H2  835   4.335   5.018   2.498
  277TIP3   OH2  836   4.851   4.729   0.611
  277TIP3    H1  837   4.940   4.759   0.630
  277TIP3    H2  838   4.859   4.676   0.532
  278TIP3   OH2  839   0.620   3.811   0.279
  278TIP3    H1  840   0.694   3.760   0.314
  278TIP3    H2  841   0.640   3.821   0.186
  279TIP3   OH2  842   4.301   3.008   0.391
  279TIP3    H1  843   4.275   3.052   0.310
  279TIP3    H2  844   4.388   3.044   0.410
  280TIP3   OH2  845   5.766   0.811  -0.019
  280TIP3    H1  846   5.776   0.860  -0.100
  280TIP3    H2  847   5.846   0.759  -0.012
  281TIP3   OH2  848   2.370   4.619   3.777
  281TIP3    H1  849   2.410   4.705   3.788
  281TIP3    H2  850   2.345   4.616   3.684
  282TIP3   OH2  851   0.532   0.940   4.686
  282TIP3    H1  852   0.546   1.029   4.654
  282TIP3    H2  853   0.440   0.922   4.667
  283TIP3   OH2  854   4.105   4.707   1.875
  283TIP3    H1  855   4.060   4.671   1.798
  283TIP3    H2  856   4.173   4.643   1.895
  284TIP3   OH2  857   0.102   0.760   2.982
  284TIP3    H1  858   0.108   0.816   3.059
  284TIP3    H2  859   0.186   0.715   2.977
  285TIP3   OH2  860   1.182   2.241   1.163
  285TIP3    H1  861   1.123   2.308   1.196
  285TIP3    H2  862   1.127   2.185   1.109
  286TIP3   OH2  863   0.442   2.646   5.099
  286TIP3    H1  864   0.516   2.698   5.128
  286TIP3    H2  865   0.375   2.711   5.077
  287TIP3   OH2  866   2.125   0.316   0.891
  287TIP3    H1  867   2.044   0.349   0.852
  287TIP3    H2  868   2.107   0.312   0.985
  288TIP3   OH2  869   3.534   3.548   3.730
  288TIP3    H1  870   3.579   3.468   3.704
  288TIP3    H2  871   3.573   3.616   3.676
  289TIP3   OH2  872   5.756   0.447   2.584
  289TIP3    H1  873   5.689   0.402   2.532
  289TIP3    H2  874   5.824   0.470   2.521
  290TIP3   OH2  875   5.750   4.030   3.451
  290TIP3    H1  876   5.706   4.066   3.527
  290TIP3    H2  877   5.803   4.102   3.417
  291TIP3   OH2  878   0.842   3.353   1.440
  291TIP3    H1  879   0.890   3.434   1.456
  291TIP3    H2  880   0.787   3.372   1.364
  292TIP3   OH2  881   1.410   0.858   3.473
  292TIP3    H1  882   1.476   0.790   3.465
  292TIP3    H2  883   1.385   0.878   3.383
  293TIP3   OH2  884   2.151   0.140   1.358
  293TIP3    H1  885   2.165   0.163   1.450
  293TIP3    H2  886   2.134   0.046   1.359
  294TIP3   OH2  887   5.116   2.992   2.203
  294TIP3    H1  888   5.118   3.088   2.211
  294TIP3    H2  889   5.055   2.964   2.271
  295TIP3   OH2  890   4.433   0.580   3.644
  295TIP3    H1  891   4.345   0.591   3.608
  295TIP3    H2  892   4.456   0.490   3.622
  296TIP3   OH2  893   5.702   3.105   3.876
  296TIP3    H1  894   5.798   3.115   3.879
  296TIP3    H2  895   5.685   3.031   3.935
  297TIP3   OH2  896   5.244   4.570   0.540
  297TIP3    H1  897   5.155   4.591   0.569
  297TIP3    H2  898   5.300   4.601   0.612
  298TIP3   OH2  899   3.741   3.960   0.726
  298TIP3    H1  900   3.714   3.942   0.816
  298TIP3    H2  901   3.663   3.942   0.673
  299TIP3   OH2  902   4.287   2.601   2.619
  299TIP3    H1  903   4.193   2.586   2.605
  299TIP3    H2  904   4.304   2.566   2.707
  300TIP3   OH2  905   4.625   2.164   0.909
  300TIP3    H1  906   4.692   2.175   0.842
  300TIP3    H2  907   4.557   2.227   0.886
  301TIP3   OH2  908   5.585   0.958   3.988
  301TIP3    H1  909   5.678   0.938   4.000
  301TIP3    H2  910   5.541   0.873   3.991
  302TIP3   OH2  911   3.559   5.363   2.757
  302TIP3    H1  912   3.614   5.387   2.682
  302TIP3    H2  913   3.610   5.296   2.803
  303TIP3   OH2  914   4.827   0.089   1.362
  303TIP3    H1  915   4.911   0.074   1.406
  303TIP3    H2  916   4.813   0.183   1.369
  304TIP3   OH2  917   6.240   2.943   1.457
  304TIP3    H1  918   6.285   2.860   1.440
  304TIP3    H2  919   6.152   2.930   1.421
  305TIP3   OH2  920   4.012   4.820   2.955
  305TIP3    H1  921   4.027   4.862   3.040
  305TIP3    H2  922   4.017   4.891   2.891
  306TIP3   OH2  923   4.302   3.739   2.480
  306TIP3    H1  924   4.303   3.819   2.428
  306TIP3    H2  925   4.358   3.758   2.555
  307TIP3   OH2  926   3.830   5.287   4.828
  307TIP3    H1  927   3.805   5.270   4.919
  307TIP3    H2  928   3.882   5.366   4.832
  308TIP3   OH2  929   4.201   0.630   3.489
  308TIP3    H1  930   4.223   0.589   3.405
  308TIP3    H2  931   4.127   0.579   3.521
  309TIP3   OH2  932   4.062   3.749   3.256
  309TIP3    H1  933   4.152   3.720   3.243
  309TIP3    H2  934   4.064   3.844   3.242
  310TIP3   OH2  935   3.783   4.119   5.139
  310TIP3    H1  936   3.876   4.144   5.135
  310TIP3    H2  937   3.737   4.203   5.135
  311TIP3   OH2  938   3.699   4.560   4.473
  311TIP3    H1  939   3.632   4.510   4.426
  311TIP3    H2  940   3.695   4.647   4.434
  312TIP3   OH2  941   0.481   5.277   1.411
  312TIP3    H1  942   0.426   5.217   1.461
  312TIP3    H2  943   0.548   5.221   1.371
  313TIP3   OH2  944   6.257   4.566   1.171
  313TIP3    H1  945   6.217   4.553   1.085
  313TIP3    H2  946   6.322   4.635   1.156
  314TIP3   OH2  947   2.893   3.434   0.901
  314TIP3    H1  948   2.916   3.433   0.994
  314TIP3    H2  949   2.970   3.398   0.856
  315TIP3   OH2  950   2.254   4.856   2.203
  315TIP3    H1  951   2.302   4.785   2.159
  315TIP3    H2  952   2.246   4.826   2.294
  316TIP3   OH2  953   3.725   5.827   4.935
  316TIP3    H1  954   3.767   5.752   4.977
  316TIP3    H2  955   3.796   5.870   4.887
  317TIP3   OH2  956   2.050   1.958   3.564
  317TIP3    H1  957   2.070   1.889   3.500
  317TIP3    H2  958   2.075   2.039   3.520
  318TIP3   OH2  959   3.916   1.492   0.440
  318TIP3    H1  960   3.834   1.506   0.487
  318TIP3    H2  961   3.922   1.567   0.380
  319TIP3   OH2  962   3.260   2.202   0.737
  319TIP3    H1  963   3.191   2.209   0.671
  319TIP3    H2  964   3.244   2.275   0.796
  320TIP3   OH2  965   4.472   4.795   4.543
  320TIP3    H1  966   4.512   4.821   4.626
  320TIP3    H2  967   4.524   4.720   4.514
  321TIP3   OH2  968   5.322   3.439   1.133
  321TIP3    H1  969   5.236   3.470   1.106
  321TIP3    H2  970   5.330   3.352   1.093
  322TIP3   OH2  971   0.997   2.453   1.218
  322TIP3    H1  972   0.944   2.514   1.269
  322TIP3    H2  973   1.034   2.506   1.147
  323TIP3   OH2  974   4.717   0.658   2.138
  323TIP3    H1  975   4.742   0.579   2.186
  323TIP3    H2  976   4.622   0.659   2.140
  324TIP3   OH2  977   3.111   4.620   5.024
  324TIP3    H1  978   3.037   4.639   4.966
  324TIP3    H2  979   3.176   4.686   5.000
  325TIP3   OH2  980   1.656   0.269   2.181
  325TIP3    H1  981   1.579   0.326   2.186
  325TIP3    H2  982   1.728   0.327   2.155
  326TIP3   OH2  983   4.777   1.134   0.380
  326TIP3    H1  984   4.702   1.110   0.324
  326TIP3    H2  985   4.830   1.055   0.385
  327TIP3   OH2  986   4.907   3.466   2.081
  327TIP3    H1  987   4.873   3.550   2.111
  327TIP3    H2  988   4.829   3.413   2.065
  328TIP3   OH2  989   5.577   5.941   4.883
  328TIP3    H1  990   5.597   6.021   4.835
  328TIP3    H2  991   5.627   5.872   4.838
  329TIP3   OH2  992   4.279   4.587   0.472
  329TIP3    H1  993   4.277   4.681   0.454
  329TIP3    H2  994   4.367   4.559   0.447
  330TIP3   OH2  995   3.223   5.148   4.994
  330TIP3    H1  996   3.151   5.159   5.056
  330TIP3    H2  997   3.216   5.223   4.936
  331TIP3   OH2  998   2.807   2.327   1.366
  331TIP3    H1  999   2.737   2.309   1.429
  331TIP3    H2 1000   2.843   2.241   1.345
  332TIP3   OH2 1001   2.543   0.344   2.473
  332TIP3    H1 1002   2.595   0.421   2.452
  332TIP3    H2 1003   2.580   0.274   2.419
  333TIP3   OH2 1004   3.407   2.253   5.162
  333TIP3    H1 1005   3.342   2.224   5.226
  333TIP3    H2 1006   3.380   2.212   5.080
  334TIP3   OH2 1007   1.627   5.134   4.725
  334TIP3    H1 1008   1.580   5.052   4.742
  334TIP3    H2 1009   1.561   5.202   4.736
  335TIP3   OH2 1010   3.687   5.696   1.299
  335TIP3    H1 1011   3.709   5.783   1.267
  335TIP3    H2 1012   3.706   5.699   1.393
  336TIP3   OH2 1013   3.091   4.528   2.476
  336TIP3    H1 1014   3.106   4.503   2.567
  336TIP3    H2 1015   2.996   4.523   2.464
  337TIP3   OH2 1016   3.499   1.166   4.091
  337TIP3    H1 1017   3.583   1.156   4.046
  337TIP3    H2 1018   3.490   1.086   4.143
  338TIP3   OH2 1019   3.035   1.911   3.767
  338TIP3    H1 1020   3.026   1.967   3.844
  338TIP3    H2 1021   3.102   1.953   3.714
  339TIP3   OH2 1022   4.244   5.366   1.148
  339TIP3    H1 1023   4.175   5.338   1.088
  339TIP3    H2 1024   4.275   5.449   1.112
  340TIP3   OH2 1025   3.607   2.690   3.757
  340TIP3    H1 1026   3.590   2.597   3.771
  340TIP3    H2 1027   3.529   2.722   3.711
  341TIP3   OH2 1028   2.490   2.846   3.092
  341TIP3    H1 1029   2.545   2.923   3.077
  341TIP3    H2 1030   2.551   2.772   3.094
  342TIP3   OH2 1031   0.782   2.293   0.946
  342TIP3    H1 1032   0.687   2.295   0.962
  342TIP3    H2 1033   0.801   2.378   0.906
  343TIP3   OH2 1034   0.785   4.524   0.697
  343TIP3    H1 1035   0.755   4.435   0.716
  343TIP3    H2 1036   0.832   4.517   0.614
  344TIP3   OH2 1037   3.424   0.935   2.709
  344TIP3    H1 1038   3.443   1.024   2.740
  344TIP3    H2 1039   3.446   0.878   2.782
  345TIP3   OH2 1040   0.739   1.396   0.054
  345TIP3    H1 1041   0.828   1.362   0.039
  345TIP3    H2 1042   0.708   1.346   0.130
  346TIP3   OH2 1043   0.911   1.819   1.659
  346TIP3    H1 1044   0.931   1.813   1.752
  346TIP3    H2 1045   0.911   1.728   1.629
  347TIP3   OH2 1046   1.888   4.804   4.281
  347TIP3    H1 1047   1.898   4.894   4.251
  347TIP3    H2 1048   1.814   4.806   4.342
  348TIP3   OH2 1049   5.994   1.453   1.240
  348TIP3    H1 1050   6.004   1.503   1.321
  348TIP3    H2 1051   6.076   1.467   1.193
  349TIP3   OH2 1052   3.941   5.820   2.227
  349TIP3    H1 1053   3.984   5.751   2.177
  349TIP3    H2 1054   3.851   5.790   2.238
  350TIP3   OH2 1055   3.527   1.945   1.779
  350TIP3    H1 1056   3.619   1.922   1.776
  350TIP3    H2 1057   3.513   1.998   1.700
  351TIP3   OH2 1058   0.832   4.182   0.994
  351TIP3    H1 1059   0.751   4.223   1.023
  351TIP3    H2 1060   0.808   4.090   0.979
  352TIP3   OH2 1061   6.230   1.306   4.938
  352TIP3    H1 1062   6.208   1.351   5.019
  352TIP3    H2 1063   6.323   1.285   4.946
  353TIP3   OH2 1064   2.796   0.915   0.333
  353TIP3    H1 1065   2.819   0.828   0.367
  353TIP3    H2 1066   2.701   0.921   0.347
  354TIP3   OH2 1067   4.037   1.456   4.665
  354TIP3    H1 1068   4.105   1.515   4.632
  354TIP3    H2 1069   4.024   1.393   4.595
  355TIP3   OH2 1070   2.292   3.231   1.260
  355TIP3    H1 1071   2.360   3.240   1.193
  355TIP3    H2 1072   2.329   3.172   1.325
  356TIP3   OH2 1073   4.328   1.169   0.065
  356TIP3    H1 1074   4.233   1.171   0.076
  356TIP3    H2 1075   4.342   1.188  -0.028
  357TIP3   OH2 1076   3.133   0.661   2.816
  357TIP3    H1 1077   3.089   0.685   2.897
  357TIP3    H2 1078   3.064   0.621   2.763
  358TIP3   OH2 1079   6.034   0.306   1.649
  358TIP3    H1 1080   6.092   0.241   1.612
  358TIP3    H2 1081   6.040   0.381   1.590
  359TIP3   OH2 1082   5.064   4.375   1.367
  359TIP3    H1 1083   5.110   4.291   1.371
  359TIP3    H2 1084   5.074   4.413   1.454
  360TIP3   OH2 1085   4.407   1.966   1.662
  360TIP3    H1 1086   4.495   1.985   1.629
  360TIP3    H2 1087   4.369   1.907   1.596
  361TIP3   OH2 1088   4.714   4.179   2.131
  361TIP3    H1 1089   4.799   4.205   2.164
  361TIP3    H2 1090   4.653   4.243   2.168
  362TIP3   OH2 1091   2.459   4.655   2.118
  362TIP3    H1 1092   2.522   4.707   2.068
  362TIP3    H2 1093   2.402   4.616   2.052
  363TIP3   OH2 1094   3.428   3.454   4.369
  363TIP3    H1 1095   3.395   3.457   4.459
  363TIP3    H2 1096   3.521   3.434   4.378
  364TIP3   OH2 1097   4.853   1.114   0.745
  364TIP3    H1 1098   4.845   1.182   0.678
  364TIP3    H2 1099   4.930   1.140   0.795
  365TIP3   OH2 1100   1.405   4.117   0.229
  365TIP3    H1 1101   1.415   4.044   0.290
  365TIP3    H2 1102   1.437   4.193   0.277
  366TIP3   OH2 1103   3.181   2.899   1.968
  366TIP3    H1 1104   3.096   2.856   1.980
  366TIP3    H2 1105   3.187   2.960   2.041
  367TIP3   OH2 1106   3.283   4.345   3.876
  367TIP3    H1 1107   3.344   4.370   3.945
  367TIP3    H2 1108   3.333   4.356   3.795
  368TIP3   OH2 1109   1.841   0.690   2.827
  368TIP3    H1 1110   1.898   0.714   2.900
  368TIP3    H2 1111   1.792   0.770   2.808
  369TIP3   OH2 1112   3.384   2.771   0.711
  369TIP3    H1 1113   3.308   2.797   0.660
  369TIP3    H2 1114   3.446   2.738   0.646
  370TIP3   OH2 1115   3.576   1.389   2.932
  370TIP3    H1 1116   3.598   1.470   2.978
  370TIP3    H2 1117   3.485   1.371   2.957
  371TIP3   OH2 1118   1.866   2.195   0.944
  371TIP3    H1 1119   1.839   2.248   1.018
  371TIP3    H2 1120   1.806   2.218   0.873
  372TIP3   OH2 1121   0.052   3.797   3.547
  372TIP3    H1 1122   0.115   3.839   3.488
  372TIP3    H2 1123   0.086   3.816   3.634
  373TIP3   OH2 1124   1.717   5.383   1.989
  373TIP3    H1 1125   1.763   5.352   2.067
  373TIP3    H2 1126   1.788   5.407   1.928
  374TIP3   OH2 1127   1.874   5.151   4.943
  374TIP3    H1 1128   1.882   5.247   4.941
  374TIP3    H2 1129   1.811   5.131   4.874
  375TIP3   OH2 1130   3.682   1.737   0.129
  375TIP3    H1 1131   3.620   1.761   0.061
  375TIP3    H2 1132   3.628   1.722   0.207
  376TIP3   OH2 1133   4.708   0.959   2.878
  376TIP3    H1 1134   4.773   0.920   2.936
  376TIP3    H2 1135   4.626   0.958   2.928
  377TIP3   OH2 1136   0.472  -0.062   0.517
  377TIP3    H1 1137   0.381  -0.037   0.534
  377TIP3    H2 1138   0.517   0.021   0.503
  378TIP3   OH2 1139   0.746   1.626   4.788
  378TIP3    H1 1140   0.833   1.667   4.793
  378TIP3    H2 1141   0.764   1.534   4.770
  379TIP3   OH2 1142   3.187   3.506   0.131
  379TIP3    H1 1143   3.154   3.550   0.210
  379TIP3    H2 1144   3.224   3.577   0.078
  380TIP3   OH2 1145   3.518   4.154   4.697
  380TIP3    H1 1146   3.558   4.170   4.783
  380TIP3    H2 1147   3.461   4.229   4.683
  381TIP3   OH2 1148   5.747   5.458   2.294
  381TIP3    H1 1149   5.672   5.400   2.295
  381TIP3    H2 1150   5.747   5.496   2.206
  382TIP3   OH2 1151   2.517   3.127   3.003
  382TIP3    H1 1152   2.433   3.157   2.967
  382TIP3    H2 1153   2.578   3.133   2.930
  383TIP3   OH2 1154   2.822   1.968   1.820
  383TIP3    H1 1155   2.776   1.933   1.744
  383TIP3    H2 1156   2.768   2.041   1.850
  384TIP3   OH2 1157   5.922   1.767   0.824
  384TIP3    H1 1158   5.959   1.679   0.821
  384TIP3    H2 1159   5.836   1.758   0.783
  385TIP3   OH2 1160   5.782   4.580   2.235
  385TIP3    H1 1161   5.711   4.523   2.264
  385TIP3    H2 1162   5.839   4.523   2.184
  386TIP3   OH2 1163   5.691   4.427   0.241
  386TIP3    H1 1164   5.703   4.413   0.147
  386TIP3    H2 1165   5.596   4.439   0.251
  387TIP3   OH2 1166   1.555   5.691   2.300
  387TIP3    H1 1167   1.480   5.704   2.242
  387TIP3    H2 1168   1.558   5.597   2.315
  388TIP3   OH2 1169   6.125   2.544   3.617
  388TIP3    H1 1170   6.156   2.633   3.635
  388TIP3    H2 1171   6.030   2.550   3.624
  389TIP3   OH2 1172   5.666   0.597   3.226
  389TIP3    H1 1173   5.738   0.623   3.168
  389TIP3    H2 1174   5.702   0.525   3.278
  390TIP3   OH2 1175   5.886   0.449   0.781
  390TIP3    H1 1176   5.939   0.510   0.730
  390TIP3    H2 1177   5.888   0.368   0.731
  391TIP3   OH2 1178   2.565   2.769   2.686
  391TIP3    H1 1179   2.555   2.697   2.748
  391TIP3    H2 1180   2.632   2.825   2.725
  392TIP3   OH2 1181   0.900   2.004   0.457
  392TIP3    H1 1182   0.945   2.028   0.376
  392TIP3    H2 1183   0.871   2.087   0.495
  393TIP3   OH2 1184   1.691   3.983   2.867
  393TIP3    H1 1185   1.637   3.912   2.832
  393TIP3    H2 1186   1.681   4.054   2.804
  394TIP3   OH2 1187   2.764   2.504   3.513
  394TIP3    H1 1188   2.826   2.550   3.570
  394TIP3    H2 1189   2.819   2.446   3.460
  395TIP3   OH2 1190   5.054   2.754   1.717
  395TIP3    H1 1191   4.960   2.760   1.702
  395TIP3    H2 1192   5.063   2.744   1.812
  396TIP3   OH2 1193   3.927   4.357   2.593
  396TIP3    H1 1194   3.833   4.366   2.610
  396TIP3    H2 1195   3.964   4.442   2.616
  397TIP3   OH2 1196   3.115   2.516   2.333
  397TIP3    H1 1197   3.066   2.446   2.376
  397TIP3    H2 1198   3.106   2.497   2.239
  398TIP3   OH2 1199   5.055   4.500   1.624
  398TIP3    H1 1200   5.034   4.580   1.673
  398TIP3    H2 1201   5.103   4.446   1.685
  399TIP3   OH2 1202   1.236   2.837   3.600
  399TIP3    H1 1203   1.156   2.843   3.548
  399TIP3    H2 1204   1.239   2.747   3.630
  400TIP3   OH2 1205   4.926   5.856   1.792
  400TIP3    H1 1206   4.935   5.802   1.713
  400TIP3    H2 1207   4.899   5.794   1.860
  401TIP3   OH2 1208   5.225   0.381   3.586
  401TIP3    H1 1209   5.319   0.396   3.595
  401TIP3    H2 1210   5.218   0.313   3.519
  402TIP3   OH2 1211   4.384   0.977   1.250
  402TIP3    H1 1212   4.305   0.994   1.199
  402TIP3    H2 1213   4.388   0.882   1.257
  403TIP3   OH2 1214   3.556   2.761   2.631
  403TIP3    H1 1215   3.546   2.797   2.543
  403TIP3    H2 1216   3.634   2.706   2.626
  404TIP3   OH2 1217   5.429   5.553   0.343
  404TIP3    H1 1218   5.365   5.483   0.357
  404TIP3    H2 1219   5.514   5.509   0.349
  405TIP3   OH2 1220   0.647   4.762   0.682
  405TIP3    H1 1221   0.610   4.783   0.767
  405TIP3    H2 1222   0.699   4.683   0.697
  406TIP3   OH2 1223   4.380   4.147   4.718
  406TIP3    H1 1224   4.312   4.209   4.689
  406TIP3    H2 1225   4.462   4.193   4.700
  407TIP3   OH2 1226   6.335   5.406   4.361
  407TIP3    H1 1227   6.241   5.421   4.362
  407TIP3    H2 1228   6.349   5.332   4.419
  408TIP3   OH2 1229   1.279   0.328   3.720
  408TIP3    H1 1230   1.243   0.390   3.784
  408TIP3    H2 1231   1.357   0.372   3.687
  409TIP3   OH2 1232   3.850   5.601   5.056
  409TIP3    H1 1233   3.837   5.511   5.026
  409TIP3    H2 1234   3.940   5.604   5.087
  410TIP3   OH2 1235   4.358   0.634   3.957
  410TIP3    H1 1236   4.429   0.617   4.019
  410TIP3    H2 1237   4.400   0.635   3.872
  411TIP3   OH2 1238   3.984   1.969   4.213
  411TIP3    H1 1239   4.050   1.974   4.282
  411TIP3    H2 1240   4.023   2.017   4.140
  412TIP3   OH2 1241   2.005   4.095   4.096
  412TIP3    H1 1242   1.974   4.109   4.006
  412TIP3    H2 1243   2.084   4.042   4.087
  413TIP3   OH2 1244   4.261   5.121   5.027
  413TIP3    H1 1245   4.313   5.041   5.032
  413TIP3    H2 1246   4.312   5.185   5.077
  414TIP3   OH2 1247   4.222   4.830   4.467
  414TIP3    H1 1248   4.300   4.824   4.521
  414TIP3    H2 1249   4.233   4.911   4.417
  415TIP3   OH2 1250   4.401   3.690   1.329
  415TIP3    H1 1251   4.339   3.759   1.354
  415TIP3    H2 1252   4.487   3.729   1.339
  416TIP3   OH2 1253   3.401   3.271   5.110
  416TIP3    H1 1254   3.461   3.272   5.035
  416TIP3    H2 1255   3.322   3.314   5.078
  417TIP3   OH2 1256   6.225   3.449   4.376
  417TIP3    H1 1257   6.308   3.447   4.328
  417TIP3    H2 1258   6.189   3.536   4.357
  418TIP3   OH2 1259   3.230   0.411   4.905
  418TIP3    H1 1260   3.299   0.419   4.840
  418TIP3    H2 1261   3.170   0.346   4.869
  419TIP3   OH2 1262   3.015   1.846   4.423
  419TIP3    H1 1263   2.923   1.821   4.438
  419TIP3    H2 1264   3.030   1.917   4.486
  420TIP3   OH2 1265   3.832   5.155   3.659
  420TIP3    H1 1266   3.858   5.064   3.675
  420TIP3    H2 1267   3.854   5.201   3.740
  421TIP3   OH2 1268   0.664   5.650   0.022
  421TIP3    H1 1269   0.606   5.595   0.074
  421TIP3    H2 1270   0.700   5.592  -0.044
  422TIP3   OH2 1271   3.267   0.044   4.532
  422TIP3    H1 1272   3.174   0.029   4.550
  422TIP3    H2 1273   3.269   0.123   4.477
  423TIP3   OH2 1274   1.916   3.816   4.203
  423TIP3    H1 1275   1.992   3.836   4.258
  423TIP3    H2 1276   1.916   3.886   4.137
  424TIP3   OH2 1277   4.085   4.208   0.078
  424TIP3    H1 1278   4.171   4.231   0.112
  424TIP3    H2 1279   4.082   4.112   0.083
  425TIP3   OH2 1280   1.179   2.003   3.169
  425TIP3    H1 1281   1.260   2.054   3.178
  425TIP3    H2 1282   1.157   2.010   3.077
  426TIP3   OH2 1283   1.850   1.755   1.610
  426TIP3    H1 1284   1.869   1.762   1.517
  426TIP3    H2 1285   1.776   1.695   1.616
  427TIP3   OH2 1286   0.629   3.052   0.439
  427TIP3    H1 1287   0.596   2.965   0.418
  427TIP3    H2 1288   0.659   3.045   0.530
  428TIP3   OH2 1289   4.986   3.946   3.191
  428TIP3    H1 1290   5.059   3.884   3.192
  428TIP3    H2 1291   4.908   3.891   3.195
  429TIP3   OH2 1292   0.623   1.926   3.596
  429TIP3    H1 1293   0.566   1.849   3.595
  429TIP3    H2 1294   0.708   1.893   3.628
  430TIP3   OH2 1295   5.167   4.716   2.797
  430TIP3    H1 1296   5.119   4.783   2.747
  430TIP3    H2 1297   5.205   4.764   2.871
  431TIP3   OH2 1298   6.053   3.380   3.245
  431TIP3    H1 1299   6.003   3.351   3.322
  431TIP3    H2 1300   5.993   3.368   3.172
  432TIP3   OH2 1301   2.683   3.223   1.925
  432TIP3    H1 1302   2.704   3.130   1.920
  432TIP3    H2 1303   2.687   3.244   2.018
  433TIP3   OH2 1304   5.944   5.838   0.203
  433TIP3    H1 1305   6.030   5.801   0.219
  433TIP3    H2 1306   5.928   5.896   0.277
  434TIP3   OH2 1307   0.640   3.039   4.148
  434TIP3    H1 1308   0.693   3.053   4.227
  434TIP3    H2 1309   0.554   3.012   4.181
  435TIP3   OH2 1310   0.118   2.351   4.800
  435TIP3    H1 1311   0.128   2.268   4.753
  435TIP3    H2 1312   0.087   2.412   4.733
  436TIP3   OH2 1313   1.018   0.213   0.752
  436TIP3    H1 1314   0.956   0.240   0.819
  436TIP3    H2 1315   1.092   0.272   0.762
  437TIP3   OH2 1316   0.664   3.363   4.548
  437TIP3    H1 1317   0.693   3.413   4.624
  437TIP3    H2 1318   0.742   3.351   4.495
  438TIP3   OH2 1319   0.034   2.502   4.591
  438TIP3    H1 1320  -0.040   2.549   4.630
  438TIP3    H2 1321  -0.007   2.430   4.542
  439TIP3   OH2 1322   4.572   3.685   2.364
  439TIP3    H1 1323   4.479   3.702   2.373
  439TIP3    H2 1324   4.581   3.591   2.381
  440TIP3   OH2 1325   6.258   2.694   1.355
  440TIP3    H1 1326   6.314   2.727   1.285
  440TIP3    H2 1327   6.245   2.601   1.333
  441TIP3   OH2 1328   2.008   0.705   3.980
  441TIP3    H1 1329   1.974   0.731   4.066
  441TIP3    H2 1330   1.946   0.640   3.948
  442TIP3   OH2 1331   2.794   3.772   4.114
  442TIP3    H1 1332   2.775   3.865   4.119
  442TIP3    H2 1333   2.748   3.741   4.037
  443TIP3   OH2 1334   0.017   1.463   2.836
  443TIP3    H1 1335   0.001   1.556   2.849
  443TIP3    H2 1336   0.101   1.447   2.880
  444TIP3   OH2 1337   6.138   0.928   2.291
  444TIP3    H1 1338   6.196   0.897   2.361
  444TIP3    H2 1339   6.052   0.938   2.334
  445TIP3   OH2 1340   6.104   1.521   1.486
  445TIP3    H1 1341   6.104   1.611   1.519
  445TIP3    H2 1342   6.197   1.498   1.478
  446TIP3   OH2 1343   1.309   3.239   4.569
  446TIP3    H1 1344   1.299   3.184   4.491
  446TIP3    H2 1345   1.330   3.179   4.639
  447TIP3   OH2 1346   3.018   4.558   2.212
  447TIP3    H1 1347   3.074   4.519   2.279
  447TIP3    H2 1348   2.942   4.499   2.208
  448TIP3   OH2 1349   1.229   5.345   4.512
  448TIP3    H1 1350   1.215   5.351   4.417
  448TIP3    H2 1351   1.188   5.424   4.547
  449TIP3   OH2 1352   0.265   5.060   1.149
  449TIP3    H1 1353   0.328   5.124   1.184
  449TIP3    H2 1354   0.319   4.985   1.125
  450TIP3   OH2 1355   4.780   1.312   3.011
  450TIP3    H1 1356   4.735   1.361   3.080
  450TIP3    H2 1357   4.709   1.283   2.953
  451TIP3   OH2 1358   3.225   3.416   2.248
  451TIP3    H1 1359   3.214   3.376   2.161
  451TIP3    H2 1360   3.306   3.377   2.282
  452TIP3   OH2 1361   0.611   4.305   0.680
  452TIP3    H1 1362   0.601   4.216   0.713
  452TIP3    H2 1363   0.578   4.301   0.590
  453TIP3   OH2 1364   3.414   0.661   1.766
  453TIP3    H1 1365   3.458   0.745   1.752
  453TIP3    H2 1366   3.456   0.626   1.845
  454TIP3   OH2 1367   3.440   5.782   4.797
  454TIP3    H1 1368   3.451   5.833   4.717
  454TIP3    H2 1369   3.525   5.787   4.841
  455TIP3   OH2 1370   1.938   4.394   1.302
  455TIP3    H1 1371   1.914   4.479   1.338
  455TIP3    H2 1372   1.948   4.410   1.208
  456TIP3   OH2 1373   0.144   4.367   2.763
  456TIP3    H1 1374   0.093   4.348   2.684
  456TIP3    H2 1375   0.150   4.282   2.807
  457TIP3   OH2 1376   4.043   2.670   0.995
  457TIP3    H1 1377   3.970   2.651   1.054
  457TIP3    H2 1378   4.041   2.765   0.984
  458TIP3   OH2 1379   3.408   0.656   4.715
  458TIP3    H1 1380   3.423   0.573   4.671
  458TIP3    H2 1381   3.428   0.639   4.807
  459TIP3   OH2 1382   1.709   4.012   5.009
  459TIP3    H1 1383   1.705   3.972   4.922
  459TIP3    H2 1384   1.716   4.106   4.992
  460TIP3   OH2 1385   2.048   2.336   0.601
  460TIP3    H1 1386   2.069   2.420   0.559
  460TIP3    H2 1387   2.132   2.289   0.603
  461TIP3   OH2 1388   4.663   5.298   5.089
  461TIP3    H1 1389   4.758   5.290   5.102
  461TIP3    H2 1390   4.645   5.247   5.011
  462TIP3   OH2 1391   3.262   2.763   0.061
  462TIP3    H1 1392   3.180   2.713   0.052
  462TIP3    H2 1393   3.257   2.801   0.149
  463TIP3   OH2 1394   3.282   2.295   3.967
  463TIP3    H1 1395   3.255   2.308   4.058
  463TIP3    H2 1396   3.251   2.208   3.945
  464TIP3   OH2 1397   4.772   1.996   2.635
  464TIP3    H1 1398   4.806   1.923   2.585
  464TIP3    H2 1399   4.825   2.071   2.609
  465TIP3   OH2 1400   5.802   1.915   1.023
  465TIP3    H1 1401   5.887   1.947   1.054
  465TIP3    H2 1402   5.824   1.841   0.967
  466TIP3   OH2 1403   4.344   1.185   1.431
  466TIP3    H1 1404   4.360   1.121   1.362
  466TIP3    H2 1405   4.421   1.177   1.488
  467TIP3   OH2 1406   4.570   3.097   3.731
  467TIP3    H1 1407   4.610   3.183   3.747
  467TIP3    H2 1408   4.529   3.105   3.645
  468TIP3   OH2 1409   0.436   4.353   4.367
  468TIP3    H1 1410   0.400   4.271   4.401
  468TIP3    H2 1411   0.402   4.358   4.277
  469TIP3   OH2 1412   2.751  -0.008   1.260
  469TIP3    H1 1413   2.817   0.061   1.261
  469TIP3    H2 1414   2.670   0.037   1.237
  470TIP3   OH2 1415   4.486   5.766   1.601
  470TIP3    H1 1416   4.555   5.726   1.547
  470TIP3    H2 1417   4.528   5.842   1.641
  471TIP3   OH2 1418   5.460   0.527   1.660
  471TIP3    H1 1419   5.522   0.553   1.592
  471TIP3    H2 1420   5.377   0.565   1.633
  472TIP3   OH2 1421   2.179   5.363   1.878
  472TIP3    H1 1422   2.084   5.362   1.884
  472TIP3    H2 1423   2.208   5.405   1.960
  473TIP3   OH2 1424   1.333   0.637   3.102
  473TIP3    H1 1425   1.357   0.579   3.174
  473TIP3    H2 1426   1.261   0.593   3.057
  474TIP3   OH2 1427   4.873   3.507   3.320
  474TIP3    H1 1428   4.932   3.572   3.281
  474TIP3    H2 1429   4.901   3.499   3.411
  475TIP3   OH2 1430   2.052   1.606   4.841
  475TIP3    H1 1431   1.980   1.561   4.887
  475TIP3    H2 1432   2.130   1.584   4.892
  476TIP3   OH2 1433   3.770   3.642   0.639
  476TIP3    H1 1434   3.782   3.637   0.734
  476TIP3    H2 1435   3.857   3.665   0.605
  477TIP3   OH2 1436   0.379   5.439   3.411
  477TIP3    H1 1437   0.463   5.397   3.393
  477TIP3    H2 1438   0.398   5.503   3.480
  478TIP3   OH2 1439   4.038   0.118   0.440
  478TIP3    H1 1440   4.010   0.210   0.433
  478TIP3    H2 1441   4.104   0.119   0.510
  479TIP3   OH2 1442   5.727   3.554   1.261
  479TIP3    H1 1443   5.744   3.576   1.169
  479TIP3    H2 1444   5.633   3.565   1.271
  480TIP3   OH2 1445   4.893   4.237   1.627
  480TIP3    H1 1446   4.954   4.309   1.611
  480TIP3    H2 1447   4.850   4.261   1.710
  481TIP3   OH2 1448   0.783   5.463   2.565
  481TIP3    H1 1449   0.762   5.387   2.620
  481TIP3    H2 1450   0.773   5.538   2.623
  482TIP3   OH2 1451   0.305   5.511   1.371
  482TIP3    H1 1452   0.324   5.555   1.288
  482TIP3    H2 1453   0.386   5.465   1.393
  483TIP3   OH2 1454   2.453   1.537   1.161
  483TIP3    H1 1455   2.426   1.470   1.097
  483TIP3    H2 1456   2.371   1.576   1.191
  484TIP3   OH2 1457   0.706   1.623   3.501
  484TIP3    H1 1458   0.739   1.663   3.582
  484TIP3    H2 1459   0.615   1.654   3.495
  485TIP3   OH2 1460   1.871   3.932   0.063
  485TIP3    H1 1461   1.953   3.895   0.030
  485TIP3    H2 1462   1.856   4.009   0.008
  486TIP3   OH2 1463   1.442   4.687   1.339
  486TIP3    H1 1464   1.369   4.679   1.277
  486TIP3    H2 1465   1.467   4.780   1.335
  487TIP3   OH2 1466   4.594   4.402   1.602
  487TIP3    H1 1467   4.596   4.443   1.516
  487TIP3    H2 1468   4.560   4.314   1.586
  488TIP3   OH2 1469   3.551   0.120   1.576
  488TIP3    H1 1470   3.541   0.058   1.648
  488TIP3    H2 1471   3.622   0.177   1.604
  489TIP3   OH2 1472   4.034   5.208   0.446
  489TIP3    H1 1473   4.034   5.208   0.542
  489TIP3    H2 1474   4.016   5.117   0.422
  490TIP3   OH2 1475   3.359   1.131   1.211
  490TIP3    H1 1476   3.393   1.051   1.250
  490TIP3    H2 1477   3.279   1.103   1.165
  491TIP3   OH2 1478   1.966   3.300   3.839
  491TIP3    H1 1479   1.875   3.299   3.868
  491TIP3    H2 1480   2.011   3.242   3.901
  492TIP3   OH2 1481   3.558   2.061   4.038
  492TIP3    H1 1482   3.581   2.135   3.982
  492TIP3    H2 1483   3.466   2.043   4.018
  493TIP3   OH2 1484   1.091   1.168   2.409
  493TIP3    H1 1485   1.144   1.171   2.329
  493TIP3    H2 1486   1.060   1.078   2.414
  494TIP3   OH2 1487   0.464   3.529   2.655
  494TIP3    H1 1488   0.555   3.508   2.674
  494TIP3    H2 1489   0.459   3.624   2.665
  495TIP3   OH2 1490   2.626   5.042   1.162
  495TIP3    H1 1491   2.655   5.020   1.251
  495TIP3    H2 1492   2.534   5.066   1.172
  496TIP3   OH2 1493   0.856   1.945   3.030
  496TIP3    H1 1494   0.900   1.889   2.966
  496TIP3    H2 1495   0.828   1.885   3.099
  497TIP3   OH2 1496   4.622   1.760   4.657
  497TIP3    H1 1497   4.595   1.842   4.699
  497TIP3    H2 1498   4.545   1.703   4.663
  498TIP3   OH2 1499   3.907   4.903   2.582
  498TIP3    H1 1500   3.935   4.868   2.497
  498TIP3    H2 1501   3.811   4.893   2.581
  499TIP3   OH2 1502   5.635   0.179   0.681
  499TIP3    H1 1503   5.730   0.170   0.688
  499TIP3    H2 1504   5.600   0.097   0.716
  500TIP3   OH2 1505   1.557   0.865   1.203
  500TIP3    H1 1506   1.551   0.819   1.120
  500TIP3    H2 1507   1.625   0.819   1.252
  501TIP3   OH2 1508   6.064   4.496   5.128
  501TIP3    H1 1509   5.988   4.450   5.163
  501TIP3    H2 1510   6.138   4.466   5.181
  502TIP3   OH2 1511   2.416   3.157   4.344
  502TIP3    H1 1512   2.428   3.071   4.303
  502TIP3    H2 1513   2.401   3.138   4.436
  503TIP3   OH2 1514   3.809   1.604   4.720
  503TIP3    H1 1515   3.878   1.542   4.694
  503TIP3    H2 1516   3.846   1.690   4.699
  504TIP3   OH2 1517   0.365   5.080   1.532
  504TIP3    H1 1518   0.377   5.061   1.625
  504TIP3    H2 1519   0.412   5.010   1.487
  505TIP3   OH2 1520   0.730   2.536   3.699
  505TIP3    H1 1521   0.730   2.478   3.775
  505TIP3    H2 1522   0.647   2.585   3.707
  506TIP3   OH2 1523   2.438   6.005   4.513
  506TIP3    H1 1524   2.459   5.938   4.447
  506TIP3    H2 1525   2.448   5.960   4.597
  507TIP3   OH2 1526   0.374   4.855   0.098
  507TIP3    H1 1527   0.342   4.881   0.184
  507TIP3    H2 1528   0.414   4.934   0.062
  508TIP3   OH2 1529   2.163   0.930   0.618
  508TIP3    H1 1530   2.253   0.965   0.620
  508TIP3    H2 1531   2.169   0.846   0.663
  509TIP3   OH2 1532   1.410   3.921   1.907
  509TIP3    H1 1533   1.331   3.959   1.945
  509TIP3    H2 1534   1.390   3.827   1.900
  510TIP3   OH2 1535   3.904   1.093   2.779
  510TIP3    H1 1536   3.907   1.028   2.709
  510TIP3    H2 1537   3.973   1.066   2.839
  511TIP3   OH2 1538   0.106   2.429   0.459
  511TIP3    H1 1539   0.138   2.379   0.384
  511TIP3    H2 1540   0.103   2.365   0.531
  512TIP3   OH2 1541   1.916   4.875   0.689
  512TIP3    H1 1542   1.897   4.944   0.625
  512TIP3    H2 1543   2.009   4.856   0.677
  513TIP3   OH2 1544   2.569   3.886   4.511
  513TIP3    H1 1545   2.537   3.942   4.582
  513TIP3    H2 1546   2.567   3.798   4.547
  514TIP3   OH2 1547   2.603   3.988   2.449
  514TIP3    H1 1548   2.526   3.976   2.504
  514TIP3    H2 1549   2.676   3.990   2.511
  515TIP3   OH2 1550   5.855   5.037   2.703
  515TIP3    H1 1551   5.894   4.971   2.646
  515TIP3    H2 1552   5.897   5.022   2.788
  516TIP3   OH2 1553   1.682   2.692   3.637
  516TIP3    H1 1554   1.752   2.628   3.622
  516TIP3    H2 1555   1.712   2.743   3.712
  517TIP3   OH2 1556   1.622   0.833   2.166
  517TIP3    H1 1557   1.694   0.888   2.198
  517TIP3    H2 1558   1.664   0.764   2.116
  518TIP3   OH2 1559   0.326   5.144   4.600
  518TIP3    H1 1560   0.360   5.211   4.659
  518TIP3    H2 1561   0.392   5.136   4.532
  519TIP3   OH2 1562   5.974   4.113   4.351
  519TIP3    H1 1563   5.933   4.187   4.306
  519TIP3    H2 1564   6.065   4.140   4.363
  520TIP3   OH2 1565   3.038   1.472   0.446
  520TIP3    H1 1566   3.025   1.462   0.352
  520TIP3    H2 1567   2.973   1.537   0.473
  521TIP3   OH2 1568   5.271   0.781   1.064
  521TIP3    H1 1569   5.210   0.851   1.040
  521TIP3    H2 1570   5.295   0.801   1.155
  522TIP3   OH2 1571   2.761   4.777   4.015
  522TIP3    H1 1572   2.785   4.829   4.092
  522TIP3    H2 1573   2.715   4.702   4.051
  523TIP3   OH2 1574   3.745   5.210   0.904
  523TIP3    H1 1575   3.695   5.157   0.966
  523TIP3    H2 1576   3.748   5.297   0.944
  524TIP3   OH2 1577   0.277   1.911   1.250
  524TIP3    H1 1578   0.290   1.826   1.292
  524TIP3    H2 1579   0.353   1.962   1.278
  525TIP3   OH2 1580   5.845   5.243   4.350
  525TIP3    H1 1581   5.870   5.258   4.441
  525TIP3    H2 1582   5.860   5.327   4.307
  526TIP3   OH2 1583   1.987   0.854   2.992
  526TIP3    H1 1584   1.910   0.911   2.996
  526TIP3    H2 1585   1.986   0.806   3.075
  527TIP3   OH2 1586   0.471   5.621   4.880
  527TIP3    H1 1587   0.536   5.627   4.810
  527TIP3    H2 1588   0.394   5.667   4.845
  528TIP3   OH2 1589   5.969   4.972   0.555
  528TIP3    H1 1590   5.973   4.979   0.650
  528TIP3    H2 1591   5.951   4.880   0.537
  529TIP3   OH2 1592   5.736   4.098   2.848
  529TIP3    H1 1593   5.655   4.147   2.849
  529TIP3    H2 1594   5.800   4.157   2.808
  530TIP3   OH2 1595   2.224   4.765   2.639
  530TIP3    H1 1596   2.269   4.686   2.669
  530TIP3    H2 1597   2.149   4.774   2.697
  531TIP3   OH2 1598   0.027   3.217   1.478
  531TIP3    H1 1599   0.032   3.250   1.568
  531TIP3    H2 1600  -0.024   3.136   1.485
  532TIP3   OH2 1601   2.616   2.280   1.586
  532TIP3    H1 1602   2.555   2.354   1.579
  532TIP3    H2 1603   2.618   2.260   1.680
  533TIP3   OH2 1604   5.059   2.447   0.110
  533TIP3    H1 1605   5.115   2.387   0.061
  533TIP3    H2 1606   5.038   2.517   0.048
  534TIP3   OH2 1607   1.782   5.660   0.174
  534TIP3    H1 1608   1.772   5.576   0.129
  534TIP3    H2 1609   1.693   5.693   0.182
  535TIP3   OH2 1610   0.474   4.235   3.640
  535TIP3    H1 1611   0.505   4.301   3.702
  535TIP3    H2 1612   0.414   4.180   3.692
  536TIP3   OH2 1613   3.674   0.766   1.084
  536TIP3    H1 1614   3.707   0.840   1.136
  536TIP3    H2 1615   3.625   0.713   1.146
  537TIP3   OH2 1616   1.506   1.703   1.362
  537TIP3    H1 1617   1.432   1.651   1.334
  537TIP3    H2 1618   1.500   1.784   1.311
  538TIP3   OH2 1619   5.953   5.731   2.297
  538TIP3    H1 1620   5.874   5.678   2.311
  538TIP3    H2 1621   6.017   5.670   2.263
  539TIP3   OH2 1622   6.301   5.891   3.292
  539TIP3    H1 1623   6.357   5.828   3.338
  539TIP3    H2 1624   6.236   5.836   3.247
  540TIP3   OH2 1625   4.493   4.528   3.937
  540TIP3    H1 1626   4.425   4.465   3.959
  540TIP3    H2 1627   4.547   4.484   3.872
  541TIP3   OH2 1628   5.894   4.218   0.273
  541TIP3    H1 1629   5.895   4.217   0.178
  541TIP3    H2 1630   5.839   4.294   0.295
  542TIP3   OH2 1631   1.665   1.983   2.765
  542TIP3    H1 1632   1.699   1.893   2.761
  542TIP3    H2 1633   1.571   1.973   2.749
  543TIP3   OH2 1634   1.882   4.784   2.619
  543TIP3    H1 1635   1.884   4.823   2.532
  543TIP3    H2 1636   1.888   4.689   2.604
  544TIP3   OH2 1637   0.318   3.942   0.368
  544TIP3    H1 1638   0.298   3.941   0.461
  544TIP3    H2 1639   0.291   3.856   0.337
  545TIP3   OH2 1640   2.307   2.006   1.409
  545TIP3    H1 1641   2.304   2.003   1.505
  545TIP3    H2 1642   2.315   1.915   1.382
  546TIP3   OH2 1643   5.668   2.296   2.913
  546TIP3    H1 1644   5.651   2.219   2.858
  546TIP3    H2 1645   5.665   2.370   2.852
  547TIP3   OH2 1646   3.068   2.019   4.930
  547TIP3    H1 1647   3.164   2.024   4.932
  547TIP3    H2 1648   3.047   1.937   4.974
  548TIP3   OH2 1649   2.203   2.477   3.935
  548TIP3    H1 1650   2.271   2.513   3.991
  548TIP3    H2 1651   2.137   2.546   3.929
  549TIP3   OH2 1652   5.688   5.087   0.713
  549TIP3    H1 1653   5.627   5.157   0.737
  549TIP3    H2 1654   5.684   5.084   0.617
  550TIP3   OH2 1655   0.083   5.849   3.870
  550TIP3    H1 1656   0.080   5.867   3.964
  550TIP3    H2 1657   0.137   5.771   3.862
  551TIP3   OH2 1658   1.669   3.500   0.394
  551TIP3    H1 1659   1.584   3.504   0.351
  551TIP3    H2 1660   1.668   3.416   0.441
  552TIP3   OH2 1661   2.307   3.915   3.122
  552TIP3    H1 1662   2.383   3.862   3.145
  552TIP3    H2 1663   2.248   3.905   3.197
  553TIP3   OH2 1664   6.288   1.599   0.982
  553TIP3    H1 1665   6.384   1.597   0.991
  553TIP3    H2 1666   6.268   1.688   0.954
  554TIP3   OH2 1667   3.119   4.507   2.759
  554TIP3    H1 1668   3.110   4.412   2.754
  554TIP3    H2 1669   3.201   4.521   2.806
  555TIP3   OH2 1670   4.364   1.892   2.896
  555TIP3    H1 1671   4.297   1.870   2.831
  555TIP3    H2 1672   4.425   1.949   2.849
  556TIP3   OH2 1673   5.827   0.978   0.571
  556TIP3    H1 1674   5.870   0.911   0.519
  556TIP3    H2 1675   5.849   0.956   0.662
  557TIP3   OH2 1676   5.717   1.660   1.870
  557TIP3    H1 1677   5.753   1.572   1.860
  557TIP3    H2 1678   5.790   1.718   1.849
  558TIP3   OH2 1679   2.302   1.548   0.535
  558TIP3    H1 1680   2.251   1.617   0.579
  558TIP3    H2 1681   2.240   1.475   0.525
  559TIP3   OH2 1682   0.476   4.877   4.620
  559TIP3    H1 1683   0.412   4.898   4.688
  559TIP3    H2 1684   0.554   4.927   4.643
  560TIP3   OH2 1685   1.497   0.505   2.200
  560TIP3    H1 1686   1.580   0.545   2.224
  560TIP3    H2 1687   1.433   0.548   2.257
  561TIP3   OH2 1688   5.438   5.376   4.373
  561TIP3    H1 1689   5.432   5.301   4.433
  561TIP3    H2 1690   5.513   5.427   4.407
  562TIP3   OH2 1691   2.073   3.940   2.324
  562TIP3    H1 1692   2.086   3.848   2.302
  562TIP3    H2 1693   2.098   3.987   2.244
  563TIP3   OH2 1694   0.749   5.244   2.754
  563TIP3    H1 1695   0.682   5.193   2.798
  563TIP3    H2 1696   0.825   5.240   2.812
  564TIP3   OH2 1697   5.940   5.235   4.904
  564TIP3    H1 1698   6.006   5.304   4.895
  564TIP3    H2 1699   5.988   5.158   4.934
  565TIP3   OH2 1700   6.267   0.150   3.724
  565TIP3    H1 1701   6.343   0.157   3.781
  565TIP3    H2 1702   6.297   0.097   3.650
  566TIP3   OH2 1703   5.941   5.209   3.066
  566TIP3    H1 1704   6.012   5.158   3.104
  566TIP3    H2 1705   5.887   5.145   3.020
  567TIP3   OH2 1706   3.157   5.167   1.510
  567TIP3    H1 1707   3.233   5.155   1.567
  567TIP3    H2 1708   3.127   5.078   1.492
  568TIP3   OH2 1709   2.846   5.234   1.072
  568TIP3    H1 1710   2.782   5.250   1.002
  568TIP3    H2 1711   2.793   5.213   1.149
  569TIP3   OH2 1712   0.860   5.181   1.401
  569TIP3    H1 1713   0.860   5.101   1.349
  569TIP3    H2 1714   0.862   5.251   1.337
  570TIP3   OH2 1715   4.074   3.100   2.620
  570TIP3    H1 1716   4.137   3.033   2.594
  570TIP3    H2 1717   4.119   3.150   2.689
  571TIP3   OH2 1718   2.895   2.848   4.375
  571TIP3    H1 1719   2.887   2.932   4.329
  571TIP3    H2 1720   2.864   2.867   4.464
  572TIP3   OH2 1721   5.064   5.591   0.036
  572TIP3    H1 1722   5.015   5.642   0.100
  572TIP3    H2 1723   5.109   5.525   0.088
  573TIP3   OH2 1724   1.570   5.255   0.488
  573TIP3    H1 1725   1.476   5.245   0.503
  573TIP3    H2 1726   1.578   5.268   0.393
  574TIP3   OH2 1727   5.854   5.637   1.362
  574TIP3    H1 1728   5.798   5.650   1.286
  574TIP3    H2 1729   5.820   5.698   1.428
  575TIP3   OH2 1730   0.499   3.831   1.222
  575TIP3    H1 1731   0.489   3.738   1.242
  575TIP3    H2 1732   0.512   3.835   1.128
  576TIP3   OH2 1733   1.841   0.934   4.472
  576TIP3    H1 1734   1.750   0.921   4.444
  576TIP3    H2 1735   1.843   0.903   4.562
  577TIP3   OH2 1736   1.859   4.386   1.600
  577TIP3    H1 1737   1.784   4.445   1.602
  577TIP3    H2 1738   1.822   4.300   1.582
  578TIP3   OH2 1739   4.952   1.860   1.277
  578TIP3    H1 1740   4.993   1.851   1.363
  578TIP3    H2 1741   5.026   1.872   1.217
  579TIP3   OH2 1742   6.083   3.861   2.473
  579TIP3    H1 1743   6.136   3.785   2.498
  579TIP3    H2 1744   6.135   3.937   2.501
  580TIP3   OH2 1745   4.693   1.998   0.614
  580TIP3    H1 1746   4.772   1.984   0.561
  580TIP3    H2 1747   4.644   1.916   0.605
  581TIP3   OH2 1748   1.116   2.297   3.214
  581TIP3    H1 1749   1.051   2.244   3.168
  581TIP3    H2 1750   1.200   2.255   3.194
  582TIP3   OH2 1751   5.910  -0.036   0.971
  582TIP3    H1 1752   5.978   0.030   0.960
  582TIP3    H2 1753   5.852   0.001   1.038
  583TIP3   OH2 1754   1.186   1.494   0.562
  583TIP3    H1 1755   1.201   1.400   0.558
  583TIP3    H2 1756   1.166   1.520   0.472
  584TIP3   OH2 1757   6.293   1.646   3.872
  584TIP3    H1 1758   6.330   1.559   3.889
  584TIP3    H2 1759   6.214   1.629   3.821
  585TIP3   OH2 1760   5.452   5.591   0.855
  585TIP3    H1 1761   5.371   5.639   0.870
  585TIP3    H2 1762   5.452   5.573   0.761
  586TIP3   OH2 1763   5.250   3.195   2.591
  586TIP3    H1 1764   5.312   3.164   2.525
  586TIP3    H2 1765   5.230   3.117   2.643
  587TIP3   OH2 1766   5.812   1.719   4.511
  587TIP3    H1 1767   5.886   1.661   4.530
  587TIP3    H2 1768   5.850   1.807   4.512
  588TIP3   OH2 1769   3.894   5.412   3.261
  588TIP3    H1 1770   3.952   5.486   3.240
  588TIP3    H2 1771   3.917   5.388   3.350
  589TIP3   OH2 1772   1.371   2.394   1.852
  589TIP3    H1 1773   1.321   2.425   1.776
  589TIP3    H2 1774   1.424   2.470   1.878
  590TIP3   OH2 1775   5.771   5.838   4.189
  590TIP3    H1 1776   5.773   5.827   4.284
  590TIP3    H2 1777   5.689   5.797   4.162
  591TIP3   OH2 1778   1.128   1.024   3.390
  591TIP3    H1 1779   1.200   0.985   3.340
  591TIP3    H2 1780   1.159   1.112   3.412
  592TIP3   OH2 1781   3.724   1.408   0.103
  592TIP3    H1 1782   3.683   1.481   0.150
  592TIP3    H2 1783   3.747   1.345   0.171
  593TIP3   OH2 1784   3.672   5.187   0.575
  593TIP3    H1 1785   3.700   5.206   0.664
  593TIP3    H2 1786   3.686   5.092   0.565
  594TIP3   OH2 1787   3.103   3.011   3.882
  594TIP3    H1 1788   3.092   2.985   3.974
  594TIP3    H2 1789   3.015   3.038   3.855
  595TIP3   OH2 1790   6.125   3.570   2.545
  595TIP3    H1 1791   6.209   3.540   2.511
  595TIP3    H2 1792   6.062   3.545   2.477
  596TIP3   OH2 1793   0.756   4.222   1.910
  596TIP3    H1 1794   0.664   4.233   1.884
  596TIP3    H2 1795   0.803   4.217   1.827
  597TIP3   OH2 1796   1.194   5.795   3.053
  597TIP3    H1 1797   1.133   5.824   2.986
  597TIP3    H2 1798   1.181   5.855   3.126
  598TIP3   OH2 1799   4.655   3.706   0.330
  598TIP3    H1 1800   4.638   3.612   0.339
  598TIP3    H2 1801   4.727   3.723   0.390
  599TIP3   OH2 1802   2.626   5.497   2.985
  599TIP3    H1 1803   2.544   5.454   2.960
  599TIP3    H2 1804   2.673   5.507   2.902
  600TIP3   OH2 1805   4.602   1.047   1.006
  600TIP3    H1 1806   4.561   1.128   1.034
  600TIP3    H2 1807   4.530   0.985   0.997
  601TIP3   OH2 1808   2.592   0.776   0.596
  601TIP3    H1 1809   2.620   0.856   0.639
  601TIP3    H2 1810   2.670   0.720   0.595
  602TIP3   OH2 1811   5.784   5.673   0.562
  602TIP3    H1 1812   5.879   5.662   0.555
  602TIP3    H2 1813   5.749   5.631   0.483
  603TIP3   OH2 1814   1.475   1.083   1.952
  603TIP3    H1 1815   1.518   1.113   2.032
  603TIP3    H2 1816   1.416   1.155   1.928
  604TIP3   OH2 1817   4.623   4.944   4.722
  604TIP3    H1 1818   4.556   5.002   4.686
  604TIP3    H2 1819   4.704   4.971   4.679
  605TIP3   OH2 1820   0.728   0.363   0.314
  605TIP3    H1 1821   0.790   0.295   0.288
  605TIP3    H2 1822   0.745   0.377   0.407
  606TIP3   OH2 1823   6.027   1.301   3.075
  606TIP3    H1 1824   6.100   1.259   3.029
  606TIP3    H2 1825   5.961   1.232   3.084
  607TIP3   OH2 1826   0.673   1.628   4.507
  607TIP3    H1 1827   0.672   1.638   4.602
  607TIP3    H2 1828   0.739   1.691   4.477
  608TIP3   OH2 1829   2.756   5.853   0.505
  608TIP3    H1 1830   2.671   5.880   0.469
  608TIP3    H2 1831   2.817   5.921   0.477
  609TIP3   OH2 1832   5.277   3.986   5.049
  609TIP3    H1 1833   5.224   3.954   5.122
  609TIP3    H2 1834   5.344   4.042   5.089
  610TIP3   OH2 1835   0.747   5.642   5.116
  610TIP3    H1 1836   0.731   5.607   5.029
  610TIP3    H2 1837   0.704   5.727   5.117
  611TIP3   OH2 1838   5.586   5.632   3.065
  611TIP3    H1 1839   5.596   5.676   2.980
  611TIP3    H2 1840   5.583   5.539   3.044
  612TIP3   OH2 1841   4.543   1.006   1.893
  612TIP3    H1 1842   4.471   1.063   1.923
  612TIP3    H2 1843   4.499   0.932   1.852
  613TIP3   OH2 1844   5.149   2.733   0.424
  613TIP3    H1 1845   5.107   2.818   0.416
  613TIP3    H2 1846   5.140   2.710   0.516
  614TIP3   OH2 1847   5.936   5.601   4.600
  614TIP3    H1 1848   5.920   5.588   4.693
  614TIP3    H2 1849   5.852   5.582   4.558
  615TIP3   OH2 1850   2.332   2.124   3.668
  615TIP3    H1 1851   2.281   2.072   3.730
  615TIP3    H2 1852   2.267   2.171   3.616
  616TIP3   OH2 1853   0.684   2.582   2.462
  616TIP3    H1 1854   0.669   2.557   2.371
  616TIP3    H2 1855   0.639   2.515   2.513
  617TIP3   OH2 1856   4.160   5.328   0.887
  617TIP3    H1 1857   4.251   5.300   0.875
  617TIP3    H2 1858   4.154   5.411   0.839
  618TIP3   OH2 1859   3.472   4.961   1.320
  618TIP3    H1 1860   3.440   4.994   1.404
  618TIP3    H2 1861   3.438   4.872   1.315
  619TIP3   OH2 1862   2.290   3.791   3.400
  619TIP3    H1 1863   2.376   3.819   3.432
  619TIP3    H2 1864   2.296   3.695   3.394
  620TIP3   OH2 1865   1.820   1.763   4.717
  620TIP3    H1 1866   1.809   1.726   4.804
  620TIP3    H2 1867   1.776   1.848   4.721
  621TIP3   OH2 1868   5.423   5.814   2.497
  621TIP3    H1 1869   5.487   5.855   2.438
  621TIP3    H2 1870   5.476   5.764   2.559
  622TIP3   OH2 1871   1.409   0.956   1.426
  622TIP3    H1 1872   1.484   0.974   1.483
  622TIP3    H2 1873   1.444   0.899   1.358
  623TIP3   OH2 1874   5.551   1.582   3.274
  623TIP3    H1 1875   5.628   1.530   3.252
  623TIP3    H2 1876   5.533   1.634   3.195
  624TIP3   OH2 1877   2.506   5.144   1.717
  624TIP3    H1 1878   2.588   5.128   1.765
  624TIP3    H2 1879   2.437   5.122   1.780
  625TIP3   OH2 1880   5.982   2.682   3.869
  625TIP3    H1 1881   5.925   2.610   3.897
  625TIP3    H2 1882   6.045   2.692   3.940
  626TIP3   OH2 1883   2.967   0.210   0.504
  626TIP3    H1 1884   2.880   0.199   0.465
  626TIP3    H2 1885   3.018   0.257   0.438
  627TIP3   OH2 1886   2.028   5.717   4.340
  627TIP3    H1 1887   1.945   5.721   4.293
  627TIP3    H2 1888   2.094   5.740   4.275
  628TIP3   OH2 1889   5.884   4.537   1.190
  628TIP3    H1 1890   5.819   4.481   1.232
  628TIP3    H2 1891   5.967   4.512   1.231
  629TIP3   OH2 1892   0.192   2.667   3.473
  629TIP3    H1 1893   0.096   2.657   3.474
  629TIP3    H2 1894   0.225   2.578   3.462
  630TIP3   OH2 1895   2.701   4.682   1.303
  630TIP3    H1 1896   2.700   4.632   1.384
  630TIP3    H2 1897   2.610   4.678   1.272
  631TIP3   OH2 1898   0.452   3.261   4.407
  631TIP3    H1 1899   0.536   3.286   4.443
  631TIP3    H2 1900   0.451   3.165   4.411
  632TIP3   OH2 1901   3.278   5.274   2.671
  632TIP3    H1 1902   3.358   5.269   2.618
  632TIP3    H2 1903   3.309   5.285   2.761
  633TIP3   OH2 1904   1.945   2.027   1.700
  633TIP3    H1 1905   1.924   2.104   1.646
  633TIP3    H2 1906   1.864   1.975   1.699
  634TIP3   OH2 1907   3.415   0.367   4.677
  634TIP3    H1 1908   3.502   0.328   4.683
  634TIP3    H2 1909   3.383   0.343   4.591
  635TIP3   OH2 1910   4.779   3.173   0.590
  635TIP3    H1 1911   4.818   3.260   0.584
  635TIP3    H2 1912   4.684   3.190   0.587
  636TIP3   OH2 1913   1.264   1.902   2.409
  636TIP3    H1 1914   1.316   1.981   2.421
  636TIP3    H2 1915   1.279   1.877   2.317
  637TIP3   OH2 1916   4.172   0.419   0.188
  637TIP3    H1 1917   4.088   0.400   0.229
  637TIP3    H2 1918   4.155   0.416   0.094
  638TIP3   OH2 1919   5.151   2.031   4.646
  638TIP3    H1 1920   5.215   1.967   4.676
  638TIP3    H2 1921   5.083   1.979   4.603
  639TIP3   OH2 1922   3.349   2.058   3.137
  639TIP3    H1 1923   3.316   1.970   3.156
  639TIP3    H2 1924   3.431   2.043   3.089
  640TIP3   OH2 1925   4.858   0.534   0.551
  640TIP3    H1 1926   4.898   0.494   0.628
  640TIP3    H2 1927   4.851   0.627   0.572
  641TIP3   OH2 1928   0.588   4.437   3.781
  641TIP3    H1 1929   0.666   4.480   3.815
  641TIP3    H2 1930   0.524   4.445   3.852
  642TIP3   OH2 1931   3.312   3.902   1.780
  642TIP3    H1 1932   3.259   3.889   1.701
  642TIP3    H2 1933   3.250   3.891   1.852
  643TIP3   OH2 1934   5.978   2.382   2.817
  643TIP3    H1 1935   6.035   2.449   2.855
  643TIP3    H2 1936   6.038   2.318   2.780
  644TIP3   OH2 1937   2.379   4.740   1.590
  644TIP3    H1 1938   2.290   4.777   1.587
  644TIP3    H2 1939   2.366   4.646   1.577
  645TIP3   OH2 1940   4.127   1.509   1.669
  645TIP3    H1 1941   4.121   1.593   1.714
  645TIP3    H2 1942   4.064   1.452   1.713
  646TIP3   OH2 1943   0.770   2.212   1.292
  646TIP3    H1 1944   0.807   2.244   1.210
  646TIP3    H2 1945   0.783   2.284   1.354
  647TIP3   OH2 1946   3.770   2.998   4.083
  647TIP3    H1 1947   3.862   3.004   4.108
  647TIP3    H2 1948   3.726   3.065   4.136
  648TIP3   OH2 1949   2.060   5.701   0.313
  648TIP3    H1 1950   2.080   5.617   0.355
  648TIP3    H2 1951   1.974   5.688   0.273
  649TIP3   OH2 1952   0.985   0.261   3.736
  649TIP3    H1 1953   1.071   0.229   3.708
  649TIP3    H2 1954   0.927   0.185   3.725
  650TIP3   OH2 1955   1.024   3.463   2.786
  650TIP3    H1 1956   0.997   3.546   2.746
  650TIP3    H2 1957   1.011   3.477   2.880
  651TIP3   OH2 1958   2.240   0.699   0.086
  651TIP3    H1 1959   2.236   0.691  -0.009
  651TIP3    H2 1960   2.313   0.759   0.102
  652TIP3   OH2 1961   5.215   0.394   3.862
  652TIP3    H1 1962   5.304   0.426   3.875
  652TIP3    H2 1963   5.210   0.373   3.769
  653TIP3   OH2 1964   6.053   3.401   3.903
  653TIP3    H1 1965   6.099   3.328   3.946
  653TIP3    H2 1966   6.060   3.382   3.810
  654TIP3   OH2 1967   2.815   2.779   1.700
  654TIP3    H1 1968   2.757   2.708   1.727
  654TIP3    H2 1969   2.762   2.858   1.709
  655TIP3   OH2 1970   4.201   2.144   1.060
  655TIP3    H1 1971   4.174   2.146   0.969
  655TIP3    H2 1972   4.241   2.058   1.071
  656TIP3   OH2 1973   0.218   3.895   4.574
  656TIP3    H1 1974   0.184   3.809   4.550
  656TIP3    H2 1975   0.217   3.894   4.670
  657TIP3   OH2 1976   3.375   5.951   0.792
  657TIP3    H1 1977   3.327   6.006   0.853
  657TIP3    H2 1978   3.420   5.887   0.847
  658TIP3   OH2 1979   4.428   3.313   1.026
  658TIP3    H1 1980   4.481   3.380   0.982
  658TIP3    H2 1981   4.472   3.300   1.110
  659TIP3   OH2 1982   4.395   5.141   0.933
  659TIP3    H1 1983   4.328   5.102   0.989
  659TIP3    H2 1984   4.391   5.090   0.852
  660TIP3   OH2 1985   2.196   0.249   0.584
  660TIP3    H1 1986   2.260   0.318   0.566
  660TIP3    H2 1987   2.203   0.234   0.678
  661TIP3   OH2 1988   0.986   4.511   2.872
  661TIP3    H1 1989   1.046   4.438   2.864
  661TIP3    H2 1990   1.010   4.553   2.955
  662TIP3   OH2 1991   2.019   1.516   3.622
  662TIP3    H1 1992   1.984   1.525   3.711
  662TIP3    H2 1993   2.112   1.537   3.631
  663TIP3   OH2 1994   2.314   4.715   4.706
  663TIP3    H1 1995   2.238   4.659   4.686
  663TIP3    H2 1996   2.332   4.760   4.624
  664TIP3   OH2 1997   4.143   0.908   3.843
  664TIP3    H1 1998   4.211   0.902   3.776
  664TIP3    H2 1999   4.077   0.844   3.816
  665TIP3   OH2 2000   5.495   0.193   2.698
  665TIP3    H1 2001   5.401   0.187   2.716
  665TIP3    H2 2002   5.501   0.236   2.613
  666TIP3   OH2 2003   6.320   5.725   2.439
  666TIP3    H1 2004   6.274   5.764   2.364
  666TIP3    H2 2005   6.309   5.630   2.427
  667TIP3   OH2 2006   1.598   1.588   2.116
  667TIP3    H1 2007   1.580   1.645   2.191
  667TIP3    H2 2008   1.512   1.568   2.079
  668TIP3   OH2 2009   2.423   4.072   1.536
  668TIP3    H1 2010   2.450   4.020   1.460
  668TIP3    H2 2011   2.333   4.043   1.555
  669TIP3   OH2 2012   4.671   0.214   5.076
  669TIP3    H1 2013   4.715   0.294   5.045
  669TIP3    H2 2014   4.696   0.207   5.168
  670TIP3   OH2 2015   5.539   5.994   5.143
  670TIP3    H1 2016   5.570   5.997   5.052
  670TIP3    H2 2017   5.502   5.906   5.152
  671TIP3   OH2 2018   6.273   2.041   4.922
  671TIP3    H1 2019   6.280   1.947   4.939
  671TIP3    H2 2020   6.354   2.063   4.877
  672TIP3   OH2 2021   1.682   5.885   3.492
  672TIP3    H1 2022   1.642   5.912   3.409
  672TIP3    H2 2023   1.609   5.850   3.544
  673TIP3   OH2 2024   4.485   3.835   3.670
  673TIP3    H1 2025   4.493   3.770   3.740
  673TIP3    H2 2026   4.408   3.809   3.620
  674TIP3   OH2 2027   5.477   3.085   3.707
  674TIP3    H1 2028   5.446   3.175   3.697
  674TIP3    H2 2029   5.561   3.093   3.751
  675TIP3   OH2 2030   5.691   0.999   2.592
  675TIP3    H1 2031   5.621   1.028   2.651
  675TIP3    H2 2032   5.693   0.904   2.603
  676TIP3   OH2 2033   2.632   5.187   3.214
  676TIP3    H1 2034   2.545   5.214   3.185
  676TIP3    H2 2035   2.656   5.116   3.154
  677TIP3   OH2 2036   2.657   0.786   3.031
  677TIP3    H1 2037   2.691   0.859   2.980
  677TIP3    H2 2038   2.685   0.805   3.121
  678TIP3   OH2 2039   4.107   5.332   4.441
  678TIP3    H1 2040   4.173   5.401   4.446
  678TIP3    H2 2041   4.136   5.275   4.370
  679TIP3   OH2 2042   5.451   2.830   1.541
  679TIP3    H1 2043   5.526   2.804   1.593
  679TIP3    H2 2044   5.376   2.788   1.584
  680TIP3   OH2 2045   6.270   0.146   2.118
  680TIP3    H1 2046   6.365   0.145   2.123
  680TIP3    H2 2047   6.249   0.090   2.043
  681TIP3   OH2 2048   5.083   0.854   4.270
  681TIP3    H1 2049   4.993   0.878   4.295
  681TIP3    H2 2050   5.089   0.761   4.292
  682TIP3   OH2 2051   3.343   0.844   2.216
  682TIP3    H1 2052   3.304   0.757   2.221
  682TIP3    H2 2053   3.326   0.872   2.126
  683TIP3   OH2 2054   3.677   4.800   1.981
  683TIP3    H1 2055   3.671   4.705   1.970
  683TIP3    H2 2056   3.587   4.831   1.976
  684TIP3   OH2 2057   5.581   0.122   3.886
  684TIP3    H1 2058   5.578   0.194   3.823
  684TIP3    H2 2059   5.658   0.139   3.940
  685TIP3   OH2 2060   5.275   3.424   3.599
  685TIP3    H1 2061   5.318   3.434   3.514
  685TIP3    H2 2062   5.311   3.494   3.653
  686TIP3   OH2 2063   1.855   5.262   1.573
  686TIP3    H1 2064   1.895   5.198   1.632
  686TIP3    H2 2065   1.892   5.241   1.487
  687TIP3   OH2 2066   1.322   3.862   2.590
  687TIP3    H1 2067   1.362   3.867   2.503
  687TIP3    H2 2068   1.230   3.841   2.573
  688TIP3   OH2 2069   0.200   2.890   4.165
  688TIP3    H1 2070   0.287   2.858   4.140
  688TIP3    H2 2071   0.166   2.823   4.224
  689TIP3   OH2 2072   1.665   0.743   3.144
  689TIP3    H1 2073   1.622   0.746   3.230
  689TIP3    H2 2074   1.755   0.771   3.161
  690TIP3   OH2 2075   5.869   0.638   0.501
  690TIP3    H1 2076   5.879   0.689   0.582
  690TIP3    H2 2077   5.930   0.679   0.440
  691TIP3   OH2 2078   6.273   2.174   3.119
  691TIP3    H1 2079   6.180   2.189   3.136
  691TIP3    H2 2080   6.316   2.187   3.204
  692TIP3   OH2 2081   3.529   5.492   3.104
  692TIP3    H1 2082   3.606   5.442   3.075
  692TIP3    H2 2083   3.525   5.566   3.044
  693TIP3   OH2 2084   5.043   1.555   4.669
  693TIP3    H1 2085   5.113   1.589   4.612
  693TIP3    H2 2086   5.090   1.506   4.737
  694TIP3   OH2 2087   4.169   2.226   4.020
  694TIP3    H1 2088   4.144   2.307   3.976
  694TIP3    H2 2089   4.265   2.227   4.021
  695TIP3   OH2 2090   3.057   2.273   1.670
  695TIP3    H1 2091   3.092   2.358   1.698
  695TIP3    H2 2092   2.962   2.282   1.678
  696TIP3   OH2 2093   6.154   5.107   0.374
  696TIP3    H1 2094   6.132   5.078   0.285
  696TIP3    H2 2095   6.087   5.067   0.429
  697TIP3   OH2 2096   2.860   5.165   2.381
  697TIP3    H1 2097   2.824   5.251   2.401
  697TIP3    H2 2098   2.885   5.128   2.466
  698TIP3   OH2 2099   0.339   5.594   2.862
  698TIP3    H1 2100   0.391   5.672   2.841
  698TIP3    H2 2101   0.296   5.616   2.944
  699TIP3   OH2 2102   4.476   2.901   2.727
  699TIP3    H1 2103   4.515   2.989   2.722
  699TIP3    H2 2104   4.403   2.904   2.665
  700TIP3   OH2 2105   0.081   5.479   1.141
  700TIP3    H1 2106   0.118   5.475   1.229
  700TIP3    H2 2107   0.142   5.535   1.092
  701TIP3   OH2 2108   1.512   5.238   0.915
  701TIP3    H1 2109   1.518   5.259   1.008
  701TIP3    H2 2110   1.497   5.144   0.912
  702TIP3   OH2 2111   3.414   4.891   2.424
  702TIP3    H1 2112   3.372   4.806   2.412
  702TIP3    H2 2113   3.354   4.953   2.383
  703TIP3   OH2 2114   1.033   5.712   3.824
  703TIP3    H1 2115   1.125   5.734   3.815
  703TIP3    H2 2116   1.033   5.624   3.862
  704TIP3   OH2 2117   3.855   3.293   0.569
  704TIP3    H1 2118   3.813   3.360   0.516
  704TIP3    H2 2119   3.914   3.248   0.508
  705TIP3   OH2 2120   5.515   2.779   5.083
  705TIP3    H1 2121   5.456   2.835   5.134
  705TIP3    H2 2122   5.565   2.841   5.028
  706TIP3   OH2 2123   3.418   3.287   1.921
  706TIP3    H1 2124   3.331   3.327   1.910
  706TIP3    H2 2125   3.470   3.354   1.965
  707TIP3   OH2 2126   5.568   2.047   1.439
  707TIP3    H1 2127   5.643   2.017   1.387
  707TIP3    H2 2128   5.520   1.967   1.461
  708TIP3   OH2 2129   5.331   4.197   2.024
  708TIP3    H1 2130   5.265   4.128   2.032
  708TIP3    H2 2131   5.353   4.220   2.114
  709TIP3   OH2 2132   4.023   5.776   3.703
  709TIP3    H1 2133   4.070   5.694   3.719
  709TIP3    H2 2134   3.944   5.770   3.757
  710TIP3   OH2 2135   1.613   1.059   0.239
  710TIP3    H1 2136   1.623   1.035   0.147
  710TIP3    H2 2137   1.620   1.155   0.239
  711TIP3   OH2 2138   3.212   3.974   2.553
  711TIP3    H1 2139   3.182   4.064   2.568
  711TIP3    H2 2140   3.258   3.978   2.469
  712TIP3   OH2 2141   0.724   3.818   2.336
  712TIP3    H1 2142   0.815   3.788   2.337
  712TIP3    H2 2143   0.730   3.911   2.356
  713TIP3   OH2 2144   1.067   4.898   4.768
  713TIP3    H1 2145   1.059   4.953   4.690
  713TIP3    H2 2146   1.069   4.960   4.841
  714TIP3   OH2 2147   1.699   4.905   2.757
  714TIP3    H1 2148   1.768   4.937   2.815
  714TIP3    H2 2149   1.739   4.831   2.711
  715TIP3   OH2 2150   1.835   0.067   1.760
  715TIP3    H1 2151   1.795   0.150   1.787
  715TIP3    H2 2152   1.826   0.010   1.836
  716TIP3   OH2 2153   3.891   0.064   4.615
  716TIP3    H1 2154   3.852   0.140   4.658
  716TIP3    H2 2155   3.957   0.100   4.556
  717TIP3   OH2 2156   5.594   4.379   2.032
  717TIP3    H1 2157   5.510   4.415   2.059
  717TIP3    H2 2158   5.575   4.332   1.950
  718TIP3   OH2 2159   4.313   1.964   0.580
  718TIP3    H1 2160   4.381   1.904   0.609
  718TIP3    H2 2161   4.242   1.907   0.549
  719TIP3   OH2 2162   5.522   0.478   5.076
  719TIP3    H1 2163   5.603   0.471   5.126
  719TIP3    H2 2164   5.466   0.535   5.129
  720TIP3   OH2 2165   4.982   4.143   2.580
  720TIP3    H1 2166   4.924   4.068   2.587
  720TIP3    H2 2167   5.040   4.136   2.656
  721TIP3   OH2 2168   2.719   5.787   4.077
  721TIP3    H1 2169   2.805   5.827   4.085
  721TIP3    H2 2170   2.663   5.856   4.041
  722TIP3   OH2 2171   1.910   5.720   1.711
  722TIP3    H1 2172   1.926   5.798   1.764
  722TIP3    H2 2173   1.977   5.722   1.643
  723TIP3   OH2 2174   5.820   4.397   2.468
  723TIP3    H1 2175   5.741   4.393   2.415
  723TIP3    H2 2176   5.891   4.375   2.408
  724TIP3   OH2 2177   0.726   5.296   0.669
  724TIP3    H1 2178   0.748   5.259   0.755
  724TIP3    H2 2179   0.700   5.221   0.616
  725TIP3   OH2 2180   5.031   4.188   5.140
  725TIP3    H1 2181   5.121   4.191   5.173
  725TIP3    H2 2182   4.992   4.270   5.169
  726TIP3   OH2 2183   4.707   1.714   1.991
  726TIP3    H1 2184   4.628   1.722   1.938
  726TIP3    H2 2185   4.774   1.761   1.940
  727TIP3   OH2 2186   3.906   3.907   3.440
  727TIP3    H1 2187   3.944   3.852   3.509
  727TIP3    H2 2188   3.949   3.877   3.360
  728TIP3   OH2 2189   1.215   0.410   4.145
  728TIP3    H1 2190   1.284   0.346   4.128
  728TIP3    H2 2191   1.135   0.370   4.111
  729TIP3   OH2 2192   2.144   1.722   0.694
  729TIP3    H1 2193   2.072   1.700   0.754
  729TIP3    H2 2194   2.216   1.747   0.751
  730TIP3   OH2 2195   5.713   5.594   0.877
  730TIP3    H1 2196   5.622   5.615   0.859
  730TIP3    H2 2197   5.747   5.559   0.794
  731TIP3   OH2 2198   2.915   5.051   3.069
  731TIP3    H1 2199   2.821   5.032   3.060
  731TIP3    H2 2200   2.919   5.122   3.133
  732TIP3   OH2 2201   3.686   3.803   1.494
  732TIP3    H1 2202   3.622   3.755   1.442
  732TIP3    H2 2203   3.650   3.891   1.502
  733TIP3   OH2 2204   5.222   1.927   1.359
  733TIP3    H1 2205   5.269   1.929   1.276
  733TIP3    H2 2206   5.246   2.008   1.402
  734TIP3   OH2 2207   3.997   4.912   4.294
  734TIP3    H1 2208   4.040   4.957   4.221
  734TIP3    H2 2209   4.062   4.851   4.327
  735TIP3   OH2 2210   5.056   3.280   3.070
  735TIP3    H1 2211   5.067   3.189   3.096
  735TIP3    H2 2212   5.143   3.319   3.083
  736TIP3   OH2 2213   2.915   5.123   4.427
  736TIP3    H1 2214   2.966   5.124   4.508
  736TIP3    H2 2215   2.951   5.050   4.377
  737TIP3   OH2 2216   0.841   2.305   0.321
  737TIP3    H1 2217   0.835   2.304   0.416
  737TIP3    H2 2218   0.899   2.378   0.301
  738TIP3   OH2 2219   5.573   2.714   4.368
  738TIP3    H1 2220   5.536   2.743   4.285
  738TIP3    H2 2221   5.575   2.793   4.422
  739TIP3   OH2 2222   3.583   0.655   3.117
  739TIP3    H1 2223   3.597   0.712   3.041
  739TIP3    H2 2224   3.671   0.627   3.142
  740TIP3   OH2 2225   2.278   1.048   4.902
  740TIP3    H1 2226   2.242   1.083   4.821
  740TIP3    H2 2227   2.344   0.984   4.873
  741TIP3   OH2 2228   2.296   2.617   1.715
  741TIP3    H1 2229   2.228   2.553   1.738
  741TIP3    H2 2230   2.312   2.666   1.795
  742TIP3   OH2 2231   3.361   4.530   2.852
  742TIP3    H1 2232   3.350   4.597   2.920
  742TIP3    H2 2233   3.416   4.463   2.892
  743TIP3   OH2 2234   0.469   1.886   1.866
  743TIP3    H1 2235   0.472   1.830   1.788
  743TIP3    H2 2236   0.475   1.975   1.832
  744TIP3   OH2 2237   4.632   0.454   0.108
  744TIP3    H1 2238   4.570   0.390   0.141
  744TIP3    H2 2239   4.696   0.464   0.179
  745TIP3   OH2 2240   4.627   2.627   4.214
  745TIP3    H1 2241   4.584   2.577   4.283
  745TIP3    H2 2242   4.611   2.718   4.236
  746TIP3   OH2 2243   3.345   1.403   3.686
  746TIP3    H1 2244   3.297   1.477   3.650
  746TIP3    H2 2245   3.428   1.441   3.715
  747TIP3   OH2 2246   3.084   0.415   1.961
  747TIP3    H1 2247   3.151   0.442   1.899
  747TIP3    H2 2248   3.076   0.320   1.948
  748TIP3   OH2 2249   4.960   5.577   1.359
  748TIP3    H1 2250   4.975   5.490   1.396
  748TIP3    H2 2251   4.954   5.561   1.264
  749TIP3   OH2 2252   3.986   1.315   1.774
  749TIP3    H1 2253   3.915   1.254   1.796
  749TIP3    H2 2254   4.056   1.259   1.741
  750TIP3   OH2 2255   5.556   0.670   0.459
  750TIP3    H1 2256   5.636   0.710   0.425
  750TIP3    H2 2257   5.585   0.588   0.499
  751TIP3   OH2 2258   1.585   5.272   1.171
  751TIP3    H1 2259   1.508   5.244   1.220
  751TIP3    H2 2260   1.657   5.222   1.210
  752TIP3   OH2 2261   4.040   1.806   2.969
  752TIP3    H1 2262   4.083   1.733   3.013
  752TIP3    H2 2263   4.082   1.811   2.883
  753TIP3   OH2 2264   4.319   1.878   4.001
  753TIP3    H1 2265   4.376   1.949   4.030
  753TIP3    H2 2266   4.355   1.800   4.043
  754TIP3   OH2 2267   1.761   1.764   1.895
  754TIP3    H1 2268   1.738   1.853   1.924
  754TIP3    H2 2269   1.813   1.777   1.816
  755TIP3   OH2 2270   6.181   1.133   1.922
  755TIP3    H1 2271   6.108   1.120   1.983
  755TIP3    H2 2272   6.138   1.142   1.836
  756TIP3   OH2 2273   0.540   5.194   1.128
  756TIP3    H1 2274   0.546   5.113   1.178
  756TIP3    H2 2275   0.625   5.201   1.083
  757TIP3   OH2 2276   0.377   0.021   4.471
  757TIP3    H1 2277   0.309   0.086   4.488
  757TIP3    H2 2278   0.444   0.068   4.421
  758TIP3   OH2 2279   4.742   5.899   2.444
  758TIP3    H1 2280   4.728   5.858   2.529
  758TIP3    H2 2281   4.792   5.979   2.464
  759TIP3   OH2 2282   0.837   0.153   4.223
  759TIP3    H1 2283   0.849   0.217   4.293
  759TIP3    H2 2284   0.850   0.203   4.142
  760TIP3   OH2 2285   1.779   0.679   1.779
  760TIP3    H1 2286   1.781   0.701   1.686
  760TIP3    H2 2287   1.730   0.751   1.819
  761TIP3   OH2 2288   0.767   2.042   1.807
  761TIP3    H1 2289   0.799   2.033   1.718
  761TIP3    H2 2290   0.695   2.105   1.800
  762TIP3   OH2 2291   2.600   3.334   1.132
  762TIP3    H1 2292   2.580   3.240   1.137
  762TIP3    H2 2293   2.584   3.367   1.220
  763TIP3   OH2 2294   1.245   1.821   0.176
  763TIP3    H1 2295   1.325   1.768   0.173
  763TIP3    H2 2296   1.252   1.879   0.101
  764TIP3   OH2 2297   0.912   4.711   3.371
  764TIP3    H1 2298   0.915   4.652   3.296
  764TIP3    H2 2299   0.852   4.781   3.345
  765TIP3   OH2 2300   0.584   1.210   4.057
  765TIP3    H1 2301   0.582   1.211   3.961
  765TIP3    H2 2302   0.606   1.119   4.079
  766TIP3   OH2 2303   1.913   0.378   1.995
  766TIP3    H1 2304   1.874   0.334   1.920
  766TIP3    H2 2305   2.006   0.359   1.989
  767TIP3   OH2 2306   5.738   0.485   2.852
  767TIP3    H1 2307   5.781   0.476   2.767
  767TIP3    H2 2308   5.751   0.577   2.876
  768TIP3   OH2 2309   0.695   2.355   5.003
  768TIP3    H1 2310   0.612   2.394   5.032
  768TIP3    H2 2311   0.757   2.428   5.005
  769TIP3   OH2 2312   4.365   4.104   3.178
  769TIP3    H1 2313   4.336   4.105   3.087
  769TIP3    H2 2314   4.437   4.041   3.180
  770TIP3   OH2 2315   5.226   2.810   5.012
  770TIP3    H1 2316   5.187   2.816   5.099
  770TIP3    H2 2317   5.240   2.901   4.985
  771TIP3   OH2 2318   0.243   5.742   4.781
  771TIP3    H1 2319   0.157   5.733   4.822
  771TIP3    H2 2320   0.227   5.726   4.688
  772TIP3   OH2 2321   2.506   2.443   3.597
  772TIP3    H1 2322   2.594   2.456   3.561
  772TIP3    H2 2323   2.502   2.349   3.617
  773TIP3   OH2 2324   0.564   3.113   0.761
  773TIP3    H1 2325   0.574   3.169   0.684
  773TIP3    H2 2326   0.489   3.058   0.741
  774TIP3   OH2 2327   0.718   3.928   0.975
  774TIP3    H1 2328   0.769   3.854   0.941
  774TIP3    H2 2329   0.657   3.888   1.037
  775TIP3   OH2 2330   4.859   5.770   2.216
  775TIP3    H1 2331   4.948   5.773   2.250
  775TIP3    H2 2332   4.803   5.784   2.292
  776TIP3   OH2 2333   3.995   0.372   2.018
  776TIP3    H1 2334   3.969   0.310   1.950
  776TIP3    H2 2335   4.086   0.394   1.998
  777TIP3   OH2 2336   1.509   1.323   0.819
  777TIP3    H1 2337   1.588   1.271   0.836
  777TIP3    H2 2338   1.510   1.338   0.724
  778TIP3   OH2 2339   6.279   1.998   2.913
  778TIP3    H1 2340   6.306   2.034   2.997
  778TIP3    H2 2341   6.229   2.068   2.871
  779TIP3   OH2 2342   5.687   4.004   0.215
  779TIP3    H1 2343   5.780   4.023   0.202
  779TIP3    H2 2344   5.665   4.045   0.299
  780TIP3   OH2 2345   5.817   5.139   1.363
  780TIP3    H1 2346   5.884   5.071   1.357
  780TIP3    H2 2347   5.856   5.215   1.321
  781TIP3   OH2 2348   3.433   1.560   2.155
  781TIP3    H1 2349   3.416   1.477   2.109
  781TIP3    H2 2350   3.347   1.589   2.185
  782TIP3   OH2 2351   4.915   2.953   0.572
  782TIP3    H1 2352   4.868   3.036   0.567
  782TIP3    H2 2353   4.857   2.890   0.529
  783TIP3   OH2 2354   2.989   2.312   3.566
  783TIP3    H1 2355   2.986   2.291   3.473
  783TIP3    H2 2356   3.039   2.240   3.606
  784TIP3   OH2 2357   4.702   2.543   1.416
  784TIP3    H1 2358   4.702   2.504   1.329
  784TIP3    H2 2359   4.636   2.493   1.464
  785TIP3   OH2 2360   0.498   1.718   1.364
  785TIP3    H1 2361   0.565   1.662   1.405
  785TIP3    H2 2362   0.534   1.739   1.278
  786TIP3   OH2 2363   5.824   3.930   0.480
  786TIP3    H1 2364   5.757   3.999   0.480
  786TIP3    H2 2365   5.814   3.887   0.565
  787TIP3   OH2 2366   0.872   1.265   1.316
  787TIP3    H1 2367   0.792   1.222   1.283
  787TIP3    H2 2368   0.929   1.270   1.239
  788TIP3   OH2 2369   1.451   1.842   1.581
  788TIP3    H1 2370   1.384   1.782   1.613
  788TIP3    H2 2371   1.491   1.796   1.507
  789TIP3   OH2 2372   2.126   0.368   4.208
  789TIP3    H1 2373   2.151   0.449   4.165
  789TIP3    H2 2374   2.158   0.298   4.150
  790TIP3   OH2 2375   1.015   2.347   0.755
  790TIP3    H1 2376   1.091   2.339   0.813
  790TIP3    H2 2377   1.049   2.393   0.678
  791TIP3   OH2 2378   6.233   4.724   3.690
  791TIP3    H1 2379   6.199   4.725   3.601
  791TIP3    H2 2380   6.167   4.770   3.742
  792TIP3   OH2 2381   4.741   2.371   0.560
  792TIP3    H1 2382   4.722   2.308   0.491
  792TIP3    H2 2383   4.836   2.380   0.560
  793TIP3   OH2 2384   1.273   2.641   1.503
  793TIP3    H1 2385   1.339   2.583   1.466
  793TIP3    H2 2386   1.324   2.713   1.542
  794TIP3   OH2 2387   4.823   1.567   1.743
  794TIP3    H1 2388   4.771   1.487   1.737
  794TIP3    H2 2389   4.778   1.620   1.809
  795TIP3   OH2 2390   4.344   5.508   2.934
  795TIP3    H1 2391   4.399   5.440   2.973
  795TIP3    H2 2392   4.315   5.561   3.008
  796TIP3   OH2 2393   0.207   4.740   3.127
  796TIP3    H1 2394   0.200   4.648   3.101
  796TIP3    H2 2395   0.301   4.757   3.130
  797TIP3   OH2 2396   3.633   1.096   3.744
  797TIP3    H1 2397   3.647   1.180   3.700
  797TIP3    H2 2398   3.689   1.100   3.821
  798TIP3   OH2 2399   5.126   5.507   4.399
  798TIP3    H1 2400   5.122   5.524   4.305
  798TIP3    H2 2401   5.067   5.572   4.438
  799TIP3   OH2 2402   1.825   5.250   3.622
  799TIP3    H1 2403   1.755   5.286   3.567
  799TIP3    H2 2404   1.779   5.198   3.688
  800TIP3   OH2 2405   3.629   5.140   1.154
  800TIP3    H1 2406   3.582   5.084   1.216
  800TIP3    H2 2407   3.718   5.144   1.188
  801TIP3   OH2 2408   4.311   4.538   1.961
  801TIP3    H1 2409   4.404   4.513   1.954
  801TIP3    H2 2410   4.301   4.563   2.053
  802TIP3   OH2 2411   0.647   2.872   1.368
  802TIP3    H1 2412   0.620   2.826   1.289
  802TIP3    H2 2413   0.706   2.941   1.337
  803TIP3   OH2 2414   0.633   5.371   3.516
  803TIP3    H1 2415   0.707   5.422   3.484
  803TIP3    H2 2416   0.659   5.343   3.603
  804TIP3   OH2 2417   3.681   1.422   4.038
  804TIP3    H1 2418   3.607   1.480   4.057
  804TIP3    H2 2419   3.717   1.400   4.124
  805TIP3   OH2 2420   3.605   0.183   1.285
  805TIP3    H1 2421   3.663   0.109   1.274
  805TIP3    H2 2422   3.566   0.171   1.371
  806TIP3   OH2 2423   2.630   4.358   3.653
  806TIP3    H1 2424   2.681   4.327   3.579
  806TIP3    H2 2425   2.684   4.338   3.730
  807TIP3   OH2 2426   0.207   2.888   0.785
  807TIP3    H1 2427   0.223   2.913   0.694
  807TIP3    H2 2428   0.112   2.878   0.791
  808TIP3   OH2 2429   5.912   0.943   2.443
  808TIP3    H1 2430   5.851   0.959   2.515
  808TIP3    H2 2431   5.906   0.849   2.427
  809TIP3   OH2 2432   3.907   5.678   1.977
  809TIP3    H1 2433   3.957   5.648   1.901
  809TIP3    H2 2434   3.905   5.602   2.035
  810TIP3   OH2 2435   4.719   5.653   1.451
  810TIP3    H1 2436   4.749   5.616   1.534
  810TIP3    H2 2437   4.783   5.621   1.387
  811TIP3   OH2 2438   2.137   0.615   0.333
  811TIP3    H1 2439   2.165   0.634   0.243
  811TIP3    H2 2440   2.219   0.607   0.382
  812TIP3   OH2 2441   0.357   3.489   2.403
  812TIP3    H1 2442   0.417   3.419   2.376
  812TIP3    H2 2443   0.372   3.498   2.497
  813TIP3   OH2 2444   1.983   0.629   1.296
  813TIP3    H1 2445   2.066   0.596   1.262
  813TIP3    H2 2446   1.992   0.724   1.295
  814TIP3   OH2 2447   1.130   2.166   4.702
  814TIP3    H1 2448   1.168   2.174   4.615
  814TIP3    H2 2449   1.036   2.161   4.687
  815TIP3   OH2 2450   4.267   0.689   0.681
  815TIP3    H1 2451   4.215   0.746   0.738
  815TIP3    H2 2452   4.202   0.635   0.635
  816TIP3   OH2 2453   0.513   2.460   3.294
  816TIP3    H1 2454   0.525   2.553   3.277
  816TIP3    H2 2455   0.439   2.435   3.239
  817TIP3   OH2 2456   1.618   1.013   1.631
  817TIP3    H1 2457   1.599   0.977   1.718
  817TIP3    H2 2458   1.699   0.969   1.604
  818TIP3   OH2 2459   5.085   4.460   0.749
  818TIP3    H1 2460   5.051   4.527   0.809
  818TIP3    H2 2461   5.128   4.397   0.807
  819TIP3   OH2 2462   4.757   1.687   0.185
  819TIP3    H1 2463   4.786   1.601   0.216
  819TIP3    H2 2464   4.694   1.717   0.250
  820TIP3   OH2 2465   5.286   1.130   4.945
  820TIP3    H1 2466   5.294   1.054   4.888
  820TIP3    H2 2467   5.192   1.140   4.960
  821TIP3   OH2 2468   0.588   0.154   4.340
  821TIP3    H1 2469   0.580   0.213   4.415
  821TIP3    H2 2470   0.680   0.161   4.314
  822TIP3   OH2 2471   4.331   5.272   1.543
  822TIP3    H1 2472   4.424   5.251   1.537
  822TIP3    H2 2473   4.313   5.274   1.637
  823TIP3   OH2 2474   5.123   4.803   4.899
  823TIP3    H1 2475   5.030   4.810   4.920
  823TIP3    H2 2476   5.136   4.867   4.829
  824TIP3   OH2 2477   4.828   3.448   0.575
  824TIP3    H1 2478   4.889   3.510   0.615
  824TIP3    H2 2479   4.853   3.445   0.483
  825TIP3   OH2 2480   3.450   5.342   1.101
  825TIP3    H1 2481   3.529   5.290   1.093
  825TIP3    H2 2482   3.474   5.413   1.160
  826TIP3   OH2 2483   6.163   2.321   3.483
  826TIP3    H1 2484   6.138   2.378   3.555
  826TIP3    H2 2485   6.202   2.380   3.418
  827TIP3   OH2 2486   1.294   1.760   2.166
  827TIP3    H1 2487   1.376   1.755   2.216
  827TIP3    H2 2488   1.250   1.677   2.183
  828TIP3   OH2 2489   2.993   3.160   2.050
  828TIP3    H1 2490   3.075   3.156   2.099
  828TIP3    H2 2491   2.942   3.227   2.095
  829TIP3   OH2 2492   3.061   3.018   1.540
  829TIP3    H1 2493   3.017   3.017   1.626
  829TIP3    H2 2494   3.073   2.925   1.519
  830TIP3   OH2 2495   2.812   0.651   0.386
  830TIP3    H1 2496   2.883   0.626   0.446
  830TIP3    H2 2497   2.740   0.592   0.410
  831TIP3   OH2 2498   1.424   1.828   3.176
  831TIP3    H1 2499   1.508   1.805   3.137
  831TIP3    H2 2500   1.361   1.767   3.136
  832TIP3   OH2 2501   0.290   0.580   2.917
  832TIP3    H1 2502   0.370   0.613   2.958
  832TIP3    H2 2503   0.303   0.486   2.910
  833TIP3   OH2 2504   2.331   5.947   2.241
  833TIP3    H1 2505   2.417   5.975   2.209
  833TIP3    H2 2506   2.331   5.852   2.228
  834TIP3   OH2 2507   0.090   5.049   3.123
  834TIP3    H1 2508   0.111   5.088   3.039
  834TIP3    H2 2509   0.091   4.955   3.107
  835TIP3   OH2 2510   5.658   1.364   2.919
  835TIP3    H1 2511   5.633   1.451   2.888
  835TIP3    H2 2512   5.720   1.332   2.853
  836TIP3   OH2 2513   3.095   3.016   3.099
  836TIP3    H1 2514   3.064   2.960   3.028
  836TIP3    H2 2515   3.137   2.957   3.161
  837TIP3   OH2 2516   1.390   3.805   4.891
  837TIP3    H1 2517   1.325   3.810   4.821
  837TIP3    H2 2518   1.373   3.881   4.946
  838TIP3   OH2 2519   5.927   0.441   3.759
  838TIP3    H1 2520   5.870   0.436   3.836
  838TIP3    H2 2521   5.906   0.525   3.718
  839TIP3   OH2 2522   3.433   5.368   4.156
  839TIP3    H1 2523   3.456   5.276   4.144
  839TIP3    H2 2524   3.340   5.373   4.135
  840TIP3   OH2 2525   3.008   4.205   1.832
  840TIP3    H1 2526   2.957   4.160   1.899
  840TIP3    H2 2527   3.092   4.224   1.873
  841TIP3   OH2 2528   5.606   1.293   1.653
  841TIP3    H1 2529   5.697   1.286   1.625
  841TIP3    H2 2530   5.607   1.263   1.744
  842TIP3   OH2 2531   4.338   5.540   1.439
  842TIP3    H1 2532   4.334   5.448   1.464
  842TIP3    H2 2533   4.368   5.586   1.518
  843TIP3   OH2 2534   5.258   4.571   0.114
  843TIP3    H1 2535   5.223   4.656   0.142
  843TIP3    H2 2536   5.323   4.549   0.180
  844TIP3   OH2 2537   4.401   0.643   0.138
  844TIP3    H1 2538   4.458   0.567   0.134
  844TIP3    H2 2539   4.313   0.607   0.128
  845TIP3   OH2 2540   5.832   2.486   3.318
  845TIP3    H1 2541   5.858   2.452   3.403
  845TIP3    H2 2542   5.845   2.580   3.324
  846TIP3   OH2 2543   5.319   2.004   5.027
  846TIP3    H1 2544   5.377   2.078   5.043
  846TIP3    H2 2545   5.369   1.945   4.970
  847TIP3   OH2 2546   5.634   1.562   2.128
  847TIP3    H1 2547   5.598   1.601   2.048
  847TIP3    H2 2548   5.586   1.605   2.199
  848TIP3   OH2 2549   3.758   2.847   0.901
  848TIP3    H1 2550   3.725   2.774   0.848
  848TIP3    H2 2551   3.835   2.878   0.853
  849TIP3   OH2 2552   4.705   4.658   3.211
  849TIP3    H1 2553   4.611   4.673   3.224
  849TIP3    H2 2554   4.722   4.690   3.122
  850TIP3   OH2 2555   4.544   3.743   0.070
  850TIP3    H1 2556   4.607   3.731   0.141
  850TIP3    H2 2557   4.463   3.706   0.104
  851TIP3   OH2 2558   5.024   0.443   0.737
  851TIP3    H1 2559   5.073   0.521   0.763
  851TIP3    H2 2560   4.998   0.402   0.820
  852TIP3   OH2 2561   4.175   0.159   1.704
  852TIP3    H1 2562   4.211   0.070   1.706
  852TIP3    H2 2563   4.094   0.153   1.755
  853TIP3   OH2 2564   3.095   1.080   0.938
  853TIP3    H1 2565   3.164   1.013   0.932
  853TIP3    H2 2566   3.134   1.157   0.896
  854TIP3   OH2 2567   4.726   3.553   1.189
  854TIP3    H1 2568   4.679   3.487   1.240
  854TIP3    H2 2569   4.685   3.550   1.102
  855TIP3   OH2 2570   0.557   4.088   3.286
  855TIP3    H1 2571   0.493   4.100   3.215
  855TIP3    H2 2572   0.637   4.129   3.254
  856TIP3   OH2 2573   2.720   0.168   2.663
  856TIP3    H1 2574   2.666   0.184   2.585
  856TIP3    H2 2575   2.660   0.184   2.736
  857TIP3   OH2 2576   5.544   0.311   2.470
  857TIP3    H1 2577   5.474   0.375   2.458
  857TIP3    H2 2578   5.537   0.253   2.394
  858TIP3   OH2 2579   4.626   1.281   2.187
  858TIP3    H1 2580   4.620   1.308   2.096
  858TIP3    H2 2581   4.646   1.187   2.183
  859TIP3   OH2 2582   1.720   0.320   1.500
  859TIP3    H1 2583   1.748   0.245   1.447
  859TIP3    H2 2584   1.637   0.347   1.462
  860TIP3   OH2 2585   6.203   2.460   2.975
  860TIP3    H1 2586   6.245   2.540   2.943
  860TIP3    H2 2587   6.188   2.476   3.068
  861TIP3   OH2 2588   1.092   3.306   2.581
  861TIP3    H1 2589   1.084   3.355   2.500
  861TIP3    H2 2590   1.059   3.365   2.649
  862TIP3   OH2 2591   3.592   2.672   1.204
  862TIP3    H1 2592   3.509   2.628   1.219
  862TIP3    H2 2593   3.570   2.764   1.192
  863TIP3   OH2 2594   3.958   5.751   1.104
  863TIP3    H1 2595   3.893   5.804   1.059
  863TIP3    H2 2596   3.966   5.791   1.191
  864TIP3   OH2 2597   1.396   3.820  -0.004
  864TIP3    H1 2598   1.404   3.910  -0.036
  864TIP3    H2 2599   1.351   3.828   0.080
  865TIP3   OH2 2600   5.271   0.592   0.308
  865TIP3    H1 2601   5.333   0.642   0.256
  865TIP3    H2 2602   5.281   0.626   0.397
  866TIP3   OH2 2603   5.341   2.369   1.626
  866TIP3    H1 2604   5.422   2.369   1.576
  866TIP3    H2 2605   5.318   2.462   1.635
  867TIP3   OH2 2606   5.996   3.875   0.816
  867TIP3    H1 2607   5.904   3.871   0.789
  867TIP3    H2 2608   5.994   3.852   0.909
  868TIP3   OH2 2609   1.733   3.182   3.374
  868TIP3    H1 2610   1.778   3.099   3.390
  868TIP3    H2 2611   1.649   3.157   3.335
  869TIP3   OH2 2612   3.283   2.615   4.574
  869TIP3    H1 2613   3.298   2.698   4.620
  869TIP3    H2 2614   3.242   2.558   4.640
  870TIP3   OH2 2615   0.604   5.882   5.079
  870TIP3    H1 2616   0.572   5.907   5.166
  870TIP3    H2 2617   0.538   5.913   5.018
  871TIP3   OH2 2618   6.188   2.012   1.692
  871TIP3    H1 2619   6.147   1.970   1.616
  871TIP3    H2 2620   6.125   1.998   1.763
  872TIP3   OH2 2621   2.149   3.811   2.869
  872TIP3    H1 2622   2.125   3.862   2.792
  872TIP3    H2 2623   2.097   3.848   2.940
  873TIP3   OH2 2624   2.247   0.599   4.070
  873TIP3    H1 2625   2.169   0.631   4.024
  873TIP3    H2 2626   2.249   0.648   4.152
  874TIP3   OH2 2627   3.454   5.294   2.333
  874TIP3    H1 2628   3.376   5.347   2.313
  874TIP3    H2 2629   3.484   5.263   2.248
  875TIP3   OH2 2630   3.075   0.176   2.298
  875TIP3    H1 2631   3.010   0.236   2.263
  875TIP3    H2 2632   3.031   0.130   2.369
  876TIP3   OH2 2633   1.817   4.142   1.263
  876TIP3    H1 2634   1.731   4.153   1.222
  876TIP3    H2 2635   1.853   4.230   1.269
  877TIP3   OH2 2636   5.710   2.054   0.127
  877TIP3    H1 2637   5.650   1.986   0.096
  877TIP3    H2 2638   5.780   2.055   0.061
  878TIP3   OH2 2639   4.838   5.015   0.734
  878TIP3    H1 2640   4.808   4.967   0.657
  878TIP3    H2 2641   4.812   4.961   0.808
  879TIP3   OH2 2642   0.095   3.158   4.379
  879TIP3    H1 2643   0.109   3.234   4.322
  879TIP3    H2 2644   0.120   3.083   4.325
  880TIP3   OH2 2645   2.973   0.723   4.319
  880TIP3    H1 2646   2.911   0.795   4.333
  880TIP3    H2 2647   2.924   0.658   4.269
  881TIP3   OH2 2648   5.631   2.538   0.689
  881TIP3    H1 2649   5.574   2.603   0.650
  881TIP3    H2 2650   5.655   2.575   0.774
  882TIP3   OH2 2651   4.210   5.858   4.617
  882TIP3    H1 2652   4.127   5.904   4.632
  882TIP3    H2 2653   4.215   5.849   4.522
  883TIP3   OH2 2654   1.426   2.638   3.735
  883TIP3    H1 2655   1.513   2.663   3.703
  883TIP3    H2 2656   1.432   2.644   3.830
  884TIP3   OH2 2657   4.117   2.896   4.968
  884TIP3    H1 2658   4.120   2.812   5.014
  884TIP3    H2 2659   4.209   2.919   4.953
  885TIP3   OH2 2660   1.401   0.778   4.229
  885TIP3    H1 2661   1.355   0.829   4.295
  885TIP3    H2 2662   1.387   0.687   4.256
  886TIP3   OH2 2663   1.440   0.023   0.083
  886TIP3    H1 2664   1.534   0.010   0.074
  886TIP3    H2 2665   1.410   0.045  -0.005
  887TIP3   OH2 2666   2.835   3.441   1.763
  887TIP3    H1 2667   2.750   3.432   1.806
  887TIP3    H2 2668   2.854   3.535   1.769
  888TIP3   OH2 2669   0.538   3.368   3.138
  888TIP3    H1 2670   0.614   3.319   3.107
  888TIP3    H2 2671   0.492   3.393   3.058
  889TIP3   OH2 2672   2.144   5.155   4.780
  889TIP3    H1 2673   2.080   5.109   4.725
  889TIP3    H2 2674   2.119   5.134   4.870
  890TIP3   OH2 2675   3.137   3.323   0.387
  890TIP3    H1 2676   3.196   3.386   0.428
  890TIP3    H2 2677   3.187   3.288   0.313
  891TIP3   OH2 2678   2.609   4.606   4.166
  891TIP3    H1 2679   2.633   4.681   4.221
  891TIP3    H2 2680   2.542   4.560   4.217
  892TIP3   OH2 2681   0.262   0.502   4.413
  892TIP3    H1 2682   0.194   0.446   4.450
  892TIP3    H2 2683   0.261   0.580   4.469
  893TIP3   OH2 2684   3.402   1.953   0.832
  893TIP3    H1 2685   3.437   1.988   0.914
  893TIP3    H2 2686   3.351   2.025   0.795
  894TIP3   OH2 2687   1.605   5.286   3.039
  894TIP3    H1 2688   1.622   5.380   3.032
  894TIP3    H2 2689   1.510   5.279   3.035
  895TIP3   OH2 2690   4.976   4.641   0.967
  895TIP3    H1 2691   4.894   4.625   0.920
  895TIP3    H2 2692   4.948   4.677   1.051
  896TIP3   OH2 2693   5.178   3.142   0.509
  896TIP3    H1 2694   5.112   3.117   0.573
  896TIP3    H2 2695   5.235   3.203   0.555
  897TIP3   OH2 2696   2.382   3.331   0.781
  897TIP3    H1 2697   2.296   3.367   0.805
  897TIP3    H2 2698   2.404   3.373   0.698
  898TIP3   OH2 2699   4.224   3.311   4.666
  898TIP3    H1 2700   4.190   3.251   4.732
  898TIP3    H2 2701   4.161   3.307   4.594
  899TIP3   OH2 2702   0.681   5.127   1.710
  899TIP3    H1 2703   0.637   5.198   1.663
  899TIP3    H2 2704   0.773   5.153   1.711
  900TIP3   OH2 2705   3.462   5.593   1.216
  900TIP3    H1 2706   3.396   5.662   1.219
  900TIP3    H2 2707   3.544   5.636   1.236
  901TIP3   OH2 2708   5.669   4.788   4.038
  901TIP3    H1 2709   5.747   4.733   4.039
  901TIP3    H2 2710   5.659   4.817   4.129
  902TIP3   OH2 2711   5.041   0.973   1.879
  902TIP3    H1 2712   5.049   0.943   1.970
  902TIP3    H2 2713   4.947   0.989   1.868
  903TIP3   OH2 2714   3.994   0.844   0.562
  903TIP3    H1 2715   4.024   0.930   0.589
  903TIP3    H2 2716   4.050   0.822   0.487
  904TIP3   OH2 2717   2.319   1.076   0.961
  904TIP3    H1 2718   2.350   1.059   0.872
  904TIP3    H2 2719   2.347   1.166   0.980
  905TIP3   OH2 2720   0.827   4.705   4.713
  905TIP3    H1 2721   0.904   4.670   4.668
  905TIP3    H2 2722   0.758   4.641   4.696
  906TIP3   OH2 2723   1.488   1.467   3.493
  906TIP3    H1 2724   1.409   1.499   3.537
  906TIP3    H2 2725   1.460   1.450   3.403
  907TIP3   OH2 2726   4.036   2.674   1.436
  907TIP3    H1 2727   4.025   2.581   1.457
  907TIP3    H2 2728   3.979   2.689   1.361
  908TIP3   OH2 2729   0.169   0.972   4.335
  908TIP3    H1 2730   0.211   0.911   4.274
  908TIP3    H2 2731   0.116   0.917   4.392
  909TIP3   OH2 2732   4.059   1.290   2.207
  909TIP3    H1 2733   3.988   1.348   2.179
  909TIP3    H2 2734   4.131   1.348   2.228
  910TIP3   OH2 2735   3.901   0.850   4.439
  910TIP3    H1 2736   3.905   0.940   4.408
  910TIP3    H2 2737   3.865   0.800   4.366
  911TIP3   OH2 2738   1.716   3.712   3.947
  911TIP3    H1 2739   1.664   3.763   3.885
  911TIP3    H2 2740   1.654   3.650   3.985
  912TIP3   OH2 2741   5.807   5.457   2.843
  912TIP3    H1 2742   5.812   5.545   2.806
  912TIP3    H2 2743   5.827   5.399   2.770
  913TIP3   OH2 2744   0.833   3.703   5.099
  913TIP3    H1 2745   0.770   3.722   5.168
  913TIP3    H2 2746   0.827   3.608   5.087
  914TIP3   OH2 2747   4.222   0.123   0.637
  914TIP3    H1 2748   4.253   0.101   0.725
  914TIP3    H2 2749   4.274   0.199   0.611
  915TIP3   OH2 2750   4.145   2.060   4.448
  915TIP3    H1 2751   4.224   2.109   4.469
  915TIP3    H2 2752   4.073   2.120   4.469
  916TIP3   OH2 2753   1.672   2.701   4.981
  916TIP3    H1 2754   1.620   2.781   4.987
  916TIP3    H2 2755   1.741   2.722   4.917
  917TIP3   OH2 2756   4.029   3.140   3.064
  917TIP3    H1 2757   4.036   3.233   3.086
  917TIP3    H2 2758   4.095   3.127   2.995
  918TIP3   OH2 2759   0.550   2.797   1.117
  918TIP3    H1 2760   0.458   2.818   1.102
  918TIP3    H2 2761   0.597   2.876   1.089
  919TIP3   OH2 2762   0.398   0.194   0.716
  919TIP3    H1 2763   0.443   0.140   0.782
  919TIP3    H2 2764   0.461   0.200   0.644
  920TIP3   OH2 2765   4.508   2.838   3.458
  920TIP3    H1 2766   4.419   2.804   3.443
  920TIP3    H2 2767   4.504   2.928   3.427
  921TIP3   OH2 2768   0.501   0.665   3.766
  921TIP3    H1 2769   0.453   0.748   3.768
  921TIP3    H2 2770   0.439   0.603   3.728
  922TIP3   OH2 2771   2.011   2.877   0.082
  922TIP3    H1 2772   1.943   2.944   0.092
  922TIP3    H2 2773   2.090   2.926   0.059
  923TIP3   OH2 2774   2.919   5.666   4.561
  923TIP3    H1 2775   2.880   5.694   4.478
  923TIP3    H2 2776   2.938   5.748   4.607
  924TIP3   OH2 2777   0.725   2.663   4.579
  924TIP3    H1 2778   0.651   2.639   4.523
  924TIP3    H2 2779   0.792   2.695   4.519
  925TIP3   OH2 2780   0.487   1.919   2.969
  925TIP3    H1 2781   0.569   1.913   2.921
  925TIP3    H2 2782   0.431   1.976   2.916
  926TIP3   OH2 2783   2.139   1.783   0.217
  926TIP3    H1 2784   2.219   1.734   0.238
  926TIP3    H2 2785   2.091   1.725   0.158
  927TIP3   OH2 2786   1.051   0.314   1.331
  927TIP3    H1 2787   1.053   0.381   1.400
  927TIP3    H2 2788   1.035   0.232   1.377
  928TIP3   OH2 2789   4.705   5.380   4.464
  928TIP3    H1 2790   4.761   5.304   4.444
  928TIP3    H2 2791   4.737   5.412   4.548
  929TIP3   OH2 2792   3.374   0.674   0.947
  929TIP3    H1 2793   3.411   0.679   0.858
  929TIP3    H2 2794   3.412   0.595   0.985
  930TIP3   OH2 2795   3.645   2.307   5.055
  930TIP3    H1 2796   3.627   2.317   4.962
  930TIP3    H2 2797   3.560   2.316   5.098
  931TIP3   OH2 2798   4.172   4.531   3.573
  931TIP3    H1 2799   4.151   4.475   3.647
  931TIP3    H2 2800   4.261   4.561   3.589
  932TIP3   OH2 2801   0.345   0.976   3.995
  932TIP3    H1 2802   0.339   0.966   3.900
  932TIP3    H2 2803   0.268   0.930   4.029
  933TIP3   OH2 2804   3.236   4.557   0.425
  933TIP3    H1 2805   3.220   4.542   0.332
  933TIP3    H2 2806   3.322   4.520   0.442
  934TIP3   OH2 2807   2.853   1.550   1.890
  934TIP3    H1 2808   2.807   1.625   1.928
  934TIP3    H2 2809   2.942   1.581   1.874
  935TIP3   OH2 2810   4.442   3.353   1.808
  935TIP3    H1 2811   4.423   3.382   1.897
  935TIP3    H2 2812   4.533   3.377   1.794
  936TIP3   OH2 2813   3.428   4.783   1.633
  936TIP3    H1 2814   3.502   4.731   1.665
  936TIP3    H2 2815   3.417   4.755   1.542
  937TIP3   OH2 2816   0.317   2.993   1.887
  937TIP3    H1 2817   0.379   3.049   1.841
  937TIP3    H2 2818   0.237   2.997   1.835
  938TIP3   OH2 2819   2.779   5.009   2.169
  938TIP3    H1 2820   2.835   4.936   2.196
  938TIP3    H2 2821   2.788   5.073   2.239
  939TIP3   OH2 2822   1.245   0.841   2.717
  939TIP3    H1 2823   1.167   0.834   2.773
  939TIP3    H2 2824   1.308   0.781   2.757
  940TIP3   OH2 2825   5.221   2.397   3.086
  940TIP3    H1 2826   5.145   2.412   3.142
  940TIP3    H2 2827   5.259   2.316   3.119
  941TIP3   OH2 2828   4.626   5.236   1.427
  941TIP3    H1 2829   4.711   5.264   1.461
  941TIP3    H2 2830   4.625   5.142   1.441
  942TIP3   OH2 2831   2.949   2.228   4.422
  942TIP3    H1 2832   2.885   2.181   4.369
  942TIP3    H2 2833   2.945   2.185   4.508
  943TIP3   OH2 2834   3.766   1.899   3.981
  943TIP3    H1 2835   3.696   1.938   4.032
  943TIP3    H2 2836   3.830   1.969   3.970
  944TIP3   OH2 2837   4.798   0.396   4.267
  944TIP3    H1 2838   4.805   0.489   4.243
  944TIP3    H2 2839   4.874   0.380   4.322
  945TIP3   OH2 2840   4.297   2.407   5.095
  945TIP3    H1 2841   4.391   2.410   5.074
  945TIP3    H2 2842   4.295   2.399   5.191
  946TIP3   OH2 2843   4.476   4.126   1.017
  946TIP3    H1 2844   4.501   4.156   1.104
  946TIP3    H2 2845   4.416   4.194   0.985
  947TIP3   OH2 2846   3.428   0.215   3.616
  947TIP3    H1 2847   3.519   0.229   3.590
  947TIP3    H2 2848   3.429   0.220   3.711
  948TIP3   OH2 2849   4.112   1.214   1.284
  948TIP3    H1 2850   4.193   1.222   1.334
  948TIP3    H2 2851   4.055   1.283   1.318
  949TIP3   OH2 2852   4.003   3.144   0.387
  949TIP3    H1 2853   4.073   3.170   0.328
  949TIP3    H2 2854   3.966   3.064   0.348
  950TIP3   OH2 2855   0.353   4.917   2.875
  950TIP3    H1 2856   0.350   4.878   2.963
  950TIP3    H2 2857   0.301   4.997   2.883
  951TIP3   OH2 2858   5.145   3.955   0.432
  951TIP3    H1 2859   5.198   3.911   0.365
  951TIP3    H2 2860   5.188   3.934   0.515
  952TIP3   OH2 2861   5.864   3.508   4.105
  952TIP3    H1 2862   5.792   3.528   4.045
  952TIP3    H2 2863   5.927   3.460   4.052
  953TIP3   OH2 2864   4.196   3.595   1.862
  953TIP3    H1 2865   4.283   3.610   1.897
  953TIP3    H2 2866   4.138   3.648   1.918
  954TIP3   OH2 2867   2.617   2.469   3.896
  954TIP3    H1 2868   2.618   2.536   3.827
  954TIP3    H2 2869   2.618   2.386   3.849
  955TIP3   OH2 2870   1.617   2.127   0.317
  955TIP3    H1 2871   1.613   2.101   0.225
  955TIP3    H2 2872   1.710   2.126   0.339
  956TIP3   OH2 2873   3.984   4.485   4.494
  956TIP3    H1 2874   3.973   4.568   4.539
  956TIP3    H2 2875   3.895   4.452   4.482
  957TIP3   OH2 2876   5.807   3.193   0.236
  957TIP3    H1 2877   5.889   3.240   0.222
  957TIP3    H2 2878   5.780   3.217   0.324
  958TIP3   OH2 2879   1.481   1.672   0.446
  958TIP3    H1 2880   1.436   1.599   0.403
  958TIP3    H2 2881   1.449   1.670   0.536
  959TIP3   OH2 2882   6.146   5.266   0.690
  959TIP3    H1 2883   6.138   5.216   0.772
  959TIP3    H2 2884   6.055   5.289   0.668
  960TIP3   OH2 2885   5.523   2.234   2.466
  960TIP3    H1 2886   5.536   2.326   2.445
  960TIP3    H2 2887   5.504   2.193   2.382
  961TIP3   OH2 2888   3.384   0.173   3.879
  961TIP3    H1 2889   3.466   0.172   3.929
  961TIP3    H2 2890   3.316   0.164   3.945
  962TIP3   OH2 2891   2.531   0.846   0.922
  962TIP3    H1 2892   2.456   0.826   0.865
  962TIP3    H2 2893   2.543   0.766   0.974
  963TIP3   OH2 2894   4.478   5.641   4.692
  963TIP3    H1 2895   4.438   5.727   4.704
  963TIP3    H2 2896   4.569   5.654   4.720
  964TIP3   OH2 2897   2.258   0.058   0.812
  964TIP3    H1 2898   2.243   0.141   0.857
  964TIP3    H2 2899   2.196  -0.003   0.852
  965TIP3   OH2 2900   5.197   5.699   1.244
  965TIP3    H1 2901   5.125   5.676   1.302
  965TIP3    H2 2902   5.161   5.690   1.156
  966TIP3   OH2 2903   2.113   1.119   1.153
  966TIP3    H1 2904   2.163   1.158   1.225
  966TIP3    H2 2905   2.171   1.126   1.077
  967TIP3   OH2 2906   2.149   3.915   4.708
  967TIP3    H1 2907   2.135   3.824   4.682
  967TIP3    H2 2908   2.098   3.925   4.789
  968TIP3   OH2 2909   5.763   1.840   3.357
  968TIP3    H1 2910   5.739   1.799   3.274
  968TIP3    H2 2911   5.790   1.928   3.333
  969TIP3   OH2 2912   5.502   1.635   3.959
  969TIP3    H1 2913   5.516   1.608   4.050
  969TIP3    H2 2914   5.516   1.556   3.908
  970TIP3   OH2 2915   0.952   3.917   4.198
  970TIP3    H1 2916   0.911   3.924   4.284
  970TIP3    H2 2917   0.882   3.934   4.135
  971TIP3   OH2 2918   5.723   5.663   3.969
  971TIP3    H1 2919   5.775   5.740   3.989
  971TIP3    H2 2920   5.671   5.688   3.892
  972TIP3   OH2 2921   2.071   4.765   0.196
  972TIP3    H1 2922   1.975   4.765   0.201
  972TIP3    H2 2923   2.090   4.780   0.104
  973TIP3   OH2 2924   6.181   3.137   1.174
  973TIP3    H1 2925   6.202   3.045   1.155
  973TIP3    H2 2926   6.168   3.140   1.268
  974TIP3   OH2 2927   0.420   4.749   2.393
  974TIP3    H1 2928   0.370   4.826   2.366
  974TIP3    H2 2929   0.512   4.778   2.391
  975TIP3   OH2 2930   0.160   4.739   3.983
  975TIP3    H1 2931   0.165   4.708   4.073
  975TIP3    H2 2932   0.250   4.766   3.962
  976TIP3   OH2 2933   3.613   2.056   1.499
  976TIP3    H1 2934   3.575   1.971   1.474
  976TIP3    H2 2935   3.550   2.120   1.467
  977TIP3   OH2 2936   2.919   0.467   4.688
  977TIP3    H1 2937   2.837   0.478   4.736
  977TIP3    H2 2938   2.949   0.379   4.713
  978TIP3   OH2 2939   5.150   5.416   2.298
  978TIP3    H1 2940   5.076   5.419   2.359
  978TIP3    H2 2941   5.114   5.452   2.217
  979TIP3   OH2 2942   0.262   1.249   4.022
  979TIP3    H1 2943   0.197   1.192   4.062
  979TIP3    H2 2944   0.333   1.189   3.995
  980TIP3   OH2 2945   2.101   2.577   3.065
  980TIP3    H1 2946   2.087   2.650   3.004
  980TIP3    H2 2947   2.030   2.587   3.129
  981TIP3   OH2 2948   3.259   2.992   1.082
  981TIP3    H1 2949   3.279   2.999   0.988
  981TIP3    H2 2950   3.338   2.953   1.120
  982TIP3   OH2 2951   1.085   5.928   1.319
  982TIP3    H1 2952   1.088   5.886   1.405
  982TIP3    H2 2953   1.116   6.017   1.336
  983TIP3   OH2 2954   1.729   1.515   4.133
  983TIP3    H1 2955   1.712   1.421   4.139
  983TIP3    H2 2956   1.689   1.552   4.212
  984TIP3   OH2 2957   0.624   1.773   2.629
  984TIP3    H1 2958   0.652   1.848   2.681
  984TIP3    H2 2959   0.653   1.794   2.540
  985TIP3   OH2 2960   0.127   2.332   1.200
  985TIP3    H1 2961   0.048   2.360   1.248
  985TIP3    H2 2962   0.196   2.331   1.267
  986TIP3   OH2 2963   1.592   3.616   4.808
  986TIP3    H1 2964   1.528   3.685   4.825
  986TIP3    H2 2965   1.540   3.539   4.788
  987TIP3   OH2 2966   3.572   0.547   3.380
  987TIP3    H1 2967   3.560   0.568   3.287
  987TIP3    H2 2968   3.575   0.452   3.383
  988TIP3   OH2 2969   0.431   3.897   3.998
  988TIP3    H1 2970   0.496   3.916   4.066
  988TIP3    H2 2971   0.397   3.983   3.974
  989TIP3   OH2 2972   5.144   4.949   4.672
  989TIP3    H1 2973   5.235   4.921   4.662
  989TIP3    H2 2974   5.097   4.900   4.604
  990TIP3   OH2 2975   4.908   0.650   1.498
  990TIP3    H1 2976   4.965   0.668   1.424
  990TIP3    H2 2977   4.864   0.568   1.477
  991TIP3   OH2 2978   4.220   5.678   3.890
  991TIP3    H1 2979   4.266   5.598   3.865
  991TIP3    H2 2980   4.257   5.745   3.833
  992TIP3   OH2 2981   3.695   0.733   1.622
  992TIP3    H1 2982   3.727   0.654   1.578
  992TIP3    H2 2983   3.773   0.769   1.664
  993TIP3   OH2 2984   0.039   4.974   2.421
  993TIP3    H1 2985  -0.041   4.996   2.375
  993TIP3    H2 2986   0.055   4.882   2.399
  994TIP3   OH2 2987   2.708   0.217   0.403
  994TIP3    H1 2988   2.708   0.176   0.316
  994TIP3    H2 2989   2.693   0.310   0.386
  995TIP3   OH2 2990   0.316   5.858   1.508
  995TIP3    H1 2991   0.400   5.813   1.508
  995TIP3    H2 2992   0.324   5.924   1.439
  996TIP3   OH2 2993   1.261   2.391   0.057
  996TIP3    H1 2994   1.259   2.315  -0.002
  996TIP3    H2 2995   1.305   2.359   0.136
  997TIP3   OH2 2996   0.350   5.829   0.789
  997TIP3    H1 2997   0.272   5.881   0.807
  997TIP3    H2 2998   0.409   5.890   0.744
  998TIP3   OH2 2999   5.690   2.704   0.900
  998TIP3    H1 3000   5.725   2.701   0.989
  998TIP3    H2 3001   5.705   2.794   0.872
  999TIP3   OH2 3002   2.171   0.237   5.044
  999TIP3    H1 3003   2.175   0.271   4.955
  999TIP3    H2 3004   2.078   0.223   5.060
 1000TIP3   OH2 3005   0.648   3.145   2.447
 1000TIP3    H1 3006   0.603   3.089   2.384
 1000TIP3    H2 3007   0.697   3.085   2.503
 1001TIP3   OH2 3008   3.150   4.245   2.556
 1001TIP3    H1 3009   3.058   4.250   2.583
 1001TIP3    H2 3010   3.147   4.258   2.461
 1002TIP3   OH2 3011   3.175   5.565   4.197
 1002TIP3    H1 3012   3.128   5.541   4.277
 1002TIP3    H2 3013   3.133   5.514   4.128
 1003TIP3   OH2 3014   0.129   4.704   2.345
 1003TIP3    H1 3015   0.087   4.623   2.314
 1003TIP3    H2 3016   0.218   4.676   2.368
 1004TIP3   OH2 3017   1.085   5.068   0.747
 1004TIP3    H1 3018   1.043   5.096   0.829
 1004TIP3    H2 3019   1.033   5.108   0.678
 1005TIP3   OH2 3020   2.761   3.960   2.215
 1005TIP3    H1 3021   2.711   3.889   2.175
 1005TIP3    H2 3022   2.706   3.991   2.287
 1006TIP3   OH2 3023   3.339   2.199   1.734
 1006TIP3    H1 3024   3.288   2.204   1.653
 1006TIP3    H2 3025   3.308   2.119   1.777
 1007TIP3   OH2 3026   3.258   2.219   3.640
 1007TIP3    H1 3027   3.316   2.204   3.565
 1007TIP3    H2 3028   3.271   2.311   3.663
 1008TIP3   OH2 3029   2.071   3.970   1.790
 1008TIP3    H1 3030   1.992   3.916   1.786
 1008TIP3    H2 3031   2.097   3.982   1.699
 1009TIP3   OH2 3032   0.284   0.411   0.865
 1009TIP3    H1 3033   0.329   0.337   0.825
 1009TIP3    H2 3034   0.330   0.424   0.948
 1010TIP3   OH2 3035   3.937   0.495   1.672
 1010TIP3    H1 3036   3.887   0.509   1.752
 1010TIP3    H2 3037   4.027   0.487   1.701
 1011TIP3   OH2 3038   1.347   2.185   0.772
 1011TIP3    H1 3039   1.418   2.141   0.726
 1011TIP3    H2 3040   1.277   2.120   0.776
 1012TIP3   OH2 3041   1.727   3.611   3.202
 1012TIP3    H1 3042   1.775   3.529   3.191
 1012TIP3    H2 3043   1.644   3.585   3.244
 1013TIP3   OH2 3044   3.688   2.055   4.516
 1013TIP3    H1 3045   3.739   2.112   4.574
 1013TIP3    H2 3046   3.730   2.065   4.430
 1014TIP3   OH2 3047   4.324   3.403   4.104
 1014TIP3    H1 3048   4.370   3.484   4.085
 1014TIP3    H2 3049   4.232   3.422   4.085
 1015TIP3   OH2 3050   0.874   0.035   3.640
 1015TIP3    H1 3051   0.793  -0.010   3.664
 1015TIP3    H2 3052   0.886   0.015   3.547
 1016TIP3   OH2 3053   5.311   5.121   0.208
 1016TIP3    H1 3054   5.280   5.036   0.177
 1016TIP3    H2 3055   5.387   5.100   0.263
 1017TIP3   OH2 3056   6.320   1.252   1.465
 1017TIP3    H1 3057   6.246   1.224   1.412
 1017TIP3    H2 3058   6.363   1.171   1.492
 1018TIP3   OH2 3059   6.091   3.774   1.986
 1018TIP3    H1 3060   6.010   3.824   1.976
 1018TIP3    H2 3061   6.119   3.755   1.896
 1019TIP3   OH2 3062   1.546   0.697   1.596
 1019TIP3    H1 3063   1.479   0.664   1.537
 1019TIP3    H2 3064   1.503   0.768   1.644
 1020TIP3   OH2 3065   0.990   5.904   3.620
 1020TIP3    H1 3066   1.084   5.908   3.603
 1020TIP3    H2 3067   0.950   5.950   3.547
 1021TIP3   OH2 3068   5.065   2.640   0.676
 1021TIP3    H1 3069   4.991   2.701   0.676
 1021TIP3    H2 3070   5.067   2.606   0.766
 1022TIP3   OH2 3071   0.697   0.071   2.115
 1022TIP3    H1 3072   0.703  -0.023   2.131
 1022TIP3    H2 3073   0.655   0.107   2.194
 1023TIP3   OH2 3074   1.560   2.008   3.434
 1023TIP3    H1 3075   1.529   2.098   3.438
 1023TIP3    H2 3076   1.488   1.960   3.393
 1024TIP3   OH2 3077   1.289   2.207   4.914
 1024TIP3    H1 3078   1.225   2.202   4.844
 1024TIP3    H2 3079   1.238   2.194   4.994
 1025TIP3   OH2 3080   1.821   0.181   4.071
 1025TIP3    H1 3081   1.799   0.088   4.082
 1025TIP3    H2 3082   1.819   0.195   3.976
 1026TIP3   OH2 3083   3.673   3.184   4.520
 1026TIP3    H1 3084   3.689   3.198   4.613
 1026TIP3    H2 3085   3.636   3.097   4.514
 1027TIP3   OH2 3086   3.878   2.746   3.108
 1027TIP3    H1 3087   3.818   2.705   3.170
 1027TIP3    H2 3088   3.824   2.808   3.060
 1028TIP3   OH2 3089   2.408   0.592   4.776
 1028TIP3    H1 3090   2.365   0.570   4.694
 1028TIP3    H2 3091   2.372   0.529   4.839
 1029TIP3   OH2 3092   0.481   5.157   1.902
 1029TIP3    H1 3093   0.473   5.076   1.953
 1029TIP3    H2 3094   0.551   5.139   1.839
 1030TIP3   OH2 3095   4.061   2.200   3.681
 1030TIP3    H1 3096   4.110   2.121   3.701
 1030TIP3    H2 3097   3.993   2.172   3.619
 1031TIP3   OH2 3098   4.605   2.863   0.685
 1031TIP3    H1 3099   4.685   2.846   0.636
 1031TIP3    H2 3100   4.558   2.779   0.685
 1032TIP3   OH2 3101   4.487   1.670   0.254
 1032TIP3    H1 3102   4.466   1.620   0.175
 1032TIP3    H2 3103   4.422   1.642   0.318
 1033TIP3   OH2 3104   3.507   3.862   0.578
 1033TIP3    H1 3105   3.468   3.927   0.520
 1033TIP3    H2 3106   3.504   3.781   0.529
 1034TIP3   OH2 3107   1.031   1.344   0.090
 1034TIP3    H1 3108   1.045   1.271   0.151
 1034TIP3    H2 3109   1.093   1.327   0.019
 1035TIP3   OH2 3110   2.867   5.927   3.503
 1035TIP3    H1 3111   2.930   5.977   3.554
 1035TIP3    H2 3112   2.806   5.992   3.470
 1036TIP3   OH2 3113   1.192   5.249   2.655
 1036TIP3    H1 3114   1.283   5.261   2.629
 1036TIP3    H2 3115   1.149   5.331   2.633
 1037TIP3   OH2 3116   3.727   0.822   2.762
 1037TIP3    H1 3117   3.819   0.800   2.748
 1037TIP3    H2 3118   3.725   0.859   2.850
 1038TIP3   OH2 3119   0.673   5.181   2.493
 1038TIP3    H1 3120   0.596   5.236   2.478
 1038TIP3    H2 3121   0.698   5.199   2.583
 1039TIP3   OH2 3122   3.369   3.609   3.381
 1039TIP3    H1 3123   3.438   3.553   3.348
 1039TIP3    H2 3124   3.413   3.669   3.441
 1040TIP3   OH2 3125   4.096   4.941   2.041
 1040TIP3    H1 3126   4.182   4.974   2.069
 1040TIP3    H2 3127   4.116   4.876   1.973
 1041TIP3   OH2 3128   2.974   2.455   0.391
 1041TIP3    H1 3129   3.066   2.477   0.406
 1041TIP3    H2 3130   2.935   2.453   0.479
 1042TIP3   OH2 3131   4.548   1.461   1.655
 1042TIP3    H1 3132   4.546   1.448   1.750
 1042TIP3    H2 3133   4.573   1.375   1.619
 1043TIP3   OH2 3134   2.766   4.028   1.460
 1043TIP3    H1 3135   2.778   3.942   1.420
 1043TIP3    H2 3136   2.760   4.011   1.554
 1044TIP3   OH2 3137   5.364   3.511   4.676
 1044TIP3    H1 3138   5.419   3.516   4.598
 1044TIP3    H2 3139   5.424   3.523   4.749
 1045TIP3   OH2 3140   1.529   4.772   0.017
 1045TIP3    H1 3141   1.518   4.851  -0.036
 1045TIP3    H2 3142   1.483   4.704  -0.032
 1046TIP3   OH2 3143   1.903   3.399   0.209
 1046TIP3    H1 3144   1.862   3.460   0.270
 1046TIP3    H2 3145   1.856   3.413   0.127
 1047TIP3   OH2 3146   3.021   1.236   3.057
 1047TIP3    H1 3147   2.931   1.214   3.080
 1047TIP3    H2 3148   3.023   1.331   3.052
 1048TIP3   OH2 3149   3.723   4.382   5.133
 1048TIP3    H1 3150   3.772   4.415   5.208
 1048TIP3    H2 3151   3.652   4.446   5.121
 1049TIP3   OH2 3152   4.552   4.502   5.046
 1049TIP3    H1 3153   4.591   4.532   5.128
 1049TIP3    H2 3154   4.614   4.438   5.012
 1050TIP3   OH2 3155   2.321   0.596   5.036
 1050TIP3    H1 3156   2.394   0.653   5.062
 1050TIP3    H2 3157   2.243   0.641   5.068
 1051TIP3   OH2 3158   4.366   1.643   1.565
 1051TIP3    H1 3159   4.450   1.606   1.539
 1051TIP3    H2 3160   4.323   1.573   1.615
 1052TIP3   OH2 3161   1.344   0.213   3.293
 1052TIP3    H1 3162   1.288   0.202   3.216
 1052TIP3    H2 3163   1.422   0.161   3.273
 1053TIP3   OH2 3164   4.874   3.935   4.739
 1053TIP3    H1 3165   4.835   4.008   4.789
 1053TIP3    H2 3166   4.966   3.933   4.767
 1054TIP3   OH2 3167   0.699   0.120   4.621
 1054TIP3    H1 3168   0.665   0.041   4.663
 1054TIP3    H2 3169   0.625   0.180   4.619
 1055TIP3   OH2 3170   0.137   1.011   1.477
 1055TIP3    H1 3171   0.095   0.941   1.428
 1055TIP3    H2 3172   0.230   0.990   1.477
 1056TIP3   OH2 3173   0.942   0.457   0.838
 1056TIP3    H1 3174   0.964   0.481   0.928
 1056TIP3    H2 3175   1.003   0.507   0.784
 1057TIP3   OH2 3176   1.610   3.595   3.556
 1057TIP3    H1 3177   1.669   3.669   3.538
 1057TIP3    H2 3178   1.562   3.582   3.474
 1058TIP3   OH2 3179   2.807   2.980   2.419
 1058TIP3    H1 3180   2.789   2.985   2.513
 1058TIP3    H2 3181   2.886   3.033   2.407
 1059TIP3   OH2 3182   3.752   2.318   2.149
 1059TIP3    H1 3183   3.769   2.306   2.056
 1059TIP3    H2 3184   3.767   2.232   2.188
 1060TIP3   OH2 3185   5.818   1.904   1.685
 1060TIP3    H1 3186   5.746   1.924   1.745
 1060TIP3    H2 3187   5.897   1.915   1.737
 1061TIP3   OH2 3188   5.349   2.661   4.129
 1061TIP3    H1 3189   5.412   2.733   4.135
 1061TIP3    H2 3190   5.265   2.699   4.155
 1062TIP3   OH2 3191   4.957   5.676   4.529
 1062TIP3    H1 3192   5.033   5.733   4.544
 1062TIP3    H2 3193   4.915   5.671   4.615
 1063TIP3   OH2 3194   3.733   1.204   2.362
 1063TIP3    H1 3195   3.772   1.240   2.442
 1063TIP3    H2 3196   3.693   1.121   2.389
 1064TIP3   OH2 3197   0.191   3.005   0.255
 1064TIP3    H1 3198   0.101   3.024   0.228
 1064TIP3    H2 3199   0.230   2.961   0.179
 1065TIP3   OH2 3200   3.580   3.818   2.894
 1065TIP3    H1 3201   3.658   3.850   2.848
 1065TIP3    H2 3202   3.604   3.821   2.986
 1066TIP3   OH2 3203   4.947   3.091   3.887
 1066TIP3    H1 3204   4.931   3.098   3.981
 1066TIP3    H2 3205   5.037   3.060   3.879
 1067TIP3   OH2 3206   4.174   0.780   1.843
 1067TIP3    H1 3207   4.189   0.745   1.755
 1067TIP3    H2 3208   4.224   0.862   1.845
 1068TIP3   OH2 3209   4.667   4.411   0.435
 1068TIP3    H1 3210   4.631   4.498   0.456
 1068TIP3    H2 3211   4.754   4.411   0.474
 1069TIP3   OH2 3212   2.621   4.401   0.828
 1069TIP3    H1 3213   2.668   4.460   0.886
 1069TIP3    H2 3214   2.679   4.325   0.819
 1070TIP3   OH2 3215   5.778   1.452   3.158
 1070TIP3    H1 3216   5.854   1.457   3.101
 1070TIP3    H2 3217   5.712   1.407   3.106
 1071TIP3   OH2 3218   5.325   5.501   3.766
 1071TIP3    H1 3219   5.368   5.584   3.784
 1071TIP3    H2 3220   5.250   5.499   3.826
 1072TIP3   OH2 3221   2.106   5.071   2.107
 1072TIP3    H1 3222   2.137   4.999   2.163
 1072TIP3    H2 3223   2.017   5.045   2.082
 1073TIP3   OH2 3224   0.134   5.413   3.301
 1073TIP3    H1 3225   0.101   5.485   3.353
 1073TIP3    H2 3226   0.228   5.412   3.318
 1074TIP3   OH2 3227   0.272   4.108   4.258
 1074TIP3    H1 3228   0.321   4.031   4.286
 1074TIP3    H2 3229   0.209   4.123   4.329
 1075TIP3   OH2 3230   2.652   1.296   2.889
 1075TIP3    H1 3231   2.649   1.288   2.985
 1075TIP3    H2 3232   2.560   1.306   2.863
 1076TIP3   OH2 3233   4.284   4.079   2.616
 1076TIP3    H1 3234   4.377   4.078   2.637
 1076TIP3    H2 3235   4.280   4.057   2.523
 1077TIP3   OH2 3236   3.089   4.764   0.076
 1077TIP3    H1 3237   3.117   4.805   0.158
 1077TIP3    H2 3238   3.112   4.828   0.009
 1078TIP3   OH2 3239   3.453   1.650   3.990
 1078TIP3    H1 3240   3.416   1.717   3.932
 1078TIP3    H2 3241   3.385   1.582   3.994
 1079TIP3   OH2 3242   2.832   5.311   2.088
 1079TIP3    H1 3243   2.926   5.293   2.095
 1079TIP3    H2 3244   2.813   5.298   1.995
 1080TIP3   OH2 3245   0.589   0.060   0.923
 1080TIP3    H1 3246   0.654   0.042   0.855
 1080TIP3    H2 3247   0.636   0.115   0.986
 1081TIP3   OH2 3248   5.612   3.127   1.177
 1081TIP3    H1 3249   5.519   3.134   1.157
 1081TIP3    H2 3250   5.619   3.158   1.268
 1082TIP3   OH2 3251   5.162   2.004   2.839
 1082TIP3    H1 3252   5.146   2.049   2.755
 1082TIP3    H2 3253   5.083   2.021   2.890
 1083TIP3   OH2 3254   4.796   0.229   4.793
 1083TIP3    H1 3255   4.754   0.276   4.721
 1083TIP3    H2 3256   4.826   0.297   4.853
 1084TIP3   OH2 3257   5.745   1.391   3.997
 1084TIP3    H1 3258   5.805   1.318   3.984
 1084TIP3    H2 3259   5.795   1.468   3.971
 1085TIP3   OH2 3260   4.417   0.241   3.020
 1085TIP3    H1 3261   4.477   0.234   2.946
 1085TIP3    H2 3262   4.471   0.270   3.093
 1086TIP3   OH2 3263   4.245   2.297   0.076
 1086TIP3    H1 3264   4.323   2.272   0.026
 1086TIP3    H2 3265   4.180   2.229   0.053
 1087TIP3   OH2 3266   4.788   3.310   3.819
 1087TIP3    H1 3267   4.862   3.250   3.829
 1087TIP3    H2 3268   4.725   3.281   3.885
 1088TIP3   OH2 3269   4.564   1.185   5.162
 1088TIP3    H1 3270   4.557   1.227   5.076
 1088TIP3    H2 3271   4.486   1.130   5.168
 1089TIP3   OH2 3272   4.948   0.066   3.043
 1089TIP3    H1 3273   4.998   0.148   3.047
 1089TIP3    H2 3274   4.890   0.070   3.119
 1090TIP3   OH2 3275   4.315   5.705   0.716
 1090TIP3    H1 3276   4.384   5.755   0.759
 1090TIP3    H2 3277   4.247   5.697   0.783
 1091TIP3   OH2 3278   5.120   2.244   3.950
 1091TIP3    H1 3279   5.103   2.311   4.015
 1091TIP3    H2 3280   5.121   2.291   3.866
 1092TIP3   OH2 3281   5.589   1.561   4.462
 1092TIP3    H1 3282   5.663   1.622   4.462
 1092TIP3    H2 3283   5.546   1.577   4.377
 1093TIP3   OH2 3284   4.227   1.890   3.312
 1093TIP3    H1 3285   4.302   1.834   3.332
 1093TIP3    H2 3286   4.257   1.979   3.333
 1094TIP3   OH2 3287   3.066   2.162   3.358
 1094TIP3    H1 3288   3.083   2.071   3.381
 1094TIP3    H2 3289   3.152   2.204   3.359
 1095TIP3   OH2 3290   2.054   1.201   3.273
 1095TIP3    H1 3291   2.093   1.115   3.261
 1095TIP3    H2 3292   2.068   1.246   3.190
 1096TIP3   OH2 3293   6.354   0.997   2.082
 1096TIP3    H1 3294   6.315   1.066   2.028
 1096TIP3    H2 3295   6.288   0.978   2.149
 1097TIP3   OH2 3296   1.101   0.404   4.914
 1097TIP3    H1 3297   1.061   0.326   4.876
 1097TIP3    H2 3298   1.031   0.469   4.916
 1098TIP3   OH2 3299   6.141   5.135   3.774
 1098TIP3    H1 3300   6.149   5.132   3.679
 1098TIP3    H2 3301   6.216   5.085   3.806
 1099TIP3   OH2 3302   4.958   5.187   5.139
 1099TIP3    H1 3303   5.023   5.211   5.206
 1099TIP3    H2 3304   4.967   5.255   5.072
 1100TIP3   OH2 3305   1.051   2.909   1.144
 1100TIP3    H1 3306   1.111   2.941   1.212
 1100TIP3    H2 3307   1.076   2.818   1.130
 1101TIP3   OH2 3308   4.090   4.004   3.220
 1101TIP3    H1 3309   4.022   4.072   3.222
 1101TIP3    H2 3310   4.173   4.052   3.224
 1102TIP3   OH2 3311   2.726   4.505   1.553
 1102TIP3    H1 3312   2.814   4.474   1.573
 1102TIP3    H2 3313   2.676   4.425   1.537
 1103TIP3   OH2 3314   2.113   4.258   0.747
 1103TIP3    H1 3315   2.121   4.266   0.842
 1103TIP3    H2 3316   2.171   4.186   0.724
 1104TIP3   OH2 3317   0.357   2.575   2.922
 1104TIP3    H1 3318   0.451   2.561   2.929
 1104TIP3    H2 3319   0.348   2.658   2.874
 1105TIP3   OH2 3320   2.585   2.817   0.034
 1105TIP3    H1 3321   2.624   2.816   0.121
 1105TIP3    H2 3322   2.588   2.908   0.007
 1106TIP3   OH2 3323   4.285   5.793   0.232
 1106TIP3    H1 3324   4.231   5.868   0.256
 1106TIP3    H2 3325   4.307   5.808   0.140
 1107TIP3   OH2 3326   4.774   5.531   1.700
 1107TIP3    H1 3327   4.826   5.452   1.709
 1107TIP3    H2 3328   4.756   5.559   1.790
 1108TIP3   OH2 3329   2.714   4.050   1.727
 1108TIP3    H1 3330   2.793   4.015   1.768
 1108TIP3    H2 3331   2.673   4.103   1.795
 1109TIP3   OH2 3332   4.021   5.797   4.053
 1109TIP3    H1 3333   3.949   5.772   3.995
 1109TIP3    H2 3334   4.100   5.765   4.009
 1110TIP3   OH2 3335   2.605   2.149   3.131
 1110TIP3    H1 3336   2.649   2.233   3.114
 1110TIP3    H2 3337   2.513   2.173   3.143
 1111TIP3   OH2 3338   3.009   3.752   0.830
 1111TIP3    H1 3339   2.989   3.725   0.920
 1111TIP3    H2 3340   2.973   3.683   0.775
 1112TIP3   OH2 3341   4.854   4.555   2.810
 1112TIP3    H1 3342   4.889   4.608   2.738
 1112TIP3    H2 3343   4.774   4.515   2.775
 1113TIP3   OH2 3344   5.699   2.020   5.048
 1113TIP3    H1 3345   5.670   1.990   4.962
 1113TIP3    H2 3346   5.747   2.101   5.029
 1114TIP3   OH2 3347   6.217   4.540   2.965
 1114TIP3    H1 3348   6.153   4.548   3.036
 1114TIP3    H2 3349   6.165   4.541   2.885
 1115TIP3   OH2 3350   0.269   5.332   1.860
 1115TIP3    H1 3351   0.193   5.288   1.822
 1115TIP3    H2 3352   0.343   5.274   1.840
 1116TIP3   OH2 3353   1.997   1.700   1.230
 1116TIP3    H1 3354   1.930   1.767   1.244
 1116TIP3    H2 3355   1.947   1.621   1.209
 1117TIP3   OH2 3356   2.026   4.175   5.106
 1117TIP3    H1 3357   1.957   4.241   5.095
 1117TIP3    H2 3358   1.985   4.093   5.078
 1118TIP3   OH2 3359   4.961   0.956   1.458
 1118TIP3    H1 3360   4.950   1.022   1.389
 1118TIP3    H2 3361   4.989   1.006   1.535
 1119TIP3   OH2 3362   1.855   2.279   3.875
 1119TIP3    H1 3363   1.782   2.324   3.916
 1119TIP3    H2 3364   1.910   2.250   3.948
 1120TIP3   OH2 3365   1.409   1.491   3.806
 1120TIP3    H1 3366   1.339   1.467   3.745
 1120TIP3    H2 3367   1.483   1.437   3.779
 1121TIP3   OH2 3368   4.729   5.746   0.750
 1121TIP3    H1 3369   4.647   5.695   0.749
 1121TIP3    H2 3370   4.720   5.807   0.678
 1122TIP3   OH2 3371   3.651   4.433   0.852
 1122TIP3    H1 3372   3.637   4.348   0.894
 1122TIP3    H2 3373   3.702   4.483   0.916
 1123TIP3   OH2 3374   2.707   1.042   3.456
 1123TIP3    H1 3375   2.701   1.104   3.529
 1123TIP3    H2 3376   2.617   1.015   3.440
 1124TIP3   OH2 3377   3.749   4.081   1.818
 1124TIP3    H1 3378   3.800   4.004   1.844
 1124TIP3    H2 3379   3.805   4.156   1.839
 1125TIP3   OH2 3380   3.791   0.808   3.307
 1125TIP3    H1 3381   3.867   0.859   3.281
 1125TIP3    H2 3382   3.745   0.863   3.371
 1126TIP3   OH2 3383   2.758   2.846   2.169
 1126TIP3    H1 3384   2.732   2.917   2.229
 1126TIP3    H2 3385   2.721   2.767   2.208
 1127TIP3   OH2 3386   4.730   3.435   2.748
 1127TIP3    H1 3387   4.797   3.385   2.794
 1127TIP3    H2 3388   4.777   3.480   2.678
 1128TIP3   OH2 3389   5.681   0.375   4.528
 1128TIP3    H1 3390   5.741   0.437   4.569
 1128TIP3    H2 3391   5.674   0.303   4.591
 1129TIP3   OH2 3392   2.497   5.341   2.106
 1129TIP3    H1 3393   2.526   5.263   2.153
 1129TIP3    H2 3394   2.403   5.327   2.093
 1130TIP3   OH2 3395   2.308   1.196   3.453
 1130TIP3    H1 3396   2.331   1.156   3.537
 1130TIP3    H2 3397   2.230   1.248   3.471
 1131TIP3   OH2 3398   3.972   2.312   0.597
 1131TIP3    H1 3399   3.956   2.406   0.597
 1131TIP3    H2 3400   4.014   2.294   0.681
 1132TIP3   OH2 3401   4.931   5.391   2.483
 1132TIP3    H1 3402   4.900   5.304   2.509
 1132TIP3    H2 3403   4.903   5.449   2.554
 1133TIP3   OH2 3404   6.187   5.950   1.534
 1133TIP3    H1 3405   6.163   6.003   1.610
 1133TIP3    H2 3406   6.140   5.990   1.461
 1134TIP3   OH2 3407   2.569   3.424   0.417
 1134TIP3    H1 3408   2.545   3.334   0.395
 1134TIP3    H2 3409   2.556   3.430   0.511
 1135TIP3   OH2 3410   3.415   5.079   1.565
 1135TIP3    H1 3411   3.504   5.108   1.548
 1135TIP3    H2 3412   3.425   5.002   1.620
 1136TIP3   OH2 3413   0.038   0.042   3.494
 1136TIP3    H1 3414   0.029  -0.007   3.412
 1136TIP3    H2 3415   0.093   0.117   3.470
 1137TIP3   OH2 3416   5.824   2.466   4.016
 1137TIP3    H1 3417   5.729   2.470   4.021
 1137TIP3    H2 3418   5.854   2.527   4.083
 1138TIP3   OH2 3419   2.518   5.023   2.577
 1138TIP3    H1 3420   2.551   5.040   2.665
 1138TIP3    H2 3421   2.593   4.988   2.530
 1139TIP3   OH2 3422   3.454   0.853   3.857
 1139TIP3    H1 3423   3.489   0.923   3.802
 1139TIP3    H2 3424   3.390   0.896   3.914
 1140TIP3   OH2 3425   0.928   4.743   1.577
 1140TIP3    H1 3426   0.862   4.779   1.637
 1140TIP3    H2 3427   0.877   4.695   1.512
 1141TIP3   OH2 3428   1.811   5.100   0.132
 1141TIP3    H1 3429   1.887   5.153   0.157
 1141TIP3    H2 3430   1.738   5.161   0.133
 1142TIP3   OH2 3431   2.825   4.821   2.713
 1142TIP3    H1 3432   2.807   4.738   2.758
 1142TIP3    H2 3433   2.887   4.866   2.770
 1143TIP3   OH2 3434   0.381   0.311   1.546
 1143TIP3    H1 3435   0.432   0.311   1.626
 1143TIP3    H2 3436   0.445   0.326   1.476
 1144TIP3   OH2 3437   0.712   1.139   0.886
 1144TIP3    H1 3438   0.747   1.209   0.941
 1144TIP3    H2 3439   0.624   1.169   0.862
 1145TIP3   OH2 3440   1.302   3.082   0.651
 1145TIP3    H1 3441   1.265   3.006   0.696
 1145TIP3    H2 3442   1.275   3.071   0.560
 1146TIP3   OH2 3443   2.078   4.573   2.149
 1146TIP3    H1 3444   2.042   4.485   2.142
 1146TIP3    H2 3445   2.083   4.589   2.243
 1147TIP3   OH2 3446   4.768   5.602   1.118
 1147TIP3    H1 3447   4.804   5.550   1.046
 1147TIP3    H2 3448   4.701   5.546   1.157
 1148TIP3   OH2 3449   2.127   3.115   3.983
 1148TIP3    H1 3450   2.144   3.024   3.958
 1148TIP3    H2 3451   2.091   3.110   4.071
 1149TIP3   OH2 3452   1.886   1.354   3.448
 1149TIP3    H1 3453   1.932   1.397   3.520
 1149TIP3    H2 3454   1.955   1.309   3.399
 1150TIP3   OH2 3455   0.990   4.973   3.838
 1150TIP3    H1 3456   1.080   4.951   3.864
 1150TIP3    H2 3457   0.957   5.026   3.910
 1151TIP3   OH2 3458   3.682   3.512   2.803
 1151TIP3    H1 3459   3.758   3.566   2.780
 1151TIP3    H2 3460   3.720   3.432   2.839
 1152TIP3   OH2 3461   2.088   5.768   4.874
 1152TIP3    H1 3462   2.004   5.724   4.875
 1152TIP3    H2 3463   2.092   5.811   4.788
 1153TIP3   OH2 3464   2.109   1.101   2.378
 1153TIP3    H1 3465   2.079   1.085   2.288
 1153TIP3    H2 3466   2.121   1.195   2.383
 1154TIP3   OH2 3467   0.306   2.133   3.528
 1154TIP3    H1 3468   0.285   2.130   3.621
 1154TIP3    H2 3469   0.308   2.227   3.506
 1155TIP3   OH2 3470   6.150   5.439   1.124
 1155TIP3    H1 3471   6.242   5.464   1.118
 1155TIP3    H2 3472   6.104   5.501   1.068
 1156TIP3   OH2 3473   4.791   3.307   4.518
 1156TIP3    H1 3474   4.714   3.339   4.564
 1156TIP3    H2 3475   4.835   3.386   4.487
 1157TIP3   OH2 3476   6.110   1.889   3.745
 1157TIP3    H1 3477   6.144   1.967   3.702
 1157TIP3    H2 3478   6.124   1.905   3.838
 1158TIP3   OH2 3479   5.098   3.315   4.883
 1158TIP3    H1 3480   5.180   3.357   4.908
 1158TIP3    H2 3481   5.097   3.319   4.787
 1159TIP3   OH2 3482   2.761   2.973   1.028
 1159TIP3    H1 3483   2.841   2.990   1.078
 1159TIP3    H2 3484   2.692   3.017   1.077
 1160TIP3   OH2 3485   4.941   2.996   2.838
 1160TIP3    H1 3486   4.975   2.951   2.915
 1160TIP3    H2 3487   4.856   3.030   2.865
 1161TIP3   OH2 3488   1.313   4.390   0.425
 1161TIP3    H1 3489   1.236   4.334   0.409
 1161TIP3    H2 3490   1.295   4.469   0.373
 1162TIP3   OH2 3491   2.276   5.256   1.612
 1162TIP3    H1 3492   2.251   5.275   1.702
 1162TIP3    H2 3493   2.371   5.266   1.611
 1163TIP3   OH2 3494   6.078   1.056   4.511
 1163TIP3    H1 3495   6.083   1.096   4.598
 1163TIP3    H2 3496   6.119   1.120   4.453
 1164TIP3   OH2 3497   2.440   0.844   2.264
 1164TIP3    H1 3498   2.507   0.912   2.269
 1164TIP3    H2 3499   2.385   0.860   2.341
 1165TIP3   OH2 3500   1.431   2.660   2.547
 1165TIP3    H1 3501   1.407   2.628   2.634
 1165TIP3    H2 3502   1.449   2.753   2.560
 1166TIP3   OH2 3503   5.789   2.223   2.347
 1166TIP3    H1 3504   5.790   2.271   2.430
 1166TIP3    H2 3505   5.797   2.131   2.373
 1167TIP3   OH2 3506   3.239   1.520   4.130
 1167TIP3    H1 3507   3.197   1.583   4.189
 1167TIP3    H2 3508   3.293   1.466   4.187
 1168TIP3   OH2 3509   0.057   1.930   0.111
 1168TIP3    H1 3510   0.114   1.853   0.117
 1168TIP3    H2 3511   0.086   1.987   0.183
 1169TIP3   OH2 3512   0.667   1.473   1.164
 1169TIP3    H1 3513   0.741   1.424   1.130
 1169TIP3    H2 3514   0.676   1.468   1.260
 1170TIP3   OH2 3515   5.846   4.264   0.751
 1170TIP3    H1 3516   5.826   4.333   0.814
 1170TIP3    H2 3517   5.796   4.288   0.673
 1171TIP3   OH2 3518   0.696   0.260   4.918
 1171TIP3    H1 3519   0.725   0.280   5.007
 1171TIP3    H2 3520   0.672   0.345   4.881
 1172TIP3   OH2 3521   4.822   1.284   1.698
 1172TIP3    H1 3522   4.809   1.293   1.604
 1172TIP3    H2 3523   4.912   1.252   1.707
 1173TIP3   OH2 3524   2.246   3.481   3.914
 1173TIP3    H1 3525   2.255   3.427   3.992
 1173TIP3    H2 3526   2.189   3.553   3.940
 1174TIP3   OH2 3527   1.279   3.383   1.345
 1174TIP3    H1 3528   1.214   3.409   1.279
 1174TIP3    H2 3529   1.296   3.291   1.327
 1175TIP3   OH2 3530   3.454   3.811   2.495
 1175TIP3    H1 3531   3.420   3.813   2.405
 1175TIP3    H2 3532   3.449   3.719   2.520
 1176TIP3   OH2 3533   6.111   5.442   3.333
 1176TIP3    H1 3534   6.018   5.420   3.334
 1176TIP3    H2 3535   6.155   5.359   3.311
 1177TIP3   OH2 3536   5.161   0.641   0.851
 1177TIP3    H1 3537   5.234   0.646   0.789
 1177TIP3    H2 3538   5.194   0.683   0.930
 1178TIP3   OH2 3539   0.309   3.054   3.115
 1178TIP3    H1 3540   0.354   3.050   3.199
 1178TIP3    H2 3541   0.373   3.093   3.055
 1179TIP3   OH2 3542   1.805   3.757   4.506
 1179TIP3    H1 3543   1.733   3.714   4.461
 1179TIP3    H2 3544   1.844   3.814   4.440
 1180TIP3   OH2 3545   4.280   5.077   3.490
 1180TIP3    H1 3546   4.339   5.062   3.564
 1180TIP3    H2 3547   4.333   5.056   3.413
 1181TIP3   OH2 3548   0.959   4.751   5.007
 1181TIP3    H1 3549   0.962   4.779   4.915
 1181TIP3    H2 3550   0.876   4.786   5.040
 1182TIP3   OH2 3551   1.754   5.734   2.081
 1182TIP3    H1 3552   1.678   5.715   2.025
 1182TIP3    H2 3553   1.724   5.805   2.138
 1183TIP3   OH2 3554   0.799   5.469   4.577
 1183TIP3    H1 3555   0.814   5.556   4.613
 1183TIP3    H2 3556   0.710   5.472   4.541
 1184TIP3   OH2 3557   3.314   2.584   2.618
 1184TIP3    H1 3558   3.382   2.650   2.614
 1184TIP3    H2 3559   3.318   2.539   2.534
 1185TIP3   OH2 3560   4.527   5.474   0.325
 1185TIP3    H1 3561   4.535   5.469   0.230
 1185TIP3    H2 3562   4.511   5.566   0.343
 1186TIP3   OH2 3563   1.664   4.624   3.750
 1186TIP3    H1 3564   1.754   4.630   3.781
 1186TIP3    H2 3565   1.635   4.537   3.777
 1187TIP3   OH2 3566   4.819   4.060   1.440
 1187TIP3    H1 3567   4.830   4.130   1.504
 1187TIP3    H2 3568   4.880   3.992   1.467
 1188TIP3   OH2 3569   5.662   3.489   3.156
 1188TIP3    H1 3570   5.734   3.427   3.146
 1188TIP3    H2 3571   5.598   3.444   3.211
 1189TIP3   OH2 3572   2.513   1.010   2.615
 1189TIP3    H1 3573   2.467   1.087   2.648
 1189TIP3    H2 3574   2.443   0.954   2.580
 1190TIP3   OH2 3575   2.286   3.047   0.491
 1190TIP3    H1 3576   2.344   2.975   0.516
 1190TIP3    H2 3577   2.253   3.081   0.574
 1191TIP3   OH2 3578   4.326   2.761   2.920
 1191TIP3    H1 3579   4.369   2.768   2.835
 1191TIP3    H2 3580   4.234   2.781   2.903
 1192TIP3   OH2 3581   2.577   2.117   1.359
 1192TIP3    H1 3582   2.557   2.150   1.446
 1192TIP3    H2 3583   2.492   2.104   1.317
 1193TIP3   OH2 3584   3.982   4.139   2.440
 1193TIP3    H1 3585   4.061   4.176   2.401
 1193TIP3    H2 3586   3.957   4.201   2.508
 1194TIP3   OH2 3587   2.856   1.897   2.208
 1194TIP3    H1 3588   2.805   1.963   2.255
 1194TIP3    H2 3589   2.914   1.948   2.151
 1195TIP3   OH2 3590   5.823   3.026   2.796
 1195TIP3    H1 3591   5.799   3.004   2.706
 1195TIP3    H2 3592   5.754   2.987   2.849
 1196TIP3   OH2 3593   0.870   4.566   1.924
 1196TIP3    H1 3594   0.914   4.521   1.852
 1196TIP3    H2 3595   0.783   4.586   1.890
 1197TIP3   OH2 3596   6.203   3.089   4.958
 1197TIP3    H1 3597   6.281   3.138   4.930
 1197TIP3    H2 3598   6.233   2.999   4.965
 1198TIP3   OH2 3599   1.617   0.385   3.880
 1198TIP3    H1 3600   1.594   0.326   3.809
 1198TIP3    H2 3601   1.549   0.452   3.879
 1199TIP3   OH2 3602   6.128   0.837   0.875
 1199TIP3    H1 3603   6.114   0.853   0.969
 1199TIP3    H2 3604   6.169   0.917   0.843
 1200TIP3   OH2 3605   3.133   5.942   3.054
 1200TIP3    H1 3606   3.111   5.918   2.964
 1200TIP3    H2 3607   3.061   5.906   3.107
 1201TIP3   OH2 3608   4.491   5.782   4.342
 1201TIP3    H1 3609   4.557   5.712   4.335
 1201TIP3    H2 3610   4.522   5.837   4.414
 1202TIP3   OH2 3611   0.109   0.070   1.350
 1202TIP3    H1 3612   0.083   0.049   1.261
 1202TIP3    H2 3613   0.187   0.017   1.366
 1203TIP3   OH2 3614   0.371   1.614   2.085
 1203TIP3    H1 3615   0.296   1.662   2.051
 1203TIP3    H2 3616   0.418   1.677   2.139
 1204TIP3   OH2 3617   3.720   1.282   5.179
 1204TIP3    H1 3618   3.791   1.310   5.121
 1204TIP3    H2 3619   3.670   1.220   5.127
 1205TIP3   OH2 3620   4.741   5.659   4.339
 1205TIP3    H1 3621   4.787   5.645   4.421
 1205TIP3    H2 3622   4.797   5.619   4.272
 1206TIP3   OH2 3623   0.011   2.541   1.712
 1206TIP3    H1 3624   0.106   2.550   1.708
 1206TIP3    H2 3625  -0.006   2.496   1.794
 1207TIP3   OH2 3626   2.364   4.912   3.264
 1207TIP3    H1 3627   2.447   4.897   3.309
 1207TIP3    H2 3628   2.388   4.922   3.172
 1208TIP3   OH2 3629   5.611   2.329   3.187
 1208TIP3    H1 3630   5.662   2.399   3.228
 1208TIP3    H2 3631   5.624   2.341   3.093
 1209TIP3   OH2 3632   5.587   5.307   0.390
 1209TIP3    H1 3633   5.653   5.336   0.327
 1209TIP3    H2 3634   5.614   5.218   0.414
 1210TIP3   OH2 3635   0.343   5.821   3.334
 1210TIP3    H1 3636   0.434   5.804   3.310
 1210TIP3    H2 3637   0.330   5.913   3.313
 1211TIP3   OH2 3638   3.937   4.636   2.113
 1211TIP3    H1 3639   3.844   4.659   2.112
 1211TIP3    H2 3640   3.964   4.641   2.021
 1212TIP3   OH2 3641   4.036   1.178   4.716
 1212TIP3    H1 3642   3.949   1.166   4.752
 1212TIP3    H2 3643   4.021   1.213   4.628
 1213TIP3   OH2 3644   5.178   3.215   3.762
 1213TIP3    H1 3645   5.208   3.295   3.719
 1213TIP3    H2 3646   5.195   3.229   3.855
 1214TIP3   OH2 3647   2.638   3.367   3.951
 1214TIP3    H1 3648   2.731   3.368   3.972
 1214TIP3    H2 3649   2.595   3.343   4.033
 1215TIP3   OH2 3650   2.063   2.007   4.823
 1215TIP3    H1 3651   2.070   1.914   4.845
 1215TIP3    H2 3652   2.075   2.009   4.728
 1216TIP3   OH2 3653   5.564   0.653   1.153
 1216TIP3    H1 3654   5.653   0.638   1.122
 1216TIP3    H2 3655   5.540   0.737   1.115
 1217TIP3   OH2 3656   4.481   2.469   3.076
 1217TIP3    H1 3657   4.529   2.501   2.999
 1217TIP3    H2 3658   4.505   2.529   3.146
 1218TIP3   OH2 3659   5.041   4.211   3.191
 1218TIP3    H1 3660   4.994   4.252   3.118
 1218TIP3    H2 3661   5.017   4.118   3.186
 1219TIP3   OH2 3662   4.056   3.403   0.767
 1219TIP3    H1 3663   4.097   3.329   0.722
 1219TIP3    H2 3664   3.972   3.415   0.722
 1220TIP3   OH2 3665   5.268   0.661   4.785
 1220TIP3    H1 3666   5.235   0.724   4.849
 1220TIP3    H2 3667   5.363   0.673   4.788
 1221TIP3   OH2 3668   3.983   0.752   2.666
 1221TIP3    H1 3669   3.955   0.709   2.585
 1221TIP3    H2 3670   4.058   0.701   2.696
 1222TIP3   OH2 3671   3.112   1.218   0.565
 1222TIP3    H1 3672   3.090   1.311   0.572
 1222TIP3    H2 3673   3.130   1.205   0.472
 1223TIP3   OH2 3674   2.480   1.789   4.663
 1223TIP3    H1 3675   2.517   1.706   4.693
 1223TIP3    H2 3676   2.432   1.767   4.583
 1224TIP3   OH2 3677   5.421   2.293   5.011
 1224TIP3    H1 3678   5.491   2.286   5.075
 1224TIP3    H2 3679   5.451   2.240   4.937
 1225TIP3   OH2 3680   5.783   0.409   3.392
 1225TIP3    H1 3681   5.860   0.362   3.359
 1225TIP3    H2 3682   5.716   0.342   3.404
 1226TIP3   OH2 3683   4.421   4.189   3.924
 1226TIP3    H1 3684   4.402   4.168   3.833
 1226TIP3    H2 3685   4.471   4.114   3.956
 1227TIP3   OH2 3686   4.613   4.956   1.519
 1227TIP3    H1 3687   4.572   4.959   1.433
 1227TIP3    H2 3688   4.646   4.867   1.527
 1228TIP3   OH2 3689   2.822   1.527   4.161
 1228TIP3    H1 3690   2.753   1.572   4.113
 1228TIP3    H2 3691   2.790   1.526   4.252
 1229TIP3   OH2 3692   5.515   5.730   4.249
 1229TIP3    H1 3693   5.564   5.669   4.303
 1229TIP3    H2 3694   5.459   5.778   4.310
 1230TIP3   OH2 3695   4.905   4.347   0.574
 1230TIP3    H1 3696   4.983   4.385   0.614
 1230TIP3    H2 3697   4.936   4.308   0.492
 1231TIP3   OH2 3698   4.195   3.136   0.183
 1231TIP3    H1 3699   4.132   3.103   0.119
 1231TIP3    H2 3700   4.206   3.228   0.160
 1232TIP3   OH2 3701   6.157   2.903   0.993
 1232TIP3    H1 3702   6.188   2.864   0.912
 1232TIP3    H2 3703   6.079   2.852   1.016
 1233TIP3   OH2 3704   5.879   4.313   3.560
 1233TIP3    H1 3705   5.962   4.361   3.568
 1233TIP3    H2 3706   5.831   4.333   3.640
 1234TIP3   OH2 3707   4.811   0.876   2.619
 1234TIP3    H1 3708   4.720   0.853   2.601
 1234TIP3    H2 3709   4.811   0.910   2.709
 1235TIP3   OH2 3710   0.491   4.457   3.227
 1235TIP3    H1 3711   0.522   4.414   3.147
 1235TIP3    H2 3712   0.425   4.397   3.262
 1236TIP3   OH2 3713   4.486   4.288   0.645
 1236TIP3    H1 3714   4.567   4.286   0.595
 1236TIP3    H2 3715   4.446   4.202   0.629
 1237TIP3   OH2 3716   1.724   1.542   0.677
 1237TIP3    H1 3717   1.760   1.462   0.715
 1237TIP3    H2 3718   1.761   1.546   0.589
 1238TIP3   OH2 3719   5.714   3.490   3.508
 1238TIP3    H1 3720   5.698   3.420   3.444
 1238TIP3    H2 3721   5.723   3.569   3.455
 1239TIP3   OH2 3722   3.617   1.525   3.362
 1239TIP3    H1 3723   3.587   1.611   3.392
 1239TIP3    H2 3724   3.691   1.545   3.305
 1240TIP3   OH2 3725   3.123   1.359   2.571
 1240TIP3    H1 3726   3.138   1.370   2.665
 1240TIP3    H2 3727   3.172   1.280   2.548
 1241TIP3   OH2 3728   3.393   0.684   2.872
 1241TIP3    H1 3729   3.306   0.674   2.834
 1241TIP3    H2 3730   3.391   0.628   2.950
 1242TIP3   OH2 3731   0.811   4.098   3.156
 1242TIP3    H1 3732   0.818   4.094   3.060
 1242TIP3    H2 3733   0.844   4.185   3.179
 1243TIP3   OH2 3734   1.802   4.087   1.760
 1243TIP3    H1 3735   1.798   4.164   1.818
 1243TIP3    H2 3736   1.758   4.018   1.809
 1244TIP3   OH2 3737   5.398   5.213   1.389
 1244TIP3    H1 3738   5.485   5.252   1.395
 1244TIP3    H2 3739   5.340   5.277   1.431
 1245TIP3   OH2 3740   5.806   4.156   1.146
 1245TIP3    H1 3741   5.754   4.224   1.189
 1245TIP3    H2 3742   5.781   4.075   1.191
 1246TIP3   OH2 3743   0.430   0.273   3.960
 1246TIP3    H1 3744   0.338   0.250   3.951
 1246TIP3    H2 3745   0.437   0.315   4.045
 1247TIP3   OH2 3746   0.037   1.151   4.158
 1247TIP3    H1 3747   0.002   1.218   4.217
 1247TIP3    H2 3748   0.080   1.089   4.216
 1248TIP3   OH2 3749   0.851   2.341   2.476
 1248TIP3    H1 3750   0.911   2.401   2.431
 1248TIP3    H2 3751   0.906   2.296   2.541
 1249TIP3   OH2 3752   4.762   0.684   4.227
 1249TIP3    H1 3753   4.738   0.748   4.295
 1249TIP3    H2 3754   4.842   0.718   4.188
 1250TIP3   OH2 3755   5.626   3.332   4.031
 1250TIP3    H1 3756   5.666   3.401   3.978
 1250TIP3    H2 3757   5.643   3.252   3.982
 1251TIP3   OH2 3758   6.268   0.215   0.316
 1251TIP3    H1 3759   6.295   0.276   0.247
 1251TIP3    H2 3760   6.236   0.272   0.386
 1252TIP3   OH2 3761   2.010   0.899   1.270
 1252TIP3    H1 3762   2.027   0.962   1.200
 1252TIP3    H2 3763   2.058   0.932   1.345
 1253TIP3   OH2 3764   5.216   4.731   1.650
 1253TIP3    H1 3765   5.127   4.753   1.676
 1253TIP3    H2 3766   5.223   4.760   1.559
 1254TIP3   OH2 3767   5.140   1.527   3.829
 1254TIP3    H1 3768   5.204   1.588   3.793
 1254TIP3    H2 3769   5.169   1.510   3.918
 1255TIP3   OH2 3770   0.125   0.294   4.153
 1255TIP3    H1 3771   0.215   0.315   4.178
 1255TIP3    H2 3772   0.118   0.199   4.164
 1256TIP3   OH2 3773   5.954   1.808   4.027
 1256TIP3    H1 3774   5.945   1.730   3.973
 1256TIP3    H2 3775   6.036   1.796   4.074
 1257TIP3   OH2 3776   1.221   5.696   4.900
 1257TIP3    H1 3777   1.198   5.770   4.956
 1257TIP3    H2 3778   1.279   5.642   4.954
 1258TIP3   OH2 3779   3.660   3.877   3.844
 1258TIP3    H1 3780   3.571   3.869   3.879
 1258TIP3    H2 3781   3.680   3.791   3.808
 1259TIP3   OH2 3782   3.322   3.133   1.579
 1259TIP3    H1 3783   3.358   3.063   1.525
 1259TIP3    H2 3784   3.229   3.114   1.585
 1260TIP3   OH2 3785   6.288   2.568   4.966
 1260TIP3    H1 3786   6.313   2.515   4.890
 1260TIP3    H2 3787   6.203   2.604   4.943
 1261TIP3   OH2 3788   1.358   2.933   3.056
 1261TIP3    H1 3789   1.390   2.976   2.976
 1261TIP3    H2 3790   1.267   2.910   3.036
 1262TIP3   OH2 3791   5.954   2.953   1.738
 1262TIP3    H1 3792   5.972   3.047   1.736
 1262TIP3    H2 3793   5.994   2.919   1.658
 1263TIP3   OH2 3794   2.858   3.151   3.798
 1263TIP3    H1 3795   2.770   3.144   3.833
 1263TIP3    H2 3796   2.871   3.245   3.783
 1264TIP3   OH2 3797   1.527   0.223   0.462
 1264TIP3    H1 3798   1.441   0.187   0.483
 1264TIP3    H2 3799   1.509   0.300   0.408
 1265TIP3   OH2 3800   1.925   4.566   3.247
 1265TIP3    H1 3801   1.917   4.471   3.241
 1265TIP3    H2 3802   1.840   4.599   3.218
 1266TIP3   OH2 3803   1.537   5.767   0.393
 1266TIP3    H1 3804   1.513   5.741   0.304
 1266TIP3    H2 3805   1.574   5.855   0.383
 1267TIP3   OH2 3806   5.937   4.959   3.706
 1267TIP3    H1 3807   5.999   5.032   3.717
 1267TIP3    H2 3808   5.933   4.919   3.793
 1268TIP3   OH2 3809   4.983   1.512   3.195
 1268TIP3    H1 3810   4.984   1.582   3.261
 1268TIP3    H2 3811   4.890   1.487   3.189
 1269TIP3   OH2 3812   1.402   3.095   4.844
 1269TIP3    H1 3813   1.478   3.094   4.902
 1269TIP3    H2 3814   1.427   3.041   4.770
 1270TIP3   OH2 3815   4.189   0.291   0.854
 1270TIP3    H1 3816   4.260   0.251   0.905
 1270TIP3    H2 3817   4.175   0.376   0.896
 1271TIP3   OH2 3818   3.309   1.350   2.049
 1271TIP3    H1 3819   3.214   1.352   2.056
 1271TIP3    H2 3820   3.326   1.341   1.955
 1272TIP3   OH2 3821   4.261   3.738   3.545
 1272TIP3    H1 3822   4.262   3.760   3.452
 1272TIP3    H2 3823   4.263   3.643   3.547
 1273TIP3   OH2 3824   0.197   4.450   1.493
 1273TIP3    H1 3825   0.130   4.419   1.554
 1273TIP3    H2 3826   0.158   4.525   1.450
 1274TIP3   OH2 3827   2.485   2.522   1.536
 1274TIP3    H1 3828   2.425   2.560   1.601
 1274TIP3    H2 3829   2.442   2.536   1.452
 1275TIP3   OH2 3830   1.893   2.765   2.010
 1275TIP3    H1 3831   1.882   2.686   2.063
 1275TIP3    H2 3832   1.885   2.734   1.920
 1276TIP3   OH2 3833   4.261   1.993   0.274
 1276TIP3    H1 3834   4.265   1.916   0.218
 1276TIP3    H2 3835   4.349   2.030   0.270
 1277TIP3   OH2 3836   2.688   1.027   0.647
 1277TIP3    H1 3837   2.684   1.072   0.732
 1277TIP3    H2 3838   2.754   1.075   0.598
 1278TIP3   OH2 3839   0.998   1.961   0.208
 1278TIP3    H1 3840   0.951   1.878   0.201
 1278TIP3    H2 3841   1.089   1.939   0.190
 1279TIP3   OH2 3842   4.170   0.723   1.565
 1279TIP3    H1 3843   4.124   0.805   1.544
 1279TIP3    H2 3844   4.137   0.660   1.500
 1280TIP3   OH2 3845   1.703   1.148   0.874
 1280TIP3    H1 3846   1.695   1.143   0.969
 1280TIP3    H2 3847   1.790   1.114   0.855
 1281TIP3   OH2 3848   2.096   5.517   1.200
 1281TIP3    H1 3849   2.014   5.562   1.221
 1281TIP3    H2 3850   2.120   5.550   1.113
 1282TIP3   OH2 3851   2.447   0.547   3.898
 1282TIP3    H1 3852   2.477   0.638   3.894
 1282TIP3    H2 3853   2.391   0.544   3.975
 1283TIP3   OH2 3854   5.278   5.337   3.551
 1283TIP3    H1 3855   5.373   5.324   3.543
 1283TIP3    H2 3856   5.269   5.409   3.614
 1284TIP3   OH2 3857   4.214   1.064   4.285
 1284TIP3    H1 3858   4.305   1.036   4.287
 1284TIP3    H2 3859   4.172   1.005   4.222
 1285TIP3   OH2 3860   1.353   0.830   4.692
 1285TIP3    H1 3861   1.449   0.828   4.685
 1285TIP3    H2 3862   1.336   0.889   4.764
 1286TIP3   OH2 3863   0.746   3.795   3.288
 1286TIP3    H1 3864   0.790   3.819   3.369
 1286TIP3    H2 3865   0.711   3.878   3.254
 1287TIP3   OH2 3866   3.681   2.387   4.211
 1287TIP3    H1 3867   3.719   2.313   4.256
 1287TIP3    H2 3868   3.617   2.423   4.272
 1288TIP3   OH2 3869   4.051   2.534   2.181
 1288TIP3    H1 3870   3.980   2.583   2.222
 1288TIP3    H2 3871   4.068   2.462   2.241
 1289TIP3   OH2 3872   0.768   0.106   1.664
 1289TIP3    H1 3873   0.732   0.026   1.702
 1289TIP3    H2 3874   0.785   0.163   1.739
 1290TIP3   OH2 3875   2.997   3.816   4.900
 1290TIP3    H1 3876   3.021   3.828   4.991
 1290TIP3    H2 3877   3.076   3.836   4.851
 1291TIP3   OH2 3878   4.791   1.065   1.859
 1291TIP3    H1 3879   4.710   1.030   1.897
 1291TIP3    H2 3880   4.761   1.135   1.801
 1292TIP3   OH2 3881   5.096   0.762   4.597
 1292TIP3    H1 3882   5.174   0.732   4.645
 1292TIP3    H2 3883   5.025   0.750   4.659
 1293TIP3   OH2 3884   6.211   1.526   3.267
 1293TIP3    H1 3885   6.224   1.608   3.220
 1293TIP3    H2 3886   6.140   1.544   3.328
 1294TIP3   OH2 3887   5.149   5.501   4.012
 1294TIP3    H1 3888   5.216   5.509   4.080
 1294TIP3    H2 3889   5.149   5.409   3.988
 1295TIP3   OH2 3890   0.703   3.009   0.966
 1295TIP3    H1 3891   0.793   3.017   0.935
 1295TIP3    H2 3892   0.649   3.034   0.892
 1296TIP3   OH2 3893   6.080   1.838   1.466
 1296TIP3    H1 3894   6.116   1.802   1.385
 1296TIP3    H2 3895   5.987   1.849   1.448
 1297TIP3   OH2 3896   6.094   0.053   3.904
 1297TIP3    H1 3897   6.147   0.109   3.847
 1297TIP3    H2 3898   6.137  -0.033   3.899
 1298TIP3   OH2 3899   0.411   3.956   5.110
 1298TIP3    H1 3900   0.365   3.922   5.033
 1298TIP3    H2 3901   0.473   3.887   5.133
 1299TIP3   OH2 3902   1.365   0.766   0.089
 1299TIP3    H1 3903   1.408   0.794   0.170
 1299TIP3    H2 3904   1.384   0.673   0.082
 1300TIP3   OH2 3905   4.116   1.367   4.021
 1300TIP3    H1 3906   4.030   1.392   3.987
 1300TIP3    H2 3907   4.142   1.439   4.078
 1301TIP3   OH2 3908   0.661   1.934   1.533
 1301TIP3    H1 3909   0.596   1.916   1.464
 1301TIP3    H2 3910   0.644   1.866   1.599
 1302TIP3   OH2 3911   2.322   1.852   4.367
 1302TIP3    H1 3912   2.245   1.898   4.334
 1302TIP3    H2 3913   2.290   1.766   4.394
 1303TIP3   OH2 3914   2.658   4.361   4.940
 1303TIP3    H1 3915   2.717   4.426   4.901
 1303TIP3    H2 3916   2.604   4.332   4.867
 1304TIP3   OH2 3917   2.677   5.041   4.123
 1304TIP3    H1 3918   2.717   4.985   4.189
 1304TIP3    H2 3919   2.681   5.129   4.159
 1305TIP3   OH2 3920   1.027   1.780   2.408
 1305TIP3    H1 3921   1.102   1.837   2.395
 1305TIP3    H2 3922   1.055   1.717   2.474
 1306TIP3   OH2 3923   5.077   0.978   1.056
 1306TIP3    H1 3924   4.999   0.962   1.003
 1306TIP3    H2 3925   5.096   1.071   1.045
 1307TIP3   OH2 3926   2.870   0.477   3.849
 1307TIP3    H1 3927   2.917   0.560   3.842
 1307TIP3    H2 3928   2.798   0.484   3.787
 1308TIP3   OH2 3929   0.150   0.903   0.814
 1308TIP3    H1 3930   0.087   0.940   0.752
 1308TIP3    H2 3931   0.196   0.835   0.765
 1309TIP3   OH2 3932   1.565   1.496   4.672
 1309TIP3    H1 3933   1.610   1.574   4.705
 1309TIP3    H2 3934   1.490   1.531   4.623
 1310TIP3   OH2 3935   3.102   5.435   2.559
 1310TIP3    H1 3936   3.078   5.504   2.620
 1310TIP3    H2 3937   3.157   5.376   2.610
 1311TIP3   OH2 3938   0.787   4.178   2.886
 1311TIP3    H1 3939   0.774   4.271   2.904
 1311TIP3    H2 3940   0.859   4.176   2.823
 1312TIP3   OH2 3941   3.126   1.716   0.857
 1312TIP3    H1 3942   3.122   1.806   0.823
 1312TIP3    H2 3943   3.195   1.674   0.806
 1313TIP3   OH2 3944   0.707   5.098   3.889
 1313TIP3    H1 3945   0.676   5.049   3.813
 1313TIP3    H2 3946   0.723   5.186   3.856
 1314TIP3   OH2 3947   5.862   5.958   0.441
 1314TIP3    H1 3948   5.864   5.918   0.528
 1314TIP3    H2 3949   5.786   6.017   0.444
 1315TIP3   OH2 3950   4.287   5.903   3.247
 1315TIP3    H1 3951   4.375   5.934   3.227
 1315TIP3    H2 3952   4.272   5.831   3.186
 1316TIP3   OH2 3953   0.090   2.307   1.534
 1316TIP3    H1 3954   0.074   2.387   1.584
 1316TIP3    H2 3955   0.172   2.324   1.487
 1317TIP3   OH2 3956   1.455   3.942   0.481
 1317TIP3    H1 3957   1.546   3.972   0.479
 1317TIP3    H2 3958   1.408   4.010   0.530
 1318TIP3   OH2 3959   6.039   0.415   3.100
 1318TIP3    H1 3960   6.082   0.347   3.152
 1318TIP3    H2 3961   6.054   0.389   3.009
 1319TIP3   OH2 3962   4.135   1.345   0.536
 1319TIP3    H1 3963   4.185   1.409   0.585
 1319TIP3    H2 3964   4.050   1.386   0.522
 1320TIP3   OH2 3965   2.865   1.950   0.529
 1320TIP3    H1 3966   2.881   1.997   0.447
 1320TIP3    H2 3967   2.791   1.996   0.568
 1321TIP3   OH2 3968   2.421   5.108   0.194
 1321TIP3    H1 3969   2.513   5.133   0.199
 1321TIP3    H2 3970   2.374   5.183   0.231
 1322TIP3   OH2 3971   5.279   3.769   1.677
 1322TIP3    H1 3972   5.310   3.733   1.760
 1322TIP3    H2 3973   5.283   3.696   1.615
 1323TIP3   OH2 3974   5.260   1.811   4.747
 1323TIP3    H1 3975   5.192   1.781   4.807
 1323TIP3    H2 3976   5.306   1.731   4.721
 1324TIP3   OH2 3977   4.326   0.995   0.963
 1324TIP3    H1 3978   4.310   0.937   0.889
 1324TIP3    H2 3979   4.276   1.074   0.943
 1325TIP3   OH2 3980   3.154   0.359   1.014
 1325TIP3    H1 3981   3.175   0.355   0.920
 1325TIP3    H2 3982   3.180   0.274   1.048
 1326TIP3   OH2 3983   0.713   1.608   3.942
 1326TIP3    H1 3984   0.696   1.530   3.995
 1326TIP3    H2 3985   0.645   1.670   3.968
 1327TIP3   OH2 3986   3.491   2.112   1.036
 1327TIP3    H1 3987   3.544   2.164   0.977
 1327TIP3    H2 3988   3.426   2.173   1.070
 1328TIP3   OH2 3989   4.762   4.627   4.501
 1328TIP3    H1 3990   4.810   4.559   4.454
 1328TIP3    H2 3991   4.765   4.703   4.443
 1329TIP3   OH2 3992   4.584   3.172   2.699
 1329TIP3    H1 3993   4.619   3.206   2.617
 1329TIP3    H2 3994   4.647   3.200   2.765
 1330TIP3   OH2 3995   3.687   0.547   4.524
 1330TIP3    H1 3996   3.692   0.455   4.552
 1330TIP3    H2 3997   3.773   0.583   4.545
 1331TIP3   OH2 3998   1.149   1.617   3.972
 1331TIP3    H1 3999   1.090   1.558   3.925
 1331TIP3    H2 4000   1.091   1.684   4.010
 1332TIP3   OH2 4001   3.489   5.880   5.125
 1332TIP3    H1 4002   3.515   5.873   5.033
 1332TIP3    H2 4003   3.421   5.814   5.135
 1333TIP3   OH2 4004   2.518   2.494   0.232
 1333TIP3    H1 4005   2.562   2.523   0.312
 1333TIP3    H2 4006   2.440   2.550   0.227
 1334TIP3   OH2 4007   5.994   4.764   0.243
 1334TIP3    H1 4008   5.951   4.709   0.177
 1334TIP3    H2 4009   5.995   4.852   0.205
 1335TIP3   OH2 4010   0.002   4.109   3.650
 1335TIP3    H1 4011   0.053   4.142   3.576
 1335TIP3    H2 4012  -0.026   4.187   3.697
 1336TIP3   OH2 4013   5.073   4.216   4.468
 1336TIP3    H1 4014   5.140   4.274   4.431
 1336TIP3    H2 4015   5.108   4.128   4.456
 1337TIP3   OH2 4016   3.565   0.982   1.612
 1337TIP3    H1 4017   3.545   1.009   1.702
 1337TIP3    H2 4018   3.613   0.900   1.622
 1338TIP3   OH2 4019   5.929   2.664   2.852
 1338TIP3    H1 4020   5.965   2.701   2.772
 1338TIP3    H2 4021   5.905   2.575   2.829
 1339TIP3   OH2 4022   1.161   1.421   4.799
 1339TIP3    H1 4023   1.220   1.450   4.869
 1339TIP3    H2 4024   1.156   1.326   4.810
 1340TIP3   OH2 4025   2.792   4.675   3.429
 1340TIP3    H1 4026   2.817   4.768   3.436
 1340TIP3    H2 4027   2.776   4.662   3.336
 1341TIP3   OH2 4028   1.831   0.566   3.826
 1341TIP3    H1 4029   1.781   0.491   3.858
 1341TIP3    H2 4030   1.854   0.543   3.736
 1342TIP3   OH2 4031   1.096   3.719   1.360
 1342TIP3    H1 4032   1.153   3.751   1.431
 1342TIP3    H2 4033   1.156   3.678   1.298
 1343TIP3   OH2 4034   3.606   1.253   1.194
 1343TIP3    H1 4035   3.573   1.342   1.181
 1343TIP3    H2 4036   3.529   1.202   1.218
 1344TIP3   OH2 4037   2.077   2.112   1.086
 1344TIP3    H1 4038   2.049   2.084   1.173
 1344TIP3    H2 4039   1.995   2.130   1.039
 1345TIP3   OH2 4040   6.075   1.064   3.238
 1345TIP3    H1 4041   6.134   1.139   3.231
 1345TIP3    H2 4042   5.988   1.102   3.227
 1346TIP3   OH2 4043   5.370   5.770   0.156
 1346TIP3    H1 4044   5.377   5.683   0.196
 1346TIP3    H2 4045   5.407   5.830   0.221
 1347TIP3   OH2 4046   2.353   1.528   3.226
 1347TIP3    H1 4047   2.352   1.624   3.225
 1347TIP3    H2 4048   2.263   1.504   3.248
 1348TIP3   OH2 4049   1.603   3.698   0.578
 1348TIP3    H1 4050   1.611   3.616   0.528
 1348TIP3    H2 4051   1.590   3.766   0.512
 1349TIP3   OH2 4052   3.011   0.758   2.519
 1349TIP3    H1 4053   3.097   0.716   2.514
 1349TIP3    H2 4054   3.028   0.844   2.555
 1350TIP3   OH2 4055   2.276   4.535   2.760
 1350TIP3    H1 4056   2.328   4.538   2.840
 1350TIP3    H2 4057   2.240   4.446   2.758
 1351TIP3   OH2 4058   1.756   2.066   2.472
 1351TIP3    H1 4059   1.762   2.122   2.549
 1351TIP3    H2 4060   1.794   2.119   2.401
 1352TIP3   OH2 4061   5.006   4.165   0.359
 1352TIP3    H1 4062   5.015   4.165   0.264
 1352TIP3    H2 4063   5.058   4.090   0.388
 1353TIP3   OH2 4064   3.066   0.437   4.444
 1353TIP3    H1 4065   3.010   0.469   4.515
 1353TIP3    H2 4066   3.131   0.506   4.432
 1354TIP3   OH2 4067   2.098   1.215   0.658
 1354TIP3    H1 4068   2.099   1.120   0.652
 1354TIP3    H2 4069   2.160   1.244   0.592
 1355TIP3   OH2 4070   6.150   5.353   2.961
 1355TIP3    H1 4071   6.057   5.356   2.984
 1355TIP3    H2 4072   6.162   5.267   2.920
 1356TIP3   OH2 4073   0.178   3.149   2.848
 1356TIP3    H1 4074   0.102   3.201   2.873
 1356TIP3    H2 4075   0.147   3.059   2.848
 1357TIP3   OH2 4076   3.750   2.486   0.024
 1357TIP3    H1 4077   3.832   2.484   0.073
 1357TIP3    H2 4078   3.717   2.396   0.027
 1358TIP3   OH2 4079   5.892   3.593   3.675
 1358TIP3    H1 4080   5.823   3.587   3.610
 1358TIP3    H2 4081   5.961   3.644   3.633
 1359TIP3   OH2 4082   1.234   1.294   3.426
 1359TIP3    H1 4083   1.280   1.331   3.350
 1359TIP3    H2 4084   1.230   1.367   3.488
 1360TIP3   OH2 4085   5.279   2.799   0.782
 1360TIP3    H1 4086   5.221   2.748   0.725
 1360TIP3    H2 4087   5.230   2.880   0.798
 1361TIP3   OH2 4088   5.217   4.793   0.924
 1361TIP3    H1 4089   5.186   4.833   1.005
 1361TIP3    H2 4090   5.146   4.733   0.898
 1362TIP3   OH2 4091   2.963   1.180   4.718
 1362TIP3    H1 4092   3.038   1.122   4.721
 1362TIP3    H2 4093   2.965   1.226   4.802
 1363TIP3   OH2 4094   0.211   1.698   0.670
 1363TIP3    H1 4095   0.157   1.777   0.668
 1363TIP3    H2 4096   0.150   1.627   0.646
 1364TIP3   OH2 4097   3.232   2.708   5.058
 1364TIP3    H1 4098   3.273   2.736   5.140
 1364TIP3    H2 4099   3.167   2.643   5.085
 1365TIP3   OH2 4100   5.976   1.237   0.632
 1365TIP3    H1 4101   5.903   1.294   0.607
 1365TIP3    H2 4102   5.996   1.187   0.553
 1366TIP3   OH2 4103   3.437   3.052   0.452
 1366TIP3    H1 4104   3.489   3.041   0.532
 1366TIP3    H2 4105   3.493   3.022   0.382
 1367TIP3   OH2 4106   3.893   1.529   0.880
 1367TIP3    H1 4107   3.954   1.592   0.841
 1367TIP3    H2 4108   3.818   1.582   0.907
 1368TIP3   OH2 4109   5.523   3.636   4.860
 1368TIP3    H1 4110   5.587   3.699   4.829
 1368TIP3    H2 4111   5.547   3.620   4.951
 1369TIP3   OH2 4112   1.488   3.545   3.302
 1369TIP3    H1 4113   1.428   3.618   3.285
 1369TIP3    H2 4114   1.439   3.467   3.276
 1370TIP3   OH2 4115   6.254   4.228   2.096
 1370TIP3    H1 4116   6.254   4.274   2.012
 1370TIP3    H2 4117   6.277   4.138   2.074
 1371TIP3   OH2 4118   6.161   5.592   3.564
 1371TIP3    H1 4119   6.133   5.546   3.485
 1371TIP3    H2 4120   6.138   5.684   3.547
 1372TIP3   OH2 4121   0.016   5.270   0.485
 1372TIP3    H1 4122   0.087   5.205   0.491
 1372TIP3    H2 4123  -0.056   5.231   0.534
 1373TIP3   OH2 4124   0.578   4.392   2.853
 1373TIP3    H1 4125   0.526   4.334   2.908
 1373TIP3    H2 4126   0.525   4.401   2.773
 1374TIP3   OH2 4127   3.867   3.016   4.854
 1374TIP3    H1 4128   3.924   2.956   4.903
 1374TIP3    H2 4129   3.842   2.966   4.776
 1375TIP3   OH2 4130   0.785   5.222   3.098
 1375TIP3    H1 4131   0.813   5.227   3.006
 1375TIP3    H2 4132   0.749   5.133   3.107
 1376TIP3   OH2 4133   4.894   5.861   1.212
 1376TIP3    H1 4134   4.906   5.909   1.294
 1376TIP3    H2 4135   4.809   5.816   1.223
 1377TIP3   OH2 4136   5.194   4.023   2.436
 1377TIP3    H1 4137   5.225   3.954   2.495
 1377TIP3    H2 4138   5.165   4.093   2.495
 1378TIP3   OH2 4139   4.302   2.865   4.297
 1378TIP3    H1 4140   4.272   2.776   4.276
 1378TIP3    H2 4141   4.385   2.853   4.343
 1379TIP3   OH2 4142   5.573   2.679   2.080
 1379TIP3    H1 4143   5.510   2.706   2.146
 1379TIP3    H2 4144   5.625   2.611   2.123
 1380TIP3   OH2 4145   0.889   2.140   4.893
 1380TIP3    H1 4146   0.813   2.183   4.932
 1380TIP3    H2 4147   0.859   2.111   4.807
 1381TIP3   OH2 4148   1.059   4.981   1.102
 1381TIP3    H1 4149   1.017   4.955   1.184
 1381TIP3    H2 4150   1.014   4.930   1.034
 1382TIP3   OH2 4151   2.407   4.178   3.482
 1382TIP3    H1 4152   2.472   4.133   3.536
 1382TIP3    H2 4153   2.404   4.267   3.517
 1383TIP3   OH2 4154   0.997   3.761   0.479
 1383TIP3    H1 4155   1.068   3.778   0.541
 1383TIP3    H2 4156   0.930   3.717   0.531
 1384TIP3   OH2 4157   0.679   5.667   2.405
 1384TIP3    H1 4158   0.711   5.586   2.446
 1384TIP3    H2 4159   0.679   5.647   2.311
 1385TIP3   OH2 4160   4.722   3.893   0.927
 1385TIP3    H1 4161   4.723   3.955   1.000
 1385TIP3    H2 4162   4.637   3.851   0.932
 1386TIP3   OH2 4163   0.908   5.399   2.051
 1386TIP3    H1 4164   0.946   5.432   2.132
 1386TIP3    H2 4165   0.983   5.374   1.997
 1387TIP3   OH2 4166   1.698   2.898   0.387
 1387TIP3    H1 4167   1.651   2.822   0.419
 1387TIP3    H2 4168   1.753   2.926   0.460
 1388TIP3   OH2 4169   4.693   5.184   3.858
 1388TIP3    H1 4170   4.666   5.195   3.949
 1388TIP3    H2 4171   4.732   5.267   3.834
 1389TIP3   OH2 4172   2.807   0.816   4.830
 1389TIP3    H1 4173   2.740   0.819   4.898
 1389TIP3    H2 4174   2.776   0.749   4.768
 1390TIP3   OH2 4175   1.310   3.621   5.196
 1390TIP3    H1 4176   1.392   3.652   5.158
 1390TIP3    H2 4177   1.242   3.678   5.161
 1391TIP3   OH2 4178   3.074   2.752   1.648
 1391TIP3    H1 4179   2.991   2.754   1.697
 1391TIP3    H2 4180   3.079   2.663   1.613
 1392TIP3   OH2 4181   5.145   2.027   0.692
 1392TIP3    H1 4182   5.179   1.967   0.625
 1392TIP3    H2 4183   5.079   1.975   0.738
 1393TIP3   OH2 4184   2.361   2.232   1.151
 1393TIP3    H1 4185   2.275   2.230   1.109
 1393TIP3    H2 4186   2.358   2.308   1.208
 1394TIP3   OH2 4187   2.868   4.477   3.834
 1394TIP3    H1 4188   2.926   4.414   3.792
 1394TIP3    H2 4189   2.912   4.500   3.916
 1395TIP3   OH2 4190   4.321   4.100   5.192
 1395TIP3    H1 4191   4.316   4.031   5.126
 1395TIP3    H2 4192   4.332   4.181   5.141
 1396TIP3   OH2 4193   4.426   0.763   4.342
 1396TIP3    H1 4194   4.337   0.769   4.306
 1396TIP3    H2 4195   4.464   0.850   4.329
 1397TIP3   OH2 4196   0.716   3.286   4.043
 1397TIP3    H1 4197   0.642   3.346   4.037
 1397TIP3    H2 4198   0.682   3.209   4.089
 1398TIP3   OH2 4199   2.917   0.040   4.961
 1398TIP3    H1 4200   2.933   0.115   5.018
 1398TIP3    H2 4201   2.830   0.010   4.985
 1399TIP3   OH2 4202   5.257   1.521   2.991
 1399TIP3    H1 4203   5.182   1.550   3.043
 1399TIP3    H2 4204   5.258   1.580   2.915
 1400TIP3   OH2 4205   5.541   4.628   3.838
 1400TIP3    H1 4206   5.504   4.691   3.777
 1400TIP3    H2 4207   5.598   4.680   3.895
 1401TIP3   OH2 4208   1.697   0.322   1.784
 1401TIP3    H1 4209   1.713   0.414   1.802
 1401TIP3    H2 4210   1.685   0.317   1.689
 1402TIP3   OH2 4211   0.890   4.628   2.652
 1402TIP3    H1 4212   0.931   4.583   2.726
 1402TIP3    H2 4213   0.947   4.609   2.578
 1403TIP3   OH2 4214   1.324   5.625   2.161
 1403TIP3    H1 4215   1.234   5.644   2.135
 1403TIP3    H2 4216   1.371   5.614   2.078
 1404TIP3   OH2 4217   3.030   5.580   2.761
 1404TIP3    H1 4218   3.066   5.658   2.804
 1404TIP3    H2 4219   3.082   5.507   2.796
 1405TIP3   OH2 4220   2.082   1.519   3.341
 1405TIP3    H1 4221   2.078   1.539   3.435
 1405TIP3    H2 4222   1.996   1.484   3.320
 1406TIP3   OH2 4223   2.225   2.262   1.486
 1406TIP3    H1 4224   2.248   2.189   1.428
 1406TIP3    H2 4225   2.243   2.340   1.433
 1407TIP3   OH2 4226   5.662   0.143   2.050
 1407TIP3    H1 4227   5.612   0.081   1.997
 1407TIP3    H2 4228   5.603   0.167   2.121
 1408TIP3   OH2 4229   6.267   1.097   0.179
 1408TIP3    H1 4230   6.263   1.162   0.109
 1408TIP3    H2 4231   6.209   1.027   0.149
 1409TIP3   OH2 4232   1.294   0.581   1.530
 1409TIP3    H1 4233   1.237   0.526   1.584
 1409TIP3    H2 4234   1.235   0.648   1.495
 1410TIP3   OH2 4235   6.036   4.059   5.088
 1410TIP3    H1 4236   6.046   3.969   5.119
 1410TIP3    H2 4237   6.055   4.054   4.994
 1411TIP3   OH2 4238   2.599   3.715   0.660
 1411TIP3    H1 4239   2.619   3.623   0.675
 1411TIP3    H2 4240   2.549   3.741   0.737
 1412TIP3   OH2 4241   2.981   2.530   4.529
 1412TIP3    H1 4242   3.026   2.611   4.506
 1412TIP3    H2 4243   2.945   2.498   4.447
 1413TIP3   OH2 4244   0.270   2.011   2.782
 1413TIP3    H1 4245   0.327   2.080   2.748
 1413TIP3    H2 4246   0.239   1.965   2.704
 1414TIP3   OH2 4247   1.974   4.399   0.000
 1414TIP3    H1 4248   2.034   4.418   0.073
 1414TIP3    H2 4249   1.890   4.382   0.043
 1415TIP3   OH2 4250   1.391   5.616   3.103
 1415TIP3    H1 4251   1.331   5.688   3.081
 1415TIP3    H2 4252   1.382   5.555   3.030
 1416TIP3   OH2 4253   3.893   5.448   2.138
 1416TIP3    H1 4254   3.961   5.396   2.180
 1416TIP3    H2 4255   3.834   5.384   2.097
 1417TIP3   OH2 4256   2.085   2.819   5.135
 1417TIP3    H1 4257   2.106   2.869   5.057
 1417TIP3    H2 4258   2.011   2.867   5.175
 1418TIP3   OH2 4259   0.157   5.067   3.490
 1418TIP3    H1 4260   0.118   5.053   3.577
 1418TIP3    H2 4261   0.092   5.120   3.443
 1419TIP3   OH2 4262   4.341   3.753   3.282
 1419TIP3    H1 4263   4.400   3.807   3.335
 1419TIP3    H2 4264   4.399   3.700   3.227
 1420TIP3   OH2 4265   3.295   4.378   5.021
 1420TIP3    H1 4266   3.338   4.402   4.939
 1420TIP3    H2 4267   3.234   4.450   5.038
 1421TIP3   OH2 4268   0.514   2.237   1.525
 1421TIP3    H1 4269   0.543   2.154   1.486
 1421TIP3    H2 4270   0.596   2.282   1.548
 1422TIP3   OH2 4271   1.371   1.358   2.804
 1422TIP3    H1 4272   1.326   1.437   2.831
 1422TIP3    H2 4273   1.424   1.333   2.880
 1423TIP3   OH2 4274   5.665   1.100   1.398
 1423TIP3    H1 4275   5.596   1.070   1.458
 1423TIP3    H2 4276   5.722   1.155   1.453
 1424TIP3   OH2 4277   5.247   3.393   2.881
 1424TIP3    H1 4278   5.200   3.338   2.819
 1424TIP3    H2 4279   5.226   3.483   2.854
 1425TIP3   OH2 4280   1.279   3.822   1.542
 1425TIP3    H1 4281   1.329   3.836   1.461
 1425TIP3    H2 4282   1.291   3.903   1.592
 1426TIP3   OH2 4283   3.631   0.994   2.506
 1426TIP3    H1 4284   3.648   0.936   2.581
 1426TIP3    H2 4285   3.540   1.022   2.517
 1427TIP3   OH2 4286   3.587   3.784   1.788
 1427TIP3    H1 4287   3.601   3.783   1.694
 1427TIP3    H2 4288   3.492   3.788   1.799
 1428TIP3   OH2 4289   5.984   0.638   4.314
 1428TIP3    H1 4290   5.997   0.633   4.219
 1428TIP3    H2 4291   6.067   0.607   4.351
 1429TIP3   OH2 4292   1.306   3.554   2.914
 1429TIP3    H1 4293   1.331   3.524   2.827
 1429TIP3    H2 4294   1.251   3.484   2.949
 1430TIP3   OH2 4295   4.298   1.620   3.754
 1430TIP3    H1 4296   4.374   1.671   3.782
 1430TIP3    H2 4297   4.334   1.534   3.731
 1431TIP3   OH2 4298   2.262   1.639   1.754
 1431TIP3    H1 4299   2.207   1.706   1.793
 1431TIP3    H2 4300   2.350   1.657   1.786
 1432TIP3   OH2 4301   0.172   4.370   3.269
 1432TIP3    H1 4302   0.077   4.362   3.268
 1432TIP3    H2 4303   0.195   4.390   3.178
 1433TIP3   OH2 4304   1.447   4.450   1.461
 1433TIP3    H1 4305   1.489   4.399   1.391
 1433TIP3    H2 4306   1.442   4.539   1.426
 1434TIP3   OH2 4307   0.806   0.879   3.464
 1434TIP3    H1 4308   0.763   0.931   3.396
 1434TIP3    H2 4309   0.759   0.900   3.544
 1435TIP3   OH2 4310   4.132   2.515   4.108
 1435TIP3    H1 4311   4.207   2.567   4.080
 1435TIP3    H2 4312   4.056   2.559   4.071
 1436TIP3   OH2 4313   1.630   4.817   0.444
 1436TIP3    H1 4314   1.566   4.808   0.373
 1436TIP3    H2 4315   1.589   4.773   0.519
 1437TIP3   OH2 4316   2.279   3.072   3.710
 1437TIP3    H1 4317   2.240   3.018   3.779
 1437TIP3    H2 4318   2.339   3.130   3.757
 1438TIP3   OH2 4319   3.308   1.973   2.766
 1438TIP3    H1 4320   3.238   1.910   2.750
 1438TIP3    H2 4321   3.270   2.057   2.741
 1439TIP3   OH2 4322   2.942   3.352   2.520
 1439TIP3    H1 4323   3.028   3.351   2.562
 1439TIP3    H2 4324   2.914   3.443   2.525
 1440TIP3   OH2 4325   4.428   3.311   3.544
 1440TIP3    H1 4326   4.480   3.361   3.607
 1440TIP3    H2 4327   4.476   3.319   3.461
 1441TIP3   OH2 4328   1.233   4.412   2.987
 1441TIP3    H1 4329   1.241   4.484   3.050
 1441TIP3    H2 4330   1.282   4.340   3.026
 1442TIP3   OH2 4331   5.114   1.685   4.227
 1442TIP3    H1 4332   5.158   1.608   4.191
 1442TIP3    H2 4333   5.135   1.684   4.320
 1443TIP3   OH2 4334   4.575   4.005   0.190
 1443TIP3    H1 4335   4.567   3.981   0.282
 1443TIP3    H2 4336   4.555   3.924   0.142
 1444TIP3   OH2 4337   0.486   3.699   3.110
 1444TIP3    H1 4338   0.444   3.635   3.054
 1444TIP3    H2 4339   0.547   3.648   3.164
 1445TIP3   OH2 4340   1.433   2.004   4.420
 1445TIP3    H1 4341   1.500   1.997   4.352
 1445TIP3    H2 4342   1.463   1.943   4.488
 1446TIP3   OH2 4343   0.720   5.650   2.743
 1446TIP3    H1 4344   0.643   5.705   2.730
 1446TIP3    H2 4345   0.745   5.664   2.835
 1447TIP3   OH2 4346   1.325   1.105   1.044
 1447TIP3    H1 4347   1.419   1.095   1.054
 1447TIP3    H2 4348   1.314   1.176   0.981
 1448TIP3   OH2 4349   5.487   5.717   3.830
 1448TIP3    H1 4350   5.466   5.737   3.739
 1448TIP3    H2 4351   5.455   5.792   3.880
 1449TIP3   OH2 4352   5.424   3.700   2.735
 1449TIP3    H1 4353   5.452   3.636   2.800
 1449TIP3    H2 4354   5.472   3.676   2.655
 1450TIP3   OH2 4355   0.268   0.345   2.606
 1450TIP3    H1 4356   0.332   0.365   2.674
 1450TIP3    H2 4357   0.278   0.416   2.542
 1451TIP3   OH2 4358   0.271   0.703   1.367
 1451TIP3    H1 4359   0.338   0.651   1.323
 1451TIP3    H2 4360   0.319   0.767   1.418
 1452TIP3   OH2 4361   2.736   2.001   5.183
 1452TIP3    H1 4362   2.642   1.982   5.186
 1452TIP3    H2 4363   2.748   2.052   5.103
 1453TIP3   OH2 4364   3.136   1.840   0.453
 1453TIP3    H1 4365   3.047   1.827   0.486
 1453TIP3    H2 4366   3.142   1.933   0.435
 1454TIP3   OH2 4367   0.778   0.767   2.505
 1454TIP3    H1 4368   0.729   0.686   2.520
 1454TIP3    H2 4369   0.841   0.745   2.436
 1455TIP3   OH2 4370   2.334   2.242   4.058
 1455TIP3    H1 4371   2.308   2.222   3.968
 1455TIP3    H2 4372   2.369   2.331   4.054
 1456TIP3   OH2 4373   4.787   1.913   1.557
 1456TIP3    H1 4374   4.830   1.999   1.555
 1456TIP3    H2 4375   4.724   1.916   1.486
 1457TIP3   OH2 4376   1.615   5.406   2.325
 1457TIP3    H1 4377   1.683   5.368   2.270
 1457TIP3    H2 4378   1.659   5.427   2.407
 1458TIP3   OH2 4379   1.597   4.380   4.288
 1458TIP3    H1 4380   1.511   4.409   4.258
 1458TIP3    H2 4381   1.658   4.409   4.220
 1459TIP3   OH2 4382   1.772   2.647   1.765
 1459TIP3    H1 4383   1.811   2.716   1.711
 1459TIP3    H2 4384   1.744   2.581   1.701
 1460TIP3   OH2 4385   4.350   4.864   5.127
 1460TIP3    H1 4386   4.325   4.771   5.125
 1460TIP3    H2 4387   4.322   4.895   5.213
 1461TIP3   OH2 4388   4.726   5.255   0.343
 1461TIP3    H1 4389   4.664   5.325   0.324
 1461TIP3    H2 4390   4.701   5.222   0.429
 1462TIP3   OH2 4391   1.618   5.336   0.204
 1462TIP3    H1 4392   1.557   5.398   0.243
 1462TIP3    H2 4393   1.653   5.382   0.127
 1463TIP3   OH2 4394   4.730   3.244   2.494
 1463TIP3    H1 4395   4.822   3.256   2.517
 1463TIP3    H2 4396   4.727   3.158   2.452
 1464TIP3   OH2 4397   2.561   2.435   4.983
 1464TIP3    H1 4398   2.527   2.379   4.913
 1464TIP3    H2 4399   2.595   2.512   4.938
 1465TIP3   OH2 4400   3.651   2.709   4.436
 1465TIP3    H1 4401   3.721   2.662   4.390
 1465TIP3    H2 4402   3.585   2.642   4.454
 1466TIP3   OH2 4403   2.188   3.539   4.901
 1466TIP3    H1 4404   2.162   3.598   4.830
 1466TIP3    H2 4405   2.196   3.453   4.860
 1467TIP3   OH2 4406   5.357   0.544   4.137
 1467TIP3    H1 4407   5.417   0.525   4.065
 1467TIP3    H2 4408   5.403   0.610   4.190
 1468TIP3   OH2 4409   0.979   3.455   2.341
 1468TIP3    H1 4410   0.890   3.490   2.340
 1468TIP3    H2 4411   1.021   3.496   2.266
 1469TIP3   OH2 4412   3.382   2.949   3.969
 1469TIP3    H1 4413   3.376   3.006   3.893
 1469TIP3    H2 4414   3.302   2.968   4.019
 1470TIP3   OH2 4415   4.375   0.707   1.327
 1470TIP3    H1 4416   4.373   0.622   1.285
 1470TIP3    H2 4417   4.301   0.706   1.387
 1471TIP3   OH2 4418   5.526   0.724   4.241
 1471TIP3    H1 4419   5.466   0.784   4.197
 1471TIP3    H2 4420   5.573   0.778   4.304
 1472TIP3   OH2 4421   1.650   4.613   2.272
 1472TIP3    H1 4422   1.733   4.657   2.294
 1472TIP3    H2 4423   1.585   4.683   2.276
 1473TIP3   OH2 4424   4.879   0.806   2.352
 1473TIP3    H1 4425   4.856   0.718   2.323
 1473TIP3    H2 4426   4.842   0.812   2.440
 1474TIP3   OH2 4427   0.865   3.371   0.598
 1474TIP3    H1 4428   0.777   3.362   0.560
 1474TIP3    H2 4429   0.920   3.313   0.546
 1475TIP3   OH2 4430   3.053   0.217   4.787
 1475TIP3    H1 4431   3.053   0.172   4.703
 1475TIP3    H2 4432   3.012   0.155   4.847
 1476TIP3   OH2 4433   0.336   4.297   2.232
 1476TIP3    H1 4434   0.362   4.210   2.203
 1476TIP3    H2 4435   0.415   4.333   2.273
 1477TIP3   OH2 4436   0.627   2.849   4.777
 1477TIP3    H1 4437   0.659   2.762   4.799
 1477TIP3    H2 4438   0.633   2.898   4.860
 1478TIP3   OH2 4439   3.027   3.613   4.141
 1478TIP3    H1 4440   2.959   3.680   4.134
 1478TIP3    H2 4441   3.089   3.635   4.072
 1479TIP3   OH2 4442   2.467   0.916   4.550
 1479TIP3    H1 4443   2.409   0.894   4.623
 1479TIP3    H2 4444   2.549   0.872   4.572
 1480TIP3   OH2 4445   1.584   4.388   3.016
 1480TIP3    H1 4446   1.505   4.335   3.002
 1480TIP3    H2 4447   1.605   4.421   2.929
 1481TIP3   OH2 4448   5.415   1.776   4.320
 1481TIP3    H1 4449   5.468   1.843   4.364
 1481TIP3    H2 4450   5.400   1.811   4.232
 1482TIP3   OH2 4451   0.248   2.094   3.811
 1482TIP3    H1 4452   0.199   2.013   3.804
 1482TIP3    H2 4453   0.311   2.078   3.881
 1483TIP3   OH2 4454   5.402   4.926   1.710
 1483TIP3    H1 4455   5.340   4.854   1.718
 1483TIP3    H2 4456   5.463   4.898   1.642
 1484TIP3   OH2 4457   4.116   0.887   3.444
 1484TIP3    H1 4458   4.169   0.807   3.438
 1484TIP3    H2 4459   4.038   0.860   3.493
 1485TIP3   OH2 4460   0.957   0.623   1.126
 1485TIP3    H1 4461   1.039   0.647   1.083
 1485TIP3    H2 4462   0.980   0.546   1.179
 1486TIP3   OH2 4463   2.469   2.541   4.097
 1486TIP3    H1 4464   2.507   2.527   4.011
 1486TIP3    H2 4465   2.513   2.618   4.131
 1487TIP3   OH2 4466   4.143   1.777   1.407
 1487TIP3    H1 4467   4.214   1.732   1.452
 1487TIP3    H2 4468   4.099   1.828   1.476
 1488TIP3   OH2 4469   2.464   0.891   0.098
 1488TIP3    H1 4470   2.535   0.938   0.143
 1488TIP3    H2 4471   2.462   0.929   0.010
 1489TIP3   OH2 4472   3.169   1.070   2.624
 1489TIP3    H1 4473   3.254   1.039   2.653
 1489TIP3    H2 4474   3.107   1.031   2.687
 1490TIP3   OH2 4475   4.167   2.182   1.646
 1490TIP3    H1 4476   4.257   2.165   1.618
 1490TIP3    H2 4477   4.173   2.262   1.698
 1491TIP3   OH2 4478   5.631   1.241   0.865
 1491TIP3    H1 4479   5.607   1.329   0.837
 1491TIP3    H2 4480   5.675   1.253   0.949
 1492TIP3   OH2 4481   2.548   1.859   2.650
 1492TIP3    H1 4482   2.561   1.897   2.737
 1492TIP3    H2 4483   2.637   1.845   2.617
 1493TIP3   OH2 4484   2.679   4.984   1.500
 1493TIP3    H1 4485   2.686   4.910   1.560
 1493TIP3    H2 4486   2.585   5.006   1.501
 1494TIP3   OH2 4487   5.055   1.449   1.087
 1494TIP3    H1 4488   5.116   1.522   1.102
 1494TIP3    H2 4489   4.977   1.472   1.138
 1495TIP3   OH2 4490   4.558   5.247   1.760
 1495TIP3    H1 4491   4.538   5.295   1.840
 1495TIP3    H2 4492   4.654   5.252   1.753
 1496TIP3   OH2 4493   3.725   2.511   1.002
 1496TIP3    H1 4494   3.661   2.550   1.062
 1496TIP3    H2 4495   3.721   2.567   0.924
 1497TIP3   OH2 4496   4.919   3.159   3.451
 1497TIP3    H1 4497   4.984   3.092   3.471
 1497TIP3    H2 4498   4.914   3.159   3.355
 1498TIP3   OH2 4499   5.643   0.898   4.402
 1498TIP3    H1 4500   5.646   0.878   4.495
 1498TIP3    H2 4501   5.732   0.927   4.380
 1499TIP3   OH2 4502   1.394   5.241   1.378
 1499TIP3    H1 4503   1.350   5.265   1.460
 1499TIP3    H2 4504   1.460   5.178   1.405
 1500TIP3   OH2 4505   5.180   5.623   0.911
 1500TIP3    H1 4506   5.179   5.553   0.976
 1500TIP3    H2 4507   5.102   5.676   0.931
 1501TIP3   OH2 4508   0.657   5.049   4.401
 1501TIP3    H1 4509   0.563   5.051   4.386
 1501TIP3    H2 4510   0.696   5.070   4.316
 1502TIP3   OH2 4511   2.047   2.345   0.130
 1502TIP3    H1 4512   2.015   2.434   0.150
 1502TIP3    H2 4513   2.138   2.358   0.105
 1503TIP3   OH2 4514   0.019   4.834   1.127
 1503TIP3    H1 4515  -0.066   4.846   1.084
 1503TIP3    H2 4516   0.078   4.895   1.081
 1504TIP3   OH2 4517   4.114   0.219   3.570
 1504TIP3    H1 4518   4.038   0.225   3.628
 1504TIP3    H2 4519   4.189   0.242   3.626
 1505TIP3   OH2 4520   0.703   4.830   3.768
 1505TIP3    H1 4521   0.785   4.869   3.799
 1505TIP3    H2 4522   0.674   4.888   3.698
 1506TIP3   OH2 4523   4.280   3.954   4.360
 1506TIP3    H1 4524   4.290   3.902   4.280
 1506TIP3    H2 4525   4.356   3.929   4.413
 1507TIP3   OH2 4526   5.713   5.024   1.923
 1507TIP3    H1 4527   5.735   4.933   1.944
 1507TIP3    H2 4528   5.617   5.024   1.919
 1508TIP3   OH2 4529   0.934   3.472   3.908
 1508TIP3    H1 4530   0.991   3.448   3.981
 1508TIP3    H2 4531   0.849   3.489   3.948
 1509TIP3   OH2 4532   5.283   2.308   4.678
 1509TIP3    H1 4533   5.261   2.368   4.606
 1509TIP3    H2 4534   5.270   2.220   4.641
 1510TIP3   OH2 4535   1.262   2.389   0.552
 1510TIP3    H1 4536   1.274   2.313   0.495
 1510TIP3    H2 4537   1.347   2.401   0.594
 1511TIP3   OH2 4538   3.766   2.712   2.397
 1511TIP3    H1 4539   3.826   2.769   2.348
 1511TIP3    H2 4540   3.679   2.741   2.370
 1512TIP3   OH2 4541   0.108   1.988   0.407
 1512TIP3    H1 4542   0.015   2.003   0.422
 1512TIP3    H2 4543   0.147   1.990   0.495
 1513TIP3   OH2 4544   5.557   5.888   1.098
 1513TIP3    H1 4545   5.515   5.853   1.177
 1513TIP3    H2 4546   5.487   5.933   1.051
 1514TIP3   OH2 4547   3.166   0.735   4.054
 1514TIP3    H1 4548   3.077   0.755   4.027
 1514TIP3    H2 4549   3.211   0.819   4.054
 1515TIP3   OH2 4550   0.918   1.529   1.618
 1515TIP3    H1 4551   0.967   1.451   1.593
 1515TIP3    H2 4552   0.895   1.515   1.710
 1516TIP3   OH2 4553   4.863   4.758   3.605
 1516TIP3    H1 4554   4.952   4.722   3.610
 1516TIP3    H2 4555   4.841   4.780   3.696
 1517TIP3   OH2 4556   0.454   5.622   2.582
 1517TIP3    H1 4557   0.545   5.644   2.559
 1517TIP3    H2 4558   0.422   5.699   2.629
 1518TIP3   OH2 4559   1.756   4.092   2.068
 1518TIP3    H1 4560   1.725   4.106   2.158
 1518TIP3    H2 4561   1.732   4.002   2.048
 1519TIP3   OH2 4562   4.575   4.206   4.372
 1519TIP3    H1 4563   4.521   4.284   4.356
 1519TIP3    H2 4564   4.660   4.228   4.334
 1520TIP3   OH2 4565   2.716   4.772   0.067
 1520TIP3    H1 4566   2.626   4.791   0.090
 1520TIP3    H2 4567   2.713   4.750  -0.027
 1521TIP3   OH2 4568   4.963   3.203   1.246
 1521TIP3    H1 4569   4.884   3.247   1.278
 1521TIP3    H2 4570   4.936   3.111   1.235
 1522TIP3   OH2 4571   4.140   1.903   5.124
 1522TIP3    H1 4572   4.168   1.880   5.212
 1522TIP3    H2 4573   4.057   1.949   5.136
 1523TIP3   OH2 4574   4.003   3.922   1.669
 1523TIP3    H1 4575   4.041   3.854   1.613
 1523TIP3    H2 4576   3.928   3.955   1.619
 1524TIP3   OH2 4577   2.369   1.722   5.001
 1524TIP3    H1 4578   2.452   1.681   4.975
 1524TIP3    H2 4579   2.390   1.766   5.084
 1525TIP3   OH2 4580   3.335   5.992   0.442
 1525TIP3    H1 4581   3.391   5.984   0.519
 1525TIP3    H2 4582   3.305   5.903   0.424
 1526TIP3   OH2 4583   2.242   3.754   1.838
 1526TIP3    H1 4584   2.332   3.780   1.816
 1526TIP3    H2 4585   2.191   3.834   1.828
 1527TIP3   OH2 4586   4.498   0.157   4.867
 1527TIP3    H1 4587   4.569   0.188   4.922
 1527TIP3    H2 4588   4.488   0.226   4.800
 1528TIP3   OH2 4589   3.344   5.394   0.258
 1528TIP3    H1 4590   3.259   5.424   0.225
 1528TIP3    H2 4591   3.323   5.338   0.332
 1529TIP3   OH2 4592   0.168   1.603   3.240
 1529TIP3    H1 4593   0.092   1.658   3.221
 1529TIP3    H2 4594   0.193   1.566   3.156
 1530TIP3   OH2 4595   0.915   2.526   0.505
 1530TIP3    H1 4596   0.882   2.610   0.471
 1530TIP3    H2 4597   0.994   2.510   0.455
 1531TIP3   OH2 4598   6.098   2.876   3.618
 1531TIP3    H1 4599   6.179   2.832   3.646
 1531TIP3    H2 4600   6.115   2.969   3.632
 1532TIP3   OH2 4601   4.281   2.945   1.729
 1532TIP3    H1 4602   4.234   2.991   1.798
 1532TIP3    H2 4603   4.309   3.013   1.668
 1533TIP3   OH2 4604   3.436   5.670   3.818
 1533TIP3    H1 4605   3.480   5.622   3.889
 1533TIP3    H2 4606   3.349   5.688   3.852
 1534TIP3   OH2 4607   3.670   4.301   1.589
 1534TIP3    H1 4608   3.696   4.216   1.623
 1534TIP3    H2 4609   3.606   4.334   1.654
 1535TIP3   OH2 4610   1.301   1.893   4.751
 1535TIP3    H1 4611   1.288   1.986   4.773
 1535TIP3    H2 4612   1.346   1.857   4.828
 1536TIP3   OH2 4613   3.197   4.164   0.568
 1536TIP3    H1 4614   3.155   4.236   0.521
 1536TIP3    H2 4615   3.148   4.157   0.650
 1537TIP3   OH2 4616   2.788   2.028   3.975
 1537TIP3    H1 4617   2.760   2.074   4.055
 1537TIP3    H2 4618   2.711   2.029   3.919
 1538TIP3   OH2 4619   3.205   0.876   0.260
 1538TIP3    H1 4620   3.252   0.825   0.326
 1538TIP3    H2 4621   3.147   0.813   0.218
 1539TIP3   OH2 4622   3.735   4.355   3.493
 1539TIP3    H1 4623   3.725   4.261   3.510
 1539TIP3    H2 4624   3.695   4.368   3.407
 1540TIP3   OH2 4625   2.728   5.633   1.882
 1540TIP3    H1 4626   2.734   5.567   1.813
 1540TIP3    H2 4627   2.808   5.685   1.871
 1541TIP3   OH2 4628   4.356   3.861   5.019
 1541TIP3    H1 4629   4.450   3.872   5.007
 1541TIP3    H2 4630   4.324   3.829   4.935
 1542TIP3   OH2 4631   1.947   5.640   2.250
 1542TIP3    H1 4632   1.878   5.652   2.185
 1542TIP3    H2 4633   1.903   5.648   2.334
 1543TIP3   OH2 4634   5.995   4.717   0.796
 1543TIP3    H1 4635   6.036   4.638   0.830
 1543TIP3    H2 4636   5.963   4.693   0.709
 1544TIP3   OH2 4637   5.326   2.825   3.564
 1544TIP3    H1 4638   5.353   2.833   3.472
 1544TIP3    H2 4639   5.399   2.780   3.606
 1545TIP3   OH2 4640   2.530   3.632   4.678
 1545TIP3    H1 4641   2.584   3.588   4.744
 1545TIP3    H2 4642   2.506   3.715   4.718
 1546TIP3   OH2 4643   2.982   3.947   1.757
 1546TIP3    H1 4644   3.043   4.019   1.769
 1546TIP3    H2 4645   3.027   3.886   1.698
 1547TIP3   OH2 4646   2.072   2.462   1.700
 1547TIP3    H1 4647   2.137   2.395   1.677
 1547TIP3    H2 4648   2.056   2.509   1.619
 1548TIP3   OH2 4649   2.345   4.057   1.955
 1548TIP3    H1 4650   2.270   4.116   1.944
 1548TIP3    H2 4651   2.325   4.006   2.033
 1549TIP3   OH2 4652   3.091   5.868   2.751
 1549TIP3    H1 4653   3.011   5.868   2.803
 1549TIP3    H2 4654   3.062   5.885   2.661
 1550TIP3   OH2 4655   3.306   0.290   4.413
 1550TIP3    H1 4656   3.218   0.328   4.417
 1550TIP3    H2 4657   3.344   0.327   4.334
 1551TIP3   OH2 4658   5.598   2.961   4.489
 1551TIP3    H1 4659   5.595   3.050   4.525
 1551TIP3    H2 4660   5.631   2.907   4.561
 1552TIP3   OH2 4661   4.342   5.621   3.195
 1552TIP3    H1 4662   4.415   5.640   3.253
 1552TIP3    H2 4663   4.332   5.526   3.199
 1553TIP3   OH2 4664   5.874   0.073   3.163
 1553TIP3    H1 4665   5.842   0.130   3.092
 1553TIP3    H2 4666   5.899   0.134   3.232
 1554TIP3   OH2 4667   4.804   3.597   1.731
 1554TIP3    H1 4668   4.861   3.605   1.655
 1554TIP3    H2 4669   4.757   3.515   1.718
 1555TIP3   OH2 4670   1.533   2.109   3.736
 1555TIP3    H1 4671   1.601   2.064   3.686
 1555TIP3    H2 4672   1.567   2.197   3.749
 1556TIP3   OH2 4673   0.499   2.860   2.037
 1556TIP3    H1 4674   0.578   2.866   1.983
 1556TIP3    H2 4675   0.434   2.913   1.991
 1557TIP3   OH2 4676   2.401   4.469   1.512
 1557TIP3    H1 4677   2.346   4.425   1.447
 1557TIP3    H2 4678   2.432   4.399   1.570
 1558TIP3   OH2 4679   1.747   1.865   5.059
 1558TIP3    H1 4680   1.840   1.883   5.077
 1558TIP3    H2 4681   1.709   1.950   5.041
 1559TIP3   OH2 4682   0.724   5.377   3.791
 1559TIP3    H1 4683   0.665   5.438   3.835
 1559TIP3    H2 4684   0.804   5.379   3.844
 1560TIP3   OH2 4685   5.107   2.584   4.416
 1560TIP3    H1 4686   5.056   2.649   4.368
 1560TIP3    H2 4687   5.072   2.586   4.504
 1561TIP3   OH2 4688   1.102   3.481   1.152
 1561TIP3    H1 4689   1.026   3.426   1.132
 1561TIP3    H2 4690   1.082   3.566   1.113
 1562TIP3   OH2 4691   3.413   0.357   4.164
 1562TIP3    H1 4692   3.376   0.427   4.111
 1562TIP3    H2 4693   3.498   0.391   4.193
 1563TIP3   OH2 4694   0.046   0.537   1.495
 1563TIP3    H1 4695   0.128   0.574   1.462
 1563TIP3    H2 4696   0.067   0.445   1.514
 1564TIP3   OH2 4697   4.426   4.759   2.912
 1564TIP3    H1 4698   4.357   4.716   2.962
 1564TIP3    H2 4699   4.384   4.837   2.875
 1565TIP3   OH2 4700   1.109   5.159   2.308
 1565TIP3    H1 4701   1.204   5.164   2.320
 1565TIP3    H2 4702   1.098   5.110   2.226
 1566TIP3   OH2 4703   3.226   0.744   3.343
 1566TIP3    H1 4704   3.234   0.828   3.299
 1566TIP3    H2 4705   3.295   0.745   3.409
 1567TIP3   OH2 4706   4.384   3.098   4.420
 1567TIP3    H1 4707   4.335   3.055   4.349
 1567TIP3    H2 4708   4.342   3.183   4.430
 1568TIP3   OH2 4709   3.052   3.382   3.328
 1568TIP3    H1 4710   2.987   3.332   3.378
 1568TIP3    H2 4711   3.061   3.464   3.377
 1569TIP3   OH2 4712   1.611   0.269   4.939
 1569TIP3    H1 4713   1.601   0.347   4.885
 1569TIP3    H2 4714   1.605   0.300   5.029
 1570TIP3   OH2 4715   0.424   1.512   0.593
 1570TIP3    H1 4716   0.393   1.433   0.638
 1570TIP3    H2 4717   0.344   1.559   0.569
 1571TIP3   OH2 4718   2.904   3.451   0.495
 1571TIP3    H1 4719   2.993   3.436   0.464
 1571TIP3    H2 4720   2.893   3.546   0.493
 1572TIP3   OH2 4721   4.174   4.665   2.543
 1572TIP3    H1 4722   4.140   4.637   2.628
 1572TIP3    H2 4723   4.097   4.683   2.490
 1573TIP3   OH2 4724   0.126   0.152   2.459
 1573TIP3    H1 4725   0.104   0.171   2.368
 1573TIP3    H2 4726   0.186   0.221   2.484
 1574TIP3   OH2 4727   2.703   5.274   5.112
 1574TIP3    H1 4728   2.710   5.239   5.200
 1574TIP3    H2 4729   2.640   5.346   5.120
 1575TIP3   OH2 4730   6.048   2.500   1.875
 1575TIP3    H1 4731   6.076   2.537   1.791
 1575TIP3    H2 4732   6.084   2.411   1.875
 1576TIP3   OH2 4733   4.335   5.417   0.646
 1576TIP3    H1 4734   4.332   5.503   0.606
 1576TIP3    H2 4735   4.328   5.355   0.573
 1577TIP3   OH2 4736   1.649   3.849   2.020
 1577TIP3    H1 4737   1.561   3.875   1.993
 1577TIP3    H2 4738   1.662   3.763   1.981
 1578TIP3   OH2 4739   5.673   5.089   4.174
 1578TIP3    H1 4740   5.741   5.127   4.229
 1578TIP3    H2 4741   5.711   5.090   4.086
 1579TIP3   OH2 4742   5.190   3.751   2.545
 1579TIP3    H1 4743   5.123   3.704   2.594
 1579TIP3    H2 4744   5.270   3.742   2.597
 1580TIP3   OH2 4745   3.807   0.233   4.179
 1580TIP3    H1 4746   3.783   0.326   4.171
 1580TIP3    H2 4747   3.762   0.191   4.105
 1581TIP3   OH2 4748   5.943   0.248   2.683
 1581TIP3    H1 4749   5.879   0.294   2.628
 1581TIP3    H2 4750   6.022   0.244   2.630
 1582TIP3   OH2 4751   2.072   1.815   1.872
 1582TIP3    H1 4752   2.002   1.866   1.832
 1582TIP3    H2 4753   2.108   1.871   1.940
 1583TIP3   OH2 4754   5.127   2.423   1.018
 1583TIP3    H1 4755   5.047   2.474   1.027
 1583TIP3    H2 4756   5.098   2.332   1.024
 1584TIP3   OH2 4757   3.275   5.322   3.799
 1584TIP3    H1 4758   3.238   5.246   3.843
 1584TIP3    H2 4759   3.362   5.295   3.771
 1585TIP3   OH2 4760   5.623   2.155   3.387
 1585TIP3    H1 4761   5.604   2.207   3.309
 1585TIP3    H2 4762   5.683   2.087   3.357
 1586TIP3   OH2 4763   3.217   1.493   0.155
 1586TIP3    H1 4764   3.212   1.576   0.108
 1586TIP3    H2 4765   3.242   1.517   0.244
 1587TIP3   OH2 4766   1.041   3.087   3.696
 1587TIP3    H1 4767   1.099   3.012   3.686
 1587TIP3    H2 4768   1.065   3.126   3.780
 1588TIP3   OH2 4769   5.462   5.939   2.978
 1588TIP3    H1 4770   5.391   5.878   2.960
 1588TIP3    H2 4771   5.533   5.911   2.921
 1589TIP3   OH2 4772   1.554   2.172   4.887
 1589TIP3    H1 4773   1.609   2.250   4.879
 1589TIP3    H2 4774   1.464   2.205   4.883
 1590TIP3   OH2 4775   0.145   2.764   4.617
 1590TIP3    H1 4776   0.073   2.815   4.654
 1590TIP3    H2 4777   0.117   2.673   4.625
 1591TIP3   OH2 4778   0.893   0.885   1.353
 1591TIP3    H1 4779   0.806   0.923   1.345
 1591TIP3    H2 4780   0.945   0.951   1.398
 1592TIP3   OH2 4781   3.851   1.321   2.631
 1592TIP3    H1 4782   3.855   1.242   2.686
 1592TIP3    H2 4783   3.809   1.387   2.687
 1593TIP3   OH2 4784   0.060   2.393   3.319
 1593TIP3    H1 4785   0.137   2.419   3.268
 1593TIP3    H2 4786   0.086   2.312   3.361
 1594TIP3   OH2 4787   4.265   2.765   2.339
 1594TIP3    H1 4788   4.256   2.678   2.380
 1594TIP3    H2 4789   4.357   2.768   2.310
 1595TIP3   OH2 4790   3.690   0.100   4.395
 1595TIP3    H1 4791   3.711   0.168   4.330
 1595TIP3    H2 4792   3.732   0.130   4.475
 1596TIP3   OH2 4793   2.254   0.597   1.443
 1596TIP3    H1 4794   2.272   0.691   1.434
 1596TIP3    H2 4795   2.254   0.581   1.538
 1597TIP3   OH2 4796   3.130   2.770   0.579
 1597TIP3    H1 4797   3.107   2.779   0.672
 1597TIP3    H2 4798   3.077   2.836   0.535
 1598TIP3   OH2 4799   2.273   4.304   1.299
 1598TIP3    H1 4800   2.273   4.365   1.224
 1598TIP3    H2 4801   2.262   4.218   1.259
 1599TIP3   OH2 4802   3.886   2.591   4.316
 1599TIP3    H1 4803   3.886   2.609   4.221
 1599TIP3    H2 4804   3.879   2.496   4.323
 1600TIP3   OH2 4805   1.139   4.970   3.386
 1600TIP3    H1 4806   1.132   4.883   3.347
 1600TIP3    H2 4807   1.065   4.976   3.446
 1601TIP3   OH2 4808   5.685   4.766   3.045
 1601TIP3    H1 4809   5.673   4.796   3.135
 1601TIP3    H2 4810   5.609   4.802   2.998
 1602TIP3   OH2 4811   5.820   2.491   4.487
 1602TIP3    H1 4812   5.779   2.415   4.529
 1602TIP3    H2 4813   5.795   2.565   4.543
 1603TIP3   OH2 4814   5.181   5.396   0.168
 1603TIP3    H1 4815   5.213   5.373   0.256
 1603TIP3    H2 4816   5.212   5.324   0.113
 1604TIP3   OH2 4817   4.395   0.457   4.357
 1604TIP3    H1 4818   4.405   0.552   4.347
 1604TIP3    H2 4819   4.445   0.420   4.285
 1605TIP3   OH2 4820   2.198   5.669   2.913
 1605TIP3    H1 4821   2.252   5.655   2.991
 1605TIP3    H2 4822   2.244   5.737   2.864
 1606TIP3   OH2 4823   0.327   3.273   0.647
 1606TIP3    H1 4824   0.317   3.367   0.636
 1606TIP3    H2 4825   0.324   3.259   0.742
 1607TIP3   OH2 4826   4.148   3.805   4.809
 1607TIP3    H1 4827   4.084   3.864   4.769
 1607TIP3    H2 4828   4.116   3.717   4.788
 1608TIP3   OH2 4829   4.018   4.009   1.933
 1608TIP3    H1 4830   4.016   4.018   1.838
 1608TIP3    H2 4831   4.052   4.093   1.964
 1609TIP3   OH2 4832   3.929   3.568   4.505
 1609TIP3    H1 4833   3.914   3.648   4.556
 1609TIP3    H2 4834   3.851   3.514   4.522
 1610TIP3   OH2 4835   0.996   3.399   1.808
 1610TIP3    H1 4836   0.914   3.433   1.844
 1610TIP3    H2 4837   1.020   3.461   1.740
 1611TIP3   OH2 4838   0.946   0.941   0.717
 1611TIP3    H1 4839   1.032   0.982   0.725
 1611TIP3    H2 4840   0.910   0.976   0.636
 1612TIP3   OH2 4841   5.804   1.956   2.466
 1612TIP3    H1 4842   5.721   1.947   2.418
 1612TIP3    H2 4843   5.785   1.920   2.552
 1613TIP3   OH2 4844   5.550   1.601   1.561
 1613TIP3    H1 4845   5.592   1.615   1.646
 1613TIP3    H2 4846   5.485   1.671   1.554
 1614TIP3   OH2 4847   2.717   1.886   1.273
 1614TIP3    H1 4848   2.650   1.946   1.306
 1614TIP3    H2 4849   2.721   1.816   1.338
 1615TIP3   OH2 4850   0.242   1.122   0.311
 1615TIP3    H1 4851   0.326   1.111   0.355
 1615TIP3    H2 4852   0.262   1.109   0.218
 1616TIP3   OH2 4853   2.132   2.222   3.493
 1616TIP3    H1 4854   2.124   2.295   3.554
 1616TIP3    H2 4855   2.042   2.205   3.464
 1617TIP3   OH2 4856   0.145   3.136   2.115
 1617TIP3    H1 4857   0.158   3.117   2.022
 1617TIP3    H2 4858   0.159   3.053   2.159
 1618TIP3   OH2 4859   3.468   2.459   3.143
 1618TIP3    H1 4860   3.400   2.406   3.101
 1618TIP3    H2 4861   3.506   2.510   3.072
 1619TIP3   OH2 4862   5.953   4.821   2.574
 1619TIP3    H1 4863   5.931   4.798   2.483
 1619TIP3    H2 4864   6.048   4.816   2.577
 1620TIP3   OH2 4865   1.786   1.510   4.907
 1620TIP3    H1 4866   1.695   1.498   4.934
 1620TIP3    H2 4867   1.834   1.447   4.961
 1621TIP3   OH2 4868   2.374   0.452   0.897
 1621TIP3    H1 4869   2.425   0.402   0.834
 1621TIP3    H2 4870   2.307   0.391   0.927
 1622TIP3   OH2 4871   4.793   0.966   3.361
 1622TIP3    H1 4872   4.867   0.918   3.399
 1622TIP3    H2 4873   4.821   0.987   3.272
 1623TIP3   OH2 4874   5.979   5.376   2.061
 1623TIP3    H1 4875   6.055   5.426   2.032
 1623TIP3    H2 4876   5.917   5.442   2.092
 1624TIP3   OH2 4877   3.035   0.038   3.365
 1624TIP3    H1 4878   3.066   0.126   3.387
 1624TIP3    H2 4879   2.969   0.052   3.297
 1625TIP3   OH2 4880   1.099   1.920   4.066
 1625TIP3    H1 4881   1.190   1.949   4.070
 1625TIP3    H2 4882   1.056   1.964   4.139
 1626TIP3   OH2 4883   5.408   3.301   4.935
 1626TIP3    H1 4884   5.462   3.248   4.994
 1626TIP3    H2 4885   5.437   3.275   4.847
 1627TIP3   OH2 4886   0.514   4.512   4.904
 1627TIP3    H1 4887   0.542   4.548   4.989
 1627TIP3    H2 4888   0.594   4.475   4.867
 1628TIP3   OH2 4889   6.167   0.721   3.522
 1628TIP3    H1 4890   6.246   0.677   3.553
 1628TIP3    H2 4891   6.196   0.810   3.500
 1629TIP3   OH2 4892   5.372   5.472   3.314
 1629TIP3    H1 4893   5.362   5.562   3.282
 1629TIP3    H2 4894   5.318   5.469   3.394
 1630TIP3   OH2 4895   0.394   3.570   2.117
 1630TIP3    H1 4896   0.328   3.507   2.089
 1630TIP3    H2 4897   0.389   3.570   2.213
 1631TIP3   OH2 4898   5.996   2.803   4.676
 1631TIP3    H1 4899   5.930   2.785   4.609
 1631TIP3    H2 4900   5.966   2.884   4.718
 1632TIP3   OH2 4901   6.002   5.570   3.781
 1632TIP3    H1 4902   6.043   5.583   3.695
 1632TIP3    H2 4903   6.019   5.651   3.828
 1633TIP3   OH2 4904   4.831   1.213   1.079
 1633TIP3    H1 4905   4.784   1.282   1.032
 1633TIP3    H2 4906   4.789   1.132   1.052
 1634TIP3   OH2 4907   0.079   2.687   2.085
 1634TIP3    H1 4908   0.060   2.596   2.106
 1634TIP3    H2 4909   0.149   2.682   2.020
 1635TIP3   OH2 4910   1.342   3.857   3.827
 1635TIP3    H1 4911   1.249   3.871   3.811
 1635TIP3    H2 4912   1.346   3.771   3.868
 1636TIP3   OH2 4913   1.016   1.619   0.962
 1636TIP3    H1 4914   1.105   1.616   0.926
 1636TIP3    H2 4915   0.962   1.652   0.890
 1637TIP3   OH2 4916   3.844   1.604   3.233
 1637TIP3    H1 4917   3.926   1.605   3.185
 1637TIP3    H2 4918   3.851   1.677   3.295
 1638TIP3   OH2 4919   6.289   1.248   3.264
 1638TIP3    H1 4920   6.297   1.299   3.345
 1638TIP3    H2 4921   6.309   1.311   3.194
 1639TIP3   OH2 4922   1.930   0.350   4.678
 1639TIP3    H1 4923   1.981   0.276   4.714
 1639TIP3    H2 4924   1.970   0.367   4.593
 1640TIP3   OH2 4925   2.694   0.284   4.862
 1640TIP3    H1 4926   2.777   0.299   4.907
 1640TIP3    H2 4927   2.629   0.328   4.917
 1641TIP3   OH2 4928   4.870   4.468   3.608
 1641TIP3    H1 4929   4.842   4.515   3.529
 1641TIP3    H2 4930   4.916   4.391   3.575
 1642TIP3   OH2 4931   2.401   1.745   3.863
 1642TIP3    H1 4932   2.345   1.757   3.787
 1642TIP3    H2 4933   2.340   1.733   3.936
 1643TIP3   OH2 4934   5.927   3.059   4.756
 1643TIP3    H1 4935   5.922   3.116   4.680
 1643TIP3    H2 4936   5.920   3.119   4.831
 1644TIP3   OH2 4937   5.501   0.539   2.996
 1644TIP3    H1 4938   5.548   0.581   3.068
 1644TIP3    H2 4939   5.569   0.499   2.943
 1645TIP3   OH2 4940   3.740   4.512   1.922
 1645TIP3    H1 4941   3.664   4.468   1.960
 1645TIP3    H2 4942   3.793   4.442   1.885
 1646TIP3   OH2 4943   5.729   1.698   0.670
 1646TIP3    H1 4944   5.675   1.766   0.629
 1646TIP3    H2 4945   5.772   1.654   0.596
 1647TIP3   OH2 4946   1.457   3.855   1.324
 1647TIP3    H1 4947   1.425   3.774   1.285
 1647TIP3    H2 4948   1.421   3.925   1.268
 1648TIP3   OH2 4949   5.284   0.008   1.780
 1648TIP3    H1 4950   5.291   0.000   1.685
 1648TIP3    H2 4951   5.307   0.099   1.799
 1649TIP3   OH2 4952   4.109   0.529   4.032
 1649TIP3    H1 4953   4.185   0.582   4.006
 1649TIP3    H2 4954   4.128   0.442   3.997
 1650TIP3   OH2 4955   0.554   2.812   3.486
 1650TIP3    H1 4956   0.541   2.903   3.512
 1650TIP3    H2 4957   0.519   2.761   3.559
 1651TIP3   OH2 4958   2.086   3.383   3.364
 1651TIP3    H1 4959   2.040   3.393   3.447
 1651TIP3    H2 4960   2.166   3.336   3.387
 1652TIP3   OH2 4961   4.151   2.853   0.567
 1652TIP3    H1 4962   4.202   2.896   0.498
 1652TIP3    H2 4963   4.143   2.762   0.537
 1653TIP3   OH2 4964   2.107   1.931   0.510
 1653TIP3    H1 4965   2.130   1.855   0.563
 1653TIP3    H2 4966   2.049   1.982   0.566
 1654TIP3   OH2 4967   0.396   5.187   3.606
 1654TIP3    H1 4968   0.305   5.172   3.579
 1654TIP3    H2 4969   0.420   5.270   3.565
 1655TIP3   OH2 4970   3.620   2.753   4.009
 1655TIP3    H1 4971   3.604   2.847   4.001
 1655TIP3    H2 4972   3.616   2.720   3.919
 1656TIP3   OH2 4973   2.593   3.466   1.384
 1656TIP3    H1 4974   2.638   3.466   1.469
 1656TIP3    H2 4975   2.500   3.466   1.408
 1657TIP3   OH2 4976   2.118   3.927   4.346
 1657TIP3    H1 4977   2.209   3.906   4.327
 1657TIP3    H2 4978   2.109   4.020   4.322
 1658TIP3   OH2 4979   3.335   5.492   3.280
 1658TIP3    H1 4980   3.396   5.517   3.210
 1658TIP3    H2 4981   3.330   5.396   3.275
 1659TIP3   OH2 4982   4.534   3.207   5.106
 1659TIP3    H1 4983   4.602   3.204   5.038
 1659TIP3    H2 4984   4.469   3.269   5.072
 1660TIP3   OH2 4985   2.525   5.619   0.495
 1660TIP3    H1 4986   2.608   5.575   0.476
 1660TIP3    H2 4987   2.508   5.672   0.417
 1661TIP3   OH2 4988   2.486   5.850   0.328
 1661TIP3    H1 4989   2.531   5.934   0.337
 1661TIP3    H2 4990   2.394   5.870   0.344
 1662TIP3   OH2 4991   0.806   1.772   3.725
 1662TIP3    H1 4992   0.886   1.817   3.753
 1662TIP3    H2 4993   0.769   1.737   3.806
 1663TIP3   OH2 4994   2.549   5.466   0.791
 1663TIP3    H1 4995   2.458   5.439   0.795
 1663TIP3    H2 4996   2.559   5.503   0.703
 1664TIP3   OH2 4997   2.302   0.721   0.793
 1664TIP3    H1 4998   2.216   0.691   0.763
 1664TIP3    H2 4999   2.353   0.640   0.806
 1665TIP3   OH2 5000   1.677   3.888   3.549
 1665TIP3    H1 5001   1.749   3.839   3.588
 1665TIP3    H2 5002   1.684   3.976   3.586
 1666TIP3   OH2 5003   4.020   3.204   4.526
 1666TIP3    H1 5004   4.033   3.110   4.517
 1666TIP3    H2 5005   3.965   3.213   4.604
 1667TIP3   OH2 5006   1.583   4.488   2.747
 1667TIP3    H1 5007   1.671   4.487   2.709
 1667TIP3    H2 5008   1.529   4.443   2.682
 1668TIP3   OH2 5009   1.146   0.202   3.105
 1668TIP3    H1 5010   1.057   0.183   3.076
 1668TIP3    H2 5011   1.202   0.156   3.042
 1669TIP3   OH2 5012   2.111   1.029   1.501
 1669TIP3    H1 5013   2.204   1.023   1.481
 1669TIP3    H2 5014   2.094   0.957   1.562
 1670TIP3   OH2 5015   2.299   2.055   0.943
 1670TIP3    H1 5016   2.231   2.093   0.999
 1670TIP3    H2 5017   2.328   1.977   0.990
 1671TIP3   OH2 5018   1.639   5.591   0.559
 1671TIP3    H1 5019   1.603   5.650   0.493
 1671TIP3    H2 5020   1.563   5.542   0.592
 1672TIP3   OH2 5021   1.888   3.103   1.330
 1672TIP3    H1 5022   1.799   3.138   1.321
 1672TIP3    H2 5023   1.887   3.022   1.280
 1673TIP3   OH2 5024   0.787   3.882   1.933
 1673TIP3    H1 5025   0.845   3.945   1.974
 1673TIP3    H2 5026   0.735   3.847   2.005
 1674TIP3   OH2 5027   2.235   5.795   4.180
 1674TIP3    H1 5028   2.317   5.843   4.168
 1674TIP3    H2 5029   2.219   5.754   4.095
 1675TIP3   OH2 5030   4.761   2.729   0.150
 1675TIP3    H1 5031   4.669   2.709   0.133
 1675TIP3    H2 5032   4.809   2.663   0.098
 1676TIP3   OH2 5033   5.106   4.996   1.107
 1676TIP3    H1 5034   5.019   5.034   1.092
 1676TIP3    H2 5035   5.167   5.069   1.092
 1677TIP3   OH2 5036   6.332   1.891   0.678
 1677TIP3    H1 5037   6.267   1.955   0.709
 1677TIP3    H2 5038   6.279   1.814   0.655
 1678TIP3   OH2 5039   1.850   1.771   2.445
 1678TIP3    H1 5040   1.813   1.856   2.468
 1678TIP3    H2 5041   1.904   1.747   2.520
 1679TIP3   OH2 5042   2.731   2.989   4.806
 1679TIP3    H1 5043   2.771   2.980   4.893
 1679TIP3    H2 5044   2.802   2.967   4.745
 1680TIP3   OH2 5045   5.731   3.851   1.203
 1680TIP3    H1 5046   5.665   3.879   1.140
 1680TIP3    H2 5047   5.680   3.814   1.275
 1681TIP3   OH2 5048   0.901   4.240   1.670
 1681TIP3    H1 5049   0.959   4.316   1.678
 1681TIP3    H2 5050   0.865   4.248   1.582
 1682TIP3   OH2 5051   1.521   0.858   3.902
 1682TIP3    H1 5052   1.526   0.781   3.959
 1682TIP3    H2 5053   1.438   0.849   3.856
 1683TIP3   OH2 5054   5.311   2.911   3.868
 1683TIP3    H1 5055   5.365   2.953   3.935
 1683TIP3    H2 5056   5.348   2.941   3.785
 1684TIP3   OH2 5057   1.668   0.938   2.795
 1684TIP3    H1 5058   1.713   1.020   2.817
 1684TIP3    H2 5059   1.575   0.962   2.790
 1685TIP3   OH2 5060   0.490   0.674   0.289
 1685TIP3    H1 5061   0.498   0.761   0.328
 1685TIP3    H2 5062   0.526   0.615   0.354
 1686TIP3   OH2 5063   2.559   4.658   2.394
 1686TIP3    H1 5064   2.528   4.672   2.305
 1686TIP3    H2 5065   2.586   4.745   2.424
 1687TIP3   OH2 5066   3.265   4.552   4.466
 1687TIP3    H1 5067   3.352   4.589   4.453
 1687TIP3    H2 5068   3.265   4.520   4.556
 1688TIP3   OH2 5069   2.019   3.094   1.557
 1688TIP3    H1 5070   1.970   3.094   1.475
 1688TIP3    H2 5071   1.997   3.176   1.600
 1689TIP3   OH2 5072   4.236   1.531   5.086
 1689TIP3    H1 5073   4.290   1.609   5.069
 1689TIP3    H2 5074   4.170   1.562   5.148
 1690TIP3   OH2 5075   1.730   0.217   0.655
 1690TIP3    H1 5076   1.742   0.122   0.663
 1690TIP3    H2 5077   1.674   0.227   0.578
 1691TIP3   OH2 5078   3.735   0.116   2.585
 1691TIP3    H1 5079   3.708   0.207   2.575
 1691TIP3    H2 5080   3.740   0.082   2.495
 1692TIP3   OH2 5081   1.523   1.690   0.813
 1692TIP3    H1 5082   1.518   1.622   0.880
 1692TIP3    H2 5083   1.579   1.654   0.745
 1693TIP3   OH2 5084   0.485   1.599   4.317
 1693TIP3    H1 5085   0.453   1.689   4.320
 1693TIP3    H2 5086   0.547   1.593   4.390
 1694TIP3   OH2 5087   5.557   4.194   2.604
 1694TIP3    H1 5088   5.643   4.161   2.578
 1694TIP3    H2 5089   5.496   4.125   2.580
 1695TIP3   OH2 5090   3.474   4.004   1.576
 1695TIP3    H1 5091   3.399   4.037   1.527
 1695TIP3    H2 5092   3.437   3.974   1.659
 1696TIP3   OH2 5093   5.566   5.363   2.934
 1696TIP3    H1 5094   5.571   5.275   2.973
 1696TIP3    H2 5095   5.656   5.383   2.909
 1697TIP3   OH2 5096   4.936   0.921   0.376
 1697TIP3    H1 5097   5.024   0.923   0.412
 1697TIP3    H2 5098   4.892   0.850   0.424
 1698TIP3   OH2 5099   3.822   1.072   1.546
 1698TIP3    H1 5100   3.811   1.154   1.498
 1698TIP3    H2 5101   3.739   1.059   1.592
 1699TIP3   OH2 5102   3.143   1.768   0.131
 1699TIP3    H1 5103   3.050   1.747   0.119
 1699TIP3    H2 5104   3.145   1.821   0.211
 1700TIP3   OH2 5105   6.062   3.587   0.119
 1700TIP3    H1 5106   6.055   3.522   0.049
 1700TIP3    H2 5107   6.035   3.669   0.079
 1701TIP3   OH2 5108   1.802   1.080   3.411
 1701TIP3    H1 5109   1.709   1.068   3.428
 1701TIP3    H2 5110   1.817   1.174   3.423
 1702TIP3   OH2 5111   3.974   5.214   0.732
 1702TIP3    H1 5112   4.038   5.231   0.801
 1702TIP3    H2 5113   3.893   5.194   0.779
 1703TIP3   OH2 5114   5.110   5.573   0.516
 1703TIP3    H1 5115   5.184   5.512   0.516
 1703TIP3    H2 5116   5.131   5.636   0.585
 1704TIP3   OH2 5117   2.138   4.227   1.927
 1704TIP3    H1 5118   2.104   4.189   1.846
 1704TIP3    H2 5119   2.205   4.289   1.899
 1705TIP3   OH2 5120   3.436   0.951   4.292
 1705TIP3    H1 5121   3.468   0.882   4.234
 1705TIP3    H2 5122   3.354   0.916   4.328
 1706TIP3   OH2 5123   0.561   1.987   4.620
 1706TIP3    H1 5124   0.593   1.965   4.707
 1706TIP3    H2 5125   0.501   1.915   4.598
 1707TIP3   OH2 5126   1.791   4.410   1.057
 1707TIP3    H1 5127   1.695   4.419   1.055
 1707TIP3    H2 5128   1.808   4.332   1.005
 1708TIP3   OH2 5129   0.443   0.714   2.588
 1708TIP3    H1 5130   0.472   0.655   2.518
 1708TIP3    H2 5131   0.522   0.730   2.640
 1709TIP3   OH2 5132   4.364   2.690   2.028
 1709TIP3    H1 5133   4.342   2.645   2.109
 1709TIP3    H2 5134   4.420   2.628   1.980
 1710TIP3   OH2 5135   1.359   1.805   1.862
 1710TIP3    H1 5136   1.372   1.711   1.869
 1710TIP3    H2 5137   1.414   1.832   1.788
 1711TIP3   OH2 5138   1.343   4.242   0.863
 1711TIP3    H1 5139   1.247   4.240   0.864
 1711TIP3    H2 5140   1.366   4.230   0.771
 1712TIP3   OH2 5141   2.691   3.250   1.608
 1712TIP3    H1 5142   2.721   3.232   1.697
 1712TIP3    H2 5143   2.598   3.271   1.617
 1713TIP3   OH2 5144   0.940   5.437   3.938
 1713TIP3    H1 5145   1.016   5.380   3.949
 1713TIP3    H2 5146   0.931   5.482   4.022
 1714TIP3   OH2 5147   1.633   5.836   4.026
 1714TIP3    H1 5148   1.658   5.762   3.970
 1714TIP3    H2 5149   1.666   5.813   4.113
 1715TIP3   OH2 5150   1.223   4.176   1.504
 1715TIP3    H1 5151   1.290   4.216   1.558
 1715TIP3    H2 5152   1.155   4.243   1.495
 1716TIP3   OH2 5153   2.292   0.063   2.189
 1716TIP3    H1 5154   2.215   0.112   2.218
 1716TIP3    H2 5155   2.257  -0.021   2.160
 1717TIP3   OH2 5156   4.583   2.406   5.100
 1717TIP3    H1 5157   4.610   2.322   5.064
 1717TIP3    H2 5158   4.643   2.421   5.173
 1718TIP3   OH2 5159   2.856   1.646   1.440
 1718TIP3    H1 5160   2.928   1.703   1.415
 1718TIP3    H2 5161   2.897   1.577   1.491
 1719TIP3   OH2 5162   1.804   3.348   4.576
 1719TIP3    H1 5163   1.895   3.321   4.562
 1719TIP3    H2 5164   1.810   3.419   4.640
 1720TIP3   OH2 5165   0.430   0.183   1.957
 1720TIP3    H1 5166   0.432   0.236   2.036
 1720TIP3    H2 5167   0.456   0.243   1.887
 1721TIP3   OH2 5168   4.233   3.946   3.861
 1721TIP3    H1 5169   4.277   3.991   3.788
 1721TIP3    H2 5170   4.296   3.952   3.933
 1722TIP3   OH2 5171   1.088   5.895   0.085
 1722TIP3    H1 5172   1.012   5.853   0.127
 1722TIP3    H2 5173   1.120   5.956   0.151
 1723TIP3   OH2 5174   6.050   2.646   0.791
 1723TIP3    H1 5175   6.009   2.730   0.772
 1723TIP3    H2 5176   6.031   2.592   0.714
 1724TIP3   OH2 5177   2.674   2.619   3.083
 1724TIP3    H1 5178   2.623   2.571   3.147
 1724TIP3    H2 5179   2.722   2.551   3.035
 1725TIP3   OH2 5180   3.981   0.735   2.997
 1725TIP3    H1 5181   3.911   0.795   2.972
 1725TIP3    H2 5182   4.050   0.791   3.033
 1726TIP3   OH2 5183   5.913   2.503   0.600
 1726TIP3    H1 5184   5.879   2.546   0.521
 1726TIP3    H2 5185   5.836   2.491   0.655
 1727TIP3   OH2 5186   5.384   5.529   2.797
 1727TIP3    H1 5187   5.436   5.461   2.841
 1727TIP3    H2 5188   5.404   5.517   2.704
 1728TIP3   OH2 5189   3.529   2.966   3.428
 1728TIP3    H1 5190   3.556   2.882   3.391
 1728TIP3    H2 5191   3.511   2.947   3.521
 1729TIP3   OH2 5192   4.796   2.214   3.179
 1729TIP3    H1 5193   4.775   2.151   3.248
 1729TIP3    H2 5194   4.730   2.196   3.111
 1730TIP3   OH2 5195   1.374   5.522   0.621
 1730TIP3    H1 5196   1.309   5.582   0.584
 1730TIP3    H2 5197   1.324   5.468   0.682
 1731TIP3   OH2 5198   0.249   4.488   0.899
 1731TIP3    H1 5199   0.198   4.408   0.888
 1731TIP3    H2 5200   0.195   4.556   0.858
 1732TIP3   OH2 5201   0.457   5.013   0.582
 1732TIP3    H1 5202   0.513   5.006   0.660
 1732TIP3    H2 5203   0.471   4.931   0.536
 1733TIP3   OH2 5204   5.842   5.499   4.237
 1733TIP3    H1 5205   5.796   5.484   4.154
 1733TIP3    H2 5206   5.773   5.527   4.297
 1734TIP3   OH2 5207   1.417   3.171   4.054
 1734TIP3    H1 5208   1.427   3.222   3.974
 1734TIP3    H2 5209   1.414   3.236   4.124
 1735TIP3   OH2 5210   6.064   0.804   3.089
 1735TIP3    H1 5211   6.087   0.875   3.149
 1735TIP3    H2 5212   6.036   0.733   3.146
 1736TIP3   OH2 5213   2.038   3.101   0.977
 1736TIP3    H1 5214   1.986   3.180   0.963
 1736TIP3    H2 5215   2.077   3.113   1.064
 1737TIP3   OH2 5216   2.504   2.828   0.555
 1737TIP3    H1 5217   2.571   2.893   0.531
 1737TIP3    H2 5218   2.552   2.760   0.602
 1738TIP3   OH2 5219   0.207   5.159   5.079
 1738TIP3    H1 5220   0.297   5.192   5.079
 1738TIP3    H2 5221   0.212   5.077   5.127
 1739TIP3   OH2 5222   4.033   0.065   4.196
 1739TIP3    H1 5223   3.948   0.099   4.171
 1739TIP3    H2 5224   4.049   0.101   4.283
 1740TIP3   OH2 5225   3.992   2.450   0.149
 1740TIP3    H1 5226   3.954   2.403   0.223
 1740TIP3    H2 5227   4.080   2.414   0.139
 1741TIP3   OH2 5228   0.546   3.069   3.587
 1741TIP3    H1 5229   0.536   3.139   3.523
 1741TIP3    H2 5230   0.618   3.098   3.643
 1742TIP3   OH2 5231   1.335   0.382   4.794
 1742TIP3    H1 5232   1.263   0.378   4.857
 1742TIP3    H2 5233   1.347   0.291   4.767
 1743TIP3   OH2 5234   3.474   3.557   2.587
 1743TIP3    H1 5235   3.464   3.580   2.680
 1743TIP3    H2 5236   3.563   3.525   2.579
 1744TIP3   OH2 5237   5.799   2.373   2.599
 1744TIP3    H1 5238   5.831   2.349   2.685
 1744TIP3    H2 5239   5.743   2.449   2.615
 1745TIP3   OH2 5240   1.437   0.142   4.637
 1745TIP3    H1 5241   1.479   0.227   4.628
 1745TIP3    H2 5242   1.483   0.085   4.575
 1746TIP3   OH2 5243   2.112   5.403   3.544
 1746TIP3    H1 5244   2.125   5.377   3.635
 1746TIP3    H2 5245   2.022   5.436   3.541
 1747TIP3   OH2 5246   1.094   1.342   1.460
 1747TIP3    H1 5247   1.168   1.300   1.416
 1747TIP3    H2 5248   1.024   1.342   1.394
 1748TIP3   OH2 5249   3.497   3.092   3.738
 1748TIP3    H1 5250   3.504   3.161   3.803
 1748TIP3    H2 5251   3.462   3.136   3.660
 1749TIP3   OH2 5252   3.315   3.518   3.910
 1749TIP3    H1 5253   3.359   3.549   3.989
 1749TIP3    H2 5254   3.380   3.529   3.840
 1750TIP3   OH2 5255   2.131   2.776   4.698
 1750TIP3    H1 5256   2.173   2.814   4.776
 1750TIP3    H2 5257   2.185   2.701   4.676
 1751TIP3   OH2 5258   5.009   1.812   0.056
 1751TIP3    H1 5259   5.084   1.756   0.076
 1751TIP3    H2 5260   4.935   1.770   0.100
 1752TIP3   OH2 5261   0.422   4.448   2.639
 1752TIP3    H1 5262   0.344   4.409   2.679
 1752TIP3    H2 5263   0.415   4.541   2.656
 1753TIP3   OH2 5264   3.612   4.773   5.182
 1753TIP3    H1 5265   3.581   4.692   5.142
 1753TIP3    H2 5266   3.663   4.816   5.114
 1754TIP3   OH2 5267   3.854   4.105   1.458
 1754TIP3    H1 5268   3.910   4.176   1.487
 1754TIP3    H2 5269   3.835   4.124   1.366
 1755TIP3   OH2 5270   1.980   1.604   4.347
 1755TIP3    H1 5271   1.988   1.600   4.251
 1755TIP3    H2 5272   1.919   1.533   4.368
 1756TIP3   OH2 5273   5.198   4.022   1.267
 1756TIP3    H1 5274   5.242   4.094   1.223
 1756TIP3    H2 5275   5.177   4.055   1.354
 1757TIP3   OH2 5276   4.266   0.018   2.973
 1757TIP3    H1 5277   4.304   0.101   3.003
 1757TIP3    H2 5278   4.257   0.028   2.879
 1758TIP3   OH2 5279   5.614   4.047   2.304
 1758TIP3    H1 5280   5.622   3.953   2.286
 1758TIP3    H2 5281   5.659   4.058   2.388
 1759TIP3   OH2 5282   0.524   3.674   3.787
 1759TIP3    H1 5283   0.597   3.670   3.849
 1759TIP3    H2 5284   0.446   3.675   3.843
 1760TIP3   OH2 5285   1.999   3.637   3.069
 1760TIP3    H1 5286   1.981   3.725   3.035
 1760TIP3    H2 5287   1.951   3.633   3.152
 1761TIP3   OH2 5288   4.925   0.804   3.005
 1761TIP3    H1 5289   4.944   0.885   3.052
 1761TIP3    H2 5290   5.000   0.748   3.023
 1762TIP3   OH2 5291   0.712   0.890   0.251
 1762TIP3    H1 5292   0.696   0.951   0.179
 1762TIP3    H2 5293   0.717   0.804   0.208
 1763TIP3   OH2 5294   6.336   1.458   0.539
 1763TIP3    H1 5295   6.334   1.434   0.632
 1763TIP3    H2 5296   6.263   1.518   0.528
 1764TIP3   OH2 5297   0.892   2.608   0.782
 1764TIP3    H1 5298   0.803   2.609   0.818
 1764TIP3    H2 5299   0.883   2.562   0.699
 1765TIP3   OH2 5300   3.382   4.228   0.193
 1765TIP3    H1 5301   3.470   4.267   0.192
 1765TIP3    H2 5302   3.333   4.279   0.129
 1766TIP3   OH2 5303   0.839   5.388   1.222
 1766TIP3    H1 5304   0.786   5.426   1.151
 1766TIP3    H2 5305   0.922   5.435   1.216
 1767TIP3   OH2 5306   4.235   5.400   2.083
 1767TIP3    H1 5307   4.311   5.452   2.105
 1767TIP3    H2 5308   4.166   5.464   2.064
 1768TIP3   OH2 5309   4.241   4.916   3.909
 1768TIP3    H1 5310   4.249   4.842   3.969
 1768TIP3    H2 5311   4.320   4.968   3.925
 1769TIP3   OH2 5312   4.871   3.718   0.090
 1769TIP3    H1 5313   4.849   3.638   0.138
 1769TIP3    H2 5314   4.925   3.768   0.151
 1770TIP3   OH2 5315   5.858   3.490   4.866
 1770TIP3    H1 5316   5.811   3.560   4.822
 1770TIP3    H2 5317   5.923   3.461   4.802
 1771TIP3   OH2 5318   3.395   1.599   1.783
 1771TIP3    H1 5319   3.432   1.650   1.710
 1771TIP3    H2 5320   3.405   1.508   1.756
 1772TIP3   OH2 5321   4.096   3.566   2.602
 1772TIP3    H1 5322   4.149   3.489   2.583
 1772TIP3    H2 5323   4.151   3.640   2.577
 1773TIP3   OH2 5324   2.154   0.181   3.765
 1773TIP3    H1 5325   2.061   0.189   3.787
 1773TIP3    H2 5326   2.158   0.107   3.705
 1774TIP3   OH2 5327   5.930   2.496   1.238
 1774TIP3    H1 5328   5.900   2.546   1.314
 1774TIP3    H2 5329   5.849   2.466   1.196
 1775TIP3   OH2 5330   0.589   0.926   4.115
 1775TIP3    H1 5331   0.617   0.877   4.037
 1775TIP3    H2 5332   0.496   0.908   4.121
 1776TIP3   OH2 5333   1.872   2.281   5.125
 1776TIP3    H1 5334   1.789   2.328   5.117
 1776TIP3    H2 5335   1.890   2.248   5.037
 1777TIP3   OH2 5336   4.905   2.355   4.520
 1777TIP3    H1 5337   4.919   2.413   4.595
 1777TIP3    H2 5338   4.847   2.405   4.463
 1778TIP3   OH2 5339   1.704   4.919   3.335
 1778TIP3    H1 5340   1.790   4.881   3.347
 1778TIP3    H2 5341   1.649   4.879   3.403
 1779TIP3   OH2 5342   3.318   5.757   3.310
 1779TIP3    H1 5343   3.303   5.663   3.312
 1779TIP3    H2 5344   3.230   5.795   3.310
 1780TIP3   OH2 5345   4.590   0.080   0.618
 1780TIP3    H1 5346   4.608   0.144   0.549
 1780TIP3    H2 5347   4.528   0.125   0.676
 1781TIP3   OH2 5348   1.356   2.371   3.670
 1781TIP3    H1 5349   1.371   2.466   3.673
 1781TIP3    H2 5350   1.354   2.350   3.577
 1782TIP3   OH2 5351   2.482   3.224   3.813
 1782TIP3    H1 5352   2.520   3.311   3.827
 1782TIP3    H2 5353   2.537   3.165   3.866
 1783TIP3   OH2 5354   0.977   0.193   2.457
 1783TIP3    H1 5355   1.043   0.262   2.447
 1783TIP3    H2 5356   0.988   0.137   2.381
 1784TIP3   OH2 5357   0.035   2.775   2.659
 1784TIP3    H1 5358   0.128   2.776   2.680
 1784TIP3    H2 5359   0.019   2.860   2.618
 1785TIP3   OH2 5360   4.804   4.290   3.941
 1785TIP3    H1 5361   4.758   4.237   4.006
 1785TIP3    H2 5362   4.757   4.273   3.859
 1786TIP3   OH2 5363   2.840   2.712   1.184
 1786TIP3    H1 5364   2.796   2.724   1.268
 1786TIP3    H2 5365   2.804   2.780   1.127
 1787TIP3   OH2 5366   3.840   5.475   1.238
 1787TIP3    H1 5367   3.914   5.457   1.295
 1787TIP3    H2 5368   3.827   5.570   1.244
 1788TIP3   OH2 5369   4.449   0.140   0.834
 1788TIP3    H1 5370   4.391   0.099   0.897
 1788TIP3    H2 5371   4.489   0.213   0.881
 1789TIP3   OH2 5372   4.492   3.174   2.266
 1789TIP3    H1 5373   4.475   3.148   2.176
 1789TIP3    H2 5374   4.569   3.123   2.292
 1790TIP3   OH2 5375   4.893   2.209   0.775
 1790TIP3    H1 5376   4.926   2.299   0.764
 1790TIP3    H2 5377   4.882   2.177   0.686
 1791TIP3   OH2 5378   3.084   4.841   2.528
 1791TIP3    H1 5379   3.142   4.890   2.586
 1791TIP3    H2 5380   3.013   4.812   2.584
 1792TIP3   OH2 5381   1.735   5.399   4.593
 1792TIP3    H1 5382   1.709   5.307   4.597
 1792TIP3    H2 5383   1.831   5.398   4.599
 1793TIP3   OH2 5384   6.197   2.084   3.969
 1793TIP3    H1 5385   6.157   2.162   4.007
 1793TIP3    H2 5386   6.215   2.108   3.878
 1794TIP3   OH2 5387   1.622   4.072   0.081
 1794TIP3    H1 5388   1.650   4.003   0.142
 1794TIP3    H2 5389   1.533   4.093   0.108
 1795TIP3   OH2 5390   6.003   3.146   0.916
 1795TIP3    H1 5391   6.000   3.082   0.845
 1795TIP3    H2 5392   6.058   3.105   0.983
 1796TIP3   OH2 5393   3.016   5.723   1.846
 1796TIP3    H1 5394   3.064   5.730   1.764
 1796TIP3    H2 5395   3.069   5.663   1.899
 1797TIP3   OH2 5396   1.963   1.661   0.890
 1797TIP3    H1 5397   1.917   1.674   0.973
 1797TIP3    H2 5398   1.935   1.575   0.859
 1798TIP3   OH2 5399   4.910   5.069   4.753
 1798TIP3    H1 5400   4.906   5.027   4.839
 1798TIP3    H2 5401   4.993   5.039   4.716
 1799TIP3   OH2 5402   6.111   5.138   3.483
 1799TIP3    H1 5403   6.182   5.165   3.425
 1799TIP3    H2 5404   6.060   5.075   3.431
 1800TIP3   OH2 5405   2.448   3.106   1.045
 1800TIP3    H1 5406   2.456   3.024   0.996
 1800TIP3    H2 5407   2.400   3.164   0.986
 1801TIP3   OH2 5408   3.153   0.704   4.762
 1801TIP3    H1 5409   3.101   0.629   4.732
 1801TIP3    H2 5410   3.244   0.676   4.751
 1802TIP3   OH2 5411   1.600   2.139   1.402
 1802TIP3    H1 5412   1.507   2.140   1.422
 1802TIP3    H2 5413   1.638   2.083   1.470
 1803TIP3   OH2 5414   2.416   2.278   0.788
 1803TIP3    H1 5415   2.374   2.206   0.835
 1803TIP3    H2 5416   2.393   2.356   0.838
 1804TIP3   OH2 5417   4.521   4.379   0.191
 1804TIP3    H1 5418   4.446   4.320   0.181
 1804TIP3    H2 5419   4.556   4.360   0.278
 1805TIP3   OH2 5420   6.224   3.731   4.741
 1805TIP3    H1 5421   6.278   3.672   4.794
 1805TIP3    H2 5422   6.258   3.723   4.652
 1806TIP3   OH2 5423   5.112   3.983   2.803
 1806TIP3    H1 5424   5.072   3.902   2.834
 1806TIP3    H2 5425   5.199   3.957   2.772
 1807TIP3   OH2 5426   1.551   4.909   3.026
 1807TIP3    H1 5427   1.539   4.835   2.967
 1807TIP3    H2 5428   1.639   4.942   3.005
 1808TIP3   OH2 5429   3.536   5.920   2.683
 1808TIP3    H1 5430   3.507   5.890   2.769
 1808TIP3    H2 5431   3.500   6.009   2.675
 1809TIP3   OH2 5432   4.151   2.244   2.760
 1809TIP3    H1 5433   4.207   2.321   2.767
 1809TIP3    H2 5434   4.102   2.242   2.842
 1810TIP3   OH2 5435   5.726   3.021   0.920
 1810TIP3    H1 5436   5.805   3.071   0.939
 1810TIP3    H2 5437   5.663   3.050   0.987
 1811TIP3   OH2 5438   6.301   5.588   0.823
 1811TIP3    H1 5439   6.320   5.557   0.734
 1811TIP3    H2 5440   6.206   5.594   0.826
 1812TIP3   OH2 5441   1.086   0.698   1.434
 1812TIP3    H1 5442   1.020   0.736   1.376
 1812TIP3    H2 5443   1.035   0.649   1.499
 1813TIP3   OH2 5444   4.453   1.272   1.065
 1813TIP3    H1 5445   4.370   1.256   1.019
 1813TIP3    H2 5446   4.449   1.365   1.088
 1814TIP3   OH2 5447   3.010   2.517   1.488
 1814TIP3    H1 5448   3.027   2.423   1.483
 1814TIP3    H2 5449   2.926   2.528   1.444
 1815TIP3   OH2 5450   5.034   3.780   4.102
 1815TIP3    H1 5451   5.062   3.871   4.103
 1815TIP3    H2 5452   5.050   3.749   4.191
 1816TIP3   OH2 5453   0.485   4.263   1.772
 1816TIP3    H1 5454   0.487   4.300   1.684
 1816TIP3    H2 5455   0.424   4.319   1.821
 1817TIP3   OH2 5456   4.568   2.535   2.580
 1817TIP3    H1 5457   4.483   2.568   2.550
 1817TIP3    H2 5458   4.608   2.610   2.624
 1818TIP3   OH2 5459   5.104   1.346   2.730
 1818TIP3    H1 5460   5.059   1.421   2.771
 1818TIP3    H2 5461   5.089   1.273   2.790
 1819TIP3   OH2 5462   0.728   4.865   1.729
 1819TIP3    H1 5463   0.789   4.859   1.803
 1819TIP3    H2 5464   0.698   4.955   1.730
 1820TIP3   OH2 5465   2.139   4.737   0.463
 1820TIP3    H1 5466   2.049   4.707   0.478
 1820TIP3    H2 5467   2.143   4.754   0.369
 1821TIP3   OH2 5468   5.779   3.749   0.040
 1821TIP3    H1 5469   5.837   3.812  -0.002
 1821TIP3    H2 5470   5.789   3.669  -0.012
 1822TIP3   OH2 5471   0.013   0.058   5.039
 1822TIP3    H1 5472  -0.071   0.100   5.019
 1822TIP3    H2 5473   0.078   0.112   4.994
 1823TIP3   OH2 5474   1.113   0.887   0.226
 1823TIP3    H1 5475   1.190   0.854   0.180
 1823TIP3    H2 5476   1.072   0.808   0.262
 1824TIP3   OH2 5477   3.800   3.275   4.743
 1824TIP3    H1 5478   3.811   3.188   4.782
 1824TIP3    H2 5479   3.821   3.336   4.814
 1825TIP3   OH2 5480   1.628   5.027   1.788
 1825TIP3    H1 5481   1.537   5.034   1.760
 1825TIP3    H2 5482   1.623   5.021   1.883
 1826TIP3   OH2 5483   0.262   4.909   0.352
 1826TIP3    H1 5484   0.295   4.840   0.410
 1826TIP3    H2 5485   0.256   4.986   0.409
 1827TIP3   OH2 5486   2.315   2.881   4.218
 1827TIP3    H1 5487   2.292   2.820   4.288
 1827TIP3    H2 5488   2.240   2.940   4.212
 1828TIP3   OH2 5489   5.838   0.106   3.980
 1828TIP3    H1 5490   5.845   0.040   4.049
 1828TIP3    H2 5491   5.920   0.101   3.932
 1829TIP3   OH2 5492   0.501   4.607   0.179
 1829TIP3    H1 5493   0.584   4.610   0.226
 1829TIP3    H2 5494   0.469   4.698   0.180
 1830TIP3   OH2 5495   4.451   1.627   4.103
 1830TIP3    H1 5496   4.478   1.580   4.024
 1830TIP3    H2 5497   4.425   1.559   4.165
 1831TIP3   OH2 5498   3.604   3.282   1.294
 1831TIP3    H1 5499   3.629   3.374   1.294
 1831TIP3    H2 5500   3.585   3.263   1.202
 1832TIP3   OH2 5501   3.540   1.247   0.398
 1832TIP3    H1 5502   3.605   1.270   0.464
 1832TIP3    H2 5503   3.501   1.165   0.431
 1833TIP3   OH2 5504   1.984   0.066   2.637
 1833TIP3    H1 5505   1.920   0.026   2.579
 1833TIP3    H2 5506   1.935   0.131   2.687
 1834TIP3   OH2 5507   2.272   2.991   1.571
 1834TIP3    H1 5508   2.280   2.904   1.532
 1834TIP3    H2 5509   2.181   3.016   1.554
 1835TIP3   OH2 5510   1.964   1.403   0.807
 1835TIP3    H1 5511   1.943   1.357   0.888
 1835TIP3    H2 5512   2.015   1.340   0.756
 1836TIP3   OH2 5513   5.163   3.955   4.804
 1836TIP3    H1 5514   5.228   3.917   4.744
 1836TIP3    H2 5515   5.202   3.944   4.890
 1837TIP3   OH2 5516   0.713   0.783   3.919
 1837TIP3    H1 5517   0.662   0.714   3.878
 1837TIP3    H2 5518   0.733   0.844   3.848
 1838TIP3   OH2 5519   1.186   2.768   2.006
 1838TIP3    H1 5520   1.169   2.739   1.916
 1838TIP3    H2 5521   1.212   2.688   2.051
 1839TIP3   OH2 5522   0.637   1.262   0.608
 1839TIP3    H1 5523   0.571   1.300   0.666
 1839TIP3    H2 5524   0.710   1.241   0.666
 1840TIP3   OH2 5525   4.292   2.941   1.374
 1840TIP3    H1 5526   4.328   2.852   1.382
 1840TIP3    H2 5527   4.228   2.947   1.445
 1841TIP3   OH2 5528   6.280   0.419   0.110
 1841TIP3    H1 5529   6.267   0.514   0.115
 1841TIP3    H2 5530   6.370   0.409   0.079
 1842TIP3   OH2 5531   4.555   4.811   3.917
 1842TIP3    H1 5532   4.530   4.719   3.918
 1842TIP3    H2 5533   4.546   4.839   4.008
 1843TIP3   OH2 5534   2.333   5.312   3.334
 1843TIP3    H1 5535   2.241   5.336   3.343
 1843TIP3    H2 5536   2.348   5.247   3.403
 1844TIP3   OH2 5537   3.564   5.147   2.064
 1844TIP3    H1 5538   3.613   5.221   2.028
 1844TIP3    H2 5539   3.631   5.088   2.099
 1845TIP3   OH2 5540   1.383   4.759   3.745
 1845TIP3    H1 5541   1.322   4.701   3.699
 1845TIP3    H2 5542   1.400   4.715   3.828
 1846TIP3   OH2 5543   2.718   4.309   4.175
 1846TIP3    H1 5544   2.780   4.361   4.225
 1846TIP3    H2 5545   2.632   4.337   4.207
 1847TIP3   OH2 5546   1.689   0.023   3.472
 1847TIP3    H1 5547   1.762   0.079   3.445
 1847TIP3    H2 5548   1.730  -0.054   3.510
 1848TIP3   OH2 5549   4.958   4.728   1.241
 1848TIP3    H1 5550   4.988   4.803   1.294
 1848TIP3    H2 5551   4.897   4.682   1.299
 1849TIP3   OH2 5552   5.390   1.765   5.165
 1849TIP3    H1 5553   5.335   1.843   5.174
 1849TIP3    H2 5554   5.418   1.767   5.073
 1850TIP3   OH2 5555   2.660   2.968   4.448
 1850TIP3    H1 5556   2.650   2.963   4.543
 1850TIP3    H2 5557   2.718   3.043   4.435
 1851TIP3   OH2 5558   4.852   0.838   0.105
 1851TIP3    H1 5559   4.765   0.814   0.137
 1851TIP3    H2 5560   4.902   0.860   0.183
 1852TIP3   OH2 5561   0.456   2.101   2.253
 1852TIP3    H1 5562   0.481   2.125   2.342
 1852TIP3    H2 5563   0.368   2.063   2.262
 1853TIP3   OH2 5564   0.470   2.980   2.294
 1853TIP3    H1 5565   0.477   2.919   2.221
 1853TIP3    H2 5566   0.378   3.007   2.294
 1854TIP3   OH2 5567   5.700   1.250   2.436
 1854TIP3    H1 5568   5.729   1.212   2.520
 1854TIP3    H2 5569   5.742   1.336   2.433
 1855TIP3   OH2 5570   6.005   5.721   1.634
 1855TIP3    H1 5571   6.079   5.677   1.592
 1855TIP3    H2 5572   6.038   5.809   1.655
 1856TIP3   OH2 5573   6.341   0.723   2.483
 1856TIP3    H1 5574   6.323   0.815   2.499
 1856TIP3    H2 5575   6.411   0.701   2.544
 1857TIP3   OH2 5576   0.344   3.186   4.752
 1857TIP3    H1 5577   0.288   3.114   4.778
 1857TIP3    H2 5578   0.295   3.232   4.685
 1858TIP3   OH2 5579   4.304   5.095   2.144
 1858TIP3    H1 5580   4.276   5.181   2.113
 1858TIP3    H2 5581   4.314   5.106   2.239
 1859TIP3   OH2 5582   2.343   3.319   4.787
 1859TIP3    H1 5583   2.357   3.236   4.833
 1859TIP3    H2 5584   2.422   3.370   4.804
 1860TIP3   OH2 5585   1.312   2.318   2.098
 1860TIP3    H1 5586   1.320   2.316   2.002
 1860TIP3    H2 5587   1.391   2.363   2.128
 1861TIP3   OH2 5588   4.850   3.739   2.362
 1861TIP3    H1 5589   4.854   3.832   2.337
 1861TIP3    H2 5590   4.758   3.716   2.354
 1862TIP3   OH2 5591   4.239   5.479   2.394
 1862TIP3    H1 5592   4.280   5.444   2.315
 1862TIP3    H2 5593   4.178   5.411   2.423
 1863TIP3   OH2 5594   2.359   2.545   5.168
 1863TIP3    H1 5595   2.422   2.579   5.103
 1863TIP3    H2 5596   2.385   2.454   5.182
 1864TIP3   OH2 5597   2.750   4.316   0.380
 1864TIP3    H1 5598   2.830   4.343   0.425
 1864TIP3    H2 5599   2.757   4.221   0.374
 1865TIP3   OH2 5600   5.710   3.554   3.877
 1865TIP3    H1 5601   5.779   3.567   3.811
 1865TIP3    H2 5602   5.638   3.608   3.846
 1866TIP3   OH2 5603   3.613   4.258   1.071
 1866TIP3    H1 5604   3.638   4.201   1.143
 1866TIP3    H2 5605   3.544   4.314   1.107
 1867TIP3   OH2 5606   3.222   5.164   1.206
 1867TIP3    H1 5607   3.284   5.237   1.205
 1867TIP3    H2 5608   3.208   5.146   1.299
 1868TIP3   OH2 5609   5.703   4.361   0.508
 1868TIP3    H1 5610   5.784   4.400   0.540
 1868TIP3    H2 5611   5.698   4.386   0.416
 1869TIP3   OH2 5612   4.652   5.272   4.114
 1869TIP3    H1 5613   4.734   5.282   4.161
 1869TIP3    H2 5614   4.586   5.313   4.171
 1870TIP3   OH2 5615   4.173   4.132   1.275
 1870TIP3    H1 5616   4.249   4.137   1.333
 1870TIP3    H2 5617   4.142   4.042   1.284
 1871TIP3   OH2 5618   5.881   4.475   1.762
 1871TIP3    H1 5619   5.803   4.530   1.766
 1871TIP3    H2 5620   5.953   4.536   1.745
 1872TIP3   OH2 5621   0.211   3.211   3.964
 1872TIP3    H1 5622   0.225   3.303   3.943
 1872TIP3    H2 5623   0.294   3.169   3.942
 1873TIP3   OH2 5624   3.685   2.229   0.653
 1873TIP3    H1 5625   3.697   2.235   0.747
 1873TIP3    H2 5626   3.767   2.262   0.616
 1874TIP3   OH2 5627   5.007   2.385   0.576
 1874TIP3    H1 5628   5.090   2.337   0.571
 1874TIP3    H2 5629   5.033   2.474   0.599
 1875TIP3   OH2 5630   6.245   0.515   5.038
 1875TIP3    H1 5631   6.306   0.493   5.108
 1875TIP3    H2 5632   6.170   0.555   5.083
 1876TIP3   OH2 5633   3.849   2.427   2.642
 1876TIP3    H1 5634   3.864   2.335   2.621
 1876TIP3    H2 5635   3.817   2.465   2.560
 1877TIP3   OH2 5636   5.359   4.632   1.982
 1877TIP3    H1 5637   5.393   4.702   1.926
 1877TIP3    H2 5638   5.379   4.661   2.071
 1878TIP3   OH2 5639   1.124   3.722   4.145
 1878TIP3    H1 5640   1.168   3.765   4.072
 1878TIP3    H2 5641   1.061   3.787   4.177
 1879TIP3   OH2 5642   2.782   3.445   4.644
 1879TIP3    H1 5643   2.725   3.369   4.627
 1879TIP3    H2 5644   2.737   3.518   4.601
 1880TIP3   OH2 5645   1.131   1.156   4.882
 1880TIP3    H1 5646   1.211   1.106   4.898
 1880TIP3    H2 5647   1.082   1.103   4.819
 1881TIP3   OH2 5648   2.208   0.255   1.614
 1881TIP3    H1 5649   2.199   0.349   1.631
 1881TIP3    H2 5650   2.214   0.215   1.700
 1882TIP3   OH2 5651   5.088   5.768   3.988
 1882TIP3    H1 5652   5.146   5.784   4.063
 1882TIP3    H2 5653   5.101   5.675   3.968
 1883TIP3   OH2 5654   0.339   1.433   1.555
 1883TIP3    H1 5655   0.289   1.388   1.623
 1883TIP3    H2 5656   0.348   1.522   1.587
 1884TIP3   OH2 5657   3.163   3.923   2.034
 1884TIP3    H1 5658   3.098   3.924   2.104
 1884TIP3    H2 5659   3.181   3.831   2.018
 1885TIP3   OH2 5660   2.928   4.100   4.574
 1885TIP3    H1 5661   3.007   4.155   4.570
 1885TIP3    H2 5662   2.957   4.015   4.540
 1886TIP3   OH2 5663   2.280   2.615   2.656
 1886TIP3    H1 5664   2.248   2.633   2.745
 1886TIP3    H2 5665   2.369   2.583   2.668
 1887TIP3   OH2 5666   4.529   2.622   0.386
 1887TIP3    H1 5667   4.452   2.629   0.330
 1887TIP3    H2 5668   4.498   2.573   0.463
 1888TIP3   OH2 5669   0.104   3.895   3.820
 1888TIP3    H1 5670   0.195   3.921   3.837
 1888TIP3    H2 5671   0.070   3.965   3.764
 1889TIP3   OH2 5672   3.875   4.008   0.470
 1889TIP3    H1 5673   3.825   3.982   0.548
 1889TIP3    H2 5674   3.851   4.100   0.457
 1890TIP3   OH2 5675   2.423   5.235   4.690
 1890TIP3    H1 5676   2.469   5.208   4.770
 1890TIP3    H2 5677   2.333   5.205   4.702
 1891TIP3   OH2 5678   1.160   5.603   4.645
 1891TIP3    H1 5679   1.191   5.640   4.728
 1891TIP3    H2 5680   1.065   5.608   4.651
 1892TIP3   OH2 5681   4.860   1.629   4.497
 1892TIP3    H1 5682   4.789   1.664   4.550
 1892TIP3    H2 5683   4.921   1.591   4.560
 1893TIP3   OH2 5684   3.104   5.141   0.151
 1893TIP3    H1 5685   3.102   5.190   0.233
 1893TIP3    H2 5686   3.015   5.108   0.141
 1894TIP3   OH2 5687   0.557   0.057   3.349
 1894TIP3    H1 5688   0.607  -0.022   3.331
 1894TIP3    H2 5689   0.616   0.111   3.402
 1895TIP3   OH2 5690   1.199   5.678   4.093
 1895TIP3    H1 5691   1.253   5.738   4.145
 1895TIP3    H2 5692   1.138   5.639   4.157
 1896TIP3   OH2 5693   1.770   1.932   0.899
 1896TIP3    H1 5694   1.784   1.990   0.973
 1896TIP3    H2 5695   1.784   1.844   0.934
 1897TIP3   OH2 5696   3.326   3.699   5.000
 1897TIP3    H1 5697   3.350   3.748   5.078
 1897TIP3    H2 5698   3.345   3.757   4.927
 1898TIP3   OH2 5699   3.562   0.587   4.961
 1898TIP3    H1 5700   3.586   0.517   4.901
 1898TIP3    H2 5701   3.570   0.548   5.048
 1899TIP3   OH2 5702   3.908   4.205   3.088
 1899TIP3    H1 5703   3.977   4.260   3.053
 1899TIP3    H2 5704   3.845   4.197   3.017
 1900TIP3   OH2 5705   5.477   1.971   4.583
 1900TIP3    H1 5706   5.506   1.912   4.653
 1900TIP3    H2 5707   5.547   2.037   4.578
 1901TIP3   OH2 5708   6.125   5.964   0.778
 1901TIP3    H1 5709   6.141   5.950   0.685
 1901TIP3    H2 5710   6.196   5.917   0.822
 1902TIP3   OH2 5711   1.604   0.010   5.033
 1902TIP3    H1 5712   1.582   0.099   5.005
 1902TIP3    H2 5713   1.542  -0.009   5.103
 1903TIP3   OH2 5714   3.682   0.134   0.167
 1903TIP3    H1 5715   3.720   0.120   0.253
 1903TIP3    H2 5716   3.588   0.143   0.183
 1904TIP3   OH2 5717   1.314   2.084   1.330
 1904TIP3    H1 5718   1.277   2.000   1.304
 1904TIP3    H2 5719   1.252   2.149   1.298
 1905TIP3   OH2 5720   1.078   3.319   4.167
 1905TIP3    H1 5721   1.145   3.383   4.191
 1905TIP3    H2 5722   1.007   3.335   4.229
 1906TIP3   OH2 5723   4.123   5.655   0.488
 1906TIP3    H1 5724   4.204   5.697   0.517
 1906TIP3    H2 5725   4.082   5.623   0.568
 1907TIP3   OH2 5726   0.542   3.646   4.885
 1907TIP3    H1 5727   0.492   3.617   4.809
 1907TIP3    H2 5728   0.485   3.629   4.960
 1908TIP3   OH2 5729   4.830   2.823   2.203
 1908TIP3    H1 5730   4.857   2.745   2.251
 1908TIP3    H2 5731   4.848   2.803   2.111
 1909TIP3   OH2 5732   3.181   0.009   2.868
 1909TIP3    H1 5733   3.215   0.097   2.886
 1909TIP3    H2 5734   3.112   0.024   2.803
 1910TIP3   OH2 5735   5.690   2.131   1.170
 1910TIP3    H1 5736   5.752   2.132   1.243
 1910TIP3    H2 5737   5.721   2.063   1.112
 1911TIP3   OH2 5738   0.421   3.832   0.890
 1911TIP3    H1 5739   0.417   3.926   0.907
 1911TIP3    H2 5740   0.392   3.822   0.799
 1912TIP3   OH2 5741   5.666   0.755   3.690
 1912TIP3    H1 5742   5.662   0.753   3.786
 1912TIP3    H2 5743   5.757   0.732   3.669
 1913TIP3   OH2 5744   5.882   0.761   0.741
 1913TIP3    H1 5745   5.844   0.729   0.822
 1913TIP3    H2 5746   5.969   0.792   0.765
 1914TIP3   OH2 5747   3.805   5.391   4.152
 1914TIP3    H1 5748   3.818   5.332   4.226
 1914TIP3    H2 5749   3.894   5.408   4.120
 1915TIP3   OH2 5750   4.075   5.620   3.254
 1915TIP3    H1 5751   4.169   5.618   3.234
 1915TIP3    H2 5752   4.066   5.692   3.317
 1916TIP3   OH2 5753   4.927   1.893   4.226
 1916TIP3    H1 5754   4.950   1.951   4.153
 1916TIP3    H2 5755   4.973   1.812   4.207
 1917TIP3   OH2 5756   5.926   0.826   4.979
 1917TIP3    H1 5757   5.995   0.871   5.028
 1917TIP3    H2 5758   5.846   0.870   5.006
 1918TIP3   OH2 5759   5.231   1.623   4.451
 1918TIP3    H1 5760   5.252   1.544   4.401
 1918TIP3    H2 5761   5.309   1.678   4.443
 1919TIP3   OH2 5762   3.643   2.728   3.359
 1919TIP3    H1 5763   3.576   2.660   3.372
 1919TIP3    H2 5764   3.710   2.708   3.424
 1920TIP3   OH2 5765   0.721   2.857   0.711
 1920TIP3    H1 5766   0.714   2.797   0.785
 1920TIP3    H2 5767   0.631   2.881   0.690
 1921TIP3   OH2 5768   2.209   3.917   4.061
 1921TIP3    H1 5769   2.303   3.931   4.070
 1921TIP3    H2 5770   2.191   3.933   3.968
 1922TIP3   OH2 5771   3.089   3.327   0.753
 1922TIP3    H1 5772   3.177   3.360   0.771
 1922TIP3    H2 5773   3.100   3.264   0.682
 1923TIP3   OH2 5774   3.278   3.853   2.794
 1923TIP3    H1 5775   3.192   3.883   2.823
 1923TIP3    H2 5776   3.286   3.885   2.704
 1924TIP3   OH2 5777   3.601   4.848   0.968
 1924TIP3    H1 5778   3.522   4.841   1.022
 1924TIP3    H2 5779   3.673   4.853   1.032
 1925TIP3   OH2 5780   2.786   2.070   0.952
 1925TIP3    H1 5781   2.759   1.978   0.959
 1925TIP3    H2 5782   2.724   2.117   1.009
 1926TIP3   OH2 5783   1.905   4.751   3.478
 1926TIP3    H1 5784   1.943   4.687   3.417
 1926TIP3    H2 5785   1.967   4.754   3.551
 1927TIP3   OH2 5786   3.267   3.821   0.218
 1927TIP3    H1 5787   3.189   3.782   0.257
 1927TIP3    H2 5788   3.293   3.889   0.280
 1928TIP3   OH2 5789   1.062   3.587   2.073
 1928TIP3    H1 5790   1.073   3.664   2.016
 1928TIP3    H2 5791   1.128   3.525   2.042
 1929TIP3   OH2 5792   1.963   1.037   0.924
 1929TIP3    H1 5793   1.987   1.070   1.010
 1929TIP3    H2 5794   2.010   0.955   0.915
 1930TIP3   OH2 5795   1.059   0.959   4.694
 1930TIP3    H1 5796   1.108   0.877   4.684
 1930TIP3    H2 5797   1.030   0.980   4.605
 1931TIP3   OH2 5798   3.990   1.183   3.563
 1931TIP3    H1 5799   3.915   1.227   3.604
 1931TIP3    H2 5800   3.968   1.179   3.470
 1932TIP3   OH2 5801   3.965   1.308   3.311
 1932TIP3    H1 5802   3.883   1.353   3.291
 1932TIP3    H2 5803   4.033   1.375   3.302
 1933TIP3   OH2 5804   5.496   4.250   2.881
 1933TIP3    H1 5805   5.525   4.322   2.937
 1933TIP3    H2 5806   5.506   4.282   2.792
 1934TIP3   OH2 5807   2.528   0.833   3.819
 1934TIP3    H1 5808   2.575   0.823   3.737
 1934TIP3    H2 5809   2.436   0.820   3.796
 1935TIP3   OH2 5810   2.642   1.050   3.977
 1935TIP3    H1 5811   2.629   0.957   3.960
 1935TIP3    H2 5812   2.734   1.066   3.953
 1936TIP3   OH2 5813   0.090   1.348   0.299
 1936TIP3    H1 5814   0.129   1.261   0.301
 1936TIP3    H2 5815   0.073   1.368   0.391
 1937TIP3   OH2 5816   1.233   4.691   1.138
 1937TIP3    H1 5817   1.254   4.634   1.065
 1937TIP3    H2 5818   1.140   4.676   1.154
 1938TIP3   OH2 5819   0.663   4.378   4.236
 1938TIP3    H1 5820   0.586   4.378   4.293
 1938TIP3    H2 5821   0.713   4.454   4.265
 1939TIP3   OH2 5822   2.847   2.570   2.764
 1939TIP3    H1 5823   2.908   2.606   2.699
 1939TIP3    H2 5824   2.846   2.635   2.834
 1940TIP3   OH2 5825   0.093   1.539   3.526
 1940TIP3    H1 5826   0.005   1.572   3.545
 1940TIP3    H2 5827   0.110   1.568   3.436
 1941TIP3   OH2 5828   5.765   1.420   1.080
 1941TIP3    H1 5829   5.737   1.472   1.155
 1941TIP3    H2 5830   5.859   1.406   1.094
 1942TIP3   OH2 5831   5.423   1.300   3.992
 1942TIP3    H1 5832   5.494   1.269   4.047
 1942TIP3    H2 5833   5.465   1.327   3.911
 1943TIP3   OH2 5834   0.924   0.316   1.091
 1943TIP3    H1 5835   0.834   0.312   1.123
 1943TIP3    H2 5836   0.977   0.297   1.168
 1944TIP3   OH2 5837   0.971   4.080   3.602
 1944TIP3    H1 5838   0.905   4.011   3.608
 1944TIP3    H2 5839   0.922   4.159   3.577
 1945TIP3   OH2 5840   1.128   5.735   2.009
 1945TIP3    H1 5841   1.042   5.695   2.022
 1945TIP3    H2 5842   1.114   5.828   2.026
 1946TIP3   OH2 5843   2.934   4.071   3.789
 1946TIP3    H1 5844   2.902   3.982   3.804
 1946TIP3    H2 5845   2.951   4.106   3.876
 1947TIP3   OH2 5846   1.837   2.556   1.459
 1947TIP3    H1 5847   1.789   2.614   1.399
 1947TIP3    H2 5848   1.908   2.520   1.406
 1948TIP3   OH2 5849   6.161   3.661   3.834
 1948TIP3    H1 5850   6.143   3.720   3.761
 1948TIP3    H2 5851   6.081   3.609   3.843
 1949TIP3   OH2 5852   5.778   2.637   0.365
 1949TIP3    H1 5853   5.758   2.729   0.346
 1949TIP3    H2 5854   5.701   2.589   0.337
 1950TIP3   OH2 5855   6.102   5.411   4.180
 1950TIP3    H1 5856   6.017   5.456   4.174
 1950TIP3    H2 5857   6.148   5.437   4.100
 1951TIP3   OH2 5858   4.568   0.099   3.524
 1951TIP3    H1 5859   4.617   0.178   3.500
 1951TIP3    H2 5860   4.476   0.126   3.519
 1952TIP3   OH2 5861   4.237   5.124   1.318
 1952TIP3    H1 5862   4.261   5.125   1.411
 1952TIP3    H2 5863   4.281   5.200   1.281
 1953TIP3   OH2 5864   6.107   4.983   4.648
 1953TIP3    H1 5865   6.122   5.048   4.579
 1953TIP3    H2 5866   6.195   4.963   4.681
 1954TIP3   OH2 5867   2.837   0.202   1.569
 1954TIP3    H1 5868   2.818   0.240   1.654
 1954TIP3    H2 5869   2.914   0.146   1.584
 1955TIP3   OH2 5870   5.635   5.018   0.154
 1955TIP3    H1 5871   5.584   4.967   0.091
 1955TIP3    H2 5872   5.637   5.106   0.117
 1956TIP3   OH2 5873   2.337   2.435   2.064
 1956TIP3    H1 5874   2.357   2.406   2.153
 1956TIP3    H2 5875   2.316   2.354   2.017
 1957TIP3   OH2 5876   0.230   1.236   1.963
 1957TIP3    H1 5877   0.287   1.165   1.993
 1957TIP3    H2 5878   0.215   1.217   1.871
 1958TIP3   OH2 5879   0.927   5.105   4.939
 1958TIP3    H1 5880   0.989   5.156   4.991
 1958TIP3    H2 5881   0.873   5.171   4.895
 1959TIP3   OH2 5882   3.846   3.728   5.114
 1959TIP3    H1 5883   3.937   3.739   5.140
 1959TIP3    H2 5884   3.797   3.741   5.196
 1960TIP3   OH2 5885   3.224   5.742   1.222
 1960TIP3    H1 5886   3.158   5.753   1.153
 1960TIP3    H2 5887   3.192   5.667   1.272
 1961TIP3   OH2 5888   2.128   5.318   4.093
 1961TIP3    H1 5889   2.208   5.370   4.100
 1961TIP3    H2 5890   2.066   5.362   4.150
 1962TIP3   OH2 5891   6.167   0.424   1.019
 1962TIP3    H1 5892   6.202   0.489   0.958
 1962TIP3    H2 5893   6.238   0.408   1.081
 1963TIP3   OH2 5894   5.649   0.719   2.611
 1963TIP3    H1 5895   5.607   0.696   2.529
 1963TIP3    H2 5896   5.691   0.638   2.640
 1964TIP3   OH2 5897   2.025   0.641   1.943
 1964TIP3    H1 5898   1.941   0.604   1.916
 1964TIP3    H2 5899   2.041   0.602   2.029
 1965TIP3   OH2 5900   5.193   2.983   2.737
 1965TIP3    H1 5901   5.108   3.007   2.774
 1965TIP3    H2 5902   5.254   2.987   2.811
 1966TIP3   OH2 5903   6.343   3.631   3.238
 1966TIP3    H1 5904   6.426   3.664   3.203
 1966TIP3    H2 5905   6.286   3.708   3.239
 1967TIP3   OH2 5906   5.590   3.904   3.237
 1967TIP3    H1 5907   5.623   3.895   3.148
 1967TIP3    H2 5908   5.620   3.991   3.266
 1968TIP3   OH2 5909   2.941   5.117   4.899
 1968TIP3    H1 5910   2.848   5.125   4.879
 1968TIP3    H2 5911   2.944   5.105   4.994
 1969TIP3   OH2 5912   0.434   0.232   3.572
 1969TIP3    H1 5913   0.433   0.146   3.615
 1969TIP3    H2 5914   0.521   0.238   3.532
 1970TIP3   OH2 5915   0.850   1.754   1.346
 1970TIP3    H1 5916   0.831   1.666   1.378
 1970TIP3    H2 5917   0.808   1.812   1.409
 1971TIP3   OH2 5918   5.151   2.792   1.997
 1971TIP3    H1 5919   5.141   2.871   2.050
 1971TIP3    H2 5920   5.238   2.800   1.957
 1972TIP3   OH2 5921   0.865   4.298   2.486
 1972TIP3    H1 5922   0.822   4.359   2.426
 1972TIP3    H2 5923   0.906   4.354   2.552
 1973TIP3   OH2 5924   5.172   2.400   5.109
 1973TIP3    H1 5925   5.237   2.460   5.073
 1973TIP3    H2 5926   5.220   2.320   5.128
 1974TIP3   OH2 5927   5.257   4.516   5.035
 1974TIP3    H1 5928   5.185   4.578   5.034
 1974TIP3    H2 5929   5.292   4.518   4.946
 1975TIP3   OH2 5930   3.704   0.395   0.084
 1975TIP3    H1 5931   3.640   0.408   0.153
 1975TIP3    H2 5932   3.734   0.304   0.096
 1976TIP3   OH2 5933   4.355   5.380   3.411
 1976TIP3    H1 5934   4.448   5.379   3.435
 1976TIP3    H2 5935   4.325   5.291   3.426
 1977TIP3   OH2 5936   3.199   3.428   5.020
 1977TIP3    H1 5937   3.103   3.433   5.017
 1977TIP3    H2 5938   3.229   3.514   4.990
 1978TIP3   OH2 5939   4.699   0.515   2.606
 1978TIP3    H1 5940   4.650   0.596   2.597
 1978TIP3    H2 5941   4.752   0.528   2.685
 1979TIP3   OH2 5942   1.166   4.825   0.883
 1979TIP3    H1 5943   1.161   4.860   0.972
 1979TIP3    H2 5944   1.116   4.888   0.830
 1980TIP3   OH2 5945   2.736   2.149   2.310
 1980TIP3    H1 5946   2.714   2.207   2.383
 1980TIP3    H2 5947   2.747   2.208   2.235
 1981TIP3   OH2 5948   4.172   1.513   0.167
 1981TIP3    H1 5949   4.097   1.536   0.222
 1981TIP3    H2 5950   4.194   1.423   0.194
 1982TIP3   OH2 5951   2.836   5.719   3.133
 1982TIP3    H1 5952   2.755   5.701   3.180
 1982TIP3    H2 5953   2.807   5.742   3.044
 1983TIP3   OH2 5954   3.188   2.105   0.339
 1983TIP3    H1 5955   3.275   2.073   0.317
 1983TIP3    H2 5956   3.176   2.182   0.283
 1984TIP3   OH2 5957   4.243   2.313   1.261
 1984TIP3    H1 5958   4.251   2.264   1.180
 1984TIP3    H2 5959   4.149   2.315   1.279
 1985TIP3   OH2 5960   4.834   4.339   1.886
 1985TIP3    H1 5961   4.812   4.263   1.941
 1985TIP3    H2 5962   4.879   4.399   1.945
 1986TIP3   OH2 5963   2.382   2.748   3.792
 1986TIP3    H1 5964   2.476   2.761   3.805
 1986TIP3    H2 5965   2.376   2.709   3.705
 1987TIP3   OH2 5966   4.023   4.218   4.004
 1987TIP3    H1 5967   4.065   4.169   3.932
 1987TIP3    H2 5968   3.992   4.298   3.962
 1988TIP3   OH2 5969   4.754   2.866   4.494
 1988TIP3    H1 5970   4.822   2.819   4.445
 1988TIP3    H2 5971   4.707   2.917   4.429
 1989TIP3   OH2 5972   3.524   1.816   1.433
 1989TIP3    H1 5973   3.579   1.772   1.498
 1989TIP3    H2 5974   3.438   1.775   1.443
 1990TIP3   OH2 5975   3.056   4.351   4.806
 1990TIP3    H1 5976   3.120   4.402   4.756
 1990TIP3    H2 5977   3.103   4.324   4.885
 1991TIP3   OH2 5978   0.802   4.382   3.180
 1991TIP3    H1 5979   0.827   4.463   3.134
 1991TIP3    H2 5980   0.771   4.412   3.265
 1992TIP3   OH2 5981   4.906   0.339   3.816
 1992TIP3    H1 5982   4.995   0.335   3.850
 1992TIP3    H2 5983   4.917   0.359   3.723
 1993TIP3   OH2 5984   1.067   3.387   4.568
 1993TIP3    H1 5985   1.041   3.340   4.647
 1993TIP3    H2 5986   1.153   3.350   4.544
 1994TIP3   OH2 5987   0.950   5.446   2.312
 1994TIP3    H1 5988   1.009   5.376   2.340
 1994TIP3    H2 5989   0.869   5.428   2.359
 1995TIP3   OH2 5990   5.168   5.892   4.636
 1995TIP3    H1 5991   5.107   5.957   4.669
 1995TIP3    H2 5992   5.216   5.863   4.713
 1996TIP3   OH2 5993   0.296   0.743   4.624
 1996TIP3    H1 5994   0.283   0.661   4.671
 1996TIP3    H2 5995   0.209   0.783   4.620
 1997TIP3   OH2 5996   3.290   2.794   4.349
 1997TIP3    H1 5997   3.274   2.719   4.407
 1997TIP3    H2 5998   3.342   2.758   4.277
 1998TIP3   OH2 5999   3.295   3.236   0.169
 1998TIP3    H1 6000   3.280   3.315   0.116
 1998TIP3    H2 6001   3.317   3.168   0.105
 1999TIP3   OH2 6002   2.984   3.029   1.157
 1999TIP3    H1 6003   2.994   3.016   1.251
 1999TIP3    H2 6004   3.072   3.016   1.121
 2000TIP3   OH2 6005   0.508   2.719   3.214
 2000TIP3    H1 6006   0.510   2.798   3.160
 2000TIP3    H2 6007   0.499   2.752   3.304
 2001TIP3   OH2 6008   5.959   0.254   4.458
 2001TIP3    H1 6009   5.865   0.235   4.455
 2001TIP3    H2 6010   5.977   0.298   4.375
 2002TIP3   OH2 6011   5.305   0.329   3.053
 2002TIP3    H1 6012   5.364   0.404   3.043
 2002TIP3    H2 6013   5.356   0.255   3.020
 2003TIP3   OH2 6014   0.880   0.293   4.501
 2003TIP3    H1 6015   0.854   0.380   4.531
 2003TIP3    H2 6016   0.848   0.234   4.569
 2004TIP3   OH2 6017   6.086   4.114   1.429
 2004TIP3    H1 6018   6.057   4.138   1.517
 2004TIP3    H2 6019   6.133   4.191   1.398
 2005TIP3   OH2 6020   1.821   3.813   4.793
 2005TIP3    H1 6021   1.812   3.817   4.698
 2005TIP3    H2 6022   1.751   3.753   4.820
 2006TIP3   OH2 6023   3.995   0.023   1.183
 2006TIP3    H1 6024   4.021  -0.009   1.096
 2006TIP3    H2 6025   3.902   0.002   1.190
 2007TIP3   OH2 6026   2.303  -0.002   5.143
 2007TIP3    H1 6027   2.362   0.021   5.072
 2007TIP3    H2 6028   2.229   0.058   5.134
 2008TIP3   OH2 6029   4.542   5.426   1.242
 2008TIP3    H1 6030   4.567   5.351   1.296
 2008TIP3    H2 6031   4.468   5.466   1.290
 2009TIP3   OH2 6032   0.084   3.879   2.627
 2009TIP3    H1 6033   0.110   3.937   2.555
 2009TIP3    H2 6034   0.014   3.927   2.672
 2010TIP3   OH2 6035   3.097   0.725   0.907
 2010TIP3    H1 6036   3.128   0.779   0.833
 2010TIP3    H2 6037   3.175   0.681   0.939
 2011TIP3   OH2 6038   5.779   0.377   4.018
 2011TIP3    H1 6039   5.775   0.374   4.114
 2011TIP3    H2 6040   5.793   0.286   3.992
 2012TIP3   OH2 6041   1.876   5.732   1.335
 2012TIP3    H1 6042   1.909   5.815   1.371
 2012TIP3    H2 6043   1.802   5.710   1.391
 2013TIP3   OH2 6044   5.268   1.043   2.066
 2013TIP3    H1 6045   5.269   0.947   2.062
 2013TIP3    H2 6046   5.350   1.069   2.024
 2014TIP3   OH2 6047   3.487   3.790   0.850
 2014TIP3    H1 6048   3.453   3.810   0.763
 2014TIP3    H2 6049   3.577   3.763   0.835
 2015TIP3   OH2 6050   1.468   3.162   0.020
 2015TIP3    H1 6051   1.493   3.154   0.112
 2015TIP3    H2 6052   1.460   3.071  -0.011
 2016TIP3   OH2 6053   4.370   4.104   3.676
 2016TIP3    H1 6054   4.363   4.174   3.611
 2016TIP3    H2 6055   4.426   4.038   3.633
 2017TIP3   OH2 6056   1.884   1.202   1.491
 2017TIP3    H1 6057   1.945   1.269   1.459
 2017TIP3    H2 6058   1.933   1.120   1.485
 2018TIP3   OH2 6059   4.042   0.539   0.574
 2018TIP3    H1 6060   3.981   0.562   0.504
 2018TIP3    H2 6061   4.000   0.466   0.619
 2019TIP3   OH2 6062   1.089   5.775   1.553
 2019TIP3    H1 6063   1.126   5.744   1.635
 2019TIP3    H2 6064   1.052   5.696   1.512
 2020TIP3   OH2 6065   0.610   5.835   1.733
 2020TIP3    H1 6066   0.587   5.818   1.642
 2020TIP3    H2 6067   0.529   5.868   1.772
 2021TIP3   OH2 6068   4.312   4.628   0.126
 2021TIP3    H1 6069   4.379   4.692   0.103
 2021TIP3    H2 6070   4.359   4.559   0.173
 2022TIP3   OH2 6071   1.854   2.028   3.145
 2022TIP3    H1 6072   1.877   1.936   3.154
 2022TIP3    H2 6073   1.911   2.060   3.075
 2023TIP3   OH2 6074   0.641   3.010   1.811
 2023TIP3    H1 6075   0.613   3.094   1.775
 2023TIP3    H2 6076   0.713   2.982   1.754
 2024TIP3   OH2 6077   1.829   5.467   2.486
 2024TIP3    H1 6078   1.892   5.401   2.456
 2024TIP3    H2 6079   1.882   5.531   2.534
 2025TIP3   OH2 6080   3.592   0.792   4.558
 2025TIP3    H1 6081   3.625   0.702   4.554
 2025TIP3    H2 6082   3.511   0.785   4.608
 2026TIP3   OH2 6083   0.043   3.308   2.318
 2026TIP3    H1 6084   0.130   3.314   2.359
 2026TIP3    H2 6085   0.056   3.249   2.245
 2027TIP3   OH2 6086   5.585   0.893   1.924
 2027TIP3    H1 6087   5.561   0.982   1.897
 2027TIP3    H2 6088   5.505   0.842   1.908
 2028TIP3   OH2 6089   5.260   5.467   5.157
 2028TIP3    H1 6090   5.336   5.445   5.104
 2028TIP3    H2 6091   5.224   5.546   5.115
 2029TIP3   OH2 6092   0.916   1.021   3.144
 2029TIP3    H1 6093   0.934   1.106   3.103
 2029TIP3    H2 6094   0.945   1.031   3.234
 2030TIP3   OH2 6095   1.992   5.055   3.971
 2030TIP3    H1 6096   2.038   5.116   4.029
 2030TIP3    H2 6097   1.900   5.063   3.996
 2031TIP3   OH2 6098   3.946   2.150   2.593
 2031TIP3    H1 6099   4.026   2.167   2.643
 2031TIP3    H2 6100   3.933   2.056   2.601
 2032TIP3   OH2 6101   0.668   4.730   4.176
 2032TIP3    H1 6102   0.699   4.749   4.264
 2032TIP3    H2 6103   0.573   4.725   4.184
 2033TIP3   OH2 6104   6.120   2.681   1.593
 2033TIP3    H1 6105   6.204   2.652   1.630
 2033TIP3    H2 6106   6.138   2.695   1.500
 2034TIP3   OH2 6107   5.161   2.452   3.453
 2034TIP3    H1 6108   5.148   2.362   3.424
 2034TIP3    H2 6109   5.075   2.493   3.440
 2035TIP3   OH2 6110   1.848   5.241   2.911
 2035TIP3    H1 6111   1.928   5.292   2.922
 2035TIP3    H2 6112   1.778   5.296   2.947
 2036TIP3   OH2 6113   4.723   2.367   3.727
 2036TIP3    H1 6114   4.763   2.318   3.655
 2036TIP3    H2 6115   4.746   2.318   3.805
 2037TIP3   OH2 6116   0.443   1.412   1.900
 2037TIP3    H1 6117   0.378   1.368   1.954
 2037TIP3    H2 6118   0.436   1.505   1.924
 2038TIP3   OH2 6119   2.482   5.496   5.108
 2038TIP3    H1 6120   2.448   5.419   5.063
 2038TIP3    H2 6121   2.419   5.513   5.178
 2039TIP3   OH2 6122   1.655   1.814   3.811
 2039TIP3    H1 6123   1.643   1.750   3.741
 2039TIP3    H2 6124   1.749   1.831   3.813
 2040TIP3   OH2 6125   3.165   4.588   3.754
 2040TIP3    H1 6126   3.085   4.573   3.704
 2040TIP3    H2 6127   3.177   4.509   3.806
 2041TIP3   OH2 6128   3.529   4.550   5.016
 2041TIP3    H1 6129   3.555   4.546   4.924
 2041TIP3    H2 6130   3.437   4.576   5.013
 2042TIP3   OH2 6131   1.343   4.738   4.935
 2042TIP3    H1 6132   1.423   4.684   4.931
 2042TIP3    H2 6133   1.276   4.683   4.894
 2043TIP3   OH2 6134   2.347   0.392   2.193
 2043TIP3    H1 6135   2.332   0.473   2.241
 2043TIP3    H2 6136   2.354   0.324   2.260
 2044TIP3   OH2 6137   3.411   1.348   4.272
 2044TIP3    H1 6138   3.436   1.295   4.197
 2044TIP3    H2 6139   3.493   1.362   4.320
 2045TIP3   OH2 6140   2.028   3.339   1.267
 2045TIP3    H1 6141   2.110   3.291   1.258
 2045TIP3    H2 6142   1.964   3.271   1.289
 2046TIP3   OH2 6143   2.416   4.432   2.459
 2046TIP3    H1 6144   2.464   4.513   2.444
 2046TIP3    H2 6145   2.439   4.407   2.549
 2047TIP3   OH2 6146   3.096   3.656   3.391
 2047TIP3    H1 6147   3.188   3.633   3.373
 2047TIP3    H2 6148   3.095   3.678   3.484
 2048TIP3   OH2 6149   1.398   0.640   2.829
 2048TIP3    H1 6150   1.382   0.647   2.923
 2048TIP3    H2 6151   1.422   0.549   2.815
 2049TIP3   OH2 6152   1.361   3.261   3.538
 2049TIP3    H1 6153   1.385   3.170   3.524
 2049TIP3    H2 6154   1.374   3.303   3.453
 2050TIP3   OH2 6155   4.925   2.595   0.920
 2050TIP3    H1 6156   4.901   2.663   0.983
 2050TIP3    H2 6157   4.843   2.552   0.898
 2051TIP3   OH2 6158   3.233   2.482   3.775
 2051TIP3    H1 6159   3.225   2.567   3.818
 2051TIP3    H2 6160   3.251   2.421   3.847
 2052TIP3   OH2 6161   6.161   4.630   4.889
 2052TIP3    H1 6162   6.146   4.571   4.963
 2052TIP3    H2 6163   6.242   4.677   4.911
 2053TIP3   OH2 6164   5.196   3.177   0.071
 2053TIP3    H1 6165   5.219   3.099   0.020
 2053TIP3    H2 6166   5.166   3.240   0.005
 2054TIP3   OH2 6167   2.016   2.844   1.298
 2054TIP3    H1 6168   2.041   2.805   1.382
 2054TIP3    H2 6169   2.094   2.892   1.270
 2055TIP3   OH2 6170   0.191   0.975   5.011
 2055TIP3    H1 6171   0.177   0.888   4.973
 2055TIP3    H2 6172   0.108   0.995   5.054
 2056TIP3   OH2 6173   4.997   0.787   1.222
 2056TIP3    H1 6174   4.990   0.839   1.303
 2056TIP3    H2 6175   5.014   0.852   1.154
 2057TIP3   OH2 6176   1.694   1.991   4.723
 2057TIP3    H1 6177   1.697   2.063   4.659
 2057TIP3    H2 6178   1.658   2.031   4.802
 2058TIP3   OH2 6179   0.343   5.423   4.428
 2058TIP3    H1 6180   0.386   5.482   4.490
 2058TIP3    H2 6181   0.283   5.371   4.481
 2059TIP3   OH2 6182   3.511   2.777   2.333
 2059TIP3    H1 6183   3.529   2.860   2.288
 2059TIP3    H2 6184   3.418   2.762   2.319
 2060TIP3   OH2 6185   4.435   2.245   4.242
 2060TIP3    H1 6186   4.375   2.263   4.314
 2060TIP3    H2 6187   4.476   2.329   4.222
 2061TIP3   OH2 6188   2.062   5.162   0.431
 2061TIP3    H1 6189   1.971   5.134   0.443
 2061TIP3    H2 6190   2.099   5.098   0.369
 2062TIP3   OH2 6191   4.850   2.232   3.504
 2062TIP3    H1 6192   4.936   2.190   3.496
 2062TIP3    H2 6193   4.794   2.182   3.446
 2063TIP3   OH2 6194   3.342   2.307   2.143
 2063TIP3    H1 6195   3.268   2.251   2.119
 2063TIP3    H2 6196   3.335   2.382   2.084
 2064TIP3   OH2 6197   1.882   5.655   1.055
 2064TIP3    H1 6198   1.808   5.631   0.999
 2064TIP3    H2 6199   1.843   5.674   1.140
 2065TIP3   OH2 6200   3.462   5.838   2.232
 2065TIP3    H1 6201   3.441   5.930   2.253
 2065TIP3    H2 6202   3.416   5.821   2.150
 2066TIP3   OH2 6203   2.579   4.083   0.558
 2066TIP3    H1 6204   2.545   4.172   0.554
 2066TIP3    H2 6205   2.551   4.050   0.643
 2067TIP3   OH2 6206   3.084   1.113   0.304
 2067TIP3    H1 6207   3.115   1.023   0.292
 2067TIP3    H2 6208   3.136   1.164   0.241
 2068TIP3   OH2 6209   5.199   5.014   3.395
 2068TIP3    H1 6210   5.198   5.030   3.490
 2068TIP3    H2 6211   5.113   5.041   3.365
 2069TIP3   OH2 6212   3.160   0.254   3.458
 2069TIP3    H1 6213   3.235   0.264   3.516
 2069TIP3    H2 6214   3.169   0.326   3.395
 2070TIP3   OH2 6215   3.635   2.424   0.326
 2070TIP3    H1 6216   3.569   2.451   0.389
 2070TIP3    H2 6217   3.711   2.480   0.345
 2071TIP3   OH2 6218   3.972   2.237   2.976
 2071TIP3    H1 6219   3.937   2.151   2.954
 2071TIP3    H2 6220   3.898   2.297   2.965
 2072TIP3   OH2 6221   6.290   3.132   0.681
 2072TIP3    H1 6222   6.294   3.145   0.776
 2072TIP3    H2 6223   6.374   3.092   0.659
 2073TIP3   OH2 6224   0.123   2.658   4.276
 2073TIP3    H1 6225   0.057   2.600   4.237
 2073TIP3    H2 6226   0.189   2.599   4.313
 2074TIP3   OH2 6227   6.312   0.217   4.394
 2074TIP3    H1 6228   6.333   0.244   4.304
 2074TIP3    H2 6229   6.230   0.169   4.386
 2075TIP3   OH2 6230   5.573   4.433   2.348
 2075TIP3    H1 6231   5.534   4.350   2.375
 2075TIP3    H2 6232   5.512   4.499   2.380
 2076TIP3   OH2 6233   1.320   3.349   4.954
 2076TIP3    H1 6234   1.348   3.409   4.885
 2076TIP3    H2 6235   1.344   3.262   4.922
 2077TIP3   OH2 6236   5.587   1.903   1.855
 2077TIP3    H1 6237   5.635   1.820   1.857
 2077TIP3    H2 6238   5.502   1.882   1.894
 2078TIP3   OH2 6239   2.200   1.784   2.982
 2078TIP3    H1 6240   2.237   1.775   3.070
 2078TIP3    H2 6241   2.213   1.698   2.942
 2079TIP3   OH2 6242   0.792   5.697   3.672
 2079TIP3    H1 6243   0.702   5.689   3.641
 2079TIP3    H2 6244   0.838   5.624   3.629
 2080TIP3   OH2 6245   2.263   1.613   2.483
 2080TIP3    H1 6246   2.274   1.648   2.394
 2080TIP3    H2 6247   2.280   1.688   2.540
 2081TIP3   OH2 6248   1.560   4.082   4.725
 2081TIP3    H1 6249   1.559   4.037   4.641
 2081TIP3    H2 6250   1.563   4.175   4.703
 2082TIP3   OH2 6251   2.153   5.128   3.051
 2082TIP3    H1 6252   2.222   5.065   3.028
 2082TIP3    H2 6253   2.099   5.134   2.973
 2083TIP3   OH2 6254   4.123   4.817   4.881
 2083TIP3    H1 6255   4.204   4.819   4.933
 2083TIP3    H2 6256   4.093   4.908   4.881
 2084TIP3   OH2 6257   1.224   2.508   4.875
 2084TIP3    H1 6258   1.143   2.509   4.925
 2084TIP3    H2 6259   1.267   2.427   4.900
 2085TIP3   OH2 6260   3.668   0.048   1.969
 2085TIP3    H1 6261   3.601   0.076   2.031
 2085TIP3    H2 6262   3.620   0.000   1.901
 2086TIP3   OH2 6263   3.916   2.449   3.276
 2086TIP3    H1 6264   3.895   2.434   3.184
 2086TIP3    H2 6265   4.011   2.444   3.280
 2087TIP3   OH2 6266   3.242   4.264   1.949
 2087TIP3    H1 6267   3.313   4.199   1.949
 2087TIP3    H2 6268   3.288   4.348   1.942
 2088TIP3   OH2 6269   5.333   2.187   1.223
 2088TIP3    H1 6270   5.333   2.243   1.145
 2088TIP3    H2 6271   5.417   2.141   1.219
 2089TIP3   OH2 6272   1.036   5.014   4.210
 2089TIP3    H1 6273   1.042   5.016   4.306
 2089TIP3    H2 6274   1.124   5.035   4.180
 2090TIP3   OH2 6275   5.022   5.113   3.840
 2090TIP3    H1 6276   5.096   5.155   3.885
 2090TIP3    H2 6277   5.031   5.140   3.749
 2091TIP3   OH2 6278   2.050   5.136   4.371
 2091TIP3    H1 6279   1.977   5.131   4.310
 2091TIP3    H2 6280   2.057   5.230   4.392
 2092TIP3   OH2 6281   3.194   1.909   3.472
 2092TIP3    H1 6282   3.265   1.909   3.537
 2092TIP3    H2 6283   3.237   1.890   3.389
 2093TIP3   OH2 6284   2.106   2.755   2.843
 2093TIP3    H1 6285   2.111   2.844   2.808
 2093TIP3    H2 6286   2.027   2.718   2.803
 2094TIP3   OH2 6287   2.206   0.846   3.465
 2094TIP3    H1 6288   2.138   0.904   3.498
 2094TIP3    H2 6289   2.255   0.819   3.543
 2095TIP3   OH2 6290   5.588   1.514   2.508
 2095TIP3    H1 6291   5.506   1.549   2.474
 2095TIP3    H2 6292   5.576   1.513   2.603
 2096TIP3   OH2 6293   2.958   3.158   0.263
 2096TIP3    H1 6294   2.872   3.200   0.257
 2096TIP3    H2 6295   3.007   3.213   0.323
 2097TIP3   OH2 6296   4.543   4.436   1.888
 2097TIP3    H1 6297   4.591   4.437   1.806
 2097TIP3    H2 6298   4.608   4.411   1.954
 2098TIP3   OH2 6299   0.770   0.624   0.178
 2098TIP3    H1 6300   0.758   0.532   0.200
 2098TIP3    H2 6301   0.788   0.625   0.084
 2099TIP3   OH2 6302   2.696   3.562   3.238
 2099TIP3    H1 6303   2.650   3.485   3.204
 2099TIP3    H2 6304   2.775   3.569   3.184
 2100TIP3   OH2 6305   1.699   3.153   4.804
 2100TIP3    H1 6306   1.775   3.140   4.861
 2100TIP3    H2 6307   1.719   3.232   4.755
 2101TIP3   OH2 6308   5.309   4.975   2.176
 2101TIP3    H1 6309   5.292   5.055   2.226
 2101TIP3    H2 6310   5.359   5.004   2.099
 2102TIP3   OH2 6311   0.968   4.896   0.415
 2102TIP3    H1 6312   1.019   4.961   0.367
 2102TIP3    H2 6313   0.905   4.862   0.351
 2103TIP3   OH2 6314   5.733   5.200   1.610
 2103TIP3    H1 6315   5.764   5.198   1.519
 2103TIP3    H2 6316   5.792   5.141   1.657
 2104TIP3   OH2 6317   4.650   5.938   1.743
 2104TIP3    H1 6318   4.630   5.999   1.815
 2104TIP3    H2 6319   4.744   5.924   1.750
 2105TIP3   OH2 6320   4.997   0.273   2.074
 2105TIP3    H1 6321   5.061   0.321   2.127
 2105TIP3    H2 6322   4.932   0.338   2.050
 2106TIP3   OH2 6323   4.012   2.690   0.225
 2106TIP3    H1 6324   4.006   2.604   0.184
 2106TIP3    H2 6325   3.970   2.679   0.310
 2107TIP3   OH2 6326   3.412   2.895   2.844
 2107TIP3    H1 6327   3.442   2.895   2.935
 2107TIP3    H2 6328   3.462   2.825   2.802
 2108TIP3   OH2 6329   0.945   1.042   2.733
 2108TIP3    H1 6330   0.983   0.975   2.676
 2108TIP3    H2 6331   0.887   1.092   2.677
 2109TIP3   OH2 6332   3.371   3.410   3.069
 2109TIP3    H1 6333   3.375   3.316   3.090
 2109TIP3    H2 6334   3.283   3.437   3.093
 2110TIP3   OH2 6335   1.924   4.992   1.735
 2110TIP3    H1 6336   1.828   4.988   1.735
 2110TIP3    H2 6337   1.946   5.035   1.817
 2111TIP3   OH2 6338   3.329   1.509   0.863
 2111TIP3    H1 6339   3.376   1.458   0.929
 2111TIP3    H2 6340   3.242   1.469   0.860
 2112TIP3   OH2 6341   6.032   5.659   4.352
 2112TIP3    H1 6342   5.976   5.594   4.308
 2112TIP3    H2 6343   5.994   5.667   4.439
 2113TIP3   OH2 6344   3.817   1.989   0.318
 2113TIP3    H1 6345   3.753   1.929   0.357
 2113TIP3    H2 6346   3.765   2.048   0.263
 2114TIP3   OH2 6347   4.541   5.384   0.983
 2114TIP3    H1 6348   4.484   5.308   0.977
 2114TIP3    H2 6349   4.517   5.426   1.066
 2115TIP3   OH2 6350   4.117   1.960   2.364
 2115TIP3    H1 6351   4.204   1.994   2.385
 2115TIP3    H2 6352   4.128   1.865   2.362
 2116TIP3   OH2 6353   4.448   1.533   4.631
 2116TIP3    H1 6354   4.408   1.454   4.668
 2116TIP3    H2 6355   4.508   1.499   4.564
 2117TIP3   OH2 6356   1.124   4.524   5.034
 2117TIP3    H1 6357   1.133   4.492   4.945
 2117TIP3    H2 6358   1.076   4.607   5.026
 2118TIP3   OH2 6359   5.376   5.150   4.535
 2118TIP3    H1 6360   5.389   5.056   4.529
 2118TIP3    H2 6361   5.387   5.171   4.627
 2119TIP3   OH2 6362   1.356   0.497   1.923
 2119TIP3    H1 6363   1.407   0.494   2.004
 2119TIP3    H2 6364   1.342   0.590   1.906
 2120TIP3   OH2 6365   3.841   0.569   3.173
 2120TIP3    H1 6366   3.826   0.622   3.252
 2120TIP3    H2 6367   3.896   0.624   3.117
 2121TIP3   OH2 6368   3.895   4.619   2.452
 2121TIP3    H1 6369   3.834   4.596   2.382
 2121TIP3    H2 6370   3.843   4.619   2.532
 2122TIP3   OH2 6371   4.791   4.959   2.262
 2122TIP3    H1 6372   4.867   4.902   2.265
 2122TIP3    H2 6373   4.743   4.932   2.184
 2123TIP3   OH2 6374   3.475   2.810   0.973
 2123TIP3    H1 6375   3.450   2.787   0.884
 2123TIP3    H2 6376   3.563   2.847   0.965
 2124TIP3   OH2 6377   6.056   2.789   0.463
 2124TIP3    H1 6378   6.006   2.832   0.394
 2124TIP3    H2 6379   6.115   2.729   0.416
 2125TIP3   OH2 6380   6.216   4.357   3.743
 2125TIP3    H1 6381   6.233   4.442   3.785
 2125TIP3    H2 6382   6.181   4.379   3.657
 2126TIP3   OH2 6383   3.283   4.528   1.195
 2126TIP3    H1 6384   3.323   4.544   1.110
 2126TIP3    H2 6385   3.190   4.517   1.176
 2127TIP3   OH2 6386   4.609   0.578   1.009
 2127TIP3    H1 6387   4.606   0.638   1.084
 2127TIP3    H2 6388   4.700   0.548   1.007
 2128TIP3   OH2 6389   2.492   4.219   4.596
 2128TIP3    H1 6390   2.487   4.268   4.513
 2128TIP3    H2 6391   2.585   4.208   4.612
 2129TIP3   OH2 6392   2.136   0.098   3.087
 2129TIP3    H1 6393   2.143   0.191   3.109
 2129TIP3    H2 6394   2.122   0.054   3.171
 2130TIP3   OH2 6395   1.676   2.549   2.511
 2130TIP3    H1 6396   1.599   2.605   2.521
 2130TIP3    H2 6397   1.727   2.564   2.591
 2131TIP3   OH2 6398   5.830   3.487   2.445
 2131TIP3    H1 6399   5.813   3.394   2.465
 2131TIP3    H2 6400   5.793   3.499   2.357
 2132TIP3   OH2 6401   3.215   5.295   0.664
 2132TIP3    H1 6402   3.276   5.285   0.590
 2132TIP3    H2 6403   3.246   5.232   0.729
 2133TIP3   OH2 6404   2.616   5.331   1.416
 2133TIP3    H1 6405   2.705   5.300   1.427
 2133TIP3    H2 6406   2.565   5.253   1.397
 2134TIP3   OH2 6407   5.435   5.771   3.565
 2134TIP3    H1 6408   5.507   5.794   3.506
 2134TIP3    H2 6409   5.364   5.743   3.507
 2135TIP3   OH2 6410   0.610   4.555   4.470
 2135TIP3    H1 6411   0.671   4.510   4.528
 2135TIP3    H2 6412   0.545   4.489   4.447
 2136TIP3   OH2 6413   0.485   4.086   1.343
 2136TIP3    H1 6414   0.528   4.075   1.427
 2136TIP3    H2 6415   0.498   4.002   1.298
 2137TIP3   OH2 6416   0.659   5.355   4.232
 2137TIP3    H1 6417   0.603   5.299   4.286
 2137TIP3    H2 6418   0.727   5.296   4.198
 2138TIP3   OH2 6419   4.255   2.251   0.617
 2138TIP3    H1 6420   4.278   2.160   0.602
 2138TIP3    H2 6421   4.180   2.267   0.560
 2139TIP3   OH2 6422   0.391   1.686   3.389
 2139TIP3    H1 6423   0.431   1.695   3.302
 2139TIP3    H2 6424   0.300   1.661   3.371
 2140TIP3   OH2 6425   2.841   1.676   0.449
 2140TIP3    H1 6426   2.847   1.768   0.478
 2140TIP3    H2 6427   2.785   1.679   0.372
 2141TIP3   OH2 6428   2.328   1.163   2.741
 2141TIP3    H1 6429   2.338   1.257   2.758
 2141TIP3    H2 6430   2.328   1.123   2.828
 2142TIP3   OH2 6431   3.650   2.588   2.064
 2142TIP3    H1 6432   3.664   2.499   2.097
 2142TIP3    H2 6433   3.558   2.588   2.036
 2143TIP3   OH2 6434   4.526   4.039   0.509
 2143TIP3    H1 6435   4.505   3.962   0.562
 2143TIP3    H2 6436   4.612   4.021   0.472
 2144TIP3   OH2 6437   2.007   5.611   2.631
 2144TIP3    H1 6438   1.995   5.651   2.717
 2144TIP3    H2 6439   2.034   5.684   2.574
 2145TIP3   OH2 6440   4.743   4.527   0.125
 2145TIP3    H1 6441   4.697   4.609   0.110
 2145TIP3    H2 6442   4.673   4.461   0.129
 2146TIP3   OH2 6443   2.495   3.794   0.926
 2146TIP3    H1 6444   2.413   3.776   0.972
 2146TIP3    H2 6445   2.546   3.713   0.936
 2147TIP3   OH2 6446   0.636   0.698   5.047
 2147TIP3    H1 6447   0.666   0.717   5.136
 2147TIP3    H2 6448   0.541   0.689   5.056
 2148TIP3   OH2 6449   0.114   2.900   3.900
 2148TIP3    H1 6450   0.163   2.884   3.981
 2148TIP3    H2 6451   0.181   2.919   3.835
 2149TIP3   OH2 6452   2.617   1.566   4.445
 2149TIP3    H1 6453   2.523   1.550   4.455
 2149TIP3    H2 6454   2.659   1.508   4.509
 2150TIP3   OH2 6455   1.619   4.577   5.099
 2150TIP3    H1 6456   1.622   4.650   5.037
 2150TIP3    H2 6457   1.641   4.615   5.183
 2151TIP3   OH2 6458   3.109   5.282   0.394
 2151TIP3    H1 6459   3.018   5.308   0.384
 2151TIP3    H2 6460   3.115   5.249   0.483
 2152TIP3   OH2 6461   5.670   4.973   3.585
 2152TIP3    H1 6462   5.750   4.971   3.637
 2152TIP3    H2 6463   5.676   5.054   3.534
 2153TIP3   OH2 6464   1.304   5.035   0.257
 2153TIP3    H1 6465   1.290   4.940   0.261
 2153TIP3    H2 6466   1.336   5.058   0.344
 2154TIP3   OH2 6467   4.845   0.920   0.922
 2154TIP3    H1 6468   4.829   0.988   0.857
 2154TIP3    H2 6469   4.764   0.915   0.974
 2155TIP3   OH2 6470   5.842   0.596   4.572
 2155TIP3    H1 6471   5.858   0.613   4.479
 2155TIP3    H2 6472   5.929   0.600   4.612
 2156TIP3   OH2 6473   1.038   3.225   4.799
 2156TIP3    H1 6474   1.098   3.159   4.834
 2156TIP3    H2 6475   0.965   3.226   4.860
 2157TIP3   OH2 6476   4.631   5.253   0.614
 2157TIP3    H1 6477   4.570   5.283   0.681
 2157TIP3    H2 6478   4.699   5.320   0.610
 2158TIP3   OH2 6479   4.082   3.631   0.511
 2158TIP3    H1 6480   4.011   3.591   0.460
 2158TIP3    H2 6481   4.153   3.566   0.506
 2159TIP3   OH2 6482   2.935   0.909   0.105
 2159TIP3    H1 6483   2.883   0.936   0.181
 2159TIP3    H2 6484   2.919   0.815   0.097
 2160TIP3   OH2 6485   2.914   3.559   1.433
 2160TIP3    H1 6486   2.894   3.470   1.404
 2160TIP3    H2 6487   3.008   3.558   1.451
 2161TIP3   OH2 6488   1.496   4.727   1.846
 2161TIP3    H1 6489   1.522   4.652   1.791
 2161TIP3    H2 6490   1.577   4.756   1.886
 2162TIP3   OH2 6491   3.335   2.655   1.715
 2162TIP3    H1 6492   3.404   2.718   1.695
 2162TIP3    H2 6493   3.254   2.705   1.704
 2163TIP3   OH2 6494   4.950   5.703   0.305
 2163TIP3    H1 6495   5.027   5.673   0.354
 2163TIP3    H2 6496   4.875   5.667   0.352
 2164TIP3   OH2 6497   1.639   5.374   3.435
 2164TIP3    H1 6498   1.724   5.418   3.428
 2164TIP3    H2 6499   1.576   5.440   3.404
 2165TIP3   OH2 6500   1.768   4.709   0.175
 2165TIP3    H1 6501   1.778   4.626   0.221
 2165TIP3    H2 6502   1.679   4.706   0.141
 2166TIP3   OH2 6503   1.852   5.586   4.849
 2166TIP3    H1 6504   1.819   5.535   4.923
 2166TIP3    H2 6505   1.885   5.521   4.787
 2167TIP3   OH2 6506   3.224   3.386   2.706
 2167TIP3    H1 6507   3.251   3.385   2.798
 2167TIP3    H2 6508   3.249   3.473   2.675
 2168TIP3   OH2 6509   3.255   1.007   4.011
 2168TIP3    H1 6510   3.209   1.072   3.959
 2168TIP3    H2 6511   3.296   1.057   4.082
 2169TIP3   OH2 6512   3.593   4.636   1.237
 2169TIP3    H1 6513   3.659   4.631   1.167
 2169TIP3    H2 6514   3.636   4.598   1.313
 2170TIP3   OH2 6515   1.888   5.453   1.784
 2170TIP3    H1 6516   1.916   5.543   1.768
 2170TIP3    H2 6517   1.890   5.411   1.698
 2171TIP3   OH2 6518   5.287   2.104   1.592
 2171TIP3    H1 6519   5.260   2.079   1.680
 2171TIP3    H2 6520   5.283   2.199   1.591
 2172TIP3   OH2 6521   2.352   2.310   3.353
 2172TIP3    H1 6522   2.286   2.282   3.416
 2172TIP3    H2 6523   2.341   2.252   3.278
 2173TIP3   OH2 6524   3.721   4.936   2.207
 2173TIP3    H1 6525   3.733   4.876   2.281
 2173TIP3    H2 6526   3.720   4.879   2.130
 2174TIP3   OH2 6527   3.755   0.941   0.394
 2174TIP3    H1 6528   3.727   0.873   0.333
 2174TIP3    H2 6529   3.814   0.896   0.454
 2175TIP3   OH2 6530   2.451   2.885   1.336
 2175TIP3    H1 6531   2.504   2.821   1.384
 2175TIP3    H2 6532   2.483   2.970   1.366
 2176TIP3   OH2 6533   2.794   4.358   2.156
 2176TIP3    H1 6534   2.757   4.357   2.068
 2176TIP3    H2 6535   2.718   4.352   2.214
 2177TIP3   OH2 6536   3.119   2.372   0.913
 2177TIP3    H1 6537   3.050   2.385   0.977
 2177TIP3    H2 6538   3.117   2.450   0.858
 2178TIP3   OH2 6539   2.451   5.062   3.699
 2178TIP3    H1 6540   2.402   5.017   3.768
 2178TIP3    H2 6541   2.390   5.067   3.625
 2179TIP3   OH2 6542   3.819   2.088   2.315
 2179TIP3    H1 6543   3.910   2.059   2.324
 2179TIP3    H2 6544   3.795   2.120   2.402
 2180TIP3   OH2 6545   6.279   1.084   3.807
 2180TIP3    H1 6546   6.258   1.054   3.896
 2180TIP3    H2 6547   6.344   1.021   3.776
 2181TIP3   OH2 6548   4.292   4.933   1.074
 2181TIP3    H1 6549   4.308   4.844   1.043
 2181TIP3    H2 6550   4.203   4.931   1.108
 2182TIP3   OH2 6551   0.070   2.953   1.744
 2182TIP3    H1 6552  -0.001   2.964   1.681
 2182TIP3    H2 6553   0.024   2.936   1.827
 2183TIP3   OH2 6554   2.561   4.618   4.809
 2183TIP3    H1 6555   2.566   4.598   4.902
 2183TIP3    H2 6556   2.481   4.669   4.799
 2184TIP3   OH2 6557   0.325   4.152   3.981
 2184TIP3    H1 6558   0.309   4.149   4.076
 2184TIP3    H2 6559   0.254   4.206   3.946
 2185TIP3   OH2 6560   5.373   4.700   2.249
 2185TIP3    H1 6561   5.386   4.687   2.343
 2185TIP3    H2 6562   5.348   4.792   2.241
 2186TIP3   OH2 6563   2.527   5.559   4.086
 2186TIP3    H1 6564   2.580   5.483   4.106
 2186TIP3    H2 6565   2.587   5.633   4.092
 2187TIP3   OH2 6566   4.081   2.888   4.038
 2187TIP3    H1 6567   4.136   2.928   3.970
 2187TIP3    H2 6568   4.081   2.951   4.110
 2188TIP3   OH2 6569   3.785   5.759   1.574
 2188TIP3    H1 6570   3.812   5.849   1.591
 2188TIP3    H2 6571   3.861   5.717   1.534
 2189TIP3   OH2 6572   2.107   3.715   5.113
 2189TIP3    H1 6573   2.172   3.718   5.184
 2189TIP3    H2 6574   2.137   3.644   5.056
 2190TIP3   OH2 6575   5.151   3.663   4.616
 2190TIP3    H1 6576   5.233   3.626   4.651
 2190TIP3    H2 6577   5.088   3.654   4.687
 2191TIP3   OH2 6578   5.709   3.881   2.994
 2191TIP3    H1 6579   5.696   3.956   2.936
 2191TIP3    H2 6580   5.662   3.809   2.952
 2192TIP3   OH2 6581   1.641   4.223   1.527
 2192TIP3    H1 6582   1.601   4.205   1.611
 2192TIP3    H2 6583   1.575   4.197   1.463
 2193TIP3   OH2 6584   1.267   4.170   3.961
 2193TIP3    H1 6585   1.294   4.184   3.870
 2193TIP3    H2 6586   1.231   4.255   3.988
 2194TIP3   OH2 6587   0.751   5.932   2.406
 2194TIP3    H1 6588   0.726   5.840   2.413
 2194TIP3    H2 6589   0.701   5.965   2.332
 2195TIP3   OH2 6590   3.687   4.083   3.399
 2195TIP3    H1 6591   3.769   4.037   3.417
 2195TIP3    H2 6592   3.623   4.013   3.387
 2196TIP3   OH2 6593   2.931   4.321   1.197
 2196TIP3    H1 6594   2.923   4.416   1.186
 2196TIP3    H2 6595   2.841   4.290   1.206
 2197TIP3   OH2 6596   4.422   2.253   3.507
 2197TIP3    H1 6597   4.453   2.198   3.435
 2197TIP3    H2 6598   4.349   2.203   3.545
 2198TIP3   OH2 6599   5.017   0.740   3.652
 2198TIP3    H1 6600   5.031   0.692   3.734
 2198TIP3    H2 6601   4.950   0.805   3.673
 2199TIP3   OH2 6602   2.762   2.828   2.889
 2199TIP3    H1 6603   2.855   2.845   2.871
 2199TIP3    H2 6604   2.763   2.768   2.963
 2200TIP3   OH2 6605   1.068   1.777   4.605
 2200TIP3    H1 6606   1.048   1.711   4.671
 2200TIP3    H2 6607   1.138   1.829   4.643
 2201TIP3   OH2 6608   6.035   5.844   4.123
 2201TIP3    H1 6609   5.940   5.857   4.131
 2201TIP3    H2 6610   6.059   5.796   4.202
 2202TIP3   OH2 6611   5.530   5.049   4.921
 2202TIP3    H1 6612   5.567   5.084   5.003
 2202TIP3    H2 6613   5.481   4.972   4.948
 2203TIP3   OH2 6614   3.471   4.629   2.084
 2203TIP3    H1 6615   3.479   4.535   2.073
 2203TIP3    H2 6616   3.391   4.653   2.037
 2204TIP3   OH2 6617   2.948   2.770   1.950
 2204TIP3    H1 6618   2.884   2.796   2.017
 2204TIP3    H2 6619   2.902   2.780   1.867
 2205TIP3   OH2 6620   4.241   5.343   1.794
 2205TIP3    H1 6621   4.226   5.346   1.888
 2205TIP3    H2 6622   4.283   5.427   1.774
 2206TIP3   OH2 6623   1.838   1.007   1.956
 2206TIP3    H1 6624   1.769   0.958   1.909
 2206TIP3    H2 6625   1.840   1.092   1.913
 2207TIP3   OH2 6626   2.427   5.637   2.325
 2207TIP3    H1 6627   2.475   5.575   2.380
 2207TIP3    H2 6628   2.472   5.633   2.241
 2208TIP3   OH2 6629   4.393   2.300   0.860
 2208TIP3    H1 6630   4.347   2.373   0.903
 2208TIP3    H2 6631   4.346   2.288   0.777
 2209TIP3   OH2 6632   1.851   1.786   2.785
 2209TIP3    H1 6633   1.917   1.839   2.741
 2209TIP3    H2 6634   1.869   1.696   2.756
 2210TIP3   OH2 6635   3.311   1.196   5.112
 2210TIP3    H1 6636   3.241   1.226   5.171
 2210TIP3    H2 6637   3.305   1.101   5.116
 2211TIP3   OH2 6638   4.556   5.533   0.769
 2211TIP3    H1 6639   4.559   5.504   0.860
 2211TIP3    H2 6640   4.467   5.512   0.740
 2212TIP3   OH2 6641   1.138   0.066   0.978
 2212TIP3    H1 6642   1.130   0.094   0.887
 2212TIP3    H2 6643   1.048   0.061   1.010
 2213TIP3   OH2 6644   1.748   1.487   1.861
 2213TIP3    H1 6645   1.701   1.507   1.780
 2213TIP3    H2 6646   1.753   1.391   1.862
 2214TIP3   OH2 6647   3.464   0.648   1.289
 2214TIP3    H1 6648   3.434   0.617   1.374
 2214TIP3    H2 6649   3.386   0.647   1.234
 2215TIP3   OH2 6650   4.623   4.851   3.528
 2215TIP3    H1 6651   4.707   4.816   3.558
 2215TIP3    H2 6652   4.636   4.946   3.525
 2216TIP3   OH2 6653   1.896   2.771   3.105
 2216TIP3    H1 6654   1.968   2.804   3.159
 2216TIP3    H2 6655   1.857   2.849   3.066
 2217TIP3   OH2 6656   4.433   5.907   4.750
 2217TIP3    H1 6657   4.351   5.903   4.701
 2217TIP3    H2 6658   4.433   5.994   4.790
 2218TIP3   OH2 6659   1.952   0.482   1.534
 2218TIP3    H1 6660   1.874   0.427   1.533
 2218TIP3    H2 6661   1.953   0.525   1.449
 2219TIP3   OH2 6662   5.610   3.220   2.558
 2219TIP3    H1 6663   5.603   3.126   2.577
 2219TIP3    H2 6664   5.637   3.224   2.466
 2220TIP3   OH2 6665   0.151   1.139   1.718
 2220TIP3    H1 6666   0.080   1.075   1.729
 2220TIP3    H2 6667   0.182   1.126   1.629
 2221TIP3   OH2 6668   2.083   5.516   3.220
 2221TIP3    H1 6669   2.106   5.431   3.258
 2221TIP3    H2 6670   2.003   5.541   3.267
 2222TIP3   OH2 6671   5.196   0.208   2.675
 2222TIP3    H1 6672   5.157   0.128   2.638
 2222TIP3    H2 6673   5.125   0.250   2.722
 2223TIP3   OH2 6674   6.193   5.415   3.914
 2223TIP3    H1 6675   6.147   5.331   3.912
 2223TIP3    H2 6676   6.142   5.472   3.856
 2224TIP3   OH2 6677   1.494   2.094   2.388
 2224TIP3    H1 6678   1.485   2.189   2.400
 2224TIP3    H2 6679   1.585   2.075   2.409
 2225TIP3   OH2 6680   4.766   2.222   3.945
 2225TIP3    H1 6681   4.770   2.288   4.014
 2225TIP3    H2 6682   4.843   2.166   3.961
 2226TIP3   OH2 6683   0.308   5.208   0.841
 2226TIP3    H1 6684   0.227   5.176   0.880
 2226TIP3    H2 6685   0.280   5.283   0.788
 2227TIP3   OH2 6686   0.851   0.596   3.130
 2227TIP3    H1 6687   0.925   0.611   3.190
 2227TIP3    H2 6688   0.774   0.592   3.187
 2228TIP3   OH2 6689   3.968   5.928   4.846
 2228TIP3    H1 6690   3.987   5.984   4.771
 2228TIP3    H2 6691   3.961   5.989   4.920
 2229TIP3   OH2 6692   0.608   4.001   0.472
 2229TIP3    H1 6693   0.580   3.936   0.407
 2229TIP3    H2 6694   0.556   3.981   0.549
 2230TIP3   OH2 6695   0.815   3.428   2.085
 2230TIP3    H1 6696   0.803   3.459   2.174
 2230TIP3    H2 6697   0.894   3.473   2.054
 2231TIP3   OH2 6698   2.373   2.062   4.791
 2231TIP3    H1 6699   2.424   1.986   4.763
 2231TIP3    H2 6700   2.295   2.060   4.736
 2232TIP3   OH2 6701   5.380   3.769   1.941
 2232TIP3    H1 6702   5.448   3.810   1.994
 2232TIP3    H2 6703   5.302   3.770   1.996
 2233TIP3   OH2 6704   0.185   4.927   4.504
 2233TIP3    H1 6705   0.160   4.874   4.579
 2233TIP3    H2 6706   0.225   5.005   4.542
 2234TIP3   OH2 6707   0.441   1.283   3.346
 2234TIP3    H1 6708   0.362   1.233   3.323
 2234TIP3    H2 6709   0.409   1.352   3.404
 2235TIP3   OH2 6710   2.348   2.322   2.948
 2235TIP3    H1 6711   2.322   2.393   3.007
 2235TIP3    H2 6712   2.380   2.254   3.006
 2236TIP3   OH2 6713   0.804   2.802   3.604
 2236TIP3    H1 6714   0.716   2.822   3.571
 2236TIP3    H2 6715   0.800   2.708   3.624
 2237TIP3   OH2 6716   4.466   4.445   4.599
 2237TIP3    H1 6717   4.531   4.384   4.634
 2237TIP3    H2 6718   4.449   4.506   4.670
 2238TIP3   OH2 6719   0.306   4.464   3.869
 2238TIP3    H1 6720   0.287   4.521   3.795
 2238TIP3    H2 6721   0.236   4.398   3.866
 2239TIP3   OH2 6722   5.983   0.890   1.855
 2239TIP3    H1 6723   5.973   0.944   1.933
 2239TIP3    H2 6724   6.043   0.820   1.882
 2240TIP3   OH2 6725   5.350   1.851   1.979
 2240TIP3    H1 6726   5.351   1.838   2.074
 2240TIP3    H2 6727   5.326   1.765   1.943
 2241TIP3   OH2 6728   5.459   3.877   4.621
 2241TIP3    H1 6729   5.462   3.851   4.529
 2241TIP3    H2 6730   5.493   3.801   4.669
 2242TIP3   OH2 6731   4.288   1.457   1.912
 2242TIP3    H1 6732   4.287   1.541   1.957
 2242TIP3    H2 6733   4.253   1.475   1.825
 2243TIP3   OH2 6734   2.075   4.956   4.595
 2243TIP3    H1 6735   2.090   5.028   4.534
 2243TIP3    H2 6736   2.120   4.881   4.555
 2244TIP3   OH2 6737   0.426   2.931   2.575
 2244TIP3    H1 6738   0.439   2.951   2.482
 2244TIP3    H2 6739   0.419   3.017   2.617
 2245TIP3   OH2 6740   2.380   4.055   2.277
 2245TIP3    H1 6741   2.434   4.014   2.209
 2245TIP3    H2 6742   2.392   4.000   2.354
 2246TIP3   OH2 6743   5.721   0.972   3.521
 2246TIP3    H1 6744   5.642   1.004   3.477
 2246TIP3    H2 6745   5.696   0.887   3.555
 2247TIP3   OH2 6746   4.362   3.026   4.924
 2247TIP3    H1 6747   4.446   3.036   4.969
 2247TIP3    H2 6748   4.386   3.016   4.831
 2248TIP3   OH2 6749   3.783   4.961   3.995
 2248TIP3    H1 6750   3.690   4.978   4.007
 2248TIP3    H2 6751   3.792   4.866   4.007
 2249TIP3   OH2 6752   0.621   4.564   1.760
 2249TIP3    H1 6753   0.571   4.520   1.691
 2249TIP3    H2 6754   0.554   4.611   1.811
 2250TIP3   OH2 6755   5.323   4.208   3.240
 2250TIP3    H1 6756   5.231   4.232   3.245
 2250TIP3    H2 6757   5.338   4.152   3.317
 2251TIP3   OH2 6758   5.136   3.361   0.273
 2251TIP3    H1 6759   5.209   3.345   0.331
 2251TIP3    H2 6760   5.163   3.324   0.189
 2252TIP3   OH2 6761   2.510   4.044   0.837
 2252TIP3    H1 6762   2.494   3.957   0.873
 2252TIP3    H2 6763   2.512   4.101   0.914
 2253TIP3   OH2 6764   2.785   4.276   3.399
 2253TIP3    H1 6765   2.793   4.180   3.394
 2253TIP3    H2 6766   2.874   4.308   3.385
 2254TIP3   OH2 6767   5.012   1.490   0.805
 2254TIP3    H1 6768   5.073   1.416   0.808
 2254TIP3    H2 6769   4.970   1.490   0.892
 2255TIP3   OH2 6770   2.296   0.914   2.505
 2255TIP3    H1 6771   2.221   0.857   2.523
 2255TIP3    H2 6772   2.257   0.997   2.479
 2256TIP3   OH2 6773   1.062   0.607   2.567
 2256TIP3    H1 6774   0.988   0.550   2.589
 2256TIP3    H2 6775   1.026   0.669   2.504
 2257TIP3   OH2 6776   2.647   0.878   5.054
 2257TIP3    H1 6777   2.623   0.959   5.100
 2257TIP3    H2 6778   2.678   0.819   5.123
 2258TIP3   OH2 6779   2.093   2.856   3.298
 2258TIP3    H1 6780   2.144   2.867   3.217
 2258TIP3    H2 6781   2.147   2.897   3.365
 2259TIP3   OH2 6782  -0.027   3.614   2.212
 2259TIP3    H1 6783   0.023   3.572   2.282
 2259TIP3    H2 6784   0.013   3.701   2.203
 2260TIP3   OH2 6785   5.179   5.895   1.930
 2260TIP3    H1 6786   5.262   5.919   1.889
 2260TIP3    H2 6787   5.115   5.896   1.858
 2261TIP3   OH2 6788   1.901   5.852   3.694
 2261TIP3    H1 6789   1.964   5.833   3.624
 2261TIP3    H2 6790   1.816   5.854   3.650
 2262TIP3   OH2 6791   2.114   4.020   1.216
 2262TIP3    H1 6792   2.082   3.930   1.212
 2262TIP3    H2 6793   2.037   4.074   1.203
 2263TIP3   OH2 6794   5.696   5.194   5.103
 2263TIP3    H1 6795   5.734   5.158   5.183
 2263TIP3    H2 6796   5.771   5.223   5.051
 2264TIP3   OH2 6797   5.221   0.982   3.180
 2264TIP3    H1 6798   5.302   0.942   3.149
 2264TIP3    H2 6799   5.200   0.935   3.261
 2265TIP3   OH2 6800   1.829   0.466   1.073
 2265TIP3    H1 6801   1.895   0.436   1.134
 2265TIP3    H2 6802   1.846   0.559   1.062
 2266TIP3   OH2 6803   1.987   3.656   3.920
 2266TIP3    H1 6804   2.018   3.614   4.001
 2266TIP3    H2 6805   1.896   3.679   3.938
 2267TIP3   OH2 6806   5.025   2.720   3.134
 2267TIP3    H1 6807   5.043   2.627   3.131
 2267TIP3    H2 6808   4.929   2.726   3.131
 2268TIP3   OH2 6809   1.112   5.319   5.037
 2268TIP3    H1 6810   1.167   5.389   5.073
 2268TIP3    H2 6811   1.173   5.258   4.997
 2269TIP3   OH2 6812   0.496   4.636   1.304
 2269TIP3    H1 6813   0.414   4.685   1.308
 2269TIP3    H2 6814   0.483   4.572   1.234
 2270TIP3   OH2 6815   0.176   2.359   3.925
 2270TIP3    H1 6816   0.101   2.385   3.872
 2270TIP3    H2 6817   0.174   2.263   3.925
 2271TIP3   OH2 6818   0.749   3.902   2.830
 2271TIP3    H1 6819   0.771   3.995   2.835
 2271TIP3    H2 6820   0.790   3.863   2.908
 2272TIP3   OH2 6821   2.155   5.777   1.077
 2272TIP3    H1 6822   2.080   5.762   1.134
 2272TIP3    H2 6823   2.144   5.715   1.005
 2273TIP3   OH2 6824   6.358   5.603   4.591
 2273TIP3    H1 6825   6.266   5.616   4.617
 2273TIP3    H2 6826   6.367   5.508   4.583
 2274TIP3   OH2 6827   4.304   5.530   4.505
 2274TIP3    H1 6828   4.282   5.615   4.467
 2274TIP3    H2 6829   4.357   5.552   4.582
 2275TIP3   OH2 6830   0.586   4.247   3.989
 2275TIP3    H1 6831   0.503   4.209   4.018
 2275TIP3    H2 6832   0.614   4.302   4.062
 2276TIP3   OH2 6833   3.427   2.854   3.645
 2276TIP3    H1 6834   3.333   2.868   3.634
 2276TIP3    H2 6835   3.455   2.927   3.700
 2277TIP3   OH2 6836   3.904   1.953   0.690
 2277TIP3    H1 6837   3.831   2.009   0.665
 2277TIP3    H2 6838   3.945   1.929   0.606
 2278TIP3   OH2 6839   4.333   4.194   0.153
 2278TIP3    H1 6840   4.303   4.178   0.243
 2278TIP3    H2 6841   4.413   4.142   0.145
 2279TIP3   OH2 6842   3.384   4.554   0.938
 2279TIP3    H1 6843   3.317   4.568   0.871
 2279TIP3    H2 6844   3.444   4.628   0.927
 2280TIP3   OH2 6845   0.651   1.359   3.817
 2280TIP3    H1 6846   0.690   1.316   3.741
 2280TIP3    H2 6847   0.612   1.440   3.783
 2281TIP3   OH2 6848   2.878   1.326   0.755
 2281TIP3    H1 6849   2.947   1.352   0.817
 2281TIP3    H2 6850   2.852   1.239   0.784
 2282TIP3   OH2 6851   5.413   1.258   2.436
 2282TIP3    H1 6852   5.405   1.294   2.524
 2282TIP3    H2 6853   5.507   1.251   2.421
 2283TIP3   OH2 6854   5.150   4.488   2.635
 2283TIP3    H1 6855   5.162   4.419   2.701
 2283TIP3    H2 6856   5.151   4.569   2.686
 2284TIP3   OH2 6857   5.640   1.857   3.869
 2284TIP3    H1 6858   5.600   1.780   3.908
 2284TIP3    H2 6859   5.708   1.823   3.812
 2285TIP3   OH2 6860   3.745   5.598   3.623
 2285TIP3    H1 6861   3.749   5.514   3.577
 2285TIP3    H2 6862   3.818   5.648   3.587
 2286TIP3   OH2 6863   2.861   5.175   1.387
 2286TIP3    H1 6864   2.827   5.094   1.425
 2286TIP3    H2 6865   2.955   5.160   1.378
 2287TIP3   OH2 6866   1.364   3.526   1.591
 2287TIP3    H1 6867   1.327   3.479   1.516
 2287TIP3    H2 6868   1.458   3.533   1.572
 2288TIP3   OH2 6869   3.392   3.489   4.644
 2288TIP3    H1 6870   3.305   3.502   4.682
 2288TIP3    H2 6871   3.450   3.482   4.719
 2289TIP3   OH2 6872   0.700   4.317   4.878
 2289TIP3    H1 6873   0.777   4.288   4.928
 2289TIP3    H2 6874   0.625   4.282   4.926
 2290TIP3   OH2 6875   4.656   2.538   0.784
 2290TIP3    H1 6876   4.672   2.460   0.732
 2290TIP3    H2 6877   4.576   2.576   0.748
 2291TIP3   OH2 6878   3.176   4.874   0.837
 2291TIP3    H1 6879   3.141   4.929   0.906
 2291TIP3    H2 6880   3.268   4.860   0.862
 2292TIP3   OH2 6881   0.817   2.609   2.690
 2292TIP3    H1 6882   0.890   2.548   2.682
 2292TIP3    H2 6883   0.787   2.623   2.600
 2293TIP3   OH2 6884   3.667   1.354   0.910
 2293TIP3    H1 6885   3.602   1.294   0.947
 2293TIP3    H2 6886   3.660   1.433   0.963
 2294TIP3   OH2 6887   3.538   3.593   1.136
 2294TIP3    H1 6888   3.624   3.588   1.179
 2294TIP3    H2 6889   3.558   3.602   1.043
 2295TIP3   OH2 6890   2.316   5.681   1.554
 2295TIP3    H1 6891   2.393   5.661   1.607
 2295TIP3    H2 6892   2.264   5.600   1.555
 2296TIP3   OH2 6893   5.783   4.115   5.158
 2296TIP3    H1 6894   5.777   4.210   5.165
 2296TIP3    H2 6895   5.870   4.099   5.121
 2297TIP3   OH2 6896   0.500   2.809   0.348
 2297TIP3    H1 6897   0.577   2.779   0.301
 2297TIP3    H2 6898   0.427   2.787   0.291
 2298TIP3   OH2 6899   1.427   2.212   1.060
 2298TIP3    H1 6900   1.409   2.126   1.021
 2298TIP3    H2 6901   1.345   2.237   1.102
 2299TIP3   OH2 6902   1.787   5.023   1.055
 2299TIP3    H1 6903   1.805   5.108   1.015
 2299TIP3    H2 6904   1.755   4.969   0.983
 2300TIP3   OH2 6905   0.921   2.386   4.419
 2300TIP3    H1 6906   0.977   2.435   4.480
 2300TIP3    H2 6907   0.850   2.353   4.475
 2301TIP3   OH2 6908   5.694   2.770   4.683
 2301TIP3    H1 6909   5.672   2.821   4.761
 2301TIP3    H2 6910   5.727   2.687   4.717
 2302TIP3   OH2 6911   3.825   5.163   4.326
 2302TIP3    H1 6912   3.887   5.093   4.308
 2302TIP3    H2 6913   3.739   5.125   4.307
 2303TIP3   OH2 6914   1.221   5.763   4.435
 2303TIP3    H1 6915   1.207   5.843   4.486
 2303TIP3    H2 6916   1.196   5.692   4.495
 2304TIP3   OH2 6917   6.223   1.714   3.576
 2304TIP3    H1 6918   6.195   1.750   3.660
 2304TIP3    H2 6919   6.143   1.705   3.525
 2305TIP3   OH2 6920   4.284   4.476   1.314
 2305TIP3    H1 6921   4.314   4.390   1.346
 2305TIP3    H2 6922   4.332   4.539   1.367
 2306TIP3   OH2 6923   5.447   1.433   1.919
 2306TIP3    H1 6924   5.463   1.500   1.852
 2306TIP3    H2 6925   5.357   1.447   1.946
 2307TIP3   OH2 6926   1.195   1.510   2.229
 2307TIP3    H1 6927   1.253   1.445   2.268
 2307TIP3    H2 6928   1.108   1.487   2.261
 2308TIP3   OH2 6929   3.996   2.369   1.488
 2308TIP3    H1 6930   3.917   2.324   1.460
 2308TIP3    H2 6931   4.065   2.303   1.483
 2309TIP3   OH2 6932   5.957   3.040   4.210
 2309TIP3    H1 6933   6.029   3.000   4.258
 2309TIP3    H2 6934   5.972   3.134   4.220
 2310TIP3   OH2 6935   1.169   5.422   4.201
 2310TIP3    H1 6936   1.170   5.353   4.134
 2310TIP3    H2 6937   1.080   5.456   4.199
 2311TIP3   OH2 6938   3.448   0.749   3.518
 2311TIP3    H1 6939   3.515   0.817   3.524
 2311TIP3    H2 6940   3.488   0.680   3.466
 2312TIP3   OH2 6941   4.056   2.810   2.869
 2312TIP3    H1 6942   4.002   2.824   2.790
 2312TIP3    H2 6943   3.992   2.801   2.939
 2313TIP3   OH2 6944   3.086   5.513   0.843
 2313TIP3    H1 6945   3.097   5.510   0.938
 2313TIP3    H2 6946   3.100   5.424   0.814
 2314TIP3   OH2 6947   3.024   0.725   1.567
 2314TIP3    H1 6948   3.097   0.663   1.562
 2314TIP3    H2 6949   2.979   0.716   1.483
 2315TIP3   OH2 6950   1.651   1.107   1.134
 2315TIP3    H1 6951   1.634   1.159   1.212
 2315TIP3    H2 6952   1.612   1.021   1.154
 2316TIP3   OH2 6953   1.319   5.608   1.280
 2316TIP3    H1 6954   1.337   5.612   1.374
 2316TIP3    H2 6955   1.254   5.539   1.271
 2317TIP3   OH2 6956   5.155   0.270   1.182
 2317TIP3    H1 6957   5.185   0.361   1.193
 2317TIP3    H2 6958   5.077   0.277   1.127
 2318TIP3   OH2 6959   0.314   1.449   2.318
 2318TIP3    H1 6960   0.368   1.376   2.286
 2318TIP3    H2 6961   0.338   1.523   2.262
 2319TIP3   OH2 6962   0.922   5.472   3.561
 2319TIP3    H1 6963   0.941   5.415   3.487
 2319TIP3    H2 6964   0.938   5.418   3.638
 2320TIP3   OH2 6965   5.476   0.323   1.427
 2320TIP3    H1 6966   5.395   0.361   1.462
 2320TIP3    H2 6967   5.453   0.296   1.338
 2321TIP3   OH2 6968   0.828   3.062   1.225
 2321TIP3    H1 6969   0.912   3.021   1.201
 2321TIP3    H2 6970   0.779   3.064   1.143
 2322TIP3   OH2 6971   4.757   2.314   1.677
 2322TIP3    H1 6972   4.824   2.376   1.706
 2322TIP3    H2 6973   4.801   2.261   1.610
 2323TIP3   OH2 6974   4.837   2.576   2.337
 2323TIP3    H1 6975   4.760   2.532   2.300
 2323TIP3    H2 6976   4.911   2.536   2.291
 2324TIP3   OH2 6977   2.129   4.724   4.395
 2324TIP3    H1 6978   2.051   4.731   4.340
 2324TIP3    H2 6979   2.126   4.634   4.428
 2325TIP3   OH2 6980   2.411   0.612   2.021
 2325TIP3    H1 6981   2.465   0.623   2.099
 2325TIP3    H2 6982   2.350   0.542   2.044
 2326TIP3   OH2 6983   2.846   0.661   2.302
 2326TIP3    H1 6984   2.886   0.687   2.385
 2326TIP3    H2 6985   2.862   0.736   2.243
 2327TIP3   OH2 6986   0.793   4.421   4.636
 2327TIP3    H1 6987   0.876   4.388   4.602
 2327TIP3    H2 6988   0.783   4.379   4.721
 2328TIP3   OH2 6989   5.663   3.793   2.208
 2328TIP3    H1 6990   5.655   3.805   2.114
 2328TIP3    H2 6991   5.758   3.792   2.224
 2329TIP3   OH2 6992   0.510   5.825   2.781
 2329TIP3    H1 6993   0.549   5.867   2.705
 2329TIP3    H2 6994   0.554   5.864   2.856
 2330TIP3   OH2 6995   2.828   4.234   0.060
 2330TIP3    H1 6996   2.824   4.329   0.062
 2330TIP3    H2 6997   2.844   4.208   0.151
 2331TIP3   OH2 6998   2.004   2.603   0.020
 2331TIP3    H1 6999   2.077   2.605  -0.042
 2331TIP3    H2 7000   2.002   2.691   0.057
 2332TIP3   OH2 7001   0.501   5.185   0.321
 2332TIP3    H1 7002   0.468   5.271   0.348
 2332TIP3    H2 7003   0.445   5.122   0.366
 2333TIP3   OH2 7004   1.116   4.028   1.733
 2333TIP3    H1 7005   1.181   4.083   1.690
 2333TIP3    H2 7006   1.037   4.082   1.735
 2334TIP3   OH2 7007   4.634   1.682   3.724
 2334TIP3    H1 7008   4.632   1.769   3.764
 2334TIP3    H2 7009   4.726   1.667   3.703
 2335TIP3   OH2 7010   4.554   0.403   0.432
 2335TIP3    H1 7011   4.481   0.421   0.491
 2335TIP3    H2 7012   4.615   0.476   0.447
 2336TIP3   OH2 7013   5.609   1.501   4.183
 2336TIP3    H1 7014   5.650   1.448   4.115
 2336TIP3    H2 7015   5.585   1.437   4.251
 2337TIP3   OH2 7016   5.709   4.048   1.620
 2337TIP3    H1 7017   5.639   4.019   1.561
 2337TIP3    H2 7018   5.670   4.119   1.671
 2338TIP3   OH2 7019   4.050   4.493   3.863
 2338TIP3    H1 7020   4.020   4.582   3.846
 2338TIP3    H2 7021   3.977   4.438   3.834
 2339TIP3   OH2 7022   2.934   3.025   4.596
 2339TIP3    H1 7023   2.975   3.111   4.593
 2339TIP3    H2 7024   3.006   2.964   4.611
 2340TIP3   OH2 7025   5.372   1.342   2.693
 2340TIP3    H1 7026   5.278   1.324   2.698
 2340TIP3    H2 7027   5.388   1.404   2.765
 2341TIP3   OH2 7028   5.581   5.005   1.426
 2341TIP3    H1 7029   5.511   5.044   1.373
 2341TIP3    H2 7030   5.661   5.043   1.391
 2342TIP3   OH2 7031   1.471   1.251   1.589
 2342TIP3    H1 7032   1.379   1.248   1.614
 2342TIP3    H2 7033   1.506   1.166   1.615
 2343TIP3   OH2 7034   5.105   0.207   4.687
 2343TIP3    H1 7035   5.038   0.253   4.637
 2343TIP3    H2 7036   5.118   0.260   4.765
 2344TIP3   OH2 7037   4.788   3.913   4.355
 2344TIP3    H1 7038   4.704   3.916   4.401
 2344TIP3    H2 7039   4.849   3.878   4.419
 2345TIP3   OH2 7040   1.526   3.450   2.662
 2345TIP3    H1 7041   1.565   3.507   2.729
 2345TIP3    H2 7042   1.561   3.483   2.579
 2346TIP3   OH2 7043   4.598   3.931   4.913
 2346TIP3    H1 7044   4.584   3.950   4.820
 2346TIP3    H2 7045   4.668   3.990   4.939
 2347TIP3   OH2 7046   5.161   3.274   2.177
 2347TIP3    H1 7047   5.176   3.367   2.161
 2347TIP3    H2 7048   5.205   3.230   2.104
 2348TIP3   OH2 7049   1.383   2.022   2.115
 2348TIP3    H1 7050   1.416   2.037   2.203
 2348TIP3    H2 7051   1.405   2.103   2.068
 2349TIP3   OH2 7052   3.841   0.885   2.353
 2349TIP3    H1 7053   3.778   0.890   2.425
 2349TIP3    H2 7054   3.821   0.801   2.310
 2350TIP3   OH2 7055   0.150   5.558   0.328
 2350TIP3    H1 7056   0.156   5.631   0.266
 2350TIP3    H2 7057   0.099   5.491   0.282
 2351TIP3   OH2 7058   4.056   5.042   4.049
 2351TIP3    H1 7059   4.105   4.988   3.987
 2351TIP3    H2 7060   3.965   5.016   4.037
 2352TIP3   OH2 7061   5.819   0.452   0.310
 2352TIP3    H1 7062   5.905   0.488   0.329
 2352TIP3    H2 7063   5.759   0.503   0.364
 2353TIP3   OH2 7064   3.881   3.865   4.710
 2353TIP3    H1 7065   3.872   3.787   4.765
 2353TIP3    H2 7066   3.797   3.872   4.665
 2354TIP3   OH2 7067   2.151   0.859   3.803
 2354TIP3    H1 7068   2.155   0.949   3.836
 2354TIP3    H2 7069   2.092   0.814   3.863
 2355TIP3   OH2 7070   5.152   2.817   2.513
 2355TIP3    H1 7071   5.210   2.866   2.570
 2355TIP3    H2 7072   5.137   2.735   2.558
 2356TIP3   OH2 7073   5.990   2.289   4.351
 2356TIP3    H1 7074   5.990   2.276   4.256
 2356TIP3    H2 7075   5.932   2.364   4.364
 2357TIP3   OH2 7076   5.091   4.209   4.855
 2357TIP3    H1 7077   5.121   4.121   4.832
 2357TIP3    H2 7078   5.103   4.214   4.950
 2358TIP3   OH2 7079   4.678   2.845   1.348
 2358TIP3    H1 7080   4.668   2.775   1.413
 2358TIP3    H2 7081   4.771   2.869   1.353
 2359TIP3   OH2 7082   1.285   1.167   1.333
 2359TIP3    H1 7083   1.298   1.141   1.241
 2359TIP3    H2 7084   1.322   1.095   1.383
 2360TIP3   OH2 7085   3.874   0.131   5.101
 2360TIP3    H1 7086   3.824   0.109   5.022
 2360TIP3    H2 7087   3.816   0.110   5.174
 2361TIP3   OH2 7088   1.362   2.889   0.227
 2361TIP3    H1 7089   1.349   2.798   0.253
 2361TIP3    H2 7090   1.381   2.884   0.133
 2362TIP3   OH2 7091   4.282   0.102   4.544
 2362TIP3    H1 7092   4.286   0.008   4.562
 2362TIP3    H2 7093   4.373   0.129   4.531
 2363TIP3   OH2 7094   2.149   5.524   0.056
 2363TIP3    H1 7095   2.094   5.539  -0.020
 2363TIP3    H2 7096   2.166   5.612   0.091
 2364TIP3   OH2 7097   3.703   0.248   3.530
 2364TIP3    H1 7098   3.757   0.292   3.464
 2364TIP3    H2 7099   3.733   0.157   3.528
 2365TIP3   OH2 7100   1.996   1.207   4.712
 2365TIP3    H1 7101   1.957   1.283   4.669
 2365TIP3    H2 7102   1.982   1.223   4.805
 2366TIP3   OH2 7103   3.438   3.890   4.826
 2366TIP3    H1 7104   3.532   3.872   4.827
 2366TIP3    H2 7105   3.425   3.956   4.895
 2367TIP3   OH2 7106   6.297   2.322   0.140
 2367TIP3    H1 7107   6.386   2.299   0.169
 2367TIP3    H2 7108   6.255   2.359   0.217
 2368TIP3   OH2 7109   1.230   1.158   1.666
 2368TIP3    H1 7110   1.218   1.063   1.673
 2368TIP3    H2 7111   1.175   1.183   1.592
 2369TIP3   OH2 7112   2.286   0.605   2.361
 2369TIP3    H1 7113   2.290   0.587   2.455
 2369TIP3    H2 7114   2.348   0.676   2.347
 2370TIP3   OH2 7115   0.193   3.814   2.068
 2370TIP3    H1 7116   0.209   3.748   2.136
 2370TIP3    H2 7117   0.253   3.790   1.998
 2371TIP3   OH2 7118   5.348   2.200   3.232
 2371TIP3    H1 7119   5.372   2.158   3.314
 2371TIP3    H2 7120   5.431   2.220   3.190
 2372TIP3   OH2 7121   0.329   1.423   3.634
 2372TIP3    H1 7122   0.383   1.493   3.672
 2372TIP3    H2 7123   0.247   1.466   3.611
 2373TIP3   OH2 7124   3.503   5.405   4.879
 2373TIP3    H1 7125   3.430   5.461   4.907
 2373TIP3    H2 7126   3.539   5.451   4.803
 2374TIP3   OH2 7127   5.354   0.724   4.493
 2374TIP3    H1 7128   5.262   0.753   4.490
 2374TIP3    H2 7129   5.395   0.771   4.420
 2375TIP3   OH2 7130   1.005   0.743   3.843
 2375TIP3    H1 7131   1.019   0.813   3.779
 2375TIP3    H2 7132   0.941   0.781   3.904
 2376TIP3   OH2 7133   3.074   2.100   1.014
 2376TIP3    H1 7134   3.097   2.171   0.955
 2376TIP3    H2 7135   3.006   2.051   0.967
 2377TIP3   OH2 7136   4.877   4.651   1.804
 2377TIP3    H1 7137   4.800   4.681   1.852
 2377TIP3    H2 7138   4.945   4.644   1.871
 2378TIP3   OH2 7139   4.557   2.516   4.464
 2378TIP3    H1 7140   4.548   2.583   4.531
 2378TIP3    H2 7141   4.580   2.436   4.512
 2379TIP3   OH2 7142   4.476   3.070   3.330
 2379TIP3    H1 7143   4.477   3.166   3.328
 2379TIP3    H2 7144   4.439   3.045   3.245
 2380TIP3   OH2 7145   1.484   4.426   0.145
 2380TIP3    H1 7146   1.405   4.450   0.193
 2380TIP3    H2 7147   1.473   4.465   0.058
 2381TIP3   OH2 7148   0.505   5.927   3.836
 2381TIP3    H1 7149   0.586   5.974   3.817
 2381TIP3    H2 7150   0.464   5.914   3.751
 2382TIP3   OH2 7151   3.685   1.338   0.621
 2382TIP3    H1 7152   3.687   1.433   0.631
 2382TIP3    H2 7153   3.759   1.306   0.672
 2383TIP3   OH2 7154   2.120   4.094  -0.002
 2383TIP3    H1 7155   2.046   4.153  -0.015
 2383TIP3    H2 7156   2.098   4.045   0.077
 2384TIP3   OH2 7157   5.746   0.307   1.840
 2384TIP3    H1 7158   5.718   0.267   1.758
 2384TIP3    H2 7159   5.703   0.255   1.909
 2385TIP3   OH2 7160   0.565   0.755   2.103
 2385TIP3    H1 7161   0.583   0.758   2.009
 2385TIP3    H2 7162   0.471   0.773   2.109
 2386TIP3   OH2 7163   5.755   3.681   0.314
 2386TIP3    H1 7164   5.731   3.714   0.227
 2386TIP3    H2 7165   5.742   3.756   0.372
 2387TIP3   OH2 7166   4.331   2.057   3.758
 2387TIP3    H1 7167   4.301   2.009   3.835
 2387TIP3    H2 7168   4.349   2.145   3.790
 2388TIP3   OH2 7169   2.941   2.103   4.664
 2388TIP3    H1 7170   2.974   2.061   4.743
 2388TIP3    H2 7171   2.850   2.075   4.657
 2389TIP3   OH2 7172   0.339   4.662   3.670
 2389TIP3    H1 7173   0.254   4.624   3.647
 2389TIP3    H2 7174   0.397   4.632   3.600
 2390TIP3   OH2 7175   3.665   4.535   4.741
 2390TIP3    H1 7176   3.582   4.495   4.715
 2390TIP3    H2 7177   3.711   4.549   4.659
 2391TIP3   OH2 7178   1.195   1.292   3.943
 2391TIP3    H1 7179   1.290   1.285   3.932
 2391TIP3    H2 7180   1.160   1.276   3.855
 2392TIP3   OH2 7181   3.858   1.066   1.857
 2392TIP3    H1 7182   3.866   0.991   1.798
 2392TIP3    H2 7183   3.803   1.034   1.928
 2393TIP3   OH2 7184   2.295   3.782   0.587
 2393TIP3    H1 7185   2.254   3.855   0.632
 2393TIP3    H2 7186   2.248   3.776   0.504
 2394TIP3   OH2 7187   3.426   5.218   0.491
 2394TIP3    H1 7188   3.496   5.250   0.548
 2394TIP3    H2 7189   3.435   5.123   0.494
 2395TIP3   OH2 7190   0.902   1.653   2.174
 2395TIP3    H1 7191   0.817   1.617   2.202
 2395TIP3    H2 7192   0.953   1.659   2.254
 2396TIP3   OH2 7193   1.234   3.313   2.967
 2396TIP3    H1 7194   1.269   3.271   2.888
 2396TIP3    H2 7195   1.148   3.274   2.979
 2397TIP3   OH2 7196   1.382   4.185   2.203
 2397TIP3    H1 7197   1.443   4.129   2.250
 2397TIP3    H2 7198   1.431   4.267   2.190
 2398TIP3   OH2 7199   4.117   4.491   4.834
 2398TIP3    H1 7200   4.101   4.585   4.828
 2398TIP3    H2 7201   4.031   4.454   4.855
 2399TIP3   OH2 7202   1.704   5.653   3.843
 2399TIP3    H1 7203   1.757   5.729   3.822
 2399TIP3    H2 7204   1.758   5.578   3.817
 2400TIP3   OH2 7205   5.971   2.878   2.183
 2400TIP3    H1 7206   5.961   2.855   2.091
 2400TIP3    H2 7207   6.005   2.798   2.225
 2401TIP3   OH2 7208   0.828   2.581   4.853
 2401TIP3    H1 7209   0.826   2.616   4.764
 2401TIP3    H2 7210   0.907   2.618   4.892
 2402TIP3   OH2 7211   2.158   5.845   0.057
 2402TIP3    H1 7212   2.138   5.847   0.150
 2402TIP3    H2 7213   2.246   5.884   0.050
 2403TIP3   OH2 7214   3.126   5.725   3.608
 2403TIP3    H1 7215   3.117   5.765   3.521
 2403TIP3    H2 7216   3.166   5.640   3.591
 2404TIP3   OH2 7217   0.381   3.864   4.319
 2404TIP3    H1 7218   0.319   3.793   4.334
 2404TIP3    H2 7219   0.438   3.863   4.395
 2405TIP3   OH2 7220   2.260   3.515   2.024
 2405TIP3    H1 7221   2.345   3.535   2.064
 2405TIP3    H2 7222   2.241   3.592   1.969
 2406TIP3   OH2 7223   0.653   0.081   1.414
 2406TIP3    H1 7224   0.590   0.151   1.399
 2406TIP3    H2 7225   0.701   0.108   1.493
 2407TIP3   OH2 7226   2.610   0.549   1.346
 2407TIP3    H1 7227   2.623   0.558   1.440
 2407TIP3    H2 7228   2.619   0.455   1.329
 2408TIP3   OH2 7229   1.104   4.951   2.097
 2408TIP3    H1 7230   1.187   4.973   2.054
 2408TIP3    H2 7231   1.087   4.861   2.071
 2409TIP3   OH2 7232   3.759   3.427   0.021
 2409TIP3    H1 7233   3.677   3.454  -0.019
 2409TIP3    H2 7234   3.816   3.503   0.013
 2410TIP3   OH2 7235   2.519   5.585   4.825
 2410TIP3    H1 7236   2.436   5.539   4.810
 2410TIP3    H2 7237   2.525   5.592   4.920
 2411TIP3   OH2 7238   5.226   4.408   1.833
 2411TIP3    H1 7239   5.235   4.346   1.905
 2411TIP3    H2 7240   5.257   4.491   1.869
 2412TIP3   OH2 7241   1.894   2.504   0.786
 2412TIP3    H1 7242   1.961   2.559   0.744
 2412TIP3    H2 7243   1.877   2.435   0.722
 2413TIP3   OH2 7244   1.115   3.820   5.108
 2413TIP3    H1 7245   1.073   3.873   5.041
 2413TIP3    H2 7246   1.045   3.765   5.142
 2414TIP3   OH2 7247   5.981   3.736   2.824
 2414TIP3    H1 7248   5.902   3.739   2.770
 2414TIP3    H2 7249   5.954   3.692   2.904
 2415TIP3   OH2 7250   2.821   3.601   2.679
 2415TIP3    H1 7251   2.728   3.609   2.661
 2415TIP3    H2 7252   2.860   3.680   2.641
 2416TIP3   OH2 7253   4.923   5.958   0.168
 2416TIP3    H1 7254   4.833   5.985   0.187
 2416TIP3    H2 7255   4.946   5.899   0.240
 2417TIP3   OH2 7256   0.125   5.828   4.413
 2417TIP3    H1 7257   0.082   5.753   4.454
 2417TIP3    H2 7258   0.055   5.876   4.370
 2418TIP3   OH2 7259   3.510   1.142   1.847
 2418TIP3    H1 7260   3.560   1.203   1.901
 2418TIP3    H2 7261   3.461   1.199   1.787
 2419TIP3   OH2 7262   4.423   2.300   3.930
 2419TIP3    H1 7263   4.404   2.377   3.877
 2419TIP3    H2 7264   4.515   2.280   3.912
 2420TIP3   OH2 7265   5.077   3.362   1.064
 2420TIP3    H1 7266   5.047   3.339   0.976
 2420TIP3    H2 7267   5.048   3.290   1.119
 2421TIP3   OH2 7268   5.650   1.485   1.333
 2421TIP3    H1 7269   5.569   1.451   1.296
 2421TIP3    H2 7270   5.623   1.529   1.414
 2422TIP3   OH2 7271   3.431   2.610   4.187
 2422TIP3    H1 7272   3.449   2.572   4.273
 2422TIP3    H2 7273   3.513   2.655   4.163
 2423TIP3   OH2 7274   0.893   3.148   3.459
 2423TIP3    H1 7275   0.849   3.077   3.412
 2423TIP3    H2 7276   0.920   3.110   3.542
 2424TIP3   OH2 7277   1.610   3.336   1.857
 2424TIP3    H1 7278   1.618   3.369   1.768
 2424TIP3    H2 7279   1.520   3.306   1.864
 2425TIP3   OH2 7280   4.156   1.767   0.086
 2425TIP3    H1 7281   4.153   1.677   0.116
 2425TIP3    H2 7282   4.197   1.762  -0.001
 2426TIP3   OH2 7283   2.082   4.821   2.916
 2426TIP3    H1 7284   2.002   4.869   2.896
 2426TIP3    H2 7285   2.055   4.730   2.926
 2427TIP3   OH2 7286   4.278   4.461   1.688
 2427TIP3    H1 7287   4.358   4.429   1.647
 2427TIP3    H2 7288   4.306   4.489   1.775
 2428TIP3   OH2 7289   5.322   3.990   0.205
 2428TIP3    H1 7290   5.302   4.084   0.200
 2428TIP3    H2 7291   5.252   3.948   0.155
 2429TIP3   OH2 7292   2.416   5.283   3.081
 2429TIP3    H1 7293   2.348   5.280   3.014
 2429TIP3    H2 7294   2.368   5.280   3.164
 2430TIP3   OH2 7295   4.767   2.973   3.183
 2430TIP3    H1 7296   4.826   2.969   3.258
 2430TIP3    H2 7297   4.680   2.984   3.221
 2431TIP3   OH2 7298   1.494   5.644   4.377
 2431TIP3    H1 7299   1.406   5.677   4.356
 2431TIP3    H2 7300   1.525   5.702   4.446
 2432TIP3   OH2 7301   5.384   3.506   2.114
 2432TIP3    H1 7302   5.322   3.470   2.050
 2432TIP3    H2 7303   5.328   3.547   2.180
 2433TIP3   OH2 7304   0.577   5.654   0.336
 2433TIP3    H1 7305   0.611   5.619   0.418
 2433TIP3    H2 7306   0.493   5.694   0.359
 2434TIP3   OH2 7307   3.105   3.674   3.846
 2434TIP3    H1 7308   3.154   3.690   3.766
 2434TIP3    H2 7309   3.150   3.600   3.888
 2435TIP3   OH2 7310   5.503   3.694   0.616
 2435TIP3    H1 7311   5.477   3.699   0.524
 2435TIP3    H2 7312   5.564   3.621   0.620
 2436TIP3   OH2 7313   0.226   0.763   4.153
 2436TIP3    H1 7314   0.312   0.720   4.145
 2436TIP3    H2 7315   0.163   0.694   4.132
 2437TIP3   OH2 7316   0.192   3.415   1.353
 2437TIP3    H1 7317   0.164   3.501   1.384
 2437TIP3    H2 7318   0.149   3.353   1.412
 2438TIP3   OH2 7319   5.450   3.457   0.208
 2438TIP3    H1 7320   5.482   3.548   0.207
 2438TIP3    H2 7321   5.445   3.432   0.116
 2439TIP3   OH2 7322   4.106   5.002   2.738
 2439TIP3    H1 7323   4.049   4.968   2.669
 2439TIP3    H2 7324   4.155   5.072   2.696
 2440TIP3   OH2 7325   4.484   5.618   3.588
 2440TIP3    H1 7326   4.472   5.544   3.648
 2440TIP3    H2 7327   4.565   5.598   3.542
 2441TIP3   OH2 7328   1.470   4.696   2.879
 2441TIP3    H1 7329   1.399   4.730   2.825
 2441TIP3    H2 7330   1.491   4.611   2.840
 2442TIP3   OH2 7331   1.602   2.969   1.725
 2442TIP3    H1 7332   1.633   2.987   1.814
 2442TIP3    H2 7333   1.576   3.055   1.691
 2443TIP3   OH2 7334   5.819   3.547   1.009
 2443TIP3    H1 7335   5.800   3.495   0.931
 2443TIP3    H2 7336   5.910   3.526   1.029
 2444TIP3   OH2 7337   5.277   2.513   2.597
 2444TIP3    H1 7338   5.277   2.423   2.628
 2444TIP3    H2 7339   5.191   2.547   2.622
 2445TIP3   OH2 7340   0.473   0.407   0.213
 2445TIP3    H1 7341   0.460   0.501   0.206
 2445TIP3    H2 7342   0.565   0.397   0.237
 2446TIP3   OH2 7343   0.412   3.488   2.930
 2446TIP3    H1 7344   0.319   3.508   2.937
 2446TIP3    H2 7345   0.429   3.488   2.835
 2447TIP3   OH2 7346   2.714   2.464   0.929
 2447TIP3    H1 7347   2.655   2.487   1.001
 2447TIP3    H2 7348   2.779   2.406   0.969
 2448TIP3   OH2 7349   1.215   2.147   0.355
 2448TIP3    H1 7350   1.124   2.133   0.331
 2448TIP3    H2 7351   1.245   2.062   0.387
 2449TIP3   OH2 7352   5.410   3.719   0.360
 2449TIP3    H1 7353   5.336   3.666   0.330
 2449TIP3    H2 7354   5.463   3.733   0.282
 2450TIP3   OH2 7355   2.919   2.412   1.107
 2450TIP3    H1 7356   2.924   2.507   1.116
 2450TIP3    H2 7357   2.852   2.385   1.170
 2451TIP3   OH2 7358   3.580   5.019   4.300
 2451TIP3    H1 7359   3.520   5.031   4.226
 2451TIP3    H2 7360   3.524   5.023   4.377
 2452TIP3   OH2 7361   1.435   4.932   4.795
 2452TIP3    H1 7362   1.383   4.863   4.836
 2452TIP3    H2 7363   1.382   4.961   4.721
 2453TIP3   OH2 7364   2.130   1.083   4.212
 2453TIP3    H1 7365   2.098   1.011   4.267
 2453TIP3    H2 7366   2.225   1.080   4.222
 2454TIP3   OH2 7367   4.987   5.935   0.736
 2454TIP3    H1 7368   5.044   5.879   0.789
 2454TIP3    H2 7369   4.936   5.873   0.683
 2455TIP3   OH2 7370   3.641   4.347   2.645
 2455TIP3    H1 7371   3.594   4.264   2.660
 2455TIP3    H2 7372   3.573   4.408   2.615
 2456TIP3   OH2 7373   5.777   1.536   3.534
 2456TIP3    H1 7374   5.799   1.444   3.518
 2456TIP3    H2 7375   5.692   1.547   3.491
 2457TIP3   OH2 7376   5.841   4.616   3.401
 2457TIP3    H1 7377   5.889   4.697   3.422
 2457TIP3    H2 7378   5.857   4.603   3.307
 2458TIP3   OH2 7379   4.379   0.585   2.450
 2458TIP3    H1 7380   4.403   0.493   2.435
 2458TIP3    H2 7381   4.298   0.597   2.399
 2459TIP3   OH2 7382   5.011   1.434   0.096
 2459TIP3    H1 7383   4.949   1.499   0.131
 2459TIP3    H2 7384   4.974   1.350   0.121
 2460TIP3   OH2 7385   4.010   3.733   3.628
 2460TIP3    H1 7386   3.993   3.640   3.612
 2460TIP3    H2 7387   4.105   3.740   3.629
 2461TIP3   OH2 7388   4.774   5.446   3.736
 2461TIP3    H1 7389   4.863   5.411   3.745
 2461TIP3    H2 7390   4.762   5.459   3.642
 2462TIP3   OH2 7391   0.805   0.882   2.169
 2462TIP3    H1 7392   0.731   0.825   2.149
 2462TIP3    H2 7393   0.859   0.830   2.229
 2463TIP3   OH2 7394   4.032   3.607   0.966
 2463TIP3    H1 7395   4.115   3.605   1.014
 2463TIP3    H2 7396   4.029   3.523   0.921
 2464TIP3   OH2 7397   0.764   4.619   1.387
 2464TIP3    H1 7398   0.758   4.524   1.378
 2464TIP3    H2 7399   0.676   4.651   1.368
 2465TIP3   OH2 7400   0.885   1.402   4.810
 2465TIP3    H1 7401   0.980   1.412   4.806
 2465TIP3    H2 7402   0.872   1.316   4.851
 2466TIP3   OH2 7403   2.882   2.096   1.245
 2466TIP3    H1 7404   2.825   2.020   1.234
 2466TIP3    H2 7405   2.913   2.115   1.156
 2467TIP3   OH2 7406   1.625   5.886   1.198
 2467TIP3    H1 7407   1.539   5.878   1.156
 2467TIP3    H2 7408   1.620   5.827   1.274
 2468TIP3   OH2 7409   0.062   5.249   4.591
 2468TIP3    H1 7410   0.055   5.285   4.680
 2468TIP3    H2 7411   0.136   5.188   4.596
 2469TIP3   OH2 7412   3.347   5.158   1.872
 2469TIP3    H1 7413   3.388   5.215   1.807
 2469TIP3    H2 7414   3.405   5.163   1.948
 2470TIP3   OH2 7415   1.394   0.955   2.242
 2470TIP3    H1 7416   1.469   0.899   2.221
 2470TIP3    H2 7417   1.318   0.896   2.239
 2471TIP3   OH2 7418   2.172   1.301   3.054
 2471TIP3    H1 7419   2.262   1.279   3.031
 2471TIP3    H2 7420   2.150   1.374   2.997
 2472TIP3   OH2 7421   2.198   1.761   4.038
 2472TIP3    H1 7422   2.154   1.676   4.029
 2472TIP3    H2 7423   2.186   1.784   4.130
 2473TIP3   OH2 7424   4.638   0.221   3.796
 2473TIP3    H1 7425   4.679   0.135   3.807
 2473TIP3    H2 7426   4.708   0.278   3.766
 2474TIP3   OH2 7427   4.127   4.279   3.670
 2474TIP3    H1 7428   4.048   4.227   3.653
 2474TIP3    H2 7429   4.184   4.220   3.719
 2475TIP3   OH2 7430   5.421   2.127   2.212
 2475TIP3    H1 7431   5.439   2.160   2.125
 2475TIP3    H2 7432   5.351   2.183   2.246
 2476TIP3   OH2 7433   1.713   5.529   2.963
 2476TIP3    H1 7434   1.803   5.550   2.937
 2476TIP3    H2 7435   1.663   5.530   2.882
 2477TIP3   OH2 7436   2.065   2.085   2.979
 2477TIP3    H1 7437   2.069   2.178   2.958
 2477TIP3    H2 7438   2.120   2.043   2.912
 2478TIP3   OH2 7439   1.633   3.816   1.570
 2478TIP3    H1 7440   1.610   3.880   1.503
 2478TIP3    H2 7441   1.604   3.732   1.534
 2479TIP3   OH2 7442   4.391   4.284   3.465
 2479TIP3    H1 7443   4.348   4.259   3.383
 2479TIP3    H2 7444   4.370   4.376   3.476
 2480TIP3   OH2 7445   2.192   3.767   0.336
 2480TIP3    H1 7446   2.192   3.673   0.314
 2480TIP3    H2 7447   2.268   3.802   0.290
 2481TIP3   OH2 7448   3.635   1.674   4.232
 2481TIP3    H1 7449   3.594   1.720   4.159
 2481TIP3    H2 7450   3.585   1.702   4.309
 2482TIP3   OH2 7451   0.131   1.016   2.827
 2482TIP3    H1 7452   0.088   0.940   2.868
 2482TIP3    H2 7453   0.224   0.994   2.829
 2483TIP3   OH2 7454   1.969   5.562   4.008
 2483TIP3    H1 7455   1.951   5.654   3.990
 2483TIP3    H2 7456   1.895   5.532   4.061
 2484TIP3   OH2 7457   4.182   5.544   0.047
 2484TIP3    H1 7458   4.160   5.637   0.040
 2484TIP3    H2 7459   4.276   5.541   0.027
 2485TIP3   OH2 7460   2.155   1.379   2.383
 2485TIP3    H1 7461   2.135   1.467   2.415
 2485TIP3    H2 7462   2.220   1.392   2.315
 2486TIP3   OH2 7463   0.882   2.633   1.756
 2486TIP3    H1 7464   0.845   2.703   1.702
 2486TIP3    H2 7465   0.854   2.655   1.845
 2487TIP3   OH2 7466   1.875   0.464   2.697
 2487TIP3    H1 7467   1.957   0.480   2.650
 2487TIP3    H2 7468   1.854   0.547   2.738
 2488TIP3   OH2 7469   2.963   5.436   1.554
 2488TIP3    H1 7470   2.923   5.454   1.639
 2488TIP3    H2 7471   2.980   5.341   1.555
 2489TIP3   OH2 7472   5.717   5.050   3.906
 2489TIP3    H1 7473   5.698   4.956   3.912
 2489TIP3    H2 7474   5.643   5.086   3.856
 2490TIP3   OH2 7475   1.672   3.200   4.394
 2490TIP3    H1 7476   1.713   3.209   4.308
 2490TIP3    H2 7477   1.714   3.268   4.448
 2491TIP3   OH2 7478   2.368   0.675   3.631
 2491TIP3    H1 7479   2.335   0.610   3.692
 2491TIP3    H2 7480   2.412   0.624   3.563
 2492TIP3   OH2 7481   4.844   0.526   2.340
 2492TIP3    H1 7482   4.799   0.520   2.424
 2492TIP3    H2 7483   4.920   0.468   2.350
 2493TIP3   OH2 7484   2.963   3.739   3.148
 2493TIP3    H1 7485   3.011   3.722   3.229
 2493TIP3    H2 7486   2.995   3.672   3.087
 2494TIP3   OH2 7487   0.380   5.421   1.051
 2494TIP3    H1 7488   0.368   5.361   0.977
 2494TIP3    H2 7489   0.439   5.374   1.110
 2495TIP3   OH2 7490   5.650   1.580   5.072
 2495TIP3    H1 7491   5.599   1.505   5.041
 2495TIP3    H2 7492   5.717   1.592   5.005
 2496TIP3   OH2 7493   1.301   2.568   0.347
 2496TIP3    H1 7494   1.270   2.511   0.417
 2496TIP3    H2 7495   1.344   2.509   0.285
 2497TIP3   OH2 7496   2.248   5.424   2.540
 2497TIP3    H1 7497   2.342   5.442   2.552
 2497TIP3    H2 7498   2.205   5.502   2.575
 2498TIP3   OH2 7499   5.825   2.261   1.767
 2498TIP3    H1 7500   5.744   2.220   1.738
 2498TIP3    H2 7501   5.835   2.338   1.712
 2499TIP3   OH2 7502   1.914   3.715   0.530
 2499TIP3    H1 7503   1.940   3.625   0.547
 2499TIP3    H2 7504   1.870   3.712   0.445
 2500TIP3   OH2 7505   4.649   0.272   3.149
 2500TIP3    H1 7506   4.726   0.327   3.167
 2500TIP3    H2 7507   4.670   0.229   3.066
 2501TIP3   OH2 7508   5.732   2.365   0.029
 2501TIP3    H1 7509   5.683   2.405   0.101
 2501TIP3    H2 7510   5.792   2.304   0.072
 2502TIP3   OH2 7511   0.899   1.887   4.427
 2502TIP3    H1 7512   0.963   1.836   4.477
 2502TIP3    H2 7513   0.877   1.830   4.353
 2503TIP3   OH2 7514   3.001   4.652   1.524
 2503TIP3    H1 7515   2.986   4.560   1.544
 2503TIP3    H2 7516   2.945   4.669   1.448
 2504TIP3   OH2 7517   4.794   1.873   0.834
 2504TIP3    H1 7518   4.733   1.928   0.786
 2504TIP3    H2 7519   4.867   1.860   0.774
 2505TIP3   OH2 7520   2.316   5.282   2.831
 2505TIP3    H1 7521   2.250   5.343   2.799
 2505TIP3    H2 7522   2.307   5.205   2.775
 2506TIP3   OH2 7523   1.354   4.231   3.697
 2506TIP3    H1 7524   1.299   4.306   3.675
 2506TIP3    H2 7525   1.337   4.168   3.626
 2507TIP3   OH2 7526   3.477   3.633   1.407
 2507TIP3    H1 7527   3.476   3.543   1.438
 2507TIP3    H2 7528   3.477   3.626   1.311
 2508TIP3   OH2 7529   4.891   1.900   2.392
 2508TIP3    H1 7530   4.979   1.866   2.409
 2508TIP3    H2 7531   4.844   1.826   2.353
 2509TIP3   OH2 7532   4.806   0.082   3.307
 2509TIP3    H1 7533   4.732   0.133   3.275
 2509TIP3    H2 7534   4.772  -0.007   3.314
 2510TIP3   OH2 7535   1.871   5.176   1.290
 2510TIP3    H1 7536   1.844   5.164   1.198
 2510TIP3    H2 7537   1.963   5.151   1.291
 2511TIP3   OH2 7538   1.725   4.611   3.068
 2511TIP3    H1 7539   1.651   4.668   3.091
 2511TIP3    H2 7540   1.688   4.523   3.064
 2512TIP3   OH2 7541   3.263   4.681   4.081
 2512TIP3    H1 7542   3.299   4.698   4.169
 2512TIP3    H2 7543   3.339   4.690   4.023
 2513TIP3   OH2 7544   1.639   2.847   0.883
 2513TIP3    H1 7545   1.717   2.875   0.932
 2513TIP3    H2 7546   1.634   2.753   0.898
 2514TIP3   OH2 7547   2.707   3.421   0.688
 2514TIP3    H1 7548   2.747   3.432   0.775
 2514TIP3    H2 7549   2.781   3.424   0.628
 2515TIP3   OH2 7550   0.429   3.237   1.799
 2515TIP3    H1 7551   0.352   3.293   1.792
 2515TIP3    H2 7552   0.503   3.297   1.790
 2516TIP3   OH2 7553   5.848   3.069   3.474
 2516TIP3    H1 7554   5.896   3.135   3.525
 2516TIP3    H2 7555   5.859   2.988   3.524
 2517TIP3   OH2 7556   4.833   3.231   0.871
 2517TIP3    H1 7557   4.748   3.273   0.887
 2517TIP3    H2 7558   4.818   3.175   0.795
 2518TIP3   OH2 7559   5.201   1.622   0.133
 2518TIP3    H1 7560   5.139   1.549   0.139
 2518TIP3    H2 7561   5.248   1.606   0.051
 2519TIP3   OH2 7562   4.884   3.178   4.129
 2519TIP3    H1 7563   4.917   3.171   4.219
 2519TIP3    H2 7564   4.790   3.162   4.137
 2520TIP3   OH2 7565   0.229   3.807   0.643
 2520TIP3    H1 7566   0.154   3.847   0.687
 2520TIP3    H2 7567   0.192   3.735   0.592
 2521TIP3   OH2 7568   1.856   2.201   4.854
 2521TIP3    H1 7569   1.882   2.269   4.792
 2521TIP3    H2 7570   1.910   2.125   4.832
 2522TIP3   OH2 7571   2.572   1.584   0.848
 2522TIP3    H1 7572   2.542   1.522   0.914
 2522TIP3    H2 7573   2.609   1.530   0.779
 2523TIP3   OH2 7574   1.957   3.158   0.308
 2523TIP3    H1 7575   1.931   3.131   0.397
 2523TIP3    H2 7576   1.946   3.253   0.308
 2524TIP3   OH2 7577   4.810   3.254   0.044
 2524TIP3    H1 7578   4.717   3.274   0.032
 2524TIP3    H2 7579   4.811   3.161   0.069
 2525TIP3   OH2 7580   4.424   0.293   0.194
 2525TIP3    H1 7581   4.345   0.345   0.185
 2525TIP3    H2 7582   4.445   0.297   0.288
 2526TIP3   OH2 7583   1.097   2.350   1.504
 2526TIP3    H1 7584   1.015   2.303   1.496
 2526TIP3    H2 7585   1.083   2.431   1.455
 2527TIP3   OH2 7586   1.376   2.219   3.106
 2527TIP3    H1 7587   1.402   2.250   3.192
 2527TIP3    H2 7588   1.452   2.169   3.075
 2528TIP3   OH2 7589   1.939   2.805   2.535
 2528TIP3    H1 7590   2.002   2.877   2.533
 2528TIP3    H2 7591   1.906   2.804   2.625
 2529TIP3   OH2 7592   5.283   4.196   3.923
 2529TIP3    H1 7593   5.200   4.243   3.933
 2529TIP3    H2 7594   5.347   4.265   3.904
 2530TIP3   OH2 7595   1.220   3.505   4.299
 2530TIP3    H1 7596   1.186   3.587   4.265
 2530TIP3    H2 7597   1.239   3.524   4.391
 2531TIP3   OH2 7598   5.433   0.080   3.204
 2531TIP3    H1 7599   5.378   0.013   3.163
 2531TIP3    H2 7600   5.471   0.128   3.131
 2532TIP3   OH2 7601   4.612   5.888   1.339
 2532TIP3    H1 7602   4.657   5.849   1.415
 2532TIP3    H2 7603   4.553   5.819   1.309
 2533TIP3   OH2 7604   5.906   3.902   1.502
 2533TIP3    H1 7605   5.963   3.964   1.458
 2533TIP3    H2 7606   5.840   3.957   1.546
 2534TIP3   OH2 7607   1.040   3.133   0.043
 2534TIP3    H1 7608   0.955   3.165   0.013
 2534TIP3    H2 7609   1.092   3.125  -0.036
 2535TIP3   OH2 7610   1.896   3.743   0.256
 2535TIP3    H1 7611   1.981   3.759   0.296
 2535TIP3    H2 7612   1.889   3.809   0.187
 2536TIP3   OH2 7613   3.838   1.117   4.908
 2536TIP3    H1 7614   3.896   1.176   4.956
 2536TIP3    H2 7615   3.751   1.135   4.943
 2537TIP3   OH2 7616   5.889   2.213   4.926
 2537TIP3    H1 7617   5.956   2.266   4.969
 2537TIP3    H2 7618   5.925   2.124   4.925
 2538TIP3   OH2 7619   2.916   4.006   3.136
 2538TIP3    H1 7620   2.919   3.910   3.142
 2538TIP3    H2 7621   2.823   4.027   3.129
 2539TIP3   OH2 7622   1.484   2.061   0.550
 2539TIP3    H1 7623   1.526   2.103   0.475
 2539TIP3    H2 7624   1.547   1.996   0.580
 2540TIP3   OH2 7625   5.281   3.128   1.117
 2540TIP3    H1 7626   5.306   3.161   1.030
 2540TIP3    H2 7627   5.254   3.038   1.101
 2541TIP3   OH2 7628   1.262   5.494   2.891
 2541TIP3    H1 7629   1.320   5.467   2.819
 2541TIP3    H2 7630   1.251   5.415   2.944
 2542TIP3   OH2 7631   4.540   3.572   0.671
 2542TIP3    H1 7632   4.485   3.614   0.737
 2542TIP3    H2 7633   4.578   3.645   0.622
 2543TIP3   OH2 7634   5.769   0.699   2.020
 2543TIP3    H1 7635   5.689   0.648   2.005
 2543TIP3    H2 7636   5.746   0.788   1.993
 2544TIP3   OH2 7637   3.646   2.204   2.554
 2544TIP3    H1 7638   3.640   2.283   2.501
 2544TIP3    H2 7639   3.726   2.214   2.604
 2545TIP3   OH2 7640   0.523   2.371   0.922
 2545TIP3    H1 7641   0.533   2.345   0.830
 2545TIP3    H2 7642   0.460   2.308   0.957
 2546TIP3   OH2 7643   2.840   0.821   1.013
 2546TIP3    H1 7644   2.922   0.775   0.995
 2546TIP3    H2 7645   2.832   0.884   0.942
 2547TIP3   OH2 7646   5.987   1.555   2.975
 2547TIP3    H1 7647   5.965   1.520   2.889
 2547TIP3    H2 7648   6.040   1.486   3.016
 2548TIP3   OH2 7649   0.116   2.466   2.395
 2548TIP3    H1 7650   0.095   2.536   2.456
 2548TIP3    H2 7651   0.202   2.489   2.359
 2549TIP3   OH2 7652   2.074   0.596   3.134
 2549TIP3    H1 7653   2.090   0.535   3.062
 2549TIP3    H2 7654   2.159   0.638   3.149
 2550TIP3   OH2 7655   3.588   1.552   1.179
 2550TIP3    H1 7656   3.505   1.591   1.206
 2550TIP3    H2 7657   3.613   1.601   1.100
 2551TIP3   OH2 7658   1.738   5.668   4.222
 2551TIP3    H1 7659   1.730   5.599   4.157
 2551TIP3    H2 7660   1.671   5.648   4.287
 2552TIP3   OH2 7661   3.505   0.129   2.176
 2552TIP3    H1 7662   3.466   0.208   2.212
 2552TIP3    H2 7663   3.471   0.058   2.231
 2553TIP3   OH2 7664   0.093   5.032   2.676
 2553TIP3    H1 7665   0.069   5.020   2.584
 2553TIP3    H2 7666   0.188   5.039   2.676
 2554TIP3   OH2 7667   1.909   0.471   0.044
 2554TIP3    H1 7668   1.901   0.566   0.039
 2554TIP3    H2 7669   1.904   0.451   0.137
 2555TIP3   OH2 7670   5.199   4.566   1.214
 2555TIP3    H1 7671   5.170   4.489   1.262
 2555TIP3    H2 7672   5.117   4.606   1.182
 2556TIP3   OH2 7673   2.733   1.298   3.180
 2556TIP3    H1 7674   2.724   1.360   3.253
 2556TIP3    H2 7675   2.743   1.213   3.222
 2557TIP3   OH2 7676   5.949   4.774   5.058
 2557TIP3    H1 7677   5.938   4.791   5.152
 2557TIP3    H2 7678   5.969   4.681   5.052
 2558TIP3   OH2 7679   2.490   3.457   2.333
 2558TIP3    H1 7680   2.495   3.362   2.321
 2558TIP3    H2 7681   2.528   3.493   2.253
 2559TIP3   OH2 7682   5.363   2.623   3.021
 2559TIP3    H1 7683   5.318   2.541   3.036
 2559TIP3    H2 7684   5.385   2.656   3.108
 2560TIP3   OH2 7685   2.926   0.658   3.538
 2560TIP3    H1 7686   2.968   0.732   3.495
 2560TIP3    H2 7687   2.963   0.658   3.627
 2561TIP3   OH2 7688   3.174   2.548   3.492
 2561TIP3    H1 7689   3.148   2.456   3.501
 2561TIP3    H2 7690   3.200   2.573   3.581
 2562TIP3   OH2 7691   4.996   5.404   4.973
 2562TIP3    H1 7692   5.032   5.460   5.042
 2562TIP3    H2 7693   5.049   5.424   4.896
 2563TIP3   OH2 7694   4.231   2.162   3.095
 2563TIP3    H1 7695   4.167   2.233   3.091
 2563TIP3    H2 7696   4.209   2.106   3.021
 2564TIP3   OH2 7697   0.766   2.791   3.185
 2564TIP3    H1 7698   0.681   2.748   3.178
 2564TIP3    H2 7699   0.815   2.737   3.247
 2565TIP3   OH2 7700   1.267   4.060   1.253
 2565TIP3    H1 7701   1.256   4.096   1.341
 2565TIP3    H2 7702   1.184   4.077   1.209
 2566TIP3   OH2 7703   5.743   1.355   0.443
 2566TIP3    H1 7704   5.728   1.260   0.437
 2566TIP3    H2 7705   5.663   1.394   0.407
 2567TIP3   OH2 7706   5.851   3.938   1.893
 2567TIP3    H1 7707   5.770   3.957   1.939
 2567TIP3    H2 7708   5.838   3.973   1.805
 2568TIP3   OH2 7709   3.927   5.122   2.174
 2568TIP3    H1 7710   3.979   5.059   2.125
 2568TIP3    H2 7711   3.844   5.078   2.191
 2569TIP3   OH2 7712   5.326   1.253   3.513
 2569TIP3    H1 7713   5.306   1.320   3.447
 2569TIP3    H2 7714   5.260   1.266   3.581
 2570TIP3   OH2 7715   4.772   4.099   4.152
 2570TIP3    H1 7716   4.755   4.047   4.231
 2570TIP3    H2 7717   4.829   4.170   4.182
 2571TIP3   OH2 7718   4.506   1.788   2.315
 2571TIP3    H1 7719   4.539   1.698   2.314
 2571TIP3    H2 7720   4.493   1.807   2.408
 2572TIP3   OH2 7721   4.355   1.185   1.941
 2572TIP3    H1 7722   4.269   1.162   1.975
 2572TIP3    H2 7723   4.344   1.273   1.905
 2573TIP3   OH2 7724   0.315   2.384   3.481
 2573TIP3    H1 7725   0.389   2.399   3.422
 2573TIP3    H2 7726   0.345   2.413   3.567
 2574TIP3   OH2 7727   3.040   4.930   1.408
 2574TIP3    H1 7728   3.043   4.836   1.429
 2574TIP3    H2 7729   3.007   4.933   1.318
 2575TIP3   OH2 7730   5.012   4.472   5.153
 2575TIP3    H1 7731   5.107   4.462   5.149
 2575TIP3    H2 7732   4.988   4.503   5.066
 2576TIP3   OH2 7733   3.583   1.597   2.408
 2576TIP3    H1 7734   3.514   1.619   2.470
 2576TIP3    H2 7735   3.560   1.643   2.327
 2577TIP3   OH2 7736   6.313   4.638   1.585
 2577TIP3    H1 7737   6.305   4.717   1.637
 2577TIP3    H2 7738   6.329   4.569   1.649
 2578TIP3   OH2 7739   5.294   0.929   3.879
 2578TIP3    H1 7740   5.244   1.009   3.868
 2578TIP3    H2 7741   5.332   0.936   3.966
 2579TIP3   OH2 7742   4.999   3.619   4.852
 2579TIP3    H1 7743   5.061   3.580   4.914
 2579TIP3    H2 7744   4.945   3.676   4.906
 2580TIP3   OH2 7745   5.981   0.864   0.348
 2580TIP3    H1 7746   6.017   0.940   0.394
 2580TIP3    H2 7747   6.008   0.877   0.257
 2581TIP3   OH2 7748   5.432   1.913   0.746
 2581TIP3    H1 7749   5.451   1.958   0.829
 2581TIP3    H2 7750   5.446   1.980   0.679
 2582TIP3   OH2 7751   4.340   1.872   2.067
 2582TIP3    H1 7752   4.427   1.907   2.088
 2582TIP3    H2 7753   4.303   1.936   2.006
 2583TIP3   OH2 7754   0.833   3.942   4.426
 2583TIP3    H1 7755   0.827   3.867   4.485
 2583TIP3    H2 7756   0.807   4.017   4.479
 2584TIP3   OH2 7757   4.609   0.345   3.419
 2584TIP3    H1 7758   4.637   0.328   3.329
 2584TIP3    H2 7759   4.543   0.414   3.411
 2585TIP3   OH2 7760   5.280   1.370   0.767
 2585TIP3    H1 7761   5.261   1.432   0.697
 2585TIP3    H2 7762   5.366   1.396   0.800
 2586TIP3   OH2 7763   1.913   1.531   3.875
 2586TIP3    H1 7764   1.878   1.518   3.963
 2586TIP3    H2 7765   1.917   1.626   3.864
 2587TIP3   OH2 7766   2.357   4.569   0.169
 2587TIP3    H1 7767   2.447   4.538   0.182
 2587TIP3    H2 7768   2.364   4.664   0.166
 2588TIP3   OH2 7769   3.274   2.687   3.972
 2588TIP3    H1 7770   3.301   2.778   3.980
 2588TIP3    H2 7771   3.327   2.640   4.036
 2589TIP3   OH2 7772   5.987   1.526   2.688
 2589TIP3    H1 7773   5.962   1.614   2.658
 2589TIP3    H2 7774   6.073   1.512   2.649
 2590TIP3   OH2 7775   1.313   3.244   2.730
 2590TIP3    H1 7776   1.229   3.262   2.687
 2590TIP3    H2 7777   1.373   3.309   2.694
 2591TIP3   OH2 7778   5.896   4.282   2.707
 2591TIP3    H1 7779   5.955   4.247   2.640
 2591TIP3    H2 7780   5.829   4.329   2.657
 2592TIP3   OH2 7781   5.379   4.209   2.293
 2592TIP3    H1 7782   5.462   4.163   2.283
 2592TIP3    H2 7783   5.318   4.143   2.326
 2593TIP3   OH2 7784   4.791   5.068   1.141
 2593TIP3    H1 7785   4.734   5.029   1.074
 2593TIP3    H2 7786   4.733   5.088   1.214
 2594TIP3   OH2 7787   2.341   4.564   0.514
 2594TIP3    H1 7788   2.249   4.579   0.492
 2594TIP3    H2 7789   2.370   4.647   0.553
 2595TIP3   OH2 7790   5.864   1.314   1.470
 2595TIP3    H1 7791   5.940   1.372   1.463
 2595TIP3    H2 7792   5.800   1.351   1.409
 2596TIP3   OH2 7793   4.462   4.972   2.619
 2596TIP3    H1 7794   4.551   4.940   2.609
 2596TIP3    H2 7795   4.463   5.021   2.702
 2597TIP3   OH2 7796   5.207   4.706   4.126
 2597TIP3    H1 7797   5.151   4.694   4.049
 2597TIP3    H2 7798   5.278   4.763   4.095
 2598TIP3   OH2 7799   4.916   0.782   4.019
 2598TIP3    H1 7800   4.983   0.718   4.042
 2598TIP3    H2 7801   4.845   0.731   3.981
 2599TIP3   OH2 7802   1.334   1.467   0.257
 2599TIP3    H1 7803   1.270   1.538   0.258
 2599TIP3    H2 7804   1.292   1.397   0.208
 2600TIP3   OH2 7805   0.378   1.077   4.468
 2600TIP3    H1 7806   0.288   1.050   4.449
 2600TIP3    H2 7807   0.432   1.010   4.427
 2601TIP3   OH2 7808   5.340   4.643   4.368
 2601TIP3    H1 7809   5.261   4.609   4.410
 2601TIP3    H2 7810   5.317   4.654   4.276
 2602TIP3   OH2 7811   2.865   4.051   0.583
 2602TIP3    H1 7812   2.772   4.064   0.600
 2602TIP3    H2 7813   2.909   4.092   0.657
 2603TIP3   OH2 7814   5.951   2.736   1.082
 2603TIP3    H1 7815   5.975   2.663   1.139
 2603TIP3    H2 7816   5.872   2.773   1.123
 2604TIP3   OH2 7817   2.985   0.055   4.557
 2604TIP3    H1 7818   2.975  -0.008   4.485
 2604TIP3    H2 7819   2.907   0.110   4.550
 2605TIP3   OH2 7820   1.305   5.072   4.188
 2605TIP3    H1 7821   1.355   5.025   4.122
 2605TIP3    H2 7822   1.363   5.077   4.264
 2606TIP3   OH2 7823   1.536   5.275   3.995
 2606TIP3    H1 7824   1.480   5.285   3.917
 2606TIP3    H2 7825   1.504   5.341   4.056
 2607TIP3   OH2 7826   0.107   4.250   4.964
 2607TIP3    H1 7827   0.130   4.343   4.961
 2607TIP3    H2 7828   0.014   4.248   4.941
 2608TIP3   OH2 7829   5.010   0.882   2.133
 2608TIP3    H1 7830   5.090   0.839   2.163
 2608TIP3    H2 7831   4.940   0.846   2.187
 2609TIP3   OH2 7832   0.370   4.723   2.666
 2609TIP3    H1 7833   0.371   4.812   2.700
 2609TIP3    H2 7834   0.354   4.733   2.572
 2610TIP3   OH2 7835   5.437   3.782   3.464
 2610TIP3    H1 7836   5.341   3.783   3.457
 2610TIP3    H2 7837   5.467   3.839   3.393
 2611TIP3   OH2 7838   2.406   1.347   0.953
 2611TIP3    H1 7839   2.336   1.413   0.961
 2611TIP3    H2 7840   2.411   1.329   0.859
 2612TIP3   OH2 7841   3.786   1.107   3.961
 2612TIP3    H1 7842   3.844   1.032   3.971
 2612TIP3    H2 7843   3.813   1.168   4.030
 2613TIP3   OH2 7844   3.499   5.279   3.477
 2613TIP3    H1 7845   3.423   5.252   3.527
 2613TIP3    H2 7846   3.501   5.375   3.486
 2614TIP3   OH2 7847   5.093   1.221   0.909
 2614TIP3    H1 7848   5.180   1.255   0.884
 2614TIP3    H2 7849   5.065   1.278   0.980
 2615TIP3   OH2 7850   6.135   0.208   2.511
 2615TIP3    H1 7851   6.137   0.114   2.495
 2615TIP3    H2 7852   6.226   0.235   2.510
 2616TIP3   OH2 7853   6.216   4.061   3.372
 2616TIP3    H1 7854   6.216   4.016   3.457
 2616TIP3    H2 7855   6.156   4.010   3.318
 2617TIP3   OH2 7856   3.924   1.736   2.048
 2617TIP3    H1 7857   3.873   1.662   2.079
 2617TIP3    H2 7858   3.881   1.813   2.085
 2618TIP3   OH2 7859   0.713   4.907   3.097
 2618TIP3    H1 7860   0.652   4.951   3.038
 2618TIP3    H2 7861   0.788   4.885   3.041
 2619TIP3   OH2 7862   5.910   1.296   3.387
 2619TIP3    H1 7863   5.838   1.242   3.419
 2619TIP3    H2 7864   5.890   1.311   3.295
 2620TIP3   OH2 7865   1.008   5.618   1.162
 2620TIP3    H1 7866   1.005   5.714   1.170
 2620TIP3    H2 7867   0.929   5.595   1.114
 2621TIP3   OH2 7868   0.410   1.071   5.150
 2621TIP3    H1 7869   0.341   1.034   5.094
 2621TIP3    H2 7870   0.490   1.062   5.098
 2622TIP3   OH2 7871   4.248   3.336   2.529
 2622TIP3    H1 7872   4.251   3.258   2.584
 2622TIP3    H2 7873   4.340   3.363   2.521
 2623TIP3   OH2 7874   2.285   3.490   1.113
 2623TIP3    H1 7875   2.301   3.549   1.039
 2623TIP3    H2 7876   2.190   3.482   1.117
 2624TIP3   OH2 7877   3.468   1.982   0.213
 2624TIP3    H1 7878   3.499   1.941   0.294
 2624TIP3    H2 7879   3.443   1.909   0.157
 2625TIP3   OH2 7880   5.093   2.402   4.189
 2625TIP3    H1 7881   5.112   2.475   4.248
 2625TIP3    H2 7882   5.100   2.324   4.244
 2626TIP3   OH2 7883   0.858   3.666   0.269
 2626TIP3    H1 7884   0.881   3.708   0.352
 2626TIP3    H2 7885   0.840   3.575   0.292
 2627TIP3   OH2 7886   4.914   4.202   1.011
 2627TIP3    H1 7887   4.880   4.254   0.939
 2627TIP3    H2 7888   4.986   4.151   0.972
 2628TIP3   OH2 7889   3.145   2.737   1.366
 2628TIP3    H1 7890   3.123   2.661   1.419
 2628TIP3    H2 7891   3.231   2.764   1.398
 2629TIP3   OH2 7892   2.615   1.997   2.903
 2629TIP3    H1 7893   2.618   2.060   2.975
 2629TIP3    H2 7894   2.626   1.912   2.945
 2630TIP3   OH2 7895   5.609   2.102   2.703
 2630TIP3    H1 7896   5.567   2.018   2.688
 2630TIP3    H2 7897   5.603   2.147   2.618
 2631TIP3   OH2 7898   2.103   5.497   1.482
 2631TIP3    H1 7899   2.089   5.513   1.389
 2631TIP3    H2 7900   2.145   5.411   1.486
 2632TIP3   OH2 7901   0.548   2.618   4.366
 2632TIP3    H1 7902   0.463   2.618   4.409
 2632TIP3    H2 7903   0.551   2.535   4.318
 2633TIP3   OH2 7904   6.016   4.882   4.272
 2633TIP3    H1 7905   6.062   4.936   4.336
 2633TIP3    H2 7906   6.029   4.927   4.189
 2634TIP3   OH2 7907   1.918   4.154   4.565
 2634TIP3    H1 7908   1.861   4.081   4.586
 2634TIP3    H2 7909   1.875   4.198   4.492
 2635TIP3   OH2 7910   5.624   5.922   2.351
 2635TIP3    H1 7911   5.608   5.940   2.258
 2635TIP3    H2 7912   5.673   5.998   2.382
 2636TIP3   OH2 7913   0.832   2.584   4.199
 2636TIP3    H1 7914   0.872   2.642   4.264
 2636TIP3    H2 7915   0.891   2.509   4.195
 2637TIP3   OH2 7916   1.900   2.712   0.274
 2637TIP3    H1 7917   1.925   2.777   0.208
 2637TIP3    H2 7918   1.826   2.752   0.320
 2638TIP3   OH2 7919   4.824   3.906   3.786
 2638TIP3    H1 7920   4.916   3.923   3.806
 2638TIP3    H2 7921   4.818   3.810   3.779
 2639TIP3   OH2 7922   0.687   1.103   0.018
 2639TIP3    H1 7923   0.626   1.175   0.038
 2639TIP3    H2 7924   0.738   1.134  -0.057
 2640TIP3   OH2 7925   3.036   3.911   2.281
 2640TIP3    H1 7926   3.028   3.818   2.302
 2640TIP3    H2 7927   2.946   3.938   2.262
 2641TIP3   OH2 7928   0.581   5.041   0.836
 2641TIP3    H1 7929   0.517   5.110   0.822
 2641TIP3    H2 7930   0.535   4.976   0.889
 2642TIP3   OH2 7931   2.849   0.440   3.281
 2642TIP3    H1 7932   2.830   0.424   3.374
 2642TIP3    H2 7933   2.763   0.451   3.240
 2643TIP3   OH2 7934   1.534   1.950   1.195
 2643TIP3    H1 7935   1.493   1.969   1.110
 2643TIP3    H2 7936   1.525   2.032   1.244
 2644TIP3   OH2 7937   3.799   5.667   4.306
 2644TIP3    H1 7938   3.808   5.590   4.249
 2644TIP3    H2 7939   3.844   5.642   4.386
 2645TIP3   OH2 7940   3.247   5.745   0.341
 2645TIP3    H1 7941   3.189   5.706   0.406
 2645TIP3    H2 7942   3.327   5.694   0.346
 2646TIP3   OH2 7943   4.181   2.596   0.476
 2646TIP3    H1 7944   4.086   2.592   0.469
 2646TIP3    H2 7945   4.212   2.519   0.427
 2647TIP3   OH2 7946   3.779   4.103   3.663
 2647TIP3    H1 7947   3.832   4.036   3.621
 2647TIP3    H2 7948   3.714   4.054   3.714
 2648TIP3   OH2 7949   0.285   3.185   2.440
 2648TIP3    H1 7950   0.317   3.196   2.530
 2648TIP3    H2 7951   0.361   3.203   2.385
 2649TIP3   OH2 7952   1.248   4.415   2.710
 2649TIP3    H1 7953   1.254   4.324   2.681
 2649TIP3    H2 7954   1.247   4.409   2.806
 2650TIP3   OH2 7955   1.955   4.621   1.003
 2650TIP3    H1 7956   1.980   4.619   0.910
 2650TIP3    H2 7957   1.904   4.540   1.015
 2651TIP3   OH2 7958   1.432   2.999   3.505
 2651TIP3    H1 7959   1.360   2.938   3.523
 2651TIP3    H2 7960   1.495   2.947   3.456
 2652TIP3   OH2 7961   5.952   5.146   1.886
 2652TIP3    H1 7962   5.959   5.223   1.942
 2652TIP3    H2 7963   5.863   5.113   1.900
 2653TIP3   OH2 7964   3.143   1.551   3.334
 2653TIP3    H1 7965   3.058   1.509   3.327
 2653TIP3    H2 7966   3.206   1.479   3.330
 2654TIP3   OH2 7967   1.585   2.530   1.586
 2654TIP3    H1 7968   1.658   2.509   1.527
 2654TIP3    H2 7969   1.518   2.466   1.564
 2655TIP3   OH2 7970   0.264   4.399   1.903
 2655TIP3    H1 7971   0.197   4.390   1.836
 2655TIP3    H2 7972   0.219   4.379   1.985
 2656TIP3   OH2 7973   4.647   5.237   4.819
 2656TIP3    H1 7974   4.630   5.195   4.736
 2656TIP3    H2 7975   4.570   5.291   4.835
 2657TIP3   OH2 7976   5.395   4.885   4.598
 2657TIP3    H1 7977   5.444   4.832   4.660
 2657TIP3    H2 7978   5.416   4.848   4.512
 2658TIP3   OH2 7979   0.197   0.876   3.230
 2658TIP3    H1 7980   0.161   0.962   3.251
 2658TIP3    H2 7981   0.257   0.857   3.303
 2659TIP3   OH2 7982   1.912   4.622   2.875
 2659TIP3    H1 7983   1.865   4.667   2.805
 2659TIP3    H2 7984   1.853   4.624   2.950
 2660TIP3   OH2 7985   4.455   0.558   1.922
 2660TIP3    H1 7986   4.438   0.635   1.977
 2660TIP3    H2 7987   4.540   0.577   1.881
 2661TIP3   OH2 7988   1.206   4.862   2.379
 2661TIP3    H1 7989   1.127   4.916   2.371
 2661TIP3    H2 7990   1.194   4.815   2.462
 2662TIP3   OH2 7991   3.564   2.793   1.644
 2662TIP3    H1 7992   3.609   2.796   1.729
 2662TIP3    H2 7993   3.630   2.824   1.582
 2663TIP3   OH2 7994   6.033   2.695   4.953
 2663TIP3    H1 7995   6.009   2.731   4.868
 2663TIP3    H2 7996   5.997   2.757   5.016
 2664TIP3   OH2 7997   4.815   0.945   4.376
 2664TIP3    H1 7998   4.764   0.950   4.456
 2664TIP3    H2 7999   4.816   1.035   4.342
 2665TIP3   OH2 8000   3.666   0.918   3.544
 2665TIP3    H1 8001   3.645   0.984   3.610
 2665TIP3    H2 8002   3.738   0.867   3.583
 2666TIP3   OH2 8003   4.359   4.656   0.999
 2666TIP3    H1 8004   4.383   4.598   0.927
 2666TIP3    H2 8005   4.427   4.641   1.065
 2667TIP3   OH2 8006   5.309   5.426   1.807
 2667TIP3    H1 8007   5.236   5.482   1.780
 2667TIP3    H2 8008   5.329   5.374   1.729
 2668TIP3   OH2 8009   4.894   4.938   2.821
 2668TIP3    H1 8010   4.963   4.932   2.887
 2668TIP3    H2 8011   4.888   5.031   2.801
 2669TIP3   OH2 8012   2.447   1.433   1.925
 2669TIP3    H1 8013   2.485   1.505   1.874
 2669TIP3    H2 8014   2.497   1.356   1.899
 2670TIP3   OH2 8015   3.473   5.540   3.580
 2670TIP3    H1 8016   3.555   5.571   3.542
 2670TIP3    H2 8017   3.476   5.570   3.671
 2671TIP3   OH2 8018   1.711   2.579   0.972
 2671TIP3    H1 8019   1.716   2.517   1.045
 2671TIP3    H2 8020   1.769   2.542   0.906
 2672TIP3   OH2 8021   5.061   4.082   1.846
 2672TIP3    H1 8022   4.985   4.106   1.792
 2672TIP3    H2 8023   5.040   3.994   1.879
 2673TIP3   OH2 8024   3.625   1.994   3.341
 2673TIP3    H1 8025   3.622   1.945   3.259
 2673TIP3    H2 8026   3.657   2.080   3.316
 2674TIP3   OH2 8027   5.154   3.770   2.106
 2674TIP3    H1 8028   5.125   3.694   2.056
 2674TIP3    H2 8029   5.144   3.745   2.198
 2675TIP3   OH2 8030   0.595   2.140   5.186
 2675TIP3    H1 8031   0.658   2.207   5.160
 2675TIP3    H2 8032   0.645   2.080   5.242
 2676TIP3   OH2 8033   0.045   3.566   4.915
 2676TIP3    H1 8034  -0.007   3.589   4.992
 2676TIP3    H2 8035   0.134   3.592   4.938
 2677TIP3   OH2 8036   1.308   4.160   4.458
 2677TIP3    H1 8037   1.328   4.116   4.375
 2677TIP3    H2 8038   1.244   4.103   4.500
 2678TIP3   OH2 8039   5.260   3.548   4.973
 2678TIP3    H1 8040   5.298   3.605   4.905
 2678TIP3    H2 8041   5.334   3.495   5.002
 2679TIP3   OH2 8042   4.816   2.468   1.169
 2679TIP3    H1 8043   4.743   2.519   1.133
 2679TIP3    H2 8044   4.782   2.378   1.175
 2680TIP3   OH2 8045   2.974   0.311   4.197
 2680TIP3    H1 8046   2.959   0.217   4.204
 2680TIP3    H2 8047   3.007   0.336   4.284
 2681TIP3   OH2 8048   5.058   2.253   1.306
 2681TIP3    H1 8049   5.151   2.229   1.310
 2681TIP3    H2 8050   5.038   2.255   1.213
 2682TIP3   OH2 8051   5.639   5.407   4.038
 2682TIP3    H1 8052   5.631   5.497   4.008
 2682TIP3    H2 8053   5.568   5.397   4.102
 2683TIP3   OH2 8054   5.383   5.908   4.437
 2683TIP3    H1 8055   5.431   5.983   4.472
 2683TIP3    H2 8056   5.315   5.890   4.502
 2684TIP3   OH2 8057   3.367   2.252   3.373
 2684TIP3    H1 8058   3.454   2.291   3.384
 2684TIP3    H2 8059   3.372   2.207   3.289
 2685TIP3   OH2 8060   0.910   2.187   3.364
 2685TIP3    H1 8061   0.836   2.247   3.375
 2685TIP3    H2 8062   0.980   2.242   3.327
 2686TIP3   OH2 8063   4.988   0.374   2.764
 2686TIP3    H1 8064   4.976   0.350   2.856
 2686TIP3    H2 8065   5.069   0.426   2.764
 2687TIP3   OH2 8066   5.585   4.190   3.905
 2687TIP3    H1 8067   5.670   4.146   3.897
 2687TIP3    H2 8068   5.584   4.224   3.994
 2688TIP3   OH2 8069   0.800   3.894   1.676
 2688TIP3    H1 8070   0.892   3.919   1.684
 2688TIP3    H2 8071   0.771   3.878   1.766
 2689TIP3   OH2 8072   2.846   1.000   4.535
 2689TIP3    H1 8073   2.857   0.932   4.601
 2689TIP3    H2 8074   2.854   1.082   4.583
 2690TIP3   OH2 8075   4.373   0.233   3.670
 2690TIP3    H1 8076   4.460   0.226   3.710
 2690TIP3    H2 8077   4.315   0.257   3.743
 2691TIP3   OH2 8078   1.909   2.250   1.539
 2691TIP3    H1 8079   1.911   2.328   1.485
 2691TIP3    H2 8080   1.833   2.262   1.597
 2692TIP3   OH2 8081   1.230   4.525   0.186
 2692TIP3    H1 8082   1.196   4.564   0.106
 2692TIP3    H2 8083   1.197   4.435   0.185
 2693TIP3   OH2 8084   4.240   5.790   4.918
 2693TIP3    H1 8085   4.296   5.839   4.858
 2693TIP3    H2 8086   4.181   5.856   4.954
 2694TIP3   OH2 8087   6.276   5.232   3.249
 2694TIP3    H1 8088   6.345   5.296   3.266
 2694TIP3    H2 8089   6.318   5.165   3.195
 2695TIP3   OH2 8090   5.276   1.089   1.437
 2695TIP3    H1 8091   5.298   1.121   1.349
 2695TIP3    H2 8092   5.282   1.167   1.492
 2696TIP3   OH2 8093   0.940   2.987   0.524
 2696TIP3    H1 8094   0.859   2.962   0.569
 2696TIP3    H2 8095   1.009   2.964   0.586
 2697TIP3   OH2 8096   1.841   5.377   5.082
 2697TIP3    H1 8097   1.809   5.458   5.122
 2697TIP3    H2 8098   1.875   5.326   5.155
 2698TIP3   OH2 8099   5.281   4.772   1.400
 2698TIP3    H1 8100   5.355   4.805   1.348
 2698TIP3    H2 8101   5.271   4.681   1.371
 2699TIP3   OH2 8102   4.411   2.550   0.636
 2699TIP3    H1 8103   4.337   2.550   0.697
 2699TIP3    H2 8104   4.376   2.512   0.556
 2700TIP3   OH2 8105   0.639   4.862   2.249
 2700TIP3    H1 8106   0.568   4.857   2.185
 2700TIP3    H2 8107   0.675   4.950   2.238
 2701TIP3   OH2 8108   1.662   4.898   1.291
 2701TIP3    H1 8109   1.679   4.941   1.207
 2701TIP3    H2 8110   1.641   4.970   1.351
 2702TIP3   OH2 8111   6.097   4.651   1.380
 2702TIP3    H1 8112   6.137   4.638   1.294
 2702TIP3    H2 8113   6.171   4.677   1.436
 2703TIP3   OH2 8114   1.078   1.223   3.675
 2703TIP3    H1 8115   1.152   1.203   3.619
 2703TIP3    H2 8116   1.052   1.312   3.650
 2704TIP3   OH2 8117   6.130   1.655   2.306
 2704TIP3    H1 8118   6.151   1.622   2.394
 2704TIP3    H2 8119   6.123   1.576   2.252
 2705TIP3   OH2 8120   1.101   0.818   2.958
 2705TIP3    H1 8121   1.051   0.899   2.967
 2705TIP3    H2 8122   1.159   0.817   3.035
 2706TIP3   OH2 8123   1.328   0.193   4.329
 2706TIP3    H1 8124   1.360   0.211   4.240
 2706TIP3    H2 8125   1.257   0.256   4.342
 2707TIP3   OH2 8126   2.426   3.430   4.527
 2707TIP3    H1 8127   2.458   3.503   4.581
 2707TIP3    H2 8128   2.411   3.359   4.590
 2708TIP3   OH2 8129   4.816   5.221   2.789
 2708TIP3    H1 8130   4.853   5.309   2.792
 2708TIP3    H2 8131   4.762   5.215   2.868
 2709TIP3   OH2 8132   5.462   0.912   2.323
 2709TIP3    H1 8133   5.544   0.946   2.287
 2709TIP3    H2 8134   5.440   0.973   2.393
 2710TIP3   OH2 8135   4.878   5.395   4.684
 2710TIP3    H1 8136   4.973   5.402   4.692
 2710TIP3    H2 8137   4.855   5.322   4.742
 2711TIP3   OH2 8138   4.229   4.654   3.075
 2711TIP3    H1 8139   4.149   4.684   3.118
 2711TIP3    H2 8140   4.283   4.619   3.146
 2712TIP3   OH2 8141   4.876   1.777   5.028
 2712TIP3    H1 8142   4.936   1.848   5.003
 2712TIP3    H2 8143   4.791   1.820   5.039
 2713TIP3   OH2 8144   0.340   1.626   2.700
 2713TIP3    H1 8145   0.272   1.643   2.634
 2713TIP3    H2 8146   0.395   1.704   2.698
 2714TIP3   OH2 8147   4.740   1.524   4.243
 2714TIP3    H1 8148   4.792   1.560   4.314
 2714TIP3    H2 8149   4.789   1.546   4.164
 2715TIP3   OH2 8150   3.165   0.962   4.628
 2715TIP3    H1 8151   3.161   0.934   4.537
 2715TIP3    H2 8152   3.172   0.881   4.678
 2716TIP3   OH2 8153   6.015  -0.023   2.716
 2716TIP3    H1 8154   5.951   0.041   2.746
 2716TIP3    H2 8155   6.085   0.029   2.677
 2717TIP3   OH2 8156   5.244   0.066   3.447
 2717TIP3    H1 8157   5.290   0.027   3.373
 2717TIP3    H2 8158   5.177   0.122   3.408
 2718TIP3   OH2 8159   2.579   0.342   0.743
 2718TIP3    H1 8160   2.626   0.413   0.699
 2718TIP3    H2 8161   2.622   0.263   0.712
 2719TIP3   OH2 8162   3.334   1.669   1.116
 2719TIP3    H1 8163   3.303   1.644   1.029
 2719TIP3    H2 8164   3.317   1.763   1.122
 2720TIP3   OH2 8165   0.364   4.015   1.765
 2720TIP3    H1 8166   0.275   4.046   1.752
 2720TIP3    H2 8167   0.408   4.085   1.812
 2721TIP3   OH2 8168   3.755   4.611   2.720
 2721TIP3    H1 8169   3.689   4.548   2.748
 2721TIP3    H2 8170   3.707   4.672   2.664
 2722TIP3   OH2 8171   5.115   3.988   0.977
 2722TIP3    H1 8172   5.102   3.966   1.070
 2722TIP3    H2 8173   5.194   3.939   0.952
 2723TIP3   OH2 8174   0.046   4.265   0.430
 2723TIP3    H1 8175   0.082   4.184   0.465
 2723TIP3    H2 8176   0.115   4.301   0.374
 2724TIP3   OH2 8177   3.224   3.762   4.283
 2724TIP3    H1 8178   3.176   3.687   4.247
 2724TIP3    H2 8179   3.209   3.832   4.220
 2725TIP3   OH2 8180   5.858   1.603   4.237
 2725TIP3    H1 8181   5.769   1.593   4.204
 2725TIP3    H2 8182   5.859   1.689   4.279
 2726TIP3   OH2 8183   4.433   1.953   4.729
 2726TIP3    H1 8184   4.398   1.997   4.651
 2726TIP3    H2 8185   4.385   1.991   4.802
 2727TIP3   OH2 8186   4.574   3.682   3.092
 2727TIP3    H1 8187   4.601   3.774   3.091
 2727TIP3    H2 8188   4.557   3.661   3.000
 2728TIP3   OH2 8189   5.312   2.065   4.381
 2728TIP3    H1 8190   5.393   2.076   4.332
 2728TIP3    H2 8191   5.340   2.033   4.467
 2729TIP3   OH2 8192   1.435   5.330   2.783
 2729TIP3    H1 8193   1.511   5.297   2.736
 2729TIP3    H2 8194   1.389   5.252   2.813
 2730TIP3   OH2 8195   1.843   1.518   0.065
 2730TIP3    H1 8196   1.851   1.465  -0.014
 2730TIP3    H2 8197   1.930   1.515   0.105
 2731TIP3   OH2 8198   0.243   4.491   4.929
 2731TIP3    H1 8199   0.219   4.583   4.932
 2731TIP3    H2 8200   0.336   4.490   4.910
 2732TIP3   OH2 8201   4.364   0.523   2.985
 2732TIP3    H1 8202   4.388   0.460   2.918
 2732TIP3    H2 8203   4.447   0.553   3.021
 2733TIP3   OH2 8204   5.974   3.328   3.573
 2733TIP3    H1 8205   5.902   3.383   3.606
 2733TIP3    H2 8206   6.050   3.386   3.574
 2734TIP3   OH2 8207   0.488   2.485   0.242
 2734TIP3    H1 8208   0.491   2.402   0.288
 2734TIP3    H2 8209   0.579   2.514   0.238
 2735TIP3   OH2 8210   5.696   1.035   2.267
 2735TIP3    H1 8211   5.771   0.982   2.295
 2735TIP3    H2 8212   5.694   1.108   2.329
 2736TIP3   OH2 8213   2.778   1.513   4.918
 2736TIP3    H1 8214   2.853   1.525   4.976
 2736TIP3    H2 8215   2.783   1.421   4.891
 2737TIP3   OH2 8216   2.485   2.166   0.493
 2737TIP3    H1 8217   2.412   2.194   0.548
 2737TIP3    H2 8218   2.545   2.122   0.553
 2738TIP3   OH2 8219   6.112   5.696   3.222
 2738TIP3    H1 8220   6.017   5.701   3.227
 2738TIP3    H2 8221   6.132   5.603   3.231
 2739TIP3   OH2 8222   4.308   0.110   4.076
 2739TIP3    H1 8223   4.260   0.052   4.136
 2739TIP3    H2 8224   4.334   0.053   4.004
 2740TIP3   OH2 8225   5.624   1.225   1.162
 2740TIP3    H1 8226   5.636   1.192   1.251
 2740TIP3    H2 8227   5.698   1.283   1.147
 2741TIP3   OH2 8228   4.597   5.285   0.058
 2741TIP3    H1 8229   4.665   5.332   0.009
 2741TIP3    H2 8230   4.646   5.225   0.115
 2742TIP3   OH2 8231   5.243   1.255   1.216
 2742TIP3    H1 8232   5.305   1.263   1.142
 2742TIP3    H2 8233   5.253   1.337   1.264
 2743TIP3   OH2 8234   2.694   1.730   2.039
 2743TIP3    H1 8235   2.722   1.797   2.101
 2743TIP3    H2 8236   2.662   1.658   2.093
 2744TIP3   OH2 8237   5.341   0.114   4.062
 2744TIP3    H1 8238   5.411   0.138   4.001
 2744TIP3    H2 8239   5.369   0.150   4.146
 2745TIP3   OH2 8240   1.350   5.884   0.876
 2745TIP3    H1 8241   1.362   5.872   0.971
 2745TIP3    H2 8242   1.358   5.796   0.840
 2746TIP3   OH2 8243   3.006   2.623   3.985
 2746TIP3    H1 8244   3.009   2.539   3.939
 2746TIP3    H2 8245   3.089   2.665   3.963
 2747TIP3   OH2 8246   6.001   5.909   2.500
 2747TIP3    H1 8247   6.008   5.854   2.422
 2747TIP3    H2 8248   5.914   5.949   2.494
 2748TIP3   OH2 8249   2.158   3.987   1.518
 2748TIP3    H1 8250   2.073   4.032   1.512
 2748TIP3    H2 8251   2.171   3.950   1.431
 2749TIP3   OH2 8252   5.061   0.472   4.859
 2749TIP3    H1 8253   5.000   0.545   4.850
 2749TIP3    H2 8254   5.147   0.510   4.844
 2750TIP3   OH2 8255   0.981   2.808   2.564
 2750TIP3    H1 8256   1.050   2.786   2.626
 2750TIP3    H2 8257   0.901   2.814   2.618
 2751TIP3   OH2 8258   5.840   4.073   4.603
 2751TIP3    H1 8259   5.872   4.081   4.513
 2751TIP3    H2 8260   5.757   4.119   4.603
 2752TIP3   OH2 8261   2.397   3.777   2.815
 2752TIP3    H1 8262   2.385   3.808   2.725
 2752TIP3    H2 8263   2.311   3.789   2.855
 2753TIP3   OH2 8264   1.297   2.033   3.581
 2753TIP3    H1 8265   1.238   2.093   3.627
 2753TIP3    H2 8266   1.382   2.048   3.621
 2754TIP3   OH2 8267   4.714   2.536   2.907
 2754TIP3    H1 8268   4.735   2.588   2.985
 2754TIP3    H2 8269   4.691   2.601   2.841
 2755TIP3   OH2 8270   1.690   0.083   4.444
 2755TIP3    H1 8271   1.715   0.092   4.535
 2755TIP3    H2 8272   1.631   0.007   4.443
 2756TIP3   OH2 8273   4.204   4.595   4.324
 2756TIP3    H1 8274   4.121   4.559   4.356
 2756TIP3    H2 8275   4.219   4.672   4.378
 2757TIP3   OH2 8276   0.222  -0.004   2.020
 2757TIP3    H1 8277   0.275   0.076   2.010
 2757TIP3    H2 8278   0.250  -0.041   2.103
 2758TIP3   OH2 8279   5.203   1.897   0.412
 2758TIP3    H1 8280   5.230   1.810   0.381
 2758TIP3    H2 8281   5.278   1.953   0.392
 2759TIP3   OH2 8282   1.561   0.144   1.174
 2759TIP3    H1 8283   1.500   0.106   1.238
 2759TIP3    H2 8284   1.513   0.216   1.134
 2760TIP3   OH2 8285   5.474   0.531   3.575
 2760TIP3    H1 8286   5.543   0.596   3.561
 2760TIP3    H2 8287   5.411   0.576   3.633
 2761TIP3   OH2 8288   1.929   4.785   4.996
 2761TIP3    H1 8289   1.915   4.810   4.904
 2761TIP3    H2 8290   1.864   4.837   5.045
 2762TIP3   OH2 8291   0.808   2.352   1.720
 2762TIP3    H1 8292   0.792   2.396   1.637
 2762TIP3    H2 8293   0.828   2.422   1.782
 2763TIP3   OH2 8294   1.925   3.623   2.629
 2763TIP3    H1 8295   1.891   3.630   2.718
 2763TIP3    H2 8296   1.853   3.655   2.574
 2764TIP3   OH2 8297   4.318   1.527   2.528
 2764TIP3    H1 8298   4.290   1.437   2.545
 2764TIP3    H2 8299   4.239   1.572   2.498
 2765TIP3   OH2 8300   3.492   0.009   4.680
 2765TIP3    H1 8301   3.403   0.008   4.646
 2765TIP3    H2 8302   3.535   0.080   4.633
 2766TIP3   OH2 8303   5.526   5.689   1.736
 2766TIP3    H1 8304   5.501   5.662   1.824
 2766TIP3    H2 8305   5.570   5.612   1.699
 2767TIP3   OH2 8306   1.284   0.112   0.524
 2767TIP3    H1 8307   1.188   0.113   0.519
 2767TIP3    H2 8308   1.303   0.107   0.618
 2768TIP3   OH2 8309   2.886   2.249   2.091
 2768TIP3    H1 8310   2.940   2.327   2.079
 2768TIP3    H2 8311   2.814   2.260   2.029
 2769TIP3   OH2 8312   2.316   2.943   0.034
 2769TIP3    H1 8313   2.254   2.960  -0.038
 2769TIP3    H2 8314   2.381   2.883  -0.004
 2770TIP3   OH2 8315   0.421   5.898   2.498
 2770TIP3    H1 8316   0.385   5.822   2.452
 2770TIP3    H2 8317   0.426   5.967   2.431
 2771TIP3   OH2 8318   0.050   5.902   3.614
 2771TIP3    H1 8319   0.110   5.850   3.561
 2771TIP3    H2 8320   0.071   5.878   3.704
 2772TIP3   OH2 8321   1.480   0.192   3.016
 2772TIP3    H1 8322   1.509   0.158   2.932
 2772TIP3    H2 8323   1.470   0.286   3.002
 2773TIP3   OH2 8324   0.980   1.056   5.114
 2773TIP3    H1 8325   0.925   1.113   5.061
 2773TIP3    H2 8326   0.969   0.969   5.075
 2774TIP3   OH2 8327   4.639   5.287   2.578
 2774TIP3    H1 8328   4.706   5.226   2.609
 2774TIP3    H2 8329   4.564   5.270   2.634
 2775TIP3   OH2 8330   3.601   0.387   1.106
 2775TIP3    H1 8331   3.603   0.310   1.164
 2775TIP3    H2 8332   3.555   0.357   1.028
 2776TIP3   OH2 8333   2.999   5.294   3.458
 2776TIP3    H1 8334   3.041   5.366   3.504
 2776TIP3    H2 8335   2.905   5.308   3.472
 2777TIP3   OH2 8336   0.900   4.284   4.143
 2777TIP3    H1 8337   0.881   4.267   4.051
 2777TIP3    H2 8338   0.818   4.264   4.188
 2778TIP3   OH2 8339   5.987   2.772   2.598
 2778TIP3    H1 8340   5.939   2.778   2.515
 2778TIP3    H2 8341   6.045   2.848   2.597
 2779TIP3   OH2 8342   5.912   4.707   1.584
 2779TIP3    H1 8343   5.966   4.683   1.509
 2779TIP3    H2 8344   5.964   4.769   1.633
 2780TIP3   OH2 8345   6.208   4.675   4.201
 2780TIP3    H1 8346   6.199   4.619   4.279
 2780TIP3    H2 8347   6.254   4.752   4.232
 2781TIP3   OH2 8348  -0.007   0.779   3.801
 2781TIP3    H1 8349   0.057   0.790   3.731
 2781TIP3    H2 8350   0.031   0.710   3.857
 2782TIP3   OH2 8351   4.769   3.678   4.643
 2782TIP3    H1 8352   4.856   3.641   4.632
 2782TIP3    H2 8353   4.784   3.769   4.668
 2783TIP3   OH2 8354   1.360   1.073   3.637
 2783TIP3    H1 8355   1.322   1.043   3.719
 2783TIP3    H2 8356   1.386   0.992   3.592
 2784TIP3   OH2 8357   3.719   1.615   0.601
 2784TIP3    H1 8358   3.635   1.640   0.638
 2784TIP3    H2 8359   3.761   1.697   0.577
 2785TIP3   OH2 8360   3.002   4.401   0.444
 2785TIP3    H1 8361   3.009   4.411   0.349
 2785TIP3    H2 8362   3.074   4.453   0.479
 2786TIP3   OH2 8363   0.328   4.718   1.629
 2786TIP3    H1 8364   0.331   4.688   1.720
 2786TIP3    H2 8365   0.253   4.671   1.591
 2787TIP3   OH2 8366   3.302   1.781   3.786
 2787TIP3    H1 8367   3.254   1.715   3.736
 2787TIP3    H2 8368   3.375   1.806   3.728
 2788TIP3   OH2 8369   4.207   3.749   0.247
 2788TIP3    H1 8370   4.140   3.684   0.268
 2788TIP3    H2 8371   4.285   3.697   0.226
 2789TIP3   OH2 8372   4.204   4.232   1.017
 2789TIP3    H1 8373   4.180   4.185   1.097
 2789TIP3    H2 8374   4.188   4.324   1.037
 2790TIP3   OH2 8375   0.348   1.786   4.673
 2790TIP3    H1 8376   0.385   1.778   4.762
 2790TIP3    H2 8377   0.369   1.703   4.631
 2791TIP3   OH2 8378   5.162   0.735   3.433
 2791TIP3    H1 8379   5.126   0.704   3.516
 2791TIP3    H2 8380   5.147   0.830   3.434
 2792TIP3   OH2 8381   4.844   5.438   0.652
 2792TIP3    H1 8382   4.770   5.477   0.700
 2792TIP3    H2 8383   4.886   5.512   0.609
 2793TIP3   OH2 8384   6.097   0.507   2.509
 2793TIP3    H1 8385   6.169   0.500   2.572
 2793TIP3    H2 8386   6.071   0.416   2.494
 2794TIP3   OH2 8387   4.944   4.319   2.937
 2794TIP3    H1 8388   5.030   4.299   2.899
 2794TIP3    H2 8389   4.928   4.410   2.911
 2795TIP3   OH2 8390   2.731   3.173   5.122
 2795TIP3    H1 8391   2.819   3.184   5.087
 2795TIP3    H2 8392   2.742   3.171   5.217
 2796TIP3   OH2 8393   0.466   2.886   4.347
 2796TIP3    H1 8394   0.491   2.795   4.330
 2796TIP3    H2 8395   0.438   2.886   4.439
 2797TIP3   OH2 8396   0.689   1.439   4.149
 2797TIP3    H1 8397   0.663   1.426   4.240
 2797TIP3    H2 8398   0.661   1.360   4.104
 2798TIP3   OH2 8399   6.029   2.597   2.214
 2798TIP3    H1 8400   6.105   2.596   2.156
 2798TIP3    H2 8401   6.051   2.538   2.285
 2799TIP3   OH2 8402   1.716   5.077   3.966
 2799TIP3    H1 8403   1.712   5.034   3.881
 2799TIP3    H2 8404   1.638   5.133   3.968
 2800TIP3   OH2 8405   6.133   5.133   4.385
 2800TIP3    H1 8406   6.061   5.169   4.437
 2800TIP3    H2 8407   6.127   5.178   4.301
 2801TIP3   OH2 8408   0.998   4.904   1.369
 2801TIP3    H1 8409   0.962   4.836   1.312
 2801TIP3    H2 8410   0.981   4.873   1.458
 2802TIP3   OH2 8411   5.874   0.133   2.233
 2802TIP3    H1 8412   5.798   0.189   2.221
 2802TIP3    H2 8413   5.887   0.090   2.148
 2803TIP3   OH2 8414   2.053   4.853   1.118
 2803TIP3    H1 8415   2.030   4.764   1.090
 2803TIP3    H2 8416   1.979   4.906   1.089
 2804TIP3   OH2 8417   1.659   0.704   0.195
 2804TIP3    H1 8418   1.612   0.623   0.177
 2804TIP3    H2 8419   1.694   0.692   0.284
 2805TIP3   OH2 8420   0.114   3.331   4.614
 2805TIP3    H1 8421   0.103   3.269   4.541
 2805TIP3    H2 8422   0.031   3.326   4.661
 2806TIP3   OH2 8423   1.204   0.714   1.046
 2806TIP3    H1 8424   1.269   0.680   1.107
 2806TIP3    H2 8425   1.183   0.801   1.080
 2807TIP3   OH2 8426   3.384   5.638   5.084
 2807TIP3    H1 8427   3.312   5.577   5.070
 2807TIP3    H2 8428   3.453   5.586   5.126
 2808TIP3   OH2 8429   3.846   3.469   1.593
 2808TIP3    H1 8430   3.762   3.473   1.640
 2808TIP3    H2 8431   3.883   3.557   1.602
 2809TIP3   OH2 8432   3.614   1.773   3.744
 2809TIP3    H1 8433   3.616   1.679   3.760
 2809TIP3    H2 8434   3.663   1.811   3.817
 2810TIP3   OH2 8435   2.409   4.619   5.079
 2810TIP3    H1 8436   2.387   4.528   5.058
 2810TIP3    H2 8437   2.395   4.625   5.174
 2811TIP3   OH2 8438   2.430   5.103   1.354
 2811TIP3    H1 8439   2.366   5.146   1.411
 2811TIP3    H2 8440   2.382   5.033   1.311
 2812TIP3   OH2 8441   0.768   4.880   2.666
 2812TIP3    H1 8442   0.762   4.785   2.659
 2812TIP3    H2 8443   0.808   4.907   2.583
 2813TIP3   OH2 8444   5.015   1.766   3.002
 2813TIP3    H1 8445   4.928   1.798   3.027
 2813TIP3    H2 8446   5.075   1.809   3.062
 2814TIP3   OH2 8447   1.099   4.855   1.769
 2814TIP3    H1 8448   1.084   4.943   1.734
 2814TIP3    H2 8449   1.063   4.796   1.703
 2815TIP3   OH2 8450   1.819   0.993   2.274
 2815TIP3    H1 8451   1.907   0.978   2.240
 2815TIP3    H2 8452   1.824   0.970   2.366
 2816TIP3   OH2 8453   0.497   0.859   0.551
 2816TIP3    H1 8454   0.504   0.953   0.538
 2816TIP3    H2 8455   0.576   0.823   0.511
 2817TIP3   OH2 8456   4.032   1.952   1.600
 2817TIP3    H1 8457   4.098   2.018   1.578
 2817TIP3    H2 8458   3.962   2.001   1.641
 2818TIP3   OH2 8459   3.409   3.152   3.127
 2818TIP3    H1 8460   3.332   3.112   3.088
 2818TIP3    H2 8461   3.450   3.081   3.177
 2819TIP3   OH2 8462   4.332   1.325   4.240
 2819TIP3    H1 8463   4.247   1.366   4.225
 2819TIP3    H2 8464   4.312   1.231   4.246
 2820TIP3   OH2 8465   1.294   4.581   3.206
 2820TIP3    H1 8466   1.318   4.517   3.272
 2820TIP3    H2 8467   1.368   4.642   3.204
 2821TIP3   OH2 8468   6.229   0.338   3.994
 2821TIP3    H1 8469   6.212   0.380   3.910
 2821TIP3    H2 8470   6.304   0.281   3.978
 2822TIP3   OH2 8471   0.994   2.601   3.038
 2822TIP3    H1 8472   1.056   2.538   3.001
 2822TIP3    H2 8473   0.954   2.555   3.112
 2823TIP3   OH2 8474   5.613   5.196   2.256
 2823TIP3    H1 8475   5.539   5.194   2.317
 2823TIP3    H2 8476   5.612   5.110   2.214
 2824TIP3   OH2 8477   3.301   0.782   2.482
 2824TIP3    H1 8478   3.324   0.818   2.397
 2824TIP3    H2 8479   3.357   0.828   2.544
 2825TIP3   OH2 8480   1.902   3.525   2.134
 2825TIP3    H1 8481   1.880   3.453   2.193
 2825TIP3    H2 8482   1.959   3.486   2.068
 2826TIP3   OH2 8483   3.318   2.323   1.089
 2826TIP3    H1 8484   3.242   2.312   1.031
 2826TIP3    H2 8485   3.333   2.418   1.090
 2827TIP3   OH2 8486   1.635   1.631   4.402
 2827TIP3    H1 8487   1.659   1.568   4.470
 2827TIP3    H2 8488   1.586   1.699   4.447
 2828TIP3   OH2 8489   0.299   3.020   3.727
 2828TIP3    H1 8490   0.353   3.040   3.804
 2828TIP3    H2 8491   0.354   3.042   3.652
 2829TIP3   OH2 8492   5.450   2.494   3.498
 2829TIP3    H1 8493   5.356   2.489   3.477
 2829TIP3    H2 8494   5.479   2.403   3.501
 2830TIP3   OH2 8495   1.997   1.280   4.977
 2830TIP3    H1 8496   1.983   1.259   5.069
 2830TIP3    H2 8497   2.088   1.311   4.973
 2831TIP3   OH2 8498   5.566   4.153   4.578
 2831TIP3    H1 8499   5.564   4.190   4.666
 2831TIP3    H2 8500   5.524   4.067   4.587
 2832TIP3   OH2 8501   5.274   2.549   0.269
 2832TIP3    H1 8502   5.216   2.501   0.210
 2832TIP3    H2 8503   5.215   2.588   0.334
 2833TIP3   OH2 8504   0.748   3.142   3.754
 2833TIP3    H1 8505   0.813   3.084   3.793
 2833TIP3    H2 8506   0.755   3.223   3.806
 2834TIP3   OH2 8507   0.667   0.461   2.967
 2834TIP3    H1 8508   0.575   0.489   2.976
 2834TIP3    H2 8509   0.714   0.513   3.032
 2835TIP3   OH2 8510   0.358   3.755   1.836
 2835TIP3    H1 8511   0.372   3.845   1.806
 2835TIP3    H2 8512   0.429   3.705   1.796
 2836TIP3   OH2 8513   0.056   5.412   1.417
 2836TIP3    H1 8514   0.143   5.448   1.408
 2836TIP3    H2 8515   0.070   5.317   1.425
 2837TIP3   OH2 8516   1.220   3.419   1.939
 2837TIP3    H1 8517   1.147   3.408   1.878
 2837TIP3    H2 8518   1.270   3.337   1.932
 2838TIP3   OH2 8519   3.380   2.882   1.415
 2838TIP3    H1 8520   3.433   2.922   1.346
 2838TIP3    H2 8521   3.444   2.841   1.474
 2839TIP3   OH2 8522   2.742   1.477   0.221
 2839TIP3    H1 8523   2.660   1.497   0.175
 2839TIP3    H2 8524   2.809   1.482   0.153
 2840TIP3   OH2 8525   2.896   1.754   4.694
 2840TIP3    H1 8526   2.856   1.681   4.741
 2840TIP3    H2 8527   2.851   1.755   4.609
 2841TIP3   OH2 8528   5.916   3.208   2.546
 2841TIP3    H1 8529   5.837   3.160   2.521
 2841TIP3    H2 8530   5.955   3.234   2.462
 2842TIP3   OH2 8531   2.109   0.346   1.158
 2842TIP3    H1 8532   2.202   0.364   1.173
 2842TIP3    H2 8533   2.088   0.276   1.220
 2843TIP3   OH2 8534   0.568   2.453   4.712
 2843TIP3    H1 8535   0.511   2.453   4.790
 2843TIP3    H2 8536   0.638   2.515   4.733
 2844TIP3   OH2 8537   2.280   4.365   5.020
 2844TIP3    H1 8538   2.280   4.315   5.102
 2844TIP3    H2 8539   2.230   4.310   4.959
 2845TIP3   OH2 8540   2.721   5.369   3.438
 2845TIP3    H1 8541   2.672   5.383   3.519
 2845TIP3    H2 8542   2.673   5.420   3.372
 2846TIP3   OH2 8543   0.831   4.956   1.991
 2846TIP3    H1 8544   0.802   5.017   2.059
 2846TIP3    H2 8545   0.926   4.969   1.987
 2847TIP3   OH2 8546   3.308   2.613   1.182
 2847TIP3    H1 8547   3.251   2.654   1.247
 2847TIP3    H2 8548   3.317   2.679   1.113
 2848TIP3   OH2 8549   4.774   3.727   4.170
 2848TIP3    H1 8550   4.798   3.786   4.242
 2848TIP3    H2 8551   4.836   3.747   4.100
 2849TIP3   OH2 8552   2.539   1.709   1.396
 2849TIP3    H1 8553   2.503   1.646   1.458
 2849TIP3    H2 8554   2.523   1.669   1.310
 2850TIP3   OH2 8555   6.091   1.052   4.959
 2850TIP3    H1 8556   6.147   1.127   4.942
 2850TIP3    H2 8557   6.138   0.977   4.922
 2851TIP3   OH2 8558   5.514   4.290   1.511
 2851TIP3    H1 8559   5.463   4.234   1.452
 2851TIP3    H2 8560   5.456   4.365   1.529
 2852TIP3   OH2 8561   5.775   2.926   2.532
 2852TIP3    H1 8562   5.770   2.830   2.528
 2852TIP3    H2 8563   5.701   2.956   2.480
 2853TIP3   OH2 8564   2.325   3.494   3.077
 2853TIP3    H1 8565   2.256   3.557   3.056
 2853TIP3    H2 8566   2.280   3.410   3.081
 2854TIP3   OH2 8567   2.482   1.955   1.785
 2854TIP3    H1 8568   2.533   2.033   1.808
 2854TIP3    H2 8569   2.416   1.988   1.724
 2855TIP3   OH2 8570   0.079   0.444   1.155
 2855TIP3    H1 8571   0.163   0.400   1.142
 2855TIP3    H2 8572   0.096   0.535   1.131
 2856TIP3   OH2 8573   5.765   0.343   1.409
 2856TIP3    H1 8574   5.670   0.354   1.398
 2856TIP3    H2 8575   5.788   0.400   1.482
 2857TIP3   OH2 8576   0.025   5.329   0.218
 2857TIP3    H1 8577   0.054   5.252   0.169
 2857TIP3    H2 8578   0.020   5.300   0.309
 2858TIP3   OH2 8579   4.883   2.916   2.585
 2858TIP3    H1 8580   4.886   2.975   2.661
 2858TIP3    H2 8581   4.957   2.858   2.598
 2859TIP3   OH2 8582   0.857   0.926   0.977
 2859TIP3    H1 8583   0.912   0.890   0.907
 2859TIP3    H2 8584   0.805   0.993   0.934
 2860TIP3   OH2 8585   4.602   4.399   1.063
 2860TIP3    H1 8586   4.684   4.381   1.017
 2860TIP3    H2 8587   4.595   4.330   1.129
 2861TIP3   OH2 8588   5.112   2.168   3.436
 2861TIP3    H1 8589   5.088   2.108   3.365
 2861TIP3    H2 8590   5.195   2.135   3.468
 2862TIP3   OH2 8591   1.702   4.818   0.871
 2862TIP3    H1 8592   1.778   4.830   0.815
 2862TIP3    H2 8593   1.697   4.724   0.886
 2863TIP3   OH2 8594   5.682   3.232   2.293
 2863TIP3    H1 8595   5.694   3.156   2.236
 2863TIP3    H2 8596   5.679   3.307   2.233
 2864TIP3   OH2 8597   1.984   2.591   2.369
 2864TIP3    H1 8598   2.060   2.562   2.419
 2864TIP3    H2 8599   1.941   2.656   2.425
 2865TIP3   OH2 8600   4.936   5.269   4.179
 2865TIP3    H1 8601   5.019   5.246   4.221
 2865TIP3    H2 8602   4.910   5.190   4.131
 2866TIP3   OH2 8603   1.620   1.190   2.148
 2866TIP3    H1 8604   1.676   1.262   2.177
 2866TIP3    H2 8605   1.675   1.112   2.156
 2867TIP3   OH2 8606   6.356   3.991   0.530
 2867TIP3    H1 8607   6.329   3.915   0.581
 2867TIP3    H2 8608   6.278   4.014   0.478
 2868TIP3   OH2 8609   0.634   5.044   3.616
 2868TIP3    H1 8610   0.548   5.087   3.616
 2868TIP3    H2 8611   0.650   5.023   3.524
 2869TIP3   OH2 8612   2.323   0.384   0.170
 2869TIP3    H1 8613   2.297   0.403   0.079
 2869TIP3    H2 8614   2.300   0.292   0.183
 2870TIP3   OH2 8615   0.460   3.063   1.490
 2870TIP3    H1 8616   0.372   3.046   1.459
 2870TIP3    H2 8617   0.511   2.987   1.462
 2871TIP3   OH2 8618   5.841   1.625   3.842
 2871TIP3    H1 8619   5.899   1.558   3.806
 2871TIP3    H2 8620   5.821   1.682   3.768
 2872TIP3   OH2 8621   1.011   4.740   4.366
 2872TIP3    H1 8622   0.925   4.773   4.338
 2872TIP3    H2 8623   0.991   4.679   4.437
 2873TIP3   OH2 8624   3.298   5.170   0.888
 2873TIP3    H1 8625   3.328   5.228   0.958
 2873TIP3    H2 8626   3.216   5.132   0.921
 2874TIP3   OH2 8627   2.161   2.476   4.653
 2874TIP3    H1 8628   2.212   2.461   4.732
 2874TIP3    H2 8629   2.226   2.482   4.583
 2875TIP3   OH2 8630   5.336   3.176   1.997
 2875TIP3    H1 8631   5.290   3.168   1.913
 2875TIP3    H2 8632   5.418   3.219   1.976
 2876TIP3   OH2 8633   3.657   0.319   3.099
 2876TIP3    H1 8634   3.652   0.409   3.067
 2876TIP3    H2 8635   3.749   0.295   3.090
 2877TIP3   OH2 8636   3.224   5.212   3.296
 2877TIP3    H1 8637   3.160   5.227   3.365
 2877TIP3    H2 8638   3.291   5.156   3.336
 2878TIP3   OH2 8639   6.055   5.019   5.036
 2878TIP3    H1 8640   6.036   4.925   5.040
 2878TIP3    H2 8641   6.071   5.044   5.127
 2879TIP3   OH2 8642   0.884   1.152   3.853
 2879TIP3    H1 8643   0.955   1.153   3.788
 2879TIP3    H2 8644   0.925   1.186   3.933
 2880TIP3   OH2 8645   4.849   4.378   2.462
 2880TIP3    H1 8646   4.879   4.415   2.379
 2880TIP3    H2 8647   4.922   4.323   2.491
 2881TIP3   OH2 8648   4.446   3.789   2.692
 2881TIP3    H1 8649   4.444   3.700   2.727
 2881TIP3    H2 8650   4.534   3.821   2.714
 2882TIP3   OH2 8651   0.860   5.839   4.352
 2882TIP3    H1 8652   0.881   5.902   4.283
 2882TIP3    H2 8653   0.777   5.800   4.324
 2883TIP3   OH2 8654   1.089   3.020   1.866
 2883TIP3    H1 8655   1.017   3.067   1.908
 2883TIP3    H2 8656   1.113   2.952   1.929
 2884TIP3   OH2 8657   5.453   3.963   1.056
 2884TIP3    H1 8658   5.383   3.914   1.014
 2884TIP3    H2 8659   5.504   3.999   0.983
 2885TIP3   OH2 8660   1.862   3.369   3.216
 2885TIP3    H1 8661   1.948   3.387   3.253
 2885TIP3    H2 8662   1.822   3.305   3.275
 2886TIP3   OH2 8663   1.582   0.707   2.627
 2886TIP3    H1 8664   1.548   0.697   2.716
 2886TIP3    H2 8665   1.647   0.777   2.635
 2887TIP3   OH2 8666   4.391   1.945   0.988
 2887TIP3    H1 8667   4.436   2.011   0.935
 2887TIP3    H2 8668   4.441   1.865   0.974
 2888TIP3   OH2 8669   0.611   2.196   3.115
 2888TIP3    H1 8670   0.623   2.168   3.205
 2888TIP3    H2 8671   0.516   2.197   3.101
 2889TIP3   OH2 8672   0.166   2.140   1.756
 2889TIP3    H1 8673   0.168   2.180   1.669
 2889TIP3    H2 8674   0.079   2.162   1.790
 2890TIP3   OH2 8675   4.248   3.862   2.094
 2890TIP3    H1 8676   4.201   3.893   2.017
 2890TIP3    H2 8677   4.328   3.915   2.098
 2891TIP3   OH2 8678   5.102   1.422   1.463
 2891TIP3    H1 8679   5.046   1.355   1.424
 2891TIP3    H2 8680   5.174   1.374   1.503
 2892TIP3   OH2 8681   1.811   4.990   2.438
 2892TIP3    H1 8682   1.754   5.059   2.406
 2892TIP3    H2 8683   1.867   5.033   2.502
 2893TIP3   OH2 8684   3.464   0.862   0.068
 2893TIP3    H1 8685   3.453   0.954   0.090
 2893TIP3    H2 8686   3.385   0.820   0.103
 2894TIP3   OH2 8687   2.995   5.158   2.651
 2894TIP3    H1 8688   2.992   5.097   2.725
 2894TIP3    H2 8689   3.077   5.206   2.662
 2895TIP3   OH2 8690   2.426   1.272   4.926
 2895TIP3    H1 8691   2.357   1.337   4.911
 2895TIP3    H2 8692   2.380   1.194   4.956
 2896TIP3   OH2 8693   3.756   3.521   1.312
 2896TIP3    H1 8694   3.742   3.579   1.387
 2896TIP3    H2 8695   3.851   3.507   1.310
 2897TIP3   OH2 8696   0.044   4.638   2.694
 2897TIP3    H1 8697   0.136   4.653   2.715
 2897TIP3    H2 8698   0.036   4.542   2.689
 2898TIP3   OH2 8699   3.107   5.168   3.927
 2898TIP3    H1 8700   3.094   5.205   4.014
 2898TIP3    H2 8701   3.150   5.084   3.942
 2899TIP3   OH2 8702   5.943   0.103   0.024
 2899TIP3    H1 8703   5.880   0.057  -0.032
 2899TIP3    H2 8704   5.921   0.195   0.014
 2900TIP3   OH2 8705   4.602   2.570   1.051
 2900TIP3    H1 8706   4.595   2.513   0.974
 2900TIP3    H2 8707   4.527   2.629   1.043
 2901TIP3   OH2 8708   2.418   1.319   0.678
 2901TIP3    H1 8709   2.514   1.320   0.687
 2901TIP3    H2 8710   2.400   1.385   0.611
 2902TIP3   OH2 8711   2.162   1.697   4.531
 2902TIP3    H1 8712   2.105   1.687   4.455
 2902TIP3    H2 8713   2.101   1.706   4.605
 2903TIP3   OH2 8714   4.490   2.512   1.847
 2903TIP3    H1 8715   4.490   2.504   1.751
 2903TIP3    H2 8716   4.562   2.456   1.876
 2904TIP3   OH2 8717   1.509   3.869   0.788
 2904TIP3    H1 8718   1.594   3.846   0.827
 2904TIP3    H2 8719   1.511   3.830   0.701
 2905TIP3   OH2 8720   4.078   1.022   2.970
 2905TIP3    H1 8721   4.041   1.024   3.058
 2905TIP3    H2 8722   4.171   1.045   2.983
 2906TIP3   OH2 8723   1.725   4.325   0.085
 2906TIP3    H1 8724   1.698   4.233   0.090
 2906TIP3    H2 8725   1.647   4.374   0.106
 2907TIP3   OH2 8726   0.606   2.498   0.540
 2907TIP3    H1 8727   0.531   2.556   0.536
 2907TIP3    H2 8728   0.672   2.539   0.485
 2908TIP3   OH2 8729   1.710   3.631   2.910
 2908TIP3    H1 8730   1.695   3.648   3.003
 2908TIP3    H2 8731   1.641   3.681   2.866
 2909TIP3   OH2 8732   4.018   1.011   1.119
 2909TIP3    H1 8733   3.929   1.004   1.154
 2909TIP3    H2 8734   4.057   1.084   1.168
 2910TIP3   OH2 8735   2.090   3.154   3.128
 2910TIP3    H1 8736   2.142   3.184   3.203
 2910TIP3    H2 8737   2.148   3.092   3.082
 2911TIP3   OH2 8738   3.062   1.514   1.218
 2911TIP3    H1 8739   3.157   1.521   1.215
 2911TIP3    H2 8740   3.030   1.602   1.199
 2912TIP3   OH2 8741   1.671   0.339   3.309
 2912TIP3    H1 8742   1.714   0.260   3.342
 2912TIP3    H2 8743   1.702   0.347   3.218
 2913TIP3   OH2 8744   1.045   5.509   2.560
 2913TIP3    H1 8745   0.954   5.508   2.591
 2913TIP3    H2 8746   1.086   5.580   2.610
 2914TIP3   OH2 8747   1.665   3.225   2.362
 2914TIP3    H1 8748   1.662   3.208   2.268
 2914TIP3    H2 8749   1.749   3.268   2.376
 2915TIP3   OH2 8750   4.263   4.413   4.012
 2915TIP3    H1 8751   4.308   4.342   3.966
 2915TIP3    H2 8752   4.180   4.424   3.965
 2916TIP3   OH2 8753   6.209   0.514   4.426
 2916TIP3    H1 8754   6.206   0.504   4.521
 2916TIP3    H2 8755   6.222   0.425   4.393
 2917TIP3   OH2 8756   0.095   0.272   1.546
 2917TIP3    H1 8757   0.190   0.282   1.558
 2917TIP3    H2 8758   0.086   0.200   1.485
 2918TIP3   OH2 8759   3.600   5.898   1.790
 2918TIP3    H1 8760   3.683   5.935   1.760
 2918TIP3    H2 8761   3.533   5.944   1.740
 2919TIP3   OH2 8762   5.110   5.681   4.933
 2919TIP3    H1 8763   5.183   5.687   4.871
 2919TIP3    H2 8764   5.078   5.771   4.940
 2920TIP3   OH2 8765   5.369   4.038   3.009
 2920TIP3    H1 8766   5.449   4.088   2.995
 2920TIP3    H2 8767   5.346   4.055   3.101
 2921TIP3   OH2 8768   1.791   5.869   4.844
 2921TIP3    H1 8769   1.820   5.788   4.802
 2921TIP3    H2 8770   1.750   5.919   4.774
 2922TIP3   OH2 8771   4.957   1.596   1.303
 2922TIP3    H1 8772   4.980   1.689   1.301
 2922TIP3    H2 8773   5.025   1.556   1.358
 2923TIP3   OH2 8774   0.378   0.778   3.435
 2923TIP3    H1 8775   0.453   0.787   3.376
 2923TIP3    H2 8776   0.330   0.703   3.401
 2924TIP3   OH2 8777   6.312   5.849   1.817
 2924TIP3    H1 8778   6.327   5.795   1.739
 2924TIP3    H2 8779   6.216   5.854   1.824
 2925TIP3   OH2 8780   0.406   2.378   2.519
 2925TIP3    H1 8781   0.450   2.331   2.591
 2925TIP3    H2 8782   0.321   2.403   2.555
 2926TIP3   OH2 8783   5.280   5.247   1.150
 2926TIP3    H1 8784   5.313   5.219   1.236
 2926TIP3    H2 8785   5.358   5.279   1.104
 2927TIP3   OH2 8786   3.138   3.311   3.855
 2927TIP3    H1 8787   3.180   3.224   3.857
 2927TIP3    H2 8788   3.209   3.372   3.878
 2928TIP3   OH2 8789   3.637   3.919   4.608
 2928TIP3    H1 8790   3.583   3.853   4.565
 2928TIP3    H2 8791   3.574   3.984   4.639
 2929TIP3   OH2 8792   4.971   3.277   2.798
 2929TIP3    H1 8793   4.978   3.287   2.893
 2929TIP3    H2 8794   4.986   3.184   2.783
 2930TIP3   OH2 8795   3.032   2.291   2.459
 2930TIP3    H1 8796   3.045   2.205   2.417
 2930TIP3    H2 8797   2.940   2.293   2.483
 2931TIP3   OH2 8798   4.005   5.631   4.779
 2931TIP3    H1 8799   4.065   5.687   4.730
 2931TIP3    H2 8800   3.984   5.682   4.857
 2932TIP3   OH2 8801   0.919   2.349   3.845
 2932TIP3    H1 8802   0.968   2.377   3.922
 2932TIP3    H2 8803   0.872   2.271   3.873
 2933TIP3   OH2 8804   1.674   0.903   4.201
 2933TIP3    H1 8805   1.590   0.857   4.197
 2933TIP3    H2 8806   1.652   0.992   4.227
 2934TIP3   OH2 8807   2.449   3.177   0.327
 2934TIP3    H1 8808   2.403   3.189   0.244
 2934TIP3    H2 8809   2.386   3.132   0.383
 2935TIP3   OH2 8810   1.821   2.067   3.697
 2935TIP3    H1 8811   1.894   2.054   3.638
 2935TIP3    H2 8812   1.858   2.115   3.771
 2936TIP3   OH2 8813   3.937   0.249   2.997
 2936TIP3    H1 8814   3.971   0.334   2.968
 2936TIP3    H2 8815   4.008   0.211   3.048
 2937TIP3   OH2 8816   2.966   4.835   3.799
 2937TIP3    H1 8817   2.985   4.924   3.768
 2937TIP3    H2 8818   3.044   4.784   3.776
 2938TIP3   OH2 8819   2.195   5.504   5.124
 2938TIP3    H1 8820   2.143   5.442   5.175
 2938TIP3    H2 8821   2.187   5.587   5.172
 2939TIP3   OH2 8822   0.749   0.404   4.038
 2939TIP3    H1 8823   0.786   0.439   3.957
 2939TIP3    H2 8824   0.712   0.320   4.013
 2940TIP3   OH2 8825   4.427   5.124   4.625
 2940TIP3    H1 8826   4.397   5.064   4.556
 2940TIP3    H2 8827   4.347   5.147   4.672
 2941TIP3   OH2 8828   3.407   5.692   4.195
 2941TIP3    H1 8829   3.323   5.649   4.181
 2941TIP3    H2 8830   3.460   5.667   4.119
 2942TIP3   OH2 8831   1.211   2.173   4.437
 2942TIP3    H1 8832   1.147   2.154   4.368
 2942TIP3    H2 8833   1.281   2.109   4.423
 2943TIP3   OH2 8834   1.569   4.559   0.874
 2943TIP3    H1 8835   1.593   4.501   0.802
 2943TIP3    H2 8836   1.475   4.545   0.886
 2944TIP3   OH2 8837   4.055   1.254   4.439
 2944TIP3    H1 8838   4.130   1.201   4.410
 2944TIP3    H2 8839   3.980   1.217   4.392
 2945TIP3   OH2 8840   4.437   5.320   2.735
 2945TIP3    H1 8841   4.349   5.313   2.697
 2945TIP3    H2 8842   4.444   5.411   2.764
 2946TIP3   OH2 8843   3.072   4.721   4.381
 2946TIP3    H1 8844   3.128   4.643   4.382
 2946TIP3    H2 8845   3.121   4.785   4.433
 2947TIP3   OH2 8846   1.945   5.901   1.915
 2947TIP3    H1 8847   2.005   5.921   1.987
 2947TIP3    H2 8848   1.876   5.849   1.956
 2948TIP3   OH2 8849   1.323   4.161   0.599
 2948TIP3    H1 8850   1.250   4.130   0.653
 2948TIP3    H2 8851   1.290   4.242   0.559
 2949TIP3   OH2 8852   4.870   0.791   0.626
 2949TIP3    H1 8853   4.923   0.859   0.667
 2949TIP3    H2 8854   4.781   0.825   0.628
 2950TIP3   OH2 8855   4.407   1.668   3.057
 2950TIP3    H1 8856   4.440   1.614   2.984
 2950TIP3    H2 8857   4.361   1.740   3.014
 2951TIP3   OH2 8858   2.967   3.400   1.163
 2951TIP3    H1 8859   2.916   3.337   1.213
 2951TIP3    H2 8860   3.058   3.378   1.183
 2952TIP3   OH2 8861   6.321   4.495   0.688
 2952TIP3    H1 8862   6.360   4.464   0.607
 2952TIP3    H2 8863   6.353   4.585   0.697
 2953TIP3   OH2 8864   4.339   1.015   5.135
 2953TIP3    H1 8865   4.275   0.987   5.201
 2953TIP3    H2 8866   4.289   1.066   5.072
 2954TIP3   OH2 8867   2.946   0.621   4.954
 2954TIP3    H1 8868   2.911   0.697   4.907
 2954TIP3    H2 8869   3.038   0.618   4.930
 2955TIP3   OH2 8870   2.566   2.029   2.125
 2955TIP3    H1 8871   2.553   2.099   2.061
 2955TIP3    H2 8872   2.616   2.070   2.196
 2956TIP3   OH2 8873   1.381   4.192   3.069
 2956TIP3    H1 8874   1.469   4.163   3.092
 2956TIP3    H2 8875   1.322   4.132   3.114
 2957TIP3   OH2 8876   4.179   4.490   2.262
 2957TIP3    H1 8877   4.181   4.551   2.336
 2957TIP3    H2 8878   4.093   4.502   2.223
 2958TIP3   OH2 8879   1.024   1.716   4.887
 2958TIP3    H1 8880   1.031   1.652   4.958
 2958TIP3    H2 8881   1.025   1.801   4.931
 2959TIP3   OH2 8882   0.457   2.659   3.705
 2959TIP3    H1 8883   0.415   2.705   3.777
 2959TIP3    H2 8884   0.413   2.574   3.702
 2960TIP3   OH2 8885   1.286   0.226   1.125
 2960TIP3    H1 8886   1.228   0.246   1.198
 2960TIP3    H2 8887   1.238   0.162   1.073
 2961TIP3   OH2 8888   0.412   4.226   3.017
 2961TIP3    H1 8889   0.325   4.207   2.980
 2961TIP3    H2 8890   0.462   4.146   3.003
 2962TIP3   OH2 8891   1.507   0.438   1.384
 2962TIP3    H1 8892   1.429   0.471   1.429
 2962TIP3    H2 8893   1.490   0.455   1.291
 2963TIP3   OH2 8894   5.188   3.811   0.031
 2963TIP3    H1 8895   5.207   3.770   0.116
 2963TIP3    H2 8896   5.106   3.772   0.003
 2964TIP3   OH2 8897   3.858   4.476   3.152
 2964TIP3    H1 8898   3.915   4.511   3.221
 2964TIP3    H2 8899   3.917   4.459   3.079
 2965TIP3   OH2 8900   0.890   2.742   2.304
 2965TIP3    H1 8901   0.902   2.755   2.398
 2965TIP3    H2 8902   0.932   2.658   2.286
 2966TIP3   OH2 8903   4.083   0.245   1.324
 2966TIP3    H1 8904   4.048   0.178   1.266
 2966TIP3    H2 8905   4.007   0.275   1.375
 2967TIP3   OH2 8906   2.260   4.039   0.683
 2967TIP3    H1 8907   2.321   4.011   0.751
 2967TIP3    H2 8908   2.314   4.085   0.619
 2968TIP3   OH2 8909   5.032   5.262   3.048
 2968TIP3    H1 8910   5.118   5.300   3.063
 2968TIP3    H2 8911   4.987   5.325   2.991
 2969TIP3   OH2 8912   2.725   1.017   2.833
 2969TIP3    H1 8913   2.666   0.995   2.761
 2969TIP3    H2 8914   2.711   1.110   2.849
 2970TIP3   OH2 8915   2.024   5.762   3.474
 2970TIP3    H1 8916   2.061   5.811   3.401
 2970TIP3    H2 8917   2.100   5.731   3.523
 2971TIP3   OH2 8918   0.053   0.558   0.848
 2971TIP3    H1 8919   0.051   0.626   0.916
 2971TIP3    H2 8920   0.146   0.541   0.834
 2972TIP3   OH2 8921   4.006   0.118   2.367
 2972TIP3    H1 8922   4.022   0.057   2.439
 2972TIP3    H2 8923   3.923   0.089   2.328
 2973TIP3   OH2 8924   5.485   1.565   1.015
 2973TIP3    H1 8925   5.568   1.582   1.060
 2973TIP3    H2 8926   5.509   1.518   0.936
 2974TIP3   OH2 8927   2.433   0.454   1.777
 2974TIP3    H1 8928   2.442   0.528   1.837
 2974TIP3    H2 8929   2.351   0.469   1.731
 2975TIP3   OH2 8930   2.837   0.196   3.118
 2975TIP3    H1 8931   2.746   0.215   3.097
 2975TIP3    H2 8932   2.869   0.275   3.162
 2976TIP3   OH2 8933   2.440   0.060   1.306
 2976TIP3    H1 8934   2.348   0.084   1.313
 2976TIP3    H2 8935   2.488   0.137   1.335
 2977TIP3   OH2 8936   1.309   5.168   0.543
 2977TIP3    H1 8937   1.239   5.196   0.602
 2977TIP3    H2 8938   1.295   5.074   0.532
 2978TIP3   OH2 8939   2.255   5.458   0.677
 2978TIP3    H1 8940   2.255   5.365   0.703
 2978TIP3    H2 8941   2.226   5.458   0.586
 2979TIP3   OH2 8942   4.778   1.057   2.187
 2979TIP3    H1 8943   4.843   1.049   2.117
 2979TIP3    H2 8944   4.829   1.057   2.268
 2980TIP3   OH2 8945   2.451   0.339   5.136
 2980TIP3    H1 8946   2.431   0.432   5.134
 2980TIP3    H2 8947   2.369   0.296   5.108
 2981TIP3   OH2 8948   3.262   2.956   4.888
 2981TIP3    H1 8949   3.357   2.962   4.892
 2981TIP3    H2 8950   3.242   2.869   4.921
 2982TIP3   OH2 8951   5.569   4.743   5.165
 2982TIP3    H1 8952   5.490   4.774   5.122
 2982TIP3    H2 8953   5.601   4.672   5.109
 2983TIP3   OH2 8954   4.820   4.028   0.535
 2983TIP3    H1 8955   4.859   4.049   0.620
 2983TIP3    H2 8956   4.855   4.093   0.475
 2984TIP3   OH2 8957   5.001   2.179   1.030
 2984TIP3    H1 8958   4.947   2.155   0.955
 2984TIP3    H2 8959   5.050   2.099   1.050
 2985TIP3   OH2 8960   4.194   5.170   3.144
 2985TIP3    H1 8961   4.150   5.162   3.059
 2985TIP3    H2 8962   4.122   5.180   3.207
 2986TIP3   OH2 8963   1.249   1.618   0.820
 2986TIP3    H1 8964   1.234   1.584   0.733
 2986TIP3    H2 8965   1.332   1.665   0.814
 2987TIP3   OH2 8966   3.139   4.131   4.018
 2987TIP3    H1 8967   3.178   4.184   3.948
 2987TIP3    H2 8968   3.147   4.185   4.096
 2988TIP3   OH2 8969   2.173   3.022   2.800
 2988TIP3    H1 8970   2.097   3.078   2.811
 2988TIP3    H2 8971   2.247   3.077   2.826
 2989TIP3   OH2 8972   1.264   1.605   2.907
 2989TIP3    H1 8973   1.213   1.666   2.855
 2989TIP3    H2 8974   1.238   1.623   2.997
 2990TIP3   OH2 8975   4.996   0.408   4.489
 2990TIP3    H1 8976   4.948   0.465   4.549
 2990TIP3    H2 8977   5.085   0.407   4.523
 2991TIP3   OH2 8978   0.195   2.209   0.294
 2991TIP3    H1 8979   0.256   2.176   0.229
 2991TIP3    H2 8980   0.165   2.131   0.341
 2992TIP3   OH2 8981   0.626   2.532   2.880
 2992TIP3    H1 8982   0.622   2.436   2.879
 2992TIP3    H2 8983   0.669   2.556   2.798
 2993TIP3   OH2 8984   2.731   1.313   3.556
 2993TIP3    H1 8985   2.746   1.391   3.503
 2993TIP3    H2 8986   2.793   1.321   3.629
 2994TIP3   OH2 8987   0.688   2.291   4.534
 2994TIP3    H1 8988   0.650   2.342   4.606
 2994TIP3    H2 8989   0.634   2.314   4.458
 2995TIP3   OH2 8990   4.902   5.774   3.383
 2995TIP3    H1 8991   4.869   5.694   3.343
 2995TIP3    H2 8992   4.877   5.768   3.475
 2996TIP3   OH2 8993   3.166   1.779   4.808
 2996TIP3    H1 8994   3.118   1.769   4.726
 2996TIP3    H2 8995   3.098   1.778   4.876
 2997TIP3   OH2 8996   1.852   1.198   2.869
 2997TIP3    H1 8997   1.931   1.218   2.819
 2997TIP3    H2 8998   1.781   1.214   2.808
 2998TIP3   OH2 8999   0.969   5.204   1.663
 2998TIP3    H1 9000   0.956   5.211   1.568
 2998TIP3    H2 9001   1.063   5.215   1.675
 2999TIP3   OH2 9002   1.323   3.658   4.608
 2999TIP3    H1 9003   1.251   3.688   4.663
 2999TIP3    H2 9004   1.351   3.736   4.560
 3000TIP3   OH2 9005   6.116   3.172   2.073
 3000TIP3    H1 9006   6.176   3.108   2.035
 3000TIP3    H2 9007   6.162   3.256   2.064
 3001TIP3   OH2 9008   0.166   4.259   0.791
 3001TIP3    H1 9009   0.110   4.185   0.810
 3001TIP3    H2 9010   0.113   4.317   0.737
 3002TIP3   OH2 9011   1.192   4.146   3.478
 3002TIP3    H1 9012   1.205   4.073   3.418
 3002TIP3    H2 9013   1.128   4.113   3.542
 3003TIP3   OH2 9014   4.885   4.309   4.299
 3003TIP3    H1 9015   4.925   4.259   4.371
 3003TIP3    H2 9016   4.958   4.355   4.259
 3004TIP3   OH2 9017   5.914   2.007   0.650
 3004TIP3    H1 9018   5.924   1.939   0.717
 3004TIP3    H2 9019   5.903   1.958   0.568
 3005TIP3   OH2 9020   1.270   4.647   1.606
 3005TIP3    H1 9021   1.311   4.699   1.537
 3005TIP3    H2 9022   1.334   4.648   1.677
 3006TIP3   OH2 9023   3.878   4.382   4.860
 3006TIP3    H1 9024   3.884   4.288   4.845
 3006TIP3    H2 9025   3.795   4.408   4.819
 3007TIP3   OH2 9026   3.490   1.149   3.230
 3007TIP3    H1 9027   3.438   1.174   3.154
 3007TIP3    H2 9028   3.451   1.066   3.259
 3008TIP3   OH2 9029   0.589   2.209   0.235
 3008TIP3    H1 9030   0.680   2.235   0.247
 3008TIP3    H2 9031   0.569   2.156   0.313
 3009TIP3   OH2 9032   3.297   0.924   5.054
 3009TIP3    H1 9033   3.217   0.899   5.099
 3009TIP3    H2 9034   3.363   0.863   5.085
 3010TIP3   OH2 9035   3.908   0.638   0.325
 3010TIP3    H1 9036   3.911   0.544   0.308
 3010TIP3    H2 9037   3.816   0.657   0.342
 3011TIP3   OH2 9038   6.193   2.874   4.003
 3011TIP3    H1 9039   6.212   2.865   4.096
 3011TIP3    H2 9040   6.279   2.876   3.961
 3012TIP3   OH2 9041   1.878   2.943   3.446
 3012TIP3    H1 9042   1.926   2.923   3.365
 3012TIP3    H2 9043   1.936   3.003   3.493
 3013TIP3   OH2 9044   2.890   0.027   2.905
 3013TIP3    H1 9045   2.871   0.087   2.977
 3013TIP3    H2 9046   2.851   0.069   2.828
 3014TIP3   OH2 9047   1.805   4.196   4.329
 3014TIP3    H1 9048   1.860   4.203   4.251
 3014TIP3    H2 9049   1.733   4.257   4.314
 3015TIP3   OH2 9050   3.348   0.402   3.067
 3015TIP3    H1 9051   3.311   0.419   3.154
 3015TIP3    H2 9052   3.439   0.378   3.084
 3016TIP3   OH2 9053   3.407   0.302   2.397
 3016TIP3    H1 9054   3.351   0.242   2.447
 3016TIP3    H2 9055   3.397   0.386   2.443
 3017TIP3   OH2 9056   2.396   0.163   4.284
 3017TIP3    H1 9057   2.337   0.185   4.211
 3017TIP3    H2 9058   2.372   0.223   4.354
 3018TIP3   OH2 9059   5.735   3.690   4.340
 3018TIP3    H1 9060   5.807   3.752   4.335
 3018TIP3    H2 9061   5.762   3.618   4.282
 3019TIP3   OH2 9062   5.131   5.555   1.656
 3019TIP3    H1 9063   5.127   5.518   1.567
 3019TIP3    H2 9064   5.115   5.649   1.643
 3020TIP3   OH2 9065   4.027   2.930   0.077
 3020TIP3    H1 9066   4.037   2.845   0.120
 3020TIP3    H2 9067   3.945   2.965   0.112
 3021TIP3   OH2 9068   2.511   3.614   5.041
 3021TIP3    H1 9069   2.594   3.638   5.082
 3021TIP3    H2 9070   2.487   3.690   4.989
 3022TIP3   OH2 9071   3.968   3.588   0.240
 3022TIP3    H1 9072   3.930   3.669   0.207
 3022TIP3    H2 9073   3.893   3.531   0.257
 3023TIP3   OH2 9074   3.260   2.516   0.711
 3023TIP3    H1 9075   3.235   2.526   0.620
 3023TIP3    H2 9076   3.323   2.587   0.726
 3024TIP3   OH2 9077   2.228   1.488   5.022
 3024TIP3    H1 9078   2.277   1.567   4.997
 3024TIP3    H2 9079   2.213   1.498   5.116
 3025TIP3   OH2 9080   3.236   4.852   0.283
 3025TIP3    H1 9081   3.329   4.863   0.264
 3025TIP3    H2 9082   3.233   4.793   0.357
 3026TIP3   OH2 9083   1.578   3.050   3.753
 3026TIP3    H1 9084   1.546   3.035   3.664
 3026TIP3    H2 9085   1.625   3.133   3.747
 3027TIP3   OH2 9086   1.806   2.143   2.189
 3027TIP3    H1 9087   1.758   2.199   2.250
 3027TIP3    H2 9088   1.741   2.119   2.123
 3028TIP3   OH2 9089   3.169   1.588   3.595
 3028TIP3    H1 9090   3.092   1.536   3.618
 3028TIP3    H2 9091   3.176   1.579   3.500
 3029TIP3   OH2 9092   5.930   0.213   3.604
 3029TIP3    H1 9093   5.928   0.282   3.670
 3029TIP3    H2 9094   5.869   0.147   3.637
 3030TIP3   OH2 9095   4.260   4.874   0.408
 3030TIP3    H1 9096   4.195   4.871   0.338
 3030TIP3    H2 9097   4.331   4.928   0.372
 3031TIP3   OH2 9098   2.373   2.550   3.105
 3031TIP3    H1 9099   2.280   2.565   3.091
 3031TIP3    H2 9100   2.387   2.573   3.197
 3032TIP3   OH2 9101   1.345   2.318   3.953
 3032TIP3    H1 9102   1.435   2.293   3.973
 3032TIP3    H2 9103   1.337   2.309   3.858
 3033TIP3   OH2 9104   3.619   2.446   3.588
 3033TIP3    H1 9105   3.547   2.480   3.534
 3033TIP3    H2 9106   3.676   2.401   3.526
 3034TIP3   OH2 9107   2.711   4.680   3.050
 3034TIP3    H1 9108   2.726   4.593   3.087
 3034TIP3    H2 9109   2.787   4.697   2.996
 3035TIP3   OH2 9110   2.103   3.681   2.258
 3035TIP3    H1 9111   2.142   3.641   2.335
 3035TIP3    H2 9112   2.067   3.607   2.208
 3036TIP3   OH2 9113   2.386   4.471   3.539
 3036TIP3    H1 9114   2.466   4.440   3.582
 3036TIP3    H2 9115   2.417   4.535   3.475
 3037TIP3   OH2 9116   1.228   0.865   1.606
 3037TIP3    H1 9117   1.149   0.837   1.560
 3037TIP3    H2 9118   1.288   0.891   1.537
 3038TIP3   OH2 9119   3.041   1.509   5.055
 3038TIP3    H1 9120   3.101   1.474   4.989
 3038TIP3    H2 9121   3.098   1.526   5.131
 3039TIP3   OH2 9122   5.472   0.128   4.419
 3039TIP3    H1 9123   5.409   0.111   4.489
 3039TIP3    H2 9124   5.424   0.183   4.356
 3040TIP3   OH2 9125   4.714   4.867   2.609
 3040TIP3    H1 9126   4.768   4.855   2.687
 3040TIP3    H2 9127   4.738   4.795   2.551
 3041TIP3   OH2 9128   5.770   2.220   3.740
 3041TIP3    H1 9129   5.790   2.143   3.793
 3041TIP3    H2 9130   5.706   2.269   3.792
 3042TIP3   OH2 9131   1.081   4.241   0.391
 3042TIP3    H1 9132   1.056   4.148   0.393
 3042TIP3    H2 9133   1.054   4.271   0.304
 3043TIP3   OH2 9134   6.300   4.841   2.924
 3043TIP3    H1 9135   6.250   4.783   2.867
 3043TIP3    H2 9136   6.392   4.824   2.902
 3044TIP3   OH2 9137   2.786   4.498   2.457
 3044TIP3    H1 9138   2.737   4.422   2.426
 3044TIP3    H2 9139   2.724   4.570   2.453
 3045TIP3   OH2 9140   5.950   3.836   4.304
 3045TIP3    H1 9141   5.945   3.931   4.294
 3045TIP3    H2 9142   5.976   3.804   4.217
 3046TIP3   OH2 9143   2.731   0.883   1.469
 3046TIP3    H1 9144   2.763   0.911   1.383
 3046TIP3    H2 9145   2.794   0.920   1.531
 3047TIP3   OH2 9146   3.658   1.656   1.603
 3047TIP3    H1 9147   3.699   1.710   1.671
 3047TIP3    H2 9148   3.635   1.574   1.648
 3048TIP3   OH2 9149   2.800   1.927   2.542
 3048TIP3    H1 9150   2.839   1.846   2.508
 3048TIP3    H2 9151   2.824   1.993   2.478
 3049TIP3   OH2 9152   6.008   3.830   1.113
 3049TIP3    H1 9153   5.919   3.864   1.117
 3049TIP3    H2 9154   6.011   3.764   1.183
 3050TIP3   OH2 9155   6.094   0.766   1.425
 3050TIP3    H1 9156   5.999   0.776   1.419
 3050TIP3    H2 9157   6.109   0.735   1.514
 3051TIP3   OH2 9158   5.600   1.062   5.010
 3051TIP3    H1 9159   5.525   1.080   4.954
 3051TIP3    H2 9160   5.656   1.139   5.001
 3052TIP3   OH2 9161   2.217   5.279   1.241
 3052TIP3    H1 9162   2.286   5.264   1.175
 3052TIP3    H2 9163   2.192   5.371   1.228
 3053TIP3   OH2 9164   2.231   2.031   1.677
 3053TIP3    H1 9165   2.218   2.114   1.630
 3053TIP3    H2 9166   2.144   2.009   1.709
 3054TIP3   OH2 9167   4.951   1.512   5.022
 3054TIP3    H1 9168   4.881   1.466   5.069
 3054TIP3    H2 9169   4.937   1.604   5.044
 3055TIP3   OH2 9170   4.581   0.309   2.110
 3055TIP3    H1 9171   4.523   0.363   2.056
 3055TIP3    H2 9172   4.666   0.314   2.066
 3056TIP3   OH2 9173   0.816   1.250   1.672
 3056TIP3    H1 9174   0.835   1.297   1.754
 3056TIP3    H2 9175   0.732   1.285   1.644
 3057TIP3   OH2 9176   5.625   1.110   0.425
 3057TIP3    H1 9177   5.659   1.033   0.379
 3057TIP3    H2 9178   5.649   1.096   0.516
 3058TIP3   OH2 9179   2.717   5.255   4.597
 3058TIP3    H1 9180   2.780   5.204   4.547
 3058TIP3    H2 9181   2.770   5.313   4.651
 3059TIP3   OH2 9182   5.766   5.622   2.086
 3059TIP3    H1 9183   5.808   5.613   2.000
 3059TIP3    H2 9184   5.701   5.691   2.074
 3060TIP3   OH2 9185   3.043   0.387   1.418
 3060TIP3    H1 9186   2.997   0.452   1.364
 3060TIP3    H2 9187   2.979   0.317   1.431
 3061TIP3   OH2 9188   0.221   1.627   1.315
 3061TIP3    H1 9189   0.315   1.615   1.329
 3061TIP3    H2 9190   0.208   1.607   1.223
 3062TIP3   OH2 9191   2.435   5.624   3.511
 3062TIP3    H1 9192   2.410   5.582   3.594
 3062TIP3    H2 9193   2.451   5.551   3.451
 3063TIP3   OH2 9194   5.712   4.737   2.024
 3063TIP3    H1 9195   5.755   4.673   2.079
 3063TIP3    H2 9196   5.680   4.688   1.948
 3064TIP3   OH2 9197   2.226   4.963   3.868
 3064TIP3    H1 9198   2.240   4.894   3.933
 3064TIP3    H2 9199   2.133   4.985   3.877
 3065TIP3   OH2 9200   6.327   0.522   2.285
 3065TIP3    H1 9201   6.310   0.593   2.348
 3065TIP3    H2 9202   6.241   0.486   2.266
 3066TIP3   OH2 9203   2.014   0.076   4.749
 3066TIP3    H1 9204   1.977  -0.005   4.713
 3066TIP3    H2 9205   1.970   0.086   4.833
 3067TIP3   OH2 9206   5.601   2.578   1.256
 3067TIP3    H1 9207   5.614   2.667   1.224
 3067TIP3    H2 9208   5.510   2.575   1.284
 3068TIP3   OH2 9209   5.925   5.058   0.831
 3068TIP3    H1 9210   5.957   5.144   0.859
 3068TIP3    H2 9211   5.839   5.075   0.794
 3069TIP3   OH2 9212   0.000   4.003   1.491
 3069TIP3    H1 9213   0.047   4.064   1.434
 3069TIP3    H2 9214  -0.093   4.022   1.475
 3070TIP3   OH2 9215   5.451   2.786   0.142
 3070TIP3    H1 9216   5.502   2.813   0.218
 3070TIP3    H2 9217   5.375   2.741   0.179
 3071TIP3   OH2 9218   0.747   0.531   3.533
 3071TIP3    H1 9219   0.833   0.549   3.494
 3071TIP3    H2 9220   0.758   0.552   3.626
 3072TIP3   OH2 9221   6.021   4.236   3.920
 3072TIP3    H1 9222   6.085   4.283   3.866
 3072TIP3    H2 9223   5.979   4.175   3.859
 3073TIP3   OH2 9224   5.337   0.950   2.605
 3073TIP3    H1 9225   5.394   1.000   2.663
 3073TIP3    H2 9226   5.344   0.860   2.637
 3074TIP3   OH2 9227   2.886   2.418   4.837
 3074TIP3    H1 9228   2.898   2.509   4.811
 3074TIP3    H2 9229   2.837   2.378   4.764
 3075TIP3   OH2 9230   3.034   2.189   0.565
 3075TIP3    H1 9231   3.083   2.154   0.491
 3075TIP3    H2 9232   2.976   2.255   0.527
 3076TIP3   OH2 9233   0.357   1.786   2.286
 3076TIP3    H1 9234   0.425   1.818   2.345
 3076TIP3    H2 9235   0.288   1.852   2.290
 3077TIP3   OH2 9236   1.074   3.991   3.870
 3077TIP3    H1 9237   1.062   4.055   3.941
 3077TIP3    H2 9238   1.039   4.034   3.792
 3078TIP3   OH2 9239   5.238   3.976   4.362
 3078TIP3    H1 9240   5.213   4.012   4.277
 3078TIP3    H2 9241   5.326   3.941   4.347
 3079TIP3   OH2 9242   6.195   4.316   4.789
 3079TIP3    H1 9243   6.147   4.388   4.748
 3079TIP3    H2 9244   6.140   4.239   4.774
 3080TIP3   OH2 9245   1.228   4.003   4.209
 3080TIP3    H1 9246   1.138   3.974   4.221
 3080TIP3    H2 9247   1.223   4.070   4.140
 3081TIP3   OH2 9248   4.476   0.775   5.098
 3081TIP3    H1 9249   4.401   0.717   5.084
 3081TIP3    H2 9250   4.438   0.862   5.106
 3082TIP3   OH2 9251   1.453   3.422   4.717
 3082TIP3    H1 9252   1.443   3.339   4.671
 3082TIP3    H2 9253   1.412   3.486   4.660
 3083TIP3   OH2 9254   0.742   4.263   3.542
 3083TIP3    H1 9255   0.647   4.252   3.549
 3083TIP3    H2 9256   0.755   4.357   3.534
 3084TIP3   OH2 9257   5.224   5.944   2.724
 3084TIP3    H1 9258   5.244   6.004   2.652
 3084TIP3    H2 9259   5.128   5.941   2.726
 3085TIP3   OH2 9260   2.943   2.755   3.607
 3085TIP3    H1 9261   3.000   2.830   3.624
 3085TIP3    H2 9262   2.961   2.732   3.516
 3086TIP3   OH2 9263   2.070   4.573   1.715
 3086TIP3    H1 9264   1.995   4.521   1.688
 3086TIP3    H2 9265   2.126   4.576   1.637
 3087TIP3   OH2 9266   2.629   1.382   3.907
 3087TIP3    H1 9267   2.592   1.353   3.823
 3087TIP3    H2 9268   2.660   1.302   3.948
 3088TIP3   OH2 9269   2.039   1.771   3.359
 3088TIP3    H1 9270   2.051   1.678   3.337
 3088TIP3    H2 9271   1.955   1.774   3.404
 3089TIP3   OH2 9272   1.821   2.453   3.612
 3089TIP3    H1 9273   1.769   2.379   3.580
 3089TIP3    H2 9274   1.844   2.429   3.702
 3090TIP3   OH2 9275   5.577   2.438   4.677
 3090TIP3    H1 9276   5.495   2.444   4.628
 3090TIP3    H2 9277   5.564   2.498   4.751
 3091TIP3   OH2 9278   4.064   0.181   4.421
 3091TIP3    H1 9279   4.053   0.269   4.385
 3091TIP3    H2 9280   4.158   0.174   4.437
 3092TIP3   OH2 9281   4.052   4.083   4.535
 3092TIP3    H1 9282   4.086   4.162   4.577
 3092TIP3    H2 9283   3.967   4.067   4.577
 3093TIP3   OH2 9284   2.117   4.035   3.805
 3093TIP3    H1 9285   2.120   4.097   3.732
 3093TIP3    H2 9286   2.025   4.037   3.834
 3094TIP3   OH2 9287   3.242   2.460   0.396
 3094TIP3    H1 9288   3.301   2.492   0.327
 3094TIP3    H2 9289   3.296   2.400   0.447
 3095TIP3   OH2 9290   3.771   5.124   4.612
 3095TIP3    H1 9291   3.751   5.204   4.660
 3095TIP3    H2 9292   3.810   5.154   4.530
 3096TIP3   OH2 9293   0.343   1.350   1.296
 3096TIP3    H1 9294   0.355   1.376   1.387
 3096TIP3    H2 9295   0.353   1.255   1.296
 3097TIP3   OH2 9296   6.191   4.538   4.462
 3097TIP3    H1 9297   6.157   4.521   4.550
 3097TIP3    H2 9298   6.284   4.556   4.474
 3098TIP3   OH2 9299   2.569   5.941   1.905
 3098TIP3    H1 9300   2.484   5.909   1.876
 3098TIP3    H2 9301   2.631   5.873   1.879
 3099TIP3   OH2 9302   2.304   5.070   3.487
 3099TIP3    H1 9303   2.321   5.014   3.411
 3099TIP3    H2 9304   2.210   5.088   3.482
 3100TIP3   OH2 9305   4.415   4.616   4.823
 3100TIP3    H1 9306   4.446   4.590   4.910
 3100TIP3    H2 9307   4.321   4.627   4.834
 3101TIP3   OH2 9308   1.066   2.390   5.070
 3101TIP3    H1 9309   0.995   2.347   5.023
 3101TIP3    H2 9310   1.116   2.318   5.110
 3102TIP3   OH2 9311   1.745   1.690   1.067
 3102TIP3    H1 9312   1.731   1.687   1.161
 3102TIP3    H2 9313   1.681   1.630   1.030
 3103TIP3   OH2 9314   5.759   5.159   3.413
 3103TIP3    H1 9315   5.711   5.209   3.348
 3103TIP3    H2 9316   5.805   5.226   3.465
 3104TIP3   OH2 9317   3.069   2.040   1.512
 3104TIP3    H1 9318   3.093   2.105   1.577
 3104TIP3    H2 9319   3.004   2.084   1.456
 3105TIP3   OH2 9320   1.091   0.100   4.867
 3105TIP3    H1 9321   1.177   0.061   4.882
 3105TIP3    H2 9322   1.032   0.048   4.920
 3106TIP3   OH2 9323   3.413   0.557   0.033
 3106TIP3    H1 9324   3.446   0.499   0.101
 3106TIP3    H2 9325   3.486   0.616   0.013
 3107TIP3   OH2 9326   2.368   1.052   1.374
 3107TIP3    H1 9327   2.350   0.987   1.307
 3107TIP3    H2 9328   2.441   1.103   1.339
 3108TIP3   OH2 9329   0.929   4.153   1.402
 3108TIP3    H1 9330   0.884   4.069   1.392
 3108TIP3    H2 9331   1.014   4.139   1.361
 3109TIP3   OH2 9332   1.422   5.870   1.769
 3109TIP3    H1 9333   1.470   5.797   1.729
 3109TIP3    H2 9334   1.340   5.832   1.799
 3110TIP3   OH2 9335   0.638   3.428   1.240
 3110TIP3    H1 9336   0.596   3.371   1.176
 3110TIP3    H2 9337   0.567   3.477   1.281
 3111TIP3   OH2 9338   3.824   1.437   2.169
 3111TIP3    H1 9339   3.746   1.400   2.128
 3111TIP3    H2 9340   3.813   1.419   2.262
 3112TIP3   OH2 9341   1.668   2.305   1.154
 3112TIP3    H1 9342   1.664   2.275   1.245
 3112TIP3    H2 9343   1.583   2.281   1.117
 3113TIP3   OH2 9344   5.616   3.633   2.935
 3113TIP3    H1 9345   5.650   3.584   2.860
 3113TIP3    H2 9346   5.635   3.578   3.011
 3114TIP3   OH2 9347   3.747   3.005   3.757
 3114TIP3    H1 9348   3.658   3.028   3.783
 3114TIP3    H2 9349   3.802   3.035   3.829
 3115TIP3   OH2 9350   0.952   1.459   3.861
 3115TIP3    H1 9351   0.865   1.498   3.860
 3115TIP3    H2 9352   0.976   1.450   3.768
 3116TIP3   OH2 9353   3.675   4.604   1.648
 3116TIP3    H1 9354   3.718   4.539   1.592
 3116TIP3    H2 9355   3.688   4.571   1.737
 3117TIP3   OH2 9356   1.479   3.358   4.263
 3117TIP3    H1 9357   1.509   3.285   4.319
 3117TIP3    H2 9358   1.431   3.415   4.323
 3118TIP3   OH2 9359   5.383   3.184   3.425
 3118TIP3    H1 9360   5.390   3.275   3.395
 3118TIP3    H2 9361   5.306   3.183   3.482
 3119TIP3   OH2 9362   0.632   5.481   3.096
 3119TIP3    H1 9363   0.637   5.393   3.058
 3119TIP3    H2 9364   0.711   5.489   3.148
 3120TIP3   OH2 9365   5.240   4.303   0.893
 3120TIP3    H1 9366   5.331   4.321   0.868
 3120TIP3    H2 9367   5.247   4.267   0.981
 3121TIP3   OH2 9368   4.245   0.892   0.027
 3121TIP3    H1 9369   4.282   0.980   0.026
 3121TIP3    H2 9370   4.200   0.885   0.111
 3122TIP3   OH2 9371   2.006   3.437   4.164
 3122TIP3    H1 9372   2.018   3.367   4.100
 3122TIP3    H2 9373   2.089   3.485   4.163
 3123TIP3   OH2 9374   3.728   4.855   4.652
 3123TIP3    H1 9375   3.739   4.949   4.643
 3123TIP3    H2 9376   3.817   4.820   4.654
 3124TIP3   OH2 9377   5.116   4.663   3.632
 3124TIP3    H1 9378   5.193   4.712   3.604
 3124TIP3    H2 9379   5.141   4.571   3.619
 3125TIP3   OH2 9380   4.608   1.647   3.424
 3125TIP3    H1 9381   4.558   1.566   3.434
 3125TIP3    H2 9382   4.598   1.693   3.508
 3126TIP3   OH2 9383   0.620   2.640   0.893
 3126TIP3    H1 9384   0.556   2.569   0.900
 3126TIP3    H2 9385   0.606   2.692   0.972
 3127TIP3   OH2 9386   4.463   3.341   0.319
 3127TIP3    H1 9387   4.489   3.259   0.277
 3127TIP3    H2 9388   4.486   3.330   0.411
 3128TIP3   OH2 9389   0.976   0.471   4.272
 3128TIP3    H1 9390   1.017   0.431   4.349
 3128TIP3    H2 9391   1.049   0.502   4.219
 3129TIP3   OH2 9392   5.577   5.148   2.544
 3129TIP3    H1 9393   5.664   5.186   2.547
 3129TIP3    H2 9394   5.592   5.055   2.526
 3130TIP3   OH2 9395   2.926   4.798   2.326
 3130TIP3    H1 9396   2.959   4.717   2.286
 3130TIP3    H2 9397   2.994   4.824   2.387
 3131TIP3   OH2 9398   1.676   1.891   4.266
 3131TIP3    H1 9399   1.728   1.901   4.346
 3131TIP3    H2 9400   1.676   1.797   4.249
 3132TIP3   OH2 9401   6.076   5.897   4.994
 3132TIP3    H1 9402   6.008   5.965   5.002
 3132TIP3    H2 9403   6.117   5.894   5.081
 3133TIP3   OH2 9404   2.893   3.663   1.119
 3133TIP3    H1 9405   2.805   3.648   1.085
 3133TIP3    H2 9406   2.917   3.580   1.161
 3134TIP3   OH2 9407   0.185   2.318   5.069
 3134TIP3    H1 9408   0.115   2.359   5.118
 3134TIP3    H2 9409   0.147   2.300   4.983
 3135TIP3   OH2 9410   4.873   5.263   1.741
 3135TIP3    H1 9411   4.948   5.278   1.798
 3135TIP3    H2 9412   4.842   5.176   1.764
 3136TIP3   OH2 9413   4.623   4.409   3.716
 3136TIP3    H1 9414   4.605   4.328   3.668
 3136TIP3    H2 9415   4.718   4.420   3.710
 3137TIP3   OH2 9416   0.903   3.777   3.040
 3137TIP3    H1 9417   0.916   3.683   3.047
 3137TIP3    H2 9418   0.868   3.803   3.126
 3138TIP3   OH2 9419   3.906   2.075   5.088
 3138TIP3    H1 9420   3.838   2.033   5.036
 3138TIP3    H2 9421   3.900   2.168   5.064
 3139TIP3   OH2 9422   4.215   4.106   0.409
 3139TIP3    H1 9423   4.133   4.056   0.405
 3139TIP3    H2 9424   4.277   4.047   0.453
 3140TIP3   OH2 9425   5.061   4.030   3.560
 3140TIP3    H1 9426   5.064   4.043   3.655
 3140TIP3    H2 9427   5.080   4.117   3.523
 3141TIP3   OH2 9428   3.189   0.874   4.368
 3141TIP3    H1 9429   3.116   0.814   4.354
 3141TIP3    H2 9430   3.157   0.958   4.333
 3142TIP3   OH2 9431   4.200   3.571   4.447
 3142TIP3    H1 9432   4.261   3.623   4.498
 3142TIP3    H2 9433   4.114   3.592   4.483
 3143TIP3   OH2 9434   0.579   0.528   0.545
 3143TIP3    H1 9435   0.660   0.577   0.552
 3143TIP3    H2 9436   0.566   0.489   0.632
 3144TIP3   OH2 9437   4.909   5.566   4.140
 3144TIP3    H1 9438   4.983   5.544   4.084
 3144TIP3    H2 9439   4.863   5.483   4.153
 3145TIP3   OH2 9440   4.927   1.092   3.157
 3145TIP3    H1 9441   4.905   1.169   3.105
 3145TIP3    H2 9442   5.022   1.093   3.164
 3146TIP3   OH2 9443   3.431   0.996   0.470
 3146TIP3    H1 9444   3.389   0.975   0.387
 3146TIP3    H2 9445   3.367   0.970   0.537
 3147TIP3   OH2 9446   6.288   2.399   4.257
 3147TIP3    H1 9447   6.359   2.346   4.293
 3147TIP3    H2 9448   6.277   2.367   4.167
 3148TIP3   OH2 9449   5.290   0.796   1.410
 3148TIP3    H1 9450   5.285   0.892   1.416
 3148TIP3    H2 9451   5.219   0.765   1.467
 3149TIP3   OH2 9452   1.756   4.127   0.930
 3149TIP3    H1 9453   1.764   4.033   0.944
 3149TIP3    H2 9454   1.778   4.141   0.838
 3150TIP3   OH2 9455   2.297   3.257   2.884
 3150TIP3    H1 9456   2.225   3.296   2.932
 3150TIP3    H2 9457   2.337   3.330   2.836
 3151TIP3   OH2 9458   2.240   2.014   2.787
 3151TIP3    H1 9459   2.244   1.934   2.839
 3151TIP3    H2 9460   2.288   1.992   2.706
 3152TIP3   OH2 9461   0.341   3.666   0.296
 3152TIP3    H1 9462   0.426   3.710   0.305
 3152TIP3    H2 9463   0.361   3.580   0.260
 3153TIP3   OH2 9464   4.755   5.712   1.964
 3153TIP3    H1 9465   4.798   5.713   2.050
 3153TIP3    H2 9466   4.686   5.778   1.971
 3154TIP3   OH2 9467   0.952   1.057   4.455
 3154TIP3    H1 9468   0.933   1.151   4.459
 3154TIP3    H2 9469   0.900   1.026   4.380
 3155TIP3   OH2 9470   0.156   3.787   1.279
 3155TIP3    H1 9471   0.189   3.755   1.363
 3155TIP3    H2 9472   0.113   3.870   1.299
 3156TIP3   OH2 9473   4.853   3.785   2.890
 3156TIP3    H1 9474   4.787   3.800   2.958
 3156TIP3    H2 9475   4.829   3.846   2.820
 3157TIP3   OH2 9476   5.595   3.269   1.932
 3157TIP3    H1 9477   5.606   3.244   1.840
 3157TIP3    H2 9478   5.675   3.239   1.975
 3158TIP3   OH2 9479   0.982   1.092   1.523
 3158TIP3    H1 9480   0.921   1.109   1.595
 3158TIP3    H2 9481   0.989   1.176   1.477
 3159TIP3   OH2 9482   5.406   1.180   0.997
 3159TIP3    H1 9483   5.452   1.226   0.926
 3159TIP3    H2 9484   5.463   1.192   1.073
 3160TIP3   OH2 9485   1.560   1.722   4.919
 3160TIP3    H1 9486   1.480   1.765   4.950
 3160TIP3    H2 9487   1.630   1.762   4.970
 3161TIP3   OH2 9488   5.301   5.290   3.051
 3161TIP3    H1 9489   5.333   5.379   3.061
 3161TIP3    H2 9490   5.343   5.258   2.971
 3162TIP3   OH2 9491   1.457   4.359   4.568
 3162TIP3    H1 9492   1.390   4.291   4.571
 3162TIP3    H2 9493   1.505   4.343   4.486
 3163TIP3   OH2 9494   3.826   0.572   1.937
 3163TIP3    H1 9495   3.743   0.531   1.964
 3163TIP3    H2 9496   3.894   0.516   1.974
 3164TIP3   OH2 9497   2.612   2.223   2.737
 3164TIP3    H1 9498   2.520   2.247   2.724
 3164TIP3    H2 9499   2.610   2.129   2.755
 3165TIP3   OH2 9500   5.656   4.752   1.147
 3165TIP3    H1 9501   5.722   4.770   1.079
 3165TIP3    H2 9502   5.707   4.714   1.219
 3166TIP3   OH2 9503   5.768   2.659   3.090
 3166TIP3    H1 9504   5.820   2.662   3.010
 3166TIP3    H2 9505   5.826   2.620   3.155
 3167TIP3   OH2 9506   3.641   5.435   2.504
 3167TIP3    H1 9507   3.726   5.472   2.481
 3167TIP3    H2 9508   3.613   5.387   2.426
 3168TIP3   OH2 9509   5.719   1.367   0.109
 3168TIP3    H1 9510   5.744   1.444   0.160
 3168TIP3    H2 9511   5.625   1.375   0.096
 3169TIP3   OH2 9512   2.882   0.066   3.780
 3169TIP3    H1 9513   2.901   0.131   3.848
 3169TIP3    H2 9514   2.905   0.110   3.698
 3170TIP3   OH2 9515   2.235   3.420   0.019
 3170TIP3    H1 9516   2.206   3.339   0.060
 3170TIP3    H2 9517   2.295   3.392  -0.050
 3171TIP3   OH2 9518   2.496   1.111   3.239
 3171TIP3    H1 9519   2.449   1.153   3.311
 3171TIP3    H2 9520   2.509   1.021   3.268
 3172TIP3   OH2 9521   1.927   5.789   2.849
 3172TIP3    H1 9522   1.954   5.871   2.807
 3172TIP3    H2 9523   2.000   5.767   2.907
 3173TIP3   OH2 9524   1.074   4.236   2.262
 3173TIP3    H1 9525   0.991   4.250   2.307
 3173TIP3    H2 9526   1.070   4.293   2.185
 3174TIP3   OH2 9527   1.295   1.212   2.217
 3174TIP3    H1 9528   1.315   1.118   2.216
 3174TIP3    H2 9529   1.373   1.254   2.182
 3175TIP3   OH2 9530   1.781   2.265   4.477
 3175TIP3    H1 9531   1.814   2.338   4.530
 3175TIP3    H2 9532   1.687   2.278   4.474
 3176TIP3   OH2 9533   5.803   4.048   3.852
 3176TIP3    H1 9534   5.848   4.047   3.767
 3176TIP3    H2 9535   5.861   3.998   3.910
 3177TIP3   OH2 9536   6.318   1.763   4.891
 3177TIP3    H1 9537   6.374   1.796   4.820
 3177TIP3    H2 9538   6.358   1.680   4.916
 3178TIP3   OH2 9539   3.931   0.660   4.619
 3178TIP3    H1 9540   4.025   0.660   4.636
 3178TIP3    H2 9541   3.915   0.740   4.569
 3179TIP3   OH2 9542   3.753   5.467   0.986
 3179TIP3    H1 9543   3.792   5.464   1.073
 3179TIP3    H2 9544   3.777   5.553   0.952
 3180TIP3   OH2 9545   4.344   5.180   0.395
 3180TIP3    H1 9546   4.324   5.145   0.308
 3180TIP3    H2 9547   4.393   5.260   0.377
 3181TIP3   OH2 9548   5.250   5.465   1.407
 3181TIP3    H1 9549   5.337   5.504   1.417
 3181TIP3    H2 9550   5.232   5.471   1.313
 3182TIP3   OH2 9551   5.527   2.466   4.076
 3182TIP3    H1 9552   5.460   2.531   4.094
 3182TIP3    H2 9553   5.529   2.411   4.154
 3183TIP3   OH2 9554   2.671   5.053   4.913
 3183TIP3    H1 9555   2.663   5.137   4.959
 3183TIP3    H2 9556   2.585   5.012   4.923
 3184TIP3   OH2 9557   2.521   2.675   2.054
 3184TIP3    H1 9558   2.499   2.701   2.144
 3184TIP3    H2 9559   2.469   2.597   2.038
 3185TIP3   OH2 9560   4.006   5.845   3.438
 3185TIP3    H1 9561   4.018   5.798   3.521
 3185TIP3    H2 9562   4.032   5.935   3.458
 3186TIP3   OH2 9563  -0.029   0.653   0.370
 3186TIP3    H1 9564   0.067   0.657   0.367
 3186TIP3    H2 9565  -0.051   0.673   0.461
 3187TIP3   OH2 9566   2.873   0.715   0.687
 3187TIP3    H1 9567   2.943   0.658   0.655
 3187TIP3    H2 9568   2.908   0.803   0.679
 3188TIP3   OH2 9569   0.927   2.083   1.494
 3188TIP3    H1 9570   0.865   2.096   1.423
 3188TIP3    H2 9571   0.886   2.017   1.550
 3189TIP3   OH2 9572   1.405   1.398   1.249
 3189TIP3    H1 9573   1.332   1.459   1.245
 3189TIP3    H2 9574   1.367   1.317   1.284
 3190TIP3   OH2 9575   2.944   5.891   4.704
 3190TIP3    H1 9576   2.974   5.980   4.685
 3190TIP3    H2 9577   2.989   5.867   4.785
 3191TIP3   OH2 9578   4.890   0.051   3.899
 3191TIP3    H1 9579   4.950   0.105   3.847
 3191TIP3    H2 9580   4.845  -0.003   3.834
 3192TIP3   OH2 9581   4.662   0.173   2.817
 3192TIP3    H1 9582   4.659   0.079   2.800
 3192TIP3    H2 9583   4.730   0.206   2.758
 3193TIP3   OH2 9584   1.315   3.689   0.475
 3193TIP3    H1 9585   1.272   3.689   0.561
 3193TIP3    H2 9586   1.363   3.772   0.473
 3194TIP3   OH2 9587   2.831   0.756   3.255
 3194TIP3    H1 9588   2.881   0.783   3.332
 3194TIP3    H2 9589   2.812   0.663   3.270
 3195TIP3   OH2 9590   1.617   5.107   1.460
 3195TIP3    H1 9591   1.706   5.142   1.460
 3195TIP3    H2 9592   1.612   5.057   1.542
 3196TIP3   OH2 9593   4.640   3.139   4.351
 3196TIP3    H1 9594   4.560   3.129   4.401
 3196TIP3    H2 9595   4.694   3.198   4.404
 3197TIP3   OH2 9596   2.659   2.631   0.683
 3197TIP3    H1 9597   2.704   2.600   0.762
 3197TIP3    H2 9598   2.659   2.555   0.624
 3198TIP3   OH2 9599   2.125   2.665   1.090
 3198TIP3    H1 9600   2.168   2.612   1.157
 3198TIP3    H2 9601   2.154   2.755   1.108
 3199TIP3   OH2 9602   4.162   4.083   4.924
 3199TIP3    H1 9603   4.224   4.022   4.884
 3199TIP3    H2 9604   4.204   4.169   4.915
 3200TIP3   OH2 9605   1.840   4.211   0.680
 3200TIP3    H1 9606   1.814   4.192   0.590
 3200TIP3    H2 9607   1.936   4.208   0.679
 3201TIP3   OH2 9608   5.876   3.685   3.101
 3201TIP3    H1 9609   5.822   3.762   3.083
 3201TIP3    H2 9610   5.815   3.621   3.137
 3202TIP3   OH2 9611   2.566   0.110   2.881
 3202TIP3    H1 9612   2.533   0.085   2.968
 3202TIP3    H2 9613   2.508   0.066   2.819
 3203TIP3   OH2 9614   4.816   0.243   0.543
 3203TIP3    H1 9615   4.802   0.247   0.638
 3203TIP3    H2 9616   4.781   0.325   0.510
 3204TIP3   OH2 9617   4.051   2.911   3.244
 3204TIP3    H1 9618   3.993   2.848   3.201
 3204TIP3    H2 9619   4.069   2.977   3.177
 3205TIP3   OH2 9620   3.005   1.477   0.951
 3205TIP3    H1 9621   3.034   1.489   1.041
 3205TIP3    H2 9622   3.041   1.552   0.903
 3206TIP3   OH2 9623   5.523   2.983   2.692
 3206TIP3    H1 9624   5.478   3.024   2.766
 3206TIP3    H2 9625   5.520   2.889   2.712
 3207TIP3   OH2 9626   4.432   4.519   0.749
 3207TIP3    H1 9627   4.458   4.578   0.679
 3207TIP3    H2 9628   4.430   4.432   0.708
 3208TIP3   OH2 9629   3.811   4.700   0.474
 3208TIP3    H1 9630   3.795   4.789   0.443
 3208TIP3    H2 9631   3.846   4.711   0.563
 3209TIP3   OH2 9632   3.730   3.131   3.515
 3209TIP3    H1 9633   3.677   3.085   3.450
 3209TIP3    H2 9634   3.712   3.085   3.597
 3210TIP3   OH2 9635   4.774   2.149   2.366
 3210TIP3    H1 9636   4.823   2.178   2.289
 3210TIP3    H2 9637   4.804   2.060   2.382
 3211TIP3   OH2 9638   0.378   5.411   0.407
 3211TIP3    H1 9639   0.406   5.488   0.457
 3211TIP3    H2 9640   0.293   5.437   0.370
 3212TIP3   OH2 9641   3.005   2.979   0.459
 3212TIP3    H1 9642   3.012   3.019   0.372
 3212TIP3    H2 9643   2.912   2.960   0.470
 3213TIP3   OH2 9644   4.892   2.529   3.400
 3213TIP3    H1 9645   4.817   2.588   3.393
 3213TIP3    H2 9646   4.855   2.448   3.437
 3214TIP3   OH2 9647   4.052   3.816   0.743
 3214TIP3    H1 9648   4.063   3.760   0.666
 3214TIP3    H2 9649   3.983   3.877   0.718
 3215TIP3   OH2 9650   4.612   2.180   4.922
 3215TIP3    H1 9651   4.570   2.115   4.977
 3215TIP3    H2 9652   4.655   2.130   4.853
 3216TIP3   OH2 9653   3.410   5.620   0.729
 3216TIP3    H1 9654   3.365   5.538   0.752
 3216TIP3    H2 9655   3.417   5.668   0.812
 3217TIP3   OH2 9656   3.743   2.274   4.737
 3217TIP3    H1 9657   3.649   2.273   4.719
 3217TIP3    H2 9658   3.757   2.199   4.795
 3218TIP3   OH2 9659   3.110   4.129   0.220
 3218TIP3    H1 9660   3.189   4.178   0.244
 3218TIP3    H2 9661   3.122   4.107   0.128
 3219TIP3   OH2 9662   1.317   2.652   4.255
 3219TIP3    H1 9663   1.304   2.695   4.340
 3219TIP3    H2 9664   1.272   2.568   4.264
 3220TIP3   OH2 9665   0.593   0.501   2.491
 3220TIP3    H1 9666   0.608   0.468   2.403
 3220TIP3    H2 9667   0.669   0.471   2.541
 3221TIP3   OH2 9668   3.775   0.038   0.442
 3221TIP3    H1 9669   3.758   0.077   0.529
 3221TIP3    H2 9670   3.870   0.034   0.436
 3222TIP3   OH2 9671   4.600   5.432   1.954
 3222TIP3    H1 9672   4.687   5.468   1.972
 3222TIP3    H2 9673   4.562   5.416   2.040
 3223TIP3   OH2 9674   4.191   5.797   2.798
 3223TIP3    H1 9675   4.151   5.844   2.870
 3223TIP3    H2 9676   4.248   5.862   2.756
 3224TIP3   OH2 9677   0.421   0.658   0.901
 3224TIP3    H1 9678   0.372   0.678   0.821
 3224TIP3    H2 9679   0.486   0.593   0.873
 3225TIP3   OH2 9680   6.090   3.861   3.169
 3225TIP3    H1 9681   6.020   3.816   3.121
 3225TIP3    H2 9682   6.163   3.866   3.108
 3226TIP3   OH2 9683   1.338   0.148   1.611
 3226TIP3    H1 9684   1.384   0.124   1.531
 3226TIP3    H2 9685   1.331   0.244   1.606
 3227TIP3   OH2 9686   2.820   5.575   0.383
 3227TIP3    H1 9687   2.840   5.586   0.290
 3227TIP3    H2 9688   2.886   5.628   0.428
 3228TIP3   OH2 9689   3.269   5.589   4.666
 3228TIP3    H1 9690   3.296   5.648   4.736
 3228TIP3    H2 9691   3.328   5.608   4.594
 3229TIP3   OH2 9692   3.843   4.558   1.019
 3229TIP3    H1 9693   3.870   4.511   0.940
 3229TIP3    H2 9694   3.913   4.540   1.083
 3230TIP3   OH2 9695   0.209   2.965   4.821
 3230TIP3    H1 9696   0.203   2.930   4.732
 3230TIP3    H2 9697   0.147   2.912   4.872
 3231TIP3   OH2 9698   2.664   2.766   3.750
 3231TIP3    H1 9699   2.691   2.764   3.842
 3231TIP3    H2 9700   2.746   2.760   3.701
 3232TIP3   OH2 9701   2.576   1.968   3.780
 3232TIP3    H1 9702   2.522   2.035   3.737
 3232TIP3    H2 9703   2.514   1.914   3.829
 3233TIP3   OH2 9704   0.311   2.562   4.510
 3233TIP3    H1 9705   0.273   2.638   4.554
 3233TIP3    H2 9706   0.244   2.494   4.518
 3234TIP3   OH2 9707   6.218   5.658   1.449
 3234TIP3    H1 9708   6.251   5.721   1.384
 3234TIP3    H2 9709   6.283   5.588   1.450
 3235TIP3   OH2 9710   1.695   5.590   0.864
 3235TIP3    H1 9711   1.627   5.608   0.929
 3235TIP3    H2 9712   1.660   5.517   0.812
 3236TIP3   OH2 9713   5.377   1.888   1.119
 3236TIP3    H1 9714   5.389   1.949   1.045
 3236TIP3    H2 9715   5.466   1.859   1.139
 3237TIP3   OH2 9716   0.360   5.758   0.491
 3237TIP3    H1 9717   0.275   5.799   0.475
 3237TIP3    H2 9718   0.368   5.755   0.587
 3238TIP3   OH2 9719   4.334   5.619   1.023
 3238TIP3    H1 9720   4.245   5.641   0.995
 3238TIP3    H2 9721   4.391   5.675   0.970
 3239TIP3   OH2 9722   2.505   5.696   4.516
 3239TIP3    H1 9723   2.500   5.749   4.595
 3239TIP3    H2 9724   2.583   5.728   4.471
 3240TIP3   OH2 9725   1.375   2.758   4.976
 3240TIP3    H1 9726   1.313   2.724   4.911
 3240TIP3    H2 9727   1.347   2.719   5.058
 3241TIP3   OH2 9728   1.540   2.661   1.898
 3241TIP3    H1 9729   1.498   2.652   1.812
 3241TIP3    H2 9730   1.634   2.664   1.878
 3242TIP3   OH2 9731   3.918   5.641   2.834
 3242TIP3    H1 9732   3.973   5.689   2.772
 3242TIP3    H2 9733   3.939   5.548   2.818
 3243TIP3   OH2 9734   3.668   0.130   2.887
 3243TIP3    H1 9735   3.756   0.127   2.926
 3243TIP3    H2 9736   3.617   0.185   2.946
 3244TIP3   OH2 9737   1.622   5.672   1.411
 3244TIP3    H1 9738   1.623   5.578   1.430
 3244TIP3    H2 9739   1.551   5.706   1.466
 3245TIP3   OH2 9740   3.548   3.278   3.907
 3245TIP3    H1 9741   3.478   3.310   3.964
 3245TIP3    H2 9742   3.624   3.269   3.965
 3246TIP3   OH2 9743   3.629   4.240   2.371
 3246TIP3    H1 9744   3.659   4.243   2.462
 3246TIP3    H2 9745   3.534   4.250   2.376
 3247TIP3   OH2 9746   0.131   1.163   0.624
 3247TIP3    H1 9747   0.047   1.120   0.609
 3247TIP3    H2 9748   0.177   1.155   0.540
 3248TIP3   OH2 9749   2.029   0.527   5.021
 3248TIP3    H1 9750   2.035   0.620   4.998
 3248TIP3    H2 9751   2.090   0.483   4.962
 3249TIP3   OH2 9752   4.639   1.704   2.776
 3249TIP3    H1 9753   4.716   1.667   2.732
 3249TIP3    H2 9754   4.668   1.719   2.866
 3250TIP3   OH2 9755   4.451   1.978   4.262
 3250TIP3    H1 9756   4.543   1.981   4.289
 3250TIP3    H2 9757   4.423   2.070   4.263
 3251TIP3   OH2 9758   5.682   5.912   4.442
 3251TIP3    H1 9759   5.624   5.836   4.440
 3251TIP3    H2 9760   5.639   5.977   4.386
 3252TIP3   OH2 9761   3.205   3.845   4.708
 3252TIP3    H1 9762   3.203   3.892   4.625
 3252TIP3    H2 9763   3.289   3.870   4.748
 3253TIP3   OH2 9764   6.001   2.593   0.193
 3253TIP3    H1 9765   6.013   2.679   0.152
 3253TIP3    H2 9766   5.919   2.601   0.242
 3254TIP3   OH2 9767   6.117   1.944   0.147
 3254TIP3    H1 9768   6.208   1.929   0.121
 3254TIP3    H2 9769   6.082   1.857   0.164
 3255TIP3   OH2 9770   3.168   1.649   2.163
 3255TIP3    H1 9771   3.152   1.675   2.072
 3255TIP3    H2 9772   3.083   1.615   2.193
 3256TIP3   OH2 9773   4.549   1.728   0.892
 3256TIP3    H1 9774   4.627   1.782   0.901
 3256TIP3    H2 9775   4.574   1.660   0.829
 3257TIP3   OH2 9776   2.941   4.678   0.301
 3257TIP3    H1 9777   2.896   4.598   0.327
 3257TIP3    H2 9778   2.962   4.665   0.209
 3258TIP3   OH2 9779   3.770   1.766   3.441
 3258TIP3    H1 9780   3.836   1.791   3.506
 3258TIP3    H2 9781   3.702   1.834   3.450
 3259TIP3   OH2 9782   5.346   4.195   0.442
 3259TIP3    H1 9783   5.267   4.202   0.495
 3259TIP3    H2 9784   5.330   4.119   0.385
 3260TIP3   OH2 9785   3.798   1.632   1.346
 3260TIP3    H1 9786   3.753   1.599   1.424
 3260TIP3    H2 9787   3.729   1.640   1.280
 3261TIP3   OH2 9788   2.808   1.415   4.605
 3261TIP3    H1 9789   2.854   1.340   4.568
 3261TIP3    H2 9790   2.746   1.378   4.668
 3262TIP3   OH2 9791   2.579   0.593   2.266
 3262TIP3    H1 9792   2.672   0.613   2.280
 3262TIP3    H2 9793   2.538   0.678   2.252
 3263TIP3   OH2 9794   5.837   0.353   0.021
 3263TIP3    H1 9795   5.839   0.389   0.110
 3263TIP3    H2 9796   5.761   0.394  -0.021
 3264TIP3   OH2 9797   4.219   1.514   0.992
 3264TIP3    H1 9798   4.299   1.515   1.045
 3264TIP3    H2 9799   4.148   1.532   1.054
 3265TIP3   OH2 9800   0.368   5.577   1.752
 3265TIP3    H1 9801   0.369   5.617   1.839
 3265TIP3    H2 9802   0.308   5.503   1.760
 3266TIP3   OH2 9803   6.176   2.075   0.782
 3266TIP3    H1 9804   6.203   2.159   0.820
 3266TIP3    H2 9805   6.085   2.089   0.755
 3267TIP3   OH2 9806   3.729   2.258   3.394
 3267TIP3    H1 9807   3.800   2.300   3.345
 3267TIP3    H2 9808   3.772   2.184   3.438
 3268TIP3   OH2 9809   1.080   0.708   4.471
 3268TIP3    H1 9810   1.000   0.684   4.519
 3268TIP3    H2 9811   1.114   0.624   4.439
 3269TIP3   OH2 9812   3.742   5.938   2.451
 3269TIP3    H1 9813   3.821   5.952   2.503
 3269TIP3    H2 9814   3.744   6.007   2.385
 3270TIP3   OH2 9815   0.716   2.646   0.263
 3270TIP3    H1 9816   0.740   2.662   0.171
 3270TIP3    H2 9817   0.798   2.656   0.311
 3271TIP3   OH2 9818   1.141   5.705   0.538
 3271TIP3    H1 9819   1.098   5.623   0.515
 3271TIP3    H2 9820   1.081   5.748   0.598
 3272TIP3   OH2 9821   5.387   5.254   4.793
 3272TIP3    H1 9822   5.390   5.327   4.855
 3272TIP3    H2 9823   5.419   5.178   4.842
 3273TIP3   OH2 9824   3.748   3.505   0.370
 3273TIP3    H1 9825   3.728   3.577   0.429
 3273TIP3    H2 9826   3.662   3.477   0.337
 3274TIP3   OH2 9827   6.277   3.525   0.768
 3274TIP3    H1 9828   6.240   3.558   0.849
 3274TIP3    H2 9829   6.209   3.469   0.731
 3275TIP3   OH2 9830   0.872   4.687   0.897
 3275TIP3    H1 9831   0.888   4.757   0.834
 3275TIP3    H2 9832   0.866   4.608   0.843
 3276TIP3   OH2 9833   1.398   4.420   3.414
 3276TIP3    H1 9834   1.493   4.433   3.422
 3276TIP3    H2 9835   1.388   4.328   3.389
 3277TIP3   OH2 9836   5.782   4.789   4.373
 3277TIP3    H1 9837   5.768   4.878   4.407
 3277TIP3    H2 9838   5.872   4.790   4.342
 3278TIP3   OH2 9839   2.602   3.863   0.425
 3278TIP3    H1 9840   2.583   3.814   0.505
 3278TIP3    H2 9841   2.612   3.954   0.454
 3279TIP3   OH2 9842   5.431   0.095   2.332
 3279TIP3    H1 9843   5.375   0.033   2.380
 3279TIP3    H2 9844   5.378   0.121   2.256
 3280TIP3   OH2 9845   2.920   4.399   3.084
 3280TIP3    H1 9846   2.828   4.413   3.105
 3280TIP3    H2 9847   2.964   4.396   3.169
 3281TIP3   OH2 9848   3.300   5.527   2.269
 3281TIP3    H1 9849   3.327   5.554   2.181
 3281TIP3    H2 9850   3.216   5.482   2.256
 3282TIP3   OH2 9851   1.968   2.159   4.329
 3282TIP3    H1 9852   1.896   2.187   4.386
 3282TIP3    H2 9853   1.968   2.222   4.258
 3283TIP3   OH2 9854   0.782   1.709   1.903
 3283TIP3    H1 9855   0.841   1.663   1.962
 3283TIP3    H2 9856   0.741   1.777   1.957
 3284TIP3   OH2 9857   0.684   1.934   4.142
 3284TIP3    H1 9858   0.613   1.959   4.201
 3284TIP3    H2 9859   0.708   1.845   4.169
 3285TIP3   OH2 9860   4.195   3.556   1.590
 3285TIP3    H1 9861   4.195   3.573   1.684
 3285TIP3    H2 9862   4.154   3.633   1.552
 3286TIP3   OH2 9863   1.956   0.382   0.652
 3286TIP3    H1 9864   2.010   0.310   0.622
 3286TIP3    H2 9865   1.866   0.355   0.634
 3287TIP3   OH2 9866   1.179   5.917   3.301
 3287TIP3    H1 9867   1.094   5.960   3.309
 3287TIP3    H2 9868   1.211   5.911   3.391
 3288TIP3   OH2 9869   2.723   2.269   3.737
 3288TIP3    H1 9870   2.766   2.183   3.746
 3288TIP3    H2 9871   2.793   2.332   3.751
 3289TIP3   OH2 9872   0.906   5.515   4.260
 3289TIP3    H1 9873   0.830   5.464   4.231
 3289TIP3    H2 9874   0.888   5.533   4.353
 3290TIP3   OH2 9875   3.460   5.349   4.425
 3290TIP3    H1 9876   3.438   5.356   4.333
 3290TIP3    H2 9877   3.475   5.439   4.453
 3291TIP3   OH2 9878   0.035   5.210   1.725
 3291TIP3    H1 9879  -0.036   5.272   1.710
 3291TIP3    H2 9880   0.004   5.154   1.796
 3292TIP3   OH2 9881   3.019   1.394   2.329
 3292TIP3    H1 9882   2.972   1.477   2.321
 3292TIP3    H2 9883   3.051   1.393   2.419
 3293TIP3   OH2 9884   4.483   0.326   2.358
 3293TIP3    H1 9885   4.519   0.329   2.269
 3293TIP3    H2 9886   4.408   0.267   2.351
 3294TIP3   OH2 9887   0.339   2.216   3.127
 3294TIP3    H1 9888   0.297   2.171   3.201
 3294TIP3    H2 9889   0.287   2.190   3.051
 3295TIP3   OH2 9890   1.450   4.872   4.404
 3295TIP3    H1 9891   1.388   4.941   4.429
 3295TIP3    H2 9892   1.452   4.876   4.309
 3296TIP3   OH2 9893   5.489   2.784   0.597
 3296TIP3    H1 9894   5.478   2.852   0.530
 3296TIP3    H2 9895   5.410   2.790   0.650
 3297TIP3   OH2 9896   6.322   4.355   2.549
 3297TIP3    H1 9897   6.333   4.312   2.465
 3297TIP3    H2 9898   6.231   4.387   2.548
 3298TIP3   OH2 9899   3.773   3.664   0.918
 3298TIP3    H1 9900   3.865   3.643   0.934
 3298TIP3    H2 9901   3.764   3.755   0.947
 3299TIP3   OH2 9902   1.616   5.657   1.718
 3299TIP3    H1 9903   1.706   5.688   1.708
 3299TIP3    H2 9904   1.610   5.580   1.662
 3300TIP3   OH2 9905   0.184   2.970   1.355
 3300TIP3    H1 9906   0.133   3.043   1.389
 3300TIP3    H2 9907   0.140   2.946   1.273
 3301TIP3   OH2 9908   1.734   2.546   3.988
 3301TIP3    H1 9909   1.699   2.513   4.071
 3301TIP3    H2 9910   1.668   2.609   3.958
 3302TIP3   OH2 9911   5.572   3.195   2.957
 3302TIP3    H1 9912   5.650   3.142   2.941
 3302TIP3    H2 9913   5.499   3.133   2.949
 3303TIP3   OH2 9914   2.403   2.498   0.970
 3303TIP3    H1 9915   2.328   2.478   1.027
 3303TIP3    H2 9916   2.449   2.568   1.015
 3304TIP3   OH2 9917   0.132   3.458   2.941
 3304TIP3    H1 9918   0.055   3.402   2.942
 3304TIP3    H2 9919   0.103   3.536   2.893
 3305TIP3   OH2 9920   4.172   3.396   0.115
 3305TIP3    H1 9921   4.101   3.441   0.162
 3305TIP3    H2 9922   4.156   3.416   0.023
 3306TIP3   OH2 9923   1.913   2.893   4.418
 3306TIP3    H1 9924   1.986   2.871   4.476
 3306TIP3    H2 9925   1.843   2.921   4.477
 3307TIP3   OH2 9926   5.802   3.311   1.522
 3307TIP3    H1 9927   5.852   3.312   1.441
 3307TIP3    H2 9928   5.716   3.345   1.497
 3308TIP3   OH2 9929   1.400   0.478   5.082
 3308TIP3    H1 9930   1.378   0.490   4.990
 3308TIP3    H2 9931   1.332   0.525   5.130
 3309TIP3   OH2 9932   6.076   3.422   1.066
 3309TIP3    H1 9933   6.149   3.484   1.068
 3309TIP3    H2 9934   6.115   3.341   1.033
 3310TIP3   OH2 9935   3.570   3.252   4.923
 3310TIP3    H1 9936   3.655   3.234   4.966
 3310TIP3    H2 9937   3.549   3.170   4.879
 3311TIP3   OH2 9938   0.769   3.521   3.370
 3311TIP3    H1 9939   0.791   3.607   3.333
 3311TIP3    H2 9940   0.761   3.536   3.464
 3312TIP3   OH2 9941   5.262   5.344   0.451
 3312TIP3    H1 9942   5.334   5.281   0.459
 3312TIP3    H2 9943   5.187   5.299   0.491
 3313TIP3   OH2 9944   5.098   1.756   0.802
 3313TIP3    H1 9945   5.190   1.754   0.775
 3313TIP3    H2 9946   5.068   1.667   0.787
 3314TIP3   OH2 9947   5.192   4.253   2.804
 3314TIP3    H1 9948   5.163   4.162   2.807
 3314TIP3    H2 9949   5.280   4.251   2.842
 3315TIP3   OH2 9950   2.313   2.482   0.595
 3315TIP3    H1 9951   2.389   2.451   0.643
 3315TIP3    H2 9952   2.270   2.544   0.654
 3316TIP3   OH2 9953   1.591   0.847   1.882
 3316TIP3    H1 9954   1.520   0.784   1.877
 3316TIP3    H2 9955   1.555   0.920   1.933
 3317TIP3   OH2 9956   4.332   4.306   4.995
 3317TIP3    H1 9957   4.288   4.376   4.947
 3317TIP3    H2 9958   4.426   4.327   4.988
 3318TIP3   OH2 9959   0.713   4.945   4.815
 3318TIP3    H1 9960   0.783   5.005   4.842
 3318TIP3    H2 9961   0.759   4.868   4.782
 3319TIP3   OH2 9962   5.909   5.855   1.009
 3319TIP3    H1 9963   5.826   5.872   1.055
 3319TIP3    H2 9964   5.960   5.934   1.022
 3320TIP3   OH2 9965   2.202   5.745   3.678
 3320TIP3    H1 9966   2.192   5.693   3.758
 3320TIP3    H2 9967   2.291   5.726   3.648
 3321TIP3   OH2 9968   5.247   3.369   4.456
 3321TIP3    H1 9969   5.312   3.414   4.401
 3321TIP3    H2 9970   5.255   3.411   4.541
 3322TIP3   OH2 9971   4.254   0.443   1.294
 3322TIP3    H1 9972   4.223   0.363   1.338
 3322TIP3    H2 9973   4.176   0.478   1.251
 3323TIP3   OH2 9974   0.428   4.702   0.499
 3323TIP3    H1 9975   0.518   4.713   0.530
 3323TIP3    H2 9976   0.423   4.610   0.473
 3324TIP3   OH2 9977   3.995   5.954   3.007
 3324TIP3    H1 9978   3.957   5.913   2.929
 3324TIP3    H2 9979   3.919   5.975   3.062
 3325TIP3   OH2 9980   5.034   0.036   4.348
 3325TIP3    H1 9981   5.111   0.083   4.379
 3325TIP3    H2 9982   5.057   0.005   4.261
 3326TIP3   OH2 9983   4.522   3.410   2.401
 3326TIP3    H1 9984   4.603   3.373   2.439
 3326TIP3    H2 9985   4.495   3.345   2.336
 3327TIP3   OH2 9986   4.474   1.166   2.507
 3327TIP3    H1 9987   4.502   1.092   2.453
 3327TIP3    H2 9988   4.399   1.202   2.461
 3328TIP3   OH2 9989   5.089   3.008   3.109
 3328TIP3    H1 9990   5.153   3.007   3.180
 3328TIP3    H2 9991   5.055   2.918   3.107
 3329TIP3   OH2 9992   1.568   4.386   2.140
 3329TIP3    H1 9993   1.654   4.348   2.121
 3329TIP3    H2 9994   1.588   4.466   2.188
 3330TIP3   OH2 9995   4.491   3.102   0.770
 3330TIP3    H1 9996   4.552   3.035   0.740
 3330TIP3    H2 9997   4.439   3.059   0.838
 3331TIP3   OH2 9998   1.639   5.433   1.543
 3331TIP3    H1 9999   1.557   5.384   1.546
 3331TIP3    H210000   1.707   5.365   1.544
 3332TIP3   OH210001   2.227   1.309   0.441
 3332TIP3    H110002   2.208   1.265   0.358
 3332TIP3    H210003   2.318   1.338   0.432
 3333TIP3   OH210004   0.472   5.130   0.049
 3333TIP3    H110005   0.536   5.182  -0.001
 3333TIP3    H210006   0.496   5.144   0.140
 3334TIP3   OH210007   5.160   4.041   2.158
 3334TIP3    H110008   5.124   3.953   2.143
 3334TIP3    H210009   5.186   4.040   2.250
 3335TIP3   OH210010   5.177   1.287   1.888
 3335TIP3    H110011   5.199   1.208   1.938
 3335TIP3    H210012   5.109   1.330   1.939
 3336TIP3   OH210013   3.163   3.787   1.563
 3336TIP3    H110014   3.160   3.794   1.467
 3336TIP3    H210015   3.144   3.695   1.580
 3337TIP3   OH210016   4.501   3.679   4.539
 3337TIP3    H110017   4.592   3.673   4.568
 3337TIP3    H210018   4.472   3.765   4.569
 3338TIP3   OH210019   2.847   2.380   0.633
 3338TIP3    H110020   2.912   2.355   0.698
 3338TIP3    H210021   2.781   2.311   0.636
 3339TIP3   OH210022   2.705   0.814   2.524
 3339TIP3    H110023   2.759   0.862   2.462
 3339TIP3    H210024   2.634   0.874   2.547
 3340TIP3   OH210025   2.868   1.859   0.121
 3340TIP3    H110026   2.844   1.900   0.204
 3340TIP3    H210027   2.889   1.932   0.063
 3341TIP3   OH210028   0.202   2.002   2.256
 3341TIP3    H110029   0.149   2.001   2.176
 3341TIP3    H210030   0.158   2.064   2.314
 3342TIP3   OH210031   5.683   0.222   0.349
 3342TIP3    H110032   5.707   0.307   0.313
 3342TIP3    H210033   5.597   0.237   0.389
 3343TIP3   OH210034   1.657   0.425   4.718
 3343TIP3    H110035   1.631   0.415   4.627
 3343TIP3    H210036   1.751   0.411   4.718
 3344TIP3   OH210037   5.550   3.063   0.712
 3344TIP3    H110038   5.619   3.078   0.777
 3344TIP3    H210039   5.538   2.968   0.712
 3345TIP3   OH210040   4.407   2.710  -0.008
 3345TIP3    H110041   4.400   2.800  -0.040
 3345TIP3    H210042   4.370   2.714   0.080
 3346TIP3   OH210043   4.421   2.729   3.185
 3346TIP3    H110044   4.353   2.733   3.253
 3346TIP3    H210045   4.372   2.720   3.104
 3347TIP3   OH210046   0.818   2.115   3.973
 3347TIP3    H110047   0.794   2.160   4.054
 3347TIP3    H210048   0.794   2.023   3.989
 3348TIP3   OH210049   5.879   5.612   1.854
 3348TIP3    H110050   5.940   5.650   1.791
 3348TIP3    H210051   5.817   5.563   1.800
 3349TIP3   OH210052   4.839   3.777   5.064
 3349TIP3    H110053   4.868   3.740   5.147
 3349TIP3    H210054   4.744   3.764   5.064
 3350TIP3   OH210055   4.338   5.043   4.369
 3350TIP3    H110056   4.430   5.030   4.392
 3350TIP3    H210057   4.337   5.125   4.319
 3351TIP3   OH210058   4.909   3.545   2.566
 3351TIP3    H110059   4.923   3.459   2.525
 3351TIP3    H210060   4.909   3.607   2.494
 3352TIP3   OH210061   4.725   1.272   2.616
 3352TIP3    H110062   4.638   1.263   2.577
 3352TIP3    H210063   4.782   1.222   2.558
 3353TIP3   OH210064   1.118   4.422   4.031
 3353TIP3    H110065   1.031   4.393   4.056
 3353TIP3    H210066   1.107   4.512   4.001
 3354TIP3   OH210067   3.483   2.221   4.650
 3354TIP3    H110068   3.398   2.218   4.607
 3354TIP3    H210069   3.532   2.149   4.610
 3355TIP3   OH210070   5.633   5.952   2.073
 3355TIP3    H110071   5.675   5.972   1.989
 3355TIP3    H210072   5.545   5.988   2.065
 3356TIP3   OH210073   0.876   3.971   0.678
 3356TIP3    H110074   0.870   3.972   0.774
 3356TIP3    H210075   0.830   3.891   0.653
 3357TIP3   OH210076   2.560   1.536   4.761
 3357TIP3    H110077   2.636   1.550   4.817
 3357TIP3    H210078   2.572   1.447   4.727
 3358TIP3   OH210079   3.456   1.885   4.827
 3358TIP3    H110080   3.436   1.896   4.734
 3358TIP3    H210081   3.418   1.800   4.850
 3359TIP3   OH210082   1.853   4.094   2.392
 3359TIP3    H110083   1.893   4.181   2.391
 3359TIP3    H210084   1.925   4.034   2.373
 3360TIP3   OH210085   3.814   2.932   0.314
 3360TIP3    H110086   3.721   2.939   0.292
 3360TIP3    H210087   3.819   2.857   0.373
 3361TIP3   OH210088   2.086   5.461   0.447
 3361TIP3    H110089   2.069   5.367   0.444
 3361TIP3    H210090   2.014   5.496   0.498
 3362TIP3   OH210091   5.159   3.784   3.490
 3362TIP3    H110092   5.132   3.873   3.512
 3362TIP3    H210093   5.171   3.741   3.575
 3363TIP3   OH210094   0.123   5.100   0.104
 3363TIP3    H110095   0.052   5.035   0.108
 3363TIP3    H210096   0.157   5.093   0.015
 3364TIP3   OH210097   2.549   1.967   4.319
 3364TIP3    H110098   2.524   2.041   4.263
 3364TIP3    H210099   2.470   1.913   4.324
 3365TIP3   OH210100   5.643   0.169   1.618
 3365TIP3    H110101   5.583   0.196   1.548
 3365TIP3    H210102   5.728   0.161   1.574
 3366TIP3   OH210103   2.004   5.441   4.676
 3366TIP3    H110104   2.063   5.493   4.621
 3366TIP3    H210105   2.061   5.407   4.745
 3367TIP3   OH210106   4.729   3.018   2.363
 3367TIP3    H110107   4.756   2.983   2.448
 3367TIP3    H210108   4.781   2.968   2.300
 3368TIP3   OH210109   1.832   1.718   2.171
 3368TIP3    H110110   1.827   1.813   2.164
 3368TIP3    H210111   1.828   1.700   2.266
 3369TIP3   OH210112   4.921   3.462   4.082
 3369TIP3    H110113   4.860   3.506   4.140
 3369TIP3    H210114   4.906   3.368   4.099
 3370TIP3   OH210115   4.486   4.668   2.217
 3370TIP3    H110116   4.474   4.763   2.210
 3370TIP3    H210117   4.504   4.653   2.310
 3371TIP3   OH210118   0.117   3.621   4.561
 3371TIP3    H110119   0.114   3.537   4.607
 3371TIP3    H210120   0.079   3.602   4.475
 3372TIP3   OH210121   1.695   3.342   2.978
 3372TIP3    H110122   1.718   3.426   2.940
 3372TIP3    H210123   1.749   3.335   3.057
 3373TIP3   OH210124   5.750   1.721   3.116
 3373TIP3    H110125   5.802   1.747   3.039
 3373TIP3    H210126   5.776   1.631   3.132
 3374TIP3   OH210127   2.837   3.335   2.214
 3374TIP3    H110128   2.868   3.338   2.304
 3374TIP3    H210129   2.764   3.273   2.216
 3375TIP3   OH210130   6.273   3.152   3.250
 3375TIP3    H110131   6.341   3.209   3.213
 3375TIP3    H210132   6.193   3.204   3.247
 3376TIP3   OH210133   1.536   0.169   2.436
 3376TIP3    H110134   1.526   0.220   2.516
 3376TIP3    H210135   1.614   0.205   2.394
 3377TIP3   OH210136   3.535   2.831   3.100
 3377TIP3    H110137   3.589   2.822   3.179
 3377TIP3    H210138   3.555   2.753   3.048
 3378TIP3   OH210139   4.703   2.853   0.937
 3378TIP3    H110140   4.686   2.854   0.842
 3378TIP3    H210141   4.621   2.884   0.976
 3379TIP3   OH210142   0.412   1.199   3.741
 3379TIP3    H110143   0.483   1.258   3.766
 3379TIP3    H210144   0.339   1.257   3.721
 3380TIP3   OH210145   2.405   1.084   3.701
 3380TIP3    H110146   2.311   1.072   3.714
 3380TIP3    H210147   2.446   1.031   3.770
 3381TIP3   OH210148   5.431   2.925   2.130
 3381TIP3    H110149   5.406   3.013   2.102
 3381TIP3    H210150   5.524   2.931   2.149
 3382TIP3   OH210151   4.641   1.599   4.909
 3382TIP3    H110152   4.652   1.653   4.832
 3382TIP3    H210153   4.730   1.574   4.935
 3383TIP3   OH210154   1.522   1.528   1.029
 3383TIP3    H110155   1.539   1.471   0.955
 3383TIP3    H210156   1.479   1.472   1.093
 3384TIP3   OH210157   0.474   1.606   3.765
 3384TIP3    H110158   0.430   1.572   3.843
 3384TIP3    H210159   0.511   1.689   3.793
 3385TIP3   OH210160   2.848   5.593   0.005
 3385TIP3    H110161   2.839   5.682   0.040
 3385TIP3    H210162   2.895   5.604  -0.077
 3386TIP3   OH210163   2.564   0.552   0.359
 3386TIP3    H110164   2.496   0.588   0.415
 3386TIP3    H210165   2.522   0.541   0.274
 3387TIP3   OH210166   1.267   1.261   1.928
 3387TIP3    H110167   1.201   1.242   1.995
 3387TIP3    H210168   1.220   1.254   1.845
 3388TIP3   OH210169   5.924   3.260   1.256
 3388TIP3    H110170   5.996   3.243   1.196
 3388TIP3    H210171   5.867   3.321   1.209
 3389TIP3   OH210172   2.631   5.920   5.016
 3389TIP3    H110173   2.576   5.995   5.039
 3389TIP3    H210174   2.718   5.957   5.004
 3390TIP3   OH210175   1.500   4.234   1.296
 3390TIP3    H110176   1.507   4.270   1.208
 3390TIP3    H210177   1.443   4.158   1.287
 3391TIP3   OH210178   5.861   0.449   2.336
 3391TIP3    H110179   5.924   0.405   2.279
 3391TIP3    H210180   5.880   0.542   2.325
 3392TIP3   OH210181   0.651   1.304   0.304
 3392TIP3    H110182   0.677   1.292   0.396
 3392TIP3    H210183   0.606   1.388   0.302
 3393TIP3   OH210184   0.840   0.374   0.561
 3393TIP3    H110185   0.852   0.422   0.643
 3393TIP3    H210186   0.926   0.337   0.542
 3394TIP3   OH210187   5.602   2.544   3.725
 3394TIP3    H110188   5.570   2.557   3.636
 3394TIP3    H210189   5.525   2.559   3.780
 3395TIP3   OH210190   0.920   4.687   0.129
 3395TIP3    H110191   0.870   4.756   0.085
 3395TIP3    H210192   0.993   4.669   0.070
 3396TIP3   OH210193   0.678   4.095   2.377
 3396TIP3    H110194   0.670   4.159   2.306
 3396TIP3    H210195   0.761   4.117   2.420
 3397TIP3   OH210196   0.861   4.028   0.010
 3397TIP3    H110197   0.890   3.941  -0.017
 3397TIP3    H210198   0.920   4.052   0.082
 3398TIP3   OH210199   1.935   1.810   3.836
 3398TIP3    H110200   1.986   1.861   3.899
 3398TIP3    H210201   1.969   1.836   3.751
 3399TIP3   OH210202   0.957   1.447   2.392
 3399TIP3    H110203   1.027   1.402   2.439
 3399TIP3    H210204   0.879   1.394   2.410
 3400TIP3   OH210205   0.205   5.470   0.750
 3400TIP3    H110206   0.148   5.536   0.791
 3400TIP3    H210207   0.169   5.459   0.662
 3401TIP3   OH210208   2.348   3.024   4.589
 3401TIP3    H110209   2.388   2.965   4.653
 3401TIP3    H210210   2.255   2.999   4.588
 3402TIP3   OH210211   1.709   1.436   2.534
 3402TIP3    H110212   1.747   1.390   2.459
 3402TIP3    H210213   1.675   1.367   2.590
 3403TIP3   OH210214   6.254   3.621   5.157
 3403TIP3    H110215   6.159   3.635   5.158
 3403TIP3    H210216   6.291   3.707   5.178
 3404TIP3   OH210217   3.771   4.585   3.700
 3404TIP3    H110218   3.808   4.610   3.615
 3404TIP3    H210219   3.781   4.490   3.705
 3405TIP3   OH210220   2.494   2.541   2.836
 3405TIP3    H110221   2.493   2.572   2.927
 3405TIP3    H210222   2.450   2.456   2.839
 3406TIP3   OH210223   1.035   0.448   0.167
 3406TIP3    H110224   1.040   0.457   0.072
 3406TIP3    H210225   1.002   0.359   0.182
 3407TIP3   OH210226   5.956   0.021   1.715
 3407TIP3    H110227   6.044   0.001   1.745
 3407TIP3    H210228   5.945   0.115   1.731
 3408TIP3   OH210229   1.227   3.844   0.228
 3408TIP3    H110230   1.222   3.789   0.306
 3408TIP3    H210231   1.171   3.919   0.248
 3409TIP3   OH210232   2.443   1.332   4.220
 3409TIP3    H110233   2.407   1.401   4.277
 3409TIP3    H210234   2.453   1.375   4.135
 3410TIP3   OH210235   2.762   2.310   2.533
 3410TIP3    H110236   2.715   2.393   2.535
 3410TIP3    H210237   2.736   2.266   2.615
 3411TIP3   OH210238   5.384   2.968   0.423
 3411TIP3    H110239   5.321   3.025   0.467
 3411TIP3    H210240   5.420   3.023   0.353
 3412TIP3   OH210241   3.403   3.774   2.223
 3412TIP3    H110242   3.490   3.777   2.183
 3412TIP3    H210243   3.347   3.734   2.156
 3413TIP3   OH210244   4.612   0.512   4.068
 3413TIP3    H110245   4.665   0.560   4.132
 3413TIP3    H210246   4.608   0.423   4.102
 3414TIP3   OH210247   3.923   3.475   1.998
 3414TIP3    H110248   3.911   3.569   1.986
 3414TIP3    H210249   4.009   3.456   1.961
 3415TIP3   OH210250   1.610   4.272   0.382
 3415TIP3    H110251   1.596   4.351   0.331
 3415TIP3    H210252   1.687   4.231   0.342
 3416TIP3   OH210253   3.198   5.672   1.600
 3416TIP3    H110254   3.256   5.746   1.583
 3416TIP3    H210255   3.250   5.595   1.577
 3417TIP3   OH210256   3.038   2.914   2.222
 3417TIP3    H110257   3.033   3.000   2.263
 3417TIP3    H210258   2.948   2.883   2.221
 3418TIP3   OH210259   5.613   1.963   2.239
 3418TIP3    H110260   5.547   2.032   2.243
 3418TIP3    H210261   5.563   1.881   2.240
 3419TIP3   OH210262   1.084   3.385   3.463
 3419TIP3    H110263   0.998   3.353   3.490
 3419TIP3    H210264   1.144   3.312   3.480
 3420TIP3   OH210265   0.612   1.886   2.106
 3420TIP3    H110266   0.552   1.947   2.149
 3420TIP3    H210267   0.575   1.873   2.019
 3421TIP3   OH210268   0.686   3.497   0.039
 3421TIP3    H110269   0.753   3.522   0.103
 3421TIP3    H210270   0.604   3.498   0.088
 3422TIP3   OH210271   4.696   2.745   3.720
 3422TIP3    H110272   4.748   2.822   3.700
 3422TIP3    H210273   4.628   2.743   3.653
 3423TIP3   OH210274   3.388   4.027   0.403
 3423TIP3    H110275   3.339   4.084   0.462
 3423TIP3    H210276   3.442   4.086   0.351
 3424TIP3   OH210277   0.649   3.315   3.568
 3424TIP3    H110278   0.679   3.400   3.601
 3424TIP3    H210279   0.729   3.263   3.559
 3425TIP3   OH210280   1.967   4.663   3.761
 3425TIP3    H110281   1.978   4.582   3.710
 3425TIP3    H210282   2.029   4.725   3.722
 3426TIP3   OH210283   5.277   1.752   2.565
 3426TIP3    H110284   5.317   1.689   2.505
 3426TIP3    H210285   5.183   1.739   2.553
 3427TIP3   OH210286   5.094   3.005   0.776
 3427TIP3    H110287   5.026   2.987   0.711
 3427TIP3    H210288   5.049   2.998   0.861
 3428TIP3   OH210289   4.006   2.610   1.902
 3428TIP3    H110290   4.055   2.573   1.975
 3428TIP3    H210291   4.073   2.637   1.839
 3429TIP3   OH210292   4.542   3.094   0.247
 3429TIP3    H110293   4.631   3.074   0.217
 3429TIP3    H210294   4.485   3.058   0.178
 3430TIP3   OH210295   1.971   5.846   3.990
 3430TIP3    H110296   1.964   5.881   3.901
 3430TIP3    H210297   1.953   5.921   4.047
 3431TIP3   OH210298   6.055   0.760   1.126
 3431TIP3    H110299   6.104   0.677   1.121
 3431TIP3    H210300   6.056   0.782   1.219
 3432TIP3   OH210301   3.995   0.005   0.896
 3432TIP3    H110302   3.986  -0.050   0.818
 3432TIP3    H210303   4.061   0.070   0.872
 3433TIP3   OH210304   1.387   0.229   4.064
 3433TIP3    H110305   1.478   0.244   4.039
 3433TIP3    H210306   1.352   0.172   3.996
 3434TIP3   OH210307   1.530   4.151   3.380
 3434TIP3    H110308   1.550   4.141   3.287
 3434TIP3    H210309   1.441   4.117   3.389
 3435TIP3   OH210310   2.505   5.636   0.994
 3435TIP3    H110311   2.442   5.672   0.932
 3435TIP3    H210312   2.565   5.584   0.941
 3436TIP3   OH210313   4.639   4.969   0.528
 3436TIP3    H110314   4.629   5.050   0.579
 3436TIP3    H210315   4.691   4.995   0.452
 3437TIP3   OH210316   1.865   0.155   3.752
 3437TIP3    H110317   1.853   0.084   3.689
 3437TIP3    H210318   1.777   0.179   3.778
 3438TIP3   OH210319   2.084   3.248   4.416
 3438TIP3    H110320   2.122   3.336   4.410
 3438TIP3    H210321   2.096   3.222   4.507
 3439TIP3   OH210322   4.576   0.922   4.888
 3439TIP3    H110323   4.559   0.863   4.961
 3439TIP3    H210324   4.490   0.957   4.865
 3440TIP3   OH210325   1.679   5.830   2.734
 3440TIP3    H110326   1.761   5.813   2.781
 3440TIP3    H210327   1.635   5.746   2.732
 3441TIP3   OH210328   2.445  -0.011   4.503
 3441TIP3    H110329   2.431   0.047   4.429
 3441TIP3    H210330   2.405  -0.094   4.477
 3442TIP3   OH210331   2.909   3.968   3.510
 3442TIP3    H110332   2.899   4.014   3.593
 3442TIP3    H210333   2.868   3.883   3.524
 3443TIP3   OH210334   6.176   4.735   0.450
 3443TIP3    H110335   6.127   4.777   0.379
 3443TIP3    H210336   6.199   4.649   0.417
 3444TIP3   OH210337   0.393   2.764   3.982
 3444TIP3    H110338   0.489   2.759   3.986
 3444TIP3    H210339   0.363   2.685   4.026
 3445TIP3   OH210340   5.689   4.718   0.180
 3445TIP3    H110341   5.631   4.792   0.166
 3445TIP3    H210342   5.644   4.663   0.244
 3446TIP3   OH210343   2.450   3.687  -0.032
 3446TIP3    H110344   2.455   3.781  -0.052
 3446TIP3    H210345   2.452   3.682   0.063
 3447TIP3   OH210346   3.330   2.115   1.441
 3447TIP3    H110347   3.335   2.194   1.387
 3447TIP3    H210348   3.237   2.093   1.444
 3448TIP3   OH210349   0.752   3.444   5.136
 3448TIP3    H110350   0.677   3.389   5.114
 3448TIP3    H210351   0.793   3.401   5.211
 3449TIP3   OH210352   2.347   2.262   2.670
 3449TIP3    H110353   2.328   2.288   2.760
 3449TIP3    H210354   2.293   2.184   2.657
 3450TIP3   OH210355   2.413   4.288   2.944
 3450TIP3    H110356   2.403   4.292   3.039
 3450TIP3    H210357   2.362   4.212   2.917
 3451TIP3   OH210358   0.884   3.308   4.380
 3451TIP3    H110359   0.941   3.332   4.453
 3451TIP3    H210360   0.884   3.212   4.380
 3452TIP3   OH210361   3.625   1.099   4.407
 3452TIP3    H110362   3.544   1.049   4.396
 3452TIP3    H210363   3.643   1.094   4.501
 3453TIP3   OH210364   1.568   2.182   1.845
 3453TIP3    H110365   1.492   2.240   1.837
 3453TIP3    H210366   1.642   2.234   1.814
 3454TIP3   OH210367   5.928   0.458   2.018
 3454TIP3    H110368   5.861   0.525   2.002
 3454TIP3    H210369   5.918   0.397   1.945
 3455TIP3   OH210370   4.422   4.991   1.786
 3455TIP3    H110371   4.377   4.960   1.707
 3455TIP3    H210372   4.464   5.073   1.759
 3456TIP3   OH210373   4.704   4.144   3.644
 3456TIP3    H110374   4.746   4.108   3.566
 3456TIP3    H210375   4.705   4.073   3.708
 3457TIP3   OH210376   6.327   1.861   4.563
 3457TIP3    H110377   6.330   1.768   4.541
 3457TIP3    H210378   6.256   1.896   4.510
 3458TIP3   OH210379   0.030   5.516   4.981
 3458TIP3    H110380   0.034   5.606   4.949
 3458TIP3    H210381   0.072   5.519   5.067
 3459TIP3   OH210382   4.527   1.833   3.234
 3459TIP3    H110383   4.493   1.776   3.164
 3459TIP3    H210384   4.574   1.773   3.292
 3460TIP3   OH210385   6.001   1.835   3.017
 3460TIP3    H110386   6.084   1.880   2.998
 3460TIP3    H210387   6.018   1.744   2.994
 3461TIP3   OH210388   4.476   3.606   3.855
 3461TIP3    H110389   4.527   3.566   3.784
 3461TIP3    H210390   4.527   3.589   3.934
 3462TIP3   OH210391   5.385   5.108   0.527
 3462TIP3    H110392   5.353   5.114   0.617
 3462TIP3    H210393   5.384   5.014   0.507
 3463TIP3   OH210394   4.065   1.564   3.613
 3463TIP3    H110395   4.008   1.540   3.686
 3463TIP3    H210396   4.151   1.578   3.653
 3464TIP3   OH210397   6.223   1.541   2.541
 3464TIP3    H110398   6.273   1.560   2.621
 3464TIP3    H210399   6.269   1.467   2.501
 3465TIP3   OH210400   2.570   4.523   0.334
 3465TIP3    H110401   2.492   4.562   0.373
 3465TIP3    H210402   2.600   4.460   0.399
 3466TIP3   OH210403   2.634   2.905   1.880
 3466TIP3    H110404   2.556   2.935   1.832
 3466TIP3    H210405   2.600   2.869   1.961
 3467TIP3   OH210406   5.315   5.594   4.588
 3467TIP3    H110407   5.403   5.612   4.555
 3467TIP3    H210408   5.267   5.562   4.512
 3468TIP3   OH210409   3.551   4.814   3.675
 3468TIP3    H110410   3.570   4.740   3.618
 3468TIP3    H210411   3.635   4.860   3.685
 3469TIP3   OH210412   2.275   5.023   4.265
 3469TIP3    H110413   2.267   5.007   4.171
 3469TIP3    H210414   2.186   5.039   4.295
 3470TIP3   OH210415   3.471   1.420   5.142
 3470TIP3    H110416   3.415   1.343   5.140
 3470TIP3    H210417   3.536   1.404   5.074
 3471TIP3   OH210418   3.128   3.554   4.723
 3471TIP3    H110419   3.141   3.648   4.735
 3471TIP3    H210420   3.075   3.547   4.643
 3472TIP3   OH210421   5.866   1.451   4.615
 3472TIP3    H110422   5.797   1.471   4.551
 3472TIP3    H210423   5.860   1.356   4.629
 3473TIP3   OH210424   0.878   4.230   5.074
 3473TIP3    H110425   0.901   4.176   5.149
 3473TIP3    H210426   0.866   4.318   5.111
 3474TIP3   OH210427   5.224   0.516   2.776
 3474TIP3    H110428   5.222   0.611   2.791
 3474TIP3    H210429   5.292   0.484   2.836
 3475TIP3   OH210430   3.181   3.217   4.622
 3475TIP3    H110431   3.263   3.261   4.645
 3475TIP3    H210432   3.189   3.130   4.662
 3476TIP3   OH210433   1.087   0.051   0.020
 3476TIP3    H110434   1.150   0.059  -0.052
 3476TIP3    H210435   1.094  -0.041   0.047
 3477TIP3   OH210436   4.491   0.471   1.626
 3477TIP3    H110437   4.413   0.525   1.618
 3477TIP3    H210438   4.553   0.525   1.674
 3478TIP3   OH210439   4.405   4.285   2.211
 3478TIP3    H110440   4.492   4.294   2.249
 3478TIP3    H210441   4.359   4.364   2.238
 3479TIP3   OH210442   6.224   4.324   3.238
 3479TIP3    H110443   6.151   4.322   3.175
 3479TIP3    H210444   6.240   4.231   3.257
 3480TIP3   OH210445   3.052   1.086   1.203
 3480TIP3    H110446   3.064   0.992   1.212
 3480TIP3    H210447   3.058   1.102   1.109
 3481TIP3   OH210448   1.295   2.432   0.882
 3481TIP3    H110449   1.361   2.449   0.949
 3481TIP3    H210450   1.301   2.337   0.867
 3482TIP3   OH210451   1.836   1.078   3.095
 3482TIP3    H110452   1.880   1.124   3.167
 3482TIP3    H210453   1.827   1.145   3.027
 3483TIP3   OH210454   1.502   3.074   0.972
 3483TIP3    H110455   1.479   3.147   0.914
 3483TIP3    H210456   1.561   3.020   0.920
 3484TIP3   OH210457   4.333   4.122   1.769
 3484TIP3    H110458   4.346   4.127   1.675
 3484TIP3    H210459   4.421   4.116   1.805
 3485TIP3   OH210460   3.299   0.509   3.975
 3485TIP3    H110461   3.257   0.593   3.959
 3485TIP3    H210462   3.229   0.445   3.968
 3486TIP3   OH210463   5.107   3.167   4.318
 3486TIP3    H110464   5.157   3.240   4.355
 3486TIP3    H210465   5.069   3.123   4.394
 3487TIP3   OH210466   1.490   3.193   1.603
 3487TIP3    H110467   1.401   3.215   1.577
 3487TIP3    H210468   1.542   3.270   1.580
 3488TIP3   OH210469   2.892   0.556   1.857
 3488TIP3    H110470   2.958   0.510   1.910
 3488TIP3    H210471   2.900   0.648   1.883
 3489TIP3   OH210472   1.536   2.452   4.736
 3489TIP3    H110473   1.446   2.484   4.733
 3489TIP3    H210474   1.552   2.420   4.647
 3490TIP3   OH210475   1.288   1.862   0.500
 3490TIP3    H110476   1.324   1.941   0.538
 3490TIP3    H210477   1.351   1.836   0.433
 3491TIP3   OH210478   1.079   0.921   1.150
 3491TIP3    H110479   1.049   0.881   1.232
 3491TIP3    H210480   0.999   0.950   1.106
 3492TIP3   OH210481   6.239   3.992   0.175
 3492TIP3    H110482   6.245   3.899   0.198
 3492TIP3    H210483   6.212   4.035   0.256
 3493TIP3   OH210484   1.486   2.366   2.347
 3493TIP3    H110485   1.570   2.388   2.307
 3493TIP3    H210486   1.474   2.431   2.417
 3494TIP3   OH210487   3.366   0.303   5.118
 3494TIP3    H110488   3.437   0.255   5.076
 3494TIP3    H210489   3.324   0.351   5.046
 3495TIP3   OH210490   2.049   2.328   3.192
 3495TIP3    H110491   2.037   2.386   3.267
 3495TIP3    H210492   2.028   2.382   3.116
 3496TIP3   OH210493   4.867   1.879   1.813
 3496TIP3    H110494   4.960   1.860   1.818
 3496TIP3    H210495   4.849   1.889   1.720
 3497TIP3   OH210496   1.620   1.337   3.703
 3497TIP3    H110497   1.664   1.252   3.700
 3497TIP3    H210498   1.578   1.345   3.617
 3498TIP3   OH210499   2.228   2.666   1.963
 3498TIP3    H110500   2.202   2.736   2.023
 3498TIP3    H210501   2.221   2.586   2.014
 3499TIP3   OH210502   5.365   0.108  -0.021
 3499TIP3    H110503   5.444   0.082   0.027
 3499TIP3    H210504   5.310   0.151   0.045
 3500TIP3   OH210505   4.104   3.914   0.993
 3500TIP3    H110506   4.089   3.880   0.905
 3500TIP3    H210507   4.137   4.003   0.980
 3501TIP3   OH210508   3.947   3.971   2.665
 3501TIP3    H110509   3.890   3.905   2.626
 3501TIP3    H210510   3.977   4.023   2.591
 3502TIP3   OH210511   5.126   2.371   2.807
 3502TIP3    H110512   5.180   2.398   2.882
 3502TIP3    H210513   5.179   2.304   2.763
 3503TIP3   OH210514   0.076   0.866   4.567
 3503TIP3    H110515   0.065   0.945   4.621
 3503TIP3    H210516  -0.005   0.817   4.579
 3504TIP3   OH210517   3.243   5.993   3.755
 3504TIP3    H110518   3.282   5.947   3.681
 3504TIP3    H210519   3.318   6.014   3.811
 3505TIP3   OH210520   4.824   2.049   2.023
 3505TIP3    H110521   4.818   2.034   1.929
 3505TIP3    H210522   4.918   2.059   2.040
 3506TIP3   OH210523   0.909   0.199   0.160
 3506TIP3    H110524   0.840   0.134   0.172
 3506TIP3    H210525   0.980   0.151   0.117
 3507TIP3   OH210526   0.911   1.593   0.632
 3507TIP3    H110527   0.982   1.533   0.609
 3507TIP3    H210528   0.953   1.679   0.635
 3508TIP3   OH210529   5.326   0.121   0.975
 3508TIP3    H110530   5.340   0.210   0.943
 3508TIP3    H210531   5.253   0.128   1.036
 3509TIP3   OH210532   3.823   5.017   1.843
 3509TIP3    H110533   3.919   5.010   1.846
 3509TIP3    H210534   3.792   4.931   1.870
 3510TIP3   OH210535   1.258   1.629   1.295
 3510TIP3    H110536   1.213   1.711   1.277
 3510TIP3    H210537   1.194   1.576   1.342
 3511TIP3   OH210538   0.908   1.989   2.567
 3511TIP3    H110539   0.892   1.915   2.508
 3511TIP3    H210540   0.937   1.948   2.649
 3512TIP3   OH210541   2.166   4.347   4.158
 3512TIP3    H110542   2.094   4.286   4.142
 3512TIP3    H210543   2.159   4.411   4.088
 3513TIP3   OH210544   2.909   0.235   1.236
 3513TIP3    H110545   2.899   0.326   1.208
 3513TIP3    H210546   2.958   0.193   1.165
 3514TIP3   OH210547   2.265   1.662   2.208
 3514TIP3    H110548   2.331   1.663   2.139
 3514TIP3    H210549   2.220   1.746   2.200
 3515TIP3   OH210550   0.647   4.105   1.562
 3515TIP3    H110551   0.600   4.135   1.640
 3515TIP3    H210552   0.704   4.035   1.593
 3516TIP3   OH210553   2.637   0.582   4.395
 3516TIP3    H110554   2.574   0.651   4.375
 3516TIP3    H210555   2.696   0.581   4.320
 3517TIP3   OH210556   3.673   2.166   0.191
 3517TIP3    H110557   3.670   2.247   0.242
 3517TIP3    H210558   3.586   2.128   0.200
 3518TIP3   OH210559   5.796   1.123   3.150
 3518TIP3    H110560   5.804   1.103   3.057
 3518TIP3    H210561   5.775   1.039   3.191
 3519TIP3   OH210562   4.244   3.422   0.444
 3519TIP3    H110563   4.304   3.450   0.375
 3519TIP3    H210564   4.285   3.345   0.482
 3520TIP3   OH210565   3.213   1.527   2.822
 3520TIP3    H110566   3.289   1.534   2.881
 3520TIP3    H210567   3.145   1.580   2.864
 3521TIP3   OH210568   2.931   3.078   0.813
 3521TIP3    H110569   2.945   3.173   0.808
 3521TIP3    H210570   2.846   3.069   0.857
 3522TIP3   OH210571   0.844   4.967   0.855
 3522TIP3    H110572   0.889   4.927   0.781
 3522TIP3    H210573   0.752   4.971   0.827
 3523TIP3   OH210574   2.641  -0.006   4.131
 3523TIP3    H110575   2.667   0.034   4.047
 3523TIP3    H210576   2.578   0.056   4.168
 3524TIP3   OH210577   5.509   3.849   4.340
 3524TIP3    H110578   5.578   3.785   4.352
 3524TIP3    H210579   5.554   3.926   4.304
 3525TIP3   OH210580   4.217   2.456   3.229
 3525TIP3    H110581   4.244   2.481   3.318
 3525TIP3    H210582   4.297   2.424   3.188
 3526TIP3   OH210583   1.341   4.885   0.488
 3526TIP3    H110584   1.361   4.821   0.420
 3526TIP3    H210585   1.355   4.838   0.570
 3527TIP3   OH210586   6.319   2.238   0.939
 3527TIP3    H110587   6.362   2.243   1.024
 3527TIP3    H210588   6.263   2.316   0.936
 3528TIP3   OH210589   5.666   0.460   0.606
 3528TIP3    H110590   5.737   0.479   0.667
 3528TIP3    H210591   5.651   0.366   0.615
 3529TIP3   OH210592   3.888   0.766   3.613
 3529TIP3    H110593   3.904   0.746   3.705
 3529TIP3    H210594   3.891   0.681   3.569
 3530TIP3   OH210595   5.603   5.402   0.652
 3530TIP3    H110596   5.551   5.334   0.695
 3530TIP3    H210597   5.593   5.384   0.559
 3531TIP3   OH210598   5.424   0.447   2.173
 3531TIP3    H110599   5.446   0.483   2.087
 3531TIP3    H210600   5.351   0.387   2.156
 3532TIP3   OH210601   2.489   2.667   4.585
 3532TIP3    H110602   2.565   2.621   4.549
 3532TIP3    H210603   2.423   2.660   4.517
 3533TIP3   OH210604   5.164   5.798   2.378
 3533TIP3    H110605   5.171   5.884   2.337
 3533TIP3    H210606   5.246   5.787   2.425
 3534TIP3   OH210607   0.737   3.555   2.356
 3534TIP3    H110608   0.648   3.523   2.366
 3534TIP3    H210609   0.728   3.651   2.352
 3535TIP3   OH210610   1.556   3.085   3.189
 3535TIP3    H110611   1.526   3.080   3.098
 3535TIP3    H210612   1.523   3.005   3.230
 3536TIP3   OH210613   0.469   0.407   5.108
 3536TIP3    H110614   0.481   0.436   5.018
 3536TIP3    H210615   0.400   0.463   5.143
 3537TIP3   OH210616   5.941   2.124   3.493
 3537TIP3    H110617   5.891   2.150   3.570
 3537TIP3    H210618   6.002   2.197   3.479
 3538TIP3   OH210619   6.133   2.495   4.722
 3538TIP3    H110620   6.155   2.412   4.680
 3538TIP3    H210621   6.038   2.500   4.718
 3539TIP3   OH210622   4.114   4.402   0.600
 3539TIP3    H110623   4.139   4.346   0.527
 3539TIP3    H210624   4.183   4.468   0.604
 3540TIP3   OH210625   3.147   4.008   1.089
 3540TIP3    H110626   3.166   4.099   1.067
 3540TIP3    H210627   3.233   3.966   1.095
 3541TIP3   OH210628   3.373   4.292   2.271
 3541TIP3    H110629   3.283   4.322   2.265
 3541TIP3    H210630   3.367   4.197   2.280
 3542TIP3   OH210631   4.817   4.692   4.778
 3542TIP3    H110632   4.784   4.678   4.689
 3542TIP3    H210633   4.758   4.758   4.815
 3543TIP3   OH210634   4.518   2.006   1.355
 3543TIP3    H110635   4.437   2.001   1.304
 3543TIP3    H210636   4.533   1.917   1.385
 3544TIP3   OH210637   0.718   3.892   4.910
 3544TIP3    H110638   0.772   3.837   4.968
 3544TIP3    H210639   0.646   3.835   4.883
 3545TIP3   OH210640   5.634   4.937   3.268
 3545TIP3    H110641   5.630   4.903   3.357
 3545TIP3    H210642   5.581   5.017   3.270
 3546TIP3   OH210643   4.275   4.699   4.074
 3546TIP3    H110644   4.214   4.668   4.140
 3546TIP3    H210645   4.311   4.619   4.035
 3547TIP3   OH210646   4.224   2.878   3.781
 3547TIP3    H110647   4.151   2.824   3.749
 3547TIP3    H210648   4.220   2.957   3.727
 3548TIP3   OH210649   3.294   3.156   2.490
 3548TIP3    H110650   3.366   3.152   2.427
 3548TIP3    H210651   3.298   3.245   2.525
 3549TIP3   OH210652   5.908   4.404   2.953
 3549TIP3    H110653   5.893   4.319   2.993
 3549TIP3    H210654   5.883   4.393   2.861
 3550TIP3   OH210655   3.220   3.571   0.496
 3550TIP3    H110656   3.306   3.571   0.539
 3550TIP3    H210657   3.176   3.649   0.529
 3551TIP3   OH210658   3.979   3.750   1.996
 3551TIP3    H110659   4.016   3.773   2.081
 3551TIP3    H210660   3.978   3.833   1.948
 3552TIP3   OH210661   4.169   5.409   4.805
 3552TIP3    H110662   4.154   5.377   4.894
 3552TIP3    H210663   4.113   5.486   4.798
 3553TIP3   OH210664   5.832   0.748   1.404
 3553TIP3    H110665   5.752   0.733   1.455
 3553TIP3    H210666   5.801   0.794   1.326
 3554TIP3   OH210667   2.258   0.729   2.819
 3554TIP3    H110668   2.272   0.669   2.892
 3554TIP3    H210669   2.233   0.812   2.860
 3555TIP3   OH210670   1.553   4.265   1.038
 3555TIP3    H110671   1.480   4.271   0.976
 3555TIP3    H210672   1.612   4.201   1.000
 3556TIP3   OH210673   0.995   1.261   2.098
 3556TIP3    H110674   0.973   1.279   2.189
 3556TIP3    H210675   1.038   1.175   2.100
 3557TIP3   OH210676   6.167   4.207   2.920
 3557TIP3    H110677   6.101   4.272   2.895
 3557TIP3    H210678   6.123   4.152   2.985
 3558TIP3   OH210679   2.459   4.639   3.335
 3558TIP3    H110680   2.533   4.699   3.322
 3558TIP3    H210681   2.387   4.680   3.286
 3559TIP3   OH210682   5.030   2.601   2.664
 3559TIP3    H110683   4.966   2.555   2.609
 3559TIP3    H210684   5.026   2.556   2.748
 3560TIP3   OH210685   4.051   2.962   2.325
 3560TIP3    H110686   4.100   2.882   2.302
 3560TIP3    H210687   4.118   3.026   2.345
 3561TIP3   OH210688   4.616   3.584   3.412
 3561TIP3    H110689   4.703   3.572   3.373
 3561TIP3    H210690   4.581   3.662   3.368
 3562TIP3   OH210691   1.058   1.411   1.155
 3562TIP3    H110692   1.141   1.387   1.113
 3562TIP3    H210693   1.030   1.490   1.109
 3563TIP3   OH210694   5.464   0.376   0.057
 3563TIP3    H110695   5.487   0.342  -0.029
 3563TIP3    H210696   5.511   0.459   0.064
 3564TIP3   OH210697   4.830   2.157   1.444
 3564TIP3    H110698   4.765   2.174   1.376
 3564TIP3    H210699   4.912   2.190   1.407
 3565TIP3   OH210700   0.876   2.103   4.601
 3565TIP3    H110701   0.871   2.027   4.543
 3565TIP3    H210702   0.804   2.159   4.573
 3566TIP3   OH210703   0.786   2.717   2.012
 3566TIP3    H110704   0.729   2.642   2.028
 3566TIP3    H210705   0.846   2.718   2.086
 3567TIP3   OH210706   5.451   0.366   0.920
 3567TIP3    H110707   5.504   0.436   0.881
 3567TIP3    H210708   5.492   0.349   1.005
 3568TIP3   OH210709   2.768   0.075   2.180
 3568TIP3    H110710   2.788   0.169   2.188
 3568TIP3    H210711   2.767   0.058   2.086
 3569TIP3   OH210712   6.044   1.239   0.906
 3569TIP3    H110713   6.007   1.212   0.822
 3569TIP3    H210714   6.136   1.214   0.900
 3570TIP3   OH210715   2.996   0.904   3.435
 3570TIP3    H110716   2.969   0.983   3.481
 3570TIP3    H210717   3.079   0.929   3.393
 3571TIP3   OH210718   1.845   4.355   5.097
 3571TIP3    H110719   1.763   4.404   5.096
 3571TIP3    H210720   1.912   4.421   5.078
 3572TIP3   OH210721   4.234   0.875   3.185
 3572TIP3    H110722   4.221   0.859   3.278
 3572TIP3    H210723   4.251   0.969   3.179
 3573TIP3   OH210724   6.073   3.494   4.610
 3573TIP3    H110725   6.059   3.589   4.603
 3573TIP3    H210726   6.155   3.479   4.564
 3574TIP3   OH210727   5.022   2.565   4.703
 3574TIP3    H110728   4.954   2.621   4.742
 3574TIP3    H210729   5.104   2.608   4.727
 3575TIP3   OH210730   1.114   4.295   0.111
 3575TIP3    H110731   1.181   4.286   0.043
 3575TIP3    H210732   1.037   4.328   0.065
 3576TIP3   OH210733   4.466   5.659   2.652
 3576TIP3    H110734   4.446   5.747   2.620
 3576TIP3    H210735   4.388   5.635   2.703
 3577TIP3   OH210736   5.143   5.409   4.699
 3577TIP3    H110737   5.204   5.337   4.690
 3577TIP3    H210738   5.191   5.486   4.667
 3578TIP3   OH210739   3.180   5.917   4.867
 3578TIP3    H110740   3.194   5.973   4.943
 3578TIP3    H210741   3.265   5.875   4.851
 3579TIP3   OH210742   6.221   3.173   3.951
 3579TIP3    H110743   6.204   3.089   3.995
 3579TIP3    H210744   6.309   3.164   3.915
 3580TIP3   OH210745   0.961   3.504   3.041
 3580TIP3    H110746   0.897   3.434   3.056
 3580TIP3    H210747   1.036   3.479   3.095
 3581TIP3   OH210748   0.193   0.643   2.673
 3581TIP3    H110749   0.280   0.658   2.637
 3581TIP3    H210750   0.207   0.630   2.767
 3582TIP3   OH210751   3.766   3.944   4.368
 3582TIP3    H110752   3.743   3.860   4.327
 3582TIP3    H210753   3.750   3.930   4.462
 3583TIP3   OH210754   2.430   3.208   1.686
 3583TIP3    H110755   2.386   3.280   1.732
 3583TIP3    H210756   2.358   3.150   1.660
 3584TIP3   OH210757   5.972   3.647   1.416
 3584TIP3    H110758   5.887   3.609   1.393
 3584TIP3    H210759   5.950   3.733   1.453
 3585TIP3   OH210760   6.222   2.939   1.940
 3585TIP3    H110761   6.129   2.916   1.942
 3585TIP3    H210762   6.263   2.881   2.004
 3586TIP3   OH210763   0.537   4.983   1.273
 3586TIP3    H110764   0.516   4.911   1.214
 3586TIP3    H210765   0.573   4.940   1.351
 3587TIP3   OH210766   0.489   2.640   1.788
 3587TIP3    H110767   0.523   2.597   1.867
 3587TIP3    H210768   0.439   2.714   1.821
 3588TIP3   OH210769   1.941   4.346   2.124
 3588TIP3    H110770   2.020   4.302   2.093
 3588TIP3    H210771   1.894   4.371   2.045
 3589TIP3   OH210772   4.161   3.238   1.011
 3589TIP3    H110773   4.127   3.286   0.936
 3589TIP3    H210774   4.255   3.255   1.010
 3590TIP3   OH210775   4.839   0.254   2.585
 3590TIP3    H110776   4.894   0.318   2.631
 3590TIP3    H210777   4.773   0.307   2.540
 3591TIP3   OH210778   5.833   2.500   4.781
 3591TIP3    H110779   5.767   2.444   4.739
 3591TIP3    H210780   5.842   2.465   4.869
 3592TIP3   OH210781   0.842   3.004   4.638
 3592TIP3    H110782   0.844   3.084   4.689
 3592TIP3    H210783   0.774   2.950   4.679
 3593TIP3   OH210784   6.281   3.959   2.069
 3593TIP3    H110785   6.211   3.903   2.035
 3593TIP3    H210786   6.362   3.911   2.050
 3594TIP3   OH210787   2.457   3.432   2.724
 3594TIP3    H110788   2.527   3.491   2.697
 3594TIP3    H210789   2.376   3.481   2.708
 3595TIP3   OH210790   4.077   0.119   4.886
 3595TIP3    H110791   4.020   0.118   4.964
 3595TIP3    H210792   4.030   0.066   4.822
 3596TIP3   OH210793   5.681   3.464   0.546
 3596TIP3    H110794   5.710   3.516   0.471
 3596TIP3    H210795   5.702   3.374   0.523
 3597TIP3   OH210796   5.205   3.541   3.982
 3597TIP3    H110797   5.262   3.605   4.027
 3597TIP3    H210798   5.118   3.558   4.017
 3598TIP3   OH210799   4.728   1.256   1.441
 3598TIP3    H110800   4.715   1.344   1.404
 3598TIP3    H210801   4.743   1.200   1.364
 3599TIP3   OH210802   0.210   3.582   3.685
 3599TIP3    H110803   0.252   3.499   3.663
 3599TIP3    H210804   0.239   3.642   3.616
 3600TIP3   OH210805   6.120   3.772   3.592
 3600TIP3    H110806   6.215   3.786   3.588
 3600TIP3    H210807   6.099   3.723   3.513
 3601TIP3   OH210808   6.052   2.038   1.081
 3601TIP3    H110809   6.027   2.122   1.044
 3601TIP3    H210810   6.140   2.052   1.118
 3602TIP3   OH210811   1.806   0.111   1.334
 3602TIP3    H110812   1.872   0.102   1.266
 3602TIP3    H210813   1.723   0.102   1.288
 3603TIP3   OH210814   2.052   4.523   5.071
 3603TIP3    H110815   2.133   4.480   5.042
 3603TIP3    H210816   2.050   4.605   5.022
 3604TIP3   OH210817   1.446   4.130   1.728
 3604TIP3    H110818   1.457   4.196   1.797
 3604TIP3    H210819   1.454   4.046   1.773
 3605TIP3   OH210820   0.993   4.401   1.165
 3605TIP3    H110821   1.067   4.417   1.224
 3605TIP3    H210822   0.917   4.395   1.223
 3606TIP3   OH210823   3.411   5.474   2.003
 3606TIP3    H110824   3.437   5.563   1.979
 3606TIP3    H210825   3.466   5.417   1.950
 3607TIP3   OH210826   6.216   4.791   2.574
 3607TIP3    H110827   6.288   4.747   2.619
 3607TIP3    H210828   6.238   4.884   2.579
 3608TIP3   OH210829   5.301   0.229   2.031
 3608TIP3    H110830   5.308   0.237   1.936
 3608TIP3    H210831   5.259   0.144   2.044
 3609TIP3   OH210832   6.056   5.834   1.933
 3609TIP3    H110833   5.997   5.870   1.999
 3609TIP3    H210834   6.058   5.740   1.952
 3610TIP3   OH210835   2.569   5.441   1.189
 3610TIP3    H110836   2.594   5.396   1.269
 3610TIP3    H210837   2.502   5.385   1.149
 3611TIP3   OH210838   1.528   2.657   1.151
 3611TIP3    H110839   1.575   2.651   1.068
 3611TIP3    H210840   1.595   2.678   1.215
 3612TIP3   OH210841   3.097   4.655   4.698
 3612TIP3    H110842   3.181   4.622   4.729
 3612TIP3    H210843   3.120   4.728   4.640
 3613TIP3   OH210844   4.985   3.512   1.275
 3613TIP3    H110845   5.014   3.449   1.209
 3613TIP3    H210846   4.896   3.534   1.250
 3614TIP3   OH210847   3.956   0.490   3.550
 3614TIP3    H110848   3.955   0.422   3.483
 3614TIP3    H210849   3.971   0.443   3.632
 3615TIP3   OH210850   5.452   4.867   0.040
 3615TIP3    H110851   5.454   4.830  -0.048
 3615TIP3    H210852   5.363   4.849   0.071
 3616TIP3   OH210853   1.759   5.415   4.088
 3616TIP3    H110854   1.693   5.364   4.042
 3616TIP3    H210855   1.805   5.352   4.144
 3617TIP3   OH210856   0.530   0.218   2.306
 3617TIP3    H110857   0.491   0.303   2.284
 3617TIP3    H210858   0.560   0.227   2.396
 3618TIP3   OH210859   1.393   0.115   0.801
 3618TIP3    H110860   1.477   0.071   0.792
 3618TIP3    H210861   1.353   0.075   0.878
 3619TIP3   OH210862   1.583   5.010   2.177
 3619TIP3    H110863   1.546   5.065   2.246
 3619TIP3    H210864   1.515   4.944   2.161
 3620TIP3   OH210865   5.313   1.718   3.685
 3620TIP3    H110866   5.395   1.710   3.636
 3620TIP3    H210867   5.322   1.801   3.732
 3621TIP3   OH210868   0.621   5.538   0.595
 3621TIP3    H110869   0.569   5.576   0.665
 3621TIP3    H210870   0.659   5.459   0.633
 3622TIP3   OH210871   1.812   4.366   1.874
 3622TIP3    H110872   1.830   4.358   1.780
 3622TIP3    H210873   1.768   4.450   1.883
 3623TIP3   OH210874   4.077   5.477   4.105
 3623TIP3    H110875   4.078   5.573   4.110
 3623TIP3    H210876   4.161   5.449   4.140
 3624TIP3   OH210877   4.321   0.371   0.589
 3624TIP3    H110878   4.348   0.411   0.672
 3624TIP3    H210879   4.235   0.410   0.571
 3625TIP3   OH210880   0.121   5.681   1.627
 3625TIP3    H110881   0.197   5.622   1.620
 3625TIP3    H210882   0.150   5.763   1.587
 3626TIP3   OH210883   4.673   1.299   0.578
 3626TIP3    H110884   4.656   1.212   0.542
 3626TIP3    H210885   4.768   1.304   0.585
 3627TIP3   OH210886   2.661   0.740   3.579
 3627TIP3    H110887   2.747   0.701   3.561
 3627TIP3    H210888   2.604   0.706   3.510
 3628TIP3   OH210889   5.990   3.235   1.708
 3628TIP3    H110890   5.919   3.265   1.652
 3628TIP3    H210891   6.063   3.294   1.688
 3629TIP3   OH210892   2.639   3.219   4.688
 3629TIP3    H110893   2.650   3.272   4.767
 3629TIP3    H210894   2.685   3.138   4.707
 3630TIP3   OH210895   1.670  -0.001   2.886
 3630TIP3    H110896   1.697   0.061   2.818
 3630TIP3    H210897   1.722   0.025   2.963
 3631TIP3   OH210898   1.355   2.590   2.810
 3631TIP3    H110899   1.288   2.565   2.874
 3631TIP3    H210900   1.412   2.513   2.805
 3632TIP3   OH210901   3.208   4.934   3.979
 3632TIP3    H110902   3.211   4.860   4.040
 3632TIP3    H210903   3.218   4.894   3.892
 3633TIP3   OH210904   6.077   0.548   0.258
 3633TIP3    H110905   6.145   0.599   0.303
 3633TIP3    H210906   6.119   0.464   0.239
 3634TIP3   OH210907   3.093   5.776   0.798
 3634TIP3    H110908   3.104   5.681   0.801
 3634TIP3    H210909   3.177   5.811   0.828
 3635TIP3   OH210910   6.120   0.378   2.167
 3635TIP3    H110911   6.047   0.355   2.110
 3635TIP3    H210912   6.175   0.299   2.168
 3636TIP3   OH210913   3.791   3.034   2.269
 3636TIP3    H110914   3.885   3.037   2.285
 3636TIP3    H210915   3.778   2.959   2.211
 3637TIP3   OH210916   3.550   2.949   0.232
 3637TIP3    H110917   3.566   2.868   0.184
 3637TIP3    H210918   3.489   2.998   0.177
 3638TIP3   OH210919   1.132   5.378   1.915
 3638TIP3    H110920   1.168   5.359   1.829
 3638TIP3    H210921   1.174   5.313   1.973
 3639TIP3   OH210922   4.474   0.403   2.710
 3639TIP3    H110923   4.537   0.454   2.659
 3639TIP3    H210924   4.520   0.321   2.730
 3640TIP3   OH210925   0.226   0.229   3.391
 3640TIP3    H110926   0.300   0.196   3.442
 3640TIP3    H210927   0.237   0.324   3.391
 3641TIP3   OH210928   1.670   2.006   1.639
 3641TIP3    H110929   1.645   2.066   1.709
 3641TIP3    H210930   1.595   1.947   1.630
 3642TIP3   OH210931   6.028   0.650   4.781
 3642TIP3    H110932   6.021   0.556   4.796
 3642TIP3    H210933   5.970   0.690   4.846
 3643TIP3   OH210934   3.983   3.952   2.245
 3643TIP3    H110935   3.938   3.995   2.173
 3643TIP3    H210936   3.987   4.018   2.314
 3644TIP3   OH210937   2.313   4.763   4.021
 3644TIP3    H110938   2.333   4.675   3.987
 3644TIP3    H210939   2.358   4.767   4.105
 3645TIP3   OH210940   5.846   0.362   5.078
 3645TIP3    H110941   5.827   0.444   5.124
 3645TIP3    H210942   5.772   0.305   5.101
 3646TIP3   OH210943   6.284   0.497   2.687
 3646TIP3    H110944   6.243   0.514   2.771
 3646TIP3    H210945   6.366   0.547   2.689
 3647TIP3   OH210946   0.768   2.454   3.155
 3647TIP3    H110947   0.692   2.413   3.196
 3647TIP3    H210948   0.732   2.503   3.081
 3648TIP3   OH210949   2.840   3.542   2.948
 3648TIP3    H110950   2.746   3.555   2.954
 3648TIP3    H210951   2.862   3.560   2.857
 3649TIP3   OH210952   2.390   2.362   4.513
 3649TIP3    H110953   2.339   2.296   4.466
 3649TIP3    H210954   2.476   2.361   4.471
 3650TIP3   OH210955   4.431   3.834   0.656
 3650TIP3    H110956   4.353   3.781   0.672
 3650TIP3    H210957   4.470   3.845   0.743
 3651TIP3   OH210958   2.175   4.151   4.473
 3651TIP3    H110959   2.220   4.074   4.508
 3651TIP3    H210960   2.093   4.155   4.521
 3652TIP3   OH210961   1.180   2.429   2.419
 3652TIP3    H110962   1.271   2.455   2.404
 3652TIP3    H210963   1.181   2.334   2.419
 3653TIP3   OH210964   6.162   5.920   0.478
 3653TIP3    H110965   6.097   5.857   0.447
 3653TIP3    H210966   6.144   6.000   0.428
 3654TIP3   OH210967   2.563   2.796   4.204
 3654TIP3    H110968   2.596   2.844   4.280
 3654TIP3    H210969   2.468   2.806   4.208
 3655TIP3   OH210970   2.559   4.919   2.022
 3655TIP3    H110971   2.615   4.964   2.085
 3655TIP3    H210972   2.481   4.973   2.016
 3656TIP3   OH210973   0.412   0.985   0.805
 3656TIP3    H110974   0.319   0.973   0.787
 3656TIP3    H210975   0.457   0.932   0.739
 3657TIP3   OH210976   2.874   3.196   3.095
 3657TIP3    H110977   2.933   3.132   3.137
 3657TIP3    H210978   2.913   3.210   3.009
 3658TIP3   OH210979   1.981   3.120   4.952
 3658TIP3    H110980   2.067   3.113   4.993
 3658TIP3    H210981   1.949   3.030   4.949
 3659TIP3   OH210982   0.385   0.109   1.142
 3659TIP3    H110983   0.382   0.052   1.220
 3659TIP3    H210984   0.450   0.067   1.085
 3660TIP3   OH210985   5.947   2.145   0.301
 3660TIP3    H110986   6.002   2.215   0.336
 3660TIP3    H210987   5.984   2.127   0.215
 3661TIP3   OH210988   4.477   2.978   4.666
 3661TIP3    H110989   4.518   2.900   4.629
 3661TIP3    H210990   4.437   3.022   4.591
 3662TIP3   OH210991   0.093   1.494   4.736
 3662TIP3    H110992   0.129   1.501   4.825
 3662TIP3    H210993   0.010   1.448   4.748
 3663TIP3   OH210994   4.941   0.456   3.549
 3663TIP3    H110995   4.919   0.536   3.597
 3663TIP3    H210996   5.036   0.455   3.546
 3664TIP3   OH210997   2.581   2.551   2.491
 3664TIP3    H110998   2.656   2.599   2.454
 3664TIP3    H210999   2.546   2.610   2.557
 3665TIP3   OH211000   3.464   2.933   1.982
 3665TIP3    H111001   3.387   2.884   1.955
 3665TIP3    H211002   3.479   2.995   1.910
 3666TIP3   OH211003   4.655   0.695   1.248
 3666TIP3    H111004   4.707   0.774   1.262
 3666TIP3    H211005   4.574   0.711   1.295
 3667TIP3   OH211006   3.458   4.034   3.605
 3667TIP3    H111007   3.479   4.128   3.607
 3667TIP3    H211008   3.366   4.030   3.582
 3668TIP3   OH211009   6.118   0.480   1.435
 3668TIP3    H111010   6.204   0.496   1.473
 3668TIP3    H211011   6.091   0.565   1.400
 3669TIP3   OH211012   2.793   2.475   0.102
 3669TIP3    H111013   2.726   2.469   0.170
 3669TIP3    H211014   2.844   2.552   0.124
 3670TIP3   OH211015   5.371   4.640   3.152
 3670TIP3    H111016   5.302   4.706   3.144
 3670TIP3    H211017   5.324   4.557   3.159
 3671TIP3   OH211018   4.866   0.968   3.674
 3671TIP3    H111019   4.837   1.041   3.619
 3671TIP3    H211020   4.787   0.939   3.720
 3672TIP3   OH211021   1.652   3.331   1.302
 3672TIP3    H111022   1.649   3.377   1.386
 3672TIP3    H211023   1.583   3.371   1.250
 3673TIP3   OH211024   1.157   4.636   4.757
 3673TIP3    H111025   1.107   4.715   4.737
 3673TIP3    H211026   1.137   4.575   4.687
 3674TIP3   OH211027   2.662   4.953   3.055
 3674TIP3    H111028   2.624   5.010   2.988
 3674TIP3    H211029   2.656   4.865   3.018
 3675TIP3   OH211030   5.548   3.503   4.466
 3675TIP3    H111031   5.620   3.561   4.444
 3675TIP3    H211032   5.517   3.471   4.381
 3676TIP3   OH211033   6.122   2.264   2.233
 3676TIP3    H111034   6.039   2.250   2.188
 3676TIP3    H211035   6.096   2.284   2.323
 3677TIP3   OH211036   4.654   2.943   3.991
 3677TIP3    H111037   4.745   2.971   3.977
 3677TIP3    H211038   4.615   2.946   3.903
 3678TIP3   OH211039   2.740   2.974   0.546
 3678TIP3    H111040   2.769   2.921   0.619
 3678TIP3    H211041   2.705   3.054   0.586
 3679TIP3   OH211042   4.780   0.598   2.879
 3679TIP3    H111043   4.830   0.670   2.919
 3679TIP3    H211044   4.695   0.602   2.923
 3680TIP3   OH211045   3.306   5.100   3.613
 3680TIP3    H111046   3.253   5.056   3.680
 3680TIP3    H211047   3.335   5.030   3.555
 3681TIP3   OH211048   1.641   4.793   4.908
 3681TIP3    H111049   1.692   4.783   4.827
 3681TIP3    H211050   1.564   4.843   4.881
 3682TIP3   OH211051   0.702   2.921   2.658
 3682TIP3    H111052   0.614   2.909   2.623
 3682TIP3    H211053   0.693   2.903   2.752
 3683TIP3   OH211054   1.393   0.658   2.400
 3683TIP3    H111055   1.312   0.703   2.375
 3683TIP3    H211056   1.432   0.715   2.467
 3684TIP3   OH211057   1.682   0.655   1.361
 3684TIP3    H111058   1.637   0.578   1.395
 3684TIP3    H211059   1.770   0.624   1.339
 3685TIP3   OH211060   5.746   3.443   0.043
 3685TIP3    H111061   5.673   3.407   0.094
 3685TIP3    H211062   5.824   3.414   0.090
 3686TIP3   OH211063   4.072   3.720   3.914
 3686TIP3    H111064   4.114   3.802   3.888
 3686TIP3    H211065   4.007   3.704   3.846
 3687TIP3   OH211066   0.826   3.302   3.171
 3687TIP3    H111067   0.811   3.377   3.229
 3687TIP3    H211068   0.793   3.227   3.220
 3688TIP3   OH211069   4.060   0.512   1.007
 3688TIP3    H111070   3.967   0.508   0.985
 3688TIP3    H211071   4.084   0.603   0.995
 3689TIP3   OH211072   6.103   3.286   4.191
 3689TIP3    H111073   6.155   3.350   4.239
 3689TIP3    H211074   6.156   3.263   4.115
 3690TIP3   OH211075   1.219   2.842   2.708
 3690TIP3    H111076   1.179   2.870   2.790
 3690TIP3    H211077   1.279   2.771   2.734
 3691TIP3   OH211078   4.252   3.535   2.262
 3691TIP3    H111079   4.268   3.598   2.332
 3691TIP3    H211080   4.170   3.493   2.286
 3692TIP3   OH211081   5.945   2.784   1.943
 3692TIP3    H111082   5.955   2.828   1.858
 3692TIP3    H211083   5.972   2.694   1.926
 3693TIP3   OH211084   4.073   1.749   0.815
 3693TIP3    H111085   4.131   1.793   0.877
 3693TIP3    H211086   4.023   1.820   0.775
 3694TIP3   OH211087   1.416   0.785   0.436
 3694TIP3    H111088   1.489   0.841   0.463
 3694TIP3    H211089   1.437   0.699   0.474
 3695TIP3   OH211090   1.216   0.705   5.106
 3695TIP3    H111091   1.255   0.764   5.170
 3695TIP3    H211092   1.161   0.761   5.052
 3696TIP3   OH211093   4.278   1.243   3.845
 3696TIP3    H111094   4.206   1.209   3.792
 3696TIP3    H211095   4.236   1.273   3.926
 3697TIP3   OH211096   2.568   3.817   2.078
 3697TIP3    H111097   2.570   3.878   2.004
 3697TIP3    H211098   2.476   3.812   2.103
 3698TIP3   OH211099   2.752   4.576   1.003
 3698TIP3    H111100   2.707   4.567   1.087
 3698TIP3    H211101   2.721   4.660   0.968
 3699TIP3   OH211102   3.881   2.002   2.870
 3699TIP3    H111103   3.908   1.920   2.911
 3699TIP3    H211104   3.870   1.980   2.777
 3700TIP3   OH211105   2.533   1.974   0.102
 3700TIP3    H111106   2.579   2.058   0.114
 3700TIP3    H211107   2.493   1.981   0.016
 3701TIP3   OH211108   4.131   1.068   4.974
 3701TIP3    H111109   4.147   1.068   4.880
 3701TIP3    H211110   4.136   1.161   4.999
 3702TIP3   OH211111   0.659   2.108   2.442
 3702TIP3    H111112   0.713   2.036   2.411
 3702TIP3    H211113   0.719   2.183   2.447
 3703TIP3   OH211114   5.799   3.313   4.286
 3703TIP3    H111115   5.739   3.252   4.243
 3703TIP3    H211116   5.835   3.366   4.215
 3704TIP3   OH211117   1.422   5.212   3.742
 3704TIP3    H111118   1.472   5.291   3.722
 3704TIP3    H211119   1.425   5.161   3.661
 3705TIP3   OH211120   2.371   1.776   3.551
 3705TIP3    H111121   2.337   1.862   3.578
 3705TIP3    H211122   2.461   1.793   3.525
 3706TIP3   OH211123   0.082   2.999   2.484
 3706TIP3    H111124   0.005   3.051   2.507
 3706TIP3    H211125   0.141   3.061   2.441
 3707TIP3   OH211126   4.433   5.085   4.031
 3707TIP3    H111127   4.367   5.074   4.099
 3707TIP3    H211128   4.506   5.129   4.075
 3708TIP3   OH211129   1.971   0.199   0.399
 3708TIP3    H111130   1.944   0.290   0.398
 3708TIP3    H211131   2.065   0.202   0.415
 3709TIP3   OH211132   3.702   3.439   4.411
 3709TIP3    H111133   3.785   3.446   4.364
 3709TIP3    H211134   3.698   3.348   4.439
 3710TIP3   OH211135   3.668   5.565   3.333
 3710TIP3    H111136   3.605   5.541   3.265
 3710TIP3    H211137   3.749   5.521   3.307
 3711TIP3   OH211138   3.554   0.858   1.921
 3711TIP3    H111139   3.586   0.809   1.997
 3711TIP3    H211140   3.577   0.949   1.940
 3712TIP3   OH211141   2.241   4.090   2.928
 3712TIP3    H111142   2.146   4.080   2.926
 3712TIP3    H211143   2.272   4.017   2.981
 3713TIP3   OH211144   3.806   5.702   0.787
 3713TIP3    H111145   3.850   5.781   0.820
 3713TIP3    H211146   3.734   5.736   0.735
 3714TIP3   OH211147   3.102   5.148   4.676
 3714TIP3    H111148   3.144   5.232   4.698
 3714TIP3    H211149   3.065   5.118   4.758
 3715TIP3   OH211150   0.020   3.028   3.482
 3715TIP3    H111151  -0.011   3.079   3.557
 3715TIP3    H211152  -0.003   3.081   3.406
 3716TIP3   OH211153   3.888   1.232   0.825
 3716TIP3    H111154   3.905   1.326   0.839
 3716TIP3    H211155   3.796   1.221   0.850
 3717TIP3   OH211156   2.350   2.010   0.302
 3717TIP3    H111157   2.422   1.988   0.242
 3717TIP3    H211158   2.384   2.082   0.354
 3718TIP3   OH211159   0.558   2.269   0.663
 3718TIP3    H111160   0.541   2.208   0.592
 3718TIP3    H211161   0.576   2.352   0.620
 3719TIP3   OH211162   0.153   0.127   1.007
 3719TIP3    H111163   0.222   0.109   1.070
 3719TIP3    H211164   0.072   0.101   1.052
 3720TIP3   OH211165   1.987   2.626   3.930
 3720TIP3    H111166   1.960   2.678   3.855
 3720TIP3    H211167   1.914   2.567   3.947
 3721TIP3   OH211168   1.469  -0.010   3.182
 3721TIP3    H111169   1.393  -0.055   3.146
 3721TIP3    H211170   1.493   0.055   3.117
 3722TIP3   OH211171   1.360   1.507   4.341
 3722TIP3    H111172   1.312   1.436   4.383
 3722TIP3    H211173   1.364   1.576   4.408
 3723TIP3   OH211174   4.090   2.319   2.324
 3723TIP3    H111175   4.054   2.278   2.403
 3723TIP3    H211176   4.071   2.257   2.254
 3724TIP3   OH211177   1.625   4.399   0.660
 3724TIP3    H111178   1.592   4.346   0.588
 3724TIP3    H211179   1.707   4.356   0.686
 3725TIP3   OH211180   2.808   3.653   5.038
 3725TIP3    H111181   2.822   3.576   4.983
 3725TIP3    H211182   2.876   3.714   5.012
 3726TIP3   OH211183   2.908   3.265   1.423
 3726TIP3    H111184   2.991   3.222   1.443
 3726TIP3    H211185   2.843   3.218   1.476
 3727TIP3   OH211186   2.994   1.102   1.932
 3727TIP3    H111187   3.007   1.175   1.871
 3727TIP3    H211188   3.082   1.068   1.949
 3728TIP3   OH211189   3.915   4.788   0.732
 3728TIP3    H111190   3.874   4.834   0.805
 3728TIP3    H211191   4.009   4.790   0.752
 3729TIP3   OH211192   1.554   0.749   0.944
 3729TIP3    H111193   1.647   0.727   0.935
 3729TIP3    H211194   1.538   0.814   0.877
 3730TIP3   OH211195   0.065   1.901   5.135
 3730TIP3    H111196   0.128   1.958   5.090
 3730TIP3    H211197   0.015   1.861   5.065
 3731TIP3   OH211198   4.353   5.429   4.081
 3731TIP3    H111199   4.411   5.423   4.157
 3731TIP3    H211200   4.412   5.450   4.008
 3732TIP3   OH211201   4.926   1.100   4.005
 3732TIP3    H111202   4.936   1.008   4.031
 3732TIP3    H211203   5.013   1.126   3.976
 3733TIP3   OH211204   1.440   1.555   2.465
 3733TIP3    H111205   1.372   1.499   2.501
 3733TIP3    H211206   1.521   1.506   2.479
 3734TIP3   OH211207   0.806   0.474   2.673
 3734TIP3    H111208   0.869   0.407   2.700
 3734TIP3    H211209   0.830   0.551   2.725
 3735TIP3   OH211210   5.939   1.571   0.509
 3735TIP3    H111211   5.981   1.545   0.591
 3735TIP3    H211212   5.902   1.490   0.474
 3736TIP3   OH211213   4.111   1.034   2.351
 3736TIP3    H111214   4.109   1.126   2.328
 3736TIP3    H211215   4.019   1.007   2.351
 3737TIP3   OH211216   2.283   5.972   3.848
 3737TIP3    H111217   2.291   5.882   3.816
 3737TIP3    H211218   2.279   6.025   3.768
 3738TIP3   OH211219   0.095   3.425   3.400
 3738TIP3    H111220   0.055   3.507   3.371
 3738TIP3    H211221   0.117   3.379   3.318
 3739TIP3   OH211222   1.713   4.338   3.259
 3739TIP3    H111223   1.643   4.295   3.309
 3739TIP3    H211224   1.676   4.350   3.172
 3740TIP3   OH211225   4.272   0.960   2.153
 3740TIP3    H111226   4.204   0.977   2.087
 3740TIP3    H211227   4.223   0.954   2.235
 3741TIP3   OH211228   5.905   0.912   3.968
 3741TIP3    H111229   5.954   0.848   3.918
 3741TIP3    H211230   5.928   0.996   3.929
 3742TIP3   OH211231   6.133   5.542   2.233
 3742TIP3    H111232   6.175   5.539   2.147
 3742TIP3    H211233   6.133   5.451   2.263
 3743TIP3   OH211234   3.901   0.843   0.060
 3743TIP3    H111235   3.847   0.875   0.133
 3743TIP3    H211236   3.865   0.756   0.041
 3744TIP3   OH211237   4.058   2.980   0.970
 3744TIP3    H111238   4.113   3.054   0.993
 3744TIP3    H211239   4.048   2.985   0.875
 3745TIP3   OH211240   3.609   2.031   3.062
 3745TIP3    H111241   3.596   2.116   3.020
 3745TIP3    H211242   3.666   1.984   3.002
 3746TIP3   OH211243   3.376   0.279   1.900
 3746TIP3    H111244   3.362   0.223   1.977
 3746TIP3    H211245   3.345   0.227   1.826
 3747TIP3   OH211246   2.775   0.988   1.217
 3747TIP3    H111247   2.847   1.046   1.194
 3747TIP3    H211248   2.782   0.915   1.156
 3748TIP3   OH211249   1.786   2.471   0.235
 3748TIP3    H111250   1.712   2.460   0.175
 3748TIP3    H211251   1.825   2.554   0.208
 3749TIP3   OH211252   0.483   1.112   0.442
 3749TIP3    H111253   0.525   1.127   0.357
 3749TIP3    H211254   0.535   1.164   0.503
 3750TIP3   OH211255   0.187   1.321   1.065
 3750TIP3    H111256   0.103   1.275   1.067
 3750TIP3    H211257   0.217   1.320   1.156
 3751TIP3   OH211258   2.338   0.876   1.150
 3751TIP3    H111259   2.383   0.792   1.144
 3751TIP3    H211260   2.367   0.924   1.073
 3752TIP3   OH211261   2.626   4.866   3.297
 3752TIP3    H111262   2.646   4.941   3.354
 3752TIP3    H211263   2.670   4.886   3.215
 3753TIP3   OH211264   5.910   3.346   2.795
 3753TIP3    H111265   5.865   3.298   2.725
 3753TIP3    H211266   5.907   3.438   2.767
 3754TIP3   OH211267   4.822   1.589   3.997
 3754TIP3    H111268   4.881   1.576   3.923
 3754TIP3    H211269   4.751   1.643   3.963
 3755TIP3   OH211270   5.045   1.909   3.765
 3755TIP3    H111271   5.097   1.889   3.843
 3755TIP3    H211272   5.108   1.909   3.693
 3756TIP3   OH211273   5.560   5.268   3.278
 3756TIP3    H111274   5.542   5.223   3.195
 3756TIP3    H211275   5.504   5.346   3.275
 3757TIP3   OH211276   0.064   4.745   5.007
 3757TIP3    H111277   0.022   4.827   4.979
 3757TIP3    H211278   0.156   4.768   5.019
 3758TIP3   OH211279   1.995   0.666   2.266
 3758TIP3    H111280   2.059   0.607   2.306
 3758TIP3    H211281   2.009   0.750   2.311
 3759TIP3   OH211282   3.922   0.366   0.291
 3759TIP3    H111283   3.915   0.345   0.198
 3759TIP3    H211284   3.834   0.352   0.325
 3760TIP3   OH211285   5.300   2.000   2.438
 3760TIP3    H111286   5.261   1.938   2.499
 3760TIP3    H211287   5.351   1.946   2.377
 3761TIP3   OH211288   1.792   1.318   0.418
 3761TIP3    H111289   1.823   1.326   0.328
 3761TIP3    H211290   1.870   1.300   0.469
 3762TIP3   OH211291   4.321   0.134   2.709
 3762TIP3    H111292   4.266   0.209   2.729
 3762TIP3    H211293   4.398   0.172   2.666
 3763TIP3   OH211294   2.372   5.863   2.825
 3763TIP3    H111295   2.460   5.878   2.790
 3763TIP3    H211296   2.318   5.929   2.781
 3764TIP3   OH211297   4.637   5.762   3.005
 3764TIP3    H111298   4.631   5.857   2.991
 3764TIP3    H211299   4.595   5.749   3.091
 3765TIP3   OH211300   5.747   5.454   4.867
 3765TIP3    H111301   5.708   5.381   4.820
 3765TIP3    H211302   5.815   5.413   4.921
 3766TIP3   OH211303   5.180   1.708   3.424
 3766TIP3    H111304   5.250   1.708   3.359
 3766TIP3    H211305   5.225   1.721   3.508
 3767TIP3   OH211306   5.505   1.159   1.948
 3767TIP3    H111307   5.600   1.150   1.947
 3767TIP3    H211308   5.489   1.253   1.944
 3768TIP3   OH211309   4.571   2.868   1.778
 3768TIP3    H111310   4.605   2.924   1.848
 3768TIP3    H211311   4.479   2.891   1.771
 3769TIP3   OH211312   1.865   2.912   4.095
 3769TIP3    H111313   1.815   2.866   4.027
 3769TIP3    H211314   1.839   3.004   4.086
 3770TIP3   OH211315   2.756   2.319   4.620
 3770TIP3    H111316   2.721   2.230   4.631
 3770TIP3    H211317   2.798   2.318   4.534
 3771TIP3   OH211318   3.408   0.185   0.008
 3771TIP3    H111319   3.380   0.243   0.078
 3771TIP3    H211320   3.355   0.106   0.019
 3772TIP3   OH211321   3.573   1.110   5.030
 3772TIP3    H111322   3.573   1.027   4.981
 3772TIP3    H211323   3.490   1.109   5.077
 3773TIP3   OH211324   0.366   4.084   1.043
 3773TIP3    H111325   0.291   4.143   1.036
 3773TIP3    H211326   0.362   4.051   1.132
 3774TIP3   OH211327   4.217   3.494   3.833
 3774TIP3    H111328   4.308   3.521   3.848
 3774TIP3    H211329   4.165   3.569   3.861
 3775TIP3   OH211330   0.580   5.832   4.691
 3775TIP3    H111331   0.656   5.870   4.734
 3775TIP3    H211332   0.560   5.893   4.620
 3776TIP3   OH211333   1.251   5.930   2.365
 3776TIP3    H111334   1.169   5.976   2.384
 3776TIP3    H211335   1.225   5.839   2.350
 3777TIP3   OH211336   1.995   3.990   2.059
 3777TIP3    H111337   2.033   4.001   1.971
 3777TIP3    H211338   1.910   4.034   2.054
 3778TIP3   OH211339   4.578   1.983   2.143
 3778TIP3    H111340   4.673   1.990   2.140
 3778TIP3    H211341   4.560   1.921   2.214
 3779TIP3   OH211342  -0.011   5.530   0.565
 3779TIP3    H111343   0.028   5.569   0.487
 3779TIP3    H211344  -0.012   5.436   0.547
 3780TIP3   OH211345   0.692   2.913   5.047
 3780TIP3    H111346   0.629   2.926   5.119
 3780TIP3    H211347   0.770   2.878   5.090
 3781TIP3   OH211348   2.580   0.089   1.065
 3781TIP3    H111349   2.507   0.068   1.124
 3781TIP3    H211350   2.568   0.029   0.991
 3782TIP3   OH211351   5.045   4.889   2.323
 3782TIP3    H111352   5.064   4.895   2.417
 3782TIP3    H211353   5.122   4.928   2.281
 3783TIP3   OH211354   1.886   3.424   5.053
 3783TIP3    H111355   1.960   3.380   5.095
 3783TIP3    H211356   1.813   3.363   5.062
 3784TIP3   OH211357   3.978   2.336   4.254
 3784TIP3    H111358   3.950   2.272   4.189
 3784TIP3    H211359   4.060   2.372   4.219
 3785TIP3   OH211360   4.815   0.423   0.294
 3785TIP3    H111361   4.885   0.380   0.245
 3785TIP3    H211362   4.859   0.466   0.367
 3786TIP3   OH211363   4.982   3.158   4.625
 3786TIP3    H111364   4.906   3.193   4.580
 3786TIP3    H211365   4.947   3.116   4.704
 3787TIP3   OH211366   2.915   4.499   4.560
 3787TIP3    H111367   2.982   4.559   4.593
 3787TIP3    H211368   2.918   4.509   4.465
 3788TIP3   OH211369   0.164   1.553   4.993
 3788TIP3    H111370   0.152   1.559   5.088
 3788TIP3    H211371   0.224   1.479   4.981
 3789TIP3   OH211372   0.574   2.132   3.402
 3789TIP3    H111373   0.479   2.133   3.395
 3789TIP3    H211374   0.592   2.085   3.483
 3790TIP3   OH211375   3.933   4.975   3.176
 3790TIP3    H111376   3.946   5.022   3.259
 3790TIP3    H211377   3.883   5.036   3.121
 3791TIP3   OH211378   0.129   2.284   0.688
 3791TIP3    H111379   0.194   2.216   0.670
 3791TIP3    H211380   0.083   2.253   0.765
 3792TIP3   OH211381   4.062   1.992   0.450
 3792TIP3    H111382   4.134   2.015   0.392
 3792TIP3    H211383   3.998   1.950   0.393
 3793TIP3   OH211384   5.470   5.236   1.678
 3793TIP3    H111385   5.559   5.231   1.645
 3793TIP3    H211386   5.430   5.153   1.651
 3794TIP3   OH211387   5.051   0.290   5.082
 3794TIP3    H111388   5.077   0.344   5.007
 3794TIP3    H211389   5.020   0.353   5.147
 3795TIP3   OH211390   2.870   4.062   0.308
 3795TIP3    H111391   2.881   4.036   0.399
 3795TIP3    H211392   2.957   4.088   0.279
 3796TIP3   OH211393   2.209   3.646   4.135
 3796TIP3    H111394   2.185   3.739   4.136
 3796TIP3    H211395   2.304   3.646   4.130
 3797TIP3   OH211396   4.095   5.641   1.773
 3797TIP3    H111397   4.117   5.723   1.816
 3797TIP3    H211398   4.177   5.611   1.734
 3798TIP3   OH211399   0.400   4.840   1.056
 3798TIP3    H111400   0.481   4.801   1.022
 3798TIP3    H211401   0.332   4.809   0.997
 3799TIP3   OH211402   5.830   1.974   2.091
 3799TIP3    H111403   5.742   1.976   2.129
 3799TIP3    H211404   5.886   1.942   2.162
 3800TIP3   OH211405   3.765   2.114   4.271
 3800TIP3    H111406   3.701   2.112   4.201
 3800TIP3    H211407   3.818   2.035   4.258
 3801TIP3   OH211408   4.285   0.854   4.124
 3801TIP3    H111409   4.354   0.901   4.078
 3801TIP3    H211410   4.272   0.775   4.072
 3802TIP3   OH211411   2.799   5.473   4.726
 3802TIP3    H111412   2.854   5.533   4.676
 3802TIP3    H211413   2.723   5.526   4.750
 3803TIP3   OH211414   3.944   0.712   3.880
 3803TIP3    H111415   3.855   0.677   3.883
 3803TIP3    H211416   3.997   0.650   3.930
 3804TIP3   OH211417   4.711   2.019   3.351
 3804TIP3    H111418   4.655   1.999   3.275
 3804TIP3    H211419   4.657   1.995   3.427
 3805TIP3   OH211420   2.353   1.166   4.435
 3805TIP3    H111421   2.392   1.201   4.354
 3805TIP3    H211422   2.408   1.092   4.458
 3806TIP3   OH211423   4.013   2.624   2.589
 3806TIP3    H111424   3.944   2.683   2.557
 3806TIP3    H211425   3.966   2.550   2.627
 3807TIP3   OH211426   2.940   4.430   4.281
 3807TIP3    H111427   2.963   4.505   4.227
 3807TIP3    H211428   3.024   4.392   4.307
 3808TIP3   OH211429   2.612   3.309   3.189
 3808TIP3    H111430   2.706   3.291   3.196
 3808TIP3    H211431   2.581   3.250   3.120
 3809TIP3   OH211432   2.992   3.195   5.012
 3809TIP3    H111433   2.975   3.263   4.947
 3809TIP3    H211434   3.085   3.205   5.032
 3810TIP3   OH211435   3.475   4.644   3.940
 3810TIP3    H111436   3.525   4.563   3.945
 3810TIP3    H211437   3.483   4.673   3.849
 3811TIP3   OH211438   1.881   5.506   0.607
 3811TIP3    H111439   1.807   5.560   0.577
 3811TIP3    H211440   1.840   5.426   0.638
 3812TIP3   OH211441   2.546   2.501   3.326
 3812TIP3    H111442   2.481   2.432   3.333
 3812TIP3    H211443   2.619   2.471   3.380
 3813TIP3   OH211444   2.210   4.232   1.005
 3813TIP3    H111445   2.305   4.245   1.009
 3813TIP3    H211446   2.194   4.153   1.057
 3814TIP3   OH211447   1.811   3.509   0.770
 3814TIP3    H111448   1.872   3.503   0.696
 3814TIP3    H211449   1.787   3.602   0.774
 3815TIP3   OH211450   0.171   1.902   1.620
 3815TIP3    H111451   0.106   1.923   1.553
 3815TIP3    H211452   0.161   1.969   1.686
 3816TIP3   OH211453   0.905   2.211   3.034
 3816TIP3    H111454   0.856   2.251   3.106
 3816TIP3    H211455   0.893   2.117   3.048
 3817TIP3   OH211456   5.017   3.612   1.525
 3817TIP3    H111457   5.085   3.551   1.555
 3817TIP3    H211458   4.985   3.574   1.443
 3818TIP3   OH211459   6.021   4.487   4.694
 3818TIP3    H111460   5.926   4.502   4.697
 3818TIP3    H211461   6.055   4.542   4.764
 3819TIP3   OH211462   2.562   4.838   5.179
 3819TIP3    H111463   2.645   4.818   5.137
 3819TIP3    H211464   2.498   4.783   5.133
 3820TIP3   OH211465   0.207   4.141   1.392
 3820TIP3    H111466   0.218   4.233   1.416
 3820TIP3    H211467   0.296   4.107   1.387
 3821TIP3   OH211468   3.848   2.052   1.035
 3821TIP3    H111469   3.776   1.988   1.031
 3821TIP3    H211470   3.911   2.012   1.096
 3822TIP3   OH211471   6.072   4.119   0.675
 3822TIP3    H111472   6.053   4.039   0.725
 3822TIP3    H211473   5.999   4.177   0.695
 3823TIP3   OH211474   0.578   3.787   2.102
 3823TIP3    H111475   0.517   3.717   2.079
 3823TIP3    H211476   0.608   3.764   2.191
 3824TIP3   OH211477   5.987   3.506   1.866
 3824TIP3    H111478   5.975   3.574   1.800
 3824TIP3    H211479   6.011   3.428   1.817
 3825TIP3   OH211480   3.896   4.311   1.792
 3825TIP3    H111481   3.939   4.303   1.707
 3825TIP3    H211482   3.964   4.290   1.856
 3826TIP3   OH211483   5.546   4.359   1.027
 3826TIP3    H111484   5.509   4.448   1.026
 3826TIP3    H211485   5.637   4.370   1.002
 3827TIP3   OH211486   3.952   1.851   1.251
 3827TIP3    H111487   3.886   1.792   1.288
 3827TIP3    H211488   4.036   1.814   1.279
 3828TIP3   OH211489   5.897   4.655   4.035
 3828TIP3    H111490   5.958   4.668   4.108
 3828TIP3    H211491   5.902   4.562   4.015
 3829TIP3   OH211492   6.137   0.196   1.402
 3829TIP3    H111493   6.113   0.288   1.415
 3829TIP3    H211494   6.180   0.194   1.316
 3830TIP3   OH211495   0.395   5.715   1.981
 3830TIP3    H111496   0.450   5.685   2.053
 3830TIP3    H211497   0.397   5.810   1.987
 3831TIP3   OH211498   2.893   5.789   3.745
 3831TIP3    H111499   2.859   5.847   3.677
 3831TIP3    H211500   2.981   5.767   3.716
 3832TIP3   OH211501   1.219   3.759   0.733
 3832TIP3    H111502   1.199   3.667   0.749
 3832TIP3    H211503   1.282   3.783   0.801
 3833TIP3   OH211504   1.163   2.973   4.875
 3833TIP3    H111505   1.257   2.985   4.885
 3833TIP3    H211506   1.128   2.984   4.963
 3834TIP3   OH211507   0.113   4.654   0.218
 3834TIP3    H111508   0.175   4.667   0.147
 3834TIP3    H211509   0.045   4.597   0.181
 3835TIP3   OH211510   4.877   2.272   5.069
 3835TIP3    H111511   4.963   2.314   5.075
 3835TIP3    H211512   4.877   2.230   4.983
 3836TIP3   OH211513   5.857   1.299   2.719
 3836TIP3    H111514   5.910   1.378   2.708
 3836TIP3    H211515   5.921   1.229   2.734
 3837TIP3   OH211516   5.370   2.619   3.852
 3837TIP3    H111517   5.324   2.702   3.837
 3837TIP3    H211518   5.342   2.591   3.939
 3838TIP3   OH211519   2.523   1.960   3.371
 3838TIP3    H111520   2.524   2.056   3.376
 3838TIP3    H211521   2.604   1.933   3.414
 3839TIP3   OH211522   2.702   5.687   5.157
 3839TIP3    H111523   2.684   5.758   5.096
 3839TIP3    H211524   2.618   5.644   5.171
 3840TIP3   OH211525   2.050   5.110   3.537
 3840TIP3    H111526   1.974   5.147   3.582
 3840TIP3    H211527   2.062   5.165   3.460
 3841TIP3   OH211528   5.446   4.911   2.920
 3841TIP3    H111529   5.432   4.945   3.008
 3841TIP3    H211530   5.415   4.981   2.862
 3842TIP3   OH211531   3.428   1.144   0.134
 3842TIP3    H111532   3.497   1.173   0.075
 3842TIP3    H211533   3.468   1.146   0.221
 3843TIP3   OH211534   5.273   1.610   1.837
 3843TIP3    H111535   5.196   1.627   1.891
 3843TIP3    H211536   5.245   1.629   1.747
 3844TIP3   OH211537   2.747   2.775   3.346
 3844TIP3    H111538   2.841   2.783   3.330
 3844TIP3    H211539   2.724   2.688   3.315
 3845TIP3   OH211540   5.438   0.845   3.100
 3845TIP3    H111541   5.435   0.778   3.167
 3845TIP3    H211542   5.503   0.908   3.132
 3846TIP3   OH211543   3.358   0.566   0.599
 3846TIP3    H111544   3.397   0.618   0.669
 3846TIP3    H211545   3.417   0.492   0.588
 3847TIP3   OH211546   5.830   1.165   4.334
 3847TIP3    H111547   5.892   1.219   4.285
 3847TIP3    H211548   5.862   1.075   4.324
 3848TIP3   OH211549   0.489   2.060   4.332
 3848TIP3    H111550   0.545   2.121   4.379
 3848TIP3    H211551   0.429   2.025   4.398
 3849TIP3   OH211552   3.861   2.731   1.215
 3849TIP3    H111553   3.779   2.682   1.219
 3849TIP3    H211554   3.846   2.797   1.147
 3850TIP3   OH211555   2.257   2.806   2.462
 3850TIP3    H111556   2.216   2.755   2.532
 3850TIP3    H211557   2.208   2.888   2.460
 3851TIP3   OH211558   3.011   0.043   4.146
 3851TIP3    H111559   2.994  -0.025   4.082
 3851TIP3    H211560   3.107   0.044   4.156
 3852TIP3   OH211561   6.196   2.419   1.313
 3852TIP3    H111562   6.187   2.330   1.347
 3852TIP3    H211563   6.106   2.450   1.303
 3853TIP3   OH211564   5.366   3.739   4.085
 3853TIP3    H111565   5.376   3.829   4.052
 3853TIP3    H211566   5.424   3.735   4.161
 3854TIP3   OH211567   1.365   0.581   4.573
 3854TIP3    H111568   1.338   0.667   4.606
 3854TIP3    H211569   1.398   0.534   4.650
 3855TIP3   OH211570   3.073   2.844   0.847
 3855TIP3    H111571   3.020   2.789   0.905
 3855TIP3    H211572   3.033   2.931   0.852
 3856TIP3   OH211573   0.833   0.564   4.919
 3856TIP3    H111574   0.832   0.508   4.996
 3856TIP3    H211575   0.763   0.628   4.935
 3857TIP3   OH211576   2.711   1.474   1.224
 3857TIP3    H111577   2.744   1.510   1.306
 3857TIP3    H211578   2.621   1.508   1.218
 3858TIP3   OH211579   2.324   5.762   1.895
 3858TIP3    H111580   2.373   5.706   1.835
 3858TIP3    H211581   2.286   5.701   1.959
 3859TIP3   OH211582   0.898   3.748   0.874
 3859TIP3    H111583   0.906   3.652   0.873
 3859TIP3    H211584   0.976   3.778   0.920
 3860TIP3   OH211585   5.461   3.594   1.314
 3860TIP3    H111586   5.412   3.675   1.324
 3860TIP3    H211587   5.425   3.553   1.236
 3861TIP3   OH211588   2.689   4.052   4.125
 3861TIP3    H111589   2.707   4.142   4.153
 3861TIP3    H211590   2.596   4.039   4.142
 3862TIP3   OH211591   4.433   2.093   3.280
 3862TIP3    H111592   4.433   1.998   3.277
 3862TIP3    H211593   4.369   2.120   3.215
 3863TIP3   OH211594   2.665   4.820   0.871
 3863TIP3    H111595   2.741   4.871   0.844
 3863TIP3    H211596   2.613   4.810   0.791
 3864TIP3   OH211597   0.394   3.606   4.638
 3864TIP3    H111598   0.394   3.566   4.552
 3864TIP3    H211599   0.304   3.637   4.651
 3865TIP3   OH211600   2.874   4.880   4.266
 3865TIP3    H111601   2.841   4.925   4.344
 3865TIP3    H211602   2.939   4.818   4.301
 3866TIP3   OH211603   4.720   1.279   4.730
 3866TIP3    H111604   4.688   1.251   4.645
 3866TIP3    H211605   4.805   1.319   4.712
 3867TIP3   OH211606   4.537   2.700   5.019
 3867TIP3    H111607   4.590   2.758   5.073
 3867TIP3    H211608   4.576   2.613   5.031
 3868TIP3   OH211609   2.003   3.482   3.630
 3868TIP3    H111610   2.097   3.475   3.615
 3868TIP3    H211611   1.987   3.427   3.706
 3869TIP3   OH211612   4.101  -0.023   1.471
 3869TIP3    H111613   4.092   0.023   1.387
 3869TIP3    H211614   4.095   0.046   1.537
 3870TIP3   OH211615   2.640   1.123   0.160
 3870TIP3    H111616   2.694   1.146   0.235
 3870TIP3    H211617   2.703   1.103   0.091
 3871TIP3   OH211618   1.284   5.059   4.553
 3871TIP3    H111619   1.259   5.147   4.525
 3871TIP3    H211620   1.205   5.006   4.541
 3872TIP3   OH211621   3.827   1.879   2.631
 3872TIP3    H111622   3.746   1.901   2.586
 3872TIP3    H211623   3.838   1.785   2.617
 3873TIP3   OH211624   5.756   1.203   4.591
 3873TIP3    H111625   5.810   1.140   4.640
 3873TIP3    H211626   5.766   1.176   4.500
 3874TIP3   OH211627   5.290   4.854   0.419
 3874TIP3    H111628   5.271   4.845   0.326
 3874TIP3    H211629   5.352   4.784   0.439
 3875TIP3   OH211630   3.332   4.809   1.078
 3875TIP3    H111631   3.363   4.741   1.137
 3875TIP3    H211632   3.284   4.870   1.134
 3876TIP3   OH211633   1.962   3.558   1.416
 3876TIP3    H111634   1.965   3.473   1.372
 3876TIP3    H211635   1.889   3.550   1.478
 3877TIP3   OH211636   5.348   5.760   4.812
 3877TIP3    H111637   5.382   5.703   4.743
 3877TIP3    H211638   5.424   5.808   4.844
 3878TIP3   OH211639   5.060   4.676   2.021
 3878TIP3    H111640   5.041   4.770   2.024
 3878TIP3    H211641   5.155   4.671   2.010
 3879TIP3   OH211642   5.782   0.725   1.014
 3879TIP3    H111643   5.866   0.746   1.056
 3879TIP3    H211644   5.742   0.811   0.997
 3880TIP3   OH211645   4.614   3.466   3.675
 3880TIP3    H111646   4.697   3.444   3.717
 3880TIP3    H211647   4.640   3.504   3.591
 3881TIP3   OH211648   2.645   3.121   2.222
 3881TIP3    H111649   2.570   3.077   2.181
 3881TIP3    H211650   2.652   3.080   2.308
 3882TIP3   OH211651   0.243   0.530   3.334
 3882TIP3    H111652   0.275   0.543   3.245
 3882TIP3    H211653   0.148   0.544   3.327
 3883TIP3   OH211654   0.287   2.820   1.069
 3883TIP3    H111655   0.272   2.819   0.974
 3883TIP3    H211656   0.293   2.728   1.093
 3884TIP3   OH211657   1.382   1.918   2.686
 3884TIP3    H111658   1.312   1.897   2.748
 3884TIP3    H211659   1.360   1.866   2.608
 3885TIP3   OH211660   2.940   1.000   4.999
 3885TIP3    H111661   2.897   0.938   4.940
 3885TIP3    H211662   3.032   0.998   4.972
 3886TIP3   OH211663   2.326   5.038   1.902
 3886TIP3    H111664   2.268   5.065   1.973
 3886TIP3    H211665   2.297   4.950   1.878
 3887TIP3   OH211666   2.967   5.965   1.465
 3887TIP3    H111667   2.963   5.873   1.436
 3887TIP3    H211668   2.935   5.963   1.555
 3888TIP3   OH211669   3.948   2.912   0.713
 3888TIP3    H111670   4.037   2.920   0.678
 3888TIP3    H211671   3.897   2.875   0.642
 3889TIP3   OH211672   5.550   0.198   2.967
 3889TIP3    H111673   5.646   0.196   2.969
 3889TIP3    H211674   5.528   0.189   2.874
 3890TIP3   OH211675   4.626   5.586   3.932
 3890TIP3    H111676   4.673   5.540   3.862
 3890TIP3    H211677   4.679   5.664   3.949
 3891TIP3   OH211678   5.085   3.748   4.362
 3891TIP3    H111679   5.125   3.833   4.342
 3891TIP3    H211680   5.134   3.715   4.437
 3892TIP3   OH211681   5.167   4.974   4.272
 3892TIP3    H111682   5.255   4.991   4.240
 3892TIP3    H211683   5.136   5.059   4.304
 3893TIP3   OH211684   1.106   4.010   4.592
 3893TIP3    H111685   1.133   3.922   4.618
 3893TIP3    H211686   1.020   4.022   4.633
 3894TIP3   OH211687   5.872   3.206   1.979
 3894TIP3    H111688   5.924   3.224   1.901
 3894TIP3    H211689   5.935   3.204   2.050
 3895TIP3   OH211690   0.804   0.653   4.173
 3895TIP3    H111691   0.778   0.663   4.082
 3895TIP3    H211692   0.865   0.579   4.173
 3896TIP3   OH211693   0.711   1.905   0.804
 3896TIP3    H111694   0.761   1.878   0.881
 3896TIP3    H211695   0.688   1.823   0.760
 3897TIP3   OH211696   5.640   4.837   0.792
 3897TIP3    H111697   5.705   4.819   0.860
 3897TIP3    H211698   5.664   4.923   0.758
 3898TIP3   OH211699   4.694   0.944   4.627
 3898TIP3    H111700   4.637   0.875   4.592
 3898TIP3    H211701   4.634   1.016   4.646
 3899TIP3   OH211702   1.366   2.377   1.491
 3899TIP3    H111703   1.276   2.379   1.524
 3899TIP3    H211704   1.362   2.321   1.414
 3900TIP3   OH211705   2.050   1.386   1.379
 3900TIP3    H111706   2.076   1.464   1.429
 3900TIP3    H211707   2.133   1.348   1.350
 3901TIP3   OH211708   0.469   1.290   1.012
 3901TIP3    H111709   0.377   1.281   1.039
 3901TIP3    H211710   0.507   1.350   1.077
 3902TIP3   OH211711   2.269   1.681   1.275
 3902TIP3    H111712   2.241   1.637   1.356
 3902TIP3    H211713   2.188   1.712   1.235
 3903TIP3   OH211714   1.356   5.934   2.791
 3903TIP3    H111715   1.332   5.988   2.866
 3903TIP3    H211716   1.275   5.888   2.768
 3904TIP3   OH211717   5.577   0.071   1.058
 3904TIP3    H111718   5.602   0.161   1.081
 3904TIP3    H211719   5.485   0.077   1.033
 3905TIP3   OH211720   3.433   1.196   2.692
 3905TIP3    H111721   3.428   1.230   2.603
 3905TIP3    H211722   3.476   1.265   2.742
 3906TIP3   OH211723   5.308   1.380   4.687
 3906TIP3    H111724   5.252   1.357   4.762
 3906TIP3    H211725   5.364   1.450   4.720
 3907TIP3   OH211726   0.110   4.056   3.244
 3907TIP3    H111727   0.141   4.142   3.272
 3907TIP3    H211728   0.021   4.051   3.279
 3908TIP3   OH211729   1.882   5.305   2.207
 3908TIP3    H111730   1.919   5.235   2.153
 3908TIP3    H211731   1.941   5.310   2.283
 3909TIP3   OH211732   0.346   1.512   4.615
 3909TIP3    H111733   0.346   1.441   4.550
 3909TIP3    H211734   0.273   1.491   4.674
 3910TIP3   OH211735   4.234   1.700   4.579
 3910TIP3    H111736   4.227   1.734   4.490
 3910TIP3    H211737   4.315   1.649   4.579
 3911TIP3   OH211738   2.235   4.416   3.321
 3911TIP3    H111739   2.199   4.495   3.280
 3911TIP3    H211740   2.265   4.445   3.407
 3912TIP3   OH211741   1.479   0.583   4.037
 3912TIP3    H111742   1.449   0.645   4.103
 3912TIP3    H211743   1.544   0.529   4.082
 3913TIP3   OH211744   1.529   5.567   4.777
 3913TIP3    H111745   1.594   5.529   4.718
 3913TIP3    H211746   1.519   5.657   4.747
 3914TIP3   OH211747   0.714   0.194   2.954
 3914TIP3    H111748   0.738   0.187   3.046
 3914TIP3    H211749   0.671   0.279   2.946
 3915TIP3   OH211750   6.165   5.198   2.542
 3915TIP3    H111751   6.113   5.196   2.461
 3915TIP3    H211752   6.245   5.246   2.518
 3916TIP3   OH211753   4.072   2.158   2.100
 3916TIP3    H111754   4.133   2.201   2.040
 3916TIP3    H211755   4.103   2.068   2.105
 3917TIP3   OH211756   1.336   5.507   2.514
 3917TIP3    H111757   1.365   5.496   2.424
 3917TIP3    H211758   1.241   5.502   2.509
 3918TIP3   OH211759   0.564   5.373   1.640
 3918TIP3    H111760   0.527   5.458   1.663
 3918TIP3    H211761   0.537   5.359   1.549
 3919TIP3   OH211762   5.038   0.592   4.287
 3919TIP3    H111763   5.018   0.509   4.331
 3919TIP3    H211764   5.073   0.565   4.202
 3920TIP3   OH211765   4.688   0.716   3.311
 3920TIP3    H111766   4.663   0.808   3.318
 3920TIP3    H211767   4.714   0.692   3.400
 3921TIP3   OH211768   0.831   1.929   3.339
 3921TIP3    H111769   0.859   2.016   3.312
 3921TIP3    H211770   0.741   1.941   3.369
 3922TIP3   OH211771   3.999   3.072   4.225
 3922TIP3    H111772   4.007   3.166   4.207
 3922TIP3    H211773   4.000   3.066   4.321
 3923TIP3   OH211774   2.418   3.019   2.130
 3923TIP3    H111775   2.336   3.056   2.162
 3923TIP3    H211776   2.392   2.970   2.052
 3924TIP3   OH211777   2.514   4.053   2.751
 3924TIP3    H111778   2.532   4.146   2.767
 3924TIP3    H211779   2.430   4.037   2.795
 3925TIP3   OH211780   5.050   5.075   1.390
 3925TIP3    H111781   5.041   4.990   1.431
 3925TIP3    H211782   5.098   5.058   1.309
 3926TIP3   OH211783   1.438   1.967   0.946
 3926TIP3    H111784   1.508   1.922   0.899
 3926TIP3    H211785   1.365   1.970   0.884
 3927TIP3   OH211786   5.919   4.635   3.111
 3927TIP3    H111787   5.854   4.699   3.080
 3927TIP3    H211788   5.902   4.556   3.058
 3928TIP3   OH211789   2.243   0.124   4.066
 3928TIP3    H111790   2.213   0.135   3.976
 3928TIP3    H211791   2.298   0.046   4.064
 3929TIP3   OH211792   0.039   1.932   1.394
 3929TIP3    H111793   0.127   1.924   1.359
 3929TIP3    H211794  -0.012   1.865   1.347
 3930TIP3   OH211795   1.943   3.177   2.802
 3930TIP3    H111796   1.969   3.269   2.804
 3930TIP3    H211797   1.880   3.171   2.730
 3931TIP3   OH211798   5.485   2.086   0.931
 3931TIP3    H111799   5.435   2.156   0.973
 3931TIP3    H211800   5.567   2.127   0.904
 3932TIP3   OH211801   3.894   1.087   4.291
 3932TIP3    H111802   3.916   1.038   4.212
 3932TIP3    H211803   3.804   1.117   4.276
 3933TIP3   OH211804   4.708   1.204   3.866
 3933TIP3    H111805   4.782   1.162   3.910
 3933TIP3    H211806   4.639   1.138   3.868
 3934TIP3   OH211807   6.135   2.950   3.061
 3934TIP3    H111808   6.137   2.865   3.018
 3934TIP3    H211809   6.146   3.013   2.990
 3935TIP3   OH211810   4.910   4.277   4.666
 3935TIP3    H111811   4.970   4.252   4.736
 3935TIP3    H211812   4.958   4.257   4.586
 3936TIP3   OH211813   1.059   1.845   2.027
 3936TIP3    H111814   0.989   1.907   2.045
 3936TIP3    H211815   1.023   1.760   2.051
 3937TIP3   OH211816   2.634   0.454   3.691
 3937TIP3    H111817   2.570   0.468   3.761
 3937TIP3    H211818   2.604   0.511   3.620
 3938TIP3   OH211819   3.027   1.276   4.436
 3938TIP3    H111820   3.034   1.240   4.524
 3938TIP3    H211821   3.043   1.370   4.447
 3939TIP3   OH211822   6.005   2.286   3.977
 3939TIP3    H111823   5.951   2.213   3.946
 3939TIP3    H211824   5.945   2.361   3.978
 3940TIP3   OH211825   4.176   5.679   2.114
 3940TIP3    H111826   4.184   5.741   2.042
 3940TIP3    H211827   4.218   5.723   2.188
 3941TIP3   OH211828   0.834   0.935   4.234
 3941TIP3    H111829   0.806   0.843   4.229
 3941TIP3    H211830   0.760   0.984   4.198
 3942TIP3   OH211831   3.298   4.011   2.294
 3942TIP3    H111832   3.210   3.997   2.258
 3942TIP3    H211833   3.349   3.937   2.263
 3943TIP3   OH211834   5.481   3.528   1.835
 3943TIP3    H111835   5.526   3.463   1.889
 3943TIP3    H211836   5.465   3.601   1.895
 3944TIP3   OH211837   0.470   5.611   0.830
 3944TIP3    H111838   0.431   5.698   0.821
 3944TIP3    H211839   0.397   5.550   0.820
 3945TIP3   OH211840   6.204   2.164   1.417
 3945TIP3    H111841   6.269   2.200   1.477
 3945TIP3    H211842   6.241   2.080   1.389
 3946TIP3   OH211843   1.683   4.178   2.664
 3946TIP3    H111844   1.759   4.154   2.611
 3946TIP3    H211845   1.641   4.249   2.614
 3947TIP3   OH211846   3.906   5.558   0.079
 3947TIP3    H111847   3.918   5.598   0.165
 3947TIP3    H211848   3.871   5.628   0.024
 3948TIP3   OH211849   3.651   4.642   2.298
 3948TIP3    H111850   3.581   4.657   2.234
 3948TIP3    H211851   3.611   4.584   2.363
 3949TIP3   OH211852   2.729   5.797   0.142
 3949TIP3    H111853   2.649   5.833   0.179
 3949TIP3    H211854   2.799   5.831   0.198
 3950TIP3   OH211855   2.918   0.051   0.266
 3950TIP3    H111856   2.928   0.031   0.359
 3950TIP3    H211857   2.938  -0.031   0.222
 3951TIP3   OH211858   2.767   3.086   2.689
 3951TIP3    H111859   2.755   3.174   2.722
 3951TIP3    H211860   2.783   3.033   2.767
 3952TIP3   OH211861   5.781   2.456   1.587
 3952TIP3    H111862   5.729   2.409   1.521
 3952TIP3    H211863   5.719   2.514   1.631
 3953TIP3   OH211864   4.559   3.468   4.350
 3953TIP3    H111865   4.474   3.425   4.336
 3953TIP3    H211866   4.539   3.540   4.409
 3954TIP3   OH211867   0.689   4.630   2.888
 3954TIP3    H111868   0.739   4.630   2.807
 3954TIP3    H211869   0.632   4.554   2.882
 3955TIP3   OH211870   5.739   0.116   4.794
 3955TIP3    H111871   5.791   0.058   4.849
 3955TIP3    H211872   5.682   0.058   4.744
 3956TIP3   OH211873   5.254   1.652   1.139
 3956TIP3    H111874   5.321   1.606   1.089
 3956TIP3    H211875   5.290   1.740   1.151
 3957TIP3   OH211876   4.822   0.738   4.825
 3957TIP3    H111877   4.799   0.652   4.790
 3957TIP3    H211878   4.745   0.792   4.806
 3958TIP3   OH211879   3.651   0.749   0.228
 3958TIP3    H111880   3.612   0.788   0.149
 3958TIP3    H211881   3.576   0.715   0.278
 3959TIP3   OH211882   1.278   5.625   1.793
 3959TIP3    H111883   1.251   5.639   1.884
 3959TIP3    H211884   1.271   5.530   1.781
 3960TIP3   OH211885   2.692   1.805   0.989
 3960TIP3    H111886   2.625   1.814   1.057
 3960TIP3    H211887   2.670   1.723   0.944
 3961TIP3   OH211888   1.258   4.967   1.446
 3961TIP3    H111889   1.163   4.957   1.447
 3961TIP3    H211890   1.281   4.965   1.353
 3962TIP3   OH211891   3.328   4.895   3.415
 3962TIP3    H111892   3.408   4.863   3.374
 3962TIP3    H211893   3.265   4.824   3.401
 3963TIP3   OH211894   0.853   1.666   4.234
 3963TIP3    H111895   0.929   1.614   4.259
 3963TIP3    H211896   0.798   1.604   4.186
 3964TIP3   OH211897   0.048   3.849   4.085
 3964TIP3    H111898   0.058   3.827   3.992
 3964TIP3    H211899   0.059   3.944   4.089
 3965TIP3   OH211900   6.330   1.384   0.795
 3965TIP3    H111901   6.326   1.293   0.824
 3965TIP3    H211902   6.312   1.435   0.875
 3966TIP3   OH211903   4.137   5.949   0.466
 3966TIP3    H111904   4.057   5.953   0.518
 3966TIP3    H211905   4.137   6.030   0.415
 3967TIP3   OH211906   5.379   2.522   4.508
 3967TIP3    H111907   5.438   2.570   4.450
 3967TIP3    H211908   5.294   2.566   4.498
 3968TIP3   OH211909   3.507   0.798   0.707
 3968TIP3    H111910   3.525   0.843   0.624
 3968TIP3    H211911   3.592   0.797   0.752
 3969TIP3   OH211912   5.469   5.383   2.561
 3969TIP3    H111913   5.514   5.301   2.539
 3969TIP3    H211914   5.453   5.424   2.476
 3970TIP3   OH211915   4.407   4.415   4.342
 3970TIP3    H111916   4.441   4.446   4.426
 3970TIP3    H211917   4.348   4.485   4.313
 3971TIP3   OH211918   0.850  -0.010   5.002
 3971TIP3    H111919   0.804   0.061   4.956
 3971TIP3    H211920   0.815  -0.008   5.091
 3972TIP3   OH211921   4.463   2.974   3.046
 3972TIP3    H111922   4.462   2.892   3.095
 3972TIP3    H211923   4.420   2.952   2.963
 3973TIP3   OH211924   5.408   5.861   1.322
 3973TIP3    H111925   5.356   5.936   1.349
 3973TIP3    H211926   5.344   5.796   1.292
 3974TIP3   OH211927   5.078   4.797   4.467
 3974TIP3    H111928   5.034   4.807   4.382
 3974TIP3    H211929   5.170   4.789   4.445
 3975TIP3   OH211930   1.011   4.118   2.760
 3975TIP3    H111931   1.057   4.117   2.676
 3975TIP3    H211932   1.049   4.046   2.809
 3976TIP3   OH211933   4.903   1.370   2.078
 3976TIP3    H111934   4.828   1.379   2.018
 3976TIP3    H211935   4.864   1.347   2.162
 3977TIP3   OH211936   5.743   3.680   1.964
 3977TIP3    H111937   5.805   3.750   1.943
 3977TIP3    H211938   5.779   3.602   1.922
 3978TIP3   OH211939   4.806   2.998   0.172
 3978TIP3    H111940   4.792   2.903   0.173
 3978TIP3    H211941   4.891   3.011   0.214
 3979TIP3   OH211942   0.576   0.946   3.339
 3979TIP3    H111943   0.592   0.954   3.245
 3979TIP3    H211944   0.579   1.036   3.371
 3980TIP3   OH211945   2.825   4.091   2.000
 3980TIP3    H111946   2.740   4.125   1.973
 3980TIP3    H211947   2.810   4.056   2.088
 3981TIP3   OH211948   5.214   1.116   0.167
 3981TIP3    H111949   5.163   1.041   0.199
 3981TIP3    H211950   5.305   1.090   0.181
 3982TIP3   OH211951   3.210   0.552   1.192
 3982TIP3    H111952   3.202   0.505   1.275
 3982TIP3    H211953   3.172   0.493   1.128
 3983TIP3   OH211954   2.543   3.806   3.195
 3983TIP3    H111955   2.585   3.826   3.278
 3983TIP3    H211956   2.570   3.716   3.176
 3984TIP3   OH211957   0.563   1.855   3.898
 3984TIP3    H111958   0.533   1.906   3.973
 3984TIP3    H211959   0.602   1.919   3.839
 3985TIP3   OH211960   4.763   0.443   4.979
 3985TIP3    H111961   4.796   0.503   5.046
 3985TIP3    H211962   4.695   0.493   4.935
 3986TIP3   OH211963   4.920   3.254   1.537
 3986TIP3    H111964   4.970   3.180   1.571
 3986TIP3    H211965   4.970   3.285   1.462
 3987TIP3   OH211966   5.720   4.554   2.786
 3987TIP3    H111967   5.672   4.634   2.807
 3987TIP3    H211968   5.745   4.563   2.694
 3988TIP3   OH211969   3.748   0.969   1.230
 3988TIP3    H111970   3.737   0.971   1.325
 3988TIP3    H211971   3.713   1.053   1.200
 3989TIP3   OH211972   1.506   5.659   0.094
 3989TIP3    H111973   1.553   5.604   0.031
 3989TIP3    H211974   1.427   5.687   0.048
 3990TIP3   OH211975   4.442   1.440   3.509
 3990TIP3    H111976   4.478   1.414   3.593
 3990TIP3    H211977   4.439   1.358   3.458
 3991TIP3   OH211978   2.846   5.911   1.716
 3991TIP3    H111979   2.911   5.851   1.752
 3991TIP3    H211980   2.872   5.997   1.748
 3992TIP3   OH211981   5.497   5.388   5.023
 3992TIP3    H111982   5.549   5.329   5.077
 3992TIP3    H211983   5.560   5.430   4.966
 3993TIP3   OH211984   4.658   1.867   4.040
 3993TIP3    H111985   4.725   1.886   4.106
 3993TIP3    H211986   4.588   1.823   4.087
 3994TIP3   OH211987   5.848   3.364   0.781
 3994TIP3    H111988   5.920   3.311   0.815
 3994TIP3    H211989   5.850   3.350   0.686
 3995TIP3   OH211990   0.281   2.944   3.430
 3995TIP3    H111991   0.284   2.852   3.455
 3995TIP3    H211992   0.193   2.973   3.454
 3996TIP3   OH211993   0.369   1.024   0.038
 3996TIP3    H111994   0.357   1.005  -0.055
 3996TIP3    H211995   0.393   1.116   0.041
 3997TIP3   OH211996   0.461   2.887   0.602
 3997TIP3    H111997   0.460   2.842   0.518
 3997TIP3    H211998   0.390   2.847   0.652
 3998TIP3   OH211999   0.908   2.646   3.348
 3998TIP3    H112000   0.873   2.561   3.323
 3998TIP3    H212001   0.974   2.627   3.414
 3999TIP3   OH212002   0.909   5.521   1.793
 3999TIP3    H112003   0.834   5.471   1.825
 3999TIP3    H212004   0.982   5.491   1.846
 4000TIP3   OH212005   4.595   5.053   3.139
 4000TIP3    H112006   4.652   5.083   3.210
 4000TIP3    H212007   4.643   4.980   3.100
 4001TIP3   OH212008   4.842   1.648   0.526
 4001TIP3    H112009   4.863   1.731   0.483
 4001TIP3    H212010   4.921   1.595   0.514
 4002TIP3   OH212011   0.784   2.970   0.054
 4002TIP3    H112012   0.877   2.973   0.076
 4002TIP3    H212013   0.782   2.979  -0.042
 4003TIP3   OH212014   4.526   3.300   0.579
 4003TIP3    H112015   4.503   3.246   0.654
 4003TIP3    H212016   4.537   3.388   0.615
 4004TIP3   OH212017   2.036   5.274   0.144
 4004TIP3    H112018   2.076   5.359   0.127
 4004TIP3    H212019   2.091   5.235   0.211
 4005TIP3   OH212020   5.312   2.233   2.643
 4005TIP3    H112021   5.289   2.157   2.589
 4005TIP3    H212022   5.404   2.251   2.621
 4006TIP3   OH212023   4.844   4.531   1.427
 4006TIP3    H112024   4.934   4.512   1.455
 4006TIP3    H212025   4.824   4.461   1.365
 4007TIP3   OH212026   4.740   2.717   3.102
 4007TIP3    H112027   4.729   2.811   3.094
 4007TIP3    H212028   4.693   2.693   3.181
 4008TIP3   OH212029   1.402   4.810   2.203
 4008TIP3    H112030   1.370   4.774   2.121
 4008TIP3    H212031   1.324   4.841   2.248
 4009TIP3   OH212032   1.461   1.110   4.021
 4009TIP3    H112033   1.371   1.089   3.998
 4009TIP3    H212034   1.509   1.029   4.007
 4010TIP3   OH212035   0.909   4.972   3.533
 4010TIP3    H112036   0.881   4.940   3.618
 4010TIP3    H212037   0.830   4.972   3.479
 4011TIP3   OH212038   5.363   4.618   2.499
 4011TIP3    H112039   5.282   4.593   2.543
 4011TIP3    H212040   5.420   4.648   2.570
 4012TIP3   OH212041   3.555   2.350   3.960
 4012TIP3    H112042   3.461   2.335   3.961
 4012TIP3    H212043   3.577   2.370   4.052
 4013TIP3   OH212044   4.102   5.874   4.317
 4013TIP3    H112045   4.122   5.791   4.273
 4013TIP3    H212046   4.026   5.908   4.270
 4014TIP3   OH212047   0.030   1.500   4.180
 4014TIP3    H112048   0.058   1.472   4.093
 4014TIP3    H212049  -0.059   1.532   4.168
 4015TIP3   OH212050   3.267   0.225   1.364
 4015TIP3    H112051   3.344   0.264   1.323
 4015TIP3    H212052   3.203   0.296   1.368
 4016TIP3   OH212053   3.633   1.680   2.004
 4016TIP3    H112054   3.630   1.773   2.029
 4016TIP3    H212055   3.571   1.638   2.063
 4017TIP3   OH212056   2.808   3.145   4.220
 4017TIP3    H112057   2.739   3.212   4.219
 4017TIP3    H212058   2.886   3.191   4.248
 4018TIP3   OH212059   5.685   5.796   2.828
 4018TIP3    H112060   5.702   5.765   2.739
 4018TIP3    H212061   5.768   5.833   2.858
 4019TIP3   OH212062   5.673   2.920   3.002
 4019TIP3    H112063   5.740   2.969   3.048
 4019TIP3    H212064   5.691   2.828   3.022
 4020TIP3   OH212065   5.403   4.415   3.779
 4020TIP3    H112066   5.467   4.483   3.802
 4020TIP3    H212067   5.396   4.420   3.684
 4021TIP3   OH212068   5.828   1.907   0.386
 4021TIP3    H112069   5.851   1.839   0.323
 4021TIP3    H212070   5.855   1.989   0.345
 4022TIP3   OH212071   1.608   3.501   2.385
 4022TIP3    H112072   1.620   3.407   2.371
 4022TIP3    H212073   1.603   3.537   2.297
 4023TIP3   OH212074   3.751   5.338   3.043
 4023TIP3    H112075   3.780   5.376   2.960
 4023TIP3    H212076   3.824   5.354   3.103
 4024TIP3   OH212077   0.275   1.488   2.954
 4024TIP3    H112078   0.312   1.539   2.882
 4024TIP3    H212079   0.351   1.459   3.004
 4025TIP3   OH212080   4.440   4.600   3.607
 4025TIP3    H112081   4.473   4.685   3.579
 4025TIP3    H212082   4.517   4.554   3.641
 4026TIP3   OH212083   0.877   5.966   1.651
 4026TIP3    H112084   0.817   5.894   1.671
 4026TIP3    H212085   0.946   5.926   1.598
 4027TIP3   OH212086   2.078   2.814   2.184
 4027TIP3    H112087   2.005   2.790   2.127
 4027TIP3    H212088   2.066   2.759   2.262
 4028TIP3   OH212089   0.744   1.868   2.354
 4028TIP3    H112090   0.709   1.859   2.265
 4028TIP3    H212091   0.834   1.836   2.348
 4029TIP3   OH212092   2.316   1.477   4.475
 4029TIP3    H112093   2.258   1.533   4.526
 4029TIP3    H212094   2.301   1.389   4.508
 4030TIP3   OH212095   2.511   4.766   0.609
 4030TIP3    H112096   2.601   4.761   0.577
 4030TIP3    H212097   2.469   4.832   0.554
 4031TIP3   OH212098   1.450   5.437   4.198
 4031TIP3    H112099   1.474   5.482   4.279
 4031TIP3    H212100   1.354   5.434   4.199
 4032TIP3   OH212101   4.153   0.924   4.532
 4032TIP3    H112102   4.059   0.904   4.535
 4032TIP3    H212103   4.167   0.960   4.444
 4033TIP3   OH212104   2.412   1.045   0.718
 4033TIP3    H112105   2.411   1.133   0.679
 4033TIP3    H212106   2.497   1.009   0.694
 4034TIP3   OH212107   3.803   5.745   3.890
 4034TIP3    H112108   3.748   5.688   3.836
 4034TIP3    H212109   3.742   5.784   3.953
 4035TIP3   OH212110   6.172   4.575   0.143
 4035TIP3    H112111   6.092   4.625   0.131
 4035TIP3    H212112   6.157   4.525   0.223
 4036TIP3   OH212113   3.139   2.306   1.302
 4036TIP3    H112114   3.063   2.320   1.246
 4036TIP3    H212115   3.214   2.317   1.244
 4037TIP3   OH212116   1.433   4.677   3.998
 4037TIP3    H112117   1.486   4.602   4.027
 4037TIP3    H212118   1.347   4.661   4.037
 4038TIP3   OH212119   0.075   0.736   1.042
 4038TIP3    H112120   0.051   0.788   1.119
 4038TIP3    H212121   0.102   0.801   0.977
 4039TIP3   OH212122   4.870   2.401   0.309
 4039TIP3    H112123   4.932   2.439   0.247
 4039TIP3    H212124   4.910   2.414   0.395
 4040TIP3   OH212125   3.012   1.000   2.849
 4040TIP3    H112126   2.917   0.990   2.843
 4040TIP3    H212127   3.024   1.082   2.898
 4041TIP3   OH212128   2.430   4.828   0.108
 4041TIP3    H112129   2.404   4.880   0.032
 4041TIP3    H212130   2.447   4.893   0.176
 4042TIP3   OH212131   5.011   5.783   1.554
 4042TIP3    H112132   4.969   5.720   1.495
 4042TIP3    H212133   5.009   5.866   1.506
 4043TIP3   OH212134   0.234   3.832   3.105
 4043TIP3    H112135   0.239   3.919   3.144
 4043TIP3    H212136   0.315   3.789   3.131
 4044TIP3   OH212137   4.107   1.662   2.423
 4044TIP3    H112138   4.012   1.652   2.432
 4044TIP3    H212139   4.124   1.643   2.331
 4045TIP3   OH212140   0.792   1.181   4.971
 4045TIP3    H112141   0.738   1.102   4.968
 4045TIP3    H212142   0.778   1.217   5.059
 4046TIP3   OH212143   2.139   0.802   5.037
 4046TIP3    H112144   2.185   0.877   4.999
 4046TIP3    H212145   2.102   0.835   5.119
 4047TIP3   OH212146   6.167   2.452   0.946
 4047TIP3    H112147   6.129   2.517   0.886
 4047TIP3    H212148   6.232   2.501   0.996
 4048TIP3   OH212149   4.280   1.157   3.489
 4048TIP3    H112150   4.194   1.165   3.530
 4048TIP3    H212151   4.300   1.063   3.494
 4049TIP3   OH212152   2.193   4.422   4.422
 4049TIP3    H112153   2.173   4.342   4.471
 4049TIP3    H212154   2.175   4.399   4.331
 4050TIP3   OH212155   0.063   5.275   4.884
 4050TIP3    H112156   0.044   5.362   4.920
 4050TIP3    H212157   0.116   5.232   4.951
 4051TIP3   OH212158   3.585   1.870   1.151
 4051TIP3    H112159   3.546   1.957   1.143
 4051TIP3    H212160   3.562   1.841   1.239
 4052TIP3   OH212161   5.995   1.002   3.634
 4052TIP3    H112162   5.914   0.971   3.594
 4052TIP3    H212163   6.065   0.964   3.580
 4053TIP3   OH212164   2.738   0.157   4.603
 4053TIP3    H112165   2.710   0.190   4.689
 4053TIP3    H212166   2.674   0.193   4.541
 4054TIP3   OH212167   2.817   5.748   2.224
 4054TIP3    H112168   2.745   5.698   2.187
 4054TIP3    H212169   2.798   5.839   2.202
 4055TIP3   OH212170   5.243   5.788   0.696
 4055TIP3    H112171   5.226   5.730   0.771
 4055TIP3    H212172   5.338   5.792   0.689
 4056TIP3   OH212173   3.535   1.127   0.768
 4056TIP3    H112174   3.611   1.075   0.795
 4056TIP3    H212175   3.573   1.202   0.722
 4057TIP3   OH212176   0.134   4.562   4.510
 4057TIP3    H112177   0.180   4.610   4.579
 4057TIP3    H212178   0.160   4.607   4.429
 4058TIP3   OH212179   2.220   2.740   1.494
 4058TIP3    H112180   2.254   2.703   1.576
 4058TIP3    H212181   2.233   2.671   1.429
 4059TIP3   OH212182   0.444   3.639   4.103
 4059TIP3    H112183   0.539   3.642   4.087
 4059TIP3    H212184   0.413   3.726   4.079
 4060TIP3   OH212185   4.354   2.281   2.306
 4060TIP3    H112186   4.266   2.310   2.332
 4060TIP3    H212187   4.367   2.199   2.353
 4061TIP3   OH212188   5.335   3.001   3.228
 4061TIP3    H112189   5.367   2.911   3.233
 4061TIP3    H212190   5.386   3.048   3.295
 4062TIP3   OH212191   4.669   0.859   3.811
 4062TIP3    H112192   4.661   0.767   3.838
 4062TIP3    H212193   4.602   0.904   3.862
 4063TIP3   OH212194   2.377   1.464   2.731
 4063TIP3    H112195   2.369   1.496   2.641
 4063TIP3    H212196   2.382   1.543   2.784
 4064TIP3   OH212197   3.478   4.307   2.981
 4064TIP3    H112198   3.423   4.263   2.916
 4064TIP3    H212199   3.535   4.238   3.015
 4065TIP3   OH212200   5.908   2.157   1.342
 4065TIP3    H112201   5.972   2.171   1.411
 4065TIP3    H212202   5.915   2.234   1.286
 4066TIP3   OH212203   2.102   3.038   4.249
 4066TIP3    H112204   2.093   3.115   4.306
 4066TIP3    H212205   2.025   2.985   4.270
 4067TIP3   OH212206   1.343   4.586   4.450
 4067TIP3    H112207   1.370   4.678   4.453
 4067TIP3    H212208   1.403   4.542   4.509
 4068TIP3   OH212209   0.269   2.782   1.552
 4068TIP3    H112210   0.230   2.814   1.633
 4068TIP3    H212211   0.220   2.826   1.483
 4069TIP3   OH212212   4.285   3.905   1.451
 4069TIP3    H112213   4.326   3.991   1.440
 4069TIP3    H212214   4.284   3.891   1.545
 4070TIP3   OH212215   1.749   1.751   0.431
 4070TIP3    H112216   1.759   1.744   0.336
 4070TIP3    H212217   1.660   1.722   0.449
 4071TIP3   OH212218   4.722   3.127   2.948
 4071TIP3    H112219   4.716   3.213   2.990
 4071TIP3    H212220   4.727   3.065   3.020
 4072TIP3   OH212221   4.486   4.935   2.049
 4072TIP3    H112222   4.479   4.944   1.954
 4072TIP3    H212223   4.427   5.003   2.083
 4073TIP3   OH212224   4.249   3.993   2.341
 4073TIP3    H112225   4.313   4.052   2.301
 4073TIP3    H212226   4.174   3.995   2.281
 4074TIP3   OH212227   5.897   0.185   1.209
 4074TIP3    H112228   5.915   0.262   1.155
 4074TIP3    H212229   5.871   0.220   1.294
 4075TIP3   OH212230   3.181   3.500   1.475
 4075TIP3    H112231   3.143   3.425   1.519
 4075TIP3    H212232   3.269   3.472   1.450
 4076TIP3   OH212233   1.124   5.462   0.398
 4076TIP3    H112234   1.076   5.476   0.317
 4076TIP3    H212235   1.214   5.445   0.370
 4077TIP3   OH212236   2.704   5.240   0.835
 4077TIP3    H112237   2.650   5.164   0.813
 4077TIP3    H212238   2.651   5.315   0.809
 4078TIP3   OH212239   3.504   2.106   2.016
 4078TIP3    H112240   3.470   2.190   2.046
 4078TIP3    H212241   3.497   2.110   1.921
 4079TIP3   OH212242   3.273   0.070   0.731
 4079TIP3    H112243   3.346   0.064   0.670
 4079TIP3    H212244   3.303   0.026   0.810
 4080TIP3   OH212245   2.643   4.282   2.378
 4080TIP3    H112246   2.636   4.186   2.379
 4080TIP3    H212247   2.558   4.312   2.410
 4081TIP3   OH212248   1.575   5.550   1.114
 4081TIP3    H112249   1.530   5.584   1.191
 4081TIP3    H212250   1.581   5.456   1.129
 4082TIP3   OH212251   3.763   3.297   4.083
 4082TIP3    H112252   3.821   3.311   4.158
 4082TIP3    H212253   3.737   3.385   4.056
 4083TIP3   OH212254   1.057   2.476   2.673
 4083TIP3    H112255   1.122   2.452   2.739
 4083TIP3    H212256   1.106   2.478   2.590
 4084TIP3   OH212257   4.432   4.085   2.883
 4084TIP3    H112258   4.442   4.177   2.909
 4084TIP3    H212259   4.341   4.064   2.903
 4085TIP3   OH212260   3.625   0.101   4.021
 4085TIP3    H112261   3.695   0.036   4.011
 4085TIP3    H212262   3.559   0.057   4.075
 4086TIP3   OH212263   5.149   5.227   4.401
 4086TIP3    H112264   5.150   5.321   4.417
 4086TIP3    H212265   5.227   5.195   4.446
 4087TIP3   OH212266   3.328   5.142   0.007
 4087TIP3    H112267   3.251   5.123   0.061
 4087TIP3    H212268   3.387   5.191   0.064
 4088TIP3   OH212269   0.004   1.089   1.188
 4088TIP3    H112270  -0.073   1.111   1.240
 4088TIP3    H212271   0.022   0.998   1.209
 4089TIP3   OH212272   3.660   3.067   2.635
 4089TIP3    H112273   3.649   3.123   2.559
 4089TIP3    H212274   3.610   3.110   2.704
 4090TIP3   OH212275   1.185   0.440   0.428
 4090TIP3    H112276   1.224   0.386   0.360
 4090TIP3    H212277   1.211   0.398   0.510
 4091TIP3   OH212278   2.296   4.635   0.805
 4091TIP3    H112279   2.324   4.598   0.889
 4091TIP3    H212280   2.357   4.599   0.741
 4092TIP3   OH212281   2.995   1.767   5.030
 4092TIP3    H112282   3.003   1.804   5.118
 4092TIP3    H212283   2.995   1.672   5.045
 4093TIP3   OH212284   2.866   0.857   2.078
 4093TIP3    H112285   2.811   0.785   2.048
 4093TIP3    H212286   2.906   0.892   1.998
 4094TIP3   OH212287   5.822   5.392   0.252
 4094TIP3    H112288   5.903   5.349   0.225
 4094TIP3    H212289   5.845   5.485   0.259
 4095TIP3   OH212290   2.206   2.473   4.929
 4095TIP3    H112291   2.246   2.389   4.909
 4095TIP3    H212292   2.262   2.510   4.998
 4096TIP3   OH212293   4.330   2.622   1.081
 4096TIP3    H112294   4.246   2.661   1.058
 4096TIP3    H212295   4.308   2.550   1.141
 4097TIP3   OH212296   2.203   2.455   2.454
 4097TIP3    H112297   2.244   2.519   2.513
 4097TIP3    H212298   2.273   2.393   2.433
 4098TIP3   OH212299   0.740   3.702   0.588
 4098TIP3    H112300   0.749   3.711   0.682
 4098TIP3    H212301   0.649   3.678   0.574
 4099TIP3   OH212302   4.608   5.527   2.456
 4099TIP3    H112303   4.630   5.442   2.494
 4099TIP3    H212304   4.545   5.565   2.517
 4100TIP3   OH212305   2.497   3.883   1.781
 4100TIP3    H112306   2.461   3.966   1.812
 4100TIP3    H212307   2.568   3.908   1.722
 4101TIP3   OH212308   1.990   2.093   1.334
 4101TIP3    H112309   1.947   2.170   1.298
 4101TIP3    H212310   1.985   2.105   1.429
 4102TIP3   OH212311   4.031   5.646   1.472
 4102TIP3    H112312   4.060   5.564   1.431
 4102TIP3    H212313   4.111   5.684   1.509
 4103TIP3   OH212314   0.982   3.048   0.928
 4103TIP3    H112315   1.004   2.985   0.996
 4103TIP3    H212316   1.029   3.017   0.850
 4104TIP3   OH212317   3.348   3.846   1.077
 4104TIP3    H112318   3.364   3.764   1.124
 4104TIP3    H212319   3.414   3.848   1.008
 4105TIP3   OH212320   6.248   2.887   4.658
 4105TIP3    H112321   6.171   2.849   4.700
 4105TIP3    H212322   6.218   2.914   4.571
 4106TIP3   OH212323   0.464   2.066   0.458
 4106TIP3    H112324   0.480   1.985   0.408
 4106TIP3    H212325   0.407   2.039   0.530
 4107TIP3   OH212326   1.493   0.146   1.875
 4107TIP3    H112327   1.432   0.194   1.819
 4107TIP3    H212328   1.578   0.188   1.860
 4108TIP3   OH212329   0.296   3.785   2.840
 4108TIP3    H112330   0.233   3.804   2.771
 4108TIP3    H212331   0.248   3.802   2.921
 4109TIP3   OH212332   2.104   0.478   2.553
 4109TIP3    H112333   2.077   0.455   2.464
 4109TIP3    H212334   2.172   0.414   2.575
 4110TIP3   OH212335   0.741   0.964   3.714
 4110TIP3    H112336   0.682   1.023   3.666
 4110TIP3    H212337   0.799   1.022   3.762
 4111TIP3   OH212338   5.214   5.881   4.221
 4111TIP3    H112339   5.149   5.952   4.228
 4111TIP3    H212340   5.280   5.902   4.286
 4112TIP3   OH212341   1.299   0.781   1.898
 4112TIP3    H112342   1.251   0.815   1.822
 4112TIP3    H212343   1.359   0.851   1.922
 4113TIP3   OH212344   4.398   5.740   1.265
 4113TIP3    H112345   4.360   5.677   1.326
 4113TIP3    H212346   4.388   5.699   1.179
 4114TIP3   OH212347   5.422   5.098   1.941
 4114TIP3    H112348   5.382   5.184   1.924
 4114TIP3    H212349   5.431   5.058   1.855
 4115TIP3   OH212350   6.097   0.173   5.007
 4115TIP3    H112351   6.083   0.266   4.986
 4115TIP3    H212352   6.063   0.163   5.096
 4116TIP3   OH212353   3.229   4.444   1.680
 4116TIP3    H112354   3.143   4.402   1.686
 4116TIP3    H212355   3.261   4.420   1.593
 4117TIP3   OH212356   5.380   1.970   3.759
 4117TIP3    H112357   5.399   2.051   3.713
 4117TIP3    H212358   5.462   1.949   3.805
 4118TIP3   OH212359   1.918   0.395   2.380
 4118TIP3    H112360   1.839   0.429   2.337
 4118TIP3    H212361   1.890   0.378   2.470
 4119TIP3   OH212362   0.430   5.682   3.922
 4119TIP3    H112363   0.437   5.776   3.937
 4119TIP3    H212364   0.410   5.645   4.008
 4120TIP3   OH212365   4.881   0.666   1.923
 4120TIP3    H112366   4.806   0.676   1.981
 4120TIP3    H212367   4.941   0.736   1.949
 4121TIP3   OH212368   2.299   5.913   5.008
 4121TIP3    H112369   2.247   5.863   4.946
 4121TIP3    H212370   2.303   6.001   4.970
 4122TIP3   OH212371   3.958   0.556   4.246
 4122TIP3    H112372   4.006   0.547   4.163
 4122TIP3    H212373   4.023   0.534   4.313
 4123TIP3   OH212374   2.551   0.471   0.073
 4123TIP3    H112375   2.494   0.407   0.114
 4123TIP3    H212376   2.555   0.443  -0.019
 4124TIP3   OH212377   2.115   0.816   4.359
 4124TIP3    H112378   2.094   0.869   4.436
 4124TIP3    H212379   2.032   0.808   4.312
 4125TIP3   OH212380   5.326   3.694   3.149
 4125TIP3    H112381   5.394   3.761   3.148
 4125TIP3    H212382   5.345   3.639   3.072
 4126TIP3   OH212383   0.154   3.425   1.056
 4126TIP3    H112384   0.152   3.517   1.028
 4126TIP3    H212385   0.174   3.429   1.149
 4127TIP3   OH212386   3.008   1.141   3.611
 4127TIP3    H112387   3.099   1.132   3.640
 4127TIP3    H212388   2.983   1.228   3.640
 4128TIP3   OH212389   4.222   3.170   2.279
 4128TIP3    H112390   4.316   3.150   2.284
 4128TIP3    H212391   4.211   3.245   2.338
 4129TIP3   OH212392   3.618   5.484   4.663
 4129TIP3    H112393   3.682   5.496   4.593
 4129TIP3    H212394   3.546   5.542   4.641
 4130TIP3   OH212395   1.619   4.067   3.126
 4130TIP3    H112396   1.633   4.048   3.033
 4130TIP3    H212397   1.651   3.989   3.171
 4131TIP3   OH212398   3.499   0.926   1.340
 4131TIP3    H112399   3.533   0.926   1.430
 4131TIP3    H212400   3.488   0.833   1.319
 4132TIP3   OH212401   2.847   4.892   4.701
 4132TIP3    H112402   2.799   4.959   4.750
 4132TIP3    H212403   2.855   4.819   4.762
 4133TIP3   OH212404   4.763   1.502   0.991
 4133TIP3    H112405   4.752   1.506   0.896
 4133TIP3    H212406   4.783   1.592   1.016
 4134TIP3   OH212407   5.104   5.683   2.141
 4134TIP3    H112408   5.161   5.693   2.217
 4134TIP3    H212409   5.149   5.730   2.071
 4135TIP3   OH212410   2.250   4.195   0.366
 4135TIP3    H112411   2.335   4.218   0.330
 4135TIP3    H212412   2.228   4.267   0.425
 4136TIP3   OH212413   1.330   2.954   3.856
 4136TIP3    H112414   1.414   3.000   3.854
 4136TIP3    H212415   1.337   2.888   3.787
 4137TIP3   OH212416   2.715   3.290   2.853
 4137TIP3    H112417   2.755   3.327   2.932
 4137TIP3    H212418   2.640   3.348   2.835
 4138TIP3   OH212419   1.813   0.090   0.020
 4138TIP3    H112420   1.886   0.067  -0.038
 4138TIP3    H212421   1.780   0.006   0.052
 4139TIP3   OH212422   3.193   2.612   3.121
 4139TIP3    H112423   3.167   2.646   3.036
 4139TIP3    H212424   3.221   2.522   3.103
 4140TIP3   OH212425   5.158   3.502   1.964
 4140TIP3    H112426   5.135   3.490   1.871
 4140TIP3    H212427   5.073   3.505   2.009
 4141TIP3   OH212428   4.949   2.985   1.013
 4141TIP3    H112429   4.874   2.927   1.011
 4141TIP3    H212430   4.914   3.070   1.039
 4142TIP3   OH212431   4.727   3.329   1.736
 4142TIP3    H112432   4.733   3.256   1.798
 4142TIP3    H212433   4.787   3.305   1.665
 4143TIP3   OH212434   1.929   1.770   3.074
 4143TIP3    H112435   2.022   1.783   3.057
 4143TIP3    H212436   1.887   1.781   2.988
 4144TIP3   OH212437   3.072   3.613   2.340
 4144TIP3    H112438   3.149   3.559   2.321
 4144TIP3    H212439   3.019   3.607   2.260
 4145TIP3   OH212440   3.886   1.877   4.657
 4145TIP3    H112441   3.979   1.899   4.669
 4145TIP3    H212442   3.874   1.874   4.562
 4146TIP3   OH212443   1.378   3.268   0.826
 4146TIP3    H112444   1.348   3.210   0.755
 4146TIP3    H212445   1.301   3.320   0.849
 4147TIP3   OH212446   1.524   4.703   3.223
 4147TIP3    H112447   1.567   4.689   3.307
 4147TIP3    H212448   1.550   4.792   3.198
 4148TIP3   OH212449   5.109   1.377   2.453
 4148TIP3    H112450   5.044   1.447   2.446
 4148TIP3    H212451   5.110   1.356   2.546
 4149TIP3   OH212452   1.575   2.523   2.127
 4149TIP3    H112453   1.669   2.533   2.141
 4149TIP3    H212454   1.563   2.542   2.034
 4150TIP3   OH212455   1.787   1.865   1.320
 4150TIP3    H112456   1.696   1.891   1.306
 4150TIP3    H212457   1.833   1.947   1.337
 4151TIP3   OH212458   0.675   1.525   2.243
 4151TIP3    H112459   0.675   1.467   2.319
 4151TIP3    H212460   0.590   1.512   2.202
 4152TIP3   OH212461   5.065   4.045   4.135
 4152TIP3    H112462   5.083   4.112   4.069
 4152TIP3    H212463   4.970   4.032   4.131
 4153TIP3   OH212464   3.011   2.755   3.330
 4153TIP3    H112465   3.082   2.814   3.354
 4153TIP3    H212466   3.054   2.676   3.300
 4154TIP3   OH212467   3.543   3.878   3.305
 4154TIP3    H112468   3.558   3.788   3.279
 4154TIP3    H212469   3.496   3.917   3.232
 4155TIP3   OH212470   2.941   4.576   1.240
 4155TIP3    H112471   2.991   4.597   1.160
 4155TIP3    H212472   2.867   4.637   1.239
 4156TIP3   OH212473   2.718   2.344   2.982
 4156TIP3    H112474   2.682   2.310   2.900
 4156TIP3    H212475   2.813   2.348   2.968
 4157TIP3   OH212476   2.264   4.529   1.066
 4157TIP3    H112477   2.293   4.580   1.142
 4157TIP3    H212478   2.183   4.572   1.037
 4158TIP3   OH212479   1.358   5.837   1.135
 4158TIP3    H112480   1.336   5.757   1.184
 4158TIP3    H212481   1.313   5.907   1.182
 4159TIP3   OH212482   2.722   1.518   3.351
 4159TIP3    H112483   2.636   1.553   3.328
 4159TIP3    H212484   2.769   1.593   3.388
 4160TIP3   OH212485   6.096   4.828   3.912
 4160TIP3    H112486   6.068   4.904   3.963
 4160TIP3    H212487   6.126   4.765   3.977
 4161TIP3   OH212488   4.879   3.403   5.026
 4161TIP3    H112489   4.953   3.356   4.989
 4161TIP3    H212490   4.835   3.443   4.950
 4162TIP3   OH212491   5.171   5.956   3.388
 4162TIP3    H112492   5.187   5.868   3.422
 4162TIP3    H212493   5.250   6.005   3.411
 4163TIP3   OH212494   1.092   3.791   1.899
 4163TIP3    H112495   1.116   3.730   1.830
 4163TIP3    H212496   1.121   3.877   1.868
 4164TIP3   OH212497   4.680   4.462   2.179
 4164TIP3    H112498   4.750   4.511   2.222
 4164TIP3    H212499   4.605   4.522   2.179
 4165TIP3   OH212500   6.212   5.725   2.960
 4165TIP3    H112501   6.154   5.796   2.932
 4165TIP3    H212502   6.187   5.708   3.051
 4166TIP3   OH212503   0.967   5.508   4.908
 4166TIP3    H112504   1.040   5.453   4.938
 4166TIP3    H212505   1.010   5.583   4.867
 4167TIP3   OH212506   4.841   5.111   2.488
 4167TIP3    H112507   4.897   5.055   2.542
 4167TIP3    H212508   4.836   5.066   2.404
 4168TIP3   OH212509   5.800   2.840   3.612
 4168TIP3    H112510   5.751   2.898   3.670
 4168TIP3    H212511   5.889   2.840   3.649
 4169TIP3   OH212512   0.216   0.779   0.099
 4169TIP3    H112513   0.307   0.751   0.112
 4169TIP3    H212514   0.215   0.870   0.130
 4170TIP3   OH212515   0.234   2.546   3.194
 4170TIP3    H112516   0.251   2.533   3.101
 4170TIP3    H212517   0.202   2.636   3.201
 4171TIP3   OH212518   4.282   5.746   2.387
 4171TIP3    H112519   4.265   5.655   2.413
 4171TIP3    H212520   4.377   5.751   2.376
 4172TIP3   OH212521   2.668   3.087   3.998
 4172TIP3    H112522   2.716   3.138   4.062
 4172TIP3    H212523   2.684   2.996   4.022
 4173TIP3   OH212524   1.804   4.515   4.812
 4173TIP3    H112525   1.811   4.565   4.893
 4173TIP3    H212526   1.868   4.445   4.821
 4174TIP3   OH212527   4.164   1.849   2.704
 4174TIP3    H112528   4.185   1.937   2.671
 4174TIP3    H212529   4.131   1.802   2.628
 4175TIP3   OH212530   1.714   1.729   0.162
 4175TIP3    H112531   1.742   1.649   0.118
 4175TIP3    H212532   1.622   1.740   0.138
 4176TIP3   OH212533   0.509   3.003   4.612
 4176TIP3    H112534   0.459   3.058   4.672
 4176TIP3    H212535   0.542   2.931   4.666
 4177TIP3   OH212536   1.443   4.977   0.911
 4177TIP3    H112537   1.518   4.921   0.888
 4177TIP3    H212538   1.368   4.918   0.913
 4178TIP3   OH212539   4.522   2.078   2.756
 4178TIP3    H112540   4.525   2.145   2.688
 4178TIP3    H212541   4.585   2.012   2.728
 4179TIP3   OH212542   6.202   0.676   1.662
 4179TIP3    H112543   6.279   0.629   1.631
 4179TIP3    H212544   6.172   0.627   1.738
 4180TIP3   OH212545   4.954   2.755   4.279
 4180TIP3    H112546   5.017   2.806   4.229
 4180TIP3    H212547   4.891   2.724   4.214
 4181TIP3   OH212548   2.960   1.292   1.349
 4181TIP3    H112549   2.978   1.357   1.281
 4181TIP3    H212550   2.993   1.210   1.312
 4182TIP3   OH212551   5.070   1.624   1.633
 4182TIP3    H112552   5.070   1.540   1.587
 4182TIP3    H212553   4.989   1.623   1.685
 4183TIP3   OH212554   5.118   1.096   2.861
 4183TIP3    H112555   5.058   1.032   2.899
 4183TIP3    H212556   5.177   1.045   2.806
 4184TIP3   OH212557   0.655   0.669   3.307
 4184TIP3    H112558   0.670   0.755   3.346
 4184TIP3    H212559   0.676   0.607   3.376
 4185TIP3   OH212560   5.898   4.809   2.295
 4185TIP3    H112561   5.977   4.805   2.241
 4185TIP3    H212562   5.844   4.737   2.263
 4186TIP3   OH212563   4.514   3.076   1.369
 4186TIP3    H112564   4.431   3.037   1.343
 4186TIP3    H212565   4.573   3.001   1.381
 4187TIP3   OH212566   2.698   3.582   4.272
 4187TIP3    H112567   2.741   3.643   4.211
 4187TIP3    H212568   2.725   3.612   4.359
 4188TIP3   OH212569   1.613   4.003   4.462
 4188TIP3    H112570   1.676   4.067   4.429
 4188TIP3    H212571   1.609   3.936   4.395
 4189TIP3   OH212572   1.652   0.519   2.973
 4189TIP3    H112573   1.717   0.579   2.937
 4189TIP3    H212574   1.600   0.572   3.032
 4190TIP3   OH212575   4.954   2.031   3.986
 4190TIP3    H112576   4.958   1.986   3.902
 4190TIP3    H212577   5.027   2.092   3.984
 4191TIP3   OH212578   4.519   5.942   2.296
 4191TIP3    H112579   4.614   5.934   2.310
 4191TIP3    H212580   4.491   6.012   2.355
 4192TIP3   OH212581   2.267   2.637   4.382
 4192TIP3    H112582   2.294   2.550   4.351
 4192TIP3    H212583   2.174   2.642   4.360
 4193TIP3   OH212584   3.939   0.320   0.700
 4193TIP3    H112585   3.874   0.267   0.746
 4193TIP3    H212586   4.020   0.308   0.750
 4194TIP3   OH212587   4.206   0.988   2.621
 4194TIP3    H112588   4.210   0.967   2.527
 4194TIP3    H212589   4.147   0.923   2.657
 4195TIP3   OH212590   4.686   2.742   2.743
 4195TIP3    H112591   4.612   2.784   2.700
 4195TIP3    H212592   4.758   2.805   2.734
 4196TIP3   OH212593   1.839   2.855   0.671
 4196TIP3    H112594   1.781   2.853   0.748
 4196TIP3    H212595   1.883   2.770   0.672
 4197TIP3   OH212596   1.372   5.594   1.541
 4197TIP3    H112597   1.340   5.504   1.547
 4197TIP3    H212598   1.339   5.635   1.621
 4198TIP3   OH212599   2.370   0.068   2.652
 4198TIP3    H112600   2.310  -0.006   2.647
 4198TIP3    H212601   2.444   0.043   2.597
 4199TIP3   OH212602   5.821   1.614   4.844
 4199TIP3    H112603   5.830   1.576   4.756
 4199TIP3    H212604   5.911   1.617   4.877
 4200TIP3   OH212605   5.758   0.870   3.248
 4200TIP3    H112606   5.678   0.820   3.262
 4200TIP3    H212607   5.808   0.859   3.329
 4201TIP3   OH212608   5.361   1.650   0.349
 4201TIP3    H112609   5.414   1.570   0.355
 4201TIP3    H212610   5.313   1.640   0.266
 4202TIP3   OH212611   0.590   3.644   0.987
 4202TIP3    H112612   0.560   3.553   0.982
 4202TIP3    H212613   0.514   3.695   0.959
 4203TIP3   OH212614   5.254   3.485   1.655
 4203TIP3    H112615   5.234   3.392   1.645
 4203TIP3    H212616   5.329   3.487   1.714
 4204TIP3   OH212617   3.891   5.113   1.274
 4204TIP3    H112618   3.901   5.203   1.303
 4204TIP3    H212619   3.980   5.085   1.250
 4205TIP3   OH212620   4.844   4.892   0.287
 4205TIP3    H112621   4.756   4.881   0.251
 4205TIP3    H212622   4.878   4.803   0.294
 4206TIP3   OH212623   3.269   0.936   2.977
 4206TIP3    H112624   3.286   0.844   2.959
 4206TIP3    H212625   3.198   0.960   2.917
 4207TIP3   OH212626   3.107   5.733   2.175
 4207TIP3    H112627   3.105   5.661   2.112
 4207TIP3    H212628   3.021   5.730   2.218
 4208TIP3   OH212629   3.807   3.910   0.024
 4208TIP3    H112630   3.751   3.978  -0.014
 4208TIP3    H212631   3.780   3.905   0.116
 4209TIP3   OH212632   5.630   4.111   0.472
 4209TIP3    H112633   5.650   4.195   0.512
 4209TIP3    H212634   5.537   4.096   0.492
 4210TIP3   OH212635   4.759   4.158   0.038
 4210TIP3    H112636   4.688   4.126   0.094
 4210TIP3    H212637   4.718   4.226  -0.016
 4211TIP3   OH212638   3.077   0.824   1.225
 4211TIP3    H112639   3.128   0.752   1.188
 4211TIP3    H212640   2.995   0.784   1.254
 4212TIP3   OH212641   3.797   4.679   4.954
 4212TIP3    H112642   3.841   4.601   4.987
 4212TIP3    H212643   3.757   4.652   4.871
 4213TIP3   OH212644   2.264   2.190   4.346
 4213TIP3    H112645   2.269   2.200   4.250
 4213TIP3    H212646   2.171   2.182   4.365
 4214TIP3   OH212647   2.174   5.724   2.390
 4214TIP3    H112648   2.104   5.672   2.352
 4214TIP3    H212649   2.254   5.682   2.360
 4215TIP3   OH212650   4.572   3.947   4.003
 4215TIP3    H112651   4.624   3.985   4.074
 4215TIP3    H212652   4.638   3.924   3.937
 4216TIP3   OH212653   3.738   2.850   5.079
 4216TIP3    H112654   3.787   2.809   5.008
 4216TIP3    H212655   3.782   2.820   5.159
 4217TIP3   OH212656   6.052   4.188   2.496
 4217TIP3    H112657   6.124   4.126   2.508
 4217TIP3    H212658   6.054   4.210   2.403
 4218TIP3   OH212659   1.412   1.026   2.820
 4218TIP3    H112660   1.348   0.981   2.764
 4218TIP3    H212661   1.385   1.118   2.817
 4219TIP3   OH212662   1.050   1.488   4.279
 4219TIP3    H112663   1.145   1.496   4.282
 4219TIP3    H212664   1.035   1.404   4.235
 4220TIP3   OH212665   0.508   3.797   2.669
 4220TIP3    H112666   0.456   3.797   2.750
 4220TIP3    H212667   0.598   3.814   2.698
 4221TIP3   OH212668   3.359   5.829   2.870
 4221TIP3    H112669   3.269   5.845   2.840
 4221TIP3    H212670   3.371   5.735   2.856
 4222TIP3   OH212671   6.188   3.168   2.543
 4222TIP3    H112672   6.206   3.249   2.495
 4222TIP3    H212673   6.093   3.157   2.535
 4223TIP3   OH212674   0.369   1.065   1.251
 4223TIP3    H112675   0.347   1.019   1.332
 4223TIP3    H212676   0.387   0.995   1.188
 4224TIP3   OH212677   3.573   5.686   1.962
 4224TIP3    H112678   3.587   5.761   1.904
 4224TIP3    H212679   3.660   5.665   1.995
 4225TIP3   OH212680   5.469   5.406   1.053
 4225TIP3    H112681   5.483   5.476   0.989
 4225TIP3    H212682   5.502   5.440   1.135
 4226TIP3   OH212683   2.039   3.298   2.320
 4226TIP3    H112684   2.100   3.326   2.251
 4226TIP3    H212685   2.030   3.204   2.306
 4227TIP3   OH212686   5.065   4.336   3.898
 4227TIP3    H112687   4.980   4.300   3.926
 4227TIP3    H212688   5.056   4.430   3.908
 4228TIP3   OH212689   5.288   5.030   0.773
 4228TIP3    H112690   5.215   5.082   0.808
 4228TIP3    H212691   5.277   4.944   0.814
 4229TIP3   OH212692   3.493   1.697   0.735
 4229TIP3    H112693   3.436   1.621   0.748
 4229TIP3    H212694   3.439   1.772   0.760
 4230TIP3   OH212695   6.348   4.812   0.696
 4230TIP3    H112696   6.280   4.838   0.758
 4230TIP3    H212697   6.301   4.770   0.624
 4231TIP3   OH212698   6.285   0.159   3.132
 4231TIP3    H112699   6.214   0.103   3.101
 4231TIP3    H212700   6.322   0.111   3.206
 4232TIP3   OH212701   5.849   3.258   3.056
 4232TIP3    H112702   5.894   3.254   2.971
 4232TIP3    H212703   5.853   3.168   3.089
 4233TIP3   OH212704   3.055   5.856   0.038
 4233TIP3    H112705   3.106   5.937   0.028
 4233TIP3    H212706   3.035   5.852   0.132
 4234TIP3   OH212707   2.320   0.857   1.983
 4234TIP3    H112708   2.342   0.764   1.976
 4234TIP3    H212709   2.350   0.881   2.071
 4235TIP3   OH212710   2.320   1.059   3.000
 4235TIP3    H112711   2.241   1.038   3.050
 4235TIP3    H212712   2.390   1.064   3.066
 4236TIP3   OH212713   5.185   0.565   1.526
 4236TIP3    H112714   5.100   0.610   1.527
 4236TIP3    H212715   5.163   0.474   1.549
 4237TIP3   OH212716   2.694   4.206   3.886
 4237TIP3    H112717   2.697   4.268   3.958
 4237TIP3    H212718   2.705   4.120   3.926
 4238TIP3   OH212719   2.045   1.041   3.567
 4238TIP3    H112720   1.965   1.057   3.515
 4238TIP3    H212721   2.031   1.091   3.647
 4239TIP3   OH212722   4.864   0.478   3.273
 4239TIP3    H112723   4.840   0.570   3.256
 4239TIP3    H212724   4.883   0.475   3.367
 4240TIP3   OH212725   1.493   1.262   3.020
 4240TIP3    H112726   1.578   1.282   3.059
 4240TIP3    H212727   1.495   1.168   3.004
 4241TIP3   OH212728   0.853   3.894   1.332
 4241TIP3    H112729   0.794   3.826   1.300
 4241TIP3    H212730   0.928   3.846   1.366
 4242TIP3   OH212731   5.757   1.822   2.708
 4242TIP3    H112732   5.853   1.829   2.708
 4242TIP3    H212733   5.731   1.860   2.792
 4243TIP3   OH212734   0.608   4.273   1.120
 4243TIP3    H112735   0.569   4.327   1.051
 4243TIP3    H212736   0.533   4.230   1.162
 4244TIP3   OH212737   3.738   3.801   2.579
 4244TIP3    H112738   3.648   3.815   2.551
 4244TIP3    H212739   3.764   3.720   2.535
 4245TIP3   OH212740   4.258   2.671   1.748
 4245TIP3    H112741   4.244   2.765   1.742
 4245TIP3    H212742   4.311   2.659   1.827
 4246TIP3   OH212743   0.525   5.699   3.560
 4246TIP3    H112744   0.486   5.786   3.546
 4246TIP3    H212745   0.450   5.640   3.567
 4247TIP3   OH212746   0.296   4.412   4.144
 4247TIP3    H112747   0.203   4.408   4.168
 4247TIP3    H212748   0.295   4.440   4.052
 4248TIP3   OH212749   5.922   5.004   0.168
 4248TIP3    H112750   5.945   5.049   0.087
 4248TIP3    H212751   5.841   4.957   0.147
 4249TIP3   OH212752   1.261   5.924   3.582
 4249TIP3    H112753   1.291   6.013   3.600
 4249TIP3    H212754   1.334   5.868   3.609
 4250TIP3   OH212755   1.786   3.783   0.755
 4250TIP3    H112756   1.870   3.774   0.711
 4250TIP3    H212757   1.721   3.763   0.687
 4251TIP3   OH212758   3.917   0.839   5.087
 4251TIP3    H112759   3.968   0.826   5.007
 4251TIP3    H212760   3.938   0.928   5.115
 4252TIP3   OH212761   4.978   5.461   2.751
 4252TIP3    H112762   4.973   5.516   2.829
 4252TIP3    H212763   5.021   5.515   2.685
 4253TIP3   OH212764   5.170   1.077   2.417
 4253TIP3    H112765   5.208   1.016   2.481
 4253TIP3    H212766   5.171   1.029   2.335
 4254TIP3   OH212767   2.637   2.202   0.258
 4254TIP3    H112768   2.601   2.215   0.346
 4254TIP3    H212769   2.600   2.274   0.206
 4255TIP3   OH212770   5.424   4.424   0.303
 4255TIP3    H112771   5.386   4.472   0.376
 4255TIP3    H212772   5.400   4.333   0.319
 4256TIP3   OH212773   5.369   0.629   0.659
 4256TIP3    H112774   5.441   0.643   0.598
 4256TIP3    H212775   5.358   0.534   0.660
 4257TIP3   OH212776   4.772   5.374   2.185
 4257TIP3    H112777   4.784   5.432   2.260
 4257TIP3    H212778   4.753   5.289   2.224
 4258TIP3   OH212779   1.034   2.529   2.211
 4258TIP3    H112780   1.110   2.502   2.262
 4258TIP3    H212781   1.022   2.458   2.148
 4259TIP3   OH212782   4.921   1.750   3.356
 4259TIP3    H112783   5.016   1.757   3.367
 4259TIP3    H212784   4.896   1.832   3.314
 4260TIP3   OH212785   5.527   0.971   1.622
 4260TIP3    H112786   5.550   0.878   1.619
 4260TIP3    H212787   5.604   1.014   1.659
 4261TIP3   OH212788   2.657   1.425   0.630
 4261TIP3    H112789   2.688   1.489   0.566
 4261TIP3    H212790   2.735   1.402   0.680
 4262TIP3   OH212791   5.699   0.860   0.285
 4262TIP3    H112792   5.792   0.854   0.304
 4262TIP3    H212793   5.693   0.857   0.190
 4263TIP3   OH212794   0.862   5.615   0.434
 4263TIP3    H112795   0.785   5.582   0.480
 4263TIP3    H212796   0.874   5.554   0.361
 4264TIP3   OH212797   4.754   2.678   1.679
 4264TIP3    H112798   4.674   2.731   1.686
 4264TIP3    H212799   4.746   2.633   1.596
 4265TIP3   OH212800   0.231   3.390   2.033
 4265TIP3    H112801   0.208   3.308   2.078
 4265TIP3    H212802   0.159   3.405   1.972
 4266TIP3   OH212803   2.176   2.026   4.564
 4266TIP3    H112804   2.253   1.972   4.547
 4266TIP3    H212805   2.113   2.000   4.497
 4267TIP3   OH212806  -0.037   2.710   2.942
 4267TIP3    H112807   0.000   2.761   2.870
 4267TIP3    H212808   0.032   2.711   3.009
 4268TIP3   OH212809   4.133   3.190   4.910
 4268TIP3    H112810   4.073   3.122   4.880
 4268TIP3    H212811   4.209   3.142   4.942
 4269TIP3   OH212812   0.574   3.772   4.494
 4269TIP3    H112813   0.538   3.700   4.546
 4269TIP3    H212814   0.600   3.731   4.412
 4270TIP3   OH212815   4.841   2.434   2.581
 4270TIP3    H112816   4.849   2.460   2.490
 4270TIP3    H212817   4.747   2.433   2.598
 4271TIP3   OH212818   0.280   1.530   0.153
 4271TIP3    H112819   0.259   1.614   0.194
 4271TIP3    H212820   0.220   1.467   0.195
 4272TIP3   OH212821   1.518   2.853   4.148
 4272TIP3    H112822   1.480   2.913   4.213
 4272TIP3    H212823   1.483   2.767   4.172
 4273TIP3   OH212824   0.370   5.946   1.771
 4273TIP3    H112825   0.312   5.912   1.703
 4273TIP3    H212826   0.391   6.035   1.742
 4274TIP3   OH212827   4.198   5.574   3.577
 4274TIP3    H112828   4.189   5.499   3.518
 4274TIP3    H212829   4.292   5.591   3.581
 4275TIP3   OH212830   2.000   4.755   1.933
 4275TIP3    H112831   2.019   4.678   1.987
 4275TIP3    H212832   2.043   4.736   1.850
 4276TIP3   OH212833   3.904   0.790   1.795
 4276TIP3    H112834   3.876   0.716   1.850
 4276TIP3    H212835   3.997   0.799   1.812
 4277TIP3   OH212836   5.266   3.062   4.886
 4277TIP3    H112837   5.236   3.151   4.900
 4277TIP3    H212838   5.224   3.035   4.804
 4278TIP3   OH212839   4.790   1.764   1.077
 4278TIP3    H112840   4.813   1.829   1.143
 4278TIP3    H212841   4.788   1.813   0.995
 4279TIP3   OH212842   5.560   5.890   0.325
 4279TIP3    H112843   5.553   5.968   0.381
 4279TIP3    H212844   5.593   5.923   0.242
 4280TIP3   OH212845   5.185   0.924   0.443
 4280TIP3    H112846   5.272   0.899   0.410
 4280TIP3    H212847   5.203   0.969   0.525
 4281TIP3   OH212848   4.204   0.055   2.135
 4281TIP3    H112849   4.177   0.114   2.205
 4281TIP3    H212850   4.273   0.001   2.175
 4282TIP3   OH212851   0.892   2.802   4.370
 4282TIP3    H112852   0.859   2.892   4.358
 4282TIP3    H212853   0.982   2.805   4.337
 4283TIP3   OH212854   4.553   1.010   3.462
 4283TIP3    H112855   4.646   0.993   3.444
 4283TIP3    H212856   4.540   1.101   3.435
 4284TIP3   OH212857   2.381   0.634   2.608
 4284TIP3    H112858   2.338   0.673   2.684
 4284TIP3    H212859   2.439   0.568   2.646
 4285TIP3   OH212860   5.184   4.106   1.531
 4285TIP3    H112861   5.106   4.058   1.558
 4285TIP3    H212862   5.248   4.091   1.600
 4286TIP3   OH212863   1.664   0.713   3.447
 4286TIP3    H112864   1.735   0.651   3.428
 4286TIP3    H212865   1.692   0.758   3.526
 4287TIP3   OH212866   1.026   2.244   1.871
 4287TIP3    H112867   0.995   2.262   1.782
 4287TIP3    H212868   0.947   2.222   1.920
 4288TIP3   OH212869   2.806   1.301   1.031
 4288TIP3    H112870   2.786   1.358   1.106
 4288TIP3    H212871   2.878   1.345   0.986
 4289TIP3   OH212872   2.299   2.759   0.744
 4289TIP3    H112873   2.384   2.770   0.702
 4289TIP3    H212874   2.319   2.733   0.834
 4290TIP3   OH212875   2.760   2.792   4.024
 4290TIP3    H112876   2.812   2.712   4.020
 4290TIP3    H212877   2.699   2.778   4.096
 4291TIP3   OH212878   0.304   4.219   0.282
 4291TIP3    H112879   0.324   4.132   0.316
 4291TIP3    H212880   0.299   4.207   0.187
 4292TIP3   OH212881   1.653   2.454   4.249
 4292TIP3    H112882   1.595   2.424   4.320
 4292TIP3    H212883   1.694   2.533   4.283
 4293TIP3   OH212884   1.612   2.276   4.039
 4293TIP3    H112885   1.647   2.187   4.044
 4293TIP3    H212886   1.635   2.316   4.123
 4294TIP3   OH212887   4.110   1.585   3.093
 4294TIP3    H112888   4.142   1.577   3.182
 4294TIP3    H212889   4.125   1.499   3.054
 4295TIP3   OH212890   5.538   0.560   1.942
 4295TIP3    H112891   5.462   0.591   1.893
 4295TIP3    H212892   5.562   0.477   1.901
 4296TIP3   OH212893   3.816   4.281   0.405
 4296TIP3    H112894   3.874   4.350   0.371
 4296TIP3    H212895   3.775   4.320   0.482
 4297TIP3   OH212896   5.312   4.298   1.172
 4297TIP3    H112897   5.389   4.284   1.117
 4297TIP3    H212898   5.309   4.392   1.187
 4298TIP3   OH212899   0.187   1.265   4.980
 4298TIP3    H112900   0.222   1.256   4.892
 4298TIP3    H212901   0.180   1.175   5.012
 4299TIP3   OH212902   0.032   1.271   3.552
 4299TIP3    H112903   0.054   1.363   3.566
 4299TIP3    H212904  -0.054   1.261   3.594
 4300TIP3   OH212905   4.381   2.697   4.579
 4300TIP3    H112906   4.350   2.642   4.508
 4300TIP3    H212907   4.302   2.724   4.625
 4301TIP3   OH212908   0.440   4.805   3.883
 4301TIP3    H112909   0.393   4.771   3.807
 4301TIP3    H212910   0.532   4.786   3.864
 4302TIP3   OH212911   4.205   5.859   1.898
 4302TIP3    H112912   4.165   5.942   1.871
 4302TIP3    H212913   4.293   5.884   1.928
 4303TIP3   OH212914   3.242   0.207   2.579
 4303TIP3    H112915   3.214   0.233   2.667
 4303TIP3    H212916   3.187   0.133   2.558
 4304TIP3   OH212917   2.217   3.739   3.777
 4304TIP3    H112918   2.157   3.715   3.848
 4304TIP3    H212919   2.161   3.785   3.714
 4305TIP3   OH212920   2.715   3.870   2.841
 4305TIP3    H112921   2.643   3.919   2.801
 4305TIP3    H212922   2.673   3.811   2.904
 4306TIP3   OH212923   3.991   0.383   2.292
 4306TIP3    H112924   3.975   0.293   2.320
 4306TIP3    H212925   4.010   0.377   2.199
 4307TIP3   OH212926   0.479   4.712   3.107
 4307TIP3    H112927   0.559   4.735   3.060
 4307TIP3    H212928   0.494   4.622   3.137
 4308TIP3   OH212929   4.498   3.568   2.840
 4308TIP3    H112930   4.443   3.503   2.884
 4308TIP3    H212931   4.570   3.517   2.803
 4309TIP3   OH212932   4.931   3.679   0.954
 4309TIP3    H112933   5.018   3.694   0.990
 4309TIP3    H212934   4.878   3.751   0.989
 4310TIP3   OH212935   5.976   3.006   3.905
 4310TIP3    H112936   5.978   3.031   3.998
 4310TIP3    H212937   6.035   2.931   3.900
 4311TIP3   OH212938   1.342   2.034   3.986
 4311TIP3    H112939   1.336   2.129   3.992
 4311TIP3    H212940   1.304   2.013   3.900
 4312TIP3   OH212941   3.805   0.552   0.983
 4312TIP3    H112942   3.764   0.625   1.029
 4312TIP3    H212943   3.755   0.475   1.013
 4313TIP3   OH212944   3.476   1.856   3.527
 4313TIP3    H112945   3.533   1.857   3.605
 4313TIP3    H212946   3.516   1.921   3.469
 4314TIP3   OH212947   0.860   4.639   3.104
 4314TIP3    H112948   0.934   4.696   3.082
 4314TIP3    H212949   0.805   4.641   3.025
 4315TIP3   OH212950   3.829   1.207   0.311
 4315TIP3    H112951   3.789   1.131   0.352
 4315TIP3    H212952   3.850   1.265   0.384
 4316TIP3   OH212953   5.803   1.019   2.885
 4316TIP3    H112954   5.880   1.047   2.836
 4316TIP3    H212955   5.806   0.923   2.882
 4317TIP3   OH212956   2.390   5.686   1.292
 4317TIP3    H112957   2.388   5.702   1.387
 4317TIP3    H212958   2.301   5.707   1.263
 4318TIP3   OH212959   4.599   4.197   1.247
 4318TIP3    H112960   4.542   4.204   1.323
 4318TIP3    H212961   4.683   4.231   1.278
 4319TIP3   OH212962   0.102   3.278   4.917
 4319TIP3    H112963   0.049   3.358   4.921
 4319TIP3    H212964   0.139   3.278   4.829
 4320TIP3   OH212965   3.916   2.117   3.929
 4320TIP3    H112966   3.882   2.191   3.880
 4320TIP3    H212967   4.009   2.138   3.944
 4321TIP3   OH212968   2.544   0.125   2.321
 4321TIP3    H112969   2.609   0.097   2.257
 4321TIP3    H212970   2.460   0.104   2.280
 4322TIP3   OH212971   6.277   3.792   0.689
 4322TIP3    H112972   6.309   3.706   0.715
 4322TIP3    H212973   6.186   3.778   0.663
 4323TIP3   OH212974   1.750   3.770   2.299
 4323TIP3    H112975   1.763   3.825   2.222
 4323TIP3    H212976   1.811   3.697   2.288
 4324TIP3   OH212977   2.583   5.926   3.721
 4324TIP3    H112978   2.530   5.850   3.746
 4324TIP3    H212979   2.546   5.954   3.637
 4325TIP3   OH212980   2.140   4.842   3.630
 4325TIP3    H112981   2.203   4.861   3.699
 4325TIP3    H212982   2.096   4.925   3.613
 4326TIP3   OH212983   1.701   5.317   0.722
 4326TIP3    H112984   1.647   5.293   0.797
 4326TIP3    H212985   1.658   5.276   0.647
 4327TIP3   OH212986   2.288   2.261   1.849
 4327TIP3    H112987   2.269   2.168   1.838
 4327TIP3    H212988   2.383   2.265   1.860
 4328TIP3   OH212989   1.544   0.966   0.762
 4328TIP3    H112990   1.564   0.987   0.671
 4328TIP3    H212991   1.602   1.023   0.813
 4329TIP3   OH212992   4.862   2.307   2.888
 4329TIP3    H112993   4.941   2.358   2.867
 4329TIP3    H212994   4.795   2.373   2.907
 4330TIP3   OH212995   3.849   1.569   2.482
 4330TIP3    H112996   3.873   1.487   2.524
 4330TIP3    H212997   3.753   1.565   2.473
 4331TIP3   OH212998   0.593   1.721   1.088
 4331TIP3    H112999   0.604   1.627   1.103
 4331TIP3    H213000   0.531   1.726   1.015
 4332TIP3   OH213001   0.454   0.070   5.003
 4332TIP3    H113002   0.460   0.023   4.920
 4332TIP3    H213003   0.515   0.144   4.993
 4333TIP3   OH213004   5.106   1.824   2.202
 4333TIP3    H113005   5.193   1.807   2.237
 4333TIP3    H213006   5.113   1.909   2.159
 4334TIP3   OH213007   3.390   5.464   1.514
 4334TIP3    H113008   3.418   5.556   1.515
 4334TIP3    H213009   3.462   5.418   1.471
 4335TIP3   OH213010   5.013   1.662   2.457
 4335TIP3    H113011   4.984   1.657   2.366
 4335TIP3    H213012   4.951   1.607   2.505
 4336TIP3   OH213013   2.994   3.772   2.538
 4336TIP3    H113014   3.031   3.708   2.476
 4336TIP3    H213015   3.054   3.846   2.535
 4337TIP3   OH213016   5.307   5.199   2.357
 4337TIP3    H113017   5.310   5.221   2.450
 4337TIP3    H213018   5.262   5.272   2.315
 4338TIP3   OH213019   2.365   1.672   0.309
 4338TIP3    H113020   2.457   1.691   0.324
 4338TIP3    H213021   2.341   1.611   0.379
 4339TIP3   OH213022   6.023   1.360   4.256
 4339TIP3    H113023   5.970   1.439   4.258
 4339TIP3    H213024   6.015   1.328   4.166
 4340TIP3   OH213025   3.188   0.841   0.542
 4340TIP3    H113026   3.144   0.914   0.586
 4340TIP3    H213027   3.124   0.810   0.477
 4341TIP3   OH213028   4.636   2.498   4.745
 4341TIP3    H113029   4.684   2.417   4.760
 4341TIP3    H213030   4.548   2.481   4.779
 4342TIP3   OH213031   2.345   1.992   2.536
 4342TIP3    H113032   2.424   1.940   2.532
 4342TIP3    H213033   2.340   2.036   2.451
 4343TIP3   OH213034   5.872   5.284   3.944
 4343TIP3    H113035   5.808   5.353   3.963
 4343TIP3    H213036   5.820   5.209   3.919
 4344TIP3   OH213037   4.950   4.975   4.103
 4344TIP3    H113038   5.041   4.960   4.131
 4344TIP3    H213039   4.954   4.972   4.007
 4345TIP3   OH213040   5.404   4.735   0.698
 4345TIP3    H113041   5.363   4.732   0.785
 4345TIP3    H213042   5.496   4.753   0.716
 4346TIP3   OH213043   2.382   0.383   1.225
 4346TIP3    H113044   2.385   0.467   1.271
 4346TIP3    H213045   2.474   0.363   1.206
 4347TIP3   OH213046   6.007   1.897   2.280
 4347TIP3    H113047   6.040   1.808   2.284
 4347TIP3    H213048   5.940   1.901   2.349
 4348TIP3   OH213049   5.769   0.650   3.935
 4348TIP3    H113050   5.770   0.564   3.976
 4348TIP3    H213051   5.846   0.694   3.971
 4349TIP3   OH213052   3.939   2.248   0.332
 4349TIP3    H113053   3.891   2.165   0.336
 4349TIP3    H213054   3.972   2.261   0.420
 4350TIP3   OH213055   5.407   5.924   1.763
 4350TIP3    H113056   5.456   5.847   1.734
 4350TIP3    H213057   5.466   5.997   1.749
 4351TIP3   OH213058   4.458   4.636   1.484
 4351TIP3    H113059   4.399   4.711   1.475
 4351TIP3    H213060   4.495   4.644   1.572
 4352TIP3   OH213061   2.600   3.166   0.683
 4352TIP3    H113062   2.646   3.250   0.685
 4352TIP3    H213063   2.513   3.186   0.717
 4353TIP3   OH213064   1.181   0.092   3.524
 4353TIP3    H113065   1.236   0.122   3.452
 4353TIP3    H213066   1.228   0.016   3.559
 4354TIP3   OH213067   3.749   1.198   3.053
 4354TIP3    H113068   3.672   1.199   3.110
 4354TIP3    H213069   3.732   1.268   2.989
 4355TIP3   OH213070   0.619   2.501   2.002
 4355TIP3    H113071   0.592   2.484   2.093
 4355TIP3    H213072   0.637   2.414   1.966
 4356TIP3   OH213073   0.021   0.285   0.798
 4356TIP3    H113074   0.077   0.239   0.860
 4356TIP3    H213075   0.032   0.378   0.819
 4357TIP3   OH213076   0.180   3.697   1.019
 4357TIP3    H113077   0.255   3.728   0.969
 4357TIP3    H213078   0.200   3.720   1.109
 4358TIP3   OH213079   4.600   1.098   0.163
 4358TIP3    H113080   4.639   1.052   0.088
 4358TIP3    H213081   4.510   1.117   0.134
 4359TIP3   OH213082   6.139   2.590   4.083
 4359TIP3    H113083   6.180   2.668   4.120
 4359TIP3    H213084   6.163   2.520   4.144
 4360TIP3   OH213085   5.557   4.152   3.631
 4360TIP3    H113086   5.530   4.238   3.601
 4360TIP3    H213087   5.561   4.160   3.726
 4361TIP3   OH213088   0.602   5.032   2.851
 4361TIP3    H113089   0.520   4.983   2.846
 4361TIP3    H213090   0.663   4.982   2.797
 4362TIP3   OH213091   1.067   0.904   2.512
 4362TIP3    H113092   1.140   0.878   2.567
 4362TIP3    H213093   1.081   0.856   2.430
 4363TIP3   OH213094   4.833   2.971   3.657
 4363TIP3    H113095   4.842   3.018   3.740
 4363TIP3    H213096   4.829   3.040   3.591
 4364TIP3   OH213097   2.662   0.719   1.983
 4364TIP3    H113098   2.669   0.772   1.904
 4364TIP3    H213099   2.580   0.672   1.974
 4365TIP3   OH213100   0.100   4.430   2.192
 4365TIP3    H113101   0.173   4.381   2.228
 4365TIP3    H213102   0.036   4.364   2.168
 4366TIP3   OH213103   2.289   3.297   4.168
 4366TIP3    H113104   2.343   3.267   4.242
 4366TIP3    H213105   2.255   3.217   4.129
 4367TIP3   OH213106   1.002   1.929   3.807
 4367TIP3    H113107   0.989   2.023   3.794
 4367TIP3    H213108   1.036   1.921   3.896
 4368TIP3   OH213109   6.150   5.782   3.895
 4368TIP3    H113110   6.120   5.816   3.979
 4368TIP3    H213111   6.239   5.818   3.886
 4369TIP3   OH213112   3.457   5.080   4.060
 4369TIP3    H113113   3.381   5.030   4.031
 4369TIP3    H213114   3.474   5.142   3.989
 4370TIP3   OH213115   1.569   5.467   3.676
 4370TIP3    H113116   1.571   5.485   3.582
 4370TIP3    H213117   1.603   5.547   3.716
 4371TIP3   OH213118   0.514   3.060   3.896
 4371TIP3    H113119   0.551   3.019   3.973
 4371TIP3    H213120   0.589   3.083   3.841
 4372TIP3   OH213121   0.132   4.572   0.474
 4372TIP3    H113122   0.127   4.605   0.384
 4372TIP3    H213123   0.225   4.554   0.488
 4373TIP3   OH213124   5.070   3.614   2.791
 4373TIP3    H113125   5.022   3.550   2.739
 4373TIP3    H213126   5.002   3.664   2.837
 4374TIP3   OH213127   4.214   3.138   3.671
 4374TIP3    H113128   4.276   3.200   3.632
 4374TIP3    H213129   4.149   3.123   3.603
 4375TIP3   OH213130   4.044   4.589   2.790
 4375TIP3    H113131   3.949   4.598   2.786
 4375TIP3    H213132   4.072   4.655   2.853
 4376TIP3   OH213133   0.704   0.140   2.513
 4376TIP3    H113134   0.790   0.173   2.488
 4376TIP3    H213135   0.711   0.126   2.608
 4377TIP3   OH213136   0.432   3.598   1.324
 4377TIP3    H113137   0.377   3.519   1.327
 4377TIP3    H213138   0.404   3.649   1.400
 4378TIP3   OH213139   5.197   3.592   2.318
 4378TIP3    H113140   5.185   3.661   2.383
 4378TIP3    H213141   5.239   3.520   2.366
 4379TIP3   OH213142   5.471   1.060   0.071
 4379TIP3    H113143   5.447   0.968   0.066
 4379TIP3    H213144   5.518   1.077  -0.011
 4380TIP3   OH213145   4.828   4.859   3.853
 4380TIP3    H113146   4.835   4.950   3.824
 4380TIP3    H213147   4.734   4.846   3.867
 4381TIP3   OH213148   5.050   1.159   1.670
 4381TIP3    H113149   5.113   1.220   1.708
 4381TIP3    H213150   5.065   1.077   1.716
 4382TIP3   OH213151   4.791   3.337   3.130
 4382TIP3    H113152   4.798   3.398   3.204
 4382TIP3    H213153   4.881   3.310   3.113
 4383TIP3   OH213154   2.619   0.042   0.622
 4383TIP3    H113155   2.669   0.096   0.560
 4383TIP3    H213156   2.550   0.002   0.569
 4384TIP3   OH213157   4.700   0.183   1.645
 4384TIP3    H113158   4.614   0.169   1.606
 4384TIP3    H213159   4.734   0.095   1.662
 4385TIP3   OH213160   3.834   3.553   3.223
 4385TIP3    H113161   3.897   3.618   3.253
 4385TIP3    H213162   3.814   3.501   3.301
 4386TIP3   OH213163   0.401   5.564   4.183
 4386TIP3    H113164   0.307   5.579   4.177
 4386TIP3    H213165   0.413   5.521   4.267
 4387TIP3   OH213166   5.914   5.693   2.683
 4387TIP3    H113167   5.840   5.685   2.623
 4387TIP3    H213168   5.972   5.756   2.642
 4388TIP3   OH213169   1.949   2.563   4.965
 4388TIP3    H113170   2.037   2.525   4.976
 4388TIP3    H213171   1.890   2.499   5.004
 4389TIP3   OH213172   2.903   4.893   1.172
 4389TIP3    H113173   2.810   4.894   1.147
 4389TIP3    H213174   2.947   4.940   1.102
 4390TIP3   OH213175   3.545   4.186   1.332
 4390TIP3    H113176   3.461   4.146   1.354
 4390TIP3    H213177   3.582   4.212   1.416
 4391TIP3   OH213178   3.368   1.105   2.318
 4391TIP3    H113179   3.378   1.026   2.265
 4391TIP3    H213180   3.274   1.119   2.323
 4392TIP3   OH213181   1.570   0.134   3.742
 4392TIP3    H113182   1.577   0.131   3.647
 4392TIP3    H213183   1.481   0.104   3.761
 4393TIP3   OH213184   0.601   4.681   0.971
 4393TIP3    H113185   0.568   4.597   0.937
 4393TIP3    H213186   0.695   4.666   0.983
 4394TIP3   OH213187   2.932   1.099   1.575
 4394TIP3    H113188   2.926   1.162   1.504
 4394TIP3    H213189   2.959   1.151   1.651
 4395TIP3   OH213190   0.193   4.972   1.762
 4395TIP3    H113191   0.142   5.044   1.726
 4395TIP3    H213192   0.200   4.909   1.690
 4396TIP3   OH213193   0.463   4.409   1.542
 4396TIP3    H113194   0.370   4.413   1.520
 4396TIP3    H213195   0.507   4.401   1.457
 4397TIP3   OH213196   5.131   2.424   3.745
 4397TIP3    H113197   5.129   2.431   3.650
 4397TIP3    H213198   5.223   2.431   3.769
 4398TIP3   OH213199   6.311   1.255   2.450
 4398TIP3    H113200   6.216   1.246   2.441
 4398TIP3    H213201   6.342   1.268   2.360
 4399TIP3   OH213202   0.911   4.863   2.913
 4399TIP3    H113203   0.864   4.847   2.831
 4399TIP3    H213204   0.992   4.813   2.904
 4400TIP3   OH213205   6.124   3.435   1.539
 4400TIP3    H113206   6.195   3.439   1.475
 4400TIP3    H213207   6.069   3.510   1.518
 4401TIP3   OH213208   4.687   2.980   2.005
 4401TIP3    H113209   4.604   2.991   2.052
 4401TIP3    H213210   4.717   2.893   2.031
 4402TIP3   OH213211   3.156   5.497   1.356
 4402TIP3    H113212   3.242   5.481   1.395
 4402TIP3    H213213   3.093   5.465   1.422
 4403TIP3   OH213214   2.125   3.607   1.624
 4403TIP3    H113215   2.055   3.611   1.559
 4403TIP3    H213216   2.109   3.681   1.682
 4404TIP3   OH213217   2.360   2.714   0.301
 4404TIP3    H113218   2.384   2.759   0.382
 4404TIP3    H213219   2.367   2.781   0.233
 4405TIP3   OH213220   2.211   3.131   5.076
 4405TIP3    H113221   2.208   3.207   5.135
 4405TIP3    H213222   2.302   3.102   5.080
 4406TIP3   OH213223   1.138   2.379   2.921
 4406TIP3    H113224   1.204   2.326   2.965
 4406TIP3    H213225   1.055   2.335   2.940
 4407TIP3   OH213226  -0.017   5.843   0.945
 4407TIP3    H113227  -0.075   5.823   1.019
 4407TIP3    H213228  -0.007   5.759   0.900
 4408TIP3   OH213229   4.490   0.516   0.769
 4408TIP3    H113230   4.553   0.542   0.835
 4408TIP3    H213231   4.450   0.599   0.740
 4409TIP3   OH213232   6.297   4.902   0.240
 4409TIP3    H113233   6.380   4.856   0.248
 4409TIP3    H213234   6.288   4.950   0.322
 4410TIP3   OH213235   2.067   5.895   2.602
 4410TIP3    H113236   2.130   5.967   2.610
 4410TIP3    H213237   2.087   5.855   2.517
 4411TIP3   OH213238   1.520   3.576   0.034
 4411TIP3    H113239   1.476   3.661   0.026
 4411TIP3    H213240   1.501   3.548   0.124
 4412TIP3   OH213241   3.953   0.456   4.817
 4412TIP3    H113242   3.914   0.381   4.772
 4412TIP3    H213243   3.909   0.532   4.779
 4413TIP3   OH213244   1.066   4.659   3.933
 4413TIP3    H113245   1.088   4.616   3.851
 4413TIP3    H213246   0.970   4.655   3.938
 4414TIP3   OH213247   1.854   2.255   0.415
 4414TIP3    H113248   1.946   2.275   0.432
 4414TIP3    H213249   1.819   2.334   0.374
 4415TIP3   OH213250   5.513   5.215   3.850
 4415TIP3    H113251   5.505   5.265   3.769
 4415TIP3    H213252   5.562   5.272   3.909
 4416TIP3   OH213253   1.665   0.267   0.177
 4416TIP3    H113254   1.698   0.202   0.116
 4416TIP3    H213255   1.663   0.222   0.262
 4417TIP3   OH213256   3.514   5.371   1.744
 4417TIP3    H113257   3.583   5.350   1.682
 4417TIP3    H213258   3.442   5.403   1.690
 4418TIP3   OH213259   1.526   1.293   0.560
 4418TIP3    H113260   1.607   1.323   0.520
 4418TIP3    H213261   1.468   1.275   0.485
 4419TIP3   OH213262   3.434   1.229   4.634
 4419TIP3    H113263   3.387   1.189   4.561
 4419TIP3    H213264   3.517   1.180   4.639
 4420TIP3   OH213265   0.352   5.087   2.574
 4420TIP3    H113266   0.389   5.171   2.600
 4420TIP3    H213267   0.399   5.062   2.495
 4421TIP3   OH213268   5.925   0.912   4.340
 4421TIP3    H113269   5.944   0.818   4.333
 4421TIP3    H213270   5.992   0.946   4.398
 4422TIP3   OH213271   5.617   1.293   3.533
 4422TIP3    H113272   5.610   1.251   3.619
 4422TIP3    H213273   5.537   1.268   3.487
 4423TIP3   OH213274   1.023   2.812   4.707
 4423TIP3    H113275   1.082   2.863   4.762
 4423TIP3    H213276   0.959   2.876   4.676
 4424TIP3   OH213277   1.809   5.799   2.425
 4424TIP3    H113278   1.798   5.813   2.519
 4424TIP3    H213279   1.720   5.787   2.393
 4425TIP3   OH213280   2.446   0.844   4.855
 4425TIP3    H113281   2.490   0.846   4.940
 4425TIP3    H213282   2.434   0.751   4.836
 4426TIP3   OH213283   6.056   1.829   2.629
 4426TIP3    H113284   6.124   1.769   2.661
 4426TIP3    H213285   6.103   1.909   2.606
 4427TIP3   OH213286   5.592   4.582   4.331
 4427TIP3    H113287   5.642   4.660   4.352
 4427TIP3    H213288   5.503   4.602   4.358
 4428TIP3   OH213289   0.768   3.531   4.753
 4428TIP3    H113290   0.687   3.563   4.792
 4428TIP3    H213291   0.828   3.518   4.826
 4429TIP3   OH213292   5.948   2.928   5.069
 4429TIP3    H113293   6.026   2.979   5.048
 4429TIP3    H213294   5.888   2.990   5.109
 4430TIP3   OH213295   1.495   4.896   4.125
 4430TIP3    H113296   1.472   4.814   4.082
 4430TIP3    H213297   1.570   4.929   4.075
 4431TIP3   OH213298   2.906   0.614   1.319
 4431TIP3    H113299   2.897   0.563   1.239
 4431TIP3    H213300   2.816   0.634   1.345
 4432TIP3   OH213301   3.249   1.840   2.445
 4432TIP3    H113302   3.300   1.766   2.477
 4432TIP3    H213303   3.303   1.877   2.375
 4433TIP3   OH213304   0.337   2.368   1.385
 4433TIP3    H113305   0.340   2.451   1.431
 4433TIP3    H213306   0.404   2.314   1.427
 4434TIP3   OH213307   4.806   2.765   4.754
 4434TIP3    H113308   4.790   2.804   4.668
 4434TIP3    H213309   4.728   2.714   4.773
 4435TIP3   OH213310   5.310   1.316   1.633
 4435TIP3    H113311   5.404   1.313   1.648
 4435TIP3    H213312   5.271   1.304   1.719
 4436TIP3   OH213313   4.339   0.975   4.722
 4436TIP3    H113314   4.331   1.068   4.743
 4436TIP3    H213315   4.285   0.963   4.644
 4437TIP3   OH213316   0.487   3.912   3.483
 4437TIP3    H113317   0.442   3.843   3.433
 4437TIP3    H213318   0.531   3.965   3.416
 4438TIP3   OH213319   0.692   5.131   2.179
 4438TIP3    H113320   0.709   5.185   2.255
 4438TIP3    H213321   0.651   5.190   2.116
 4439TIP3   OH213322   5.960   0.383   4.829
 4439TIP3    H113323   5.937   0.374   4.921
 4439TIP3    H213324   5.929   0.302   4.788
 4440TIP3   OH213325   2.941   0.271   3.624
 4440TIP3    H113326   3.011   0.256   3.560
 4440TIP3    H213327   2.963   0.355   3.664
 4441TIP3   OH213328   3.428   3.570   2.878
 4441TIP3    H113329   3.393   3.499   2.933
 4441TIP3    H213330   3.519   3.546   2.863
 4442TIP3   OH213331   3.459   0.875   3.187
 4442TIP3    H113332   3.428   0.911   3.104
 4442TIP3    H213333   3.495   0.789   3.165
 4443TIP3   OH213334   2.186   3.540   4.418
 4443TIP3    H113335   2.276   3.508   4.423
 4443TIP3    H213336   2.174   3.562   4.325
 4444TIP3   OH213337   3.655   3.574   4.093
 4444TIP3    H113338   3.698   3.619   4.166
 4444TIP3    H213339   3.586   3.633   4.064
 4445TIP3   OH213340   4.183   0.260   3.868
 4445TIP3    H113341   4.217   0.229   3.952
 4445TIP3    H213342   4.097   0.219   3.861
 4446TIP3   OH213343   5.621   4.904   2.218
 4446TIP3    H113344   5.654   4.869   2.135
 4446TIP3    H213345   5.539   4.857   2.232
 4447TIP3   OH213346   3.573   5.120   0.253
 4447TIP3    H113347   3.523   5.142   0.331
 4447TIP3    H213348   3.641   5.188   0.249
 4448TIP3   OH213349   1.715   2.424   2.803
 4448TIP3    H113350   1.737   2.476   2.881
 4448TIP3    H213351   1.627   2.391   2.822
 4449TIP3   OH213352   0.656   1.240   2.951
 4449TIP3    H113353   0.685   1.302   2.885
 4449TIP3    H213354   0.566   1.266   2.970
 4450TIP3   OH213355   2.235   5.074   2.659
 4450TIP3    H113356   2.330   5.065   2.654
 4450TIP3    H213357   2.201   4.991   2.624
 4451TIP3   OH213358   6.171   3.134   3.671
 4451TIP3    H113359   6.154   3.169   3.758
 4451TIP3    H213360   6.154   3.207   3.612
 4452TIP3   OH213361   0.101   4.528   3.630
 4452TIP3    H113362   0.079   4.447   3.585
 4452TIP3    H213363   0.023   4.583   3.621
 4453TIP3   OH213364   4.389   3.551   0.176
 4453TIP3    H113365   4.423   3.489   0.239
 4453TIP3    H213366   4.320   3.504   0.130
 4454TIP3   OH213367   4.256   3.572   1.116
 4454TIP3    H113368   4.317   3.619   1.172
 4454TIP3    H213369   4.310   3.537   1.045
 4455TIP3   OH213370   5.825   0.732   2.293
 4455TIP3    H113371   5.824   0.699   2.203
 4455TIP3    H213372   5.733   0.734   2.319
 4456TIP3   OH213373   5.417   5.488   2.313
 4456TIP3    H113374   5.445   5.575   2.283
 4456TIP3    H213375   5.323   5.485   2.293
 4457TIP3   OH213376   0.801   0.683   0.543
 4457TIP3    H113377   0.868   0.660   0.479
 4457TIP3    H213378   0.842   0.749   0.599
 4458TIP3   OH213379   3.813   0.244   1.570
 4458TIP3    H113380   3.846   0.334   1.557
 4458TIP3    H213381   3.871   0.206   1.636
 4459TIP3   OH213382   5.567   4.227   4.846
 4459TIP3    H113383   5.656   4.194   4.835
 4459TIP3    H213384   5.525   4.165   4.905
 4460TIP3   OH213385   2.514   5.103   2.287
 4460TIP3    H113386   2.493   5.078   2.377
 4460TIP3    H213387   2.578   5.038   2.258
 4461TIP3   OH213388   1.353   2.646   3.103
 4461TIP3    H113389   1.337   2.740   3.110
 4461TIP3    H213390   1.406   2.625   3.181
 4462TIP3   OH213391   5.807   2.847   0.613
 4462TIP3    H113392   5.872   2.814   0.551
 4462TIP3    H213393   5.740   2.778   0.615
 4463TIP3   OH213394   2.694   5.101   3.538
 4463TIP3    H113395   2.662   5.169   3.479
 4463TIP3    H213396   2.634   5.102   3.612
 4464TIP3   OH213397   1.304   0.278   0.216
 4464TIP3    H113398   1.240   0.283   0.145
 4464TIP3    H213399   1.365   0.209   0.188
 4465TIP3   OH213400   2.922   5.397   4.959
 4465TIP3    H113401   2.870   5.421   4.882
 4465TIP3    H213402   2.871   5.329   5.003
 4466TIP3   OH213403   5.932   3.488   0.324
 4466TIP3    H113404   5.988   3.511   0.249
 4466TIP3    H213405   5.871   3.561   0.331
 4467TIP3   OH213406   2.452   4.241   0.209
 4467TIP3    H113407   2.462   4.226   0.115
 4467TIP3    H213408   2.525   4.299   0.232
 4468TIP3   OH213409   2.099   0.266   4.465
 4468TIP3    H113410   2.083   0.173   4.481
 4468TIP3    H213411   2.094   0.276   4.370
 4469TIP3   OH213412   2.353   0.691   4.370
 4469TIP3    H113413   2.399   0.738   4.300
 4469TIP3    H213414   2.264   0.726   4.369
 4470TIP3   OH213415   6.222   1.026   0.633
 4470TIP3    H113416   6.166   1.095   0.669
 4470TIP3    H213417   6.188   1.011   0.545
 4471TIP3   OH213418   2.610   4.037   3.672
 4471TIP3    H113419   2.554   4.000   3.740
 4471TIP3    H213420   2.663   4.103   3.718
 4472TIP3   OH213421   6.023   1.516   0.757
 4472TIP3    H113422   6.027   1.421   0.768
 4472TIP3    H213423   6.114   1.544   0.757
 4473TIP3   OH213424   1.818   3.598   0.019
 4473TIP3    H113425   1.831   3.646   0.101
 4473TIP3    H213426   1.725   3.608  -0.001
 4474TIP3   OH213427   2.578   4.395   1.218
 4474TIP3    H113428   2.495   4.443   1.218
 4474TIP3    H213429   2.576   4.344   1.300
 4475TIP3   OH213430   4.892   2.534   3.875
 4475TIP3    H113431   4.985   2.519   3.860
 4475TIP3    H213432   4.880   2.517   3.968
 4476TIP3   OH213433   5.782   4.562   4.795
 4476TIP3    H113434   5.724   4.529   4.863
 4476TIP3    H213435   5.739   4.642   4.764
 4477TIP3   OH213436   0.434   1.377   5.095
 4477TIP3    H113437   0.501   1.322   5.135
 4477TIP3    H213438   0.375   1.315   5.051
 4478TIP3   OH213439   1.517   3.460   2.103
 4478TIP3    H113440   1.561   3.418   2.029
 4478TIP3    H213441   1.509   3.552   2.078
 4479TIP3   OH213442   3.267   1.602   0.520
 4479TIP3    H113443   3.186   1.552   0.528
 4479TIP3    H213444   3.240   1.693   0.515
 4480TIP3   OH213445   0.134   5.523   4.162
 4480TIP3    H113446   0.110   5.466   4.088
 4480TIP3    H213447   0.089   5.483   4.237
 4481TIP3   OH213448   3.264   2.090   4.537
 4481TIP3    H113449   3.222   2.049   4.612
 4481TIP3    H213450   3.207   2.164   4.516
 4482TIP3   OH213451   0.993   0.809   4.951
 4482TIP3    H113452   0.971   0.867   4.878
 4482TIP3    H213453   0.948   0.728   4.931
 4483TIP3   OH213454   4.442   2.897   0.999
 4483TIP3    H113455   4.399   2.827   0.949
 4483TIP3    H213456   4.391   2.904   1.080
 4484TIP3   OH213457   5.596   4.519   4.986
 4484TIP3    H113458   5.581   4.431   5.020
 4484TIP3    H213459   5.523   4.535   4.927
 4485TIP3   OH213460   0.083   5.565   2.780
 4485TIP3    H113461   0.178   5.559   2.786
 4485TIP3    H213462   0.065   5.654   2.749
 4486TIP3   OH213463   6.038   4.050   4.797
 4486TIP3    H113464   5.984   4.072   4.721
 4486TIP3    H213465   6.042   3.955   4.797
 4487TIP3   OH213466   3.492   3.512   2.080
 4487TIP3    H113467   3.493   3.465   2.163
 4487TIP3    H213468   3.542   3.592   2.097
 4488TIP3   OH213469   6.174   3.050   4.430
 4488TIP3    H113470   6.254   3.100   4.415
 4488TIP3    H213471   6.108   3.117   4.450
 4489TIP3   OH213472   3.477   3.060   4.334
 4489TIP3    H113473   3.424   3.125   4.286
 4489TIP3    H213474   3.522   3.011   4.265
 4490TIP3   OH213475   4.757   4.331   0.827
 4490TIP3    H113476   4.805   4.346   0.745
 4490TIP3    H213477   4.673   4.295   0.798
 4491TIP3   OH213478   1.324   3.648   1.175
 4491TIP3    H113479   1.377   3.569   1.188
 4491TIP3    H213480   1.298   3.644   1.083
 4492TIP3   OH213481   3.364   1.371   1.080
 4492TIP3    H113482   3.347   1.285   1.120
 4492TIP3    H213483   3.347   1.434   1.150
 4493TIP3   OH213484   5.029   0.338   3.034
 4493TIP3    H113485   5.005   0.396   3.107
 4493TIP3    H213486   5.124   0.347   3.028
 4494TIP3   OH213487   1.043   1.260   0.851
 4494TIP3    H113488   1.124   1.294   0.889
 4494TIP3    H213489   1.065   1.171   0.823
 4495TIP3   OH213490   1.430   0.050   1.382
 4495TIP3    H113491   1.372  -0.005   1.329
 4495TIP3    H213492   1.459  -0.007   1.453
 4496TIP3   OH213493   2.715   5.749   1.245
 4496TIP3    H113494   2.808   5.729   1.254
 4496TIP3    H213495   2.706   5.838   1.279
 4497TIP3   OH213496   5.044   0.248   3.346
 4497TIP3    H113497   4.951   0.225   3.350
 4497TIP3    H213498   5.046   0.343   3.342
 4498TIP3   OH213499   5.744   2.676   2.406
 4498TIP3    H113500   5.769   2.622   2.331
 4498TIP3    H213501   5.667   2.633   2.442
 4499TIP3   OH213502   5.939   0.217   0.634
 4499TIP3    H113503   5.908   0.236   0.545
 4499TIP3    H213504   5.993   0.139   0.624
 4500TIP3   OH213505   4.065   5.254   2.385
 4500TIP3    H113506   4.009   5.223   2.314
 4500TIP3    H213507   4.134   5.188   2.392
 4501TIP3   OH213508   2.581   2.625   1.144
 4501TIP3    H113509   2.661   2.595   1.186
 4501TIP3    H213510   2.514   2.621   1.213
 4502TIP3   OH213511   2.941   3.434   4.872
 4502TIP3    H113512   3.024   3.471   4.843
 4502TIP3    H213513   2.881   3.447   4.798
 4503TIP3   OH213514   0.234   0.589   0.400
 4503TIP3    H113515   0.288   0.582   0.322
 4503TIP3    H213516   0.232   0.501   0.436
 4504TIP3   OH213517   5.811   0.915   1.646
 4504TIP3    H113518   5.857   0.879   1.571
 4504TIP3    H213519   5.872   0.908   1.719
 4505TIP3   OH213520   0.870   5.780   2.153
 4505TIP3    H113521   0.859   5.875   2.152
 4505TIP3    H213522   0.793   5.746   2.109
 4506TIP3   OH213523   4.932   4.046   0.769
 4506TIP3    H113524   4.997   4.019   0.833
 4506TIP3    H213525   4.854   3.996   0.792
 4507TIP3   OH213526   1.148   3.125   3.341
 4507TIP3    H113527   1.137   3.029   3.340
 4507TIP3    H213528   1.060   3.158   3.361
 4508TIP3   OH213529   1.507   2.949   5.094
 4508TIP3    H113530   1.467   2.951   5.181
 4508TIP3    H213531   1.452   2.889   5.044
 4509TIP3   OH213532   1.731   1.625   3.234
 4509TIP3    H113533   1.725   1.699   3.295
 4509TIP3    H213534   1.796   1.653   3.169
 4510TIP3   OH213535   2.882   1.136   2.553
 4510TIP3    H113536   2.971   1.144   2.586
 4510TIP3    H213537   2.860   1.044   2.566
 4511TIP3   OH213538   5.591   1.132   3.752
 4511TIP3    H113539   5.538   1.069   3.703
 4511TIP3    H213540   5.584   1.103   3.843
 4512TIP3   OH213541   0.655   3.260   2.817
 4512TIP3    H113542   0.732   3.207   2.797
 4512TIP3    H213543   0.669   3.341   2.768
 4513TIP3   OH213544   0.395   2.156   1.044
 4513TIP3    H113545   0.394   2.083   0.982
 4513TIP3    H213546   0.307   2.157   1.082
 4514TIP3   OH213547   4.888   2.297   2.162
 4514TIP3    H113548   4.949   2.370   2.151
 4514TIP3    H213549   4.853   2.282   2.075
 4515TIP3   OH213550   2.431   2.704   2.296
 4515TIP3    H113551   2.379   2.755   2.358
 4515TIP3    H213552   2.482   2.645   2.351
 4516TIP3   OH213553   3.824   2.377   1.890
 4516TIP3    H113554   3.761   2.432   1.843
 4516TIP3    H213555   3.903   2.430   1.895
 4517TIP3   OH213556   5.389   2.967   2.941
 4517TIP3    H113557   5.352   2.971   3.029
 4517TIP3    H213558   5.455   2.898   2.946
 4518TIP3   OH213559   0.509   0.501   4.858
 4518TIP3    H113560   0.565   0.561   4.809
 4518TIP3    H213561   0.427   0.499   4.808
 4519TIP3   OH213562   4.930   2.863   3.386
 4519TIP3    H113563   4.976   2.782   3.363
 4519TIP3    H213564   4.933   2.866   3.482
 4520TIP3   OH213565   4.192   0.400   1.833
 4520TIP3    H113566   4.274   0.446   1.854
 4520TIP3    H213567   4.221   0.321   1.788
 4521TIP3   OH213568   2.391   3.994   4.298
 4521TIP3    H113569   2.361   4.084   4.282
 4521TIP3    H213570   2.433   3.997   4.383
 4522TIP3   OH213571   3.728   1.497   1.843
 4522TIP3    H113572   3.802   1.480   1.901
 4522TIP3    H213573   3.667   1.548   1.897
 4523TIP3   OH213574   5.700   2.980   2.168
 4523TIP3    H113575   5.792   2.970   2.194
 4523TIP3    H213576   5.698   2.949   2.077
 4524TIP3   OH213577   4.159   4.248   1.927
 4524TIP3    H113578   4.210   4.197   1.864
 4524TIP3    H213579   4.212   4.326   1.943
 4525TIP3   OH213580   2.069   0.626   0.720
 4525TIP3    H113581   1.993   0.662   0.673
 4525TIP3    H213582   2.040   0.539   0.749
 4526TIP3   OH213583   3.180   4.005   3.477
 4526TIP3    H113584   3.208   4.048   3.396
 4526TIP3    H213585   3.086   3.992   3.466
 4527TIP3   OH213586   2.649   0.674   4.649
 4527TIP3    H113587   2.575   0.630   4.690
 4527TIP3    H213588   2.657   0.633   4.563
 4528TIP3   OH213589   3.716   0.534   1.457
 4528TIP3    H113590   3.670   0.479   1.521
 4528TIP3    H213591   3.684   0.505   1.372
 4529TIP3   OH213592   6.209   5.478   1.960
 4529TIP3    H113593   6.302   5.474   1.983
 4529TIP3    H213594   6.203   5.432   1.876
 4530TIP3   OH213595   2.718   3.298   0.171
 4530TIP3    H113596   2.657   3.299   0.098
 4530TIP3    H213597   2.681   3.360   0.234
 4531TIP3   OH213598   3.029   2.589   4.249
 4531TIP3    H113599   3.013   2.589   4.155
 4531TIP3    H213600   3.010   2.678   4.277
 4532TIP3   OH213601   5.027   2.382   1.613
 4532TIP3    H113602   5.006   2.424   1.530
 4532TIP3    H213603   5.098   2.321   1.591
 4533TIP3   OH213604   2.394   4.946   0.434
 4533TIP3    H113605   2.331   4.897   0.382
 4533TIP3    H213606   2.401   5.031   0.389
 4534TIP3   OH213607   5.012   0.053   2.561
 4534TIP3    H113608   4.948   0.123   2.576
 4534TIP3    H213609   5.014   0.043   2.466
 4535TIP3   OH213610   2.481   3.632   3.702
 4535TIP3    H113611   2.489   3.621   3.607
 4535TIP3    H213612   2.396   3.676   3.713
 4536TIP3   OH213613   1.900   0.873   0.571
 4536TIP3    H113614   1.976   0.865   0.628
 4536TIP3    H213615   1.936   0.894   0.485
 4537TIP3   OH213616   6.220   1.770   4.134
 4537TIP3    H113617   6.215   1.710   4.060
 4537TIP3    H213618   6.310   1.762   4.166
 4538TIP3   OH213619   2.176   5.021   0.239
 4538TIP3    H113620   2.148   4.942   0.191
 4538TIP3    H213621   2.255   5.050   0.194
 4539TIP3   OH213622   5.426   2.249   1.937
 4539TIP3    H113623   5.352   2.193   1.913
 4539TIP3    H213624   5.497   2.222   1.879
 4540TIP3   OH213625   3.897   0.133   1.841
 4540TIP3    H113626   3.807   0.120   1.870
 4540TIP3    H213627   3.943   0.052   1.864
 4541TIP3   OH213628   3.074   3.831   1.310
 4541TIP3    H113629   3.083   3.886   1.232
 4541TIP3    H213630   2.998   3.775   1.291
 4542TIP3   OH213631   5.880   5.304   3.607
 4542TIP3    H113632   5.967   5.266   3.593
 4542TIP3    H213633   5.870   5.308   3.702
 4543TIP3   OH213634   4.960   4.542   2.245
 4543TIP3    H113635   5.045   4.524   2.286
 4543TIP3    H213636   4.981   4.590   2.165
 4544TIP3   OH213637   3.285   0.090   4.145
 4544TIP3    H113638   3.344   0.018   4.169
 4544TIP3    H213639   3.335   0.169   4.168
 4545TIP3   OH213640   5.489   4.087   1.315
 4545TIP3    H113641   5.538   4.018   1.359
 4545TIP3    H213642   5.474   4.054   1.226
 4546TIP3   OH213643   0.163   2.225   4.350
 4546TIP3    H113644   0.120   2.152   4.306
 4546TIP3    H213645   0.205   2.186   4.426
 4547TIP3   OH213646   0.501   2.176   2.680
 4547TIP3    H113647   0.542   2.100   2.639
 4547TIP3    H213648   0.562   2.202   2.749
 4548TIP3   OH213649   2.714   2.188   3.447
 4548TIP3    H113650   2.715   2.211   3.540
 4548TIP3    H213651   2.756   2.262   3.404
 4549TIP3   OH213652   3.994   2.923   1.813
 4549TIP3    H113653   4.037   2.938   1.898
 4549TIP3    H213654   3.906   2.894   1.836
 4550TIP3   OH213655   4.342   2.032   4.983
 4550TIP3    H113656   4.291   2.091   4.929
 4550TIP3    H213657   4.283   1.959   5.002
 4551TIP3   OH213658   4.817   5.333   1.043
 4551TIP3    H113659   4.829   5.248   1.085
 4551TIP3    H213660   4.724   5.338   1.023
 4552TIP3   OH213661   0.206   0.062   0.536
 4552TIP3    H113662   0.222   0.156   0.525
 4552TIP3    H213663   0.116   0.049   0.508
 4553TIP3   OH213664   4.594   1.448   1.958
 4553TIP3    H113665   4.641   1.527   1.986
 4553TIP3    H213666   4.501   1.471   1.970
 4554TIP3   OH213667   5.589   3.428   0.786
 4554TIP3    H113668   5.679   3.401   0.803
 4554TIP3    H213669   5.586   3.446   0.692
 4555TIP3   OH213670   2.062   5.816   5.196
 4555TIP3    H113671   2.117   5.830   5.118
 4555TIP3    H213672   2.005   5.893   5.200
 4556TIP3   OH213673   3.165   0.651   0.111
 4556TIP3    H113674   3.238   0.604   0.069
 4556TIP3    H213675   3.087   0.610   0.076
 4557TIP3   OH213676   3.813   3.612   3.836
 4557TIP3    H113677   3.772   3.541   3.787
 4557TIP3    H213678   3.802   3.589   3.928
 4558TIP3   OH213679   4.662   1.536   0.702
 4558TIP3    H113680   4.637   1.450   0.670
 4558TIP3    H213681   4.726   1.568   0.638
 4559TIP3   OH213682   3.101   0.428   2.443
 4559TIP3    H113683   3.095   0.435   2.538
 4559TIP3    H213684   3.151   0.348   2.428
 4560TIP3   OH213685   5.267   5.949   3.875
 4560TIP3    H113686   5.225   5.940   3.789
 4560TIP3    H213687   5.206   5.907   3.936
 4561TIP3   OH213688   4.782   5.630   4.760
 4561TIP3    H113689   4.816   5.542   4.750
 4561TIP3    H213690   4.750   5.634   4.850
 4562TIP3   OH213691   3.120   1.793   2.683
 4562TIP3    H113692   3.151   1.807   2.594
 4562TIP3    H213693   3.050   1.728   2.675
 4563TIP3   OH213694   2.754   5.128   1.887
 4563TIP3    H113695   2.770   5.074   1.964
 4563TIP3    H213696   2.813   5.092   1.820
 4564TIP3   OH213697   1.935   3.928   3.011
 4564TIP3    H113698   1.858   3.905   2.960
 4564TIP3    H213699   1.903   3.988   3.079
 4565TIP3   OH213700   0.296   0.850   2.074
 4565TIP3    H113701   0.201   0.861   2.067
 4565TIP3    H213702   0.331   0.929   2.033
 4566TIP3   OH213703   4.048   5.915   2.442
 4566TIP3    H113704   4.134   5.882   2.416
 4566TIP3    H213705   3.990   5.889   2.370
 4567TIP3   OH213706   2.788   4.531   0.136
 4567TIP3    H113707   2.799   4.618   0.098
 4567TIP3    H213708   2.703   4.533   0.179
 4568TIP3   OH213709   3.287   1.080   2.009
 4568TIP3    H113710   3.368   1.045   1.971
 4568TIP3    H213711   3.303   1.174   2.016
 4569TIP3   OH213712   2.857   2.958   0.093
 4569TIP3    H113713   2.782   2.978   0.149
 4569TIP3    H213714   2.929   3.009   0.129
 4570TIP3   OH213715   1.540   1.284   4.847
 4570TIP3    H113716   1.549   1.350   4.778
 4570TIP3    H213717   1.585   1.207   4.813
 4571TIP3   OH213718   3.468   0.555   2.498
 4571TIP3    H113719   3.517   0.577   2.578
 4571TIP3    H213720   3.389   0.609   2.502
 4572TIP3   OH213721   4.959   5.957   2.741
 4572TIP3    H113722   4.891   5.901   2.704
 4572TIP3    H213723   4.924   5.983   2.826
 4573TIP3   OH213724   1.393   3.625   3.972
 4573TIP3    H113725   1.371   3.647   4.062
 4573TIP3    H213726   1.408   3.530   3.973
 4574TIP3   OH213727   4.155   1.264   2.603
 4574TIP3    H113728   4.154   1.173   2.574
 4574TIP3    H213729   4.064   1.283   2.627
 4575TIP3   OH213730   2.286   0.286   2.504
 4575TIP3    H113731   2.371   0.321   2.479
 4575TIP3    H213732   2.307   0.209   2.557
 4576TIP3   OH213733   1.856   3.506   4.795
 4576TIP3    H113734   1.767   3.532   4.819
 4576TIP3    H213735   1.903   3.502   4.878
 4577TIP3   OH213736   5.471   5.539   1.977
 4577TIP3    H113737   5.415   5.497   1.912
 4577TIP3    H213738   5.518   5.467   2.019
 4578TIP3   OH213739   3.136   4.510   0.164
 4578TIP3    H113740   3.138   4.595   0.119
 4578TIP3    H213741   3.135   4.446   0.093
 4579TIP3   OH213742   3.542   5.171   3.791
 4579TIP3    H113743   3.505   5.132   3.712
 4579TIP3    H213744   3.618   5.221   3.760
 4580TIP3   OH213745   2.889   1.649   2.592
 4580TIP3    H113746   2.912   1.593   2.519
 4580TIP3    H213747   2.807   1.613   2.626
 4581TIP3   OH213748   0.026   2.011   4.195
 4581TIP3    H113749   0.076   1.932   4.178
 4581TIP3    H213750  -0.032   2.020   4.120
 4582TIP3   OH213751   0.209   3.514   0.689
 4582TIP3    H113752   0.123   3.495   0.727
 4582TIP3    H213753   0.189   3.549   0.602
 4583TIP3   OH213754   2.667   4.892   4.475
 4583TIP3    H113755   2.729   4.891   4.548
 4583TIP3    H213756   2.637   4.802   4.468
 4584TIP3   OH213757   0.493   3.197   2.076
 4584TIP3    H113758   0.450   3.230   1.997
 4584TIP3    H213759   0.507   3.104   2.058
 4585TIP3   OH213760   4.119   4.248   1.627
 4585TIP3    H113761   4.180   4.197   1.572
 4585TIP3    H213762   4.176   4.302   1.681
 4586TIP3   OH213763   1.070   4.523   4.516
 4586TIP3    H113764   1.140   4.563   4.463
 4586TIP3    H213765   1.068   4.432   4.487
 4587TIP3   OH213766   5.432   3.241   0.533
 4587TIP3    H113767   5.497   3.183   0.572
 4587TIP3    H213768   5.451   3.240   0.439
 4588TIP3   OH213769   0.073   5.205   1.018
 4588TIP3    H113770   0.143   5.159   1.065
 4588TIP3    H213771   0.053   5.281   1.073
 4589TIP3   OH213772   2.908   1.679   3.784
 4589TIP3    H113773   2.839   1.687   3.850
 4589TIP3    H213774   2.958   1.760   3.792
 4590TIP3   OH213775   6.020   2.268   3.144
 4590TIP3    H113776   5.957   2.313   3.200
 4590TIP3    H213777   6.047   2.334   3.080
 4591TIP3   OH213778   1.044   1.972   5.044
 4591TIP3    H113779   1.112   2.029   5.082
 4591TIP3    H213780   0.991   2.031   4.990
 4592TIP3   OH213781   5.876   4.955   2.965
 4592TIP3    H113782   5.825   4.887   3.009
 4592TIP3    H213783   5.951   4.970   3.022
 4593TIP3   OH213784   0.807   5.801   3.977
 4593TIP3    H113785   0.830   5.709   3.967
 4593TIP3    H213786   0.726   5.799   4.028
 4594TIP3   OH213787   2.466   4.156   1.089
 4594TIP3    H113788   2.461   4.083   1.151
 4594TIP3    H213789   2.533   4.214   1.126
 4595TIP3   OH213790   2.774   0.568   2.604
 4595TIP3    H113791   2.753   0.661   2.599
 4595TIP3    H213792   2.860   0.561   2.562
 4596TIP3   OH213793   0.221   4.916   4.841
 4596TIP3    H113794   0.295   4.975   4.827
 4596TIP3    H213795   0.144   4.971   4.832
 4597TIP3   OH213796   2.853   0.941   2.333
 4597TIP3    H113797   2.867   0.941   2.239
 4597TIP3    H213798   2.901   1.018   2.364
 4598TIP3   OH213799   6.279   2.820   3.315
 4598TIP3    H113800   6.315   2.879   3.380
 4598TIP3    H213801   6.224   2.875   3.260
 4599TIP3   OH213802   2.157   5.203   0.944
 4599TIP3    H113803   2.176   5.165   0.858
 4599TIP3    H213804   2.062   5.202   0.950
 4600TIP3   OH213805   4.546   2.250   2.516
 4600TIP3    H113806   4.541   2.346   2.512
 4600TIP3    H213807   4.622   2.228   2.462
 4601TIP3   OH213808   6.317   4.052   0.806
 4601TIP3    H113809   6.321   3.959   0.782
 4601TIP3    H213810   6.242   4.086   0.759
 4602TIP3   OH213811   5.522   2.284   0.632
 4602TIP3    H113812   5.517   2.377   0.653
 4602TIP3    H213813   5.557   2.243   0.712
 4603TIP3   OH213814   2.094   3.908   2.587
 4603TIP3    H113815   2.087   3.947   2.500
 4603TIP3    H213816   2.043   3.965   2.644
 4604TIP3   OH213817   1.410   5.081   2.900
 4604TIP3    H113818   1.405   5.043   2.812
 4604TIP3    H213819   1.471   5.024   2.947
 4605TIP3   OH213820   3.699   4.757   3.424
 4605TIP3    H113821   3.723   4.843   3.457
 4605TIP3    H213822   3.779   4.705   3.433
 4606TIP3   OH213823   4.953   5.448   1.978
 4606TIP3    H113824   5.003   5.516   2.023
 4606TIP3    H213825   4.893   5.415   2.045
 4607TIP3   OH213826   1.377   2.652   2.254
 4607TIP3    H113827   1.456   2.606   2.225
 4607TIP3    H213828   1.393   2.670   2.347
 4608TIP3   OH213829   1.501   2.005   5.105
 4608TIP3    H113830   1.498   2.027   5.012
 4608TIP3    H213831   1.428   2.054   5.144
 4609TIP3   OH213832   5.088   1.534   0.452
 4609TIP3    H113833   5.171   1.579   0.438
 4609TIP3    H213834   5.093   1.456   0.397
 4610TIP3   OH213835   3.026   1.356   2.045
 4610TIP3    H113836   3.015   1.410   2.123
 4610TIP3    H213837   2.955   1.292   2.051
 4611TIP3   OH213838   1.306   2.439   3.391
 4611TIP3    H113839   1.336   2.528   3.372
 4611TIP3    H213840   1.235   2.423   3.329
 4612TIP3   OH213841   1.706   1.087   3.767
 4612TIP3    H113842   1.661   1.090   3.851
 4612TIP3    H213843   1.712   0.994   3.746
 4613TIP3   OH213844   5.487   3.195   0.250
 4613TIP3    H113845   5.447   3.277   0.222
 4613TIP3    H213846   5.532   3.162   0.173
 4614TIP3   OH213847   0.407   1.713   0.847
 4614TIP3    H113848   0.334   1.693   0.788
 4614TIP3    H213849   0.484   1.713   0.790
 4615TIP3   OH213850   1.361   4.131   2.690
 4615TIP3    H113851   1.451   4.139   2.720
 4615TIP3    H213852   1.343   4.037   2.692
 4616TIP3   OH213853   0.979   0.051   0.530
 4616TIP3    H113854   0.964  -0.041   0.553
 4616TIP3    H213855   0.963   0.099   0.611
 4617TIP3   OH213856   4.147   1.581   4.198
 4617TIP3    H113857   4.055   1.585   4.222
 4617TIP3    H213858   4.181   1.668   4.219
 4618TIP3   OH213859   1.190   1.012   0.796
 4618TIP3    H113860   1.226   1.031   0.882
 4618TIP3    H213861   1.251   0.948   0.758
 4619TIP3   OH213862   1.561   2.934   2.563
 4619TIP3    H113863   1.598   3.013   2.603
 4619TIP3    H213864   1.526   2.963   2.479
 4620TIP3   OH213865   5.946   2.204   2.016
 4620TIP3    H113866   5.899   2.226   1.936
 4620TIP3    H213867   5.902   2.126   2.049
 4621TIP3   OH213868   2.233   2.895   4.923
 4621TIP3    H113869   2.321   2.894   4.884
 4621TIP3    H213870   2.218   2.986   4.946
 4622TIP3   OH213871   3.434   4.657   0.086
 4622TIP3    H113872   3.425   4.606   0.167
 4622TIP3    H213873   3.525   4.642   0.058
 4623TIP3   OH213874   5.400   4.883   4.053
 4623TIP3    H113875   5.387   4.977   4.065
 4623TIP3    H213876   5.484   4.877   4.008
 4624TIP3   OH213877   6.009   3.731   1.704
 4624TIP3    H113878   6.103   3.739   1.688
 4624TIP3    H213879   5.969   3.801   1.652
 4625TIP3   OH213880   5.130   4.849   3.196
 4625TIP3    H113881   5.164   4.892   3.275
 4625TIP3    H213882   5.053   4.802   3.226
 4626TIP3   OH213883   2.852   5.309   0.504
 4626TIP3    H113884   2.826   5.399   0.486
 4626TIP3    H213885   2.783   5.256   0.463
 4627TIP3   OH213886   4.415   1.019   2.819
 4627TIP3    H113887   4.479   0.953   2.793
 4627TIP3    H213888   4.356   1.027   2.744
 4628TIP3   OH213889   2.376   5.803   0.694
 4628TIP3    H113890   2.283   5.783   0.684
 4628TIP3    H213891   2.420   5.746   0.631
 4629TIP3   OH213892   1.145   4.361   1.997
 4629TIP3    H113893   1.069   4.350   1.941
 4629TIP3    H213894   1.129   4.443   2.043
 4630TIP3   OH213895   3.925   3.314   2.514
 4630TIP3    H113896   3.958   3.225   2.517
 4630TIP3    H213897   3.990   3.366   2.562
 4631TIP3   OH213898   4.540   4.649   0.363
 4631TIP3    H113899   4.550   4.685   0.274
 4631TIP3    H213900   4.583   4.713   0.419
 4632TIP3   OH213901   1.959   4.351   2.842
 4632TIP3    H113902   1.992   4.333   2.931
 4632TIP3    H213903   1.945   4.445   2.841
 4633TIP3   OH213904   4.182   4.086   2.972
 4633TIP3    H113905   4.106   4.077   3.028
 4633TIP3    H213906   4.177   4.175   2.937
 4634TIP3   OH213907   2.356   4.651   1.285
 4634TIP3    H113908   2.376   4.744   1.297
 4634TIP3    H213909   2.287   4.633   1.348
 4635TIP3   OH213910   3.180   4.884   4.573
 4635TIP3    H113911   3.119   4.953   4.600
 4635TIP3    H213912   3.265   4.915   4.602
 4636TIP3   OH213913   1.826   0.043   3.114
 4636TIP3    H113914   1.797   0.127   3.150
 4636TIP3    H213915   1.922   0.050   3.112
 4637TIP3   OH213916   1.556   1.793   4.610
 4637TIP3    H113917   1.477   1.779   4.662
 4637TIP3    H213918   1.607   1.856   4.661
 4638TIP3   OH213919   1.478   5.897   3.294
 4638TIP3    H113920   1.403   5.892   3.234
 4638TIP3    H213921   1.521   5.812   3.287
 4639TIP3   OH213922   6.152   0.783   4.594
 4639TIP3    H113923   6.096   0.860   4.591
 4639TIP3    H213924   6.114   0.728   4.663
 4640TIP3   OH213925   0.515   2.072   1.275
 4640TIP3    H113926   0.608   2.091   1.287
 4640TIP3    H213927   0.492   2.113   1.192
 4641TIP3   OH213928   4.337   5.904   2.613
 4641TIP3    H113929   4.346   5.998   2.596
 4641TIP3    H213930   4.298   5.869   2.533
 4642TIP3   OH213931   0.380   2.039   4.070
 4642TIP3    H113932   0.424   2.034   4.154
 4642TIP3    H213933   0.295   1.997   4.085
 4643TIP3   OH213934   5.044   2.326   2.440
 4643TIP3    H113935   4.970   2.296   2.387
 4643TIP3    H213936   5.006   2.383   2.506
 4644TIP3   OH213937   6.144   2.014   0.434
 4644TIP3    H113938   6.108   1.981   0.351
 4644TIP3    H213939   6.078   2.075   0.466
 4645TIP3   OH213940   1.460   2.603   4.028
 4645TIP3    H113941   1.474   2.508   4.028
 4645TIP3    H213942   1.388   2.617   4.089
 4646TIP3   OH213943   1.934   1.439   1.129
 4646TIP3    H113944   1.971   1.393   1.204
 4646TIP3    H213945   1.840   1.437   1.143
 4647TIP3   OH213946   3.817   3.310   1.050
 4647TIP3    H113947   3.859   3.234   1.090
 4647TIP3    H213948   3.821   3.377   1.119
 4648TIP3   OH213949   0.626   3.982   4.219
 4648TIP3    H113950   0.542   4.023   4.240
 4648TIP3    H213951   0.666   3.966   4.305
 4649TIP3   OH213952   3.648   5.730   0.365
 4649TIP3    H113953   3.731   5.752   0.324
 4649TIP3    H213954   3.605   5.671   0.303
 4650TIP3   OH213955   4.799   2.079   4.673
 4650TIP3    H113956   4.860   2.119   4.734
 4650TIP3    H213957   4.854   2.035   4.608
 4651TIP3   OH213958   0.841   5.401   3.297
 4651TIP3    H113959   0.815   5.322   3.248
 4651TIP3    H213960   0.933   5.413   3.275
 4652TIP3   OH213961   4.632   2.214   1.199
 4652TIP3    H113962   4.634   2.172   1.113
 4652TIP3    H213963   4.581   2.154   1.254
 4653TIP3   OH213964   5.990   2.942   0.241
 4653TIP3    H113965   5.986   3.033   0.271
 4653TIP3    H213966   5.972   2.947   0.147
 4654TIP3   OH213967   3.837   2.909   4.609
 4654TIP3    H113968   3.888   2.836   4.574
 4654TIP3    H213969   3.787   2.942   4.534
 4655TIP3   OH213970   1.624   0.347   0.935
 4655TIP3    H113971   1.695   0.380   0.989
 4655TIP3    H213972   1.667   0.307   0.859
 4656TIP3   OH213973   2.085   0.731   2.593
 4656TIP3    H113974   2.119   0.742   2.682
 4656TIP3    H213975   2.103   0.640   2.572
 4657TIP3   OH213976   3.108   1.482   4.602
 4657TIP3    H113977   3.029   1.507   4.650
 4657TIP3    H213978   3.170   1.457   4.670
 4658TIP3   OH213979   5.238   2.330   2.242
 4658TIP3    H113980   5.174   2.324   2.312
 4658TIP3    H213981   5.253   2.424   2.231
 4659TIP3   OH213982   6.197   1.372   1.751
 4659TIP3    H113983   6.239   1.409   1.674
 4659TIP3    H213984   6.268   1.361   1.814
 4660TIP3   OH213985   1.984   2.064   4.050
 4660TIP3    H113986   1.995   2.101   4.138
 4660TIP3    H213987   1.891   2.040   4.046
 4661TIP3   OH213988   4.608   4.475   2.695
 4661TIP3    H113989   4.523   4.443   2.724
 4661TIP3    H213990   4.589   4.532   2.621
 4662TIP3   OH213991   5.822   5.307   2.626
 4662TIP3    H113992   5.855   5.315   2.537
 4662TIP3    H213993   5.852   5.220   2.655
 4663TIP3   OH213994   0.532   3.035   2.939
 4663TIP3    H113995   0.570   3.103   2.883
 4663TIP3    H213996   0.599   2.967   2.942
 4664TIP3   OH213997   5.254   5.254   3.930
 4664TIP3    H113998   5.323   5.286   3.872
 4664TIP3    H213999   5.299   5.227   4.010
 4665TIP3   OH214000   3.077   0.319   3.942
 4665TIP3    H114001   3.063   0.292   4.033
 4665TIP3    H214002   2.997   0.365   3.919
 4666TIP3   OH214003   6.291   3.820   1.692
 4666TIP3    H114004   6.312   3.839   1.600
 4666TIP3    H214005   6.285   3.906   1.733
 4667TIP3   OH214006   2.281   5.510   4.231
 4667TIP3    H114007   2.243   5.592   4.263
 4667TIP3    H214008   2.366   5.536   4.195
 4668TIP3   OH214009   2.248   3.493   0.547
 4668TIP3    H114010   2.234   3.580   0.585
 4668TIP3    H214011   2.258   3.510   0.453
 4669TIP3   OH214012   0.152   0.292   2.177
 4669TIP3    H114013   0.235   0.335   2.155
 4669TIP3    H214014   0.099   0.361   2.217
 4670TIP3   OH214015   3.830   4.493   4.131
 4670TIP3    H114016   3.851   4.438   4.206
 4670TIP3    H214017   3.736   4.485   4.119
 4671TIP3   OH214018   4.726   4.217   2.765
 4671TIP3    H114019   4.807   4.245   2.805
 4671TIP3    H214020   4.688   4.297   2.728
 4672TIP3   OH214021   3.197   3.240   1.152
 4672TIP3    H114022   3.227   3.149   1.155
 4672TIP3    H214023   3.220   3.271   1.065
 4673TIP3   OH214024   1.876   4.000   1.494
 4673TIP3    H114025   1.819   4.033   1.425
 4673TIP3    H214026   1.839   4.037   1.575
 4674TIP3   OH214027   0.036   0.245   2.736
 4674TIP3    H114028   0.120   0.265   2.695
 4674TIP3    H214029  -0.022   0.316   2.708
 4675TIP3   OH214030   0.235   2.402   2.731
 4675TIP3    H114031   0.261   2.477   2.785
 4675TIP3    H214032   0.215   2.332   2.794
 4676TIP3   OH214033   3.485   4.101   1.901
 4676TIP3    H114034   3.447   4.015   1.883
 4676TIP3    H214035   3.552   4.113   1.834
 4677TIP3   OH214036   5.416   0.863   0.331
 4677TIP3    H114037   5.489   0.919   0.304
 4677TIP3    H214038   5.457   0.797   0.388
 4678TIP3   OH214039   2.463   3.682   4.123
 4678TIP3    H114040   2.521   3.735   4.178
 4678TIP3    H214041   2.512   3.601   4.108
 4679TIP3   OH214042   3.145   3.221   4.309
 4679TIP3    H114043   3.180   3.226   4.398
 4679TIP3    H214044   3.069   3.278   4.309
 4680TIP3   OH214045   5.341   4.849   5.047
 4680TIP3    H114046   5.288   4.823   4.971
 4680TIP3    H214047   5.315   4.790   5.116
 4681TIP3   OH214048   0.144   2.543   0.761
 4681TIP3    H114049   0.210   2.591   0.712
 4681TIP3    H214050   0.142   2.456   0.720
 4682TIP3   OH214051   4.771   5.924   4.746
 4682TIP3    H114052   4.788   5.832   4.768
 4682TIP3    H214053   4.705   5.920   4.676
 4683TIP3   OH214054   1.702   3.625   1.869
 4683TIP3    H114055   1.715   3.591   1.781
 4683TIP3    H214056   1.755   3.569   1.926
 4684TIP3   OH214057   5.448   4.602   1.050
 4684TIP3    H114058   5.376   4.664   1.061
 4684TIP3    H214059   5.524   4.645   1.090
 4685TIP3   OH214060   2.991   5.707   1.051
 4685TIP3    H114061   3.011   5.727   0.959
 4685TIP3    H214062   2.983   5.612   1.053
 4686TIP3   OH214063   6.094   3.447   0.545
 4686TIP3    H114064   6.169   3.411   0.498
 4686TIP3    H214065   6.024   3.450   0.481
 4687TIP3   OH214066   0.666   2.694   4.031
 4687TIP3    H114067   0.684   2.781   3.997
 4687TIP3    H214068   0.736   2.678   4.095
 4688TIP3   OH214069   6.296   1.751   2.771
 4688TIP3    H114070   6.341   1.783   2.693
 4688TIP3    H214071   6.286   1.829   2.826
 4689TIP3   OH214072   6.174   2.200   1.894
 4689TIP3    H114073   6.173   2.143   1.817
 4689TIP3    H214074   6.087   2.189   1.933
 4690TIP3   OH214075   0.402   2.406   3.762
 4690TIP3    H114076   0.324   2.362   3.796
 4690TIP3    H214077   0.474   2.367   3.812
 4691TIP3   OH214078   0.644   3.219   1.629
 4691TIP3    H114079   0.590   3.175   1.564
 4691TIP3    H214080   0.691   3.287   1.581
 4692TIP3   OH214081   1.203   4.614   3.544
 4692TIP3    H114082   1.216   4.529   3.501
 4692TIP3    H214083   1.115   4.641   3.518
 4693TIP3   OH214084   6.292   5.008   4.876
 4693TIP3    H114085   6.209   5.015   4.922
 4693TIP3    H214086   6.324   5.098   4.871
 4694TIP3   OH214087   4.254   1.653   2.197
 4694TIP3    H114088   4.281   1.714   2.128
 4694TIP3    H214089   4.318   1.665   2.266
 4695TIP3   OH214090   2.834   2.366   3.276
 4695TIP3    H114091   2.905   2.320   3.232
 4695TIP3    H214092   2.791   2.417   3.207
 4696TIP3   OH214093   2.615   0.282   1.404
 4696TIP3    H114094   2.570   0.274   1.488
 4696TIP3    H214095   2.708   0.278   1.427
 4697TIP3   OH214096  -0.019   4.918   4.297
 4697TIP3    H114097   0.051   4.897   4.359
 4697TIP3    H214098  -0.070   4.986   4.340
 4698TIP3   OH214099   3.769   3.168   3.102
 4698TIP3    H114100   3.785   3.228   3.175
 4698TIP3    H214101   3.847   3.113   3.099
 4699TIP3   OH214102   3.770   1.027   2.116
 4699TIP3    H114103   3.819   1.079   2.179
 4699TIP3    H214104   3.745   0.948   2.165
 4700TIP3   OH214105   1.325   5.938   0.514
 4700TIP3    H114106   1.415   5.919   0.488
 4700TIP3    H214107   1.288   5.852   0.536
 4701TIP3   OH214108   2.920   4.157   4.943
 4701TIP3    H114109   2.877   4.095   4.884
 4701TIP3    H214110   2.962   4.221   4.885
 4702TIP3   OH214111   0.897   0.662   2.868
 4702TIP3    H114112   0.987   0.690   2.882
 4702TIP3    H214113   0.862   0.650   2.957
 4703TIP3   OH214114   0.570   0.230   0.516
 4703TIP3    H114115   0.660   0.238   0.547
 4703TIP3    H214116   0.555   0.309   0.463
 4704TIP3   OH214117   0.284   4.666   4.703
 4704TIP3    H114118   0.252   4.749   4.738
 4704TIP3    H214119   0.379   4.675   4.704
 4705TIP3   OH214120   3.748   0.898   3.028
 4705TIP3    H114121   3.735   0.888   3.123
 4705TIP3    H214122   3.746   0.993   3.015
 4706TIP3   OH214123   4.712   1.556   3.166
 4706TIP3    H114124   4.653   1.580   3.238
 4706TIP3    H214125   4.687   1.614   3.094
 4707TIP3   OH214126   4.817   4.029   3.408
 4707TIP3    H114127   4.902   4.009   3.448
 4707TIP3    H214128   4.839   4.076   3.328
 4708TIP3   OH214129   5.527   1.244   4.266
 4708TIP3    H114130   5.584   1.168   4.263
 4708TIP3    H214131   5.505   1.253   4.359
 4709TIP3   OH214132   1.579   1.007   3.106
 4709TIP3    H114133   1.665   1.047   3.120
 4709TIP3    H214134   1.599   0.923   3.064
 4710TIP3   OH214135   0.021   0.558   4.175
 4710TIP3    H114136  -0.022   0.567   4.260
 4710TIP3    H214137   0.060   0.471   4.177
 4711TIP3   OH214138   3.308   1.143   3.697
 4711TIP3    H114139   3.392   1.104   3.674
 4711TIP3    H214140   3.317   1.235   3.672
 4712TIP3   OH214141   2.755   5.248   2.709
 4712TIP3    H114142   2.761   5.343   2.699
 4712TIP3    H214143   2.833   5.214   2.665
 4713TIP3   OH214144   1.618   2.094   3.033
 4713TIP3    H114145   1.605   2.056   2.946
 4713TIP3    H214146   1.698   2.053   3.064
 4714TIP3   OH214147   0.996   0.344   3.358
 4714TIP3    H114148   0.996   0.437   3.381
 4714TIP3    H214149   1.086   0.315   3.377
 4715TIP3   OH214150   0.041   5.380   2.505
 4715TIP3    H114151   0.115   5.353   2.450
 4715TIP3    H214152   0.076   5.452   2.558
 4716TIP3   OH214153   0.736   5.051   0.547
 4716TIP3    H114154   0.682   5.013   0.478
 4716TIP3    H214155   0.770   4.976   0.596
 4717TIP3   OH214156   5.843   2.523   3.591
 4717TIP3    H114157   5.790   2.512   3.671
 4717TIP3    H214158   5.802   2.597   3.545
 4718TIP3   OH214159   6.264   3.413   2.002
 4718TIP3    H114160   6.236   3.490   1.951
 4718TIP3    H214161   6.279   3.447   2.090
 4719TIP3   OH214162   1.380   1.118   4.592
 4719TIP3    H114163   1.388   1.088   4.682
 4719TIP3    H214164   1.339   1.044   4.546
 4720TIP3   OH214165   3.912   4.411   0.085
 4720TIP3    H114166   3.960   4.328   0.082
 4720TIP3    H214167   3.939   4.450   0.169
 4721TIP3   OH214168   5.237   1.811   3.968
 4721TIP3    H114169   5.197   1.760   4.038
 4721TIP3    H214170   5.325   1.775   3.959
 4722TIP3   OH214171   4.124   0.465   4.459
 4722TIP3    H114172   4.127   0.426   4.546
 4722TIP3    H214173   4.213   0.457   4.426
 4723TIP3   OH214174   5.198   5.271   2.690
 4723TIP3    H114175   5.207   5.337   2.621
 4723TIP3    H214176   5.115   5.291   2.732
 4724TIP3   OH214177   0.184   1.948   0.999
 4724TIP3    H114178   0.227   1.867   0.971
 4724TIP3    H214179   0.212   1.960   1.090
 4725TIP3   OH214180   0.510   4.483   2.367
 4725TIP3    H114181   0.519   4.468   2.461
 4725TIP3    H214182   0.454   4.560   2.361
 4726TIP3   OH214183   0.040   0.521   3.163
 4726TIP3    H114184   0.005   0.576   3.093
 4726TIP3    H214185   0.056   0.436   3.121
 4727TIP3   OH214186   0.304   3.715   3.410
 4727TIP3    H114187   0.217   3.685   3.380
 4727TIP3    H214188   0.361   3.639   3.396
 4728TIP3   OH214189   1.246   4.765   2.745
 4728TIP3    H114190   1.218   4.709   2.672
 4728TIP3    H214191   1.190   4.842   2.738
 4729TIP3   OH214192   1.030   1.836   0.628
 4729TIP3    H114193   1.115   1.831   0.584
 4729TIP3    H214194   0.981   1.901   0.578
 4730TIP3   OH214195   4.541   2.775   2.298
 4730TIP3    H114196   4.624   2.814   2.323
 4730TIP3    H214197   4.564   2.687   2.267
 4731TIP3   OH214198   3.761   1.298   1.407
 4731TIP3    H114199   3.709   1.296   1.327
 4731TIP3    H214200   3.842   1.342   1.382
 4732TIP3   OH214201   0.919   4.000   0.349
 4732TIP3    H114202   0.827   4.013   0.370
 4732TIP3    H214203   0.951   3.939   0.416
 4733TIP3   OH214204   1.638   3.496   4.103
 4733TIP3    H114205   1.698   3.520   4.174
 4733TIP3    H214206   1.567   3.449   4.147
 4734TIP3   OH214207   0.315   2.899   5.051
 4734TIP3    H114208   0.282   2.915   4.962
 4734TIP3    H214209   0.349   2.984   5.079
 4735TIP3   OH214210   2.027   5.473   2.945
 4735TIP3    H114211   2.079   5.542   2.903
 4735TIP3    H214212   2.034   5.490   3.038
 4736TIP3   OH214213   0.210   4.086   2.467
 4736TIP3    H114214   0.276   4.019   2.450
 4736TIP3    H214215   0.260   4.167   2.482
 4737TIP3   OH214216   3.824   5.480   1.736
 4737TIP3    H114217   3.781   5.565   1.748
 4737TIP3    H214218   3.916   5.501   1.725
 4738TIP3   OH214219   0.685   2.812   2.928
 4738TIP3    H114220   0.686   2.718   2.911
 4738TIP3    H214221   0.751   2.824   2.997
 4739TIP3   OH214222   0.785   2.458   1.446
 4739TIP3    H114223   0.708   2.512   1.464
 4739TIP3    H214224   0.857   2.521   1.441
 4740TIP3   OH214225   2.008   2.336   1.978
 4740TIP3    H114226   2.053   2.252   1.991
 4740TIP3    H214227   2.071   2.389   1.928
 4741TIP3   OH214228   0.121   3.337   1.790
 4741TIP3    H114229   0.041   3.304   1.831
 4741TIP3    H214230   0.110   3.432   1.787
 4742TIP3   OH214231   1.118   3.554   0.082
 4742TIP3    H114232   1.163   3.579   0.162
 4742TIP3    H214233   1.059   3.628   0.063
 4743TIP3   OH214234   4.679   4.611   0.913
 4743TIP3    H114235   4.652   4.624   0.823
 4743TIP3    H214236   4.615   4.550   0.949
 4744TIP3   OH214237   0.776   3.408   0.286
 4744TIP3    H114238   0.829   3.329   0.281
 4744TIP3    H214239   0.707   3.386   0.348
 4745TIP3   OH214240   0.171   5.052   0.569
 4745TIP3    H114241   0.126   4.972   0.597
 4745TIP3    H214242   0.247   5.058   0.627
 4746TIP3   OH214243   0.849   3.128   1.981
 4746TIP3    H114244   0.837   3.223   1.984
 4746TIP3    H214245   0.762   3.094   1.960
 4747TIP3   OH214246   4.521   0.724   4.587
 4747TIP3    H114247   4.482   0.727   4.499
 4747TIP3    H214248   4.446   0.720   4.646
 4748TIP3   OH214249   2.756   4.259   2.905
 4748TIP3    H114250   2.821   4.289   2.969
 4748TIP3    H214251   2.703   4.195   2.953
 4749TIP3   OH214252   5.857   1.138   3.808
 4749TIP3    H114253   5.900   1.090   3.738
 4749TIP3    H214254   5.767   1.150   3.777
 4750TIP3   OH214255   4.373   3.877   4.676
 4750TIP3    H114256   4.292   3.836   4.706
 4750TIP3    H214257   4.372   3.964   4.714
 4751TIP3   OH214258   2.679   2.064   4.548
 4751TIP3    H114259   2.622   2.075   4.472
 4751TIP3    H214260   2.673   1.970   4.568
 4752TIP3   OH214261   1.802   3.530   4.329
 4752TIP3    H114262   1.821   3.493   4.415
 4752TIP3    H214263   1.880   3.511   4.277
 4753TIP3   OH214264   0.934   3.084   1.501
 4753TIP3    H114265   0.898   3.138   1.430
 4753TIP3    H214266   0.911   3.132   1.581
 4754TIP3   OH214267   0.664   0.524   2.203
 4754TIP3    H114268   0.754   0.543   2.176
 4754TIP3    H214269   0.620   0.609   2.200
 4755TIP3   OH214270   2.534   5.492   3.252
 4755TIP3    H114271   2.592   5.461   3.183
 4755TIP3    H214272   2.473   5.420   3.267
 4756TIP3   OH214273   1.856   0.444   3.579
 4756TIP3    H114274   1.865   0.367   3.522
 4756TIP3    H214275   1.890   0.517   3.527
 4757TIP3   OH214276   2.850   2.417   1.812
 4757TIP3    H114277   2.781   2.354   1.837
 4757TIP3    H214278   2.802   2.492   1.777
 4758TIP3   OH214279   3.685   0.687   3.877
 4758TIP3    H114280   3.618   0.750   3.903
 4758TIP3    H214281   3.642   0.631   3.812
 4759TIP3   OH214282   3.449   0.369   0.874
 4759TIP3    H114283   3.365   0.365   0.828
 4759TIP3    H214284   3.511   0.327   0.814
 4760TIP3   OH214285   0.101   0.311   2.984
 4760TIP3    H114286   0.043   0.251   3.030
 4760TIP3    H214287   0.076   0.303   2.892
 4761TIP3   OH214288   4.024   5.247   1.626
 4761TIP3    H114289   3.946   5.300   1.641
 4761TIP3    H214290   4.086   5.276   1.693
 4762TIP3   OH214291   2.189   1.539   1.001
 4762TIP3    H114292   2.124   1.545   1.071
 4762TIP3    H214293   2.138   1.540   0.920
 4763TIP3   OH214294   3.687   1.486   4.496
 4763TIP3    H114295   3.726   1.536   4.568
 4763TIP3    H214296   3.598   1.520   4.488
 4764TIP3   OH214297   3.526   3.049   2.225
 4764TIP3    H114298   3.498   3.006   2.145
 4764TIP3    H214299   3.614   3.082   2.205
 4765TIP3   OH214300   2.614   4.253   1.466
 4765TIP3    H114301   2.554   4.191   1.507
 4765TIP3    H214302   2.691   4.201   1.443
 4766TIP3   OH214303   2.054   5.242   3.288
 4766TIP3    H114304   1.959   5.238   3.274
 4766TIP3    H214305   2.092   5.212   3.205
 4767TIP3   OH214306   3.645   4.860   0.186
 4767TIP3    H114307   3.603   4.936   0.226
 4767TIP3    H214308   3.641   4.876   0.092
 4768TIP3   OH214309   4.716   4.558   4.135
 4768TIP3    H114310   4.648   4.570   4.069
 4768TIP3    H214311   4.747   4.469   4.123
 4769TIP3   OH214312   3.074   5.657   0.521
 4769TIP3    H114313   3.050   5.714   0.594
 4769TIP3    H214314   3.071   5.569   0.557
 4770TIP3   OH214315   6.136   0.144   0.915
 4770TIP3    H114316   6.214   0.156   0.861
 4770TIP3    H214317   6.117   0.231   0.949
 4771TIP3   OH214318   0.199   4.305   4.702
 4771TIP3    H114319   0.172   4.393   4.673
 4771TIP3    H214320   0.251   4.321   4.781
 4772TIP3   OH214321   1.788   4.467   4.098
 4772TIP3    H114322   1.856   4.522   4.138
 4772TIP3    H214323   1.822   4.447   4.010
 4773TIP3   OH214324   5.099   2.081   2.114
 4773TIP3    H114325   5.168   2.145   2.100
 4773TIP3    H214326   5.073   2.092   2.205
 4774TIP3   OH214327   3.201   2.909   4.592
 4774TIP3    H114328   3.289   2.905   4.628
 4774TIP3    H214329   3.212   2.893   4.499
 4775TIP3   OH214330   1.712   4.856   4.479
 4775TIP3    H114331   1.618   4.861   4.496
 4775TIP3    H214332   1.751   4.837   4.564
 4776TIP3   OH214333   6.088   1.184   1.294
 4776TIP3    H114334   6.023   1.114   1.303
 4776TIP3    H214335   6.038   1.258   1.258
 4777TIP3   OH214336   4.532   3.776   1.634
 4777TIP3    H114337   4.549   3.800   1.542
 4777TIP3    H214338   4.542   3.681   1.636
 4778TIP3   OH214339   2.039   4.259   3.092
 4778TIP3    H114340   1.996   4.213   3.164
 4778TIP3    H214341   2.116   4.300   3.133
 4779TIP3   OH214342   3.636   3.975   2.144
 4779TIP3    H114343   3.633   4.037   2.217
 4779TIP3    H214344   3.595   4.022   2.071
 4780TIP3   OH214345   2.979   3.214   2.853
 4780TIP3    H114346   2.935   3.243   2.773
 4780TIP3    H214347   3.053   3.161   2.822
 4781TIP3   OH214348   2.664   5.788   0.780
 4781TIP3    H114349   2.699   5.710   0.823
 4781TIP3    H214350   2.712   5.793   0.697
 4782TIP3   OH214351   0.324   2.467   4.121
 4782TIP3    H114352   0.248   2.439   4.069
 4782TIP3    H214353   0.400   2.434   4.073
 4783TIP3   OH214354   2.029   3.330   1.975
 4783TIP3    H114355   2.092   3.264   2.005
 4783TIP3    H214356   1.943   3.291   1.992
 4784TIP3   OH214357   4.293   4.505   3.286
 4784TIP3    H114358   4.319   4.579   3.341
 4784TIP3    H214359   4.222   4.463   3.334
 4785TIP3   OH214360   3.177   3.382   1.926
 4785TIP3    H114361   3.149   3.347   1.841
 4785TIP3    H214362   3.105   3.439   1.953
 4786TIP3   OH214363   3.480   5.001   0.756
 4786TIP3    H114364   3.517   4.942   0.822
 4786TIP3    H214365   3.436   5.069   0.807
 4787TIP3   OH214366   6.234   4.048   1.114
 4787TIP3    H114367   6.170   4.079   1.050
 4787TIP3    H214368   6.182   4.007   1.183
 4788TIP3   OH214369   0.981   2.660   1.418
 4788TIP3    H114370   1.074   2.681   1.425
 4788TIP3    H214371   0.937   2.722   1.476
 4789TIP3   OH214372   4.014   0.480   2.866
 4789TIP3    H114373   3.969   0.553   2.908
 4789TIP3    H214374   4.099   0.516   2.841
 4790TIP3   OH214375   1.297   4.004   3.267
 4790TIP3    H114376   1.335   3.941   3.329
 4790TIP3    H214377   1.277   3.953   3.189
 4791TIP3   OH214378   5.993   0.250   3.346
 4791TIP3    H114379   6.080   0.288   3.358
 4791TIP3    H214380   5.965   0.227   3.435
 4792TIP3   OH214381   2.634   5.928   2.709
 4792TIP3    H114382   2.620   6.003   2.651
 4792TIP3    H214383   2.692   5.870   2.659
 4793TIP3   OH214384   4.765   2.703   0.466
 4793TIP3    H114385   4.677   2.682   0.435
 4793TIP3    H214386   4.821   2.689   0.390
 4794TIP3   OH214387   0.461   5.382   2.476
 4794TIP3    H114388   0.415   5.399   2.394
 4794TIP3    H214389   0.458   5.466   2.523
 4795TIP3   OH214390   4.971   1.530   2.865
 4795TIP3    H114391   4.940   1.473   2.936
 4795TIP3    H214392   4.974   1.617   2.905
 4796TIP3   OH214393   5.988   4.137   3.105
 4796TIP3    H114394   5.927   4.068   3.080
 4796TIP3    H214395   5.945   4.181   3.178
 4797TIP3   OH214396   0.149   5.694   3.463
 4797TIP3    H114397   0.212   5.732   3.402
 4797TIP3    H214398   0.203   5.649   3.529
 4798TIP3   OH214399   6.215   1.503   0.180
 4798TIP3    H114400   6.287   1.463   0.229
 4798TIP3    H214401   6.248   1.508   0.090
 4799TIP3   OH214402   0.622   4.903   0.350
 4799TIP3    H114403   0.654   4.958   0.277
 4799TIP3    H214404   0.663   4.818   0.335
 4800TIP3   OH214405   3.821   4.895   1.111
 4800TIP3    H114406   3.814   4.968   1.173
 4800TIP3    H214407   3.885   4.836   1.150
 4801TIP3   OH214408   0.317   2.642   0.533
 4801TIP3    H114409   0.269   2.575   0.484
 4801TIP3    H214410   0.288   2.725   0.495
 4802TIP3   OH214411   5.403   5.149   2.812
 4802TIP3    H114412   5.330   5.194   2.769
 4802TIP3    H214413   5.477   5.163   2.753
 4803TIP3   OH214414   5.101   5.223   1.927
 4803TIP3    H114415   5.172   5.271   1.884
 4803TIP3    H214416   5.052   5.290   1.974
 4804TIP3   OH214417   5.149   0.347   0.494
 4804TIP3    H114418   5.231   0.329   0.540
 4804TIP3    H214419   5.085   0.359   0.564
 4805TIP3   OH214420   2.946   2.209   2.983
 4805TIP3    H114421   2.973   2.228   2.893
 4805TIP3    H214422   2.910   2.121   2.979
 4806TIP3   OH214423   1.379   5.233   0.069
 4806TIP3    H114424   1.458   5.254   0.118
 4806TIP3    H214425   1.335   5.166   0.121
 4807TIP3   OH214426   5.362   4.500   1.614
 4807TIP3    H114427   5.322   4.586   1.624
 4807TIP3    H214428   5.311   4.444   1.673
 4808TIP3   OH214429   3.571   2.685   0.144
 4808TIP3    H114430   3.639   2.636   0.098
 4808TIP3    H214431   3.489   2.644   0.116
 4809TIP3   OH214432   4.293   0.489   3.280
 4809TIP3    H114433   4.256   0.401   3.286
 4809TIP3    H214434   4.318   0.498   3.188
 4810TIP3   OH214435   3.304   1.335   1.775
 4810TIP3    H114436   3.312   1.268   1.708
 4810TIP3    H214437   3.218   1.373   1.761
 4811TIP3   OH214438   1.109   2.155   2.479
 4811TIP3    H114439   1.026   2.114   2.502
 4811TIP3    H214440   1.106   2.165   2.384
 4812TIP3   OH214441   6.315   5.750   4.855
 4812TIP3    H114442   6.259   5.741   4.778
 4812TIP3    H214443   6.270   5.812   4.912
 4813TIP3   OH214444   1.122   4.588   2.148
 4813TIP3    H114445   1.176   4.654   2.104
 4813TIP3    H214446   1.049   4.638   2.183
 4814TIP3   OH214447   4.163   3.154   0.644
 4814TIP3    H114448   4.249   3.110   0.643
 4814TIP3    H214449   4.122   3.129   0.562
 4815TIP3   OH214450   0.275   2.524   1.617
 4815TIP3    H114451   0.284   2.529   1.712
 4815TIP3    H214452   0.311   2.607   1.585
 4816TIP3   OH214453   6.003   3.042   0.655
 4816TIP3    H114454   6.086   3.056   0.610
 4816TIP3    H214455   5.973   2.956   0.625
 4817TIP3   OH214456   3.217   1.148   4.832
 4817TIP3    H114457   3.248   1.091   4.902
 4817TIP3    H214458   3.239   1.102   4.751
 4818TIP3   OH214459   0.359   1.301   0.733
 4818TIP3    H114460   0.370   1.272   0.823
 4818TIP3    H214461   0.279   1.257   0.703
 4819TIP3   OH214462   1.960   1.232   3.776
 4819TIP3    H114463   1.868   1.204   3.768
 4819TIP3    H214464   1.954   1.326   3.790
 4820TIP3   OH214465   1.777   0.481   4.173
 4820TIP3    H114466   1.740   0.462   4.260
 4820TIP3    H214467   1.804   0.396   4.139
 4821TIP3   OH214468   3.161   4.265   3.625
 4821TIP3    H114469   3.174   4.268   3.720
 4821TIP3    H214470   3.115   4.182   3.610
 4822TIP3   OH214471   3.237   4.591   1.937
 4822TIP3    H114472   3.168   4.656   1.949
 4822TIP3    H214473   3.237   4.573   1.843
 4823TIP3   OH214474   1.522   0.766   4.993
 4823TIP3    H114475   1.444   0.715   5.014
 4823TIP3    H214476   1.551   0.803   5.076
 4824TIP3   OH214477   3.350   2.119   4.926
 4824TIP3    H114478   3.355   2.170   4.845
 4824TIP3    H214479   3.381   2.032   4.901
 4825TIP3   OH214480   5.022   3.605   0.704
 4825TIP3    H114481   5.003   3.649   0.787
 4825TIP3    H214482   5.102   3.556   0.720
 4826TIP3   OH214483   2.947   3.551   2.086
 4826TIP3    H114484   2.895   3.585   2.013
 4826TIP3    H214485   2.896   3.477   2.119
 4827TIP3   OH214486   1.536   1.168   3.452
 4827TIP3    H114487   1.467   1.148   3.388
 4827TIP3    H214488   1.491   1.171   3.536
 4828TIP3   OH214489   0.336   0.120   2.929
 4828TIP3    H114490   0.333   0.099   3.022
 4828TIP3    H214491   0.257   0.172   2.913
 4829TIP3   OH214492   1.496   1.108   2.460
 4829TIP3    H114493   1.463   1.051   2.390
 4829TIP3    H214494   1.476   1.196   2.429
 4830TIP3   OH214495   3.030   2.489   2.025
 4830TIP3    H114496   3.076   2.453   1.949
 4830TIP3    H214497   2.977   2.561   1.989
 4831TIP3   OH214498   2.048   3.129   3.583
 4831TIP3    H114499   2.002   3.204   3.618
 4831TIP3    H214500   2.137   3.136   3.619
 4832TIP3   OH214501   3.018   1.966   4.126
 4832TIP3    H114502   2.991   1.926   4.209
 4832TIP3    H214503   2.938   1.972   4.075
 4833TIP3   OH214504   2.807   1.211   0.418
 4833TIP3    H114505   2.863   1.161   0.358
 4833TIP3    H214506   2.859   1.288   0.440
 4834TIP3   OH214507   0.839   1.847   1.074
 4834TIP3    H114508   0.885   1.782   1.127
 4834TIP3    H214509   0.746   1.822   1.081
 4835TIP3   OH214510   4.329   2.705   4.010
 4835TIP3    H114511   4.395   2.747   3.955
 4835TIP3    H214512   4.256   2.766   4.013
 4836TIP3   OH214513   3.458   2.526   3.396
 4836TIP3    H114514   3.455   2.502   3.304
 4836TIP3    H214515   3.378   2.577   3.410
 4837TIP3   OH214516   3.906   1.666   4.123
 4837TIP3    H114517   3.907   1.756   4.092
 4837TIP3    H214518   3.814   1.648   4.144
 4838TIP3   OH214519   6.223   0.984   3.479
 4838TIP3    H114520   6.235   1.065   3.529
 4838TIP3    H214521   6.209   1.014   3.389
 4839TIP3   OH214522   4.025   2.174   0.839
 4839TIP3    H114523   3.989   2.142   0.921
 4839TIP3    H214524   3.998   2.109   0.774
 4840TIP3   OH214525   3.669   1.684   0.959
 4840TIP3    H114526   3.633   1.761   1.002
 4840TIP3    H214527   3.625   1.681   0.874
 4841TIP3   OH214528   1.093   3.889   2.859
 4841TIP3    H114529   1.145   3.815   2.830
 4841TIP3    H214530   1.032   3.851   2.923
 4842TIP3   OH214531   4.083   1.099   2.021
 4842TIP3    H114532   4.003   1.103   1.967
 4842TIP3    H214533   4.065   1.158   2.095
 4843TIP3   OH214534   5.591   4.430   3.471
 4843TIP3    H114535   5.607   4.355   3.413
 4843TIP3    H214536   5.663   4.490   3.453
 4844TIP3   OH214537   5.366   1.469   1.337
 4844TIP3    H114538   5.346   1.491   1.428
 4844TIP3    H214539   5.353   1.550   1.288
 4845TIP3   OH214540   6.021   4.622   2.768
 4845TIP3    H114541   5.952   4.599   2.831
 4845TIP3    H214542   6.008   4.715   2.752
 4846TIP3   OH214543   1.640   0.463   2.479
 4846TIP3    H114544   1.591   0.545   2.472
 4846TIP3    H214545   1.668   0.460   2.571
 4847TIP3   OH214546   0.603   1.215   4.664
 4847TIP3    H114547   0.594   1.221   4.569
 4847TIP3    H214548   0.688   1.254   4.684
 4848TIP3   OH214549   3.462   4.645   3.342
 4848TIP3    H114550   3.478   4.578   3.275
 4848TIP3    H214551   3.549   4.676   3.366
 4849TIP3   OH214552   1.025   3.869   2.527
 4849TIP3    H114553   1.034   3.830   2.440
 4849TIP3    H214554   1.046   3.962   2.513
 4850TIP3   OH214555   0.773   4.612   3.937
 4850TIP3    H114556   0.736   4.630   4.023
 4850TIP3    H214557   0.732   4.676   3.879
 4851TIP3   OH214558   2.630   2.425   2.145
 4851TIP3    H114559   2.629   2.518   2.125
 4851TIP3    H214560   2.599   2.382   2.065
 4852TIP3   OH214561   3.828   2.395   3.957
 4852TIP3    H114562   3.733   2.386   3.950
 4852TIP3    H214563   3.840   2.464   4.022
 4853TIP3   OH214564   4.468   4.381   2.934
 4853TIP3    H114565   4.489   4.389   3.027
 4853TIP3    H214566   4.470   4.470   2.901
 4854TIP3   OH214567   1.020   0.095   1.528
 4854TIP3    H114568   1.083   0.125   1.593
 4854TIP3    H214569   0.935   0.108   1.570
 4855TIP3   OH214570   3.452   3.801   4.045
 4855TIP3    H114571   3.363   3.824   4.019
 4855TIP3    H214572   3.481   3.876   4.097
 4856TIP3   OH214573   2.814   5.413   4.036
 4856TIP3    H114574   2.810   5.347   4.106
 4856TIP3    H214575   2.907   5.428   4.022
 4857TIP3   OH214576   1.078   5.522   3.183
 4857TIP3    H114577   1.080   5.555   3.093
 4857TIP3    H214578   1.169   5.501   3.203
 4858TIP3   OH214579   4.967   5.161   3.306
 4858TIP3    H114580   4.889   5.216   3.302
 4858TIP3    H214581   4.990   5.145   3.215
 4859TIP3   OH214582   5.515   1.440   3.770
 4859TIP3    H114583   5.457   1.445   3.694
 4859TIP3    H214584   5.603   1.454   3.734
 4860TIP3   OH214585   5.355   3.082   2.371
 4860TIP3    H114586   5.287   3.030   2.327
 4860TIP3    H214587   5.428   3.081   2.309
 4861TIP3   OH214588   4.134   4.843   3.654
 4861TIP3    H114589   4.186   4.908   3.608
 4861TIP3    H214590   4.175   4.835   3.740
 4862TIP3   OH214591   2.317   2.925   3.441
 4862TIP3    H114592   2.406   2.901   3.464
 4862TIP3    H214593   2.295   2.996   3.501
 4863TIP3   OH214594   2.177   0.324   1.992
 4863TIP3    H114595   2.249   0.334   2.055
 4863TIP3    H214596   2.199   0.244   1.944
 4864TIP3   OH214597   5.708   2.394   1.093
 4864TIP3    H114598   5.660   2.315   1.117
 4864TIP3    H214599   5.680   2.460   1.156
 4865TIP3   OH214600   2.837   0.341   2.271
 4865TIP3    H114601   2.875   0.387   2.346
 4865TIP3    H214602   2.826   0.409   2.204
 4866TIP3   OH214603   5.179   3.258   4.052
 4866TIP3    H114604   5.147   3.223   4.136
 4866TIP3    H214605   5.152   3.350   4.053
 4867TIP3   OH214606   5.985   1.945   4.896
 4867TIP3    H114607   5.963   1.921   4.986
 4867TIP3    H214608   6.078   1.969   4.899
 4868TIP3   OH214609   3.996   1.037   3.263
 4868TIP3    H114610   3.999   1.132   3.272
 4868TIP3    H214611   4.049   1.004   3.334
 4869TIP3   OH214612   4.100   3.297   1.582
 4869TIP3    H114613   4.134   3.386   1.592
 4869TIP3    H214614   4.178   3.242   1.574
 4870TIP3   OH214615   0.700   1.985   2.802
 4870TIP3    H114616   0.782   1.939   2.819
 4870TIP3    H214617   0.725   2.078   2.801
 4871TIP3   OH214618   1.209   5.462   3.830
 4871TIP3    H114619   1.200   5.480   3.737
 4871TIP3    H214620   1.268   5.530   3.862
 4872TIP3   OH214621   5.669   3.003   0.041
 4872TIP3    H114622   5.630   3.050  -0.033
 4872TIP3    H214623   5.739   2.951   0.001
 4873TIP3   OH214624   1.798   5.062   0.501
 4873TIP3    H114625   1.736   5.133   0.487
 4873TIP3    H214626   1.763   4.988   0.452
 4874TIP3   OH214627   2.731   2.263   4.132
 4874TIP3    H114628   2.692   2.316   4.201
 4874TIP3    H214629   2.737   2.322   4.057
 4875TIP3   OH214630   0.271   2.011   0.655
 4875TIP3    H114631   0.347   2.021   0.712
 4875TIP3    H214632   0.207   1.962   0.708
 4876TIP3   OH214633   2.850   3.807   3.832
 4876TIP3    H114634   2.935   3.766   3.814
 4876TIP3    H214635   2.792   3.735   3.853
 4877TIP3   OH214636   0.412   2.425   4.941
 4877TIP3    H114637   0.328   2.390   4.971
 4877TIP3    H214638   0.435   2.492   5.005
 4878TIP3   OH214639   2.647   5.758   2.503
 4878TIP3    H114640   2.560   5.748   2.464
 4878TIP3    H214641   2.708   5.736   2.433
 4879TIP3   OH214642   2.258   0.121   1.838
 4879TIP3    H114643   2.341   0.078   1.862
 4879TIP3    H214644   2.193   0.051   1.845
 4880TIP3   OH214645   3.223   2.299   3.081
 4880TIP3    H114646   3.274   2.220   3.099
 4880TIP3    H214647   3.133   2.267   3.067
 4881TIP3   OH214648   0.093   1.930   3.574
 4881TIP3    H114649   0.179   1.911   3.537
 4881TIP3    H214650   0.043   1.849   3.561
 4882TIP3   OH214651   2.416   1.136   2.122
 4882TIP3    H114652   2.473   1.102   2.190
 4882TIP3    H214653   2.383   1.219   2.157
 4883TIP3   OH214654   2.490   3.040   2.621
 4883TIP3    H114655   2.580   3.071   2.613
 4883TIP3    H214656   2.496   2.945   2.616
 4884TIP3   OH214657   5.092   4.834   0.654
 4884TIP3    H114658   5.149   4.862   0.582
 4884TIP3    H214659   5.110   4.896   0.724
 4885TIP3   OH214660   1.646   3.868   4.243
 4885TIP3    H114661   1.596   3.867   4.161
 4885TIP3    H214662   1.729   3.827   4.220
 4886TIP3   OH214663   1.903   1.539   2.684
 4886TIP3    H114664   1.817   1.523   2.645
 4886TIP3    H214665   1.949   1.455   2.675
 4887TIP3   OH214666   5.660   2.693   1.688
 4887TIP3    H114667   5.599   2.650   1.748
 4887TIP3    H214668   5.719   2.742   1.745
 4888TIP3   OH214669   4.473   2.145   0.451
 4888TIP3    H114670   4.399   2.089   0.475
 4888TIP3    H214671   4.532   2.140   0.527
 4889TIP3   OH214672   0.834   0.166   3.215
 4889TIP3    H114673   0.890   0.226   3.265
 4889TIP3    H214674   0.848   0.081   3.256
 4890TIP3   OH214675   4.767   0.114   0.870
 4890TIP3    H114676   4.733   0.166   0.943
 4890TIP3    H214677   4.843   0.069   0.907
 4891TIP3   OH214678   2.272   3.381   3.662
 4891TIP3    H114679   2.329   3.307   3.682
 4891TIP3    H214680   2.274   3.435   3.740
 4892TIP3   OH214681   5.581   2.491   0.243
 4892TIP3    H114682   5.488   2.513   0.241
 4892TIP3    H214683   5.587   2.421   0.308
 4893TIP3   OH214684   4.813   3.996   1.166
 4893TIP3    H114685   4.847   4.070   1.116
 4893TIP3    H214686   4.832   4.018   1.257
 4894TIP3   OH214687   4.594   3.239   4.008
 4894TIP3    H114688   4.531   3.308   4.026
 4894TIP3    H214689   4.562   3.163   4.058
 4895TIP3   OH214690   2.877   4.012   2.594
 4895TIP3    H114691   2.920   3.929   2.573
 4895TIP3    H214692   2.902   4.029   2.685
 4896TIP3   OH214693   2.124   5.108   1.421
 4896TIP3    H114694   2.149   5.149   1.338
 4896TIP3    H214695   2.161   5.166   1.488
 4897TIP3   OH214696   4.043   5.398   3.808
 4897TIP3    H114697   4.063   5.440   3.892
 4897TIP3    H214698   3.962   5.350   3.824
 4898TIP3   OH214699   4.166   5.236   0.182
 4898TIP3    H114700   4.128   5.227   0.270
 4898TIP3    H214701   4.204   5.150   0.164
 4899TIP3   OH214702   5.995   5.258   4.593
 4899TIP3    H114703   5.996   5.348   4.624
 4899TIP3    H214704   5.965   5.207   4.668
 4900TIP3   OH214705   5.302   0.704   3.699
 4900TIP3    H114706   5.316   0.769   3.767
 4900TIP3    H214707   5.233   0.741   3.643
 4901TIP3   OH214708   5.253   2.710   4.741
 4901TIP3    H114709   5.238   2.750   4.826
 4901TIP3    H214710   5.348   2.701   4.735
 4902TIP3   OH214711   4.933   1.659   3.714
 4902TIP3    H114712   4.955   1.747   3.742
 4902TIP3    H214713   5.012   1.607   3.732
 4903TIP3   OH214714   4.032   4.618   1.618
 4903TIP3    H114715   3.976   4.566   1.560
 4903TIP3    H214716   4.119   4.577   1.610
 4904TIP3   OH214717   1.390   2.792   0.669
 4904TIP3    H114718   1.463   2.825   0.721
 4904TIP3    H214719   1.430   2.736   0.603
 4905TIP3   OH214720   3.768   3.832   0.276
 4905TIP3    H114721   3.814   3.855   0.356
 4905TIP3    H214722   3.690   3.785   0.305
 4906TIP3   OH214723   5.431   2.085   0.433
 4906TIP3    H114724   5.451   2.113   0.343
 4906TIP3    H214725   5.396   2.164   0.475
 4907TIP3   OH214726   5.706   3.198   4.974
 4907TIP3    H114727   5.734   3.290   4.970
 4907TIP3    H214728   5.660   3.191   5.057
 4908TIP3   OH214729   4.768   5.013   1.736
 4908TIP3    H114730   4.741   4.945   1.797
 4908TIP3    H214731   4.703   5.011   1.667
 4909TIP3   OH214732   5.488   0.848   0.848
 4909TIP3    H114733   5.456   0.801   0.771
 4909TIP3    H214734   5.427   0.824   0.918
 4910TIP3   OH214735   3.512   3.517   0.674
 4910TIP3    H114736   3.538   3.426   0.691
 4910TIP3    H214737   3.594   3.562   0.654
 4911TIP3   OH214738   2.186   4.425   3.825
 4911TIP3    H114739   2.252   4.494   3.815
 4911TIP3    H214740   2.232   4.344   3.803
 4912TIP3   OH214741   6.172   4.455   3.499
 4912TIP3    H114742   6.187   4.402   3.420
 4912TIP3    H214743   6.152   4.542   3.465
 4913TIP3   OH214744   6.088   3.287   5.154
 4913TIP3    H114745   6.064   3.359   5.096
 4913TIP3    H214746   6.125   3.221   5.096
 4914TIP3   OH214747   4.040   2.948   1.532
 4914TIP3    H114748   4.066   2.856   1.519
 4914TIP3    H214749   4.018   2.953   1.625
 4915TIP3   OH214750   2.667   4.459   3.225
 4915TIP3    H114751   2.674   4.393   3.294
 4915TIP3    H214752   2.573   4.468   3.209
 4916TIP3   OH214753   4.597   5.017   4.421
 4916TIP3    H114754   4.671   5.079   4.424
 4916TIP3    H214755   4.632   4.939   4.378
 4917TIP3   OH214756   6.075   1.307   3.930
 4917TIP3    H114757   6.033   1.233   3.885
 4917TIP3    H214758   6.130   1.266   3.997
 4918TIP3   OH214759   5.679   3.036   4.225
 4918TIP3    H114760   5.666   3.045   4.320
 4918TIP3    H214761   5.773   3.027   4.215
 4919TIP3   OH214762   2.484   3.092   5.032
 4919TIP3    H114763   2.546   3.117   5.100
 4919TIP3    H214764   2.539   3.071   4.956
 4920TIP3   OH214765   2.415   5.865   4.757
 4920TIP3    H114766   2.450   5.794   4.812
 4920TIP3    H214767   2.422   5.943   4.812
 4921TIP3   OH214768   3.257   3.149   2.137
 4921TIP3    H114769   3.295   3.175   2.053
 4921TIP3    H214770   3.332   3.117   2.188
 4922TIP3   OH214771   1.413   0.509   4.317
 4922TIP3    H114772   1.389   0.546   4.403
 4922TIP3    H214773   1.343   0.448   4.297
 4923TIP3   OH214774   5.865   4.398   2.025
 4923TIP3    H114775   5.773   4.373   2.022
 4923TIP3    H214776   5.888   4.416   1.933
 4924TIP3   OH214777   2.074   1.035   2.732
 4924TIP3    H114778   2.047   1.008   2.819
 4924TIP3    H214779   2.169   1.045   2.738
 4925TIP3   OH214780   0.357   0.386   1.149
 4925TIP3    H114781   0.369   0.293   1.170
 4925TIP3    H214782   0.420   0.432   1.204
 4926TIP3   OH214783   0.914   5.047   2.461
 4926TIP3    H114784   0.831   5.095   2.465
 4926TIP3    H214785   0.965   5.092   2.394
 4927TIP3   OH214786   5.712   5.184   4.750
 4927TIP3    H114787   5.781   5.173   4.815
 4927TIP3    H214788   5.634   5.148   4.792
 4928TIP3   OH214789   3.685   0.382   2.519
 4928TIP3    H114790   3.684   0.444   2.591
 4928TIP3    H214791   3.600   0.393   2.476
 4929TIP3   OH214792   5.792   1.186   1.905
 4929TIP3    H114793   5.856   1.196   1.835
 4929TIP3    H214794   5.804   1.264   1.960
 4930TIP3   OH214795   3.496   0.519   3.759
 4930TIP3    H114796   3.451   0.538   3.677
 4930TIP3    H214797   3.426   0.494   3.819
 4931TIP3   OH214798   2.656   5.779   3.378
 4931TIP3    H114799   2.586   5.740   3.431
 4931TIP3    H214800   2.734   5.774   3.433
 4932TIP3   OH214801   3.023   5.516   3.066
 4932TIP3    H114802   2.987   5.594   3.108
 4932TIP3    H214803   2.969   5.444   3.098
 4933TIP3   OH214804   4.686   2.343   1.931
 4933TIP3    H114805   4.620   2.284   1.968
 4933TIP3    H214806   4.690   2.319   1.838
 4934TIP3   OH214807   1.373   1.502   4.935
 4934TIP3    H114808   1.412   1.589   4.942
 4934TIP3    H214809   1.448   1.442   4.935
 4935TIP3   OH214810   1.054   1.572   0.291
 4935TIP3    H114811   0.995   1.645   0.270
 4935TIP3    H214812   1.025   1.500   0.234
 4936TIP3   OH214813   4.311   5.020   0.657
 4936TIP3    H114814   4.271   4.960   0.595
 4936TIP3    H214815   4.362   5.080   0.602
 4937TIP3   OH214816   5.898   2.013   3.181
 4937TIP3    H114817   5.954   1.942   3.149
 4937TIP3    H214818   5.937   2.093   3.144
 4938TIP3   OH214819   1.126   3.054   4.020
 4938TIP3    H114820   1.214   3.039   3.984
 4938TIP3    H214821   1.122   3.148   4.036
 4939TIP3   OH214822   3.347   1.387   3.335
 4939TIP3    H114823   3.418   1.442   3.369
 4939TIP3    H214824   3.384   1.299   3.335
 4940TIP3   OH214825   0.391   4.059   2.109
 4940TIP3    H114826   0.309   4.013   2.090
 4940TIP3    H214827   0.458   4.005   2.068
 4941TIP3   OH214828   0.353   2.550   1.121
 4941TIP3    H114829   0.386   2.491   1.053
 4941TIP3    H214830   0.383   2.511   1.203
 4942TIP3   OH214831   6.136   5.523   2.730
 4942TIP3    H114832   6.141   5.489   2.640
 4942TIP3    H214833   6.052   5.569   2.734
 4943TIP3   OH214834   3.909   5.967   1.996
 4943TIP3    H114835   3.927   5.942   2.087
 4943TIP3    H214836   3.835   5.913   1.970
 4944TIP3   OH214837   4.559   1.497   2.335
 4944TIP3    H114838   4.578   1.412   2.295
 4944TIP3    H214839   4.482   1.481   2.390
 4945TIP3   OH214840   6.093   3.088   2.822
 4945TIP3    H114841   6.100   3.134   2.738
 4945TIP3    H214842   6.003   3.054   2.823
 4946TIP3   OH214843   3.945   2.215   4.504
 4946TIP3    H114844   3.927   2.261   4.422
 4946TIP3    H214845   3.946   2.285   4.570
 4947TIP3   OH214846   5.602   1.382   4.772
 4947TIP3    H114847   5.691   1.415   4.777
 4947TIP3    H214848   5.595   1.345   4.684
 4948TIP3   OH214849   2.863   3.238   3.487
 4948TIP3    H114850   2.773   3.258   3.462
 4948TIP3    H214851   2.859   3.150   3.524
 4949TIP3   OH214852   3.355   2.588   2.051
 4949TIP3    H114853   3.359   2.665   2.108
 4949TIP3    H214854   3.267   2.591   2.014
 4950TIP3   OH214855   1.616   4.692   3.502
 4950TIP3    H114856   1.592   4.673   3.593
 4950TIP3    H214857   1.711   4.696   3.503
 4951TIP3   OH214858   5.095   5.667   2.598
 4951TIP3    H114859   5.087   5.673   2.502
 4951TIP3    H214860   5.162   5.731   2.620
 4952TIP3   OH214861   2.984   5.840   0.305
 4952TIP3    H114862   3.072   5.813   0.329
 4952TIP3    H214863   2.972   5.925   0.348
 4953TIP3   OH214864   1.201   3.494   0.729
 4953TIP3    H114865   1.214   3.448   0.646
 4953TIP3    H214866   1.141   3.437   0.778
 4954TIP3   OH214867   2.105   0.314   3.515
 4954TIP3    H114868   2.188   0.357   3.496
 4954TIP3    H214869   2.108   0.298   3.609
 4955TIP3   OH214870   3.526   5.933   1.373
 4955TIP3    H114871   3.535   5.979   1.289
 4955TIP3    H214872   3.434   5.944   1.397
 4956TIP3   OH214873   3.658   3.726   2.062
 4956TIP3    H114874   3.699   3.810   2.083
 4956TIP3    H214875   3.630   3.736   1.971
 4957TIP3   OH214876   3.103   1.501   1.533
 4957TIP3    H114877   3.104   1.439   1.460
 4957TIP3    H214878   3.177   1.559   1.516
 4958TIP3   OH214879   4.479   5.467   2.203
 4958TIP3    H114880   4.534   5.529   2.251
 4958TIP3    H214881   4.499   5.382   2.242
 4959TIP3   OH214882   5.492   0.723   4.932
 4959TIP3    H114883   5.491   0.634   4.967
 4959TIP3    H214884   5.497   0.780   5.009
 4960TIP3   OH214885   5.511   2.179   3.640
 4960TIP3    H114886   5.546   2.258   3.681
 4960TIP3    H214887   5.564   2.168   3.561
 4961TIP3   OH214888   4.798   2.427   4.126
 4961TIP3    H114889   4.728   2.482   4.162
 4961TIP3    H214890   4.870   2.437   4.188
 4962TIP3   OH214891   2.062   3.391   2.960
 4962TIP3    H114892   2.034   3.328   3.027
 4962TIP3    H214893   2.042   3.476   2.997
 4963TIP3   OH214894   5.797   3.738   2.630
 4963TIP3    H114895   5.703   3.722   2.617
 4963TIP3    H214896   5.840   3.676   2.571
 4964TIP3   OH214897   6.168   2.542   2.673
 4964TIP3    H114898   6.120   2.603   2.618
 4964TIP3    H214899   6.243   2.593   2.706
 4965TIP3   OH214900   4.552   0.354   1.383
 4965TIP3    H114901   4.532   0.401   1.464
 4965TIP3    H214902   4.628   0.398   1.347
 4966TIP3   OH214903   1.742   0.127   4.705
 4966TIP3    H114904   1.800   0.201   4.720
 4966TIP3    H214905   1.684   0.127   4.781
 4967TIP3   OH214906   5.507   2.283   4.392
 4967TIP3    H114907   5.572   2.314   4.455
 4967TIP3    H214908   5.433   2.343   4.403
 4968TIP3   OH214909   4.483   1.363   0.301
 4968TIP3    H114910   4.494   1.366   0.205
 4968TIP3    H214911   4.559   1.410   0.335
 4969TIP3   OH214912   1.667   2.415   4.988
 4969TIP3    H114913   1.631   2.425   4.899
 4969TIP3    H214914   1.669   2.504   5.023
 4970TIP3   OH214915   2.078   3.656   4.652
 4970TIP3    H114916   1.985   3.641   4.633
 4970TIP3    H214917   2.124   3.619   4.576
 4971TIP3   OH214918   1.264   4.582   0.836
 4971TIP3    H114919   1.197   4.513   0.836
 4971TIP3    H214920   1.215   4.664   0.838
 4972TIP3   OH214921   0.197   1.126   3.344
 4972TIP3    H114922   0.180   1.145   3.436
 4972TIP3    H214923   0.129   1.175   3.297
 4973TIP3   OH214924   1.445   2.938   4.611
 4973TIP3    H114925   1.526   2.889   4.602
 4973TIP3    H214926   1.427   2.971   4.522
 4974TIP3   OH214927   0.929   1.280   4.090
 4974TIP3    H114928   0.970   1.348   4.038
 4974TIP3    H214929   0.846   1.319   4.119
 4975TIP3   OH214930   2.380   4.963   4.872
 4975TIP3    H114931   2.349   4.891   4.816
 4975TIP3    H214932   2.302   4.991   4.920
 4976TIP3   OH214933   3.283   4.075   1.381
 4976TIP3    H114934   3.209   4.134   1.394
 4976TIP3    H214935   3.246   3.999   1.335
 4977TIP3   OH214936   3.743   4.752   3.094
 4977TIP3    H114937   3.751   4.661   3.120
 4977TIP3    H214938   3.825   4.772   3.049
 4978TIP3   OH214939   4.025   4.722   3.237
 4978TIP3    H114940   3.984   4.806   3.217
 4978TIP3    H214941   4.009   4.709   3.331
 4979TIP3   OH214942   0.725   3.466   2.667
 4979TIP3    H114943   0.741   3.424   2.582
 4979TIP3    H214944   0.805   3.516   2.684
 4980TIP3   OH214945   0.147   0.722   4.951
 4980TIP3    H114946   0.134   0.640   4.902
 4980TIP3    H214947   0.212   0.700   5.017
 4981TIP3   OH214948   1.835   4.664   1.270
 4981TIP3    H114949   1.765   4.728   1.288
 4981TIP3    H214950   1.818   4.636   1.181
 4982TIP3   OH214951   4.823   4.664   2.468
 4982TIP3    H114952   4.805   4.579   2.507
 4982TIP3    H214953   4.890   4.647   2.402
 4983TIP3   OH214954   0.999   3.809   2.250
 4983TIP3    H114955   1.036   3.736   2.201
 4983TIP3    H214956   1.016   3.886   2.196
 4984TIP3   OH214957   5.421   2.705   3.306
 4984TIP3    H114958   5.516   2.718   3.302
 4984TIP3    H214959   5.409   2.635   3.369
 4985TIP3   OH214960   2.735   2.627   4.434
 4985TIP3    H114961   2.771   2.706   4.394
 4985TIP3    H214962   2.788   2.615   4.513
 4986TIP3   OH214963   2.516   3.134   1.420
 4986TIP3    H114964   2.596   3.180   1.445
 4986TIP3    H214965   2.452   3.160   1.486
 4987TIP3   OH214966   1.421   2.944   2.024
 4987TIP3    H114967   1.362   2.882   2.067
 4987TIP3    H214968   1.430   2.910   1.935
 4988TIP3   OH214969   0.155   1.651   2.454
 4988TIP3    H114970   0.223   1.594   2.420
 4988TIP3    H214971   0.091   1.656   2.383
 4989TIP3   OH214972   4.925   5.306   1.446
 4989TIP3    H114973   4.967   5.229   1.408
 4989TIP3    H214974   4.937   5.295   1.541
 4990TIP3   OH214975   4.443   1.784   2.581
 4990TIP3    H114976   4.506   1.786   2.653
 4990TIP3    H214977   4.408   1.695   2.582
 4991TIP3   OH214978   4.069   2.383   4.913
 4991TIP3    H114979   4.005   2.394   4.983
 4991TIP3    H214980   4.153   2.382   4.957
 4992TIP3   OH214981   2.600   3.367   4.936
 4992TIP3    H114982   2.639   3.338   5.019
 4992TIP3    H214983   2.554   3.448   4.958
 4993TIP3   OH214984   1.419   3.311   3.809
 4993TIP3    H114985   1.514   3.306   3.796
 4993TIP3    H214986   1.382   3.288   3.725
 4994TIP3   OH214987   3.784   1.641   5.171
 4994TIP3    H114988   3.702   1.634   5.220
 4994TIP3    H214989   3.762   1.609   5.084
 4995TIP3   OH214990   2.044   2.195   2.498
 4995TIP3    H114991   1.998   2.219   2.578
 4995TIP3    H214992   2.099   2.271   2.477
 4996TIP3   OH214993   5.820   0.232   2.932
 4996TIP3    H114994   5.888   0.223   2.866
 4996TIP3    H214995   5.782   0.319   2.917
 4997TIP3   OH214996   0.605   4.114   5.031
 4997TIP3    H114997   0.665   4.057   4.982
 4997TIP3    H214998   0.528   4.059   5.047
 4998TIP3   OH214999   3.344   0.524   1.507
 4998TIP3    H115000   3.340   0.585   1.580
 4998TIP3    H215001   3.420   0.468   1.526
 4999TIP3   OH215002   3.201   5.390   2.928
 4999TIP3    H115003   3.136   5.442   2.975
 4999TIP3    H215004   3.202   5.306   2.973
 5000TIP3   OH215005   6.103   5.433   4.865
 5000TIP3    H115006   6.173   5.453   4.927
 5000TIP3    H215007   6.057   5.517   4.853
 5001TIP3   OH215008   3.161   4.477   0.728
 5001TIP3    H115009   3.137   4.385   0.734
 5001TIP3    H215010   3.231   4.479   0.663
 5002TIP3   OH215011   1.884   4.657   0.478
 5002TIP3    H115012   1.807   4.713   0.472
 5002TIP3    H215013   1.910   4.661   0.570
 5003TIP3   OH215014   4.475   5.383   4.314
 5003TIP3    H115015   4.550   5.357   4.367
 5003TIP3    H215016   4.418   5.429   4.375
 5004TIP3   OH215017   5.759   1.878   4.252
 5004TIP3    H115018   5.803   1.885   4.167
 5004TIP3    H215019   5.698   1.952   4.254
 5005TIP3   OH215020   0.818   3.850   3.887
 5005TIP3    H115021   0.909   3.878   3.876
 5005TIP3    H215022   0.770   3.892   3.816
 5006TIP3   OH215023   2.978   5.562   5.179
 5006TIP3    H115024   2.921   5.629   5.141
 5006TIP3    H215025   2.973   5.489   5.117
 5007TIP3   OH215026   5.488   1.390   0.331
 5007TIP3    H115027   5.467   1.379   0.238
 5007TIP3    H215028   5.466   1.306   0.371
 5008TIP3   OH215029   5.871   3.000   3.190
 5008TIP3    H115030   5.960   2.970   3.169
 5008TIP3    H215031   5.868   3.001   3.285
 5009TIP3   OH215032   4.414   1.532   1.188
 5009TIP3    H115033   4.418   1.627   1.175
 5009TIP3    H215034   4.489   1.512   1.244
 5010TIP3   OH215035   5.494   4.031   0.775
 5010TIP3    H115036   5.418   4.011   0.720
 5010TIP3    H215037   5.509   4.124   0.762
 5011TIP3   OH215038   2.586   2.395   4.318
 5011TIP3    H115039   2.525   2.434   4.256
 5011TIP3    H215040   2.642   2.467   4.346
 5012TIP3   OH215041   5.380   1.665   0.637
 5012TIP3    H115042   5.404   1.672   0.545
 5012TIP3    H215043   5.400   1.751   0.674
 5013TIP3   OH215044   3.994   0.558   1.393
 5013TIP3    H115045   3.992   0.517   1.479
 5013TIP3    H215046   3.903   0.576   1.372
 5014TIP3   OH215047   4.543   1.413   4.392
 5014TIP3    H115048   4.480   1.375   4.330
 5014TIP3    H215049   4.590   1.479   4.342
 5015TIP3   OH215050   2.690   2.687   4.937
 5015TIP3    H115051   2.778   2.672   4.904
 5015TIP3    H215052   2.702   2.736   5.018
 5016TIP3   OH215053   3.955   4.497   0.357
 5016TIP3    H115054   4.041   4.490   0.397
 5016TIP3    H215055   3.918   4.578   0.393
 5017TIP3   OH215056   0.286   2.459   1.906
 5017TIP3    H115057   0.299   2.483   1.998
 5017TIP3    H215058   0.320   2.370   1.900
 5018TIP3   OH215059   1.311   0.085   3.833
 5018TIP3    H115060   1.231   0.042   3.802
 5018TIP3    H215061   1.308   0.173   3.796
 5019TIP3   OH215062   5.573   2.275   3.919
 5019TIP3    H115063   5.554   2.210   3.987
 5019TIP3    H215064   5.551   2.359   3.959
 5020TIP3   OH215065   2.194   3.043   0.742
 5020TIP3    H115066   2.224   2.952   0.752
 5020TIP3    H215067   2.152   3.063   0.825
 5021TIP3   OH215068   0.690   5.785   1.049
 5021TIP3    H115069   0.672   5.850   1.116
 5021TIP3    H215070   0.683   5.833   0.966
 5022TIP3   OH215071   0.322   1.644   1.730
 5022TIP3    H115072   0.275   1.702   1.669
 5022TIP3    H215073   0.253   1.591   1.770
 5023TIP3   OH215074   3.829   2.813   3.566
 5023TIP3    H115075   3.780   2.771   3.637
 5023TIP3    H215076   3.830   2.906   3.590
 5024TIP3   OH215077   1.643   5.179   2.674
 5024TIP3    H115078   1.704   5.121   2.719
 5024TIP3    H215079   1.629   5.137   2.589
 5025TIP3   OH215080   3.032   4.949   2.834
 5025TIP3    H115081   3.123   4.920   2.828
 5025TIP3    H215082   3.024   4.988   2.921
 5026TIP3   OH215083   4.469   3.474   1.523
 5026TIP3    H115084   4.463   3.543   1.457
 5026TIP3    H215085   4.393   3.486   1.579
 5027TIP3   OH215086   1.929   0.904   4.729
 5027TIP3    H115087   1.967   0.821   4.758
 5027TIP3    H215088   1.998   0.945   4.677
 5028TIP3   OH215089   1.644   0.378   4.420
 5028TIP3    H115090   1.577   0.419   4.366
 5028TIP3    H215091   1.630   0.284   4.409
 5029TIP3   OH215092   4.891   0.612   1.033
 5029TIP3    H115093   4.915   0.665   0.957
 5029TIP3    H215094   4.915   0.666   1.108
 5030TIP3   OH215095   2.669   1.110   0.900
 5030TIP3    H115096   2.605   1.062   0.952
 5030TIP3    H215097   2.702   1.178   0.959
 5031TIP3   OH215098   5.574   2.151   1.732
 5031TIP3    H115099   5.508   2.139   1.664
 5031TIP3    H215100   5.588   2.063   1.768
 5032TIP3   OH215101   1.096   3.758   1.059
 5032TIP3    H115102   1.159   3.819   1.021
 5032TIP3    H215103   1.071   3.798   1.142
 5033TIP3   OH215104   2.230   5.179   0.651
 5033TIP3    H115105   2.257   5.087   0.649
 5033TIP3    H215106   2.162   5.186   0.583
 5034TIP3   OH215107   1.974   0.013   4.367
 5034TIP3    H115108   1.970   0.030   4.272
 5034TIP3    H215109   1.886   0.033   4.398
 5035TIP3   OH215110   6.244   5.806   0.126
 5035TIP3    H115111   6.252   5.734   0.063
 5035TIP3    H215112   6.335   5.830   0.147
 5036TIP3   OH215113   2.650   2.980   0.280
 5036TIP3    H115114   2.695   2.962   0.362
 5036TIP3    H215115   2.586   3.048   0.302
 5037TIP3   OH215116   0.667   0.222   1.151
 5037TIP3    H115117   0.662   0.142   1.204
 5037TIP3    H215118   0.616   0.287   1.201
 5038TIP3   OH215119   5.686   2.949   1.841
 5038TIP3    H115120   5.663   3.013   1.773
 5038TIP3    H215121   5.779   2.966   1.858
 5039TIP3   OH215122   2.809   2.163   4.989
 5039TIP3    H115123   2.827   2.244   5.036
 5039TIP3    H215124   2.804   2.189   4.897
 5040TIP3   OH215125   5.813   1.822   3.644
 5040TIP3    H115126   5.905   1.841   3.661
 5040TIP3    H215127   5.806   1.820   3.548
 5041TIP3   OH215128   0.237   4.703   1.296
 5041TIP3    H115129   0.227   4.621   1.247
 5041TIP3    H215130   0.186   4.766   1.246
 5042TIP3   OH215131   1.849   4.155   0.344
 5042TIP3    H115132   1.875   4.246   0.354
 5042TIP3    H215133   1.928   4.111   0.312
 5043TIP3   OH215134   6.088   5.315   0.200
 5043TIP3    H115135   6.095   5.244   0.264
 5043TIP3    H215136   6.178   5.343   0.186
 5044TIP3   OH215137   1.044   3.986   4.902
 5044TIP3    H115138   1.059   4.079   4.916
 5044TIP3    H215139   0.963   3.981   4.851
 5045TIP3   OH215140   4.663   3.321   2.094
 5045TIP3    H115141   4.644   3.243   2.146
 5045TIP3    H215142   4.578   3.365   2.085
 5046TIP3   OH215143   1.293   5.578   5.128
 5046TIP3    H115144   1.373   5.549   5.170
 5046TIP3    H215145   1.264   5.653   5.179
 5047TIP3   OH215146   5.438   0.266   4.692
 5047TIP3    H115147   5.442   0.348   4.643
 5047TIP3    H215148   5.348   0.235   4.681
 5048TIP3   OH215149   4.683   5.191   3.361
 5048TIP3    H115150   4.706   5.281   3.384
 5048TIP3    H215151   4.715   5.138   3.434
 5049TIP3   OH215152   2.221   5.920   0.362
 5049TIP3    H115153   2.186   5.833   0.344
 5049TIP3    H215154   2.163   5.956   0.429
 5050TIP3   OH215155  -0.027   1.132   0.909
 5050TIP3    H115156  -0.010   1.134   1.003
 5050TIP3    H215157   0.058   1.111   0.870
 5051TIP3   OH215158   6.151   2.260   5.047
 5051TIP3    H115159   6.189   2.207   4.977
 5051TIP3    H215160   6.194   2.229   5.127
 5052TIP3   OH215161   1.288   5.004   3.853
 5052TIP3    H115162   1.330   5.078   3.809
 5052TIP3    H215163   1.318   4.927   3.806
 5053TIP3   OH215164   4.714   4.704   1.606
 5053TIP3    H115165   4.767   4.679   1.682
 5053TIP3    H215166   4.746   4.648   1.535
 5054TIP3   OH215167   5.476   5.214   0.818
 5054TIP3    H115168   5.408   5.147   0.824
 5054TIP3    H215169   5.459   5.273   0.892
 5055TIP3   OH215170   1.574   4.309   5.022
 5055TIP3    H115171   1.567   4.404   5.012
 5055TIP3    H215172   1.549   4.292   5.113
 5056TIP3   OH215173   4.748   2.335   0.073
 5056TIP3    H115174   4.768   2.363   0.162
 5056TIP3    H215175   4.688   2.402   0.039
 5057TIP3   OH215176   6.265   0.337   4.724
 5057TIP3    H115177   6.339   0.390   4.753
 5057TIP3    H215178   6.198   0.350   4.791
 5058TIP3   OH215179   1.544   3.071   2.903
 5058TIP3    H115180   1.593   3.150   2.924
 5058TIP3    H215181   1.514   3.085   2.813
 5059TIP3   OH215182   4.428   3.465   2.064
 5059TIP3    H115183   4.366   3.485   2.135
 5059TIP3    H215184   4.455   3.551   2.032
 5060TIP3   OH215185   1.140   5.947   5.082
 5060TIP3    H115186   1.190   5.906   5.153
 5060TIP3    H215187   1.202   6.007   5.041
 5061TIP3   OH215188   1.738   2.759   1.285
 5061TIP3    H115189   1.690   2.842   1.284
 5061TIP3    H215190   1.825   2.782   1.252
 5062TIP3   OH215191   1.233   4.251   4.851
 5062TIP3    H115192   1.201   4.204   4.774
 5062TIP3    H215193   1.303   4.197   4.886
 5063TIP3   OH215194   2.722   5.575   3.815
 5063TIP3    H115195   2.774   5.655   3.810
 5063TIP3    H215196   2.772   5.517   3.873
 5064TIP3   OH215197   4.036   4.368   3.357
 5064TIP3    H115198   3.940   4.359   3.358
 5064TIP3    H215199   4.064   4.342   3.445
 5065TIP3   OH215200   3.381   2.456   2.377
 5065TIP3    H115201   3.408   2.395   2.309
 5065TIP3    H215202   3.292   2.482   2.353
 5066TIP3   OH215203   2.115   0.804   0.980
 5066TIP3    H115204   2.175   0.743   0.937
 5066TIP3    H215205   2.168   0.848   1.045
 5067TIP3   OH215206   2.235   4.894   0.708
 5067TIP3    H115207   2.254   4.831   0.777
 5067TIP3    H215208   2.229   4.841   0.628
 5068TIP3   OH215209   1.385   4.931   1.195
 5068TIP3    H115210   1.322   4.862   1.177
 5068TIP3    H215211   1.424   4.950   1.109
 5069TIP3   OH215212   4.711   1.964   3.787
 5069TIP3    H115213   4.765   2.043   3.797
 5069TIP3    H215214   4.686   1.940   3.876
 5070TIP3   OH215215   1.516   1.155   5.105
 5070TIP3    H115216   1.517   1.218   5.177
 5070TIP3    H215217   1.525   1.208   5.026
 5071TIP3   OH215218   5.337   2.982   4.324
 5071TIP3    H115219   5.369   3.029   4.247
 5071TIP3    H215220   5.407   2.990   4.388
 5072TIP3   OH215221   1.321   3.143   1.176
 5072TIP3    H115222   1.336   3.094   1.095
 5072TIP3    H215223   1.324   3.077   1.245
 5073TIP3   OH215224   6.275   0.116   1.763
 5073TIP3    H115225   6.299   0.204   1.735
 5073TIP3    H215226   6.286   0.062   1.684
 5074TIP3   OH215227   3.914   2.384   5.120
 5074TIP3    H115228   3.944   2.371   5.210
 5074TIP3    H215229   3.819   2.374   5.124
 5075TIP3   OH215230   2.082   5.752   0.665
 5075TIP3    H115231   2.111   5.682   0.606
 5075TIP3    H215232   1.988   5.760   0.648
 5076TIP3   OH215233   0.337   1.230   4.756
 5076TIP3    H115234   0.332   1.203   4.664
 5076TIP3    H215235   0.429   1.216   4.780
 5077TIP3   OH215236   3.839   2.158   1.379
 5077TIP3    H115237   3.878   2.074   1.354
 5077TIP3    H215238   3.761   2.134   1.429
 5078TIP3   OH215239   0.978   0.252   2.860
 5078TIP3    H115240   0.923   0.175   2.851
 5078TIP3    H215241   0.922   0.315   2.906
 5079TIP3   OH215242   3.429   5.869   3.587
 5079TIP3    H115243   3.415   5.790   3.640
 5079TIP3    H215244   3.428   5.837   3.497
 5080TIP3   OH215245   2.757   3.792   1.324
 5080TIP3    H115246   2.780   3.781   1.232
 5080TIP3    H215247   2.794   3.714   1.367
 5081TIP3   OH215248   6.166   0.471   1.826
 5081TIP3    H115249   6.162   0.485   1.921
 5081TIP3    H215250   6.102   0.402   1.810
 5082TIP3   OH215251   4.588   4.739   0.649
 5082TIP3    H115252   4.681   4.742   0.673
 5082TIP3    H215253   4.565   4.830   0.629
 5083TIP3   OH215254   6.118   5.874   3.617
 5083TIP3    H115255   6.211   5.895   3.612
 5083TIP3    H215256   6.104   5.848   3.708
 5084TIP3   OH215257   3.969   5.356   3.509
 5084TIP3    H115258   4.035   5.402   3.560
 5084TIP3    H215259   3.909   5.320   3.574
 5085TIP3   OH215260   2.362   2.952   1.844
 5085TIP3    H115261   2.353   3.001   1.762
 5085TIP3    H215262   2.275   2.916   1.860
 5086TIP3   OH215263   1.003   2.069   4.272
 5086TIP3    H115264   0.928   2.116   4.235
 5086TIP3    H215265   0.964   1.996   4.319
 5087TIP3   OH215266   2.934   0.341   5.073
 5087TIP3    H115267   2.866   0.339   5.140
 5087TIP3    H215268   2.933   0.430   5.040
 5088TIP3   OH215269   5.134   3.015   3.577
 5088TIP3    H115270   5.190   2.943   3.606
 5088TIP3    H215271   5.133   3.076   3.651
 5089TIP3   OH215272   6.079   1.590   4.990
 5089TIP3    H115273   6.148   1.653   4.971
 5089TIP3    H215274   6.119   1.529   5.052
 5090TIP3   OH215275   3.190   1.144   4.260
 5090TIP3    H115276   3.106   1.173   4.296
 5090TIP3    H215277   3.251   1.214   4.282
 5091TIP3   OH215278   2.651   3.564   0.988
 5091TIP3    H115279   2.606   3.516   1.057
 5091TIP3    H215280   2.729   3.512   0.969
 5092TIP3   OH215281   0.781   4.505   2.314
 5092TIP3    H115282   0.824   4.587   2.289
 5092TIP3    H215283   0.692   4.531   2.338
 5093TIP3   OH215284   4.004   0.766   2.106
 5093TIP3    H115285   4.030   0.822   2.032
 5093TIP3    H215286   3.909   0.756   2.096
 5094TIP3   OH215287   2.521   0.338   4.480
 5094TIP3    H115288   2.552   0.418   4.439
 5094TIP3    H215289   2.440   0.363   4.525
 5095TIP3   OH215290   2.563   3.633   2.580
 5095TIP3    H115291   2.508   3.708   2.559
 5095TIP3    H215292   2.557   3.576   2.503
 5096TIP3   OH215293   2.168   2.871   3.885
 5096TIP3    H115294   2.123   2.786   3.890
 5096TIP3    H215295   2.256   2.849   3.856
 5097TIP3   OH215296   4.498   5.387   3.137
 5097TIP3    H115297   4.590   5.402   3.157
 5097TIP3    H215298   4.484   5.294   3.154
 5098TIP3   OH215299   5.587   3.418   2.784
 5098TIP3    H115300   5.622   3.383   2.702
 5098TIP3    H215301   5.575   3.340   2.839
 5099TIP3   OH215302   4.913   5.340   0.040
 5099TIP3    H115303   4.964   5.409  -0.002
 5099TIP3    H215304   4.959   5.323   0.122
 5100TIP3   OH215305   3.292   4.976   2.677
 5100TIP3    H115306   3.372   4.954   2.725
 5100TIP3    H215307   3.289   5.072   2.676
 5101TIP3   OH215308   4.553   0.792   2.543
 5101TIP3    H115309   4.534   0.869   2.490
 5101TIP3    H215310   4.491   0.726   2.511
 5102TIP3   OH215311   0.758   3.167   4.863
 5102TIP3    H115312   0.692   3.234   4.882
 5102TIP3    H215313   0.743   3.098   4.927
 5103TIP3   OH215314   0.148   3.301   3.157
 5103TIP3    H115315   0.199   3.233   3.113
 5103TIP3    H215316   0.164   3.380   3.105
 5104TIP3   OH215317   1.641   1.472   1.603
 5104TIP3    H115318   1.577   1.403   1.617
 5104TIP3    H215319   1.652   1.476   1.508
 5105TIP3   OH215320   4.522   2.109   0.187
 5105TIP3    H115321   4.612   2.130   0.163
 5105TIP3    H215322   4.516   2.130   0.280
 5106TIP3   OH215323   2.482   0.877   3.357
 5106TIP3    H115324   2.487   0.783   3.345
 5106TIP3    H215325   2.396   0.892   3.397
 5107TIP3   OH215326   6.096   4.054   0.408
 5107TIP3    H115327   6.089   4.084   0.499
 5107TIP3    H215328   6.006   4.054   0.376
 5108TIP3   OH215329   3.603   1.262   2.095
 5108TIP3    H115330   3.526   1.251   2.152
 5108TIP3    H215331   3.656   1.184   2.112
 5109TIP3   OH215332   3.624   4.102   3.069
 5109TIP3    H115333   3.686   4.100   2.996
 5109TIP3    H215334   3.674   4.074   3.145
 5110TIP3   OH215335   2.077   1.906   4.290
 5110TIP3    H115336   2.053   1.998   4.300
 5110TIP3    H215337   1.999   1.857   4.316
 5111TIP3   OH215338   2.840   1.254   4.965
 5111TIP3    H115339   2.859   1.162   4.977
 5111TIP3    H215340   2.855   1.294   5.051
 5112TIP3   OH215341   2.614   5.586   2.127
 5112TIP3    H115342   2.662   5.583   2.044
 5112TIP3    H215343   2.566   5.503   2.131
 5113TIP3   OH215344   2.227   0.353   4.796
 5113TIP3    H115345   2.260   0.264   4.782
 5113TIP3    H215346   2.236   0.396   4.710
 5114TIP3   OH215347   0.315   4.752   5.115
 5114TIP3    H115348   0.378   4.824   5.113
 5114TIP3    H215349   0.337   4.703   5.195
 5115TIP3   OH215350   1.679   1.064   4.765
 5115TIP3    H115351   1.774   1.053   4.772
 5115TIP3    H215352   1.644   0.975   4.757
 5116TIP3   OH215353   4.290   4.587   5.124
 5116TIP3    H115354   4.245   4.503   5.138
 5116TIP3    H215355   4.380   4.563   5.103
 5117TIP3   OH215356   2.951   4.379   1.621
 5117TIP3    H115357   2.969   4.322   1.546
 5117TIP3    H215358   2.950   4.319   1.696
 5118TIP3   OH215359   1.521   2.599   3.336
 5118TIP3    H115360   1.559   2.684   3.357
 5118TIP3    H215361   1.592   2.551   3.294
 5119TIP3   OH215362   5.280   0.129   0.260
 5119TIP3    H115363   5.325   0.211   0.279
 5119TIP3    H215364   5.314   0.068   0.326
 5120TIP3   OH215365   2.874   2.083   0.303
 5120TIP3    H115366   2.794   2.133   0.286
 5120TIP3    H215367   2.940   2.124   0.247
 5121TIP3   OH215368   1.897   0.176   3.422
 5121TIP3    H115369   1.967   0.228   3.462
 5121TIP3    H215370   1.943   0.106   3.377
 5122TIP3   OH215371   6.019   4.250   0.970
 5122TIP3    H115372   5.976   4.235   1.054
 5122TIP3    H215373   5.949   4.244   0.905
 5123TIP3   OH215374   5.281   3.878   0.652
 5123TIP3    H115375   5.361   3.826   0.651
 5123TIP3    H215376   5.214   3.818   0.686
 5124TIP3   OH215377   3.255   1.928   1.148
 5124TIP3    H115378   3.205   1.975   1.082
 5124TIP3    H215379   3.315   1.993   1.184
 5125TIP3   OH215380   4.064   0.828   0.866
 5125TIP3    H115381   4.031   0.893   0.804
 5125TIP3    H215382   4.058   0.871   0.952
 5126TIP3   OH215383   2.360   3.818   2.545
 5126TIP3    H115384   2.318   3.734   2.525
 5126TIP3    H215385   2.287   3.877   2.566
 5127TIP3   OH215386   4.564   3.973   4.486
 5127TIP3    H115387   4.569   4.062   4.452
 5127TIP3    H215388   4.482   3.971   4.535
 5128TIP3   OH215389   3.732   0.960   0.875
 5128TIP3    H115390   3.791   0.892   0.840
 5128TIP3    H215391   3.684   0.916   0.945
 5129TIP3   OH215392   1.891   3.335   2.559
 5129TIP3    H115393   1.919   3.425   2.580
 5129TIP3    H215394   1.960   3.302   2.500
 5130TIP3   OH215395   0.565   1.367   1.678
 5130TIP3    H115396   0.503   1.370   1.605
 5130TIP3    H215397   0.511   1.383   1.755
 5131TIP3   OH215398   1.985   1.592   0.483
 5131TIP3    H115399   2.034   1.606   0.564
 5131TIP3    H215400   1.933   1.672   0.473
 5132TIP3   OH215401   3.622   5.819   0.626
 5132TIP3    H115402   3.631   5.813   0.531
 5132TIP3    H215403   3.537   5.781   0.645
 5133TIP3   OH215404   5.035   1.233   4.944
 5133TIP3    H115405   5.006   1.318   4.976
 5133TIP3    H215406   4.960   1.175   4.958
 5134TIP3   OH215407   1.702   1.622   3.617
 5134TIP3    H115408   1.641   1.571   3.564
 5134TIP3    H215409   1.744   1.558   3.674
 5135TIP3   OH215410   4.967   2.873   1.342
 5135TIP3    H115411   5.050   2.909   1.372
 5135TIP3    H215412   4.987   2.782   1.318
 5136TIP3   OH215413   4.418   2.966   2.065
 5136TIP3    H115414   4.413   2.870   2.055
 5136TIP3    H215415   4.327   2.994   2.072
 5137TIP3   OH215416   2.406   1.049   4.145
 5137TIP3    H115417   2.467   1.121   4.161
 5137TIP3    H215418   2.420   1.026   4.053
 5138TIP3   OH215419   2.492   5.098   4.435
 5138TIP3    H115420   2.546   5.019   4.431
 5138TIP3    H215421   2.434   5.091   4.359
 5139TIP3   OH215422   6.221   2.799   4.270
 5139TIP3    H115423   6.185   2.868   4.326
 5139TIP3    H215424   6.291   2.760   4.323
 5140TIP3   OH215425   3.297   0.929   0.867
 5140TIP3    H115426   3.375   0.946   0.813
 5140TIP3    H215427   3.310   0.840   0.899
 5141TIP3   OH215428   1.900   4.412   0.353
 5141TIP3    H115429   1.979   4.424   0.301
 5141TIP3    H215430   1.893   4.491   0.406
 5142TIP3   OH215431   2.453   1.496   1.565
 5142TIP3    H115432   2.411   1.526   1.645
 5142TIP3    H215433   2.476   1.405   1.583
 5143TIP3   OH215434   1.260   0.432   2.488
 5143TIP3    H115435   1.300   0.508   2.445
 5143TIP3    H215436   1.180   0.467   2.527
 5144TIP3   OH215437   4.672   0.137   0.304
 5144TIP3    H115438   4.746   0.196   0.313
 5144TIP3    H215439   4.599   0.193   0.279
 5145TIP3   OH215440   3.849   4.705   3.935
 5145TIP3    H115441   3.807   4.656   3.865
 5145TIP3    H215442   3.864   4.640   4.004
 5146TIP3   OH215443   4.566   5.194   2.308
 5146TIP3    H115444   4.621   5.116   2.315
 5146TIP3    H215445   4.567   5.232   2.396
 5147TIP3   OH215446   4.276   0.305   4.998
 5147TIP3    H115447   4.344   0.265   4.943
 5147TIP3    H215448   4.203   0.243   4.994
 5148TIP3   OH215449   4.034   5.103   3.390
 5148TIP3    H115450   4.108   5.067   3.438
 5148TIP3    H215451   4.012   5.184   3.436
 5149TIP3   OH215452   5.595   3.158   1.676
 5149TIP3    H115453   5.654   3.119   1.611
 5149TIP3    H215454   5.558   3.234   1.631
 5150TIP3   OH215455   5.590   3.861   1.447
 5150TIP3    H115456   5.494   3.859   1.442
 5150TIP3    H215457   5.613   3.780   1.494
 5151TIP3   OH215458   3.205   0.348   0.729
 5151TIP3    H115459   3.146   0.365   0.657
 5151TIP3    H215460   3.230   0.256   0.719
 5152TIP3   OH215461   0.735   3.542   3.678
 5152TIP3    H115462   0.653   3.581   3.709
 5152TIP3    H215463   0.791   3.540   3.756
 5153TIP3   OH215464   5.432   2.858   1.026
 5153TIP3    H115465   5.341   2.832   1.037
 5153TIP3    H215466   5.449   2.846   0.932
 5154TIP3   OH215467   1.984   3.550   1.088
 5154TIP3    H115468   1.975   3.495   1.166
 5154TIP3    H215469   1.931   3.628   1.108
 5155TIP3   OH215470   6.144   5.784   4.627
 5155TIP3    H115471   6.062   5.744   4.658
 5155TIP3    H215472   6.127   5.805   4.536
 5156TIP3   OH215473   3.707   5.106   1.594
 5156TIP3    H115474   3.742   5.032   1.544
 5156TIP3    H215475   3.751   5.100   1.679
 5157TIP3   OH215476   0.691   1.536   1.470
 5157TIP3    H115477   0.690   1.594   1.546
 5157TIP3    H215478   0.765   1.478   1.485
 5158TIP3   OH215479   4.594   0.803   0.247
 5158TIP3    H115480   4.513   0.758   0.225
 5158TIP3    H215481   4.570   0.866   0.315
 5159TIP3   OH215482   4.924   1.167   0.120
 5159TIP3    H115483   4.849   1.130   0.168
 5159TIP3    H215484   4.907   1.145   0.029
 5160TIP3   OH215485   5.801   1.508   2.341
 5160TIP3    H115486   5.756   1.529   2.259
 5160TIP3    H215487   5.733   1.513   2.408
 5161TIP3   OH215488   1.453   4.704   0.654
 5161TIP3    H115489   1.518   4.695   0.723
 5161TIP3    H215490   1.397   4.627   0.663
 5162TIP3   OH215491   6.199   0.414   3.746
 5162TIP3    H115492   6.204   0.325   3.711
 5162TIP3    H215493   6.106   0.436   3.746
 5163TIP3   OH215494   4.475   3.720   1.911
 5163TIP3    H115495   4.498   3.736   1.819
 5163TIP3    H215496   4.498   3.801   1.956
 5164TIP3   OH215497   4.769   3.939   2.693
 5164TIP3    H115498   4.740   3.927   2.603
 5164TIP3    H215499   4.748   4.030   2.714
 5165TIP3   OH215500   3.845   3.894   4.057
 5165TIP3    H115501   3.924   3.843   4.034
 5165TIP3    H215502   3.795   3.898   3.976
 5166TIP3   OH215503   4.521   0.988   2.313
 5166TIP3    H115504   4.604   0.990   2.265
 5166TIP3    H215505   4.454   0.990   2.245
 5167TIP3   OH215506   1.254   2.719   1.153
 5167TIP3    H115507   1.225   2.686   1.068
 5167TIP3    H215508   1.349   2.703   1.153
 5168TIP3   OH215509   1.180   2.402   4.312
 5168TIP3    H115510   1.187   2.318   4.357
 5168TIP3    H215511   1.086   2.412   4.296
 5169TIP3   OH215512   5.291   4.265   4.244
 5169TIP3    H115513   5.280   4.240   4.152
 5169TIP3    H215514   5.377   4.230   4.269
 5170TIP3   OH215515   4.154   4.307   4.629
 5170TIP3    H115516   4.092   4.343   4.565
 5170TIP3    H215517   4.157   4.373   4.699
 5171TIP3   OH215518   5.131   1.264   3.709
 5171TIP3    H115519   5.039   1.253   3.686
 5171TIP3    H215520   5.132   1.340   3.767
 5172TIP3   OH215521   3.834   4.351   3.800
 5172TIP3    H115522   3.848   4.274   3.744
 5172TIP3    H215523   3.760   4.326   3.855
 5173TIP3   OH215524   3.281   0.612   4.446
 5173TIP3    H115525   3.241   0.698   4.458
 5173TIP3    H215526   3.348   0.625   4.378
 5174TIP3   OH215527   1.973   3.425   0.577
 5174TIP3    H115528   1.955   3.332   0.565
 5174TIP3    H215529   2.067   3.429   0.597
 5175TIP3   OH215530   1.287   1.591   4.610
 5175TIP3    H115531   1.247   1.520   4.662
 5175TIP3    H215532   1.216   1.654   4.597
 5176TIP3   OH215533   4.839   5.129   4.470
 5176TIP3    H115534   4.859   5.130   4.564
 5176TIP3    H215535   4.919   5.097   4.429
 5177TIP3   OH215536   5.211   1.153   4.048
 5177TIP3    H115537   5.160   1.222   4.090
 5177TIP3    H215538   5.292   1.196   4.020
 5178TIP3   OH215539   2.147   2.413   3.681
 5178TIP3    H115540   2.179   2.409   3.771
 5178TIP3    H215541   2.176   2.499   3.650
 5179TIP3   OH215542   3.451   3.741   4.486
 5179TIP3    H115543   3.422   3.655   4.515
 5179TIP3    H215544   3.385   3.768   4.422
 5180TIP3   OH215545   5.416   3.401   2.440
 5180TIP3    H115546   5.370   3.349   2.506
 5180TIP3    H215547   5.496   3.352   2.422
 5181TIP3   OH215548   6.094   1.282   3.590
 5181TIP3    H115549   6.048   1.313   3.512
 5181TIP3    H215550   6.045   1.205   3.618
 5182TIP3   OH215551   2.090   5.816   4.603
 5182TIP3    H115552   2.018   5.830   4.542
 5182TIP3    H215553   2.150   5.757   4.557
 5183TIP3   OH215554   0.884   1.709   0.116
 5183TIP3    H115555   0.940   1.682   0.043
 5183TIP3    H215556   0.797   1.678   0.092
 5184TIP3   OH215557   6.128   4.412   0.367
 5184TIP3    H115558   6.206   4.380   0.411
 5184TIP3    H215559   6.099   4.339   0.313
 5185TIP3   OH215560   1.848   0.727   1.003
 5185TIP3    H115561   1.908   0.747   0.931
 5185TIP3    H215562   1.887   0.769   1.079
 5186TIP3   OH215563   1.137   5.229   3.959
 5186TIP3    H115564   1.181   5.303   3.917
 5186TIP3    H215565   1.190   5.153   3.937
 5187TIP3   OH215566   5.518   1.131   3.154
 5187TIP3    H115567   5.450   1.160   3.093
 5187TIP3    H215568   5.599   1.167   3.118
 5188TIP3   OH215569   3.343   3.043   0.824
 5188TIP3    H115570   3.296   2.982   0.767
 5188TIP3    H215571   3.293   3.125   0.818
 5189TIP3   OH215572   0.149   2.201   2.927
 5189TIP3    H115573   0.060   2.209   2.961
 5189TIP3    H215574   0.146   2.123   2.872
 5190TIP3   OH215575   5.863   5.402   3.245
 5190TIP3    H115576   5.856   5.473   3.181
 5190TIP3    H215577   5.876   5.323   3.191
 5191TIP3   OH215578   4.330   5.390   3.785
 5191TIP3    H115579   4.237   5.367   3.787
 5191TIP3    H215580   4.372   5.323   3.839
 5192TIP3   OH215581   4.831   2.138   0.287
 5192TIP3    H115582   4.886   2.108   0.214
 5192TIP3    H215583   4.860   2.228   0.303
 5193TIP3   OH215584   5.037   3.241   2.416
 5193TIP3    H115585   5.077   3.268   2.333
 5193TIP3    H215586   5.110   3.235   2.477
 5194TIP3   OH215587   2.662   4.976   3.846
 5194TIP3    H115588   2.650   4.988   3.940
 5194TIP3    H215589   2.594   5.030   3.805
 5195TIP3   OH215590   3.945   5.492   2.506
 5195TIP3    H115591   3.947   5.570   2.451
 5195TIP3    H215592   3.962   5.420   2.446
 5196TIP3   OH215593   5.288   3.777   0.919
 5196TIP3    H115594   5.322   3.705   0.865
 5196TIP3    H215595   5.258   3.735   0.999
 5197TIP3   OH215596   1.453   5.096   3.273
 5197TIP3    H115597   1.497   5.055   3.199
 5197TIP3    H215598   1.524   5.122   3.332
 5198TIP3   OH215599   5.413   4.502   4.768
 5198TIP3    H115600   5.472   4.496   4.693
 5198TIP3    H215601   5.376   4.415   4.777
 5199TIP3   OH215602   0.658   0.527   0.809
 5199TIP3    H115603   0.684   0.612   0.843
 5199TIP3    H215604   0.723   0.465   0.845
 5200TIP3   OH215605   2.100   1.883   2.292
 5200TIP3    H115606   2.147   1.958   2.329
 5200TIP3    H215607   2.021   1.875   2.347
 5201TIP3   OH215608   3.001   4.810   3.204
 5201TIP3    H115609   3.021   4.830   3.296
 5201TIP3    H215610   3.004   4.895   3.160
 5202TIP3   OH215611   0.466   0.333   2.806
 5202TIP3    H115612   0.557   0.340   2.780
 5202TIP3    H215613   0.460   0.249   2.852
 5203TIP3   OH215614   2.970   4.530   3.578
 5203TIP3    H115615   2.943   4.470   3.508
 5203TIP3    H215616   2.926   4.612   3.556
 5204TIP3   OH215617   1.628   2.251   0.801
 5204TIP3    H115618   1.633   2.163   0.764
 5204TIP3    H215619   1.537   2.259   0.832
 5205TIP3   OH215620   4.946   1.309   0.567
 5205TIP3    H115621   5.006   1.276   0.500
 5205TIP3    H215622   4.997   1.376   0.613
 5206TIP3   OH215623   2.458   1.336   3.075
 5206TIP3    H115624   2.406   1.384   3.139
 5206TIP3    H215625   2.500   1.266   3.125
 5207TIP3   OH215626   2.725   4.690   3.704
 5207TIP3    H115627   2.749   4.611   3.752
 5207TIP3    H215628   2.728   4.665   3.612
 5208TIP3   OH215629   5.406   1.900   2.741
 5208TIP3    H115630   5.385   1.841   2.670
 5208TIP3    H215631   5.322   1.921   2.781
 5209TIP3   OH215632   4.526   0.539   4.862
 5209TIP3    H115633   4.464   0.597   4.819
 5209TIP3    H215634   4.522   0.457   4.812
 5210TIP3   OH215635   5.658   5.714   4.764
 5210TIP3    H115636   5.654   5.715   4.668
 5210TIP3    H215637   5.691   5.626   4.785
 5211TIP3   OH215638   5.100   1.917   1.037
 5211TIP3    H115639   5.182   1.870   1.055
 5211TIP3    H215640   5.060   1.867   0.966
 5212TIP3   OH215641   1.862   4.042   3.865
 5212TIP3    H115642   1.835   4.091   3.788
 5212TIP3    H215643   1.781   4.007   3.901
 5213TIP3   OH215644   0.723   3.620   3.995
 5213TIP3    H115645   0.767   3.701   3.968
 5213TIP3    H215646   0.746   3.610   4.088
 5214TIP3   OH215647   5.282   0.477   1.292
 5214TIP3    H115648   5.250   0.522   1.371
 5214TIP3    H215649   5.331   0.545   1.245
 5215TIP3   OH215650   0.655   5.528   1.365
 5215TIP3    H115651   0.709   5.534   1.444
 5215TIP3    H215652   0.712   5.490   1.299
 5216TIP3   OH215653   3.512   3.716   0.332
 5216TIP3    H115654   3.507   3.621   0.325
 5216TIP3    H215655   3.441   3.747   0.275
 5217TIP3   OH215656   0.436   4.430   0.428
 5217TIP3    H115657   0.530   4.431   0.409
 5217TIP3    H215658   0.403   4.352   0.383
 5218TIP3   OH215659   5.462   4.837   3.686
 5218TIP3    H115660   5.539   4.872   3.641
 5218TIP3    H215661   5.392   4.898   3.665
 5219TIP3   OH215662   4.141   5.269   2.660
 5219TIP3    H115663   4.096   5.273   2.576
 5219TIP3    H215664   4.122   5.353   2.702
 5220TIP3   OH215665   5.094   3.649   3.276
 5220TIP3    H115666   5.112   3.705   3.351
 5220TIP3    H215667   5.174   3.653   3.224
 5221TIP3   OH215668   4.818   4.053   5.029
 5221TIP3    H115669   4.858   3.966   5.019
 5221TIP3    H215670   4.891   4.109   5.054
 5222TIP3   OH215671   0.051   5.582   3.734
 5222TIP3    H115672  -0.012   5.583   3.661
 5222TIP3    H215673   0.004   5.541   3.806
 5223TIP3   OH215674   2.698   5.868   4.419
 5223TIP3    H115675   2.770   5.919   4.382
 5223TIP3    H215676   2.678   5.913   4.502
 5224TIP3   OH215677   0.532   1.909   4.878
 5224TIP3    H115678   0.550   1.830   4.929
 5224TIP3    H215679   0.500   1.972   4.943
 5225TIP3   OH215680   4.829   1.425   0.315
 5225TIP3    H115681   4.805   1.332   0.312
 5225TIP3    H215682   4.840   1.444   0.409
 5226TIP3   OH215683   1.641   2.822   3.908
 5226TIP3    H115684   1.607   2.899   3.863
 5226TIP3    H215685   1.591   2.818   3.989
 5227TIP3   OH215686   3.551   4.079   2.658
 5227TIP3    H115687   3.472   4.098   2.709
 5227TIP3    H215688   3.529   4.000   2.609
 5228TIP3   OH215689   2.578   3.874   3.467
 5228TIP3    H115690   2.601   3.949   3.523
 5228TIP3    H215691   2.639   3.805   3.493
 5229TIP3   OH215692   3.453   1.878   4.503
 5229TIP3    H115693   3.392   1.951   4.494
 5229TIP3    H215694   3.539   1.918   4.489
 5230TIP3   OH215695   3.316   4.922   5.109
 5230TIP3    H115696   3.270   4.990   5.061
 5230TIP3    H215697   3.315   4.846   5.051
 5231TIP3   OH215698   2.489   0.227   1.641
 5231TIP3    H115699   2.532   0.298   1.689
 5231TIP3    H215700   2.396   0.249   1.643
 5232TIP3   OH215701   3.933   3.629   2.826
 5232TIP3    H115702   3.955   3.598   2.739
 5232TIP3    H215703   3.996   3.699   2.844
 5233TIP3   OH215704   0.151   1.847   3.834
 5233TIP3    H115705   0.089   1.778   3.857
 5233TIP3    H215706   0.135   1.862   3.740
 5234TIP3   OH215707   5.713   2.898   0.326
 5234TIP3    H115708   5.712   2.967   0.260
 5234TIP3    H215709   5.739   2.943   0.407
 5235TIP3   OH215710   0.452   0.110   0.201
 5235TIP3    H115711   0.370   0.066   0.220
 5235TIP3    H215712   0.435   0.202   0.220
 5236TIP3   OH215713   3.953   3.126   1.205
 5236TIP3    H115714   4.023   3.188   1.182
 5236TIP3    H215715   3.979   3.044   1.164
 5237TIP3   OH215716   2.497   3.522   3.439
 5237TIP3    H115717   2.572   3.493   3.386
 5237TIP3    H215718   2.445   3.443   3.451
 5238TIP3   OH215719   5.078   4.963   2.610
 5238TIP3    H115720   5.022   4.967   2.688
 5238TIP3    H215721   5.161   5.000   2.638
 5239TIP3   OH215722   0.967   5.959   2.560
 5239TIP3    H115723   0.883   5.940   2.517
 5239TIP3    H215724   0.998   5.874   2.591
 5240TIP3   OH215725   1.460   5.265   1.966
 5240TIP3    H115726   1.549   5.298   1.984
 5240TIP3    H215727   1.451   5.273   1.871
 5241TIP3   OH215728   5.739   0.914   1.210
 5241TIP3    H115729   5.753   0.966   1.131
 5241TIP3    H215730   5.690   0.972   1.269
 5242TIP3   OH215731   2.585   0.284   3.281
 5242TIP3    H115732   2.617   0.267   3.369
 5242TIP3    H215733   2.551   0.373   3.284
 5243TIP3   OH215734   4.773   5.101   3.607
 5243TIP3    H115735   4.768   5.127   3.699
 5243TIP3    H215736   4.842   5.156   3.571
 5244TIP3   OH215737   1.875   0.727   4.219
 5244TIP3    H115738   1.806   0.792   4.204
 5244TIP3    H215739   1.830   0.643   4.222
 5245TIP3   OH215740   1.862   2.506   2.121
 5245TIP3    H115741   1.899   2.530   2.206
 5245TIP3    H215742   1.924   2.443   2.084
 5246TIP3   OH215743   3.163   5.282   4.185
 5246TIP3    H115744   3.214   5.211   4.224
 5246TIP3    H215745   3.131   5.332   4.260
 5247TIP3   OH215746   4.643   3.167   4.846
 5247TIP3    H115747   4.669   3.252   4.812
 5247TIP3    H215748   4.639   3.110   4.769
 5248TIP3   OH215749   5.980   0.632  -0.001
 5248TIP3    H115750   6.035   0.578  -0.058
 5248TIP3    H215751   5.992   0.595   0.087
 5249TIP3   OH215752   2.314   3.952   5.014
 5249TIP3    H115753   2.276   3.894   5.080
 5249TIP3    H215754   2.238   3.986   4.966
 5250TIP3   OH215755   6.026   4.281   2.231
 5250TIP3    H115756   5.985   4.300   2.147
 5250TIP3    H215757   6.109   4.239   2.207
 5251TIP3   OH215758   5.827   5.722   3.190
 5251TIP3    H115759   5.762   5.704   3.122
 5251TIP3    H215760   5.796   5.802   3.232
 5252TIP3   OH215761   5.412   2.119   0.165
 5252TIP3    H115762   5.456   2.204   0.164
 5252TIP3    H215763   5.454   2.069   0.095
 5253TIP3   OH215764   3.054   3.599   4.470
 5253TIP3    H115765   3.035   3.523   4.415
 5253TIP3    H215766   3.124   3.645   4.424
 5254TIP3   OH215767   3.021   1.930   0.756
 5254TIP3    H115768   3.023   1.997   0.688
 5254TIP3    H215769   2.948   1.873   0.732
 5255TIP3   OH215770   0.891   4.448   0.470
 5255TIP3    H115771   0.815   4.390   0.479
 5255TIP3    H215772   0.966   4.388   0.466
 5256TIP3   OH215773   1.121   2.871   0.737
 5256TIP3    H115774   1.196   2.819   0.708
 5256TIP3    H215775   1.069   2.812   0.790
 5257TIP3   OH215776   6.210   3.753   4.436
 5257TIP3    H115777   6.293   3.789   4.405
 5257TIP3    H215778   6.143   3.800   4.387
 5258TIP3   OH215779   2.591   4.203   1.907
 5258TIP3    H115780   2.589   4.293   1.874
 5258TIP3    H215781   2.499   4.175   1.906
 5259TIP3   OH215782   5.637   3.477   2.195
 5259TIP3    H115783   5.545   3.488   2.169
 5259TIP3    H215784   5.685   3.542   2.144
 5260TIP3   OH215785   2.771   4.159   0.836
 5260TIP3    H115786   2.820   4.124   0.911
 5260TIP3    H215787   2.694   4.102   0.829
 5261TIP3   OH215788   5.057   2.004   3.176
 5261TIP3    H115789   4.983   2.056   3.144
 5261TIP3    H215790   5.133   2.059   3.163
 5262TIP3   OH215791   3.188   0.950   1.496
 5262TIP3    H115792   3.111   0.911   1.537
 5262TIP3    H215793   3.156   0.984   1.413
 5263TIP3   OH215794   0.181   5.802   4.120
 5263TIP3    H115795   0.207   5.830   4.207
 5263TIP3    H215796   0.154   5.711   4.131
 5264TIP3   OH215797   5.804   2.633   4.236
 5264TIP3    H115798   5.813   2.563   4.300
 5264TIP3    H215799   5.738   2.692   4.273
 5265TIP3   OH215800   1.113   2.849   4.217
 5265TIP3    H115801   1.081   2.916   4.157
 5265TIP3    H215802   1.160   2.787   4.161
 5266TIP3   OH215803   0.303   3.252   0.915
 5266TIP3    H115804   0.280   3.324   0.974
 5266TIP3    H215805   0.222   3.203   0.904
 5267TIP3   OH215806   1.110   2.158   2.209
 5267TIP3    H115807   1.061   2.170   2.128
 5267TIP3    H215808   1.198   2.191   2.189
 5268TIP3   OH215809   1.431   0.322   2.715
 5268TIP3    H115810   1.385   0.381   2.655
 5268TIP3    H215811   1.364   0.260   2.743
 5269TIP3   OH215812   4.314   2.330   4.493
 5269TIP3    H115813   4.396   2.286   4.514
 5269TIP3    H215814   4.303   2.395   4.562
 5270TIP3   OH215815   2.889   0.464   1.103
 5270TIP3    H115816   2.799   0.457   1.071
 5270TIP3    H215817   2.943   0.433   1.030
 5271TIP3   OH215818   5.704   1.599   0.294
 5271TIP3    H115819   5.674   1.638   0.376
 5271TIP3    H215820   5.627   1.603   0.237
 5272TIP3   OH215821   3.752   5.323   0.329
 5272TIP3    H115822   3.840   5.361   0.329
 5272TIP3    H215823   3.744   5.283   0.415
 5273TIP3   OH215824   2.976   5.135   1.715
 5273TIP3    H115825   3.036   5.168   1.648
 5273TIP3    H215826   2.994   5.041   1.720
 5274TIP3   OH215827   3.695   5.694   2.666
 5274TIP3    H115828   3.767   5.692   2.729
 5274TIP3    H215829   3.665   5.603   2.661
 5275TIP3   OH215830   2.646   4.623   4.555
 5275TIP3    H115831   2.627   4.618   4.649
 5275TIP3    H215832   2.728   4.576   4.544
 5276TIP3   OH215833   1.121   2.843   2.964
 5276TIP3    H115834   1.088   2.756   2.988
 5276TIP3    H215835   1.046   2.901   2.977
 5277TIP3   OH215836   2.679   3.626   3.899
 5277TIP3    H115837   2.611   3.649   3.835
 5277TIP3    H215838   2.671   3.531   3.909
 5278TIP3   OH215839   0.205   0.444   0.016
 5278TIP3    H115840   0.278   0.399   0.058
 5278TIP3    H215841   0.245   0.498  -0.052
 5279TIP3   OH215842   3.007   0.098   0.759
 5279TIP3    H115843   2.995   0.110   0.665
 5279TIP3    H215844   3.101   0.085   0.770
 5280TIP3   OH215845   1.164   3.472   3.217
 5280TIP3    H115846   1.156   3.483   3.312
 5280TIP3    H215847   1.224   3.398   3.207
 5281TIP3   OH215848   2.215   2.139   5.072
 5281TIP3    H115849   2.298   2.186   5.077
 5281TIP3    H215850   2.200   2.127   4.978
 5282TIP3   OH215851   1.333   0.908   3.203
 5282TIP3    H115852   1.337   0.816   3.179
 5282TIP3    H215853   1.410   0.947   3.163
 5283TIP3   OH215854   3.432   4.953   0.481
 5283TIP3    H115855   3.355   4.896   0.477
 5283TIP3    H215856   3.463   4.946   0.572
 5284TIP3   OH215857   4.815   5.785   3.932
 5284TIP3    H115858   4.902   5.755   3.958
 5284TIP3    H215859   4.777   5.823   4.011
 5285TIP3   OH215860   3.610   0.578   2.725
 5285TIP3    H115861   3.529   0.593   2.774
 5285TIP3    H215862   3.655   0.662   2.725
 5286TIP3   OH215863   5.148   4.967   2.942
 5286TIP3    H115864   5.174   5.058   2.954
 5286TIP3    H215865   5.155   4.928   3.029
 5287TIP3   OH215866   0.085   3.595   1.828
 5287TIP3    H115867   0.151   3.648   1.872
 5287TIP3    H215868   0.014   3.656   1.809
 5288TIP3   OH215869   3.281   5.102   2.996
 5288TIP3    H115870   3.245   5.105   3.085
 5288TIP3    H215871   3.372   5.129   3.006
 5289TIP3   OH215872   6.095   5.270   1.565
 5289TIP3    H115873   6.052   5.286   1.481
 5289TIP3    H215874   6.140   5.351   1.585
 5290TIP3   OH215875   4.750   4.323   4.952
 5290TIP3    H115876   4.789   4.237   4.962
 5290TIP3    H215877   4.824   4.381   4.933
 5291TIP3   OH215878   1.657   1.263   4.196
 5291TIP3    H115879   1.629   1.225   4.279
 5291TIP3    H215880   1.584   1.248   4.136
 5292TIP3   OH215881   3.462   4.936   4.569
 5292TIP3    H115882   3.455   5.018   4.617
 5292TIP3    H215883   3.538   4.892   4.607
 5293TIP3   OH215884   5.052   4.043   0.116
 5293TIP3    H115885   4.972   4.080   0.078
 5293TIP3    H215886   5.093   3.995   0.045
 5294TIP3   OH215887   4.230   1.539   0.699
 5294TIP3    H115888   4.157   1.602   0.698
 5294TIP3    H215889   4.242   1.517   0.791
 5295TIP3   OH215890   3.855   5.388   2.759
 5295TIP3    H115891   3.824   5.301   2.738
 5295TIP3    H215892   3.905   5.416   2.683
 5296TIP3   OH215893   4.698   1.483   1.275
 5296TIP3    H115894   4.707   1.463   1.182
 5296TIP3    H215895   4.778   1.528   1.298
 5297TIP3   OH215896   1.231   3.084   0.399
 5297TIP3    H115897   1.282   3.018   0.353
 5297TIP3    H215898   1.228   3.158   0.339
 5298TIP3   OH215899   0.162   2.820   3.125
 5298TIP3    H115900   0.081   2.828   3.175
 5298TIP3    H215901   0.196   2.910   3.121
 5299TIP3   OH215902   3.487   3.395   2.323
 5299TIP3    H115903   3.479   3.462   2.391
 5299TIP3    H215904   3.567   3.347   2.346
 5300TIP3   OH215905   0.662   5.531   4.013
 5300TIP3    H115906   0.583   5.556   3.966
 5300TIP3    H215907   0.631   5.480   4.087
 5301TIP3   OH215908   4.755   5.888   4.192
 5301TIP3    H115909   4.803   5.957   4.238
 5301TIP3    H215910   4.733   5.825   4.261
 5302TIP3   OH215911   2.798   3.703   4.530
 5302TIP3    H115912   2.889   3.677   4.513
 5302TIP3    H215913   2.786   3.784   4.481
 5303TIP3   OH215914   3.009   0.145   1.907
 5303TIP3    H115915   3.016   0.086   1.832
 5303TIP3    H215916   2.923   0.187   1.896
 5304TIP3   OH215917   6.155   5.013   2.266
 5304TIP3    H115918   6.072   5.054   2.242
 5304TIP3    H215919   6.159   4.934   2.213
 5305TIP3   OH215920   4.986   4.337   0.034
 5305TIP3    H115921   5.035   4.414   0.005
 5305TIP3    H215922   4.917   4.373   0.090
 5306TIP3   OH215923   3.036   2.841   2.859
 5306TIP3    H115924   3.090   2.762   2.849
 5306TIP3    H215925   3.092   2.911   2.826
 5307TIP3   OH215926   3.208   4.652   3.429
 5307TIP3    H115927   3.303   4.640   3.436
 5307TIP3    H215928   3.174   4.625   3.514
 5308TIP3   OH215929   4.881   4.631   0.342
 5308TIP3    H115930   4.832   4.604   0.265
 5308TIP3    H215931   4.942   4.559   0.359
 5309TIP3   OH215932   5.768   4.311   1.359
 5309TIP3    H115933   5.687   4.300   1.409
 5309TIP3    H215934   5.829   4.248   1.398
 5310TIP3   OH215935   5.413   3.396   4.227
 5310TIP3    H115936   5.500   3.374   4.195
 5310TIP3    H215937   5.373   3.447   4.157
 5311TIP3   OH215938   0.387   5.334   2.762
 5311TIP3    H115939   0.414   5.345   2.671
 5311TIP3    H215940   0.367   5.422   2.792
 5312TIP3   OH215941   6.217   3.202   4.682
 5312TIP3    H115942   6.233   3.107   4.685
 5312TIP3    H215943   6.124   3.210   4.662
 5313TIP3   OH215944   3.188   5.890   2.492
 5313TIP3    H115945   3.222   5.843   2.568
 5313TIP3    H215946   3.135   5.826   2.446
 5314TIP3   OH215947   5.541   4.684   0.456
 5314TIP3    H115948   5.483   4.696   0.531
 5314TIP3    H215949   5.589   4.603   0.476
 5315TIP3   OH215950   2.920   1.395   3.742
 5315TIP3    H115951   2.918   1.489   3.761
 5315TIP3    H215952   2.958   1.356   3.821
 5316TIP3   OH215953   0.849   3.476   0.869
 5316TIP3    H115954   0.832   3.445   0.780
 5316TIP3    H215955   0.855   3.397   0.922
 5317TIP3   OH215956   0.372   4.650   1.890
 5317TIP3    H115957   0.360   4.558   1.914
 5317TIP3    H215958   0.300   4.695   1.934
 5318TIP3   OH215959   4.119   5.190   4.655
 5318TIP3    H115960   4.132   5.269   4.708
 5318TIP3    H215961   4.118   5.222   4.565
 5319TIP3   OH215962   4.941   5.723   0.956
 5319TIP3    H115963   4.908   5.728   1.045
 5319TIP3    H215964   4.864   5.703   0.902
 5320TIP3   OH215965   3.828   4.477   1.450
 5320TIP3    H115966   3.897   4.446   1.391
 5320TIP3    H215967   3.787   4.398   1.484
 5321TIP3   OH215968   0.371   5.695   1.132
 5321TIP3    H115969   0.367   5.611   1.086
 5321TIP3    H215970   0.458   5.730   1.111
 5322TIP3   OH215971   3.566   2.952   1.242
 5322TIP3    H115972   3.549   3.027   1.185
 5322TIP3    H215973   3.645   2.976   1.291
 5323TIP3   OH215974   2.155   5.065   5.042
 5323TIP3    H115975   2.161   4.995   5.107
 5323TIP3    H215976   2.064   5.094   5.046
 5324TIP3   OH215977   0.462   1.299   0.013
 5324TIP3    H115978   0.513   1.328  -0.063
 5324TIP3    H215979   0.387   1.359   0.016
 5325TIP3   OH215980   4.102   3.445   3.062
 5325TIP3    H115981   4.147   3.525   3.038
 5325TIP3    H215982   4.016   3.473   3.092
 5326TIP3   OH215983   0.817   3.622   1.832
 5326TIP3    H115984   0.906   3.616   1.796
 5326TIP3    H215985   0.817   3.702   1.884
 5327TIP3   OH215986   4.645   2.634   3.362
 5327TIP3    H115987   4.617   2.718   3.399
 5327TIP3    H215988   4.576   2.573   3.386
 5328TIP3   OH215989   1.442   5.567   3.373
 5328TIP3    H115990   1.370   5.507   3.352
 5328TIP3    H215991   1.457   5.616   3.292
 5329TIP3   OH215992   5.243   2.264   0.592
 5329TIP3    H115993   5.338   2.265   0.602
 5329TIP3    H215994   5.217   2.178   0.623
 5330TIP3   OH215995   2.876   1.237   4.214
 5330TIP3    H115996   2.925   1.268   4.291
 5330TIP3    H215997   2.806   1.302   4.204
 5331TIP3   OH215998   1.711   2.991   2.038
 5331TIP3    H115999   1.628   2.953   2.065
 5331TIP3    H216000   1.778   2.930   2.070
 5332TIP3   OH216001   2.961   3.973   2.859
 5332TIP3    H116002   2.885   3.915   2.858
 5332TIP3    H216003   2.961   4.011   2.946
 5333TIP3   OH216004   2.130   3.035   2.509
 5333TIP3    H116005   2.111   3.058   2.600
 5333TIP3    H216006   2.207   3.088   2.487
 5334TIP3   OH216007   2.857   3.742   0.507
 5334TIP3    H116008   2.772   3.768   0.472
 5334TIP3    H216009   2.891   3.821   0.549
 5335TIP3   OH216010   5.284   1.065   0.735
 5335TIP3    H116011   5.201   1.092   0.775
 5335TIP3    H216012   5.334   1.026   0.807
 5336TIP3   OH216013   4.211   5.218   4.203
 5336TIP3    H116014   4.252   5.282   4.144
 5336TIP3    H216015   4.162   5.161   4.144
 5337TIP3   OH216016   2.708   1.323   1.796
 5337TIP3    H116017   2.721   1.418   1.803
 5337TIP3    H216018   2.789   1.286   1.832
 5338TIP3   OH216019   2.361   3.259   3.320
 5338TIP3    H116020   2.440   3.265   3.266
 5338TIP3    H216021   2.385   3.201   3.393
 5339TIP3   OH216022   5.145   4.382   2.377
 5339TIP3    H116023   5.221   4.332   2.347
 5339TIP3    H216024   5.165   4.404   2.468
 5340TIP3   OH216025   3.758   2.942   1.506
 5340TIP3    H116026   3.819   3.010   1.534
 5340TIP3    H216027   3.814   2.869   1.478
 5341TIP3   OH216028   2.075   5.336   3.823
 5341TIP3    H116029   2.058   5.345   3.917
 5341TIP3    H216030   2.003   5.283   3.790
 5342TIP3   OH216031   6.205   5.896   2.214
 5342TIP3    H116032   6.110   5.906   2.208
 5342TIP3    H216033   6.237   5.982   2.240
 5343TIP3   OH216034   0.430   3.427   0.194
 5343TIP3    H116035   0.371   3.433   0.119
 5343TIP3    H216036   0.379   3.384   0.262
 5344TIP3   OH216037   6.064   4.974   1.573
 5344TIP3    H116038   6.113   4.966   1.491
 5344TIP3    H216039   6.073   5.066   1.597
 5345TIP3   OH216040   4.072   2.937   4.464
 5345TIP3    H116041   4.056   2.853   4.508
 5345TIP3    H216042   4.148   2.920   4.408
 5346TIP3   OH216043   2.323   3.453   1.456
 5346TIP3    H116044   2.274   3.429   1.377
 5346TIP3    H216045   2.259   3.444   1.527
 5347TIP3   OH216046   1.732   3.267   0.537
 5347TIP3    H116047   1.685   3.326   0.597
 5347TIP3    H216048   1.783   3.210   0.595
 5348TIP3   OH216049   5.398   5.743   3.254
 5348TIP3    H116050   5.459   5.713   3.187
 5348TIP3    H216051   5.321   5.772   3.205
 5349TIP3   OH216052   0.366   3.530   4.336
 5349TIP3    H116053   0.397   3.568   4.254
 5349TIP3    H216054   0.385   3.436   4.328
 5350TIP3   OH216055   5.623   4.829   4.733
 5350TIP3    H116056   5.718   4.832   4.738
 5350TIP3    H216057   5.594   4.911   4.773
 5351TIP3   OH216058   1.730   2.723   4.304
 5351TIP3    H116059   1.801   2.785   4.322
 5351TIP3    H216060   1.675   2.768   4.240
 5352TIP3   OH216061   2.945   1.761   3.518
 5352TIP3    H116062   3.029   1.806   3.504
 5352TIP3    H216063   2.953   1.726   3.607
 5353TIP3   OH216064   6.249   4.848   1.739
 5353TIP3    H116065   6.250   4.918   1.804
 5353TIP3    H216066   6.185   4.876   1.673
 5354TIP3   OH216067   4.752   4.189   3.133
 5354TIP3    H116068   4.682   4.253   3.142
 5354TIP3    H216069   4.780   4.196   3.041
 5355TIP3   OH216070   2.803   0.576   4.135
 5355TIP3    H116071   2.717   0.564   4.095
 5355TIP3    H216072   2.850   0.495   4.115
 5356TIP3   OH216073   5.658   5.142   3.062
 5356TIP3    H116074   5.672   5.114   2.972
 5356TIP3    H216075   5.689   5.069   3.116
 5357TIP3   OH216076   3.828   3.207   1.431
 5357TIP3    H116077   3.745   3.221   1.385
 5357TIP3    H216078   3.890   3.184   1.363
 5358TIP3   OH216079   1.221   1.291   4.453
 5358TIP3    H116080   1.275   1.238   4.512
 5358TIP3    H216081   1.220   1.242   4.371
 5359TIP3   OH216082   4.723   4.040   2.423
 5359TIP3    H116083   4.725   4.135   2.435
 5359TIP3    H216084   4.679   4.028   2.339
 5360TIP3   OH216085   0.689   3.981   3.682
 5360TIP3    H116086   0.697   4.074   3.666
 5360TIP3    H216087   0.614   3.953   3.628
 5361TIP3   OH216088   3.016   1.454   4.007
 5361TIP3    H116089   3.094   1.500   4.038
 5361TIP3    H216090   2.943   1.496   4.054
 5362TIP3   OH216091   0.951   4.809   0.667
 5362TIP3    H116092   1.039   4.776   0.683
 5362TIP3    H216093   0.953   4.839   0.576
 5363TIP3   OH216094   2.210   4.327   2.325
 5363TIP3    H116095   2.291   4.367   2.356
 5363TIP3    H216096   2.236   4.240   2.294
 5364TIP3   OH216097   2.297   5.329   0.276
 5364TIP3    H116098   2.255   5.385   0.342
 5364TIP3    H216099   2.288   5.378   0.195
 5365TIP3   OH216100   3.699   5.844   3.403
 5365TIP3    H116101   3.679   5.884   3.487
 5365TIP3    H216102   3.715   5.752   3.423
 5366TIP3   OH216103   2.335   1.108   1.879
 5366TIP3    H116104   2.363   1.135   1.967
 5366TIP3    H216105   2.322   1.014   1.886
 5367TIP3   OH216106   5.164   5.656   3.441
 5367TIP3    H116107   5.151   5.675   3.348
 5367TIP3    H216108   5.076   5.641   3.475
 5368TIP3   OH216109   1.393   5.037   1.667
 5368TIP3    H116110   1.346   4.994   1.596
 5368TIP3    H216111   1.356   5.126   1.670
 5369TIP3   OH216112   3.861   1.753   4.421
 5369TIP3    H116113   3.831   1.663   4.410
 5369TIP3    H216114   3.912   1.771   4.342
 5370TIP3   OH216115   6.228   3.561   1.307
 5370TIP3    H116116   6.245   3.634   1.246
 5370TIP3    H216117   6.149   3.587   1.354
 5371TIP3   OH216118   3.276   0.705   3.726
 5371TIP3    H116119   3.332   0.752   3.788
 5371TIP3    H216120   3.318   0.717   3.641
 5372TIP3   OH216121   6.034   2.410   2.467
 5372TIP3    H116122   5.948   2.377   2.493
 5372TIP3    H216123   6.076   2.434   2.550
 5373TIP3   OH216124   4.202   5.534   2.717
 5373TIP3    H116125   4.250   5.534   2.800
 5373TIP3    H216126   4.183   5.627   2.701
 5374TIP3   OH216127   4.342   3.785   4.156
 5374TIP3    H116128   4.372   3.696   4.172
 5374TIP3    H216129   4.409   3.823   4.099
 5375TIP3   OH216130   0.137   5.486   2.029
 5375TIP3    H116131   0.210   5.448   1.980
 5375TIP3    H216132   0.172   5.569   2.062
 5376TIP3   OH216133   3.468   4.705   4.337
 5376TIP3    H116134   3.497   4.624   4.294
 5376TIP3    H216135   3.545   4.736   4.384
 5377TIP3   OH216136   3.247   1.242   0.804
 5377TIP3    H116137   3.332   1.201   0.814
 5377TIP3    H216138   3.222   1.224   0.713
 5378TIP3   OH216139   1.091   1.867   1.286
 5378TIP3    H116140   1.021   1.803   1.300
 5378TIP3    H216141   1.045   1.950   1.271
 5379TIP3   OH216142   5.543   1.594   2.791
 5379TIP3    H116143   5.505   1.632   2.870
 5379TIP3    H216144   5.590   1.666   2.750
 5380TIP3   OH216145   5.321   4.044   1.750
 5380TIP3    H116146   5.254   4.075   1.811
 5380TIP3    H216147   5.334   3.952   1.773
 5381TIP3   OH216148   3.497   0.135   4.963
 5381TIP3    H116149   3.481   0.065   4.899
 5381TIP3    H216150   3.543   0.203   4.914
 5382TIP3   OH216151   1.770   1.824   3.432
 5382TIP3    H116152   1.761   1.787   3.519
 5382TIP3    H216153   1.712   1.900   3.431
 5383TIP3   OH216154   3.289   0.180   1.646
 5383TIP3    H116155   3.369   0.164   1.595
 5383TIP3    H216156   3.225   0.207   1.580
 5384TIP3   OH216157   0.310   0.041   3.186
 5384TIP3    H116158   0.263   0.107   3.237
 5384TIP3    H216159   0.392   0.028   3.234
 5385TIP3   OH216160   2.182   0.941   3.201
 5385TIP3    H116161   2.204   0.921   3.292
 5385TIP3    H216162   2.227   0.873   3.151
 5386TIP3   OH216163   4.936   3.432   3.575
 5386TIP3    H116164   5.031   3.427   3.583
 5386TIP3    H216165   4.913   3.357   3.519
 5387TIP3   OH216166   6.182   5.108   2.804
 5387TIP3    H116167   6.265   5.059   2.805
 5387TIP3    H216168   6.172   5.135   2.713
 5388TIP3   OH216169   1.695   0.007   2.110
 5388TIP3    H116170   1.681   0.101   2.124
 5388TIP3    H216171   1.619  -0.035   2.148
 5389TIP3   OH216172   2.465   4.313   0.586
 5389TIP3    H116173   2.507   4.345   0.666
 5389TIP3    H216174   2.407   4.384   0.560
 5390TIP3   OH216175   6.081   0.911   0.081
 5390TIP3    H116176   6.117   0.829   0.048
 5390TIP3    H216177   6.030   0.946   0.007
 5391TIP3   OH216178   4.374   5.587   1.766
 5391TIP3    H116179   4.433   5.579   1.842
 5391TIP3    H216180   4.414   5.654   1.711
 5392TIP3   OH216181   4.281   2.475   2.868
 5392TIP3    H116182   4.209   2.521   2.911
 5392TIP3    H216183   4.351   2.472   2.934
 5393TIP3   OH216184   6.150   4.732   3.432
 5393TIP3    H116185   6.200   4.741   3.351
 5393TIP3    H216186   6.076   4.792   3.421
 5394TIP3   OH216187   5.334   1.265   2.981
 5394TIP3    H116188   5.297   1.353   2.982
 5394TIP3    H216189   5.258   1.207   2.972
 5395TIP3   OH216190   2.871   5.365   0.163
 5395TIP3    H116191   2.829   5.437   0.117
 5395TIP3    H216192   2.963   5.389   0.169
 5396TIP3   OH216193   1.350   3.857   4.420
 5396TIP3    H116194   1.277   3.891   4.369
 5396TIP3    H216195   1.428   3.878   4.369
 5397TIP3   OH216196   2.853   4.572   2.834
 5397TIP3    H116197   2.810   4.486   2.834
 5397TIP3    H216198   2.943   4.554   2.809
 5398TIP3   OH216199   2.653   0.496   3.065
 5398TIP3    H116200   2.570   0.452   3.049
 5398TIP3    H216201   2.639   0.585   3.032
 5399TIP3   OH216202   5.965   4.910   1.261
 5399TIP3    H116203   5.984   4.820   1.287
 5399TIP3    H216204   6.050   4.950   1.247
 5400TIP3   OH216205   2.154   0.515   1.702
 5400TIP3    H116206   2.083   0.509   1.638
 5400TIP3    H216207   2.110   0.518   1.787
 5401TIP3   OH216208   3.953   3.375   4.285
 5401TIP3    H116209   3.996   3.383   4.370
 5401TIP3    H216210   3.995   3.441   4.231
 5402TIP3   OH216211   4.024   4.352   1.306
 5402TIP3    H116212   4.055   4.270   1.268
 5402TIP3    H216213   4.104   4.403   1.321
 5403TIP3   OH216214   2.689   5.215   0.306
 5403TIP3    H116215   2.752   5.156   0.263
 5403TIP3    H216216   2.690   5.294   0.252
 5404TIP3   OH216217   0.160   1.661   4.376
 5404TIP3    H116218   0.209   1.596   4.426
 5404TIP3    H216219   0.128   1.613   4.300
 5405TIP3   OH216220   6.255   3.679   1.011
 5405TIP3    H116221   6.201   3.758   1.011
 5405TIP3    H216222   6.342   3.709   1.037
 5406TIP3   OH216223   3.293   4.759   1.387
 5406TIP3    H116224   3.289   4.674   1.345
 5406TIP3    H216225   3.227   4.755   1.457
 5407TIP3   OH216226   6.134   0.691   2.017
 5407TIP3    H116227   6.068   0.693   2.086
 5407TIP3    H216228   6.210   0.649   2.058
 5408TIP3   OH216229   4.501   2.498   3.564
 5408TIP3    H116230   4.414   2.525   3.594
 5408TIP3    H216231   4.495   2.403   3.554
 5409TIP3   OH216232   4.186   1.237   0.966
 5409TIP3    H116233   4.217   1.325   0.946
 5409TIP3    H216234   4.091   1.246   0.976
 5410TIP3   OH216235   2.174   3.755   1.335
 5410TIP3    H116236   2.267   3.735   1.351
 5410TIP3    H216237   2.128   3.676   1.364
 5411TIP3   OH216238   3.643   5.325   1.433
 5411TIP3    H116239   3.701   5.268   1.484
 5411TIP3    H216240   3.700   5.363   1.366
 5412TIP3   OH216241   4.609   2.596   3.936
 5412TIP3    H116242   4.626   2.652   4.011
 5412TIP3    H216243   4.515   2.579   3.939
 5413TIP3   OH216244   0.903   5.778   0.694
 5413TIP3    H116245   0.834   5.838   0.723
 5413TIP3    H216246   0.857   5.713   0.641
 5414TIP3   OH216247   4.679   0.302   4.512
 5414TIP3    H116248   4.721   0.299   4.426
 5414TIP3    H216249   4.644   0.213   4.524
 5415TIP3   OH216250   4.522   3.329   4.604
 5415TIP3    H116251   4.429   3.332   4.626
 5415TIP3    H216252   4.526   3.363   4.514
 5416TIP3   OH216253   4.553   3.572   4.109
 5416TIP3    H116254   4.553   3.537   4.199
 5416TIP3    H216255   4.616   3.644   4.111
 5417TIP3   OH216256   1.235   0.991   3.879
 5417TIP3    H116257   1.185   0.981   3.960
 5417TIP3    H216258   1.170   0.981   3.809
 5418TIP3   OH216259   4.586  -0.036   4.066
 5418TIP3    H116260   4.518  -0.018   4.001
 5418TIP3    H216261   4.632   0.047   4.076
 5419TIP3   OH216262   2.579   5.369   3.655
 5419TIP3    H116263   2.625   5.432   3.711
 5419TIP3    H216264   2.501   5.345   3.705
 5420TIP3   OH216265   6.287   3.254   0.421
 5420TIP3    H116266   6.371   3.271   0.378
 5420TIP3    H216267   6.311   3.212   0.504
 5421TIP3   OH216268   5.708   2.221   0.831
 5421TIP3    H116269   5.763   2.264   0.897
 5421TIP3    H216270   5.768   2.160   0.787
 5422TIP3   OH216271   1.184   0.127   2.103
 5422TIP3    H116272   1.216   0.161   2.187
 5422TIP3    H216273   1.172   0.205   2.049
 5423TIP3   OH216274   2.584   1.793   3.103
 5423TIP3    H116275   2.660   1.844   3.130
 5423TIP3    H216276   2.521   1.806   3.175
 5424TIP3   OH216277   1.259   5.110   4.962
 5424TIP3    H116278   1.293   5.077   4.879
 5424TIP3    H216279   1.284   5.043   5.026
 5425TIP3   OH216280   5.551   5.346   3.596
 5425TIP3    H116281   5.567   5.317   3.506
 5425TIP3    H216282   5.603   5.426   3.605
 5426TIP3   OH216283   1.415   2.304   0.295
 5426TIP3    H116284   1.348   2.236   0.299
 5426TIP3    H216285   1.497   2.256   0.290
 5427TIP3   OH216286   1.455   1.521   4.096
 5427TIP3    H116287   1.432   1.490   4.183
 5427TIP3    H216288   1.546   1.551   4.104
 5428TIP3   OH216289   2.341   4.931   2.976
 5428TIP3    H116290   2.386   4.939   2.892
 5428TIP3    H216291   2.265   4.875   2.957
 5429TIP3   OH216292   5.271   3.455   0.787
 5429TIP3    H116293   5.289   3.421   0.875
 5429TIP3    H216294   5.339   3.418   0.732
 5430TIP3   OH216295   3.200   3.015   2.721
 5430TIP3    H116296   3.280   2.975   2.754
 5430TIP3    H216297   3.225   3.051   2.635
 5431TIP3   OH216298   0.620   2.400   3.927
 5431TIP3    H116299   0.649   2.486   3.957
 5431TIP3    H216300   0.668   2.338   3.981
 5432TIP3   OH216301   0.509   1.683   3.149
 5432TIP3    H116302   0.599   1.704   3.126
 5432TIP3    H216303   0.457   1.716   3.076
 5433TIP3   OH216304   4.342   3.180   1.601
 5433TIP3    H116305   4.390   3.251   1.643
 5433TIP3    H216306   4.398   3.153   1.528
 5434TIP3   OH216307   1.770   3.869   1.025
 5434TIP3    H116308   1.771   3.841   1.116
 5434TIP3    H216309   1.785   3.789   0.975
 5435TIP3   OH216310   4.279   3.386   5.051
 5435TIP3    H116311   4.207   3.405   5.110
 5435TIP3    H216312   4.240   3.334   4.981
 5436TIP3   OH216313   0.420   0.407   2.150
 5436TIP3    H116314   0.506   0.437   2.120
 5436TIP3    H216315   0.375   0.488   2.176
 5437TIP3   OH216316   2.120   4.883   1.572
 5437TIP3    H116317   2.122   4.955   1.509
 5437TIP3    H216318   2.050   4.905   1.633
 5438TIP3   OH216319   2.244   0.331   3.206
 5438TIP3    H116320   2.209   0.414   3.237
 5438TIP3    H216321   2.309   0.355   3.141
 5439TIP3   OH216322   1.811   1.973   0.140
 5439TIP3    H116323   1.762   1.900   0.179
 5439TIP3    H216324   1.798   1.962   0.045
 5440TIP3   OH216325   5.949   3.504   2.161
 5440TIP3    H116326   5.966   3.596   2.182
 5440TIP3    H216327   5.963   3.498   2.067
 5441TIP3   OH216328   1.892   3.803   1.673
 5441TIP3    H116329   1.875   3.857   1.595
 5441TIP3    H216330   1.804   3.780   1.705
 5442TIP3   OH216331   5.406   0.761   2.791
 5442TIP3    H116332   5.494   0.765   2.752
 5442TIP3    H216333   5.419   0.792   2.881
 5443TIP3   OH216334   1.022   0.674   0.357
 5443TIP3    H116335   0.966   0.624   0.298
 5443TIP3    H216336   1.090   0.613   0.383
 5444TIP3   OH216337   1.012   2.881   3.438
 5444TIP3    H116338   0.996   2.807   3.379
 5444TIP3    H216339   0.936   2.882   3.496
 5445TIP3   OH216340   2.353   0.666   0.498
 5445TIP3    H116341   2.425   0.670   0.561
 5445TIP3    H216342   2.321   0.756   0.493
 5446TIP3   OH216343   3.689   2.642   0.759
 5446TIP3    H116344   3.602   2.616   0.728
 5446TIP3    H216345   3.739   2.658   0.680
 5447TIP3   OH216346   1.430   3.848   3.463
 5447TIP3    H116347   1.396   3.822   3.548
 5447TIP3    H216348   1.524   3.861   3.478
 5448TIP3   OH216349   2.352   0.722   3.100
 5448TIP3    H116350   2.430   0.740   3.046
 5448TIP3    H216351   2.384   0.665   3.170
 5449TIP3   OH216352   4.287   2.732   0.236
 5449TIP3    H116353   4.299   2.814   0.284
 5449TIP3    H216354   4.199   2.703   0.260
 5450TIP3   OH216355   5.518   3.788   0.123
 5450TIP3    H116356   5.488   3.874   0.153
 5450TIP3    H216357   5.603   3.806   0.082
 5451TIP3   OH216358   3.589   1.485   3.772
 5451TIP3    H116359   3.657   1.457   3.711
 5451TIP3    H216360   3.602   1.431   3.850
 5452TIP3   OH216361   1.206   4.025   2.039
 5452TIP3    H116362   1.118   4.051   2.010
 5452TIP3    H216363   1.239   4.101   2.087
 5453TIP3   OH216364   5.000   1.145   4.630
 5453TIP3    H116365   5.014   1.191   4.713
 5453TIP3    H216366   4.958   1.063   4.654
 5454TIP3   OH216367   3.213   1.409   4.865
 5454TIP3    H116368   3.232   1.315   4.867
 5454TIP3    H216369   3.295   1.450   4.839
 5455TIP3   OH216370   5.565   0.654   2.354
 5455TIP3    H116371   5.497   0.595   2.323
 5455TIP3    H216372   5.523   0.740   2.357
 5456TIP3   OH216373   4.306   3.216   2.761
 5456TIP3    H116374   4.394   3.187   2.738
 5456TIP3    H216375   4.319   3.282   2.829
 5457TIP3   OH216376   1.901   1.478   4.627
 5457TIP3    H116377   1.826   1.476   4.687
 5457TIP3    H216378   1.962   1.538   4.668
 5458TIP3   OH216379   1.100   5.236   1.024
 5458TIP3    H116380   1.090   5.151   1.066
 5458TIP3    H216381   1.122   5.296   1.096
 5459TIP3   OH216382   4.485   0.865   3.073
 5459TIP3    H116383   4.407   0.861   3.129
 5459TIP3    H216384   4.450   0.874   2.984
 5460TIP3   OH216385   0.189   0.571   3.847
 5460TIP3    H116386   0.223   0.537   3.764
 5460TIP3    H216387   0.252   0.542   3.912
 5461TIP3   OH216388   2.124   3.502   0.842
 5461TIP3    H116389   2.138   3.596   0.853
 5461TIP3    H216390   2.058   3.480   0.907
 5462TIP3   OH216391   5.844   4.241   3.286
 5462TIP3    H116392   5.873   4.312   3.343
 5462TIP3    H216393   5.760   4.271   3.252
 5463TIP3   OH216394   3.439   5.748   0.980
 5463TIP3    H116395   3.464   5.679   1.042
 5463TIP3    H216396   3.447   5.829   1.030
 5464TIP3   OH216397   5.636   3.227   4.548
 5464TIP3    H116398   5.586   3.221   4.630
 5464TIP3    H216399   5.623   3.317   4.519
 5465TIP3   OH216400   0.644   5.743   4.230
 5465TIP3    H116401   0.572   5.685   4.251
 5465TIP3    H216402   0.603   5.818   4.188
 5466TIP3   OH216403   5.364   0.320   0.650
 5466TIP3    H116404   5.450   0.284   0.627
 5466TIP3    H216405   5.345   0.283   0.736
 5467TIP3   OH216406   4.165   2.548   0.780
 5467TIP3    H116407   4.171   2.609   0.706
 5467TIP3    H216408   4.096   2.583   0.835
 5468TIP3   OH216409   0.502   1.662   4.969
 5468TIP3    H116410   0.463   1.582   5.005
 5468TIP3    H216411   0.569   1.631   4.907
 5469TIP3   OH216412   3.912   1.705   0.278
 5469TIP3    H116413   3.848   1.747   0.221
 5469TIP3    H216414   3.996   1.740   0.250
 5470TIP3   OH216415   5.829   1.436   1.996
 5470TIP3    H116416   5.758   1.485   2.036
 5470TIP3    H216417   5.896   1.502   1.976
 5471TIP3   OH216418   1.158   2.013   0.831
 5471TIP3    H116419   1.104   2.048   0.902
 5471TIP3    H216420   1.105   1.942   0.794
 5472TIP3   OH216421   3.056   4.843   1.739
 5472TIP3    H116422   3.005   4.796   1.673
 5472TIP3    H216423   3.020   4.814   1.822
 5473TIP3   OH216424   4.932   3.540   4.469
 5473TIP3    H116425   4.898   3.575   4.387
 5473TIP3    H216426   5.025   3.561   4.468
 5474TIP3   OH216427   3.829   5.253   3.923
 5474TIP3    H116428   3.820   5.158   3.936
 5474TIP3    H216429   3.785   5.292   3.998
 5475TIP3   OH216430   6.305   1.217   2.945
 5475TIP3    H116431   6.325   1.303   2.907
 5475TIP3    H216432   6.381   1.163   2.924
 5476TIP3   OH216433   2.602   1.789   0.315
 5476TIP3    H116434   2.595   1.813   0.407
 5476TIP3    H216435   2.576   1.868   0.267
 5477TIP3   OH216436   2.821   3.708   3.488
 5477TIP3    H116437   2.794   3.685   3.399
 5477TIP3    H216438   2.805   3.629   3.539
 5478TIP3   OH216439   3.246   2.024   3.942
 5478TIP3    H116440   3.178   1.998   4.004
 5478TIP3    H216441   3.269   1.943   3.896
 5479TIP3   OH216442   1.563   4.392   3.836
 5479TIP3    H116443   1.567   4.368   3.929
 5479TIP3    H216444   1.482   4.353   3.805
 5480TIP3   OH216445   5.277   2.622   1.685
 5480TIP3    H116446   5.327   2.641   1.764
 5480TIP3    H216447   5.194   2.668   1.697
 5481TIP3   OH216448   4.048   1.322   2.926
 5481TIP3    H116449   4.100   1.248   2.896
 5481TIP3    H216450   3.974   1.283   2.972
 5482TIP3   OH216451   1.925   1.283   4.187
 5482TIP3    H116452   1.995   1.222   4.210
 5482TIP3    H216453   1.846   1.228   4.183
 5483TIP3   OH216454   2.235   1.271   1.599
 5483TIP3    H116455   2.185   1.207   1.549
 5483TIP3    H216456   2.322   1.233   1.607
 5484TIP3   OH216457   2.469   4.448   4.366
 5484TIP3    H116458   2.374   4.457   4.376
 5484TIP3    H216459   2.506   4.509   4.429
 5485TIP3   OH216460   4.474   1.719   1.849
 5485TIP3    H116461   4.452   1.740   1.758
 5485TIP3    H216462   4.415   1.774   1.901
 5486TIP3   OH216463   5.512   2.534   2.427
 5486TIP3    H116464   5.454   2.535   2.503
 5486TIP3    H216465   5.473   2.597   2.366
 5487TIP3   OH216466   2.381   1.837   1.079
 5487TIP3    H116467   2.355   1.804   1.166
 5487TIP3    H216468   2.401   1.757   1.029
 5488TIP3   OH216469   3.993   2.694   4.541
 5488TIP3    H116470   3.953   2.666   4.459
 5488TIP3    H216471   3.993   2.616   4.596
 5489TIP3   OH216472   2.677   1.669   3.955
 5489TIP3    H116473   2.593   1.693   3.916
 5489TIP3    H216474   2.689   1.577   3.931
 5490TIP3   OH216475   4.083   3.931   0.078
 5490TIP3    H116476   4.118   3.867   0.140
 5490TIP3    H216477   3.989   3.916   0.079
 5491TIP3   OH216478   5.310   3.270   1.358
 5491TIP3    H116479   5.257   3.349   1.348
 5491TIP3    H216480   5.300   3.225   1.274
 5492TIP3   OH216481   4.446   1.033   3.883
 5492TIP3    H116482   4.387   1.107   3.897
 5492TIP3    H216483   4.412   0.990   3.804
 5493TIP3   OH216484   4.713   2.038   4.319
 5493TIP3    H116485   4.801   2.001   4.324
 5493TIP3    H216486   4.723   2.117   4.265
 5494TIP3   OH216487   0.370   5.929   4.930
 5494TIP3    H116488   0.341   5.839   4.911
 5494TIP3    H216489   0.331   5.981   4.860
 5495TIP3   OH216490   5.987   2.714   3.350
 5495TIP3    H116491   6.015   2.771   3.422
 5495TIP3    H216492   6.049   2.641   3.352
 5496TIP3   OH216493   1.286   3.137   2.231
 5496TIP3    H116494   1.364   3.116   2.179
 5496TIP3    H216495   1.277   3.232   2.223
 5497TIP3   OH216496   4.891   3.590   3.825
 5497TIP3    H116497   4.897   3.535   3.747
 5497TIP3    H216498   4.882   3.527   3.897
 5498TIP3   OH216499   5.056   1.001   3.465
 5498TIP3    H116500   5.078   1.088   3.433
 5498TIP3    H216501   5.031   1.014   3.557
 5499TIP3   OH216502   5.402   3.224   0.898
 5499TIP3    H116503   5.399   3.188   0.810
 5499TIP3    H216504   5.474   3.287   0.896
 5500TIP3   OH216505   3.468   3.441   0.332
 5500TIP3    H116506   3.477   3.346   0.331
 5500TIP3    H216507   3.383   3.458   0.292
 5501TIP3   OH216508   5.074   0.863   4.899
 5501TIP3    H116509   5.039   0.940   4.945
 5501TIP3    H216510   4.999   0.806   4.886
 5502TIP3   OH216511   5.447   1.338   0.038
 5502TIP3    H116512   5.373   1.356  -0.020
 5502TIP3    H216513   5.452   1.242   0.040
 5503TIP3   OH216514   3.106   5.553   0.112
 5503TIP3    H116515   3.068   5.638   0.089
 5503TIP3    H216516   3.104   5.503   0.030
 5504TIP3   OH216517   5.841   5.373   1.011
 5504TIP3    H116518   5.751   5.377   0.978
 5504TIP3    H216519   5.831   5.368   1.106
 5505TIP3   OH216520   5.643   1.767   1.166
 5505TIP3    H116521   5.702   1.834   1.130
 5505TIP3    H216522   5.673   1.755   1.256
 5506TIP3   OH216523   0.535   4.625   3.452
 5506TIP3    H116524   0.542   4.562   3.380
 5506TIP3    H216525   0.486   4.698   3.415
 5507TIP3   OH216526   4.835   3.932   2.115
 5507TIP3    H116527   4.877   3.988   2.181
 5507TIP3    H216528   4.768   3.988   2.076
 5508TIP3   OH216529   3.601   5.532   4.007
 5508TIP3    H116530   3.521   5.487   4.033
 5508TIP3    H216531   3.670   5.491   4.059
 5509TIP3   OH216532   5.954   3.579   5.144
 5509TIP3    H116533   5.917   3.517   5.208
 5509TIP3    H216534   5.899   3.570   5.067
 5510TIP3   OH216535   3.058   5.447   1.106
 5510TIP3    H116536   3.002   5.369   1.113
 5510TIP3    H216537   3.084   5.466   1.196
 5511TIP3   OH216538   4.208   5.872   1.528
 5511TIP3    H116539   4.214   5.941   1.463
 5511TIP3    H216540   4.296   5.834   1.532
 5512TIP3   OH216541   1.170   4.440   1.387
 5512TIP3    H116542   1.145   4.528   1.416
 5512TIP3    H216543   1.257   4.426   1.424
 5513TIP3   OH216544   3.228   3.141   3.386
 5513TIP3    H116545   3.170   3.195   3.333
 5513TIP3    H216546   3.251   3.067   3.330
 5514TIP3   OH216547   2.759   5.275   4.270
 5514TIP3    H116548   2.813   5.227   4.333
 5514TIP3    H216549   2.725   5.350   4.318
 5515TIP3   OH216550   0.401   4.149   4.551
 5515TIP3    H116551   0.347   4.071   4.538
 5515TIP3    H216552   0.357   4.198   4.619
 5516TIP3   OH216553   2.213   0.560   3.382
 5516TIP3    H116554   2.308   0.557   3.374
 5516TIP3    H216555   2.195   0.645   3.423
 5517TIP3   OH216556   1.945   5.157   2.618
 5517TIP3    H116557   1.884   5.214   2.665
 5517TIP3    H216558   2.023   5.153   2.674
 5518TIP3   OH216559  -0.028   3.813   3.009
 5518TIP3    H116560  -0.024   3.747   2.940
 5518TIP3    H216561   0.061   3.817   3.044
 5519TIP3   OH216562   3.832   3.292   5.040
 5519TIP3    H116563   3.862   3.209   5.076
 5519TIP3    H216564   3.897   3.356   5.067
 5520TIP3   OH216565   0.562   5.774   1.446
 5520TIP3    H116566   0.582   5.697   1.392
 5520TIP3    H216567   0.588   5.849   1.392
 5521TIP3   OH216568   0.238   1.601   1.035
 5521TIP3    H116569   0.269   1.511   1.027
 5521TIP3    H216570   0.311   1.655   1.005
 5522TIP3   OH216571   1.626   3.051   1.211
 5522TIP3    H116572   1.560   3.064   1.143
 5522TIP3    H216573   1.621   3.131   1.265
 5523TIP3   OH216574   6.133   4.503   0.913
 5523TIP3    H116575   6.076   4.428   0.932
 5523TIP3    H216576   6.195   4.471   0.849
 5524TIP3   OH216577   5.127   1.247   2.179
 5524TIP3    H116578   5.167   1.177   2.127
 5524TIP3    H216579   5.048   1.271   2.130
 5525TIP3   OH216580   4.018   2.453   3.788
 5525TIP3    H116581   4.009   2.378   3.730
 5525TIP3    H216582   3.947   2.444   3.851
 5526TIP3   OH216583   0.319   0.475   3.624
 5526TIP3    H116584   0.333   0.484   3.530
 5526TIP3    H216585   0.347   0.385   3.645
 5527TIP3   OH216586   1.648   1.260   1.371
 5527TIP3    H116587   1.588   1.266   1.445
 5527TIP3    H216588   1.734   1.243   1.410
 5528TIP3   OH216589   3.695   0.792   4.255
 5528TIP3    H116590   3.675   0.819   4.345
 5528TIP3    H216591   3.658   0.704   4.247
 5529TIP3   OH216592   2.881   4.554   4.875
 5529TIP3    H116593   2.864   4.592   4.790
 5529TIP3    H216594   2.937   4.478   4.857
 5530TIP3   OH216595   3.048   3.284   1.678
 5530TIP3    H116596   3.036   3.199   1.721
 5530TIP3    H216597   2.962   3.326   1.686
 5531TIP3   OH216598   6.076   3.206   0.276
 5531TIP3    H116599   6.153   3.213   0.220
 5531TIP3    H216600   6.112   3.202   0.365
 5532TIP3   OH216601   5.004   2.206   4.816
 5532TIP3    H116602   5.051   2.137   4.769
 5532TIP3    H216603   5.052   2.286   4.795
 5533TIP3   OH216604   3.914   5.529   4.505
 5533TIP3    H116605   3.932   5.560   4.594
 5533TIP3    H216606   3.977   5.459   4.491
 5534TIP3   OH216607   1.279   4.415   2.336
 5534TIP3    H116608   1.284   4.322   2.317
 5534TIP3    H216609   1.233   4.453   2.261
 5535TIP3   OH216610   3.432   2.318   0.551
 5535TIP3    H116611   3.378   2.285   0.623
 5535TIP3    H216612   3.520   2.285   0.570
 5536TIP3   OH216613   3.749   0.370   3.850
 5536TIP3    H116614   3.715   0.430   3.916
 5536TIP3    H216615   3.689   0.380   3.775
 5537TIP3   OH216616   4.888   5.859   3.685
 5537TIP3    H116617   4.883   5.812   3.768
 5537TIP3    H216618   4.811   5.916   3.685
 5538TIP3   OH216619   6.289   1.791   3.180
 5538TIP3    H116620   6.366   1.816   3.129
 5538TIP3    H216621   6.254   1.873   3.213
 5539TIP3   OH216622   0.743   4.627   0.319
 5539TIP3    H116623   0.799   4.558   0.355
 5539TIP3    H216624   0.798   4.670   0.254
 5540TIP3   OH216625   2.437   5.243   1.043
 5540TIP3    H116626   2.463   5.164   0.995
 5540TIP3    H216627   2.358   5.273   0.998
 5541TIP3   OH216628   6.167   4.887   0.916
 5541TIP3    H116629   6.094   4.842   0.874
 5541TIP3    H216630   6.142   4.980   0.915
 5542TIP3   OH216631   3.050   4.201   0.812
 5542TIP3    H116632   3.117   4.172   0.873
 5542TIP3    H216633   2.976   4.225   0.867
 5543TIP3   OH216634   5.683   3.659   1.618
 5543TIP3    H116635   5.749   3.596   1.649
 5543TIP3    H216636   5.611   3.650   1.680
 5544TIP3   OH216637   1.645   3.207   2.662
 5544TIP3    H116638   1.657   3.220   2.569
 5544TIP3    H216639   1.588   3.278   2.690
 5545TIP3   OH216640   5.176   4.179   0.654
 5545TIP3    H116641   5.098   4.130   0.681
 5545TIP3    H216642   5.214   4.211   0.736
 5546TIP3   OH216643   0.173   1.800   4.111
 5546TIP3    H116644   0.241   1.733   4.117
 5546TIP3    H216645   0.167   1.819   4.017
 5547TIP3   OH216646   2.459   0.037   0.163
 5547TIP3    H116647   2.445   0.109   0.102
 5547TIP3    H216648   2.540  -0.004   0.133
 5548TIP3   OH216649   3.582   3.652   3.145
 5548TIP3    H116650   3.544   3.577   3.098
 5548TIP3    H216651   3.674   3.628   3.159
 5549TIP3   OH216652   1.020   4.248   4.420
 5549TIP3    H116653   1.021   4.275   4.329
 5549TIP3    H216654   1.082   4.176   4.425
 5550TIP3   OH216655   1.011   4.429   3.724
 5550TIP3    H116656   0.939   4.435   3.661
 5550TIP3    H216657   0.982   4.364   3.788
 5551TIP3   OH216658   4.298   2.519   3.801
 5551TIP3    H116659   4.267   2.592   3.854
 5551TIP3    H216660   4.218   2.471   3.779
 5552TIP3   OH216661   0.316   5.570   3.672
 5552TIP3    H116662   0.228   5.549   3.701
 5552TIP3    H216663   0.360   5.602   3.751
 5553TIP3   OH216664   6.159   0.002   0.161
 5553TIP3    H116665   6.091   0.047   0.111
 5553TIP3    H216666   6.182   0.063   0.231
 5554TIP3   OH216667   3.167   5.369   4.810
 5554TIP3    H116668   3.181   5.436   4.743
 5554TIP3    H216669   3.077   5.383   4.840
 5555TIP3   OH216670   2.487   5.423   4.433
 5555TIP3    H116671   2.517   5.509   4.402
 5555TIP3    H216672   2.392   5.430   4.434
 5556TIP3   OH216673   6.126   1.086   4.095
 5556TIP3    H116674   6.100   1.010   4.147
 5556TIP3    H216675   6.218   1.100   4.116
 5557TIP3   OH216676   4.843   1.037   4.977
 5557TIP3    H116677   4.828   1.014   5.069
 5557TIP3    H216678   4.770   0.997   4.930
 5558TIP3   OH216679   0.378   3.783   1.541
 5558TIP3    H116680   0.395   3.877   1.534
 5558TIP3    H216681   0.448   3.749   1.597
 5559TIP3   OH216682   6.265   5.444   1.658
 5559TIP3    H116683   6.297   5.533   1.673
 5559TIP3    H216684   6.306   5.417   1.576
 5560TIP3   OH216685   6.083   2.366   0.357
 5560TIP3    H116686   6.047   2.441   0.309
 5560TIP3    H216687   6.057   2.381   0.448
 5561TIP3   OH216688   6.181   1.690   0.531
 5561TIP3    H116689   6.087   1.694   0.512
 5561TIP3    H216690   6.221   1.743   0.462
 5562TIP3   OH216691   2.563   5.141   2.877
 5562TIP3    H116692   2.629   5.183   2.820
 5562TIP3    H216693   2.525   5.213   2.926
 5563TIP3   OH216694   2.728   5.540   2.726
 5563TIP3    H116695   2.823   5.557   2.730
 5563TIP3    H216696   2.688   5.617   2.765
 5564TIP3   OH216697   4.286   1.332   4.912
 5564TIP3    H116698   4.252   1.401   4.968
 5564TIP3    H216699   4.377   1.322   4.938
 5565TIP3   OH216700   1.142   4.127   2.515
 5565TIP3    H116701   1.128   4.175   2.434
 5565TIP3    H216702   1.227   4.159   2.547
 5566TIP3   OH216703   3.942   3.724   1.493
 5566TIP3    H116704   3.856   3.762   1.508
 5566TIP3    H216705   3.957   3.732   1.399
 5567TIP3   OH216706   4.424   2.318   4.796
 5567TIP3    H116707   4.350   2.265   4.767
 5567TIP3    H216708   4.482   2.257   4.842
 5568TIP3   OH216709   2.084   3.955   0.869
 5568TIP3    H116710   2.094   4.013   0.794
 5568TIP3    H216711   1.990   3.954   0.886
 5569TIP3   OH216712   3.571   1.798   0.389
 5569TIP3    H116713   3.540   1.708   0.387
 5569TIP3    H216714   3.570   1.821   0.482
 5570TIP3   OH216715   1.523   4.339   2.490
 5570TIP3    H116716   1.444   4.373   2.448
 5570TIP3    H216717   1.523   4.245   2.470
 5571TIP3   OH216718   3.169   2.963   4.150
 5571TIP3    H116719   3.201   2.901   4.216
 5571TIP3    H216720   3.125   3.031   4.201
 5572TIP3   OH216721   5.427   0.357   0.322
 5572TIP3    H116722   5.421   0.341   0.228
 5572TIP3    H216723   5.381   0.439   0.336
 5573TIP3   OH216724   0.564   3.329   0.966
 5573TIP3    H116725   0.633   3.268   0.939
 5573TIP3    H216726   0.483   3.292   0.931
 5574TIP3   OH216727   3.729   2.870   1.852
 5574TIP3    H116728   3.712   2.867   1.946
 5574TIP3    H216729   3.683   2.949   1.822
 5575TIP3   OH216730   2.214   5.619   3.946
 5575TIP3    H116731   2.128   5.578   3.955
 5575TIP3    H216732   2.274   5.558   3.989
 5576TIP3   OH216733   0.916   4.721   1.186
 5576TIP3    H116734   0.889   4.686   1.101
 5576TIP3    H216735   0.858   4.678   1.249
 5577TIP3   OH216736   6.061   5.078   4.048
 5577TIP3    H116737   6.144   5.092   4.003
 5577TIP3    H216738   6.005   5.150   4.019
 5578TIP3   OH216739   5.680   2.963   1.469
 5578TIP3    H116740   5.742   2.890   1.476
 5578TIP3    H216741   5.594   2.921   1.463
 5579TIP3   OH216742   3.447   2.672   4.879
 5579TIP3    H116743   3.359   2.664   4.914
 5579TIP3    H216744   3.504   2.658   4.955
 5580TIP3   OH216745   2.643   1.518   2.256
 5580TIP3    H116746   2.646   1.457   2.329
 5580TIP3    H216747   2.556   1.506   2.217
 5581TIP3   OH216748   0.067   2.598   1.038
 5581TIP3    H116749   0.111   2.585   0.954
 5581TIP3    H216750   0.133   2.574   1.104
 5582TIP3   OH216751   0.146   3.613   1.559
 5582TIP3    H116752   0.088   3.596   1.632
 5582TIP3    H216753   0.221   3.658   1.597
 5583TIP3   OH216754   5.981   3.239   4.507
 5583TIP3    H116755   5.913   3.246   4.440
 5583TIP3    H216756   6.003   3.329   4.529
 5584TIP3   OH216757   4.071   2.562   3.029
 5584TIP3    H116758   4.101   2.526   3.113
 5584TIP3    H216759   4.000   2.621   3.051
 5585TIP3   OH216760   6.234   1.768   1.241
 5585TIP3    H116761   6.278   1.688   1.215
 5585TIP3    H216762   6.207   1.808   1.158
 5586TIP3   OH216763   4.427   5.388   4.850
 5586TIP3    H116764   4.332   5.403   4.844
 5586TIP3    H216765   4.463   5.437   4.776
 5587TIP3   OH216766   0.834   2.223   0.583
 5587TIP3    H116767   0.909   2.239   0.640
 5587TIP3    H216768   0.758   2.250   0.635
 5588TIP3   OH216769   4.250   2.915   2.564
 5588TIP3    H116770   4.174   2.861   2.587
 5588TIP3    H216771   4.290   2.869   2.491
 5589TIP3   OH216772   0.720   3.067   3.246
 5589TIP3    H116773   0.627   3.078   3.265
 5589TIP3    H216774   0.728   2.977   3.216
 5590TIP3   OH216775   4.516   3.352   3.255
 5590TIP3    H116776   4.530   3.436   3.297
 5590TIP3    H216777   4.600   3.333   3.212
 5591TIP3   OH216778   0.257   1.791   0.267
 5591TIP3    H116779   0.353   1.792   0.260
 5591TIP3    H216780   0.236   1.870   0.317
 5592TIP3   OH216781   1.466   2.329   2.841
 5592TIP3    H116782   1.448   2.245   2.798
 5592TIP3    H216783   1.428   2.320   2.928
 5593TIP3   OH216784   4.887   4.833   3.345
 5593TIP3    H116785   4.887   4.820   3.440
 5593TIP3    H216786   4.810   4.786   3.314
 5594TIP3   OH216787   5.557   1.484   0.745
 5594TIP3    H116788   5.504   1.557   0.712
 5594TIP3    H216789   5.646   1.506   0.717
 5595TIP3   OH216790   3.194   3.851   0.596
 5595TIP3    H116791   3.219   3.943   0.604
 5595TIP3    H216792   3.153   3.830   0.680
 5596TIP3   OH216793   3.430   3.378   1.494
 5596TIP3    H116794   3.395   3.302   1.541
 5596TIP3    H216795   3.461   3.342   1.411
 5597TIP3   OH216796   3.671   3.693   4.337
 5597TIP3    H116797   3.599   3.735   4.384
 5597TIP3    H216798   3.660   3.599   4.355
 5598TIP3   OH216799   5.620   4.881   2.508
 5598TIP3    H116800   5.638   4.855   2.418
 5598TIP3    H216801   5.705   4.874   2.552
 5599TIP3   OH216802   0.115   4.234   1.143
 5599TIP3    H116803   0.051   4.180   1.098
 5599TIP3    H216804   0.100   4.218   1.236
 5600TIP3   OH216805   6.174   4.628   2.304
 5600TIP3    H116806   6.215   4.660   2.384
 5600TIP3    H216807   6.125   4.551   2.332
 5601TIP3   OH216808   4.307   2.680   1.479
 5601TIP3    H116809   4.283   2.678   1.572
 5601TIP3    H216810   4.230   2.646   1.434
 5602TIP3   OH216811   5.378   1.199   0.487
 5602TIP3    H116812   5.470   1.176   0.482
 5602TIP3    H216813   5.354   1.182   0.578
 5603TIP3   OH216814   4.578   4.013   1.815
 5603TIP3    H116815   4.540   3.951   1.753
 5603TIP3    H216816   4.664   3.977   1.836
 5604TIP3   OH216817   2.294   2.603   3.555
 5604TIP3    H116818   2.321   2.659   3.482
 5604TIP3    H216819   2.349   2.525   3.547
 5605TIP3   OH216820   1.149   2.672   1.752
 5605TIP3    H116821   1.053   2.671   1.748
 5605TIP3    H216822   1.176   2.636   1.667
 5606TIP3   OH216823   2.522   1.668   1.804
 5606TIP3    H116824   2.548   1.760   1.796
 5606TIP3    H216825   2.560   1.626   1.727
 5607TIP3   OH216826   0.490   2.358   4.332
 5607TIP3    H116827   0.423   2.351   4.264
 5607TIP3    H216828   0.440   2.376   4.412
 5608TIP3   OH216829   1.465   5.729   3.605
 5608TIP3    H116830   1.455   5.671   3.681
 5608TIP3    H216831   1.434   5.677   3.531
 5609TIP3   OH216832   5.914   4.512   0.509
 5609TIP3    H116833   6.001   4.487   0.477
 5609TIP3    H216834   5.898   4.598   0.470
 5610TIP3   OH216835   4.312   2.090   2.520
 5610TIP3    H116836   4.356   2.174   2.526
 5610TIP3    H216837   4.369   2.030   2.569
 5611TIP3   OH216838   4.060   5.388   1.369
 5611TIP3    H116839   4.130   5.373   1.306
 5611TIP3    H216840   4.087   5.340   1.447
 5612TIP3   OH216841   6.146   1.920   4.362
 5612TIP3    H116842   6.131   1.849   4.300
 5612TIP3    H216843   6.214   1.974   4.321
 5613TIP3   OH216844   4.792  -0.017   4.671
 5613TIP3    H116845   4.781   0.059   4.728
 5613TIP3    H216846   4.863  -0.067   4.710
 5614TIP3   OH216847   1.062   0.914   3.639
 5614TIP3    H116848   1.109   0.868   3.568
 5614TIP3    H216849   0.987   0.954   3.596
 5615TIP3   OH216850   0.206   4.225   3.516
 5615TIP3    H116851   0.210   4.278   3.436
 5615TIP3    H216852   0.298   4.215   3.541
 5616TIP3   OH216853   4.450   1.332   3.119
 5616TIP3    H116854   4.524   1.359   3.174
 5616TIP3    H216855   4.491   1.309   3.035
 5617TIP3   OH216856   2.776   0.978   4.273
 5617TIP3    H116857   2.796   0.996   4.365
 5617TIP3    H216858   2.821   1.048   4.225
 5618TIP3   OH216859   2.591   3.323   4.216
 5618TIP3    H116860   2.580   3.407   4.262
 5618TIP3    H216861   2.536   3.262   4.265
 5619TIP3   OH216862   4.793   2.693   1.943
 5619TIP3    H116863   4.823   2.602   1.951
 5619TIP3    H216864   4.764   2.701   1.852
 5620TIP3   OH216865   5.060   3.031   0.289
 5620TIP3    H116866   5.101   3.050   0.205
 5620TIP3    H216867   5.119   3.070   0.354
 5621TIP3   OH216868   0.815   3.582   4.260
 5621TIP3    H116869   0.823   3.487   4.267
 5621TIP3    H216870   0.833   3.614   4.349
 5622TIP3   OH216871   3.519   1.763   2.825
 5622TIP3    H116872   3.450   1.796   2.768
 5622TIP3    H216873   3.601   1.788   2.781
 5623TIP3   OH216874   1.879   2.145   3.395
 5623TIP3    H116875   1.911   2.117   3.309
 5623TIP3    H216876   1.807   2.085   3.414
 5624TIP3   OH216877   3.346   4.202   4.485
 5624TIP3    H116878   3.441   4.204   4.493
 5624TIP3    H216879   3.315   4.274   4.539
 5625TIP3   OH216880   3.009   1.005   0.688
 5625TIP3    H116881   3.022   1.089   0.644
 5625TIP3    H216882   3.038   1.021   0.778
 5626TIP3   OH216883   5.552   3.992   2.017
 5626TIP3    H116884   5.493   4.060   1.984
 5626TIP3    H216885   5.617   4.040   2.069
 5627TIP3   OH216886   1.273   0.626   3.852
 5627TIP3    H116887   1.321   0.625   3.935
 5627TIP3    H216888   1.198   0.683   3.868
 5628TIP3   OH216889   3.042   1.816   1.654
 5628TIP3    H116890   3.063   1.890   1.596
 5628TIP3    H216891   2.967   1.847   1.705
 5629TIP3   OH216892   3.779   4.120   2.815
 5629TIP3    H116893   3.698   4.090   2.772
 5629TIP3    H216894   3.849   4.095   2.754
 5630TIP3   OH216895   1.533   1.784   2.306
 5630TIP3    H116896   1.558   1.853   2.368
 5630TIP3    H216897   1.517   1.707   2.361
 5631TIP3   OH216898   3.288   1.325   1.395
 5631TIP3    H116899   3.285   1.246   1.340
 5631TIP3    H216900   3.316   1.293   1.481
 5632TIP3   OH216901   6.101   1.123   0.390
 5632TIP3    H116902   6.034   1.169   0.338
 5632TIP3    H216903   6.182   1.136   0.341
 5633TIP3   OH216904   2.300   0.096   4.718
 5633TIP3    H116905   2.206   0.080   4.721
 5633TIP3    H216906   2.330   0.053   4.638
 5634TIP3   OH216907   3.412   4.871   1.899
 5634TIP3    H116908   3.372   4.841   1.817
 5634TIP3    H216909   3.399   4.966   1.899
 5635TIP3   OH216910   3.221   2.438   1.838
 5635TIP3    H116911   3.269   2.509   1.795
 5635TIP3    H216912   3.272   2.359   1.819
 5636TIP3   OH216913   5.158   2.888   4.132
 5636TIP3    H116914   5.219   2.929   4.193
 5636TIP3    H216915   5.193   2.908   4.045
 5637TIP3   OH216916   6.035   3.287   2.319
 5637TIP3    H116917   6.061   3.225   2.251
 5637TIP3    H216918   5.997   3.361   2.271
 5638TIP3   OH216919   3.186   2.499   4.808
 5638TIP3    H116920   3.151   2.448   4.881
 5638TIP3    H216921   3.133   2.579   4.805
 5639TIP3   OH216922   0.478   3.630   0.583
 5639TIP3    H116923   0.405   3.677   0.544
 5639TIP3    H216924   0.450   3.612   0.673
 5640TIP3   OH216925   6.106   0.762   2.674
 5640TIP3    H116926   6.083   0.685   2.622
 5640TIP3    H216927   6.199   0.752   2.693
 5641TIP3   OH216928   3.858   3.615   4.840
 5641TIP3    H116929   3.850   3.619   4.935
 5641TIP3    H216930   3.782   3.565   4.811
 5642TIP3   OH216931   5.116   0.138   3.721
 5642TIP3    H116932   5.159   0.177   3.645
 5642TIP3    H216933   5.185   0.084   3.762
 5643TIP3   OH216934   1.683   3.323   3.894
 5643TIP3    H116935   1.678   3.403   3.947
 5643TIP3    H216936   1.697   3.354   3.805
 5644TIP3   OH216937   0.041   2.210   2.287
 5644TIP3    H116938  -0.050   2.232   2.266
 5644TIP3    H216939   0.073   2.285   2.336
 5645TIP3   OH216940   0.560   5.761   3.175
 5645TIP3    H116941   0.637   5.737   3.226
 5645TIP3    H216942   0.551   5.691   3.110
 5646TIP3   OH216943   3.159   1.263   0.086
 5646TIP3    H116944   3.178   1.357   0.095
 5646TIP3    H216945   3.245   1.221   0.085
 5647TIP3   OH216946   3.545   0.400   1.649
 5647TIP3    H116947   3.469   0.353   1.683
 5647TIP3    H216948   3.565   0.465   1.716
 5648TIP3   OH216949   0.141   2.927   0.521
 5648TIP3    H116950   0.076   2.857   0.529
 5648TIP3    H216951   0.152   2.939   0.427
 5649TIP3   OH216952   0.177   0.342   0.546
 5649TIP3    H116953   0.086   0.368   0.532
 5649TIP3    H216954   0.180   0.314   0.638
 5650TIP3   OH216955   0.890   2.092  -0.001
 5650TIP3    H116956   0.920   2.023   0.059
 5650TIP3    H216957   0.885   2.170   0.053
 5651TIP3   OH216958   1.779   4.501   2.557
 5651TIP3    H116959   1.714   4.513   2.488
 5651TIP3    H216960   1.846   4.444   2.518
 5652TIP3   OH216961   2.474   2.336   2.338
 5652TIP3    H116962   2.483   2.383   2.421
 5652TIP3    H216963   2.538   2.377   2.280
 5653TIP3   OH216964   1.115   3.622   1.690
 5653TIP3    H116965   1.200   3.585   1.667
 5653TIP3    H216966   1.098   3.685   1.620
 5654TIP3   OH216967   0.040   5.503   3.061
 5654TIP3    H116968   0.112   5.566   3.062
 5654TIP3    H216969   0.066   5.437   3.126
 5655TIP3   OH216970   0.179   5.753   3.030
 5655TIP3    H116971   0.146   5.800   2.954
 5655TIP3    H216972   0.180   5.818   3.100
 5656TIP3   OH216973   4.158   2.648   5.094
 5656TIP3    H116974   4.199   2.579   5.146
 5656TIP3    H216975   4.196   2.636   5.007
 5657TIP3   OH216976   0.517   3.830   0.006
 5657TIP3    H116977   0.433   3.875   0.010
 5657TIP3    H216978   0.495   3.738  -0.008
 5658TIP3   OH216979   1.995   4.316   4.768
 5658TIP3    H116980   1.966   4.240   4.717
 5658TIP3    H216981   2.080   4.291   4.804
 5659TIP3   OH216982   5.069   2.179   4.332
 5659TIP3    H116983   5.057   2.187   4.427
 5659TIP3    H216984   5.139   2.113   4.323
 5660TIP3   OH216985   0.838   5.705   2.988
 5660TIP3    H116986   0.832   5.716   3.083
 5660TIP3    H216987   0.856   5.793   2.955
 5661TIP3   OH216988   2.461   0.840   1.512
 5661TIP3    H116989   2.445   0.931   1.484
 5661TIP3    H216990   2.549   0.820   1.479
 5662TIP3   OH216991   3.029   3.713   0.271
 5662TIP3    H116992   2.988   3.744   0.352
 5662TIP3    H216993   2.958   3.714   0.207
 5663TIP3   OH216994   0.837   3.640   1.134
 5663TIP3    H116995   0.759   3.597   1.170
 5663TIP3    H216996   0.823   3.641   1.039
 5664TIP3   OH216997   4.973   4.281   2.134
 5664TIP3    H116998   4.997   4.338   2.207
 5664TIP3    H216999   5.042   4.215   2.131
 5665TIP3   OH217000   3.822   5.724   3.118
 5665TIP3    H117001   3.892   5.692   3.175
 5665TIP3    H217002   3.858   5.714   3.029
 5666TIP3   OH217003   3.171   4.282   1.084
 5666TIP3    H117004   3.081   4.304   1.109
 5666TIP3    H217005   3.210   4.366   1.058
 5667TIP3   OH217006   2.701   1.502   2.712
 5667TIP3    H117007   2.610   1.523   2.732
 5667TIP3    H217008   2.722   1.428   2.768
 5668TIP3   OH217009   0.829   4.979   0.161
 5668TIP3    H117010   0.891   5.044   0.194
 5668TIP3    H217011   0.791   5.019   0.082
 5669TIP3   OH217012   3.237   0.598   2.207
 5669TIP3    H117013   3.169   0.572   2.269
 5669TIP3    H217014   3.188   0.627   2.130
 5670TIP3   OH217015   4.040   4.016   4.200
 5670TIP3    H117016   3.963   3.959   4.192
 5670TIP3    H217017   4.032   4.078   4.127
 5671TIP3   OH217018   4.065   5.303   5.023
 5671TIP3    H117019   4.108   5.219   5.009
 5671TIP3    H217020   4.071   5.318   5.117
 5672TIP3   OH217021   3.672   4.268   0.164
 5672TIP3    H117022   3.723   4.241   0.241
 5672TIP3    H217023   3.723   4.339   0.126
 5673TIP3   OH217024   0.568   2.589   1.544
 5673TIP3    H117025   0.561   2.683   1.526
 5673TIP3    H217026   0.555   2.581   1.638
 5674TIP3   OH217027   6.259   1.758   1.960
 5674TIP3    H117028   6.291   1.728   1.875
 5674TIP3    H217029   6.239   1.677   2.008
 5675TIP3   OH217030   6.219   3.434   3.605
 5675TIP3    H117031   6.297   3.434   3.549
 5675TIP3    H217032   6.239   3.500   3.672
 5676TIP3   OH217033   1.647   4.937   3.741
 5676TIP3    H117034   1.654   4.843   3.755
 5676TIP3    H217035   1.564   4.948   3.694
 5677TIP3   OH217036   0.037   1.398   3.918
 5677TIP3    H117037  -0.018   1.324   3.890
 5677TIP3    H217038   0.126   1.369   3.900
 5678TIP3   OH217039   0.060   0.552   3.577
 5678TIP3    H117040   0.150   0.524   3.591
 5678TIP3    H217041   0.013   0.518   3.654
 5679TIP3   OH217042   5.726   5.817   1.556
 5679TIP3    H117043   5.667   5.801   1.630
 5679TIP3    H217044   5.811   5.783   1.586
 5680TIP3   OH217045   5.565   0.712   1.445
 5680TIP3    H117046   5.487   0.767   1.438
 5680TIP3    H217047   5.570   0.667   1.361
 5681TIP3   OH217048   3.721   3.226   0.809
 5681TIP3    H117049   3.773   3.236   0.729
 5681TIP3    H217050   3.777   3.261   0.878
 5682TIP3   OH217051   2.302   0.103   3.386
 5682TIP3    H117052   2.211   0.076   3.399
 5682TIP3    H217053   2.296   0.178   3.326
 5683TIP3   OH217054   0.916   3.015   3.031
 5683TIP3    H117055   0.873   3.038   3.113
 5683TIP3    H217056   0.911   3.094   2.978
 5684TIP3   OH217057   6.202   2.286   4.539
 5684TIP3    H117058   6.147   2.293   4.461
 5684TIP3    H217059   6.263   2.215   4.518
 5685TIP3   OH217060   2.006   1.289   2.614
 5685TIP3    H117061   2.020   1.195   2.631
 5685TIP3    H217062   2.043   1.303   2.527
 5686TIP3   OH217063   2.744   4.759   0.499
 5686TIP3    H117064   2.773   4.711   0.422
 5686TIP3    H217065   2.824   4.796   0.536
 5687TIP3   OH217066   1.437   0.473   3.286
 5687TIP3    H117067   1.388   0.392   3.301
 5687TIP3    H217068   1.529   0.447   3.294
 5688TIP3   OH217069   0.688   5.504   1.035
 5688TIP3    H117070   0.611   5.496   0.979
 5688TIP3    H217071   0.700   5.599   1.046
 5689TIP3   OH217072   2.507   1.327   0.350
 5689TIP3    H117073   2.570   1.305   0.418
 5689TIP3    H217074   2.535   1.275   0.274
 5690TIP3   OH217075   6.042   5.603   0.546
 5690TIP3    H117076   6.124   5.577   0.586
 5690TIP3    H217077   6.005   5.521   0.512
 5691TIP3   OH217078   4.514   1.953   3.557
 5691TIP3    H117079   4.441   1.966   3.618
 5691TIP3    H217080   4.590   1.943   3.614
 5692TIP3   OH217081   0.004   2.692   0.466
 5692TIP3    H117082  -0.007   2.668   0.374
 5692TIP3    H217083   0.033   2.612   0.509
 5693TIP3   OH217084   1.527   5.127   2.411
 5693TIP3    H117085   1.507   5.217   2.437
 5693TIP3    H217086   1.471   5.073   2.467
 5694TIP3   OH217087  -0.008   1.704   1.709
 5694TIP3    H117088   0.011   1.642   1.639
 5694TIP3    H217089   0.036   1.785   1.682
 5695TIP3   OH217090   5.311   0.321   4.317
 5695TIP3    H117091   5.304   0.387   4.247
 5695TIP3    H217092   5.308   0.372   4.398
 5696TIP3   OH217093   2.015   1.932   2.613
 5696TIP3    H117094   1.966   2.012   2.594
 5696TIP3    H217095   2.106   1.961   2.622
 5697TIP3   OH217096   5.206   0.526   1.869
 5697TIP3    H117097   5.133   0.507   1.810
 5697TIP3    H217098   5.204   0.455   1.933
 5698TIP3   OH217099   1.982   1.996   5.139
 5698TIP3    H117100   2.066   2.023   5.101
 5698TIP3    H217101   1.942   2.077   5.169
 5699TIP3   OH217102   3.129   2.973   3.609
 5699TIP3    H117103   3.141   3.063   3.578
 5699TIP3    H217104   3.123   2.981   3.704
 5700TIP3   OH217105   2.406   4.606   2.998
 5700TIP3    H117106   2.499   4.614   3.020
 5700TIP3    H217107   2.360   4.622   3.080
 5701TIP3   OH217108   2.964   2.669   4.914
 5701TIP3    H117109   2.973   2.622   4.997
 5701TIP3    H217110   2.983   2.760   4.937
 5702TIP3   OH217111   1.398   4.316   1.932
 5702TIP3    H117112   1.306   4.318   1.958
 5702TIP3    H217113   1.446   4.314   2.014
 5703TIP3   OH217114   3.179   3.981   4.481
 5703TIP3    H117115   3.216   3.920   4.418
 5703TIP3    H217116   3.239   4.056   4.481
 5704TIP3   OH217117   0.003   2.632   0.202
 5704TIP3    H117118  -0.033   2.716   0.171
 5704TIP3    H217119   0.098   2.645   0.199
 5705TIP3   OH217120   1.598   1.155   4.469
 5705TIP3    H117121   1.639   1.180   4.552
 5705TIP3    H217122   1.509   1.128   4.493
 5706TIP3   OH217123   3.001   0.716   3.815
 5706TIP3    H117124   3.083   0.735   3.769
 5706TIP3    H217125   2.951   0.797   3.811
 5707TIP3   OH217126   1.303   0.262   2.284
 5707TIP3    H117127   1.290   0.310   2.366
 5707TIP3    H217128   1.394   0.232   2.287
 5708TIP3   OH217129   2.101   0.793   1.625
 5708TIP3    H117130   2.127   0.768   1.714
 5708TIP3    H217131   2.014   0.755   1.614
 5709TIP3   OH217132   5.873   0.759   2.840
 5709TIP3    H117133   5.925   0.783   2.917
 5709TIP3    H217134   5.933   0.772   2.766
 5710TIP3   OH217135   0.470   5.369   2.115
 5710TIP3    H117136   0.447   5.331   2.030
 5710TIP3    H217137   0.408   5.329   2.177
 5711TIP3   OH217138   3.646   1.065   4.668
 5711TIP3    H117139   3.673   0.974   4.662
 5711TIP3    H217140   3.676   1.094   4.754
 5712TIP3   OH217141   4.402   5.362   5.186
 5712TIP3    H117142   4.491   5.336   5.164
 5712TIP3    H217143   4.389   5.447   5.143
 5713TIP3   OH217144   3.145   5.539   1.992
 5713TIP3    H117145   3.098   5.456   2.002
 5713TIP3    H217146   3.237   5.514   1.985
 5714TIP3   OH217147   0.975   2.163   3.632
 5714TIP3    H117148   0.950   2.173   3.541
 5714TIP3    H217149   0.944   2.243   3.675
 5715TIP3   OH217150   1.429   4.978   2.650
 5715TIP3    H117151   1.519   4.957   2.675
 5715TIP3    H217152   1.381   4.897   2.665
 5716TIP3   OH217153   5.565   0.046   0.148
 5716TIP3    H117154   5.529  -0.030   0.195
 5716TIP3    H217155   5.612   0.096   0.215
 5717TIP3   OH217156   3.893   0.313   3.305
 5717TIP3    H117157   3.979   0.281   3.278
 5717TIP3    H217158   3.890   0.402   3.272
 5718TIP3   OH217159   5.840   4.374   4.101
 5718TIP3    H117160   5.894   4.413   4.170
 5718TIP3    H217161   5.903   4.337   4.040
 5719TIP3   OH217162   4.033   3.499   1.277
 5719TIP3    H117163   4.079   3.535   1.353
 5719TIP3    H217164   4.099   3.499   1.208
 5720TIP3   OH217165   5.897   5.367   0.560
 5720TIP3    H117166   5.802   5.374   0.572
 5720TIP3    H217167   5.908   5.338   0.470
 5721TIP3   OH217168   1.721   0.647   0.462
 5721TIP3    H117169   1.637   0.609   0.489
 5721TIP3    H217170   1.751   0.696   0.539
 5722TIP3   OH217171   2.919   1.916   2.882
 5722TIP3    H117172   2.994   1.918   2.822
 5722TIP3    H217173   2.843   1.927   2.825
 5723TIP3   OH217174   0.189   1.817   3.019
 5723TIP3    H117175   0.168   1.812   2.926
 5723TIP3    H217176   0.268   1.871   3.023
 5724TIP3   OH217177   5.319   3.829   1.395
 5724TIP3    H117178   5.251   3.809   1.460
 5724TIP3    H217179   5.284   3.903   1.345
 5725TIP3   OH217180   1.770   5.650   3.212
 5725TIP3    H117181   1.789   5.738   3.181
 5725TIP3    H217182   1.734   5.605   3.135
 5726TIP3   OH217183   2.251   2.297   0.380
 5726TIP3    H117184   2.213   2.309   0.293
 5726TIP3    H217185   2.266   2.386   0.412
 5727TIP3   OH217186   3.777   1.830   1.786
 5727TIP3    H117187   3.820   1.909   1.821
 5727TIP3    H217188   3.785   1.766   1.856
 5728TIP3   OH217189   5.744   5.536   3.560
 5728TIP3    H117190   5.755   5.532   3.465
 5728TIP3    H217191   5.805   5.470   3.594
 5729TIP3   OH217192   3.713   2.007   4.846
 5729TIP3    H117193   3.776   1.958   4.793
 5729TIP3    H217194   3.635   1.951   4.849
 5730TIP3   OH217195   4.879   3.167   1.905
 5730TIP3    H117196   4.884   3.213   1.989
 5730TIP3    H217197   4.823   3.091   1.922
 5731TIP3   OH217198   2.898   2.934   5.070
 5731TIP3    H117199   2.849   2.932   5.152
 5731TIP3    H217200   2.955   3.011   5.077
 5732TIP3   OH217201   3.737   5.142   2.730
 5732TIP3    H117202   3.669   5.152   2.663
 5732TIP3    H217203   3.729   5.051   2.759
 5733TIP3   OH217204   0.165   2.889   2.244
 5733TIP3    H117205   0.121   2.815   2.202
 5733TIP3    H217206   0.114   2.905   2.323
 5734TIP3   OH217207   2.744   1.805   4.438
 5734TIP3    H117208   2.708   1.716   4.436
 5734TIP3    H217209   2.678   1.858   4.393
 5735TIP3   OH217210   6.308   0.793   5.193
 5735TIP3    H117211   6.385   0.786   5.249
 5735TIP3    H217212   6.309   0.713   5.140
 5736TIP3   OH217213   5.628   4.798   1.592
 5736TIP3    H117214   5.611   4.861   1.521
 5736TIP3    H217215   5.723   4.786   1.589
 5737TIP3   OH217216   2.007   0.898   0.298
 5737TIP3    H117217   1.962   0.904   0.214
 5737TIP3    H217218   2.040   0.808   0.302
 5738TIP3   OH217219   1.786   3.235   2.043
 5738TIP3    H117220   1.761   3.142   2.037
 5738TIP3    H217221   1.723   3.280   1.986
 5739TIP3   OH217222   5.538   4.125   4.298
 5739TIP3    H117223   5.560   4.164   4.383
 5739TIP3    H217224   5.563   4.192   4.234
 5740TIP3   OH217225   0.736   4.795   4.429
 5740TIP3    H117226   0.673   4.735   4.468
 5740TIP3    H217227   0.695   4.881   4.437
 5741TIP3   OH217228   3.069   4.236   2.869
 5741TIP3    H117229   2.992   4.197   2.828
 5741TIP3    H217230   3.035   4.279   2.948
 5742TIP3   OH217231   1.707   2.997   4.556
 5742TIP3    H117232   1.680   3.038   4.639
 5742TIP3    H217233   1.696   3.066   4.491
 5743TIP3   OH217234   5.434   1.364   5.000
 5743TIP3    H117235   5.498   1.361   4.929
 5743TIP3    H217236   5.373   1.292   4.980
 5744TIP3   OH217237   1.933   2.826   4.880
 5744TIP3    H117238   1.959   2.747   4.928
 5744TIP3    H217239   1.966   2.812   4.791
 5745TIP3   OH217240   3.897   2.048   1.886
 5745TIP3    H117241   3.836   2.118   1.908
 5745TIP3    H217242   3.966   2.054   1.951
 5746TIP3   OH217243   2.094   1.418   1.819
 5746TIP3    H117244   2.134   1.345   1.772
 5746TIP3    H217245   2.158   1.489   1.813
 5747TIP3   OH217246   3.382   5.568   2.839
 5747TIP3    H117247   3.456   5.521   2.800
 5747TIP3    H217248   3.323   5.499   2.869
 5748TIP3   OH217249   0.820   5.720   3.273
 5748TIP3    H117250   0.841   5.798   3.324
 5748TIP3    H217251   0.879   5.652   3.307
 5749TIP3   OH217252   1.509   4.455   1.731
 5749TIP3    H117253   1.473   4.417   1.651
 5749TIP3    H217254   1.465   4.408   1.802
 5750TIP3   OH217255   0.256   1.351   4.393
 5750TIP3    H117256   0.343   1.323   4.363
 5750TIP3    H217257   0.199   1.277   4.373
 5751TIP3   OH217258   4.681   0.198   1.102
 5751TIP3    H117259   4.672   0.135   1.173
 5751TIP3    H217260   4.611   0.262   1.117
 5752TIP3   OH217261   1.773   0.663   5.125
 5752TIP3    H117262   1.856   0.664   5.077
 5752TIP3    H217263   1.743   0.754   5.124
 5753TIP3   OH217264   2.098   4.539   4.656
 5753TIP3    H117265   2.140   4.481   4.593
 5753TIP3    H217266   2.030   4.485   4.697
 5754TIP3   OH217267   4.299   0.084   1.043
 5754TIP3    H117268   4.277   0.135   1.121
 5754TIP3    H217269   4.302  -0.006   1.073
 5755TIP3   OH217270   1.434   1.771   3.969
 5755TIP3    H117271   1.508   1.797   3.914
 5755TIP3    H217272   1.413   1.849   4.020
 5756TIP3   OH217273   5.412   2.807   1.848
 5756TIP3    H117274   5.438   2.765   1.931
 5756TIP3    H217275   5.472   2.882   1.840
 5757TIP3   OH217276   1.224   3.113   1.642
 5757TIP3    H117277   1.170   3.115   1.563
 5757TIP3    H217278   1.162   3.097   1.713
 5758TIP3   OH217279   4.658   0.655   1.752
 5758TIP3    H117280   4.644   0.731   1.695
 5758TIP3    H217281   4.743   0.672   1.794
 5759TIP3   OH217282   0.946   4.066   2.059
 5759TIP3    H117283   0.891   4.124   2.006
 5759TIP3    H217284   0.935   4.099   2.148
 5760TIP3   OH217285   0.221   3.718   2.337
 5760TIP3    H117286   0.253   3.630   2.357
 5760TIP3    H217287   0.274   3.776   2.391
 5761TIP3   OH217288   5.899   0.664   3.549
 5761TIP3    H117289   5.987   0.688   3.523
 5761TIP3    H217290   5.871   0.601   3.483
 5762TIP3   OH217291   5.849   2.714   1.472
 5762TIP3    H117292   5.941   2.718   1.500
 5762TIP3    H217293   5.804   2.672   1.545
 5763TIP3   OH217294   3.570   3.527   4.909
 5763TIP3    H117295   3.576   3.434   4.927
 5763TIP3    H217296   3.547   3.567   4.993
 5764TIP3   OH217297   5.000   3.884   1.581
 5764TIP3    H117298   5.032   3.794   1.579
 5764TIP3    H217299   4.933   3.884   1.649
 5765TIP3   OH217300   1.637   1.971   2.011
 5765TIP3    H117301   1.599   2.039   1.955
 5765TIP3    H217302   1.561   1.926   2.049
 5766TIP3   OH217303   1.055   5.825   0.914
 5766TIP3    H117304   1.134   5.771   0.912
 5766TIP3    H217305   1.009   5.801   0.834
 5767TIP3   OH217306   5.273   0.750   2.221
 5767TIP3    H117307   5.297   0.720   2.134
 5767TIP3    H217308   5.353   0.790   2.255
 5768TIP3   OH217309   3.090   5.451   4.430
 5768TIP3    H117310   3.012   5.485   4.474
 5768TIP3    H217311   3.163   5.478   4.485
 5769TIP3   OH217312   4.527   1.751   0.564
 5769TIP3    H117313   4.563   1.680   0.616
 5769TIP3    H217314   4.504   1.711   0.480
 5770TIP3   OH217315   2.117   4.632   1.444
 5770TIP3    H117316   2.040   4.625   1.387
 5770TIP3    H217317   2.106   4.715   1.489
 5771TIP3   OH217318   4.585   0.611   3.084
 5771TIP3    H117319   4.540   0.695   3.072
 5771TIP3    H217320   4.636   0.623   3.164
 5772TIP3   OH217321   3.538   4.442   4.252
 5772TIP3    H117322   3.494   4.371   4.298
 5772TIP3    H217323   3.560   4.406   4.167
 5773TIP3   OH217324   3.035   5.802   3.319
 5773TIP3    H117325   2.976   5.773   3.249
 5773TIP3    H217326   2.977   5.841   3.384
 5774TIP3   OH217327   0.894   3.107   2.742
 5774TIP3    H117328   0.945   3.144   2.670
 5774TIP3    H217329   0.879   3.016   2.717
 5775TIP3   OH217330   5.539   3.647   3.670
 5775TIP3    H117331   5.593   3.584   3.621
 5775TIP3    H217332   5.506   3.707   3.603
 5776TIP3   OH217333   4.315   0.718   4.760
 5776TIP3    H117334   4.270   0.697   4.842
 5776TIP3    H217335   4.324   0.813   4.762
 5777TIP3   OH217336   5.336   4.417   3.473
 5777TIP3    H117337   5.324   4.432   3.379
 5777TIP3    H217338   5.431   4.421   3.486
 5778TIP3   OH217339   6.037   3.762   0.466
 5778TIP3    H117340   5.972   3.720   0.523
 5778TIP3    H217341   5.991   3.838   0.430
 5779TIP3   OH217342   1.678   1.332   3.235
 5779TIP3    H117343   1.622   1.284   3.295
 5779TIP3    H217344   1.723   1.396   3.290
 5780TIP3   OH217345   6.075   0.599   4.052
 5780TIP3    H117346   6.170   0.607   4.063
 5780TIP3    H217347   6.060   0.622   3.960
 5781TIP3   OH217348   5.525   1.751   3.499
 5781TIP3    H117349   5.546   1.708   3.417
 5781TIP3    H217350   5.601   1.807   3.517
 5782TIP3   OH217351   3.349   4.377   1.456
 5782TIP3    H117352   3.327   4.440   1.387
 5782TIP3    H217353   3.422   4.327   1.420
 5783TIP3   OH217354   1.369   5.706   3.888
 5783TIP3    H117355   1.409   5.792   3.899
 5783TIP3    H217356   1.307   5.699   3.960
 5784TIP3   OH217357   0.933   3.762   0.029
 5784TIP3    H117358   0.902   3.764   0.120
 5784TIP3    H217359   0.888   3.688  -0.010
 5785TIP3   OH217360   3.994   1.449   1.394
 5785TIP3    H117361   3.957   1.534   1.370
 5785TIP3    H217362   4.037   1.465   1.479
 5786TIP3   OH217363   0.712   0.728   1.098
 5786TIP3    H117364   0.783   0.675   1.134
 5786TIP3    H217365   0.756   0.801   1.054
 5787TIP3   OH217366   2.311   2.130   3.149
 5787TIP3    H117367   2.221   2.163   3.142
 5787TIP3    H217368   2.300   2.035   3.163
 5788TIP3   OH217369   6.230   0.834   4.871
 5788TIP3    H117370   6.309   0.790   4.903
 5788TIP3    H217371   6.185   0.767   4.818
 5789TIP3   OH217372   4.310   1.266   4.643
 5789TIP3    H117373   4.226   1.266   4.598
 5789TIP3    H217374   4.289   1.284   4.734
 5790TIP3   OH217375   5.402   2.728   2.762
 5790TIP3    H117376   5.373   2.675   2.837
 5790TIP3    H217377   5.328   2.728   2.702
 5791TIP3   OH217378   3.275   5.881   2.027
 5791TIP3    H117379   3.216   5.833   2.086
 5791TIP3    H217380   3.232   5.877   1.942
 5792TIP3   OH217381   3.209   0.723   1.966
 5792TIP3    H117382   3.270   0.732   1.893
 5792TIP3    H217383   3.135   0.778   1.942
 5793TIP3   OH217384   5.157   0.507   2.282
 5793TIP3    H117385   5.196   0.588   2.248
 5793TIP3    H217386   5.192   0.500   2.371
 5794TIP3   OH217387   5.706   1.978   2.955
 5794TIP3    H117388   5.684   2.046   2.892
 5794TIP3    H217389   5.771   2.019   3.012
 5795TIP3   OH217390   5.059   2.008   5.023
 5795TIP3    H117391   5.154   2.003   5.034
 5795TIP3    H217392   5.046   2.080   4.961
 5796TIP3   OH217393   5.368   4.063   3.459
 5796TIP3    H117394   5.342   3.976   3.491
 5796TIP3    H217395   5.449   4.082   3.507
 5797TIP3   OH217396   1.320   5.007   1.939
 5797TIP3    H117397   1.376   5.081   1.962
 5797TIP3    H217398   1.332   4.996   1.844
 5798TIP3   OH217399   2.502   0.258   1.976
 5798TIP3    H117400   2.466   0.291   2.058
 5798TIP3    H217401   2.467   0.317   1.909
 5799TIP3   OH217402   4.445   0.358   1.083
 5799TIP3    H117403   4.411   0.368   1.172
 5799TIP3    H217404   4.457   0.447   1.051
 5800TIP3   OH217405   2.903   4.936   3.461
 5800TIP3    H117406   2.843   5.004   3.491
 5800TIP3    H217407   2.986   4.956   3.504
 5801TIP3   OH217408   2.980   5.948   4.088
 5801TIP3    H117409   3.069   5.984   4.078
 5801TIP3    H217410   2.939   5.962   4.003
 5802TIP3   OH217411   3.741   1.338   4.297
 5802TIP3    H117412   3.730   1.419   4.347
 5802TIP3    H217413   3.733   1.268   4.362
 5803TIP3   OH217414   4.756   0.531   4.620
 5803TIP3    H117415   4.709   0.600   4.574
 5803TIP3    H217416   4.715   0.449   4.592
 5804TIP3   OH217417   0.539   3.072   0.130
 5804TIP3    H117418   0.631   3.050   0.113
 5804TIP3    H217419   0.533   3.081   0.225
 5805TIP3   OH217420   5.875   0.981   4.747
 5805TIP3    H117421   5.931   0.956   4.820
 5805TIP3    H217422   5.817   0.906   4.735
 5806TIP3   OH217423   5.774   2.192   4.623
 5806TIP3    H117424   5.826   2.134   4.567
 5806TIP3    H217425   5.834   2.221   4.691
 5807TIP3   OH217426   3.393   1.601   3.006
 5807TIP3    H117427   3.422   1.667   2.943
 5807TIP3    H217428   3.369   1.651   3.084
 5808TIP3   OH217429   0.788   4.275   0.119
 5808TIP3    H117430   0.803   4.197   0.066
 5808TIP3    H217431   0.698   4.301   0.099
 5809TIP3   OH217432   1.166   1.188   4.205
 5809TIP3    H117433   1.210   1.209   4.123
 5809TIP3    H217434   1.075   1.175   4.181
 5810TIP3   OH217435   0.812   5.643   1.561
 5810TIP3    H117436   0.750   5.716   1.563
 5810TIP3    H217437   0.832   5.626   1.653
 5811TIP3   OH217438   2.783   0.289   1.867
 5811TIP3    H117439   2.696   0.295   1.906
 5811TIP3    H217440   2.812   0.380   1.860
 5812TIP3   OH217441   2.905   0.482   2.975
 5812TIP3    H117442   2.961   0.515   3.045
 5812TIP3    H217443   2.817   0.481   3.014
 5813TIP3   OH217444   5.704   2.920   4.902
 5813TIP3    H117445   5.698   3.013   4.883
 5813TIP3    H217446   5.793   2.909   4.938
 5814TIP3   OH217447   4.330   1.579   0.446
 5814TIP3    H117448   4.355   1.490   0.422
 5814TIP3    H217449   4.329   1.579   0.542
 5815TIP3   OH217450   4.448   1.479   0.048
 5815TIP3    H117451   4.356   1.490   0.069
 5815TIP3    H217452   4.456   1.506  -0.043
 5816TIP3   OH217453   0.871   3.315   1.088
 5816TIP3    H117454   0.810   3.388   1.097
 5816TIP3    H217455   0.865   3.268   1.171
 5817TIP3   OH217456   5.330   5.079   3.649
 5817TIP3    H117457   5.306   5.162   3.607
 5817TIP3    H217458   5.421   5.092   3.676
 5818TIP3   OH217459   5.012   5.260   3.561
 5818TIP3    H117460   5.000   5.219   3.475
 5818TIP3    H217461   5.102   5.292   3.560
 5819TIP3   OH217462   4.024   4.853   2.307
 5819TIP3    H117463   3.982   4.770   2.284
 5819TIP3    H217464   4.066   4.883   2.227
 5820TIP3   OH217465   5.688   3.256   3.355
 5820TIP3    H117466   5.755   3.200   3.394
 5820TIP3    H217467   5.609   3.201   3.354
 5821TIP3   OH217468   4.369   4.983   3.242
 5821TIP3    H117469   4.299   5.013   3.183
 5821TIP3    H217470   4.449   5.019   3.205
 5822TIP3   OH217471   0.454   0.052   3.820
 5822TIP3    H117472   0.447   0.144   3.844
 5822TIP3    H217473   0.483   0.007   3.899
 5823TIP3   OH217474   5.313   1.746   3.195
 5823TIP3    H117475   5.359   1.772   3.116
 5823TIP3    H217476   5.283   1.657   3.178
 5824TIP3   OH217477   4.109   1.728   1.833
 5824TIP3    H117478   4.060   1.723   1.915
 5824TIP3    H217479   4.055   1.783   1.776
 5825TIP3   OH217480   4.406   0.709   2.138
 5825TIP3    H117481   4.394   0.803   2.142
 5825TIP3    H217482   4.324   0.672   2.170
 5826TIP3   OH217483   5.057   0.358   0.214
 5826TIP3    H117484   5.075   0.428   0.277
 5826TIP3    H217485   5.082   0.278   0.260
 5827TIP3   OH217486   6.293   0.987   2.588
 5827TIP3    H117487   6.365   1.023   2.537
 5827TIP3    H217488   6.311   1.016   2.678
 5828TIP3   OH217489   1.976   0.628   4.708
 5828TIP3    H117490   1.966   0.601   4.617
 5828TIP3    H217491   1.977   0.545   4.757
 5829TIP3   OH217492   1.556   3.418   0.686
 5829TIP3    H117493   1.591   3.499   0.724
 5829TIP3    H217494   1.507   3.377   0.757
 5830TIP3   OH217495   1.942   2.840   3.700
 5830TIP3    H117496   1.974   2.865   3.614
 5830TIP3    H217497   1.956   2.918   3.755
 5831TIP3   OH217498   0.029   2.738   3.680
 5831TIP3    H117499   0.097   2.754   3.614
 5831TIP3    H217500   0.067   2.769   3.762
 5832TIP3   OH217501   2.877   4.984   0.176
 5832TIP3    H117502   2.890   4.995   0.270
 5832TIP3    H217503   2.872   4.889   0.163
 5833TIP3   OH217504   1.500   5.850   2.517
 5833TIP3    H117505   1.528   5.778   2.460
 5833TIP3    H217506   1.424   5.888   2.473
 5834TIP3   OH217507   3.878   2.672   4.914
 5834TIP3    H117508   3.877   2.625   4.831
 5834TIP3    H217509   3.949   2.632   4.963
 5835TIP3   OH217510   1.814   5.154   3.205
 5835TIP3    H117511   1.745   5.219   3.190
 5835TIP3    H217512   1.767   5.077   3.238
 5836TIP3   OH217513   5.108   4.480   4.267
 5836TIP3    H117514   5.184   4.421   4.257
 5836TIP3    H217515   5.119   4.545   4.198
 5837TIP3   OH217516   1.936   2.848   0.988
 5837TIP3    H117517   1.994   2.783   1.026
 5837TIP3    H217518   1.988   2.929   0.987
 5838TIP3   OH217519   0.967   1.308   4.545
 5838TIP3    H117520   0.983   1.359   4.624
 5838TIP3    H217521   1.047   1.319   4.493
 5839TIP3   OH217522   1.302   3.773   2.155
 5839TIP3    H117523   1.277   3.863   2.138
 5839TIP3    H217524   1.253   3.722   2.090
 5840TIP3   OH217525   2.397   4.778   4.296
 5840TIP3    H117526   2.309   4.745   4.312
 5840TIP3    H217527   2.387   4.873   4.292
 5841TIP3   OH217528   6.024   5.599   0.958
 5841TIP3    H117529   5.975   5.681   0.961
 5841TIP3    H217530   5.956   5.531   0.951
 5842TIP3   OH217531   1.353   1.407   3.233
 5842TIP3    H117532   1.374   1.369   3.147
 5842TIP3    H217533   1.289   1.476   3.213
 5843TIP3   OH217534   4.927   3.810   0.367
 5843TIP3    H117535   4.997   3.874   0.356
 5843TIP3    H217536   4.873   3.845   0.438
 5844TIP3   OH217537   5.084   0.583   4.018
 5844TIP3    H117538   5.172   0.619   4.028
 5844TIP3    H217539   5.094   0.511   3.956
 5845TIP3   OH217540   4.946   0.097   2.279
 5845TIP3    H117541   4.863   0.074   2.237
 5845TIP3    H217542   4.978   0.172   2.230
 5846TIP3   OH217543   1.807   3.077   0.078
 5846TIP3    H117544   1.731   3.048   0.129
 5846TIP3    H217545   1.844   3.149   0.128
 5847TIP3   OH217546   1.946   3.342   1.674
 5847TIP3    H117547   1.981   3.370   1.758
 5847TIP3    H217548   1.862   3.386   1.666
 5848TIP3   OH217549   0.633   1.149   3.513
 5848TIP3    H117550   0.686   1.229   3.517
 5848TIP3    H217551   0.544   1.181   3.498
 5849TIP3   OH217552   0.064   3.568   3.924
 5849TIP3    H117553   0.108   3.584   3.841
 5849TIP3    H217554  -0.023   3.606   3.913
 5850TIP3   OH217555   5.954   3.792   2.224
 5850TIP3    H117556   6.012   3.818   2.296
 5850TIP3    H217557   6.013   3.767   2.153
 5851TIP3   OH217558   2.284   0.470   4.555
 5851TIP3    H117559   2.208   0.426   4.517
 5851TIP3    H217560   2.304   0.540   4.492
 5852TIP3   OH217561   0.457   0.862   1.072
 5852TIP3    H117562   0.448   0.937   1.014
 5852TIP3    H217563   0.397   0.796   1.036
 5853TIP3   OH217564   4.208   0.615   2.708
 5853TIP3    H117565   4.252   0.687   2.754
 5853TIP3    H217566   4.255   0.606   2.625
 5854TIP3   OH217567   0.198   5.145   2.896
 5854TIP3    H117568   0.140   5.167   2.822
 5854TIP3    H217569   0.267   5.212   2.893
 5855TIP3   OH217570   4.525   4.376   3.198
 5855TIP3    H117571   4.451   4.429   3.228
 5855TIP3    H217572   4.527   4.302   3.259
 5856TIP3   OH217573   3.871   4.912   5.042
 5856TIP3    H117574   3.891   4.962   4.962
 5856TIP3    H217575   3.857   4.823   5.011
 5857TIP3   OH217576   4.220   2.030   1.889
 5857TIP3    H117577   4.226   2.125   1.879
 5857TIP3    H217578   4.252   1.995   1.805
 5858TIP3   OH217579   2.061   0.994   2.103
 5858TIP3    H117580   2.126   0.994   2.033
 5858TIP3    H217581   1.978   0.981   2.058
 5859TIP3   OH217582   1.469   2.068   0.073
 5859TIP3    H117583   1.454   2.144   0.016
 5859TIP3    H217584   1.446   1.993   0.018
 5860TIP3   OH217585   2.232   2.940   1.163
 5860TIP3    H117586   2.252   3.023   1.120
 5860TIP3    H217587   2.313   2.916   1.209
 5861TIP3   OH217588   4.089   4.987   1.566
 5861TIP3    H117589   4.006   4.946   1.539
 5861TIP3    H217590   4.066   5.078   1.583
 5862TIP3   OH217591   5.085   4.440   0.355
 5862TIP3    H117592   5.142   4.447   0.432
 5862TIP3    H217593   5.080   4.346   0.338
 5863TIP3   OH217594   5.071   0.188   1.795
 5863TIP3    H117595   5.041   0.179   1.886
 5863TIP3    H217596   5.032   0.271   1.766
 5864TIP3   OH217597   4.960   4.488   4.888
 5864TIP3    H117598   4.988   4.442   4.808
 5864TIP3    H217599   4.911   4.564   4.856
 5865TIP3   OH217600   3.937   0.195   3.776
 5865TIP3    H117601   3.867   0.254   3.806
 5865TIP3    H217602   3.892   0.130   3.722
 5866TIP3   OH217603   5.534   2.157   4.815
 5866TIP3    H117604   5.471   2.176   4.745
 5866TIP3    H217605   5.618   2.146   4.770
 5867TIP3   OH217606   3.295   2.850   3.197
 5867TIP3    H117607   3.376   2.844   3.146
 5867TIP3    H217608   3.257   2.762   3.193
 5868TIP3   OH217609   1.924   0.451   0.335
 5868TIP3    H117610   2.002   0.504   0.351
 5868TIP3    H217611   1.852   0.505   0.368
 5869TIP3   OH217612   4.174   5.988   1.136
 5869TIP3    H117613   4.117   5.940   1.196
 5869TIP3    H217614   4.123   5.995   1.055
 5870TIP3   OH217615   5.898   0.415   1.053
 5870TIP3    H117616   5.860   0.466   0.981
 5870TIP3    H217617   5.992   0.417   1.036
 5871TIP3   OH217618   6.187   0.441   3.359
 5871TIP3    H117619   6.248   0.440   3.433
 5871TIP3    H217620   6.233   0.489   3.291
 5872TIP3   OH217621   1.448   0.522   0.536
 5872TIP3    H117622   1.360   0.500   0.507
 5872TIP3    H217623   1.446   0.512   0.631
 5873TIP3   OH217624   0.157   3.979   4.827
 5873TIP3    H117625   0.171   4.074   4.830
 5873TIP3    H217626   0.071   3.966   4.866
 5874TIP3   OH217627  -0.014   3.267   0.086
 5874TIP3    H117628   0.077   3.290   0.072
 5874TIP3    H217629  -0.062   3.317   0.020
 5875TIP3   OH217630   1.367   3.290   3.276
 5875TIP3    H117631   1.293   3.230   3.287
 5875TIP3    H217632   1.428   3.242   3.219
 5876TIP3   OH217633   2.900   1.615   2.220
 5876TIP3    H117634   2.865   1.704   2.212
 5876TIP3    H217635   2.823   1.561   2.238
 5877TIP3   OH217636   0.197   5.291   3.926
 5877TIP3    H117637   0.201   5.216   3.985
 5877TIP3    H217638   0.123   5.271   3.867
 5878TIP3   OH217639   0.843   1.415   1.898
 5878TIP3    H117640   0.763   1.446   1.939
 5878TIP3    H217641   0.885   1.361   1.965
 5879TIP3   OH217642   2.252   5.571   4.570
 5879TIP3    H117643   2.344   5.585   4.548
 5879TIP3    H217644   2.253   5.539   4.660
 5880TIP3   OH217645   0.694   1.342   4.432
 5880TIP3    H117646   0.678   1.432   4.460
 5880TIP3    H217647   0.768   1.313   4.484
 5881TIP3   OH217648   5.035   4.652   3.917
 5881TIP3    H117649   5.036   4.673   3.823
 5881TIP3    H217650   4.945   4.670   3.944
 5882TIP3   OH217651   2.690   2.738   1.433
 5882TIP3    H117652   2.637   2.666   1.469
 5882TIP3    H217653   2.750   2.761   1.504
 5883TIP3   OH217654   1.275   5.340   0.820
 5883TIP3    H117655   1.363   5.309   0.840
 5883TIP3    H217656   1.218   5.291   0.879
 5884TIP3   OH217657   0.119   4.168   2.933
 5884TIP3    H117658   0.128   4.074   2.947
 5884TIP3    H217659   0.024   4.182   2.926
 5885TIP3   OH217660   1.979   2.534   3.380
 5885TIP3    H117661   1.920   2.534   3.455
 5885TIP3    H217662   2.041   2.604   3.398
 5886TIP3   OH217663   2.359   3.912   0.179
 5886TIP3    H117664   2.415   3.939   0.252
 5886TIP3    H217665   2.378   3.974   0.109
 5887TIP3   OH217666   3.529   4.626   0.356
 5887TIP3    H117667   3.576   4.697   0.311
 5887TIP3    H217668   3.592   4.593   0.420
 5888TIP3   OH217669   3.558   3.416   3.334
 5888TIP3    H117670   3.608   3.335   3.346
 5888TIP3    H217671   3.530   3.415   3.242
 5889TIP3   OH217672   3.053   4.331   3.385
 5889TIP3    H117673   3.110   4.297   3.317
 5889TIP3    H217674   3.102   4.318   3.466
 5890TIP3   OH217675   2.980   1.512   3.097
 5890TIP3    H117676   2.887   1.509   3.120
 5890TIP3    H217677   3.004   1.605   3.107
 5891TIP3   OH217678   0.488   0.280   4.567
 5891TIP3    H117679   0.404   0.237   4.584
 5891TIP3    H217680   0.479   0.367   4.607
 5892TIP3   OH217681   2.648   1.259   4.765
 5892TIP3    H117682   2.574   1.253   4.825
 5892TIP3    H217683   2.721   1.221   4.814
 5893TIP3   OH217684   4.991   2.093   0.055
 5893TIP3    H117685   5.035   2.008   0.051
 5893TIP3    H217686   5.059   2.156   0.030
 5894TIP3   OH217687   3.951   5.121   2.933
 5894TIP3    H117688   3.879   5.142   2.874
 5894TIP3    H217689   4.021   5.089   2.875
 5895TIP3   OH217690   5.128   5.746   3.157
 5895TIP3    H117691   5.157   5.772   3.070
 5895TIP3    H217692   5.099   5.827   3.199
 5896TIP3   OH217693   0.113   1.883   2.577
 5896TIP3    H117694   0.139   1.797   2.544
 5896TIP3    H217695   0.032   1.904   2.531
 5897TIP3   OH217696   2.571   5.784   2.993
 5897TIP3    H117697   2.489   5.821   2.958
 5897TIP3    H217698   2.547   5.696   3.020
 5898TIP3   OH217699   1.037   0.253   4.032
 5898TIP3    H117700   1.018   0.267   3.939
 5898TIP3    H217701   1.074   0.165   4.036
 5899TIP3   OH217702   0.458   0.827   4.401
 5899TIP3    H117703   0.396   0.808   4.471
 5899TIP3    H217704   0.504   0.745   4.387
 5900TIP3   OH217705   1.804   0.315   3.071
 5900TIP3    H117706   1.878   0.294   3.014
 5900TIP3    H217707   1.754   0.380   3.023
 5901TIP3   OH217708   3.923   4.965   0.321
 5901TIP3    H117709   3.848   4.942   0.267
 5901TIP3    H217710   3.995   4.913   0.286
 5902TIP3   OH217711   1.129   4.062   0.806
 5902TIP3    H117712   1.177   3.993   0.850
 5902TIP3    H217713   1.069   4.016   0.747
 5903TIP3   OH217714   1.085   4.359   0.892
 5903TIP3    H117715   1.054   4.393   0.976
 5903TIP3    H217716   1.014   4.303   0.861
 5904TIP3   OH217717   4.703   0.059   2.165
 5904TIP3    H117718   4.711   0.017   2.079
 5904TIP3    H217719   4.659   0.142   2.147
 5905TIP3   OH217720   5.557   4.357   4.134
 5905TIP3    H117721   5.524   4.440   4.167
 5905TIP3    H217722   5.650   4.373   4.118
 5906TIP3   OH217723   5.489   1.037   4.721
 5906TIP3    H117724   5.525   0.949   4.708
 5906TIP3    H217725   5.563   1.096   4.705
 5907TIP3   OH217726   1.040   4.477   1.731
 5907TIP3    H117727   1.125   4.518   1.748
 5907TIP3    H217728   0.990   4.544   1.684
 5908TIP3   OH217729   4.882   4.951   5.010
 5908TIP3    H117730   4.786   4.946   5.006
 5908TIP3    H217731   4.900   5.022   5.071
 5909TIP3   OH217732   0.528   4.066   0.778
 5909TIP3    H117733   0.575   4.010   0.839
 5909TIP3    H217734   0.459   4.107   0.831
 5910TIP3   OH217735   2.129   5.560   0.900
 5910TIP3    H117736   2.171   5.544   0.815
 5910TIP3    H217737   2.035   5.559   0.881
 5911TIP3   OH217738   0.338   2.684   2.454
 5911TIP3    H117739   0.406   2.639   2.505
 5911TIP3    H217740   0.327   2.768   2.498
 5912TIP3   OH217741   0.388   0.885   2.841
 5912TIP3    H117742   0.370   0.839   2.760
 5912TIP3    H217743   0.482   0.872   2.856
 5913TIP3   OH217744   1.370   5.275   2.226
 5913TIP3    H117745   1.432   5.344   2.248
 5913TIP3    H217746   1.384   5.258   2.133
 5914TIP3   OH217747   3.750   5.929   4.427
 5914TIP3    H117748   3.795   6.007   4.394
 5914TIP3    H217749   3.789   5.856   4.379
 5915TIP3   OH217750   3.897   2.679   4.029
 5915TIP3    H117751   3.940   2.764   4.025
 5915TIP3    H217752   3.804   2.698   4.019
 5916TIP3   OH217753   6.136   5.211   0.970
 5916TIP3    H117754   6.225   5.181   0.985
 5916TIP3    H217755   6.119   5.275   1.039
 5917TIP3   OH217756   3.444   1.612   4.486
 5917TIP3    H117757   3.371   1.586   4.428
 5917TIP3    H217758   3.425   1.703   4.509
 5918TIP3   OH217759   0.072   5.017   3.783
 5918TIP3    H117760   0.129   5.041   3.856
 5918TIP3    H217761   0.072   4.921   3.783
 5919TIP3   OH217762   2.890   4.896   0.749
 5919TIP3    H117763   2.913   4.988   0.757
 5919TIP3    H217764   2.970   4.853   0.720
 5920TIP3   OH217765   4.180   0.346   4.719
 5920TIP3    H117766   4.182   0.259   4.759
 5920TIP3    H217767   4.107   0.390   4.762
 5921TIP3   OH217768   1.013   4.052   1.150
 5921TIP3    H117769   0.993   4.105   1.072
 5921TIP3    H217770   0.927   4.020   1.179
 5922TIP3   OH217771   3.103   4.287   2.257
 5922TIP3    H117772   3.091   4.342   2.180
 5922TIP3    H217773   3.054   4.207   2.236
 5923TIP3   OH217774   4.789   1.644   2.266
 5923TIP3    H117775   4.749   1.663   2.181
 5923TIP3    H217776   4.726   1.587   2.310
 5924TIP3   OH217777   6.246   1.488   2.038
 5924TIP3    H117778   6.306   1.428   2.083
 5924TIP3    H217779   6.161   1.473   2.081
 5925TIP3   OH217780   1.732   3.935   0.457
 5925TIP3    H117781   1.767   4.008   0.406
 5925TIP3    H217782   1.808   3.881   0.477
 5926TIP3   OH217783   3.870   2.907   2.631
 5926TIP3    H117784   3.784   2.949   2.622
 5926TIP3    H217785   3.933   2.977   2.614
 5927TIP3   OH217786   4.075   2.694   3.650
 5927TIP3    H117787   4.038   2.610   3.676
 5927TIP3    H217788   4.000   2.743   3.614
 5928TIP3   OH217789   3.793   2.831   2.117
 5928TIP3    H117790   3.741   2.752   2.104
 5928TIP3    H217791   3.876   2.811   2.074
 5929TIP3   OH217792   6.217   0.646   2.911
 5929TIP3    H117793   6.306   0.679   2.928
 5929TIP3    H217794   6.160   0.713   2.949
 5930TIP3   OH217795   4.520   0.275   4.181
 5930TIP3    H117796   4.463   0.227   4.122
 5930TIP3    H217797   4.606   0.235   4.170
 5931TIP3   OH217798   2.980   5.696   1.449
 5931TIP3    H117799   3.055   5.702   1.507
 5931TIP3    H217800   2.951   5.605   1.457
 5932TIP3   OH217801   4.748   5.762   2.703
 5932TIP3    H117802   4.663   5.726   2.676
 5932TIP3    H217803   4.764   5.725   2.790
 5933TIP3   OH217804   6.133   5.761   1.177
 5933TIP3    H117805   6.097   5.732   1.261
 5933TIP3    H217806   6.094   5.702   1.112
 5934TIP3   OH217807   4.537   1.131   1.605
 5934TIP3    H117808   4.624   1.153   1.571
 5934TIP3    H217809   4.554   1.067   1.674
 5935TIP3   OH217810   2.487   1.356   3.666
 5935TIP3    H117811   2.553   1.349   3.597
 5935TIP3    H217812   2.454   1.267   3.677
 5936TIP3   OH217813   5.746   4.398   3.789
 5936TIP3    H117814   5.711   4.487   3.780
 5936TIP3    H217815   5.692   4.358   3.857
 5937TIP3   OH217816   5.522   1.091   2.785
 5937TIP3    H117817   5.610   1.118   2.811
 5937TIP3    H217818   5.468   1.170   2.796
 5938TIP3   OH217819   2.825   3.708   1.892
 5938TIP3    H117820   2.888   3.776   1.870
 5938TIP3    H217821   2.748   3.756   1.923
 5939TIP3   OH217822   3.521   0.351   0.561
 5939TIP3    H117823   3.505   0.327   0.470
 5939TIP3    H217824   3.528   0.267   0.607
 5940TIP3   OH217825   1.840   5.089   4.208
 5940TIP3    H117826   1.780   5.114   4.278
 5940TIP3    H217827   1.784   5.085   4.130
 5941TIP3   OH217828   4.170   4.489   1.074
 5941TIP3    H117829   4.217   4.565   1.039
 5941TIP3    H217830   4.207   4.475   1.161
 5942TIP3   OH217831   1.882   1.842   4.473
 5942TIP3    H117832   1.849   1.843   4.563
 5942TIP3    H217833   1.886   1.750   4.450
 5943TIP3   OH217834   3.255   5.951   1.448
 5943TIP3    H117835   3.169   5.991   1.436
 5943TIP3    H217836   3.253   5.873   1.392
 5944TIP3   OH217837   1.819   4.999   2.061
 5944TIP3    H117838   1.737   5.018   2.107
 5944TIP3    H217839   1.808   4.910   2.029
 5945TIP3   OH217840   5.542   3.368   1.482
 5945TIP3    H117841   5.536   3.461   1.461
 5945TIP3    H217842   5.470   3.327   1.434
 5946TIP3   OH217843   1.902   0.617   3.352
 5946TIP3    H117844   1.906   0.710   3.327
 5946TIP3    H217845   1.975   0.577   3.306
 5947TIP3   OH217846   4.846   4.456   3.325
 5947TIP3    H117847   4.839   4.373   3.279
 5947TIP3    H217848   4.799   4.518   3.269
 5948TIP3   OH217849   2.445   4.260   3.232
 5948TIP3    H117850   2.366   4.312   3.246
 5948TIP3    H217851   2.456   4.212   3.314
 5949TIP3   OH217852   6.201   2.554   3.222
 5949TIP3    H117853   6.215   2.647   3.240
 5949TIP3    H217854   6.280   2.512   3.256
 5950TIP3   OH217855   1.020   4.984   4.505
 5950TIP3    H117856   0.924   4.991   4.508
 5950TIP3    H217857   1.037   4.904   4.457
 5951TIP3   OH217858   5.115   4.299   3.587
 5951TIP3    H117859   5.194   4.338   3.549
 5951TIP3    H217860   5.116   4.325   3.679
 5952TIP3   OH217861   4.470   2.211   2.050
 5952TIP3    H117862   4.429   2.240   2.131
 5952TIP3    H217863   4.507   2.125   2.072
 5953TIP3   OH217864   0.700   2.255   2.870
 5953TIP3    H117865   0.671   2.219   2.955
 5953TIP3    H217866   0.795   2.246   2.872
 5954TIP3   OH217867   3.565   3.106   1.763
 5954TIP3    H117868   3.505   3.136   1.694
 5954TIP3    H217869   3.553   3.169   1.834
 5955TIP3   OH217870   4.030   2.123   0.110
 5955TIP3    H117871   4.091   2.059   0.146
 5955TIP3    H217872   4.000   2.173   0.187
 5956TIP3   OH217873   3.893   4.168   0.962
 5956TIP3    H117874   3.815   4.217   0.988
 5956TIP3    H217875   3.955   4.235   0.932
 5957TIP3   OH217876   1.644   2.846   3.417
 5957TIP3    H117877   1.724   2.897   3.430
 5957TIP3    H217878   1.652   2.773   3.479
 5958TIP3   OH217879   0.091   4.286   3.949
 5958TIP3    H117880   0.070   4.203   3.992
 5958TIP3    H217881   0.010   4.311   3.904
 5959TIP3   OH217882   4.354   3.372   3.003
 5959TIP3    H117883   4.386   3.359   3.093
 5959TIP3    H217884   4.260   3.388   3.014
 5960TIP3   OH217885   6.335   2.837   4.958
 5960TIP3    H117886   6.344   2.841   5.053
 5960TIP3    H217887   6.327   2.744   4.938
 5961TIP3   OH217888   5.273   5.755   2.932
 5961TIP3    H117889   5.240   5.803   2.856
 5961TIP3    H217890   5.314   5.676   2.895
 5962TIP3   OH217891   3.693   3.921   4.965
 5962TIP3    H117892   3.720   3.836   4.998
 5962TIP3    H217893   3.703   3.980   5.039
 5963TIP3   OH217894   5.009   1.181   1.301
 5963TIP3    H117895   5.097   1.194   1.266
 5963TIP3    H217896   4.951   1.222   1.237
 5964TIP3   OH217897   4.018   3.096   3.488
 5964TIP3    H117898   3.926   3.119   3.500
 5964TIP3    H217899   4.018   3.034   3.415
 5965TIP3   OH217900   3.688   2.258   0.927
 5965TIP3    H117901   3.691   2.344   0.969
 5965TIP3    H217902   3.758   2.208   0.968
 5966TIP3   OH217903   3.459   5.193   4.669
 5966TIP3    H117904   3.459   5.263   4.734
 5966TIP3    H217905   3.522   5.222   4.602
 5967TIP3   OH217906   2.238   5.523   4.857
 5967TIP3    H117907   2.237   5.493   4.948
 5967TIP3    H217908   2.198   5.610   4.860
 5968TIP3   OH217909   1.093   0.912   4.110
 5968TIP3    H117910   1.146   0.944   4.183
 5968TIP3    H217911   1.005   0.903   4.147
 5969TIP3   OH217912   4.582   2.898   4.253
 5969TIP3    H117913   4.599   2.985   4.288
 5969TIP3    H217914   4.586   2.910   4.158
 5970TIP3   OH217915   3.072   2.318   4.176
 5970TIP3    H117916   3.058   2.272   4.258
 5970TIP3    H217917   3.061   2.411   4.198
 5971TIP3   OH217918   1.171   1.169   0.275
 5971TIP3    H117919   1.224   1.154   0.353
 5971TIP3    H217920   1.144   1.082   0.247
 5972TIP3   OH217921   3.345   1.586   2.574
 5972TIP3    H117922   3.289   1.599   2.651
 5972TIP3    H217923   3.339   1.493   2.554
 5973TIP3   OH217924   5.992   1.696   3.426
 5973TIP3    H117925   5.953   1.629   3.482
 5973TIP3    H217926   5.917   1.735   3.380
 5974TIP3   OH217927   0.689   4.164   4.565
 5974TIP3    H117928   0.593   4.171   4.557
 5974TIP3    H217929   0.721   4.251   4.540
 5975TIP3   OH217930   0.741   5.708   1.932
 5975TIP3    H117931   0.668   5.733   1.875
 5975TIP3    H217932   0.793   5.647   1.879
 5976TIP3   OH217933   2.325   4.274   1.736
 5976TIP3    H117934   2.248   4.302   1.686
 5976TIP3    H217935   2.374   4.219   1.674
 5977TIP3   OH217936   2.633   4.092   3.095
 5977TIP3    H117937   2.591   4.010   3.119
 5977TIP3    H217938   2.568   4.160   3.114
 5978TIP3   OH217939   0.091   5.785   2.079
 5978TIP3    H117940  -0.004   5.770   2.077
 5978TIP3    H217941   0.115   5.800   1.988
 5979TIP3   OH217942   0.945   2.772   0.355
 5979TIP3    H117943   0.960   2.860   0.389
 5979TIP3    H217944   1.029   2.745   0.318
 5980TIP3   OH217945   2.827   1.056   3.212
 5980TIP3    H117946   2.887   0.987   3.182
 5980TIP3    H217947   2.792   1.022   3.294
 5981TIP3   OH217948   4.215   1.832   4.306
 5981TIP3    H117949   4.193   1.899   4.370
 5981TIP3    H217950   4.294   1.864   4.263
 5982TIP3   OH217951   2.883   5.283   3.201
 5982TIP3    H117952   2.927   5.299   3.285
 5982TIP3    H217953   2.796   5.252   3.225
 5983TIP3   OH217954   5.372   5.166   4.180
 5983TIP3    H117955   5.462   5.134   4.170
 5983TIP3    H217956   5.375   5.220   4.258
 5984TIP3   OH217957   6.286   4.318   1.395
 5984TIP3    H117958   6.250   4.352   1.476
 5984TIP3    H217959   6.273   4.389   1.331
 5985TIP3   OH217960   3.199   4.010   3.153
 5985TIP3    H117961   3.103   4.020   3.154
 5985TIP3    H217962   3.232   4.100   3.154
 5986TIP3   OH217963   1.192   5.569   3.591
 5986TIP3    H117964   1.162   5.489   3.548
 5986TIP3    H217965   1.117   5.628   3.586
 5987TIP3   OH217966   0.088   2.120   3.357
 5987TIP3    H117967   0.013   2.064   3.376
 5987TIP3    H217968   0.150   2.104   3.428
 5988TIP3   OH217969   3.533   3.135   1.031
 5988TIP3    H117970   3.555   3.206   0.970
 5988TIP3    H217971   3.480   3.074   0.979
 5989TIP3   OH217972   3.895   0.585   2.448
 5989TIP3    H117973   3.930   0.538   2.372
 5989TIP3    H217974   3.857   0.517   2.504
 5990TIP3   OH217975   3.443   0.284   3.337
 5990TIP3    H117976   3.464   0.200   3.297
 5990TIP3    H217977   3.438   0.266   3.431
 5991TIP3   OH217978   1.840   5.918   3.217
 5991TIP3    H117979   1.933   5.896   3.217
 5991TIP3    H217980   1.826   5.966   3.299
 5992TIP3   OH217981   1.956   4.361   2.401
 5992TIP3    H117982   2.049   4.379   2.414
 5992TIP3    H217983   1.941   4.378   2.308
 5993TIP3   OH217984   4.071   0.959   1.485
 5993TIP3    H117985   3.989   0.982   1.530
 5993TIP3    H217986   4.091   1.035   1.430
 5994TIP3   OH217987   2.186   2.004   3.867
 5994TIP3    H117988   2.109   2.039   3.911
 5994TIP3    H217989   2.229   1.950   3.934
 5995TIP3   OH217990   5.871   4.846   1.018
 5995TIP3    H117991   5.910   4.899   0.948
 5995TIP3    H217992   5.890   4.894   1.098
 5996TIP3   OH217993   4.630   4.890   0.999
 5996TIP3    H117994   4.657   4.803   0.971
 5996TIP3    H217995   4.541   4.900   0.966
 5997TIP3   OH217996   4.488   1.046   4.263
 5997TIP3    H117997   4.501   1.077   4.353
 5997TIP3    H217998   4.549   1.098   4.211
 5998TIP3   OH217999   6.170   0.627   0.687
 5998TIP3    H118000   6.258   0.597   0.708
 5998TIP3    H218001   6.150   0.693   0.754
 5999TIP3   OH218002   4.560   1.322   4.924
 5999TIP3    H118003   4.615   1.290   4.852
 5999TIP3    H218004   4.576   1.416   4.927
 6000TIP3   OH218005   3.076   0.565   0.540
 6000TIP3    H118006   3.159   0.595   0.577
 6000TIP3    H218007   3.101   0.505   0.469
 6001TIP3   OH218008   3.892   1.531   2.838
 6001TIP3    H118009   3.968   1.475   2.858
 6001TIP3    H218010   3.909   1.612   2.885
 6002TIP3   OH218011   0.782   5.179   1.020
 6002TIP3    H118012   0.864   5.219   1.047
 6002TIP3    H218013   0.808   5.106   0.963
 6003TIP3   OH218014   3.314   3.787   3.081
 6003TIP3    H118015   3.329   3.737   3.162
 6003TIP3    H218016   3.275   3.869   3.111
 6004TIP3   OH218017   5.811   1.899   1.413
 6004TIP3    H118018   5.795   1.904   1.508
 6004TIP3    H218019   5.841   1.987   1.389
 6005TIP3   OH218020   3.344   1.148   1.587
 6005TIP3    H118021   3.425   1.108   1.555
 6005TIP3    H218022   3.276   1.083   1.566
 6006TIP3   OH218023   0.906   0.889  -0.003
 6006TIP3    H118024   0.961   0.910   0.072
 6006TIP3    H218025   0.840   0.959  -0.004
 6007TIP3   OH218026   3.470   4.528   2.602
 6007TIP3    H118027   3.419   4.549   2.680
 6007TIP3    H218028   3.427   4.575   2.531
 6008TIP3   OH218029   3.511   5.169   5.014
 6008TIP3    H118030   3.437   5.120   4.979
 6008TIP3    H218031   3.527   5.238   4.949
 6009TIP3   OH218032   1.833   4.894  -0.040
 6009TIP3    H118033   1.815   4.820   0.018
 6009TIP3    H218034   1.831   4.971   0.018
 6010TIP3   OH218035   4.845   1.528   2.623
 6010TIP3    H118036   4.885   1.543   2.709
 6010TIP3    H218037   4.804   1.442   2.630
 6011TIP3   OH218038   2.203   5.586   2.087
 6011TIP3    H118039   2.251   5.531   2.148
 6011TIP3    H218040   2.116   5.596   2.126
 6012TIP3   OH218041   1.890   3.721   3.667
 6012TIP3    H118042   1.907   3.745   3.758
 6012TIP3    H218043   1.920   3.631   3.660
 6013TIP3   OH218044   2.312   3.802   2.114
 6013TIP3    H118045   2.254   3.743   2.163
 6013TIP3    H218046   2.292   3.784   2.022
 6014TIP3   OH218047   1.337   3.037   4.333
 6014TIP3    H118048   1.323   3.088   4.254
 6014TIP3    H218049   1.272   2.968   4.330
 6015TIP3   OH218050   2.766   0.662   0.117
 6015TIP3    H118051   2.762   0.697   0.206
 6015TIP3    H218052   2.690   0.603   0.111
 6016TIP3   OH218053   5.966   1.283   0.234
 6016TIP3    H118054   5.884   1.313   0.193
 6016TIP3    H218055   6.035   1.312   0.174
 6017TIP3   OH218056   3.465   5.628   4.480
 6017TIP3    H118057   3.457   5.636   4.385
 6017TIP3    H218058   3.453   5.717   4.513
 6018TIP3   OH218059   2.478   1.232   1.677
 6018TIP3    H118060   2.559   1.261   1.719
 6018TIP3    H218061   2.428   1.188   1.746
 6019TIP3   OH218062   0.951   3.182   0.306
 6019TIP3    H118063   0.993   3.138   0.232
 6019TIP3    H218064   0.951   3.117   0.376
 6020TIP3   OH218065   4.010   5.448   0.314
 6020TIP3    H118066   4.023   5.527   0.366
 6020TIP3    H218067   4.047   5.378   0.367
 6021TIP3   OH218068   3.667   0.503   4.242
 6021TIP3    H118069   3.662   0.500   4.338
 6021TIP3    H218070   3.756   0.534   4.224
 6022TIP3   OH218071   1.432   0.454   1.107
 6022TIP3    H118072   1.505   0.436   1.048
 6022TIP3    H218073   1.360   0.400   1.073
 6023TIP3   OH218074   3.206   4.803   0.568
 6023TIP3    H118075   3.205   4.807   0.664
 6023TIP3    H218076   3.215   4.710   0.548
 6024TIP3   OH218077   3.015   3.052   1.814
 6024TIP3    H118078   3.008   3.103   1.894
 6024TIP3    H218079   3.061   2.972   1.839
 6025TIP3   OH218080   1.067   3.609   3.712
 6025TIP3    H118081   1.153   3.577   3.684
 6025TIP3    H218082   1.024   3.531   3.749
 6026TIP3   OH218083   4.295   4.852   1.403
 6026TIP3    H118084   4.300   4.927   1.344
 6026TIP3    H218085   4.249   4.885   1.480
 6027TIP3   OH218086   3.331   4.198   2.770
 6027TIP3    H118087   3.249   4.201   2.820
 6027TIP3    H218088   3.306   4.218   2.680
 6028TIP3   OH218089   0.873   4.715   2.179
 6028TIP3    H118090   0.809   4.781   2.203
 6028TIP3    H218091   0.852   4.691   2.089
 6029TIP3   OH218092   6.074   1.272   4.704
 6029TIP3    H118093   5.999   1.333   4.698
 6029TIP3    H218094   6.123   1.303   4.780
 6030TIP3   OH218095   0.399   2.205   4.573
 6030TIP3    H118096   0.413   2.269   4.643
 6030TIP3    H218097   0.470   2.142   4.584
 6031TIP3   OH218098   4.108   3.822   5.134
 6031TIP3    H118099   4.133   3.839   5.043
 6031TIP3    H218100   4.190   3.825   5.183
 6032TIP3   OH218101   3.101   1.612   1.826
 6032TIP3    H118102   3.195   1.597   1.826
 6032TIP3    H218103   3.086   1.665   1.748
 6033TIP3   OH218104   1.108   1.312   5.149
 6033TIP3    H118105   1.135   1.353   5.067
 6033TIP3    H218106   1.076   1.226   5.123
 6034TIP3   OH218107   2.377   3.979   3.823
 6034TIP3    H118108   2.285   3.997   3.802
 6034TIP3    H218109   2.391   3.888   3.797
 6035TIP3   OH218110   4.895   3.006   4.827
 6035TIP3    H118111   4.843   2.926   4.833
 6035TIP3    H218112   4.896   3.041   4.916
 6036TIP3   OH218113   3.348   2.239   2.620
 6036TIP3    H118114   3.419   2.297   2.592
 6036TIP3    H218115   3.286   2.241   2.547
 6037TIP3   OH218116   4.683   0.662   3.563
 6037TIP3    H118117   4.605   0.625   3.604
 6037TIP3    H218118   4.723   0.716   3.631
 6038TIP3   OH218119   0.043   1.515   1.514
 6038TIP3    H118120   0.065   1.423   1.508
 6038TIP3    H218121   0.090   1.556   1.442
 6039TIP3   OH218122   4.751   0.555   3.846
 6039TIP3    H118123   4.705   0.564   3.930
 6039TIP3    H218124   4.778   0.463   3.844
 6040TIP3   OH218125   4.949   0.438   1.776
 6040TIP3    H118126   4.920   0.516   1.822
 6040TIP3    H218127   4.876   0.415   1.719
 6041TIP3   OH218128   2.552   0.837   4.225
 6041TIP3    H118129   2.634   0.885   4.232
 6041TIP3    H218130   2.488   0.902   4.197
 6042TIP3   OH218131   5.493   1.810   4.911
 6042TIP3    H118132   5.582   1.823   4.878
 6042TIP3    H218133   5.452   1.751   4.847
 6043TIP3   OH218134   5.347   2.710   2.280
 6043TIP3    H118135   5.305   2.734   2.363
 6043TIP3    H218136   5.315   2.775   2.218
 6044TIP3   OH218137   1.074   2.608   0.966
 6044TIP3    H118138   1.009   2.600   0.897
 6044TIP3    H218139   1.156   2.576   0.928
 6045TIP3   OH218140   2.120   2.579   0.365
 6045TIP3    H118141   2.196   2.601   0.311
 6045TIP3    H218142   2.051   2.639   0.335
 6046TIP3   OH218143   3.197   5.453   3.580
 6046TIP3    H118144   3.200   5.422   3.671
 6046TIP3    H218145   3.287   5.480   3.561
 6047TIP3   OH218146   3.506   2.902   4.574
 6047TIP3    H118147   3.563   2.831   4.547
 6047TIP3    H218148   3.473   2.939   4.493
 6048TIP3   OH218149   2.066   4.026   0.272
 6048TIP3    H118150   2.086   3.943   0.315
 6048TIP3    H218151   2.131   4.087   0.306
 6049TIP3   OH218152   0.551   3.343   2.291
 6049TIP3    H118153   0.634   3.299   2.308
 6049TIP3    H218154   0.515   3.297   2.215
 6050TIP3   OH218155   1.943   1.474   2.045
 6050TIP3    H118156   2.024   1.486   2.095
 6050TIP3    H218157   1.972   1.462   1.955
 6051TIP3   OH218158   4.078   1.766   3.883
 6051TIP3    H118159   4.143   1.827   3.918
 6051TIP3    H218160   4.128   1.707   3.827
 6052TIP3   OH218161   1.882   3.779   1.259
 6052TIP3    H118162   1.890   3.702   1.315
 6052TIP3    H218163   1.894   3.853   1.318
 6053TIP3   OH218164   3.782   0.723   0.756
 6053TIP3    H118165   3.863   0.755   0.716
 6053TIP3    H218166   3.811   0.661   0.823
 6054TIP3   OH218167   1.066   5.721   2.372
 6054TIP3    H118168   1.043   5.629   2.382
 6054TIP3    H218169   1.002   5.756   2.310
 6055TIP3   OH218170   0.655   4.280   0.400
 6055TIP3    H118171   0.691   4.288   0.312
 6055TIP3    H218172   0.650   4.186   0.416
 6056TIP3   OH218173   5.766   4.021   2.535
 6056TIP3    H118174   5.860   4.027   2.518
 6056TIP3    H218175   5.754   3.931   2.567
 6057TIP3   OH218176   5.803   4.769   0.462
 6057TIP3    H118177   5.708   4.778   0.459
 6057TIP3    H218178   5.832   4.786   0.372
 6058TIP3   OH218179   3.538   4.925   4.857
 6058TIP3    H118180   3.574   5.001   4.901
 6058TIP3    H218181   3.607   4.896   4.798
 6059TIP3   OH218182   2.231   4.159   4.774
 6059TIP3    H118183   2.212   4.067   4.753
 6059TIP3    H218184   2.305   4.181   4.718
 6060TIP3   OH218185   1.957   2.344   4.145
 6060TIP3    H118186   2.014   2.401   4.094
 6060TIP3    H218187   1.895   2.404   4.187
 6061TIP3   OH218188   2.274   4.581   1.903
 6061TIP3    H118189   2.242   4.548   1.819
 6061TIP3    H218190   2.198   4.578   1.961
 6062TIP3   OH218191   2.123   4.297   1.531
 6062TIP3    H118192   2.030   4.315   1.517
 6062TIP3    H218193   2.159   4.288   1.443
 6063TIP3   OH218194   3.762   3.209   2.030
 6063TIP3    H118195   3.784   3.145   2.098
 6063TIP3    H218196   3.820   3.283   2.045
 6064TIP3   OH218197   3.899   2.043   3.455
 6064TIP3    H118198   3.954   1.980   3.502
 6064TIP3    H218199   3.897   2.011   3.365
 6065TIP3   OH218200   1.183   2.047   1.613
 6065TIP3    H118201   1.092   2.070   1.594
 6065TIP3    H218202   1.228   2.051   1.529
 6066TIP3   OH218203   1.044   2.561   3.579
 6066TIP3    H118204   1.080   2.474   3.561
 6066TIP3    H218205   1.026   2.560   3.673
 6067TIP3   OH218206   1.036   5.466   1.495
 6067TIP3    H118207   0.951   5.504   1.517
 6067TIP3    H218208   1.080   5.454   1.579
 6068TIP3   OH218209   4.493   4.828   4.204
 6068TIP3    H118210   4.446   4.751   4.172
 6068TIP3    H218211   4.445   4.854   4.282
 6069TIP3   OH218212   2.946   2.352   3.848
 6069TIP3    H118213   2.978   2.311   3.927
 6069TIP3    H218214   3.019   2.346   3.786
 6070TIP3   OH218215   0.729   3.073   4.398
 6070TIP3    H118216   0.775   3.071   4.481
 6070TIP3    H218217   0.639   3.046   4.419
 6071TIP3   OH218218   1.993   2.651   4.253
 6071TIP3    H118219   1.909   2.651   4.298
 6071TIP3    H218220   1.982   2.714   4.181
 6072TIP3   OH218221   1.289   2.458   4.600
 6072TIP3    H118222   1.263   2.448   4.692
 6072TIP3    H218223   1.216   2.503   4.559
 6073TIP3   OH218224   1.301   5.345   3.247
 6073TIP3    H118225   1.350   5.268   3.275
 6073TIP3    H218226   1.218   5.339   3.294
 6074TIP3   OH218227   0.321   2.060   5.088
 6074TIP3    H118228   0.276   2.144   5.090
 6074TIP3    H218229   0.412   2.081   5.107
 6075TIP3   OH218230   1.345   4.450   4.217
 6075TIP3    H118231   1.340   4.507   4.294
 6075TIP3    H218232   1.263   4.465   4.171
 6076TIP3   OH218233   0.030   0.811   1.307
 6076TIP3    H118234  -0.039   0.787   1.369
 6076TIP3    H218235   0.108   0.765   1.340
 6077TIP3   OH218236   1.032   2.703   5.027
 6077TIP3    H118237   1.111   2.673   5.071
 6077TIP3    H218238   1.008   2.784   5.072
 6078TIP3   OH218239   0.890   5.460   0.219
 6078TIP3    H118240   0.873   5.464   0.124
 6078TIP3    H218241   0.861   5.373   0.245
 6079TIP3   OH218242   2.581   0.856   1.749
 6079TIP3    H118243   2.619   0.943   1.759
 6079TIP3    H218244   2.540   0.859   1.662
 6080TIP3   OH218245   3.509   4.957   2.845
 6080TIP3    H118246   3.450   4.907   2.902
 6080TIP3    H218247   3.526   5.037   2.894
 6081TIP3   OH218248   2.066   2.396   1.007
 6081TIP3    H118249   2.047   2.487   0.981
 6081TIP3    H218250   2.020   2.343   0.942
 6082TIP3   OH218251   1.202   0.678   3.562
 6082TIP3    H118252   1.292   0.683   3.532
 6082TIP3    H218253   1.208   0.679   3.658
 6083TIP3   OH218254   0.846   0.505   3.805
 6083TIP3    H118255   0.927   0.555   3.817
 6083TIP3    H218256   0.875   0.419   3.775
 6084TIP3   OH218257   3.554   2.692   0.491
 6084TIP3    H118258   3.638   2.649   0.502
 6084TIP3    H218259   3.564   2.746   0.412
 6085TIP3   OH218260   2.233   5.314   2.160
 6085TIP3    H118261   2.211   5.237   2.108
 6085TIP3    H218262   2.205   5.292   2.249
 6086TIP3   OH218263   2.102   3.213   4.677
 6086TIP3    H118264   2.181   3.259   4.705
 6086TIP3    H218265   2.061   3.184   4.759
 6087TIP3   OH218266   2.971   4.723   1.969
 6087TIP3    H118267   2.876   4.714   1.968
 6087TIP3    H218268   2.999   4.671   2.044
 6088TIP3   OH218269   2.595   1.186   1.269
 6088TIP3    H118270   2.635   1.270   1.248
 6088TIP3    H218271   2.667   1.123   1.265
 6089TIP3   OH218272   3.149   2.152   2.057
 6089TIP3    H118273   3.139   2.090   1.985
 6089TIP3    H218274   3.060   2.185   2.073
 6090TIP3   OH218275   0.312   1.889   4.433
 6090TIP3    H118276   0.325   1.866   4.525
 6090TIP3    H218277   0.255   1.820   4.399
 6091TIP3   OH218278   1.224   2.063   1.890
 6091TIP3    H118279   1.158   2.131   1.903
 6091TIP3    H218280   1.221   2.043   1.797
 6092TIP3   OH218281   0.664   0.799   2.763
 6092TIP3    H118282   0.731   0.750   2.811
 6092TIP3    H218283   0.713   0.839   2.690
 6093TIP3   OH218284   3.542   0.499   1.959
 6093TIP3    H118285   3.534   0.512   2.053
 6093TIP3    H218286   3.483   0.425   1.940
 6094TIP3   OH218287   3.026   1.817   1.311
 6094TIP3    H118288   3.036   1.912   1.304
 6094TIP3    H218289   2.975   1.792   1.234
 6095TIP3   OH218290   1.708   0.233   2.710
 6095TIP3    H118291   1.620   0.271   2.701
 6095TIP3    H218292   1.762   0.305   2.742
 6096TIP3   OH218293   5.076   3.030   1.629
 6096TIP3    H118294   5.033   2.954   1.670
 6096TIP3    H218295   5.155   2.994   1.590
 6097TIP3   OH218296   4.994   0.044   4.969
 6097TIP3    H118297   5.016   0.134   4.992
 6097TIP3    H218298   4.969   0.049   4.876
 6098TIP3   OH218299   5.055   4.940   1.927
 6098TIP3    H118300   5.047   5.034   1.941
 6098TIP3    H218301   5.109   4.932   1.848
 6099TIP3   OH218302   2.993   5.103   3.676
 6099TIP3    H118303   2.986   5.165   3.604
 6099TIP3    H218304   2.995   5.157   3.755
 6100TIP3   OH218305   2.972   1.318   3.351
 6100TIP3    H118306   2.939   1.258   3.285
 6100TIP3    H218307   2.953   1.275   3.434
 6101TIP3   OH218308   2.223   0.202   2.842
 6101TIP3    H118309   2.232   0.150   2.763
 6101TIP3    H218310   2.190   0.141   2.908
 6102TIP3   OH218311   3.360   3.608   1.720
 6102TIP3    H118312   3.353   3.654   1.636
 6102TIP3    H218313   3.374   3.517   1.696
 6103TIP3   OH218314   0.594   5.639   4.492
 6103TIP3    H118315   0.621   5.699   4.423
 6103TIP3    H218316   0.585   5.695   4.570
 6104TIP3   OH218317   4.670   5.588   5.002
 6104TIP3    H118318   4.698   5.627   5.085
 6104TIP3    H218319   4.660   5.495   5.021
 6105TIP3   OH218320   5.596   0.187   3.423
 6105TIP3    H118321   5.601   0.116   3.486
 6105TIP3    H218322   5.553   0.149   3.346
 6106TIP3   OH218323   2.759   3.933   4.825
 6106TIP3    H118324   2.759   3.934   4.729
 6106TIP3    H218325   2.843   3.895   4.849
 6107TIP3   OH218326   4.604   2.483   2.253
 6107TIP3    H118327   4.540   2.418   2.280
 6107TIP3    H218328   4.643   2.447   2.174
 6108TIP3   OH218329   2.990   5.207   0.798
 6108TIP3    H118330   2.897   5.227   0.790
 6108TIP3    H218331   3.028   5.235   0.715
 6109TIP3   OH218332   3.083   2.327   5.011
 6109TIP3    H118333   3.067   2.234   4.997
 6109TIP3    H218334   3.004   2.370   4.979
 6110TIP3   OH218335   2.286   1.826   3.250
 6110TIP3    H118336   2.335   1.860   3.325
 6110TIP3    H218337   2.197   1.813   3.284
 6111TIP3   OH218338   4.592   5.750   3.284
 6111TIP3    H118339   4.651   5.680   3.310
 6111TIP3    H218340   4.585   5.806   3.362
 6112TIP3   OH218341   3.581   4.026   4.124
 6112TIP3    H118342   3.571   4.116   4.092
 6112TIP3    H218343   3.675   4.017   4.140
 6113TIP3   OH218344   3.527   5.847   3.113
 6113TIP3    H118345   3.500   5.838   3.022
 6113TIP3    H218346   3.449   5.826   3.164
 6114TIP3   OH218347   4.372   0.893   3.639
 6114TIP3    H118348   4.424   0.946   3.579
 6114TIP3    H218349   4.413   0.807   3.638
 6115TIP3   OH218350   1.004   0.628   3.386
 6115TIP3    H118351   0.988   0.721   3.369
 6115TIP3    H218352   1.065   0.627   3.459
 6116TIP3   OH218353   0.129   4.916   2.053
 6116TIP3    H118354   0.154   4.941   1.964
 6116TIP3    H218355   0.097   4.826   2.046
 6117TIP3   OH218356   6.206   1.991   2.427
 6117TIP3    H118357   6.152   1.961   2.354
 6117TIP3    H218358   6.249   2.070   2.394
 6118TIP3   OH218359   0.198   0.215   4.560
 6118TIP3    H118360   0.176   0.274   4.632
 6118TIP3    H218361   0.120   0.214   4.504
 6119TIP3   OH218362   3.826   2.464   2.907
 6119TIP3    H118363   3.918   2.481   2.923
 6119TIP3    H218364   3.820   2.454   2.812
 6120TIP3   OH218365   2.750   5.412   2.329
 6120TIP3    H118366   2.761   5.363   2.247
 6120TIP3    H218367   2.815   5.482   2.324
 6121TIP3   OH218368   6.319   2.442   2.086
 6121TIP3    H118369   6.371   2.367   2.115
 6121TIP3    H218370   6.229   2.409   2.080
 6122TIP3   OH218371   5.752   3.760   3.439
 6122TIP3    H118372   5.692   3.775   3.366
 6122TIP3    H218373   5.767   3.847   3.476
 6123TIP3   OH218374   0.486   1.406   3.102
 6123TIP3    H118375   0.548   1.473   3.132
 6123TIP3    H218376   0.488   1.339   3.170
 6124TIP3   OH218377   4.922   3.138   5.133
 6124TIP3    H118378   4.879   3.223   5.125
 6124TIP3    H218379   5.010   3.158   5.165
 6125TIP3   OH218380   5.732   5.075   0.427
 6125TIP3    H118381   5.704   5.037   0.344
 6125TIP3    H218382   5.807   5.023   0.454
 6126TIP3   OH218383   2.227   3.181   0.160
 6126TIP3    H118384   2.140   3.161   0.195
 6126TIP3    H218385   2.260   3.097   0.128
 6127TIP3   OH218386   3.903   1.518   3.883
 6127TIP3    H118387   3.826   1.493   3.935
 6127TIP3    H218388   3.938   1.596   3.926
 6128TIP3   OH218389   2.176   4.660   3.176
 6128TIP3    H118390   2.088   4.629   3.194
 6128TIP3    H218391   2.164   4.750   3.145
 6129TIP3   OH218392   0.796   2.406   3.472
 6129TIP3    H118393   0.713   2.437   3.437
 6129TIP3    H218394   0.805   2.450   3.556
 6130TIP3   OH218395   0.470   3.099   3.329
 6130TIP3    H118396   0.415   3.035   3.374
 6130TIP3    H218397   0.416   3.178   3.326
 6131TIP3   OH218398   5.673   2.769   3.378
 6131TIP3    H118399   5.719   2.784   3.295
 6131TIP3    H218400   5.730   2.807   3.444
 6132TIP3   OH218401   5.294   0.787   1.907
 6132TIP3    H118402   5.241   0.840   1.848
 6132TIP3    H218403   5.264   0.697   1.892
 6133TIP3   OH218404   4.341   5.005   0.158
 6133TIP3    H118405   4.422   4.956   0.168
 6133TIP3    H218406   4.346   5.044   0.070
 6134TIP3   OH218407   5.455   1.627   4.696
 6134TIP3    H118408   5.505   1.553   4.731
 6134TIP3    H218409   5.469   1.622   4.601
 6135TIP3   OH218410   1.411   3.629   1.885
 6135TIP3    H118411   1.339   3.568   1.868
 6135TIP3    H218412   1.463   3.628   1.804
 6136TIP3   OH218413   3.599   4.938   3.217
 6136TIP3    H118414   3.666   4.880   3.180
 6136TIP3    H218415   3.629   4.954   3.306
 6137TIP3   OH218416   0.787   5.309   4.820
 6137TIP3    H118417   0.759   5.328   4.731
 6137TIP3    H218418   0.842   5.383   4.845
 6138TIP3   OH218419   3.737   4.814   4.363
 6138TIP3    H118420   3.695   4.886   4.317
 6138TIP3    H218421   3.829   4.840   4.368
 6139TIP3   OH218422   1.249   2.915   1.335
 6139TIP3    H118423   1.294   2.915   1.419
 6139TIP3    H218424   1.253   2.824   1.305
 6140TIP3   OH218425   3.406   0.674   4.193
 6140TIP3    H118426   3.476   0.648   4.132
 6140TIP3    H218427   3.326   0.670   4.141
 6141TIP3   OH218428   5.684   0.998   0.936
 6141TIP3    H118429   5.609   0.948   0.902
 6141TIP3    H218430   5.667   1.088   0.910
 6142TIP3   OH218431   6.070   4.026   3.717
 6142TIP3    H118432   6.156   4.062   3.695
 6142TIP3    H218433   6.067   3.942   3.670
 6143TIP3   OH218434   2.015   4.639   4.027
 6143TIP3    H118435   1.950   4.701   4.060
 6143TIP3    H218436   2.007   4.645   3.931
 6144TIP3   OH218437   4.276   1.158   3.211
 6144TIP3    H118438   4.269   1.163   3.307
 6144TIP3    H218439   4.336   1.229   3.187
 6145TIP3   OH218440   4.483   2.477   1.577
 6145TIP3    H118441   4.431   2.543   1.533
 6145TIP3    H218442   4.443   2.394   1.552
 6146TIP3   OH218443   0.270   0.722   0.644
 6146TIP3    H118444   0.283   0.636   0.605
 6146TIP3    H218445   0.329   0.780   0.595
 6147TIP3   OH218446   5.997   2.477   5.151
 6147TIP3    H118447   6.004   2.548   5.087
 6147TIP3    H218448   6.036   2.401   5.107
 6148TIP3   OH218449   5.559   2.336   1.450
 6148TIP3    H118450   5.526   2.361   1.364
 6148TIP3    H218451   5.564   2.240   1.447
 6149TIP3   OH218452   2.887   3.992   1.001
 6149TIP3    H118453   2.973   3.997   1.042
 6149TIP3    H218454   2.881   3.901   0.970
 6150TIP3   OH218455   0.797   4.281   2.181
 6150TIP3    H118456   0.782   4.369   2.217
 6150TIP3    H218457   0.770   4.287   2.089
 6151TIP3   OH218458   0.981   3.156   2.349
 6151TIP3    H118459   0.968   3.251   2.339
 6151TIP3    H218460   0.893   3.121   2.362
 6152TIP3   OH218461   1.222   0.932   4.388
 6152TIP3    H118462   1.169   1.008   4.363
 6152TIP3    H218463   1.161   0.871   4.427
 6153TIP3   OH218464   5.695   5.476   1.707
 6153TIP3    H118465   5.730   5.422   1.636
 6153TIP3    H218466   5.667   5.414   1.773
 6154TIP3   OH218467   1.296   3.392   2.263
 6154TIP3    H118468   1.325   3.409   2.353
 6154TIP3    H218469   1.372   3.414   2.209
 6155TIP3   OH218470   3.951   3.765   1.204
 6155TIP3    H118471   4.005   3.829   1.157
 6155TIP3    H218472   3.958   3.685   1.152
 6156TIP3   OH218473   6.239   4.240   4.331
 6156TIP3    H118474   6.321   4.222   4.377
 6156TIP3    H218475   6.230   4.335   4.334
 6157TIP3   OH218476   5.733   1.872   4.798
 6157TIP3    H118477   5.748   1.777   4.801
 6157TIP3    H218478   5.821   1.910   4.787
 6158TIP3   OH218479   5.685   5.647   1.143
 6158TIP3    H118480   5.702   5.615   1.054
 6158TIP3    H218481   5.640   5.730   1.131
 6159TIP3   OH218482   4.710   1.210   4.220
 6159TIP3    H118483   4.772   1.226   4.148
 6159TIP3    H218484   4.724   1.284   4.280
 6160TIP3   OH218485   1.519   5.572   1.956
 6160TIP3    H118486   1.529   5.613   1.870
 6160TIP3    H218487   1.594   5.513   1.964
 6161TIP3   OH218488   0.470   2.016   0.838
 6161TIP3    H118489   0.535   2.074   0.797
 6161TIP3    H218490   0.516   1.934   0.852
 6162TIP3   OH218491   1.534   4.550   4.823
 6162TIP3    H118492   1.628   4.549   4.808
 6162TIP3    H218493   1.499   4.486   4.761
 6163TIP3   OH218494   6.253   1.874   0.977
 6163TIP3    H118495   6.341   1.908   0.956
 6163TIP3    H218496   6.194   1.943   0.950
 6164TIP3   OH218497   2.858   5.831   2.875
 6164TIP3    H118498   2.870   5.898   2.942
 6164TIP3    H218499   2.764   5.834   2.856
 6165TIP3   OH218500   2.395   2.325   4.792
 6165TIP3    H118501   2.414   2.338   4.699
 6165TIP3    H218502   2.409   2.231   4.806
 6166TIP3   OH218503   3.698   4.468   0.590
 6166TIP3    H118504   3.708   4.492   0.682
 6166TIP3    H218505   3.747   4.535   0.542
 6167TIP3   OH218506   2.477   5.064   0.824
 6167TIP3    H118507   2.516   4.988   0.866
 6167TIP3    H218508   2.409   5.029   0.766
 6168TIP3   OH218509   0.447   0.602   4.025
 6168TIP3    H118510   0.514   0.566   4.082
 6168TIP3    H218511   0.493   0.623   3.944
 6169TIP3   OH218512   2.487   3.826   4.861
 6169TIP3    H118513   2.436   3.877   4.923
 6169TIP3    H218514   2.573   3.867   4.860
 6170TIP3   OH218515   3.548   5.174   3.072
 6170TIP3    H118516   3.566   5.112   3.143
 6170TIP3    H218517   3.628   5.225   3.063
 6171TIP3   OH218518   1.808   0.819   3.664
 6171TIP3    H118519   1.876   0.880   3.638
 6171TIP3    H218520   1.853   0.755   3.720
 6172TIP3   OH218521   3.484   5.895   4.546
 6172TIP3    H118522   3.576   5.897   4.519
 6172TIP3    H218523   3.443   5.967   4.499
 6173TIP3   OH218524   0.762   0.253   1.884
 6173TIP3    H118525   0.733   0.201   1.959
 6173TIP3    H218526   0.688   0.311   1.865
 6174TIP3   OH218527   3.244   2.820   0.341
 6174TIP3    H118528   3.299   2.895   0.364
 6174TIP3    H218529   3.245   2.765   0.419
 6175TIP3   OH218530   5.350   1.433   2.218
 6175TIP3    H118531   5.416   1.414   2.153
 6175TIP3    H218532   5.359   1.527   2.236
 6176TIP3   OH218533   1.718   5.109   5.159
 6176TIP3    H118534   1.785   5.049   5.190
 6176TIP3    H218535   1.754   5.148   5.080
 6177TIP3   OH218536   5.033   1.687   1.965
 6177TIP3    H118537   4.980   1.608   1.965
 6177TIP3    H218538   5.035   1.715   2.056
 6178TIP3   OH218539   3.980   5.879   1.338
 6178TIP3    H118540   4.019   5.821   1.404
 6178TIP3    H218541   3.968   5.962   1.384
 6179TIP3   OH218542   3.814   3.820   3.025
 6179TIP3    H118543   3.902   3.856   3.015
 6179TIP3    H218544   3.825   3.726   3.022
 6180TIP3   OH218545   0.762   2.293   4.195
 6180TIP3    H118546   0.674   2.322   4.218
 6180TIP3    H218547   0.817   2.319   4.269
 6181TIP3   OH218548   5.660   2.850   1.172
 6181TIP3    H118549   5.575   2.854   1.130
 6181TIP3    H218550   5.664   2.930   1.226
 6182TIP3   OH218551   0.914   1.091   0.498
 6182TIP3    H118552   0.863   1.087   0.416
 6182TIP3    H218553   0.984   1.153   0.479
 6183TIP3   OH218554   2.993   1.306   1.763
 6183TIP3    H118555   3.004   1.377   1.826
 6183TIP3    H218556   2.992   1.349   1.678
 6184TIP3   OH218557   5.400   3.088   4.040
 6184TIP3    H118558   5.458   3.150   4.085
 6184TIP3    H218559   5.324   3.140   4.015
 6185TIP3   OH218560   5.993   5.678   4.857
 6185TIP3    H118561   5.912   5.678   4.908
 6185TIP3    H218562   6.054   5.731   4.908
 6186TIP3   OH218563   5.656   3.936   4.984
 6186TIP3    H118564   5.733   3.987   5.009
 6186TIP3    H218565   5.634   3.886   5.062
 6187TIP3   OH218566   2.777   2.710   2.391
 6187TIP3    H118567   2.780   2.805   2.404
 6187TIP3    H218568   2.866   2.680   2.408
 6188TIP3   OH218569   4.976   2.445   3.152
 6188TIP3    H118570   4.925   2.370   3.125
 6188TIP3    H218571   4.933   2.476   3.232
 6189TIP3   OH218572   1.368   3.176   1.891
 6189TIP3    H118573   1.361   3.098   1.945
 6189TIP3    H218574   1.345   3.147   1.803
 6190TIP3   OH218575   5.008   0.026   0.948
 6190TIP3    H118576   5.044  -0.043   1.003
 6190TIP3    H218577   5.073   0.038   0.879
 6191TIP3   OH218578   0.619   0.687   4.662
 6191TIP3    H118579   0.623   0.681   4.567
 6191TIP3    H218580   0.564   0.764   4.679
 6192TIP3   OH218581   5.141   1.294   0.366
 6192TIP3    H118582   5.139   1.248   0.282
 6192TIP3    H218583   5.220   1.263   0.409
 6193TIP3   OH218584   2.012   4.101   2.745
 6193TIP3    H118585   1.939   4.089   2.807
 6193TIP3    H218586   2.026   4.195   2.743
 6194TIP3   OH218587   1.240   4.707   1.948
 6194TIP3    H118588   1.193   4.764   1.887
 6194TIP3    H218589   1.324   4.691   1.907
 6195TIP3   OH218590   2.169   3.520   0.274
 6195TIP3    H118591   2.088   3.475   0.294
 6195TIP3    H218592   2.214   3.463   0.212
 6196TIP3   OH218593   1.380   2.900   1.571
 6196TIP3    H118594   1.474   2.906   1.589
 6196TIP3    H218595   1.343   2.981   1.605
 6197TIP3   OH218596   2.576   1.635   0.056
 6197TIP3    H118597   2.613   1.708   0.005
 6197TIP3    H218598   2.528   1.678   0.127
 6198TIP3   OH218599   3.419   4.742   3.037
 6198TIP3    H118600   3.386   4.769   3.123
 6198TIP3    H218601   3.512   4.723   3.052
 6199TIP3   OH218602   3.337   4.733   4.895
 6199TIP3    H118603   3.372   4.663   4.840
 6199TIP3    H218604   3.386   4.811   4.870
 6200TIP3   OH218605   6.220   5.078   1.910
 6200TIP3    H118606   6.125   5.091   1.914
 6200TIP3    H218607   6.244   5.043   1.996
 6201TIP3   OH218608   3.975   1.354   4.980
 6201TIP3    H118609   4.008   1.369   4.892
 6201TIP3    H218610   4.037   1.400   5.037
 6202TIP3   OH218611   4.897   1.114   2.442
 6202TIP3    H118612   4.877   1.027   2.476
 6202TIP3    H218613   4.992   1.122   2.452
 6203TIP3   OH218614   4.238   2.602   4.344
 6203TIP3    H118615   4.151   2.564   4.329
 6203TIP3    H218616   4.291   2.571   4.271
 6204TIP3   OH218617   4.573   0.157   2.547
 6204TIP3    H118618   4.540   0.224   2.486
 6204TIP3    H218619   4.570   0.076   2.496
 6205TIP3   OH218620   0.533   3.968   2.988
 6205TIP3    H118621   0.539   3.893   3.047
 6205TIP3    H218622   0.618   3.972   2.944
 6206TIP3   OH218623   4.451   4.041   2.077
 6206TIP3    H118624   4.523   4.042   2.014
 6206TIP3    H218625   4.440   4.132   2.103
 6207TIP3   OH218626   3.767   5.302   1.951
 6207TIP3    H118627   3.772   5.366   1.881
 6207TIP3    H218628   3.782   5.218   1.908
 6208TIP3   OH218629   4.448   0.101   1.533
 6208TIP3    H118630   4.356   0.087   1.556
 6208TIP3    H218631   4.448   0.176   1.475
 6209TIP3   OH218632   2.038   5.302   2.417
 6209TIP3    H118633   2.109   5.348   2.461
 6209TIP3    H218634   2.026   5.222   2.468
 6210TIP3   OH218635   4.070   4.815   1.212
 6210TIP3    H118636   4.141   4.755   1.193
 6210TIP3    H218637   4.065   4.817   1.308
 6211TIP3   OH218638   4.617   0.916   0.615
 6211TIP3    H118639   4.629   1.008   0.639
 6211TIP3    H218640   4.534   0.915   0.567
 6212TIP3   OH218641   3.420   4.449   0.636
 6212TIP3    H118642   3.442   4.479   0.724
 6212TIP3    H218643   3.503   4.448   0.589
 6213TIP3   OH218644   1.408   4.101   4.976
 6213TIP3    H118645   1.451   4.180   5.008
 6213TIP3    H218646   1.471   4.062   4.915
 6214TIP3   OH218647   4.442   0.363   4.673
 6214TIP3    H118648   4.347   0.367   4.673
 6214TIP3    H218649   4.466   0.370   4.581
 6215TIP3   OH218650   6.247   4.053   2.354
 6215TIP3    H118651   6.336   4.068   2.384
 6215TIP3    H218652   6.256   4.033   2.261
 6216TIP3   OH218653   2.693   0.234   3.531
 6216TIP3    H118654   2.647   0.302   3.580
 6216TIP3    H218655   2.775   0.222   3.578
 6217TIP3   OH218656   0.306   3.228   0.362
 6217TIP3    H118657   0.297   3.139   0.327
 6217TIP3    H218658   0.294   3.218   0.456
 6218TIP3   OH218659   4.573   3.886   3.400
 6218TIP3    H118660   4.574   3.881   3.496
 6218TIP3    H218661   4.648   3.941   3.378
 6219TIP3   OH218662   0.833   1.382   0.978
 6219TIP3    H118663   0.892   1.334   0.920
 6219TIP3    H218664   0.852   1.474   0.961
 6220TIP3   OH218665   0.251   5.762   2.333
 6220TIP3    H118666   0.215   5.732   2.250
 6220TIP3    H218667   0.176   5.764   2.393
 6221TIP3   OH218668   1.486   3.824   2.379
 6221TIP3    H118669   1.434   3.792   2.305
 6221TIP3    H218670   1.576   3.803   2.356
 6222TIP3   OH218671   4.089   5.654   0.876
 6222TIP3    H118672   4.048   5.678   0.959
 6222TIP3    H218673   4.019   5.614   0.825
 6223TIP3   OH218674   6.105   4.983   3.106
 6223TIP3    H118675   6.170   4.982   3.036
 6223TIP3    H218676   6.146   4.935   3.178
 6224TIP3   OH218677   0.856   3.004   3.994
 6224TIP3    H118678   0.940   3.021   4.037
 6224TIP3    H218679   0.791   3.011   4.064
 6225TIP3   OH218680   0.267   2.620   0.211
 6225TIP3    H118681   0.311   2.676   0.147
 6225TIP3    H218682   0.331   2.552   0.232
 6226TIP3   OH218683   2.538   3.451   1.845
 6226TIP3    H118684   2.548   3.356   1.850
 6226TIP3    H218685   2.457   3.464   1.797
 6227TIP3   OH218686   1.693   5.140   4.456
 6227TIP3    H118687   1.631   5.151   4.528
 6227TIP3    H218688   1.715   5.047   4.457
 6228TIP3   OH218689   0.546   2.227   2.024
 6228TIP3    H118690   0.497   2.175   2.087
 6228TIP3    H218691   0.495   2.221   1.943
 6229TIP3   OH218692   5.115   1.120   4.374
 6229TIP3    H118693   5.082   1.118   4.464
 6229TIP3    H218694   5.090   1.036   4.337
 6230TIP3   OH218695   5.391   3.483   3.358
 6230TIP3    H118696   5.369   3.475   3.266
 6230TIP3    H218697   5.437   3.567   3.365
 6231TIP3   OH218698   5.231   2.059   1.838
 6231TIP3    H118699   5.135   2.059   1.841
 6231TIP3    H218700   5.256   1.981   1.888
 6232TIP3   OH218701   0.771   5.125   4.163
 6232TIP3    H118702   0.858   5.088   4.179
 6232TIP3    H218703   0.753   5.104   4.071
 6233TIP3   OH218704   0.564   4.889   1.998
 6233TIP3    H118705   0.660   4.880   2.001
 6233TIP3    H218706   0.536   4.829   1.929
 6234TIP3   OH218707   3.420   3.293   3.552
 6234TIP3    H118708   3.421   3.373   3.500
 6234TIP3    H218709   3.366   3.232   3.502
 6235TIP3   OH218710   3.329   4.080   5.019
 6235TIP3    H118711   3.300   4.150   4.961
 6235TIP3    H218712   3.393   4.122   5.077
 6236TIP3   OH218713   3.672   1.927   2.137
 6236TIP3    H118714   3.710   1.986   2.201
 6236TIP3    H218715   3.612   1.981   2.087
 6237TIP3   OH218716   1.358   1.009   4.897
 6237TIP3    H118717   1.333   0.948   4.967
 6237TIP3    H218718   1.418   1.071   4.940
 6238TIP3   OH218719   4.151   1.883   4.785
 6238TIP3    H118720   4.182   1.816   4.724
 6238TIP3    H218721   4.126   1.834   4.863
 6239TIP3   OH218722   1.671   1.505   1.270
 6239TIP3    H118723   1.601   1.569   1.263
 6239TIP3    H218724   1.626   1.423   1.291
 6240TIP3   OH218725   3.603   2.979   0.680
 6240TIP3    H118726   3.524   2.973   0.733
 6240TIP3    H218727   3.662   3.034   0.732
 6241TIP3   OH218728   2.775   3.830   0.163
 6241TIP3    H118729   2.709   3.823   0.233
 6241TIP3    H218730   2.802   3.921   0.164
 6242TIP3   OH218731   2.458   5.564   1.763
 6242TIP3    H118732   2.418   5.502   1.824
 6242TIP3    H218733   2.552   5.547   1.769
 6243TIP3   OH218734   3.837   3.215   1.758
 6243TIP3    H118735   3.761   3.158   1.747
 6243TIP3    H218736   3.845   3.226   1.853
 6244TIP3   OH218737   3.288   1.264   3.073
 6244TIP3    H118738   3.197   1.235   3.061
 6244TIP3    H218739   3.280   1.348   3.118
 6245TIP3   OH218740   3.517   4.358   2.052
 6245TIP3    H118741   3.523   4.274   2.007
 6245TIP3    H218742   3.497   4.336   2.142
 6246TIP3   OH218743   4.913   0.348   1.074
 6246TIP3    H118744   4.899   0.443   1.073
 6246TIP3    H218745   4.825   0.312   1.086
 6247TIP3   OH218746   0.988   2.105   1.012
 6247TIP3    H118747   0.937   2.180   0.984
 6247TIP3    H218748   0.927   2.032   1.010
 6248TIP3   OH218749   2.949   1.731   1.062
 6248TIP3    H118750   2.998   1.741   0.980
 6248TIP3    H218751   2.859   1.756   1.040
 6249TIP3   OH218752   5.932   4.469   4.332
 6249TIP3    H118753   6.011   4.480   4.386
 6249TIP3    H218754   5.863   4.514   4.381
 6250TIP3   OH218755   2.139   3.081   2.124
 6250TIP3    H118756   2.136   3.041   2.037
 6250TIP3    H218757   2.121   3.009   2.184
 6251TIP3   OH218758   1.572   5.574   5.047
 6251TIP3    H118759   1.571   5.560   4.952
 6251TIP3    H218760   1.528   5.496   5.082
 6252TIP3   OH218761   1.362   5.883   4.227
 6252TIP3    H118762   1.311   5.853   4.302
 6252TIP3    H218763   1.443   5.918   4.265
 6253TIP3   OH218764   1.978   0.531   4.436
 6253TIP3    H118765   2.002   0.621   4.412
 6253TIP3    H218766   2.026   0.476   4.374
 6254TIP3   OH218767   3.074   3.449   3.056
 6254TIP3    H118768   3.053   3.417   3.143
 6254TIP3    H218769   2.992   3.444   3.007
 6255TIP3   OH218770   2.079   0.165   2.322
 6255TIP3    H118771   2.015   0.236   2.318
 6255TIP3    H218772   2.147   0.197   2.381
 6256TIP3   OH218773   5.520   0.492   3.928
 6256TIP3    H118774   5.569   0.567   3.895
 6256TIP3    H218775   5.581   0.419   3.921
 6257TIP3   OH218776   4.538   1.271   2.877
 6257TIP3    H118777   4.499   1.186   2.857
 6257TIP3    H218778   4.545   1.314   2.792
 6258TIP3   OH218779   0.333   3.595   5.065
 6258TIP3    H118780   0.267   3.623   5.128
 6258TIP3    H218781   0.367   3.513   5.101
 6259TIP3   OH218782   3.466   2.496   4.429
 6259TIP3    H118783   3.494   2.430   4.493
 6259TIP3    H218784   3.392   2.539   4.470
 6260TIP3   OH218785   4.261   3.641   0.755
 6260TIP3    H118786   4.178   3.681   0.782
 6260TIP3    H218787   4.235   3.559   0.712
 6261TIP3   OH218788   4.334   1.257   2.260
 6261TIP3    H118789   4.429   1.267   2.253
 6261TIP3    H218790   4.310   1.208   2.181
 6262TIP3   OH218791   5.260   0.476   4.585
 6262TIP3    H118792   5.243   0.525   4.665
 6262TIP3    H218793   5.313   0.535   4.531
 6263TIP3   OH218794   5.709   5.032   4.486
 6263TIP3    H118795   5.684   5.063   4.573
 6263TIP3    H218796   5.743   5.109   4.442
 6264TIP3   OH218797   1.728   3.128   4.069
 6264TIP3    H118798   1.709   3.208   4.020
 6264TIP3    H218799   1.644   3.082   4.074
 6265TIP3   OH218800   0.903   3.685   2.705
 6265TIP3    H118801   0.949   3.744   2.645
 6265TIP3    H218802   0.838   3.741   2.747
 6266TIP3   OH218803   5.058   2.605   1.241
 6266TIP3    H118804   4.966   2.577   1.232
 6266TIP3    H218805   5.105   2.524   1.261
 6267TIP3   OH218806   2.648   4.766   1.638
 6267TIP3    H118807   2.689   4.686   1.605
 6267TIP3    H218808   2.555   4.753   1.625
 6268TIP3   OH218809   1.219   5.245   2.993
 6268TIP3    H118810   1.281   5.183   2.954
 6268TIP3    H218811   1.238   5.241   3.087
 6269TIP3   OH218812   3.168   2.332   4.581
 6269TIP3    H118813   3.091   2.377   4.545
 6269TIP3    H218814   3.175   2.364   4.671
 6270TIP3   OH218815   2.244   4.661   2.386
 6270TIP3    H118816   2.331   4.621   2.395
 6270TIP3    H218817   2.225   4.695   2.473
 6271TIP3   OH218818   5.618   0.374   1.130
 6271TIP3    H118819   5.598   0.466   1.146
 6271TIP3    H218820   5.713   0.372   1.121
 6272TIP3   OH218821   3.489   4.319   3.666
 6272TIP3    H118822   3.557   4.341   3.603
 6272TIP3    H218823   3.534   4.317   3.750
 6273TIP3   OH218824   5.152   2.427   1.872
 6273TIP3    H118825   5.245   2.404   1.882
 6273TIP3    H218826   5.134   2.409   1.779
 6274TIP3   OH218827   2.632   2.222   1.114
 6274TIP3    H118828   2.539   2.237   1.098
 6274TIP3    H218829   2.638   2.208   1.209
 6275TIP3   OH218830   0.007   3.672   2.790
 6275TIP3    H118831   0.029   3.721   2.711
 6275TIP3    H218832  -0.083   3.642   2.775
 6276TIP3   OH218833   0.072   3.399   4.165
 6276TIP3    H118834   0.060   3.473   4.105
 6276TIP3    H218835   0.103   3.328   4.110
 6277TIP3   OH218836   0.433   5.331   4.778
 6277TIP3    H118837   0.427   5.413   4.826
 6277TIP3    H218838   0.491   5.277   4.831
 6278TIP3   OH218839   3.023   2.755   2.514
 6278TIP3    H118840   3.012   2.826   2.451
 6278TIP3    H218841   3.092   2.700   2.477
 6279TIP3   OH218842   1.616   1.214   2.681
 6279TIP3    H118843   1.537   1.249   2.722
 6279TIP3    H218844   1.583   1.166   2.604
 6280TIP3   OH218845   3.609   4.179   4.399
 6280TIP3    H118846   3.612   4.131   4.316
 6280TIP3    H218847   3.624   4.113   4.466
 6281TIP3   OH218848   2.734   5.602   4.310
 6281TIP3    H118849   2.764   5.622   4.221
 6281TIP3    H218850   2.704   5.686   4.344
 6282TIP3   OH218851   4.866   0.375   1.468
 6282TIP3    H118852   4.822   0.314   1.528
 6282TIP3    H218853   4.957   0.346   1.467
 6283TIP3   OH218854   3.603   1.347   1.635
 6283TIP3    H118855   3.650   1.379   1.712
 6283TIP3    H218856   3.673   1.326   1.572
 6284TIP3   OH218857   3.479   1.527   0.354
 6284TIP3    H118858   3.530   1.448   0.367
 6284TIP3    H218859   3.421   1.532   0.430
 6285TIP3   OH218860   3.464   5.701   2.461
 6285TIP3    H118861   3.432   5.611   2.453
 6285TIP3    H218862   3.429   5.746   2.383
 6286TIP3   OH218863   3.824   3.706   2.294
 6286TIP3    H118864   3.877   3.783   2.274
 6286TIP3    H218865   3.767   3.697   2.218
 6287TIP3   OH218866   5.139   4.490   3.245
 6287TIP3    H118867   5.094   4.405   3.249
 6287TIP3    H218868   5.069   4.554   3.241
 6288TIP3   OH218869   2.067   2.650   0.616
 6288TIP3    H118870   2.088   2.643   0.523
 6288TIP3    H218871   2.134   2.709   0.651
 6289TIP3   OH218872   6.051   3.624   3.373
 6289TIP3    H118873   6.094   3.544   3.340
 6289TIP3    H218874   6.021   3.669   3.294
 6290TIP3   OH218875   2.358   1.875   2.020
 6290TIP3    H118876   2.434   1.909   2.068
 6290TIP3    H218877   2.390   1.865   1.930
 6291TIP3   OH218878   0.690   4.902   3.375
 6291TIP3    H118879   0.710   4.899   3.282
 6291TIP3    H218880   0.601   4.865   3.382
 6292TIP3   OH218881   3.573   1.932   2.526
 6292TIP3    H118882   3.595   2.019   2.558
 6292TIP3    H218883   3.508   1.948   2.457
 6293TIP3   OH218884   3.950   2.458   4.684
 6293TIP3    H118885   3.873   2.418   4.722
 6293TIP3    H218886   4.020   2.442   4.747
 6294TIP3   OH218887   3.883   5.924   0.579
 6294TIP3    H118888   3.860   5.936   0.487
 6294TIP3    H218889   3.823   5.857   0.611
 6295TIP3   OH218890   2.577   2.895   3.532
 6295TIP3    H118891   2.594   2.857   3.618
 6295TIP3    H218892   2.641   2.852   3.475
 6296TIP3   OH218893   5.023   0.106   0.429
 6296TIP3    H118894   5.092   0.155   0.473
 6296TIP3    H218895   4.945   0.161   0.438
 6297TIP3   OH218896   4.458   1.703   5.103
 6297TIP3    H118897   4.512   1.768   5.148
 6297TIP3    H218898   4.521   1.648   5.057
 6298TIP3   OH218899   1.546   3.978   3.943
 6298TIP3    H118900   1.491   4.044   3.986
 6298TIP3    H218901   1.485   3.924   3.894
 6299TIP3   OH218902   1.606   2.781   2.884
 6299TIP3    H118903   1.606   2.875   2.903
 6299TIP3    H218904   1.519   2.751   2.910
 6300TIP3   OH218905   3.458   3.931   0.018
 6300TIP3    H118906   3.378   3.962   0.062
 6300TIP3    H218907   3.521   4.002   0.030
 6301TIP3   OH218908   0.753   1.787   0.422
 6301TIP3    H118909   0.801   1.869   0.431
 6301TIP3    H218910   0.742   1.755   0.511
 6302TIP3   OH218911   1.309   1.809   5.016
 6302TIP3    H118912   1.309   1.774   5.105
 6302TIP3    H218913   1.218   1.832   4.999
 6303TIP3   OH218914   0.493   5.072   5.133
 6303TIP3    H118915   0.501   5.163   5.163
 6303TIP3    H218916   0.577   5.032   5.158
 6304TIP3   OH218917   3.062   0.701   3.114
 6304TIP3    H118918   2.968   0.720   3.117
 6304TIP3    H218919   3.096   0.734   3.197
 6305TIP3   OH218920   1.590   3.138   0.261
 6305TIP3    H118921   1.589   3.048   0.294
 6305TIP3    H218922   1.629   3.189   0.331
 6306TIP3   OH218923   5.060   5.180   0.567
 6306TIP3    H118924   5.019   5.095   0.582
 6306TIP3    H218925   5.003   5.243   0.611
 6307TIP3   OH218926   5.380   5.047   3.175
 6307TIP3    H118927   5.362   5.140   3.163
 6307TIP3    H218928   5.336   5.024   3.257
 6308TIP3   OH218929   5.378   3.953   2.753
 6308TIP3    H118930   5.395   3.983   2.842
 6308TIP3    H218931   5.402   3.860   2.753
 6309TIP3   OH218932   2.058   1.472   0.230
 6309TIP3    H118933   2.058   1.529   0.307
 6309TIP3    H218934   2.061   1.383   0.266
 6310TIP3   OH218935   4.365   5.864   3.714
 6310TIP3    H118936   4.428   5.797   3.689
 6310TIP3    H218937   4.314   5.880   3.635
 6311TIP3   OH218938   0.976   5.169   2.884
 6311TIP3    H118939   0.995   5.082   2.922
 6311TIP3    H218940   1.057   5.218   2.895
 6312TIP3   OH218941   3.256   0.294   2.831
 6312TIP3    H118942   3.248   0.387   2.810
 6312TIP3    H218943   3.283   0.292   2.923
 6313TIP3   OH218944   1.151   5.351   1.262
 6313TIP3    H118945   1.110   5.384   1.343
 6313TIP3    H218946   1.221   5.293   1.293
 6314TIP3   OH218947   2.129   1.503   4.128
 6314TIP3    H118948   2.211   1.454   4.136
 6314TIP3    H218949   2.060   1.439   4.146
 6315TIP3   OH218950   5.409   3.381   3.117
 6315TIP3    H118951   5.483   3.321   3.109
 6315TIP3    H218952   5.371   3.384   3.029
 6316TIP3   OH218953   2.915   0.992   3.833
 6316TIP3    H118954   2.936   1.027   3.746
 6316TIP3    H218955   2.943   1.061   3.894
 6317TIP3   OH218956   0.440   3.412   3.954
 6317TIP3    H118957   0.411   3.498   3.985
 6317TIP3    H218958   0.472   3.428   3.866
 6318TIP3   OH218959   2.052   3.909   3.497
 6318TIP3    H118960   2.003   3.841   3.542
 6318TIP3    H218961   2.135   3.868   3.472
 6319TIP3   OH218962   2.344   5.302   3.776
 6319TIP3    H118963   2.251   5.307   3.799
 6319TIP3    H218964   2.359   5.209   3.759
 6320TIP3   OH218965   3.759   0.156   0.949
 6320TIP3    H118966   3.739   0.174   1.041
 6320TIP3    H218967   3.818   0.080   0.952
 6321TIP3   OH218968   0.378   1.525   4.061
 6321TIP3    H118969   0.362   1.431   4.060
 6321TIP3    H218970   0.429   1.540   4.140
 6322TIP3   OH218971   3.994   4.407   0.852
 6322TIP3    H118972   4.023   4.399   0.761
 6322TIP3    H218973   4.074   4.423   0.901
 6323TIP3   OH218974   1.779   0.575   2.179
 6323TIP3    H118975   1.848   0.620   2.227
 6323TIP3    H218976   1.824   0.535   2.105
 6324TIP3   OH218977   1.575   4.098   2.380
 6324TIP3    H118978   1.664   4.071   2.399
 6324TIP3    H218979   1.523   4.018   2.386
 6325TIP3   OH218980   1.703   2.297  -0.009
 6325TIP3    H118981   1.783   2.307   0.042
 6325TIP3    H218982   1.696   2.203  -0.024
 6326TIP3   OH218983   4.302   3.333   4.366
 6326TIP3    H118984   4.304   3.341   4.271
 6326TIP3    H218985   4.265   3.416   4.397
 6327TIP3   OH218986   2.467   1.620   2.942
 6327TIP3    H118987   2.502   1.680   3.008
 6327TIP3    H218988   2.494   1.533   2.972
 6328TIP3   OH218989   4.439   5.716   0.429
 6328TIP3    H118990   4.368   5.730   0.366
 6328TIP3    H218991   4.406   5.753   0.511
 6329TIP3   OH218992   2.377   1.469   4.001
 6329TIP3    H118993   2.453   1.493   3.947
 6329TIP3    H218994   2.302   1.482   3.944
 6330TIP3   OH218995   2.560   4.465   1.849
 6330TIP3    H118996   2.472   4.502   1.851
 6330TIP3    H218997   2.618   4.537   1.873
 6331TIP3   OH218998   1.281   2.157   2.687
 6331TIP3    H118999   1.225   2.168   2.611
 6331TIP3    H219000   1.346   2.092   2.660
 6332TIP3   OH219001   1.735   1.982   0.593
 6332TIP3    H119002   1.795   1.977   0.668
 6332TIP3    H219003   1.748   1.900   0.545
 6333TIP3   OH219004   4.395   0.905   0.465
 6333TIP3    H119005   4.343   0.984   0.448
 6333TIP3    H219006   4.330   0.836   0.474
 6334TIP3   OH219007   3.027   4.182   1.443
 6334TIP3    H119008   2.962   4.113   1.432
 6334TIP3    H219009   3.023   4.232   1.361
 6335TIP3   OH219010   1.890   2.458   4.677
 6335TIP3    H119011   1.985   2.464   4.666
 6335TIP3    H219012   1.873   2.513   4.754
 6336TIP3   OH219013   5.229   4.291   0.152
 6336TIP3    H119014   5.219   4.381   0.184
 6336TIP3    H219015   5.146   4.272   0.108
 6337TIP3   OH219016   1.489   2.262   3.351
 6337TIP3    H119017   1.419   2.324   3.374
 6337TIP3    H219018   1.565   2.318   3.337
 6338TIP3   OH219019   2.361   0.429   2.945
 6338TIP3    H119020   2.312   0.350   2.922
 6338TIP3    H219021   2.424   0.440   2.873
 6339TIP3   OH219022   1.552   2.676   0.481
 6339TIP3    H119023   1.592   2.597   0.518
 6339TIP3    H219024   1.485   2.642   0.421
 6340TIP3   OH219025   4.724   5.631   0.432
 6340TIP3    H119026   4.697   5.723   0.439
 6340TIP3    H219027   4.648   5.581   0.462
 6341TIP3   OH219028   6.232   4.094   4.053
 6341TIP3    H119029   6.168   4.137   3.996
 6341TIP3    H219030   6.230   4.145   4.134
 6342TIP3   OH219031   5.086   5.445   1.131
 6342TIP3    H119032   5.017   5.405   1.078
 6342TIP3    H219033   5.145   5.373   1.152
 6343TIP3   OH219034   3.181   0.023   2.069
 6343TIP3    H119035   3.150   0.056   2.154
 6343TIP3    H219036   3.137   0.079   2.005
 6344TIP3   OH219037   5.150   3.717   1.161
 6344TIP3    H119038   5.144   3.784   1.229
 6344TIP3    H219039   5.096   3.645   1.193
 6345TIP3   OH219040   4.423   2.248   1.454
 6345TIP3    H119041   4.473   2.169   1.434
 6345TIP3    H219042   4.355   2.251   1.386
 6346TIP3   OH219043   0.686   0.255   3.497
 6346TIP3    H119044   0.772   0.230   3.464
 6346TIP3    H219045   0.693   0.349   3.514
 6347TIP3   OH219046   6.303   0.945   1.754
 6347TIP3    H119047   6.268   0.957   1.842
 6347TIP3    H219048   6.248   0.876   1.715
 6348TIP3   OH219049   2.691   0.592   1.621
 6348TIP3    H119050   2.784   0.600   1.641
 6348TIP3    H219051   2.657   0.681   1.629
 6349TIP3   OH219052   5.892   4.897   4.805
 6349TIP3    H119053   5.928   4.833   4.866
 6349TIP3    H219054   5.968   4.931   4.758
 6350TIP3   OH219055   3.565   0.868   4.919
 6350TIP3    H119056   3.559   0.774   4.936
 6350TIP3    H219057   3.585   0.875   4.826
 6351TIP3   OH219058   3.247   2.748   2.280
 6351TIP3    H119059   3.202   2.665   2.296
 6351TIP3    H219060   3.176   2.810   2.263
 6352TIP3   OH219061   0.985   1.250   2.947
 6352TIP3    H119062   0.898   1.247   2.907
 6352TIP3    H219063   1.039   1.196   2.890
 6353TIP3   OH219064   3.878   3.330   3.379
 6353TIP3    H119065   3.964   3.295   3.401
 6353TIP3    H219066   3.820   3.292   3.445
 6354TIP3   OH219067   1.221   0.151   2.748
 6354TIP3    H119068   1.192   0.060   2.738
 6354TIP3    H219069   1.158   0.190   2.809
 6355TIP3   OH219070   0.618   1.703   1.678
 6355TIP3    H119071   0.684   1.705   1.747
 6355TIP3    H219072   0.542   1.660   1.719
 6356TIP3   OH219073   2.073   2.959   1.892
 6356TIP3    H119074   2.022   2.886   1.927
 6356TIP3    H219075   2.022   2.991   1.817
 6357TIP3   OH219076   5.395   2.357   1.012
 6357TIP3    H119077   5.305   2.387   0.997
 6357TIP3    H219078   5.448   2.437   1.003
 6358TIP3   OH219079   3.835   4.122   4.818
 6358TIP3    H119080   3.877   4.040   4.789
 6358TIP3    H219081   3.779   4.095   4.891
 6359TIP3   OH219082   2.461   0.630   1.092
 6359TIP3    H119083   2.525   0.621   1.161
 6359TIP3    H219084   2.448   0.541   1.059
 6360TIP3   OH219085   2.555   0.422   2.744
 6360TIP3    H119086   2.635   0.474   2.739
 6360TIP3    H219087   2.537   0.397   2.654
 6361TIP3   OH219088   0.037   2.906   1.145
 6361TIP3    H119089   0.122   2.888   1.104
 6361TIP3    H219090  -0.027   2.891   1.075
 6362TIP3   OH219091   2.766   4.650   5.153
 6362TIP3    H119092   2.818   4.635   5.074
 6362TIP3    H219093   2.723   4.566   5.169
 6363TIP3   OH219094   1.191   0.906   0.517
 6363TIP3    H119095   1.246   0.832   0.488
 6363TIP3    H219096   1.106   0.889   0.476
 6364TIP3   OH219097   3.177   4.348   4.308
 6364TIP3    H119098   3.236   4.281   4.342
 6364TIP3    H219099   3.229   4.428   4.307
 6365TIP3   OH219100   2.057   2.081   0.214
 6365TIP3    H119101   2.051   2.175   0.197
 6365TIP3    H219102   1.971   2.047   0.190
 6366TIP3   OH219103   2.584   1.081   2.329
 6366TIP3    H119104   2.679   1.081   2.316
 6366TIP3    H219105   2.569   1.141   2.402
 6367TIP3   OH219106   6.042   3.853   4.038
 6367TIP3    H119107   6.052   3.769   3.993
 6367TIP3    H219108   6.128   3.894   4.033
 6368TIP3   OH219109   4.769   4.845   4.270
 6368TIP3    H119110   4.825   4.888   4.205
 6368TIP3    H219111   4.723   4.778   4.221
 6369TIP3   OH219112   4.329   4.406   2.642
 6369TIP3    H119113   4.291   4.338   2.698
 6369TIP3    H219114   4.256   4.441   2.592
 6370TIP3   OH219115   1.580   5.813   4.570
 6370TIP3    H119116   1.522   5.889   4.575
 6370TIP3    H219117   1.668   5.851   4.563
 6371TIP3   OH219118   1.651   0.954   0.503
 6371TIP3    H119119   1.671   0.974   0.412
 6371TIP3    H219120   1.737   0.950   0.545
 6372TIP3   OH219121   0.369   3.337   3.652
 6372TIP3    H119122   0.319   3.265   3.690
 6372TIP3    H219123   0.460   3.307   3.653
 6373TIP3   OH219124   2.637   0.362   1.032
 6373TIP3    H119125   2.615   0.381   0.941
 6373TIP3    H219126   2.606   0.272   1.045
 6374TIP3   OH219127   3.006   4.593   4.067
 6374TIP3    H119128   3.098   4.613   4.054
 6374TIP3    H219129   2.960   4.670   4.033
 6375TIP3   OH219130   1.044   0.267   1.897
 6375TIP3    H119131   0.958   0.307   1.913
 6375TIP3    H219132   1.027   0.173   1.903
 6376TIP3   OH219133   2.914   3.381   4.364
 6376TIP3    H119134   2.859   3.442   4.317
 6376TIP3    H219135   2.894   3.396   4.456
 6377TIP3   OH219136   0.444   3.494   3.348
 6377TIP3    H119137   0.513   3.507   3.414
 6377TIP3    H219138   0.481   3.431   3.286
 6378TIP3   OH219139   1.655   0.801   4.736
 6378TIP3    H119140   1.631   0.761   4.819
 6378TIP3    H219141   1.744   0.769   4.718
 6379TIP3   OH219142   2.454   3.674   1.220
 6379TIP3    H119143   2.516   3.639   1.284
 6379TIP3    H219144   2.404   3.598   1.190
 6380TIP3   OH219145   0.273   4.465   1.166
 6380TIP3    H119146   0.202   4.400   1.168
 6380TIP3    H219147   0.296   4.471   1.073
 6381TIP3   OH219148   5.629   4.615   1.786
 6381TIP3    H119149   5.613   4.678   1.716
 6381TIP3    H219150   5.589   4.534   1.755
 6382TIP3   OH219151   5.984   3.803   4.651
 6382TIP3    H119152   6.071   3.785   4.688
 6382TIP3    H219153   6.002   3.833   4.562
 6383TIP3   OH219154   1.735   4.717   2.005
 6383TIP3    H119155   1.734   4.701   2.099
 6383TIP3    H219156   1.828   4.717   1.982
 6384TIP3   OH219157   1.897   0.868   3.253
 6384TIP3    H119158   1.978   0.916   3.235
 6384TIP3    H219159   1.840   0.932   3.294
 6385TIP3   OH219160   6.076   1.510   3.761
 6385TIP3    H119161   6.080   1.458   3.681
 6385TIP3    H219162   6.089   1.447   3.832
 6386TIP3   OH219163   1.936   4.055   3.265
 6386TIP3    H119164   2.007   4.054   3.330
 6386TIP3    H219165   1.877   3.985   3.293
 6387TIP3   OH219166   5.482   3.090   4.727
 6387TIP3    H119167   5.454   3.036   4.653
 6387TIP3    H219168   5.423   3.065   4.798
 6388TIP3   OH219169   0.274   5.270   2.272
 6388TIP3    H119170   0.275   5.174   2.269
 6388TIP3    H219171   0.210   5.295   2.205
 6389TIP3   OH219172   5.133   0.253   1.464
 6389TIP3    H119173   5.142   0.158   1.458
 6389TIP3    H219174   5.141   0.284   1.374
 6390TIP3   OH219175   4.701   3.426   4.781
 6390TIP3    H119176   4.708   3.521   4.772
 6390TIP3    H219177   4.616   3.404   4.744
 6391TIP3   OH219178   3.642   4.857   2.598
 6391TIP3    H119179   3.572   4.846   2.533
 6391TIP3    H219180   3.596   4.883   2.678
 6392TIP3   OH219181   4.167   0.603   2.265
 6392TIP3    H119182   4.119   0.664   2.208
 6392TIP3    H219183   4.105   0.531   2.279
 6393TIP3   OH219184   5.575   4.287   3.219
 6393TIP3    H119185   5.487   4.257   3.242
 6393TIP3    H219186   5.563   4.347   3.146
 6394TIP3   OH219187   2.370   4.249   3.768
 6394TIP3    H119188   2.361   4.180   3.834
 6394TIP3    H219189   2.462   4.275   3.772
 6395TIP3   OH219190   1.176   4.607   2.531
 6395TIP3    H119191   1.207   4.536   2.586
 6395TIP3    H219192   1.204   4.583   2.442
 6396TIP3   OH219193   5.564   3.663   2.469
 6396TIP3    H119194   5.591   3.712   2.391
 6396TIP3    H219195   5.521   3.585   2.435
 6397TIP3   OH219196   4.965   5.158   0.284
 6397TIP3    H119197   5.023   5.198   0.349
 6397TIP3    H219198   4.887   5.214   0.285
 6398TIP3   OH219199   3.194   3.875   4.002
 6398TIP3    H119200   3.156   3.963   3.995
 6398TIP3    H219201   3.156   3.827   3.928
 6399TIP3   OH219202   0.989   5.271   0.545
 6399TIP3    H119203   0.897   5.291   0.565
 6399TIP3    H219204   1.026   5.355   0.517
 6400TIP3   OH219205   2.716   4.873   2.470
 6400TIP3    H119206   2.787   4.835   2.417
 6400TIP3    H219207   2.744   4.859   2.560
 6401TIP3   OH219208   1.052   0.995   2.137
 6401TIP3    H119209   1.107   0.924   2.168
 6401TIP3    H219210   0.967   0.955   2.118
 6402TIP3   OH219211   4.102   3.569   4.140
 6402TIP3    H119212   4.101   3.623   4.061
 6402TIP3    H219213   4.112   3.632   4.212
 6403TIP3   OH219214   5.975   1.194   1.699
 6403TIP3    H119215   6.045   1.259   1.703
 6403TIP3    H219216   5.937   1.207   1.612
 6404TIP3   OH219217   5.037   5.251   0.860
 6404TIP3    H119218   4.969   5.183   0.860
 6404TIP3    H219219   4.990   5.332   0.845
 6405TIP3   OH219220   0.901   3.757   3.552
 6405TIP3    H119221   0.862   3.767   3.639
 6405TIP3    H219222   0.973   3.694   3.564
 6406TIP3   OH219223   6.082   4.473   2.550
 6406TIP3    H119224   5.995   4.447   2.520
 6406TIP3    H219225   6.065   4.525   2.629
 6407TIP3   OH219226   4.837   1.334   4.458
 6407TIP3    H119227   4.919   1.290   4.480
 6407TIP3    H219228   4.862   1.425   4.443
 6408TIP3   OH219229   2.964   2.707   0.033
 6408TIP3    H119230   2.956   2.801   0.048
 6408TIP3    H219231   2.950   2.696  -0.061
 6409TIP3   OH219232   0.966   5.807   4.866
 6409TIP3    H119233   1.024   5.762   4.927
 6409TIP3    H219234   0.942   5.888   4.911
 6410TIP3   OH219235   2.687   5.438   1.706
 6410TIP3    H119236   2.650   5.414   1.621
 6410TIP3    H219237   2.702   5.354   1.750
 6411TIP3   OH219238   6.046   0.730   3.816
 6411TIP3    H119239   6.141   0.728   3.810
 6411TIP3    H219240   6.016   0.742   3.726
 6412TIP3   OH219241   1.929   3.123   0.650
 6412TIP3    H119242   2.020   3.129   0.681
 6412TIP3    H219243   1.905   3.032   0.666
 6413TIP3   OH219244   1.774   2.342   2.388
 6413TIP3    H119245   1.865   2.365   2.373
 6413TIP3    H219246   1.741   2.411   2.445
 6414TIP3   OH219247   0.637   1.665   0.707
 6414TIP3    H119248   0.578   1.595   0.680
 6414TIP3    H219249   0.725   1.631   0.688
 6415TIP3   OH219250   3.202   5.765   3.933
 6415TIP3    H119251   3.136   5.797   3.994
 6415TIP3    H219252   3.190   5.820   3.855
 6416TIP3   OH219253   4.179   3.320   1.968
 6416TIP3    H119254   4.243   3.359   2.027
 6416TIP3    H219255   4.192   3.365   1.885
 6417TIP3   OH219256   1.114   2.456   4.003
 6417TIP3    H119257   1.142   2.547   3.989
 6417TIP3    H219258   1.195   2.406   4.001
 6418TIP3   OH219259   3.957   3.217   3.794
 6418TIP3    H119260   4.035   3.179   3.753
 6418TIP3    H219261   3.978   3.219   3.888
 6419TIP3   OH219262   4.695   4.791   1.959
 6419TIP3    H119263   4.627   4.724   1.959
 6419TIP3    H219264   4.656   4.866   2.003
 6420TIP3   OH219265   3.773   3.923   1.002
 6420TIP3    H119266   3.777   3.939   1.097
 6420TIP3    H219267   3.832   3.988   0.965
 6421TIP3   OH219268   2.507   3.956   1.276
 6421TIP3    H119269   2.461   3.874   1.257
 6421TIP3    H219270   2.596   3.928   1.301
 6422TIP3   OH219271   5.653   5.920   3.460
 6422TIP3    H119272   5.650   5.927   3.364
 6422TIP3    H219273   5.743   5.946   3.482
 6423TIP3   OH219274   0.543   4.857   1.509
 6423TIP3    H119275   0.478   4.787   1.509
 6423TIP3    H219276   0.594   4.843   1.589
 6424TIP3   OH219277   1.996   2.422   1.289
 6424TIP3    H119278   2.088   2.418   1.315
 6424TIP3    H219279   1.995   2.391   1.198
 6425TIP3   OH219280   0.230   4.667   4.246
 6425TIP3    H119281   0.278   4.597   4.202
 6425TIP3    H219282   0.298   4.725   4.281
 6426TIP3   OH219283   3.670   3.230   2.417
 6426TIP3    H119284   3.696   3.150   2.371
 6426TIP3    H219285   3.752   3.275   2.436
 6427TIP3   OH219286   5.472   0.770   3.379
 6427TIP3    H119287   5.470   0.860   3.412
 6427TIP3    H219288   5.411   0.722   3.436
 6428TIP3   OH219289   2.964   1.801   3.124
 6428TIP3    H119290   2.946   1.830   3.035
 6428TIP3    H219291   2.890   1.834   3.176
 6429TIP3   OH219292   3.200   1.996   1.835
 6429TIP3    H119293   3.263   1.941   1.882
 6429TIP3    H219294   3.159   1.937   1.772
 6430TIP3   OH219295   2.533   5.481   2.535
 6430TIP3    H119296   2.592   5.432   2.477
 6430TIP3    H219297   2.583   5.493   2.615
 6431TIP3   OH219298   2.896   0.413   0.111
 6431TIP3    H119299   2.881   0.499   0.151
 6431TIP3    H219300   2.830   0.406   0.043
 6432TIP3   OH219301   1.943   5.442   4.337
 6432TIP3    H119302   1.850   5.434   4.356
 6432TIP3    H219303   1.965   5.533   4.359
 6433TIP3   OH219304   4.277   2.305   1.875
 6433TIP3    H119305   4.306   2.391   1.842
 6433TIP3    H219306   4.355   2.268   1.916
 6434TIP3   OH219307   4.240   3.672   2.994
 6434TIP3    H119308   4.302   3.701   2.927
 6434TIP3    H219309   4.183   3.747   3.009
 6435TIP3   OH219310   3.184   3.125   0.615
 6435TIP3    H119311   3.106   3.077   0.589
 6435TIP3    H219312   3.242   3.119   0.539
 6436TIP3   OH219313   6.225   5.008   1.343
 6436TIP3    H119314   6.296   5.072   1.348
 6436TIP3    H219315   6.263   4.933   1.298
 6437TIP3   OH219316   2.706   0.599   0.878
 6437TIP3    H119317   2.722   0.660   0.950
 6437TIP3    H219318   2.773   0.622   0.813
 6438TIP3   OH219319   2.767   1.937   3.256
 6438TIP3    H119320   2.686   1.988   3.265
 6438TIP3    H219321   2.826   1.974   3.321
 6439TIP3   OH219322   0.070   4.095   1.737
 6439TIP3    H119323   0.042   4.187   1.738
 6439TIP3    H219324   0.063   4.069   1.645
 6440TIP3   OH219325   3.120   0.347   0.333
 6440TIP3    H119326   3.076   0.362   0.249
 6440TIP3    H219327   3.213   0.353   0.313
 6441TIP3   OH219328   2.226   2.893   3.064
 6441TIP3    H119329   2.202   2.848   2.983
 6441TIP3    H219330   2.309   2.853   3.091
 6442TIP3   OH219331   5.342   2.642   1.328
 6442TIP3    H119332   5.351   2.676   1.417
 6442TIP3    H219333   5.248   2.644   1.311
 6443TIP3   OH219334   2.909   3.360   4.009
 6443TIP3    H119335   2.958   3.430   4.052
 6443TIP3    H219336   2.967   3.329   3.939
 6444TIP3   OH219337   0.648   1.113   1.228
 6444TIP3    H119338   0.575   1.055   1.250
 6444TIP3    H219339   0.644   1.121   1.133
 6445TIP3   OH219340   0.125   3.614   0.466
 6445TIP3    H119341   0.191   3.627   0.397
 6445TIP3    H219342   0.049   3.663   0.436
 6446TIP3   OH219343   1.993   2.079   0.701
 6446TIP3    H119344   1.977   2.068   0.795
 6446TIP3    H219345   1.976   2.171   0.684
 6447TIP3   OH219346   4.197   0.645   4.993
 6447TIP3    H119347   4.152   0.667   5.074
 6447TIP3    H219348   4.184   0.551   4.982
 6448TIP3   OH219349   3.945   0.426   5.087
 6448TIP3    H119350   3.947   0.331   5.096
 6448TIP3    H219351   3.939   0.440   4.992
 6449TIP3   OH219352   3.245   4.278   3.164
 6449TIP3    H119353   3.205   4.365   3.156
 6449TIP3    H219354   3.319   4.280   3.102
 6450TIP3   OH219355   4.949   1.908   4.502
 6450TIP3    H119356   4.946   1.909   4.407
 6450TIP3    H219357   4.904   1.827   4.526
 6451TIP3   OH219358   1.439   0.511   0.825
 6451TIP3    H119359   1.453   0.579   0.891
 6451TIP3    H219360   1.497   0.440   0.851
 6452TIP3   OH219361   0.299   0.040   4.116
 6452TIP3    H119362   0.241  -0.019   4.164
 6452TIP3    H219363   0.387   0.010   4.139
 6453TIP3   OH219364   5.490   2.595   4.880
 6453TIP3    H119365   5.491   2.658   4.952
 6453TIP3    H219366   5.452   2.516   4.917
 6454TIP3   OH219367   1.044   2.570   4.575
 6454TIP3    H119368   1.051   2.652   4.526
 6454TIP3    H219369   1.037   2.598   4.666
 6455TIP3   OH219370   6.293   2.779   0.783
 6455TIP3    H119371   6.361   2.712   0.796
 6455TIP3    H219372   6.215   2.730   0.759
 6456TIP3   OH219373   0.872   0.011   1.061
 6456TIP3    H119374   0.803  -0.055   1.062
 6456TIP3    H219375   0.827   0.094   1.079
 6457TIP3   OH219376   1.344   1.525   1.997
 6457TIP3    H119377   1.336   1.447   1.943
 6457TIP3    H219378   1.257   1.538   2.034
 6458TIP3   OH219379   0.875   0.609   4.663
 6458TIP3    H119380   0.855   0.586   4.754
 6458TIP3    H219381   0.804   0.668   4.636
 6459TIP3   OH219382   1.885   0.938   2.517
 6459TIP3    H119383   1.936   0.857   2.521
 6459TIP3    H219384   1.912   0.986   2.596
 6460TIP3   OH219385   0.460   5.028   4.865
 6460TIP3    H119386   0.466   5.049   4.958
 6460TIP3    H219387   0.540   4.978   4.846
 6461TIP3   OH219388   1.080   3.528   4.920
 6461TIP3    H119389   1.100   3.533   5.013
 6461TIP3    H219390   1.128   3.451   4.889
 6462TIP3   OH219391   6.273   1.285   4.371
 6462TIP3    H119392   6.326   1.361   4.348
 6462TIP3    H219393   6.185   1.307   4.344
 6463TIP3   OH219394   1.418   5.320   4.717
 6463TIP3    H119395   1.405   5.410   4.748
 6463TIP3    H219396   1.358   5.312   4.643
 6464TIP3   OH219397   3.380   1.816   1.972
 6464TIP3    H119398   3.367   1.722   1.969
 6464TIP3    H219399   3.451   1.832   1.909
 6465TIP3   OH219400   6.272   2.494   3.866
 6465TIP3    H119401   6.219   2.476   3.788
 6465TIP3    H219402   6.216   2.547   3.922
 6466TIP3   OH219403   2.660   2.127   0.700
 6466TIP3    H119404   2.588   2.189   0.717
 6466TIP3    H219405   2.701   2.113   0.785
 6467TIP3   OH219406   0.555   3.652   1.684
 6467TIP3    H119407   0.649   3.669   1.695
 6467TIP3    H219408   0.541   3.568   1.726
 6468TIP3   OH219409   3.373   1.667   5.006
 6468TIP3    H119410   3.442   1.609   5.038
 6468TIP3    H219411   3.297   1.610   4.992
 6469TIP3   OH219412   0.349   5.489   5.105
 6469TIP3    H119413   0.284   5.548   5.142
 6469TIP3    H219414   0.389   5.539   5.034
 6470TIP3   OH219415   3.725   4.584   0.022
 6470TIP3    H119416   3.798   4.531   0.053
 6470TIP3    H219417   3.765   4.665  -0.009
 6471TIP3   OH219418   1.874   3.018   3.027
 6471TIP3    H119419   1.936   3.066   3.082
 6471TIP3    H219420   1.875   3.063   2.943
 6472TIP3   OH219421   1.425   5.489   0.326
 6472TIP3    H119422   1.395   5.575   0.298
 6472TIP3    H219423   1.446   5.499   0.419
 6473TIP3   OH219424   1.870   1.243   1.777
 6473TIP3    H119425   1.950   1.290   1.800
 6473TIP3    H219426   1.863   1.250   1.682
 6474TIP3   OH219427   1.203   3.015   2.491
 6474TIP3    H119428   1.200   2.953   2.563
 6474TIP3    H219429   1.245   3.093   2.528
 6475TIP3   OH219430   5.368   5.541   4.144
 6475TIP3    H119431   5.415   5.617   4.179
 6475TIP3    H219432   5.398   5.468   4.198
 6476TIP3   OH219433   5.560   2.821   4.108
 6476TIP3    H119434   5.599   2.899   4.146
 6476TIP3    H219435   5.605   2.810   4.024
 6477TIP3   OH219436   3.968   5.032   4.808
 6477TIP3    H119437   3.886   5.077   4.786
 6477TIP3    H219438   4.035   5.077   4.757
 6478TIP3   OH219439   2.342   3.248   2.525
 6478TIP3    H119440   2.374   3.318   2.581
 6478TIP3    H219441   2.385   3.169   2.559
 6479TIP3   OH219442   2.268   3.427   1.768
 6479TIP3    H119443   2.234   3.426   1.857
 6479TIP3    H219444   2.224   3.501   1.726
 6480TIP3   OH219445   2.562   3.611   2.946
 6480TIP3    H119446   2.499   3.667   2.901
 6480TIP3    H219447   2.508   3.549   2.996
 6481TIP3   OH219448   1.411   4.992   3.546
 6481TIP3    H119449   1.389   4.901   3.567
 6481TIP3    H219450   1.363   5.010   3.465
 6482TIP3   OH219451   6.256   3.736   0.317
 6482TIP3    H119452   6.187   3.750   0.382
 6482TIP3    H219453   6.226   3.661   0.266
 6483TIP3   OH219454   5.297   0.431   2.527
 6483TIP3    H119455   5.280   0.493   2.598
 6483TIP3    H219456   5.281   0.345   2.566
 6484TIP3   OH219457   4.416   0.855   1.686
 6484TIP3    H119458   4.347   0.825   1.627
 6484TIP3    H219459   4.487   0.882   1.628
 6485TIP3   OH219460   4.141   1.527   3.359
 6485TIP3    H119461   4.099   1.542   3.444
 6485TIP3    H219462   4.231   1.503   3.381
 6486TIP3   OH219463   3.686   5.064   3.451
 6486TIP3    H119464   3.730   5.110   3.523
 6486TIP3    H219465   3.606   5.114   3.436
 6487TIP3   OH219466   6.010   1.592   1.814
 6487TIP3    H119467   6.071   1.666   1.822
 6487TIP3    H219468   6.064   1.521   1.779
 6488TIP3   OH219469   3.522   2.142   2.807
 6488TIP3    H119470   3.441   2.091   2.813
 6488TIP3    H219471   3.543   2.144   2.714
 6489TIP3   OH219472   1.871   5.552   3.438
 6489TIP3    H119473   1.822   5.583   3.362
 6489TIP3    H219474   1.917   5.630   3.470
 6490TIP3   OH219475   0.073   5.854   2.660
 6490TIP3    H119476   0.054   5.824   2.571
 6490TIP3    H219477   0.003   5.916   2.680
 6491TIP3   OH219478   1.688   5.809   5.116
 6491TIP3    H119479   1.623   5.738   5.121
 6491TIP3    H219480   1.742   5.788   5.040
 6492TIP3   OH219481   1.915   4.353   3.874
 6492TIP3    H119482   2.002   4.385   3.850
 6492TIP3    H219483   1.876   4.324   3.792
 6493TIP3   OH219484   0.538   3.258   4.999
 6493TIP3    H119485   0.504   3.260   4.909
 6493TIP3    H219486   0.460   3.254   5.054
 6494TIP3   OH219487   5.952   0.612   3.247
 6494TIP3    H119488   5.956   0.570   3.333
 6494TIP3    H219489   5.991   0.548   3.188
 6495TIP3   OH219490   0.830   2.846   1.566
 6495TIP3    H119491   0.765   2.837   1.496
 6495TIP3    H219492   0.877   2.927   1.545
 6496TIP3   OH219493   5.984   1.663   0.166
 6496TIP3    H119494   5.936   1.625   0.240
 6496TIP3    H219495   6.065   1.613   0.162
 6497TIP3   OH219496   5.495   1.796   2.973
 6497TIP3    H119497   5.456   1.857   2.910
 6497TIP3    H219498   5.575   1.841   3.002
 6498TIP3   OH219499   1.248   1.175   0.532
 6498TIP3    H119500   1.236   1.082   0.516
 6498TIP3    H219501   1.295   1.179   0.616
 6499TIP3   OH219502   4.845   4.330   1.228
 6499TIP3    H119503   4.879   4.276   1.157
 6499TIP3    H219504   4.919   4.344   1.286
 6500TIP3   OH219505   0.407   4.853   3.367
 6500TIP3    H119506   0.363   4.860   3.282
 6500TIP3    H219507   0.359   4.913   3.424
 6501TIP3   OH219508   0.590   3.454   1.876
 6501TIP3    H119509   0.680   3.480   1.898
 6501TIP3    H219510   0.540   3.471   1.956
 6502TIP3   OH219511   5.951   5.312   2.371
 6502TIP3    H119512   5.957   5.239   2.310
 6502TIP3    H219513   5.881   5.367   2.336
 6503TIP3   OH219514   6.028   1.397   2.227
 6503TIP3    H119515   5.942   1.409   2.266
 6503TIP3    H219516   6.024   1.310   2.185
 6504TIP3   OH219517   1.825   2.684   2.747
 6504TIP3    H119518   1.819   2.599   2.792
 6504TIP3    H219519   1.756   2.737   2.786
 6505TIP3   OH219520   4.722   1.813   3.022
 6505TIP3    H119521   4.726   1.902   2.987
 6505TIP3    H219522   4.661   1.819   3.096
 6506TIP3   OH219523   0.504   0.672   3.065
 6506TIP3    H119524   0.551   0.658   3.147
 6506TIP3    H219525   0.527   0.761   3.039
 6507TIP3   OH219526   0.147   0.116   3.893
 6507TIP3    H119527   0.159   0.039   3.839
 6507TIP3    H219528   0.217   0.111   3.958
 6508TIP3   OH219529   5.754   3.180   0.557
 6508TIP3    H119530   5.720   3.149   0.641
 6508TIP3    H219531   5.844   3.146   0.553
 6509TIP3   OH219532   0.390   3.201   2.683
 6509TIP3    H119533   0.455   3.236   2.743
 6509TIP3    H219534   0.310   3.193   2.735
 6510TIP3   OH219535   1.191   2.728   3.982
 6510TIP3    H119536   1.261   2.783   3.948
 6510TIP3    H219537   1.117   2.747   3.924
 6511TIP3   OH219538   3.750   3.514   2.467
 6511TIP3    H119539   3.812   3.453   2.506
 6511TIP3    H219540   3.802   3.565   2.404
 6512TIP3   OH219541   3.655   0.775   2.196
 6512TIP3    H119542   3.570   0.816   2.215
 6512TIP3    H219543   3.641   0.682   2.217
 6513TIP3   OH219544   3.498   4.393   1.775
 6513TIP3    H119545   3.405   4.385   1.756
 6513TIP3    H219546   3.501   4.439   1.859
 6514TIP3   OH219547   3.674   3.474   1.804
 6514TIP3    H119548   3.604   3.528   1.840
 6514TIP3    H219549   3.698   3.415   1.875
 6515TIP3   OH219550   4.188   2.162   4.763
 6515TIP3    H119551   4.146   2.076   4.755
 6515TIP3    H219552   4.115   2.224   4.767
 6516TIP3   OH219553   3.894   1.851   3.693
 6516TIP3    H119554   3.840   1.902   3.753
 6516TIP3    H219555   3.969   1.824   3.745
 6517TIP3   OH219556   5.166   0.677   3.067
 6517TIP3    H119557   5.163   0.617   3.141
 6517TIP3    H219558   5.255   0.669   3.033
 6518TIP3   OH219559   4.483   5.068   2.867
 6518TIP3    H119560   4.489   5.160   2.840
 6518TIP3    H219561   4.505   5.070   2.961
 6519TIP3   OH219562   3.076   5.488   3.946
 6519TIP3    H119563   3.101   5.571   3.904
 6519TIP3    H219564   3.150   5.430   3.930
 6520TIP3   OH219565   0.265   2.808   2.805
 6520TIP3    H119566   0.316   2.868   2.750
 6520TIP3    H219567   0.292   2.830   2.894
 6521TIP3   OH219568   3.002   2.320   2.741
 6521TIP3    H119569   2.960   2.405   2.730
 6521TIP3    H219570   3.053   2.307   2.661
 6522TIP3   OH219571   0.436   5.060   4.074
 6522TIP3    H119572   0.447   4.993   4.006
 6522TIP3    H219573   0.445   5.143   4.027
 6523TIP3   OH219574   5.878   5.093   2.211
 6523TIP3    H119575   5.839   5.006   2.218
 6523TIP3    H219576   5.803   5.153   2.210
 6524TIP3   OH219577   0.519   1.816   0.273
 6524TIP3    H119578   0.518   1.819   0.177
 6524TIP3    H219579   0.610   1.794   0.295
 6525TIP3   OH219580   6.108   4.793   2.114
 6525TIP3    H119581   6.153   4.725   2.164
 6525TIP3    H219582   6.081   4.749   2.033
 6526TIP3   OH219583   3.233   1.812   3.204
 6526TIP3    H119584   3.205   1.736   3.257
 6526TIP3    H219585   3.154   1.838   3.157
 6527TIP3   OH219586   6.020   4.258   1.640
 6527TIP3    H119587   6.089   4.276   1.703
 6527TIP3    H219588   5.954   4.325   1.657
 6528TIP3   OH219589   0.446   2.161   1.773
 6528TIP3    H119590   0.473   2.207   1.694
 6528TIP3    H219591   0.355   2.136   1.757
 6529TIP3   OH219592   5.237   2.962   1.427
 6529TIP3    H119593   5.321   2.928   1.459
 6529TIP3    H219594   5.259   3.044   1.384
 6530TIP3   OH219595   3.561   5.537   0.205
 6530TIP3    H119596   3.634   5.480   0.228
 6530TIP3    H219597   3.483   5.485   0.224
 6531TIP3   OH219598   5.203   3.004   4.631
 6531TIP3    H119599   5.194   2.943   4.558
 6531TIP3    H219600   5.126   3.059   4.626
 6532TIP3   OH219601   4.305   1.158   0.392
 6532TIP3    H119602   4.346   1.225   0.337
 6532TIP3    H219603   4.263   1.207   0.462
 6533TIP3   OH219604   5.917   0.062   0.312
 6533TIP3    H119605   5.925   0.076   0.217
 6533TIP3    H219606   5.841   0.113   0.338
 6534TIP3   OH219607   2.026   3.910   4.943
 6534TIP3    H119608   1.944   3.880   4.904
 6534TIP3    H219609   2.055   3.837   4.997
 6535TIP3   OH219610   1.020   5.217   3.674
 6535TIP3    H119611   1.101   5.224   3.723
 6535TIP3    H219612   0.987   5.130   3.695
 6536TIP3   OH219613   3.183   1.621   4.371
 6536TIP3    H119614   3.151   1.711   4.382
 6536TIP3    H219615   3.153   1.575   4.450
 6537TIP3   OH219616   6.229   2.244   2.781
 6537TIP3    H119617   6.226   2.325   2.831
 6537TIP3    H219618   6.288   2.263   2.707
 6538TIP3   OH219619   5.974   2.978   1.342
 6538TIP3    H119620   5.922   3.058   1.334
 6538TIP3    H219621   5.909   2.907   1.340
 6539TIP3   OH219622   3.461   1.344   2.442
 6539TIP3    H119623   3.525   1.404   2.405
 6539TIP3    H219624   3.455   1.273   2.377
 6540TIP3   OH219625   3.476   5.723   1.537
 6540TIP3    H119626   3.538   5.742   1.608
 6540TIP3    H219627   3.502   5.782   1.466
 6541TIP3   OH219628   0.358   3.985   3.724
 6541TIP3    H119629   0.396   3.972   3.637
 6541TIP3    H219630   0.402   3.921   3.780
 6542TIP3   OH219631   1.804   1.299   2.302
 6542TIP3    H119632   1.874   1.325   2.241
 6542TIP3    H219633   1.825   1.209   2.326
 6543TIP3   OH219634   2.034   0.351   2.935
 6543TIP3    H119635   2.101   0.304   2.887
 6543TIP3    H219636   1.987   0.402   2.868
 6544TIP3   OH219637   5.563   4.484   3.039
 6544TIP3    H119638   5.488   4.529   3.078
 6544TIP3    H219639   5.634   4.549   3.041
 6545TIP3   OH219640   4.581   4.299   2.446
 6545TIP3    H119641   4.659   4.350   2.469
 6545TIP3    H219642   4.529   4.298   2.526
 6546TIP3   OH219643   4.124   0.803   0.289
 6546TIP3    H119644   4.045   0.842   0.251
 6546TIP3    H219645   4.096   0.715   0.316
 6547TIP3   OH219646   5.798   4.480   0.934
 6547TIP3    H119647   5.837   4.477   1.022
 6547TIP3    H219648   5.760   4.568   0.928
 6548TIP3   OH219649   3.045   2.299   0.181
 6548TIP3    H119650   3.005   2.340   0.257
 6548TIP3    H219651   3.061   2.372   0.120
 6549TIP3   OH219652   6.222   2.117   3.674
 6549TIP3    H119653   6.286   2.067   3.622
 6549TIP3    H219654   6.211   2.199   3.625
 6550TIP3   OH219655   1.213   5.708   2.707
 6550TIP3    H119656   1.289   5.684   2.655
 6550TIP3    H219657   1.234   5.680   2.796
 6551TIP3   OH219658   1.269   5.735   0.298
 6551TIP3    H119659   1.199   5.728   0.363
 6551TIP3    H219660   1.224   5.763   0.218
 6552TIP3   OH219661   1.284   3.737   3.178
 6552TIP3    H119662   1.206   3.681   3.180
 6552TIP3    H219663   1.321   3.723   3.091
 6553TIP3   OH219664   1.084   0.681   0.772
 6553TIP3    H119665   1.130   0.703   0.853
 6553TIP3    H219666   1.057   0.765   0.736
 6554TIP3   OH219667   2.340   2.097   2.283
 6554TIP3    H119668   2.378   2.184   2.294
 6554TIP3    H219669   2.385   2.061   2.206
 6555TIP3   OH219670   0.762   4.359   1.328
 6555TIP3    H119671   0.766   4.272   1.369
 6555TIP3    H219672   0.712   4.345   1.248
 6556TIP3   OH219673   1.236   1.360   2.527
 6556TIP3    H119674   1.170   1.294   2.505
 6556TIP3    H219675   1.266   1.336   2.615
 6557TIP3   OH219676   5.252   1.478   4.079
 6557TIP3    H119677   5.246   1.430   4.162
 6557TIP3    H219678   5.318   1.431   4.029
 6558TIP3   OH219679   1.882   2.898   1.678
 6558TIP3    H119680   1.797   2.941   1.668
 6558TIP3    H219681   1.938   2.940   1.613
 6559TIP3   OH219682   4.681   0.366   1.852
 6559TIP3    H119683   4.706   0.311   1.778
 6559TIP3    H219684   4.588   0.383   1.839
 6560TIP3   OH219685   3.973   1.910   3.219
 6560TIP3    H119686   3.975   1.861   3.137
 6560TIP3    H219687   4.055   1.888   3.262
 6561TIP3   OH219688   4.167   0.225   3.301
 6561TIP3    H119689   4.209   0.143   3.275
 6561TIP3    H219690   4.164   0.221   3.397
 6562TIP3   OH219691   4.648   4.237   4.705
 6562TIP3    H119692   4.668   4.261   4.795
 6562TIP3    H219693   4.732   4.237   4.660
 6563TIP3   OH219694   5.696   2.800   3.882
 6563TIP3    H119695   5.791   2.805   3.888
 6563TIP3    H219696   5.679   2.710   3.854
 6564TIP3   OH219697   6.120   4.661   1.869
 6564TIP3    H119698   6.159   4.575   1.851
 6564TIP3    H219699   6.182   4.723   1.831
 6565TIP3   OH219700   4.064   3.861   2.882
 6565TIP3    H119701   3.984   3.889   2.836
 6565TIP3    H219702   4.125   3.934   2.870
 6566TIP3   OH219703   0.263   0.611   2.211
 6566TIP3    H119704   0.275   0.697   2.172
 6566TIP3    H219705   0.169   0.605   2.227
 6567TIP3   OH219706   0.413   5.171   4.324
 6567TIP3    H119707   0.404   5.147   4.232
 6567TIP3    H219708   0.375   5.258   4.330
 6568TIP3   OH219709   4.699   4.823   2.999
 6568TIP3    H119710   4.616   4.797   2.960
 6568TIP3    H219711   4.759   4.831   2.925
 6569TIP3   OH219712   0.524   5.892   0.004
 6569TIP3    H119713   0.573   5.810   0.010
 6569TIP3    H219714   0.579   5.949  -0.050
 6570TIP3   OH219715   3.582   3.212   2.870
 6570TIP3    H119716   3.533   3.217   2.951
 6570TIP3    H219717   3.672   3.192   2.897
 6571TIP3   OH219718   1.168   0.385   4.471
 6571TIP3    H119719   1.116   0.323   4.523
 6571TIP3    H219720   1.204   0.446   4.536
 6572TIP3   OH219721   3.276   4.832   3.744
 6572TIP3    H119722   3.369   4.835   3.719
 6572TIP3    H219723   3.251   4.740   3.735
 6573TIP3   OH219724   1.238   3.298   0.187
 6573TIP3    H119725   1.151   3.278   0.154
 6573TIP3    H219726   1.295   3.294   0.110
 6574TIP3   OH219727   3.158   0.465   3.304
 6574TIP3    H119728   3.075   0.474   3.259
 6574TIP3    H219729   3.191   0.555   3.310
 6575TIP3   OH219730   3.821   4.821   1.584
 6575TIP3    H119731   3.751   4.763   1.612
 6575TIP3    H219732   3.899   4.766   1.580
 6576TIP3   OH219733   4.866   2.043   2.901
 6576TIP3    H119734   4.868   2.137   2.883
 6576TIP3    H219735   4.859   2.002   2.814
 6577TIP3   OH219736   3.030   4.560   0.983
 6577TIP3    H119737   3.070   4.543   0.897
 6577TIP3    H219738   2.936   4.564   0.965
 6578TIP3   OH219739   0.113   3.675   4.296
 6578TIP3    H119740   0.185   3.617   4.272
 6578TIP3    H219741   0.105   3.736   4.223
 6579TIP3   OH219742   3.251   3.764   3.638
 6579TIP3    H119743   3.247   3.852   3.601
 6579TIP3    H219744   3.344   3.741   3.636
 6580TIP3   OH219745   0.589   5.621   2.139
 6580TIP3    H119746   0.559   5.531   2.126
 6580TIP3    H219747   0.662   5.631   2.077
 6581TIP3   OH219748   5.407   3.968   3.958
 6581TIP3    H119749   5.482   3.952   3.901
 6581TIP3    H219750   5.381   4.058   3.939
 6582TIP3   OH219751   4.625   1.741   1.406
 6582TIP3    H119752   4.642   1.660   1.453
 6582TIP3    H219753   4.631   1.717   1.313
 6583TIP3   OH219754   5.257   1.329   4.297
 6583TIP3    H119755   5.193   1.263   4.325
 6583TIP3    H219756   5.340   1.281   4.293
 6584TIP3   OH219757   5.711   5.661   2.498
 6584TIP3    H119758   5.681   5.745   2.462
 6584TIP3    H219759   5.711   5.601   2.423
 6585TIP3   OH219760   5.721   3.858   0.736
 6585TIP3    H119761   5.677   3.778   0.706
 6585TIP3    H219762   5.653   3.909   0.779
 6586TIP3   OH219763   2.300   5.656   3.167
 6586TIP3    H119764   2.226   5.608   3.205
 6586TIP3    H219765   2.377   5.609   3.197
 6587TIP3   OH219766   2.878   4.282   2.620
 6587TIP3    H119767   2.819   4.207   2.623
 6587TIP3    H219768   2.832   4.348   2.568
 6588TIP3   OH219769   5.182   1.313   3.300
 6588TIP3    H119770   5.105   1.368   3.286
 6588TIP3    H219771   5.226   1.311   3.216
 6589TIP3   OH219772   1.616   5.548   2.707
 6589TIP3    H119773   1.683   5.512   2.649
 6589TIP3    H219774   1.534   5.516   2.671
 6590TIP3   OH219775   1.201   4.721   4.167
 6590TIP3    H119776   1.140   4.722   4.241
 6590TIP3    H219777   1.152   4.760   4.095
 6591TIP3   OH219778   0.273   4.985   2.289
 6591TIP3    H119779   0.220   4.957   2.214
 6591TIP3    H219780   0.212   4.985   2.363
 6592TIP3   OH219781   2.459   5.704   3.821
 6592TIP3    H119782   2.541   5.661   3.797
 6592TIP3    H219783   2.445   5.678   3.912
 6593TIP3   OH219784   0.371   2.616   2.113
 6593TIP3    H119785   0.417   2.700   2.109
 6593TIP3    H219786   0.343   2.608   2.204
 6594TIP3   OH219787   0.115   5.916   0.475
 6594TIP3    H119788   0.144   5.957   0.556
 6594TIP3    H219789   0.019   5.922   0.478
 6595TIP3   OH219790   2.165   3.509   2.712
 6595TIP3    H119791   2.153   3.535   2.804
 6595TIP3    H219792   2.099   3.558   2.664
 6596TIP3   OH219793   5.364   2.097   4.030
 6596TIP3    H119794   5.351   2.020   3.975
 6596TIP3    H219795   5.288   2.153   4.011
 6597TIP3   OH219796   3.095   1.152   2.249
 6597TIP3    H119797   3.046   1.234   2.258
 6597TIP3    H219798   3.074   1.122   2.160
 6598TIP3   OH219799   5.534   1.620   0.076
 6598TIP3    H119800   5.477   1.589   0.005
 6598TIP3    H219801   5.611   1.654   0.032
 6599TIP3   OH219802   1.301   3.926   0.982
 6599TIP3    H119803   1.365   3.953   0.916
 6599TIP3    H219804   1.316   3.986   1.055
 6600TIP3   OH219805   6.039   0.341   4.186
 6600TIP3    H119806   6.118   0.329   4.134
 6600TIP3    H219807   5.997   0.419   4.149
 6601TIP3   OH219808   0.351   2.104   0.088
 6601TIP3    H119809   0.431   2.117   0.139
 6601TIP3    H219810   0.360   2.015   0.052
 6602TIP3   OH219811   0.089   4.632   2.000
 6602TIP3    H119812   0.056   4.582   1.926
 6602TIP3    H219813   0.107   4.566   2.067
 6603TIP3   OH219814   1.719   2.011   4.032
 6603TIP3    H119815   1.687   1.972   3.951
 6603TIP3    H219816   1.689   1.951   4.101
 6604TIP3   OH219817   3.258   5.108   4.356
 6604TIP3    H119818   3.315   5.172   4.399
 6604TIP3    H219819   3.243   5.041   4.422
 6605TIP3   OH219820   5.837   2.045   3.928
 6605TIP3    H119821   5.762   1.988   3.908
 6605TIP3    H219822   5.898   1.989   3.975
 6606TIP3   OH219823   1.756   2.544   3.046
 6606TIP3    H119824   1.818   2.616   3.055
 6606TIP3    H219825   1.750   2.506   3.134
 6607TIP3   OH219826   5.496   4.916   4.337
 6607TIP3    H119827   5.582   4.917   4.378
 6607TIP3    H219828   5.514   4.909   4.243
 6608TIP3   OH219829   3.042   5.391   2.302
 6608TIP3    H119830   3.079   5.409   2.388
 6608TIP3    H219831   3.029   5.296   2.301
 6609TIP3   OH219832   2.782   1.151   2.139
 6609TIP3    H119833   2.844   1.116   2.075
 6609TIP3    H219834   2.695   1.131   2.102
 6610TIP3   OH219835   4.009   5.467   0.663
 6610TIP3    H119836   4.006   5.371   0.665
 6610TIP3    H219837   3.918   5.494   0.675
 6611TIP3   OH219838   4.057   1.241   0.105
 6611TIP3    H119839   4.010   1.204   0.031
 6611TIP3    H219840   4.000   1.225   0.180
 6612TIP3   OH219841   4.315   2.637   4.857
 6612TIP3    H119842   4.391   2.653   4.912
 6612TIP3    H219843   4.320   2.543   4.837
 6613TIP3   OH219844   2.545   3.179   3.529
 6613TIP3    H119845   2.551   3.200   3.623
 6613TIP3    H219846   2.548   3.084   3.525
 6614TIP3   OH219847   1.049   5.117   0.306
 6614TIP3    H119848   1.051   5.171   0.385
 6614TIP3    H219849   1.141   5.105   0.281
 6615TIP3   OH219850   3.101   0.052   1.096
 6615TIP3    H119851   3.127   0.006   1.175
 6615TIP3    H219852   3.126  -0.007   1.025
 6616TIP3   OH219853   4.650   0.985   1.270
 6616TIP3    H119854   4.556   0.966   1.265
 6616TIP3    H219855   4.673   1.016   1.182
 6617TIP3   OH219856   2.422   4.248   4.188
 6617TIP3    H119857   2.464   4.298   4.258
 6617TIP3    H219858   2.338   4.292   4.175
 6618TIP3   OH219859   5.054   2.537   2.117
 6618TIP3    H119860   5.084   2.499   2.035
 6618TIP3    H219861   5.060   2.632   2.103
 6619TIP3   OH219862   3.543   5.132   2.549
 6619TIP3    H119863   3.513   5.046   2.520
 6619TIP3    H219864   3.543   5.186   2.470
 6620TIP3   OH219865   5.514   4.268   1.804
 6620TIP3    H119866   5.500   4.252   1.710
 6620TIP3    H219867   5.439   4.226   1.846
 6621TIP3   OH219868   4.004   4.756   4.622
 6621TIP3    H119869   4.072   4.786   4.563
 6621TIP3    H219870   4.034   4.783   4.709
 6622TIP3   OH219871   2.463   3.665   0.260
 6622TIP3    H119872   2.487   3.578   0.294
 6622TIP3    H219873   2.510   3.726   0.317
 6623TIP3   OH219874   2.773  -0.043   0.826
 6623TIP3    H119875   2.709   0.005   0.773
 6623TIP3    H219876   2.848   0.017   0.834
 6624TIP3   OH219877   2.910   3.429  -0.011
 6624TIP3    H119878   2.845   3.399   0.053
 6624TIP3    H219879   2.994   3.422   0.035
 6625TIP3   OH219880   1.783   2.368   1.780
 6625TIP3    H119881   1.842   2.340   1.850
 6625TIP3    H219882   1.830   2.440   1.737
 6626TIP3   OH219883   2.696   1.833   3.563
 6626TIP3    H119884   2.791   1.836   3.557
 6626TIP3    H219885   2.677   1.859   3.653
 6627TIP3   OH219886   3.746   3.385   3.656
 6627TIP3    H119887   3.817   3.356   3.713
 6627TIP3    H219888   3.707   3.303   3.624
 6628TIP3   OH219889   5.716   5.662   0.286
 6628TIP3    H119890   5.644   5.725   0.281
 6628TIP3    H219891   5.795   5.715   0.281
 6629TIP3   OH219892   5.584   0.322   3.683
 6629TIP3    H119893   5.573   0.274   3.601
 6629TIP3    H219894   5.542   0.407   3.667
 6630TIP3   OH219895   6.377   1.991   2.046
 6630TIP3    H119896   6.319   2.052   2.000
 6630TIP3    H219897   6.358   1.906   2.007
 6631TIP3   OH219898   2.032   4.536   0.744
 6631TIP3    H119899   2.121   4.573   0.749
 6631TIP3    H219900   2.046   4.445   0.717
 6632TIP3   OH219901   0.443   4.815   4.346
 6632TIP3    H119902   0.457   4.819   4.441
 6632TIP3    H219903   0.450   4.906   4.317
 6633TIP3   OH219904   0.874   3.619   1.474
 6633TIP3    H119905   0.820   3.694   1.499
 6633TIP3    H219906   0.933   3.653   1.407
 6634TIP3   OH219907   0.149   4.485   3.013
 6634TIP3    H119908   0.156   4.430   2.935
 6634TIP3    H219909   0.057   4.512   3.014
 6635TIP3   OH219910   4.579   3.341   1.290
 6635TIP3    H119911   4.560   3.249   1.307
 6635TIP3    H219912   4.551   3.386   1.370
 6636TIP3   OH219913   5.485   5.732   0.591
 6636TIP3    H119914   5.459   5.696   0.506
 6636TIP3    H219915   5.581   5.734   0.588
 6637TIP3   OH219916   2.182   1.103   3.939
 6637TIP3    H119917   2.114   1.171   3.929
 6637TIP3    H219918   2.176   1.078   4.031
 6638TIP3   OH219919   1.110   5.254   3.426
 6638TIP3    H119920   1.115   5.159   3.418
 6638TIP3    H219921   1.047   5.270   3.497
 6639TIP3   OH219922   0.878   5.758   0.168
 6639TIP3    H119923   0.851   5.721   0.252
 6639TIP3    H219924   0.812   5.728   0.106
 6640TIP3   OH219925   1.283   1.388   0.967
 6640TIP3    H119926   1.376   1.371   0.953
 6640TIP3    H219927   1.272   1.481   0.947
 6641TIP3   OH219928   2.129   1.032   4.537
 6641TIP3    H119929   2.061   1.097   4.554
 6641TIP3    H219930   2.200   1.082   4.496
 6642TIP3   OH219931   4.612   3.946   3.073
 6642TIP3    H119932   4.666   4.025   3.082
 6642TIP3    H219933   4.568   3.957   2.989
 6643TIP3   OH219934   2.312   1.301   1.282
 6643TIP3    H119935   2.344   1.376   1.332
 6643TIP3    H219936   2.392   1.258   1.251
 6644TIP3   OH219937   4.056   1.070   0.705
 6644TIP3    H119938   4.089   1.143   0.653
 6644TIP3    H219939   3.976   1.102   0.746
 6645TIP3   OH219940   5.256   3.683   3.758
 6645TIP3    H119941   5.349   3.675   3.777
 6645TIP3    H219942   5.212   3.643   3.833
   6.33407   5.97182   5.17175   0.00000   0.00000  -2.11136   0.00000  -2.11136  -2.98591
