Title t= 141.00000 step= 70500
29212
    1ASP      N    1   1.663   2.794   4.967
    1ASP    HT1    2   1.562   2.799   4.991
    1ASP    HT2    3   1.711   2.868   5.023
    1ASP    HT3    4   1.701   2.699   4.988
    1ASP     CA    5   1.685   2.822   4.818
    1ASP     HA    6   1.602   2.792   4.756
    1ASP     CB    7   1.688   2.979   4.799
    1ASP    HB1    8   1.719   3.008   4.697
    1ASP    HB2    9   1.763   3.020   4.870
    1ASP     CG   10   1.559   3.049   4.828
    1ASP    OD1   11   1.452   2.992   4.860
    1ASP    OD2   12   1.559   3.173   4.815
    1ASP      C   13   1.803   2.764   4.771
    1ASP      O   14   1.895   2.742   4.848
    2GLY      N   15   1.816   2.742   4.637
    2GLY     HN   16   1.736   2.763   4.582
    2GLY     CA   17   1.941   2.702   4.577
    2GLY    HA1   18   1.913   2.683   4.474
    2GLY    HA2   19   1.980   2.614   4.626
    2GLY      C   20   2.053   2.800   4.573
    2GLY      O   21   2.035   2.921   4.595
    3ASP      N   22   2.179   2.751   4.549
    3ASP     HN   23   2.197   2.655   4.564
    3ASP     CA   24   2.291   2.836   4.524
    3ASP     HA   25   2.303   2.904   4.607
    3ASP     CB   26   2.426   2.765   4.524
    3ASP    HB1   27   2.509   2.834   4.498
    3ASP    HB2   28   2.437   2.684   4.449
    3ASP     CG   29   2.470   2.718   4.659
    3ASP    OD1   30   2.401   2.743   4.760
    3ASP    OD2   31   2.578   2.658   4.666
    3ASP      C   32   2.278   2.928   4.406
    3ASP      O   33   2.191   2.907   4.317
    4GLY      N   34   2.348   3.047   4.402
    4GLY     HN   35   2.422   3.050   4.469
    4GLY     CA   36   2.338   3.154   4.309
    4GLY    HA1   37   2.398   3.230   4.357
    4GLY    HA2   38   2.233   3.181   4.313
    4GLY      C   39   2.384   3.138   4.165
    4GLY      O   40   2.433   3.030   4.120
    5PRO      N   41   2.381   3.244   4.079
    5PRO     CD   42   2.335   3.377   4.131
    5PRO    HD1   43   2.416   3.428   4.189
    5PRO    HD2   44   2.238   3.373   4.183
    5PRO     CA   45   2.449   3.255   3.950
    5PRO     HA   46   2.400   3.193   3.876
    5PRO     CB   47   2.441   3.407   3.924
    5PRO    HB1   48   2.441   3.430   3.815
    5PRO    HB2   49   2.527   3.462   3.966
    5PRO     CG   50   2.320   3.463   4.003
    5PRO    HG1   51   2.313   3.572   4.021
    5PRO    HG2   52   2.230   3.444   3.941
    5PRO      C   53   2.596   3.211   3.949
    5PRO      O   54   2.660   3.244   4.055
    6GLY      N   55   2.657   3.145   3.844
    6GLY     HN   56   2.611   3.113   3.762
    6GLY     CA   57   2.798   3.127   3.836
    6GLY    HA1   58   2.817   3.092   3.735
    6GLY    HA2   59   2.833   3.057   3.910
    6GLY      C   60   2.890   3.261   3.846
    6GLY      O   61   2.843   3.376   3.844
    7ASP      N   62   3.020   3.240   3.823
    7ASP     HN   63   3.055   3.148   3.840
    7ASP     CA   64   3.115   3.336   3.782
    7ASP     HA   65   3.117   3.413   3.857
    7ASP     CB   66   3.262   3.278   3.789
    7ASP    HB1   67   3.350   3.337   3.754
    7ASP    HB2   68   3.258   3.192   3.718
    7ASP     CG   69   3.294   3.225   3.923
    7ASP    OD1   70   3.250   3.281   4.026
    7ASP    OD2   71   3.382   3.135   3.931
    7ASP      C   72   3.095   3.387   3.639
    7ASP      O   73   3.034   3.320   3.556
    8PRO      N   74   3.132   3.513   3.612
    8PRO     CD   75   3.187   3.610   3.705
    8PRO    HD1   76   3.289   3.580   3.738
    8PRO    HD2   77   3.124   3.628   3.794
    8PRO     CA   78   3.115   3.571   3.474
    8PRO     HA   79   3.014   3.611   3.473
    8PRO     CB   80   3.218   3.687   3.478
    8PRO    HB1   81   3.193   3.761   3.400
    8PRO    HB2   82   3.321   3.645   3.471
    8PRO     CG   83   3.201   3.736   3.622
    8PRO    HG1   84   3.276   3.804   3.667
    8PRO    HG2   85   3.103   3.788   3.612
    8PRO      C   86   3.140   3.485   3.346
    8PRO      O   87   3.250   3.430   3.339
    9GLY      N   88   3.047   3.482   3.253
    9GLY     HN   89   2.959   3.529   3.263
    9GLY     CA   90   3.071   3.427   3.124
    9GLY    HA1   91   2.973   3.422   3.080
    9GLY    HA2   92   3.119   3.330   3.128
    9GLY      C   93   3.153   3.524   3.034
    9GLY      O   94   3.168   3.638   3.076
   10ASP      N   95   3.204   3.479   2.913
   10ASP     HN   96   3.203   3.386   2.878
   10ASP     CA   97   3.279   3.563   2.826
   10ASP     HA   98   3.361   3.594   2.889
   10ASP     CB   99   3.350   3.488   2.707
   10ASP    HB1  100   3.402   3.566   2.647
   10ASP    HB2  101   3.276   3.433   2.645
   10ASP     CG  102   3.460   3.396   2.755
   10ASP    OD1  103   3.549   3.439   2.835
   10ASP    OD2  104   3.470   3.291   2.685
   10ASP      C  105   3.209   3.680   2.767
   10ASP      O  106   3.089   3.682   2.736
   11GLY      N  107   3.286   3.793   2.751
   11GLY     HN  108   3.376   3.786   2.792
   11GLY     CA  109   3.242   3.915   2.686
   11GLY    HA1  110   3.275   3.997   2.749
   11GLY    HA2  111   3.135   3.914   2.675
   11GLY      C  112   3.301   3.941   2.553
   11GLY    OT1  113   3.421   3.982   2.543
   11GLY    OT2  114   3.232   3.936   2.450
   12SOD    SOD  115   4.701   0.624   2.642
   13SOD    SOD  116   7.202   1.331   1.416
   14SOD    SOD  117   0.020   6.688   1.958
   15SOD    SOD  118   6.440   0.165   2.940
   16SOD    SOD  119   4.209   1.747   3.287
   17SOD    SOD  120   2.022   3.014   5.868
   18SOD    SOD  121   5.929   2.358   1.539
   19SOD    SOD  122   4.988   0.512   4.379
   20SOD    SOD  123   5.487   1.787   4.258
   21SOD    SOD  124   2.676   3.990   5.796
   22SOD    SOD  125   6.592   1.391   4.966
   23SOD    SOD  126   3.845   1.977   2.201
   24SOD    SOD  127   2.439   0.517   5.715
   25SOD    SOD  128   2.897   4.401   0.578
   26SOD    SOD  129   3.793   5.592   2.964
   27SOD    SOD  130   4.178   3.468   3.931
   28SOD    SOD  131   5.850   2.523   4.266
   29SOD    SOD  132   0.117   2.485   3.845
   30SOD    SOD  133   3.269   0.574   3.101
   31SOD    SOD  134   5.172   0.560   3.740
   32SOD    SOD  135   3.080   4.422   2.352
   33SOD    SOD  136   1.314   4.025   2.945
   34SOD    SOD  137   7.036   0.444   2.670
   35SOD    SOD  138   3.835   3.116   2.162
   36SOD    SOD  139   6.089   3.318   5.585
   37SOD    SOD  140   4.068   5.263   0.286
   38SOD    SOD  141   1.477   5.199   4.170
   39SOD    SOD  142   0.100   4.297   3.448
   40SOD    SOD  143   4.459   0.608   0.555
   41SOD    SOD  144   0.493   3.098   1.353
   42SOD    SOD  145   5.719   4.263   5.359
   43CLA    CLA  146   0.964   5.074   4.068
   44CLA    CLA  147   3.734   0.897   4.648
   45CLA    CLA  148   2.037   4.226   0.735
   46CLA    CLA  149   5.676   4.623   4.697
   47CLA    CLA  150   0.592   5.692   1.241
   48CLA    CLA  151   1.749   6.360   3.217
   49CLA    CLA  152   6.621   3.141   5.540
   50CLA    CLA  153   3.698   6.448   4.425
   51CLA    CLA  154   0.245   4.800   3.371
   52CLA    CLA  155   1.129   2.096   3.035
   53CLA    CLA  156   0.445   3.470   1.105
   54CLA    CLA  157   5.378   4.865   3.934
   55CLA    CLA  158   0.351   0.494   2.702
   56CLA    CLA  159   3.728   5.118   5.433
   57CLA    CLA  160   1.739   4.925   2.485
   58CLA    CLA  161   4.242   3.038   3.204
   59CLA    CLA  162   7.001   3.363   2.468
   60CLA    CLA  163   2.192   1.515   5.594
   61CLA    CLA  164   5.803   3.495   0.187
   62CLA    CLA  165   4.965   3.000   3.220
   63CLA    CLA  166   6.940   3.658   5.090
   64CLA    CLA  167   4.036   5.910   1.355
   65CLA    CLA  168   3.734   0.291   2.379
   66CLA    CLA  169   0.854   4.588   2.357
   67CLA    CLA  170   0.717   1.736   2.716
   68CLA    CLA  171   4.733   1.013   0.607
   69CLA    CLA  172   5.038   1.717   3.482
   70TIP3   OH2  173   3.590   4.433   5.179
   70TIP3    H1  174   3.555   4.344   5.185
   70TIP3    H2  175   3.649   4.441   5.254
   71TIP3   OH2  176   0.799   5.992   0.393
   71TIP3    H1  177   0.759   5.958   0.473
   71TIP3    H2  178   0.747   6.069   0.371
   72TIP3   OH2  179   4.082   4.234   5.433
   72TIP3    H1  180   4.060   4.320   5.397
   72TIP3    H2  181   4.136   4.194   5.365
   73TIP3   OH2  182   3.589   3.246   0.474
   73TIP3    H1  183   3.572   3.285   0.388
   73TIP3    H2  184   3.507   3.203   0.497
   74TIP3   OH2  185   2.540   5.421   4.047
   74TIP3    H1  186   2.449   5.422   4.018
   74TIP3    H2  187   2.564   5.328   4.048
   75TIP3   OH2  188   0.913   6.502   2.193
   75TIP3    H1  189   0.987   6.548   2.233
   75TIP3    H2  190   0.921   6.521   2.099
   76TIP3   OH2  191   4.908   5.636   0.617
   76TIP3    H1  192   4.868   5.715   0.579
   76TIP3    H2  193   4.863   5.625   0.701
   77TIP3   OH2  194   1.841   0.997   0.150
   77TIP3    H1  195   1.762   1.028   0.195
   77TIP3    H2  196   1.832   0.901   0.149
   78TIP3   OH2  197   6.303   5.755   5.769
   78TIP3    H1  198   6.212   5.730   5.781
   78TIP3    H2  199   6.349   5.673   5.751
   79TIP3   OH2  200   4.373   2.778   5.795
   79TIP3    H1  201   4.362   2.809   5.705
   79TIP3    H2  202   4.452   2.723   5.792
   80TIP3   OH2  203   2.524   2.440   2.900
   80TIP3    H1  204   2.559   2.413   2.985
   80TIP3    H2  205   2.518   2.359   2.850
   81TIP3   OH2  206   0.189   1.114   0.888
   81TIP3    H1  207   0.125   1.121   0.817
   81TIP3    H2  208   0.269   1.150   0.851
   82TIP3   OH2  209   1.147   3.887   3.934
   82TIP3    H1  210   1.076   3.945   3.963
   82TIP3    H2  211   1.227   3.933   3.961
   83TIP3   OH2  212   6.701   0.865   0.047
   83TIP3    H1  213   6.654   0.904  -0.026
   83TIP3    H2  214   6.639   0.866   0.120
   84TIP3   OH2  215   1.796   4.482   3.996
   84TIP3    H1  216   1.866   4.526   3.947
   84TIP3    H2  217   1.841   4.441   4.070
   85TIP3   OH2  218   3.165   5.818   1.413
   85TIP3    H1  219   3.235   5.758   1.439
   85TIP3    H2  220   3.173   5.891   1.475
   86TIP3   OH2  221   2.160   5.582   0.418
   86TIP3    H1  222   2.203   5.648   0.362
   86TIP3    H2  223   2.082   5.627   0.452
   87TIP3   OH2  224   3.940   2.749   3.714
   87TIP3    H1  225   3.875   2.776   3.648
   87TIP3    H2  226   3.905   2.784   3.796
   88TIP3   OH2  227   6.425   1.481   1.912
   88TIP3    H1  228   6.362   1.411   1.931
   88TIP3    H2  229   6.454   1.510   1.999
   89TIP3   OH2  230   4.454   5.173   4.680
   89TIP3    H1  231   4.418   5.136   4.600
   89TIP3    H2  232   4.379   5.214   4.724
   90TIP3   OH2  233   1.386   2.932   2.643
   90TIP3    H1  234   1.336   2.875   2.701
   90TIP3    H2  235   1.444   2.873   2.596
   91TIP3   OH2  236   1.192   1.291   0.900
   91TIP3    H1  237   1.206   1.382   0.876
   91TIP3    H2  238   1.246   1.241   0.838
   92TIP3   OH2  239   4.883   4.895   3.275
   92TIP3    H1  240   4.935   4.817   3.256
   92TIP3    H2  241   4.792   4.866   3.263
   93TIP3   OH2  242   2.680   4.858   5.289
   93TIP3    H1  243   2.758   4.804   5.305
   93TIP3    H2  244   2.700   4.941   5.331
   94TIP3   OH2  245   4.128   0.643   3.467
   94TIP3    H1  246   4.223   0.644   3.476
   94TIP3    H2  247   4.112   0.590   3.389
   95TIP3   OH2  248   1.549   3.855   4.281
   95TIP3    H1  249   1.536   3.854   4.376
   95TIP3    H2  250   1.639   3.886   4.269
   96TIP3   OH2  251   1.530   4.930   0.700
   96TIP3    H1  252   1.452   4.961   0.746
   96TIP3    H2  253   1.563   4.858   0.754
   97TIP3   OH2  254   6.925   2.177   0.351
   97TIP3    H1  255   6.888   2.230   0.422
   97TIP3    H2  256   7.019   2.196   0.353
   98TIP3   OH2  257   4.458   3.901   2.368
   98TIP3    H1  258   4.366   3.925   2.360
   98TIP3    H2  259   4.470   3.831   2.303
   99TIP3   OH2  260   4.463   0.605   2.464
   99TIP3    H1  261   4.431   0.693   2.447
   99TIP3    H2  262   4.420   0.579   2.546
  100TIP3   OH2  263   6.421   6.483   1.072
  100TIP3    H1  264   6.349   6.530   1.031
  100TIP3    H2  265   6.454   6.425   1.003
  101TIP3   OH2  266   1.311   2.055   0.416
  101TIP3    H1  267   1.333   2.097   0.332
  101TIP3    H2  268   1.358   2.108   0.481
  102TIP3   OH2  269   3.335   0.370   0.593
  102TIP3    H1  270   3.418   0.338   0.629
  102TIP3    H2  271   3.289   0.405   0.669
  103TIP3   OH2  272   0.697   6.777   0.510
  103TIP3    H1  273   0.652   6.788   0.593
  103TIP3    H2  274   0.629   6.746   0.450
  104TIP3   OH2  275   3.716   4.071   1.030
  104TIP3    H1  276   3.630   4.056   0.992
  104TIP3    H2  277   3.702   4.139   1.096
  105TIP3   OH2  278   4.493   0.582   1.335
  105TIP3    H1  279   4.481   0.659   1.279
  105TIP3    H2  280   4.477   0.507   1.278
  106TIP3   OH2  281   4.075   6.051   0.262
  106TIP3    H1  282   4.055   6.105   0.185
  106TIP3    H2  283   4.006   6.072   0.325
  107TIP3   OH2  284   1.534   5.625   3.585
  107TIP3    H1  285   1.588   5.602   3.510
  107TIP3    H2  286   1.577   5.701   3.624
  108TIP3   OH2  287   2.515   0.600   2.432
  108TIP3    H1  288   2.468   0.526   2.471
  108TIP3    H2  289   2.448   0.667   2.421
  109TIP3   OH2  290   0.612   3.064   1.144
  109TIP3    H1  291   0.639   3.142   1.095
  109TIP3    H2  292   0.540   3.027   1.093
  110TIP3   OH2  293   2.556   2.519   0.718
  110TIP3    H1  294   2.586   2.577   0.648
  110TIP3    H2  295   2.633   2.509   0.775
  111TIP3   OH2  296   3.152   1.840   2.340
  111TIP3    H1  297   3.062   1.849   2.309
  111TIP3    H2  298   3.146   1.854   2.435
  112TIP3   OH2  299   0.345   1.177   1.188
  112TIP3    H1  300   0.414   1.198   1.125
  112TIP3    H2  301   0.373   1.222   1.268
  113TIP3   OH2  302   5.383   3.838   0.196
  113TIP3    H1  303   5.442   3.911   0.175
  113TIP3    H2  304   5.335   3.868   0.274
  114TIP3   OH2  305   6.073   5.736   0.541
  114TIP3    H1  306   6.051   5.829   0.534
  114TIP3    H2  307   5.988   5.692   0.542
  115TIP3   OH2  308   5.034   2.825   2.923
  115TIP3    H1  309   4.952   2.873   2.936
  115TIP3    H2  310   5.080   2.875   2.856
  116TIP3   OH2  311   3.393   2.295   3.089
  116TIP3    H1  312   3.403   2.233   3.018
  116TIP3    H2  313   3.437   2.255   3.164
  117TIP3   OH2  314   1.302   4.407   4.675
  117TIP3    H1  315   1.259   4.322   4.673
  117TIP3    H2  316   1.336   4.415   4.764
  118TIP3   OH2  317   1.029   5.837   3.978
  118TIP3    H1  318   1.095   5.907   3.975
  118TIP3    H2  319   1.077   5.757   3.958
  119TIP3   OH2  320   2.557   0.069   0.167
  119TIP3    H1  321   2.489   0.025   0.219
  119TIP3    H2  322   2.559   0.158   0.201
  120TIP3   OH2  323   2.899   1.441   4.364
  120TIP3    H1  324   2.982   1.396   4.348
  120TIP3    H2  325   2.858   1.392   4.436
  121TIP3   OH2  326   4.354   5.047   0.792
  121TIP3    H1  327   4.264   5.021   0.813
  121TIP3    H2  328   4.346   5.136   0.758
  122TIP3   OH2  329   2.600   0.311   5.074
  122TIP3    H1  330   2.693   0.288   5.067
  122TIP3    H2  331   2.587   0.335   5.165
  123TIP3   OH2  332   6.688   4.990   0.475
  123TIP3    H1  333   6.663   5.082   0.488
  123TIP3    H2  334   6.775   4.994   0.437
  124TIP3   OH2  335   6.222   2.394   1.146
  124TIP3    H1  336   6.220   2.487   1.126
  124TIP3    H2  337   6.132   2.364   1.133
  125TIP3   OH2  338   4.424   3.561   2.839
  125TIP3    H1  339   4.506   3.512   2.841
  125TIP3    H2  340   4.398   3.561   2.747
  126TIP3   OH2  341   6.844   0.330   1.213
  126TIP3    H1  342   6.889   0.383   1.279
  126TIP3    H2  343   6.798   0.263   1.264
  127TIP3   OH2  344   3.149   3.549   2.340
  127TIP3    H1  345   3.196   3.619   2.294
  127TIP3    H2  346   3.194   3.541   2.424
  128TIP3   OH2  347   1.064   5.811   5.175
  128TIP3    H1  348   1.018   5.738   5.217
  128TIP3    H2  349   1.097   5.775   5.093
  129TIP3   OH2  350   4.484   1.729   0.570
  129TIP3    H1  351   4.511   1.777   0.647
  129TIP3    H2  352   4.524   1.776   0.497
  130TIP3   OH2  353   7.068   2.958   3.221
  130TIP3    H1  354   7.096   3.025   3.158
  130TIP3    H2  355   7.096   2.875   3.182
  131TIP3   OH2  356   5.804   4.726   0.903
  131TIP3    H1  357   5.807   4.668   0.827
  131TIP3    H2  358   5.712   4.727   0.929
  132TIP3   OH2  359   4.543   2.038   0.155
  132TIP3    H1  360   4.501   2.100   0.095
  132TIP3    H2  361   4.617   2.003   0.106
  133TIP3   OH2  362   3.500   1.948   3.443
  133TIP3    H1  363   3.448   2.003   3.502
  133TIP3    H2  364   3.518   1.869   3.493
  134TIP3   OH2  365   5.446   6.225   4.178
  134TIP3    H1  366   5.369   6.276   4.204
  134TIP3    H2  367   5.476   6.183   4.258
  135TIP3   OH2  368   3.619   4.988   5.108
  135TIP3    H1  369   3.611   4.896   5.135
  135TIP3    H2  370   3.636   5.035   5.190
  136TIP3   OH2  371   1.221   5.541   2.500
  136TIP3    H1  372   1.200   5.451   2.526
  136TIP3    H2  373   1.296   5.565   2.555
  137TIP3   OH2  374   6.458   1.930   5.409
  137TIP3    H1  375   6.367   1.942   5.382
  137TIP3    H2  376   6.452   1.912   5.503
  138TIP3   OH2  377   3.209   0.499  -0.035
  138TIP3    H1  378   3.299   0.528  -0.040
  138TIP3    H2  379   3.184   0.514   0.056
  139TIP3   OH2  380   0.706   6.049   3.999
  139TIP3    H1  381   0.677   6.020   3.913
  139TIP3    H2  382   0.783   6.103   3.981
  140TIP3   OH2  383   3.885   0.858   2.539
  140TIP3    H1  384   3.895   0.850   2.444
  140TIP3    H2  385   3.791   0.873   2.552
  141TIP3   OH2  386   2.228   4.283   3.738
  141TIP3    H1  387   2.316   4.319   3.729
  141TIP3    H2  388   2.171   4.349   3.697
  142TIP3   OH2  389   5.959   2.416   5.792
  142TIP3    H1  390   5.881   2.462   5.762
  142TIP3    H2  391   5.937   2.385   5.880
  143TIP3   OH2  392   2.317   3.976   3.423
  143TIP3    H1  393   2.337   4.066   3.398
  143TIP3    H2  394   2.359   3.922   3.356
  144TIP3   OH2  395   0.398   4.993   0.734
  144TIP3    H1  396   0.335   5.065   0.733
  144TIP3    H2  397   0.353   4.924   0.783
  145TIP3   OH2  398   5.532   3.155   0.842
  145TIP3    H1  399   5.584   3.228   0.876
  145TIP3    H2  400   5.556   3.149   0.750
  146TIP3   OH2  401   1.835   3.893   3.690
  146TIP3    H1  402   1.804   3.911   3.779
  146TIP3    H2  403   1.898   3.962   3.673
  147TIP3   OH2  404   4.165   2.934   2.399
  147TIP3    H1  405   4.143   2.925   2.491
  147TIP3    H2  406   4.261   2.933   2.397
  148TIP3   OH2  407   0.945   4.340   1.601
  148TIP3    H1  408   0.982   4.256   1.576
  148TIP3    H2  409   0.930   4.333   1.695
  149TIP3   OH2  410   6.430   2.055   2.984
  149TIP3    H1  411   6.379   1.974   2.994
  149TIP3    H2  412   6.369   2.124   3.011
  150TIP3   OH2  413   6.256   4.114   5.675
  150TIP3    H1  414   6.315   4.112   5.750
  150TIP3    H2  415   6.216   4.027   5.673
  151TIP3   OH2  416   5.181   5.127   5.636
  151TIP3    H1  417   5.258   5.152   5.584
  151TIP3    H2  418   5.211   5.129   5.727
  152TIP3   OH2  419   6.283   1.147   2.748
  152TIP3    H1  420   6.300   1.180   2.660
  152TIP3    H2  421   6.370   1.141   2.788
  153TIP3   OH2  422   5.987   4.313   3.770
  153TIP3    H1  423   5.912   4.274   3.726
  153TIP3    H2  424   5.969   4.407   3.771
  154TIP3   OH2  425   4.955   4.333   4.110
  154TIP3    H1  426   4.944   4.310   4.202
  154TIP3    H2  427   4.994   4.421   4.111
  155TIP3   OH2  428   1.512   1.959   1.397
  155TIP3    H1  429   1.505   2.053   1.407
  155TIP3    H2  430   1.545   1.947   1.307
  156TIP3   OH2  431   1.546   4.558   1.545
  156TIP3    H1  432   1.479   4.626   1.539
  156TIP3    H2  433   1.499   4.476   1.534
  157TIP3   OH2  434   4.353   1.726   3.942
  157TIP3    H1  435   4.431   1.739   3.997
  157TIP3    H2  436   4.281   1.757   3.997
  158TIP3   OH2  437   6.403   0.761   0.791
  158TIP3    H1  438   6.339   0.746   0.861
  158TIP3    H2  439   6.487   0.760   0.835
  159TIP3   OH2  440   3.576   0.495   4.827
  159TIP3    H1  441   3.496   0.467   4.782
  159TIP3    H2  442   3.646   0.481   4.763
  160TIP3   OH2  443   6.883   4.433   2.923
  160TIP3    H1  444   6.899   4.518   2.964
  160TIP3    H2  445   6.876   4.452   2.829
  161TIP3   OH2  446   4.004   1.925   4.929
  161TIP3    H1  447   3.929   1.981   4.909
  161TIP3    H2  448   4.050   1.972   4.999
  162TIP3   OH2  449   0.845   1.505   5.813
  162TIP3    H1  450   0.814   1.587   5.774
  162TIP3    H2  451   0.913   1.474   5.754
  163TIP3   OH2  452   1.825   4.349   0.084
  163TIP3    H1  453   1.849   4.392   0.002
  163TIP3    H2  454   1.851   4.411   0.152
  164TIP3   OH2  455   2.254   5.642   1.701
  164TIP3    H1  456   2.276   5.581   1.772
  164TIP3    H2  457   2.289   5.601   1.622
  165TIP3   OH2  458   0.369   2.021   5.827
  165TIP3    H1  459   0.378   2.055   5.915
  165TIP3    H2  460   0.290   2.063   5.793
  166TIP3   OH2  461   6.173   4.587   4.245
  166TIP3    H1  462   6.102   4.524   4.243
  166TIP3    H2  463   6.139   4.664   4.200
  167TIP3   OH2  464   2.196   1.434   2.741
  167TIP3    H1  465   2.111   1.393   2.725
  167TIP3    H2  466   2.247   1.418   2.661
  168TIP3   OH2  467   6.459   3.168   1.050
  168TIP3    H1  468   6.458   3.172   0.955
  168TIP3    H2  469   6.456   3.259   1.079
  169TIP3   OH2  470   6.691   4.198   1.998
  169TIP3    H1  471   6.775   4.184   1.954
  169TIP3    H2  472   6.670   4.113   2.037
  170TIP3   OH2  473   1.914   6.186   4.635
  170TIP3    H1  474   1.893   6.098   4.667
  170TIP3    H2  475   1.970   6.224   4.703
  171TIP3   OH2  476   2.146   1.077   2.638
  171TIP3    H1  477   2.164   1.134   2.563
  171TIP3    H2  478   2.227   1.079   2.690
  172TIP3   OH2  479   1.985   4.092   4.919
  172TIP3    H1  480   2.017   4.048   4.998
  172TIP3    H2  481   1.939   4.169   4.951
  173TIP3   OH2  482   3.865   2.668   5.102
  173TIP3    H1  483   3.848   2.639   5.013
  173TIP3    H2  484   3.950   2.713   5.097
  174TIP3   OH2  485   5.009   1.943   0.755
  174TIP3    H1  486   5.089   1.920   0.803
  174TIP3    H2  487   4.980   1.862   0.715
  175TIP3   OH2  488   4.362   0.853   1.470
  175TIP3    H1  489   4.419   0.911   1.419
  175TIP3    H2  490   4.421   0.787   1.506
  176TIP3   OH2  491   2.239   0.384   1.192
  176TIP3    H1  492   2.289   0.437   1.130
  176TIP3    H2  493   2.300   0.316   1.220
  177TIP3   OH2  494   5.587   2.147   2.858
  177TIP3    H1  495   5.604   2.060   2.823
  177TIP3    H2  496   5.560   2.132   2.949
  178TIP3   OH2  497   6.176   4.700   5.872
  178TIP3    H1  498   6.180   4.734   5.783
  178TIP3    H2  499   6.264   4.717   5.908
  179TIP3   OH2  500   5.261   2.007   1.640
  179TIP3    H1  501   5.188   2.068   1.639
  179TIP3    H2  502   5.263   1.973   1.730
  180TIP3   OH2  503   1.151   5.758   4.912
  180TIP3    H1  504   1.246   5.759   4.905
  180TIP3    H2  505   1.121   5.718   4.830
  181TIP3   OH2  506   3.247   6.618   5.389
  181TIP3    H1  507   3.313   6.647   5.325
  181TIP3    H2  508   3.168   6.603   5.337
  182TIP3   OH2  509   4.344   6.684   1.478
  182TIP3    H1  510   4.392   6.654   1.555
  182TIP3    H2  511   4.389   6.764   1.451
  183TIP3   OH2  512   1.990   6.602   1.966
  183TIP3    H1  513   1.918   6.617   1.904
  183TIP3    H2  514   2.069   6.626   1.917
  184TIP3   OH2  515   1.943   5.045   3.849
  184TIP3    H1  516   1.899   5.029   3.766
  184TIP3    H2  517   1.888   5.110   3.894
  185TIP3   OH2  518   0.957   3.906   3.006
  185TIP3    H1  519   0.952   4.001   3.005
  185TIP3    H2  520   1.042   3.887   3.047
  186TIP3   OH2  521   1.500   4.294   0.985
  186TIP3    H1  522   1.594   4.282   0.970
  186TIP3    H2  523   1.458   4.230   0.928
  187TIP3   OH2  524   5.735   2.791   1.738
  187TIP3    H1  525   5.771   2.819   1.654
  187TIP3    H2  526   5.650   2.836   1.743
  188TIP3   OH2  527   2.400   5.944   5.350
  188TIP3    H1  528   2.315   5.900   5.349
  188TIP3    H2  529   2.460   5.880   5.388
  189TIP3   OH2  530   5.809   2.620   2.780
  189TIP3    H1  531   5.883   2.588   2.830
  189TIP3    H2  532   5.749   2.657   2.846
  190TIP3   OH2  533   5.732   6.769   3.421
  190TIP3    H1  534   5.723   6.674   3.418
  190TIP3    H2  535   5.816   6.784   3.464
  191TIP3   OH2  536   1.352   5.678   0.888
  191TIP3    H1  537   1.271   5.727   0.900
  191TIP3    H2  538   1.411   5.711   0.956
  192TIP3   OH2  539   5.486   3.784   0.928
  192TIP3    H1  540   5.435   3.704   0.919
  192TIP3    H2  541   5.521   3.780   1.017
  193TIP3   OH2  542   1.380   2.783   3.115
  193TIP3    H1  543   1.351   2.865   3.075
  193TIP3    H2  544   1.391   2.723   3.042
  194TIP3   OH2  545   3.568   5.690   2.979
  194TIP3    H1  546   3.566   5.784   2.964
  194TIP3    H2  547   3.499   5.675   3.044
  195TIP3   OH2  548   5.273   2.823   5.543
  195TIP3    H1  549   5.236   2.824   5.455
  195TIP3    H2  550   5.244   2.740   5.580
  196TIP3   OH2  551   4.782   5.270   0.563
  196TIP3    H1  552   4.755   5.207   0.629
  196TIP3    H2  553   4.817   5.216   0.492
  197TIP3   OH2  554   2.595   0.585   0.303
  197TIP3    H1  555   2.564   0.596   0.393
  197TIP3    H2  556   2.625   0.672   0.277
  198TIP3   OH2  557   0.280   6.105   1.835
  198TIP3    H1  558   0.261   6.080   1.744
  198TIP3    H2  559   0.198   6.143   1.866
  199TIP3   OH2  560   2.371   1.051   2.801
  199TIP3    H1  561   2.392   0.960   2.780
  199TIP3    H2  562   2.336   1.047   2.890
  200TIP3   OH2  563   6.079   5.856   4.302
  200TIP3    H1  564   6.051   5.768   4.278
  200TIP3    H2  565   6.092   5.901   4.219
  201TIP3   OH2  566   6.279   4.647   2.956
  201TIP3    H1  567   6.306   4.732   2.992
  201TIP3    H2  568   6.251   4.596   3.032
  202TIP3   OH2  569   1.377   5.745   2.959
  202TIP3    H1  570   1.309   5.685   2.929
  202TIP3    H2  571   1.341   5.832   2.941
  203TIP3   OH2  572   2.851   5.424   4.054
  203TIP3    H1  573   2.818   5.510   4.026
  203TIP3    H2  574   2.900   5.391   3.979
  204TIP3   OH2  575   1.695   1.892   3.002
  204TIP3    H1  576   1.602   1.867   3.007
  204TIP3    H2  577   1.696   1.969   2.944
  205TIP3   OH2  578   5.270   6.455   0.388
  205TIP3    H1  579   5.243   6.547   0.388
  205TIP3    H2  580   5.225   6.418   0.464
  206TIP3   OH2  581   1.644   6.417   0.234
  206TIP3    H1  582   1.673   6.464   0.155
  206TIP3    H2  583   1.584   6.478   0.277
  207TIP3   OH2  584   6.601   5.400   4.150
  207TIP3    H1  585   6.548   5.334   4.106
  207TIP3    H2  586   6.675   5.351   4.186
  208TIP3   OH2  587   2.275   0.524   3.960
  208TIP3    H1  588   2.368   0.514   3.940
  208TIP3    H2  589   2.232   0.530   3.875
  209TIP3   OH2  590   2.828   3.204   2.667
  209TIP3    H1  591   2.878   3.183   2.746
  209TIP3    H2  592   2.842   3.298   2.655
  210TIP3   OH2  593   1.205   0.599   5.728
  210TIP3    H1  594   1.142   0.616   5.658
  210TIP3    H2  595   1.240   0.512   5.709
  211TIP3   OH2  596   7.157   4.709   1.088
  211TIP3    H1  597   7.109   4.641   1.135
  211TIP3    H2  598   7.242   4.712   1.132
  212TIP3   OH2  599   3.565   3.792   3.793
  212TIP3    H1  600   3.501   3.727   3.823
  212TIP3    H2  601   3.555   3.865   3.854
  213TIP3   OH2  602   4.180   6.473   1.627
  213TIP3    H1  603   4.207   6.542   1.566
  213TIP3    H2  604   4.088   6.457   1.606
  214TIP3   OH2  605   3.688   1.447   2.175
  214TIP3    H1  606   3.630   1.521   2.158
  214TIP3    H2  607   3.642   1.395   2.240
  215TIP3   OH2  608   7.184   2.156   0.711
  215TIP3    H1  609   7.268   2.201   0.706
  215TIP3    H2  610   7.147   2.164   0.623
  216TIP3   OH2  611   5.311   1.663   5.710
  216TIP3    H1  612   5.238   1.602   5.696
  216TIP3    H2  613   5.361   1.660   5.628
  217TIP3   OH2  614   0.241   6.230   0.355
  217TIP3    H1  615   0.155   6.197   0.381
  217TIP3    H2  616   0.294   6.151   0.343
  218TIP3   OH2  617   0.293   2.624   5.202
  218TIP3    H1  618   0.266   2.587   5.286
  218TIP3    H2  619   0.328   2.710   5.224
  219TIP3   OH2  620   5.801   5.119   3.696
  219TIP3    H1  621   5.725   5.084   3.648
  219TIP3    H2  622   5.764   5.155   3.776
  220TIP3   OH2  623   7.069   5.312   2.089
  220TIP3    H1  624   7.109   5.258   2.158
  220TIP3    H2  625   7.126   5.389   2.083
  221TIP3   OH2  626   3.192   2.589   0.121
  221TIP3    H1  627   3.255   2.633   0.178
  221TIP3    H2  628   3.131   2.659   0.094
  222TIP3   OH2  629   5.209   0.950   3.276
  222TIP3    H1  630   5.148   0.942   3.202
  222TIP3    H2  631   5.282   1.002   3.241
  223TIP3   OH2  632   0.416   1.887   0.186
  223TIP3    H1  633   0.464   1.960   0.146
  223TIP3    H2  634   0.355   1.859   0.118
  224TIP3   OH2  635   0.153   2.683   1.654
  224TIP3    H1  636   0.131   2.760   1.707
  224TIP3    H2  637   0.100   2.613   1.691
  225TIP3   OH2  638   7.074   4.812   2.569
  225TIP3    H1  639   7.126   4.748   2.617
  225TIP3    H2  640   7.055   4.769   2.485
  226TIP3   OH2  641   4.985   2.326   3.441
  226TIP3    H1  642   4.972   2.232   3.433
  226TIP3    H2  643   5.065   2.343   3.392
  227TIP3   OH2  644   5.020   4.066   5.572
  227TIP3    H1  645   4.953   4.125   5.538
  227TIP3    H2  646   5.091   4.071   5.508
  228TIP3   OH2  647   4.531   4.890   2.947
  228TIP3    H1  648   4.587   4.820   2.912
  228TIP3    H2  649   4.495   4.932   2.869
  229TIP3   OH2  650   6.234   2.612   5.259
  229TIP3    H1  651   6.235   2.702   5.226
  229TIP3    H2  652   6.321   2.600   5.297
  230TIP3   OH2  653   0.960   3.172   1.504
  230TIP3    H1  654   1.053   3.190   1.488
  230TIP3    H2  655   0.914   3.216   1.433
  231TIP3   OH2  656   4.759   2.699   3.954
  231TIP3    H1  657   4.813   2.645   3.897
  231TIP3    H2  658   4.679   2.648   3.967
  232TIP3   OH2  659   2.247   2.458   4.559
  232TIP3    H1  660   2.342   2.448   4.550
  232TIP3    H2  661   2.232   2.455   4.654
  233TIP3   OH2  662  -0.012   5.540   5.535
  233TIP3    H1  663   0.035   5.481   5.476
  233TIP3    H2  664  -0.022   5.621   5.485
  234TIP3   OH2  665   5.818   3.728   1.515
  234TIP3    H1  666   5.841   3.820   1.529
  234TIP3    H2  667   5.897   3.680   1.538
  235TIP3   OH2  668   4.684   3.818   0.186
  235TIP3    H1  669   4.677   3.839   0.279
  235TIP3    H2  670   4.595   3.829   0.153
  236TIP3   OH2  671   4.987   3.233   3.734
  236TIP3    H1  672   4.956   3.144   3.717
  236TIP3    H2  673   4.907   3.283   3.753
  237TIP3   OH2  674  -0.011   3.886   4.200
  237TIP3    H1  675  -0.022   3.981   4.205
  237TIP3    H2  676   0.016   3.860   4.288
  238TIP3   OH2  677   1.594   1.034   3.561
  238TIP3    H1  678   1.562   0.975   3.493
  238TIP3    H2  679   1.623   0.976   3.632
  239TIP3   OH2  680   4.496   2.621   0.410
  239TIP3    H1  681   4.532   2.572   0.336
  239TIP3    H2  682   4.517   2.567   0.486
  240TIP3   OH2  683   5.329   6.376   1.353
  240TIP3    H1  684   5.294   6.331   1.430
  240TIP3    H2  685   5.407   6.422   1.384
  241TIP3   OH2  686   4.918   1.152   3.444
  241TIP3    H1  687   4.832   1.161   3.485
  241TIP3    H2  688   4.944   1.242   3.423
  242TIP3   OH2  689   4.842   6.258   2.516
  242TIP3    H1  690   4.906   6.327   2.537
  242TIP3    H2  691   4.764   6.281   2.566
  243TIP3   OH2  692   3.306   6.112   1.309
  243TIP3    H1  693   3.222   6.080   1.341
  243TIP3    H2  694   3.350   6.148   1.386
  244TIP3   OH2  695   0.890   0.463   5.757
  244TIP3    H1  696   0.975   0.495   5.785
  244TIP3    H2  697   0.827   0.523   5.797
  245TIP3   OH2  698   5.527   1.233   2.855
  245TIP3    H1  699   5.487   1.148   2.838
  245TIP3    H2  700   5.532   1.275   2.769
  246TIP3   OH2  701   0.970   0.291   4.928
  246TIP3    H1  702   0.881   0.262   4.946
  246TIP3    H2  703   1.025   0.218   4.955
  247TIP3   OH2  704   1.165   5.847   3.463
  247TIP3    H1  705   1.187   5.789   3.535
  247TIP3    H2  706   1.228   5.919   3.470
  248TIP3   OH2  707   4.108   2.208   0.406
  248TIP3    H1  708   4.041   2.183   0.342
  248TIP3    H2  709   4.179   2.244   0.353
  249TIP3   OH2  710   7.047   2.653   4.485
  249TIP3    H1  711   7.137   2.625   4.472
  249TIP3    H2  712   7.043   2.680   4.576
  250TIP3   OH2  713   5.535   0.815   4.257
  250TIP3    H1  714   5.536   0.898   4.305
  250TIP3    H2  715   5.470   0.761   4.303
  251TIP3   OH2  716   6.399   4.963   4.208
  251TIP3    H1  717   6.404   4.913   4.290
  251TIP3    H2  718   6.342   4.911   4.152
  252TIP3   OH2  719   6.551   4.357   2.177
  252TIP3    H1  720   6.609   4.329   2.247
  252TIP3    H2  721   6.590   4.320   2.097
  253TIP3   OH2  722   0.363   1.456   0.195
  253TIP3    H1  723   0.449   1.488   0.169
  253TIP3    H2  724   0.311   1.536   0.208
  254TIP3   OH2  725   1.507   6.086   2.098
  254TIP3    H1  726   1.413   6.100   2.093
  254TIP3    H2  727   1.517   6.000   2.138
  255TIP3   OH2  728   6.433   1.702   0.183
  255TIP3    H1  729   6.526   1.711   0.203
  255TIP3    H2  730   6.403   1.792   0.170
  256TIP3   OH2  731   3.957   1.597   4.636
  256TIP3    H1  732   3.999   1.608   4.722
  256TIP3    H2  733   3.930   1.505   4.634
  257TIP3   OH2  734   4.527   6.439   1.868
  257TIP3    H1  735   4.476   6.358   1.864
  257TIP3    H2  736   4.607   6.420   1.820
  258TIP3   OH2  737   6.735   3.025   4.209
  258TIP3    H1  738   6.793   2.949   4.206
  258TIP3    H2  739   6.669   3.008   4.142
  259TIP3   OH2  740   3.099   1.187   4.135
  259TIP3    H1  741   3.179   1.214   4.090
  259TIP3    H2  742   3.122   1.193   4.228
  260TIP3   OH2  743   3.137   6.450   1.873
  260TIP3    H1  744   3.169   6.426   1.786
  260TIP3    H2  745   3.212   6.491   1.915
  261TIP3   OH2  746   4.090   2.667   1.063
  261TIP3    H1  747   4.071   2.761   1.058
  261TIP3    H2  748   4.021   2.631   1.119
  262TIP3   OH2  749   1.044   4.737   1.479
  262TIP3    H1  750   1.017   4.821   1.444
  262TIP3    H2  751   1.106   4.702   1.415
  263TIP3   OH2  752   5.441   6.419   3.057
  263TIP3    H1  753   5.450   6.362   2.980
  263TIP3    H2  754   5.483   6.501   3.031
  264TIP3   OH2  755   3.027   1.519   1.113
  264TIP3    H1  756   2.951   1.467   1.138
  264TIP3    H2  757   3.035   1.586   1.181
  265TIP3   OH2  758   1.861   0.524   3.662
  265TIP3    H1  759   1.867   0.435   3.626
  265TIP3    H2  760   1.791   0.519   3.727
  266TIP3   OH2  761   5.217   2.661   3.033
  266TIP3    H1  762   5.211   2.679   3.127
  266TIP3    H2  763   5.140   2.704   2.996
  267TIP3   OH2  764   0.162   0.627   5.226
  267TIP3    H1  765   0.169   0.605   5.319
  267TIP3    H2  766   0.196   0.716   5.220
  268TIP3   OH2  767   1.061   1.683   5.237
  268TIP3    H1  768   1.109   1.617   5.287
  268TIP3    H2  769   0.969   1.666   5.256
  269TIP3   OH2  770   6.884   1.000   4.233
  269TIP3    H1  771   6.851   0.926   4.284
  269TIP3    H2  772   6.921   0.962   4.154
  270TIP3   OH2  773   3.860   3.023   2.949
  270TIP3    H1  774   3.785   3.073   2.917
  270TIP3    H2  775   3.822   2.940   2.978
  271TIP3   OH2  776   2.196   2.577   5.138
  271TIP3    H1  777   2.172   2.494   5.180
  271TIP3    H2  778   2.263   2.552   5.074
  272TIP3   OH2  779   1.320   3.993   0.533
  272TIP3    H1  780   1.258   4.065   0.519
  272TIP3    H2  781   1.266   3.920   0.561
  273TIP3   OH2  782   6.798   6.718   0.618
  273TIP3    H1  783   6.829   6.645   0.564
  273TIP3    H2  784   6.819   6.693   0.708
  274TIP3   OH2  785   3.138   5.193   2.673
  274TIP3    H1  786   3.079   5.156   2.608
  274TIP3    H2  787   3.158   5.281   2.641
  275TIP3   OH2  788   6.040   5.678   3.447
  275TIP3    H1  789   6.048   5.630   3.364
  275TIP3    H2  790   5.959   5.645   3.486
  276TIP3   OH2  791   1.939   3.240   0.984
  276TIP3    H1  792   2.032   3.219   0.986
  276TIP3    H2  793   1.924   3.292   1.063
  277TIP3   OH2  794   1.363   0.873   3.851
  277TIP3    H1  795   1.412   0.955   3.842
  277TIP3    H2  796   1.390   0.821   3.775
  278TIP3   OH2  797   4.440   4.108   4.466
  278TIP3    H1  798   4.498   4.036   4.488
  278TIP3    H2  799   4.494   4.166   4.411
  279TIP3   OH2  800   5.706   2.823   2.548
  279TIP3    H1  801   5.770   2.757   2.520
  279TIP3    H2  802   5.721   2.833   2.642
  280TIP3   OH2  803   1.413   2.885   0.916
  280TIP3    H1  804   1.458   2.947   0.859
  280TIP3    H2  805   1.483   2.837   0.959
  281TIP3   OH2  806   0.820   0.727   4.949
  281TIP3    H1  807   0.741   0.721   4.895
  281TIP3    H2  808   0.890   0.752   4.888
  282TIP3   OH2  809   5.257   5.328   3.595
  282TIP3    H1  810   5.256   5.300   3.687
  282TIP3    H2  811   5.196   5.402   3.592
  283TIP3   OH2  812   1.886   6.434   4.780
  283TIP3    H1  813   1.804   6.424   4.733
  283TIP3    H2  814   1.881   6.371   4.851
  284TIP3   OH2  815   3.705   0.874   2.918
  284TIP3    H1  816   3.672   0.796   2.872
  284TIP3    H2  817   3.738   0.841   3.001
  285TIP3   OH2  818   6.602   0.950   3.087
  285TIP3    H1  819   6.583   0.856   3.090
  285TIP3    H2  820   6.640   0.964   3.001
  286TIP3   OH2  821   6.768   2.850   3.683
  286TIP3    H1  822   6.840   2.891   3.635
  286TIP3    H2  823   6.747   2.911   3.753
  287TIP3   OH2  824   1.596   5.065   1.185
  287TIP3    H1  825   1.657   5.004   1.143
  287TIP3    H2  826   1.592   5.140   1.126
  288TIP3   OH2  827   5.692   0.608   1.667
  288TIP3    H1  828   5.781   0.641   1.657
  288TIP3    H2  829   5.701   0.513   1.657
  289TIP3   OH2  830   6.934   5.942   3.059
  289TIP3    H1  831   6.960   5.886   3.133
  289TIP3    H2  832   6.919   5.881   2.987
  290TIP3   OH2  833   5.819   5.686   5.250
  290TIP3    H1  834   5.886   5.699   5.183
  290TIP3    H2  835   5.802   5.774   5.284
  291TIP3   OH2  836   5.147   2.115   5.004
  291TIP3    H1  837   5.124   2.119   4.911
  291TIP3    H2  838   5.103   2.036   5.036
  292TIP3   OH2  839   6.376   6.435   2.044
  292TIP3    H1  840   6.348   6.345   2.061
  292TIP3    H2  841   6.371   6.478   2.130
  293TIP3   OH2  842   6.723   2.544   5.109
  293TIP3    H1  843   6.698   2.607   5.041
  293TIP3    H2  844   6.697   2.586   5.191
  294TIP3   OH2  845   3.735   1.206   5.472
  294TIP3    H1  846   3.706   1.171   5.556
  294TIP3    H2  847   3.698   1.147   5.407
  295TIP3   OH2  848   5.549   4.616   2.549
  295TIP3    H1  849   5.639   4.593   2.575
  295TIP3    H2  850   5.557   4.653   2.462
  296TIP3   OH2  851   5.726   5.178   0.613
  296TIP3    H1  852   5.672   5.172   0.692
  296TIP3    H2  853   5.664   5.171   0.541
  297TIP3   OH2  854   0.069   1.763   5.633
  297TIP3    H1  855   0.131   1.727   5.697
  297TIP3    H2  856   0.123   1.818   5.576
  298TIP3   OH2  857   3.748   3.718   3.073
  298TIP3    H1  858   3.833   3.676   3.058
  298TIP3    H2  859   3.768   3.812   3.073
  299TIP3   OH2  860   2.862   6.427   5.437
  299TIP3    H1  861   2.871   6.424   5.341
  299TIP3    H2  862   2.790   6.367   5.457
  300TIP3   OH2  863   1.474   4.479   5.683
  300TIP3    H1  864   1.488   4.417   5.612
  300TIP3    H2  865   1.561   4.492   5.720
  301TIP3   OH2  866   2.498   2.757   2.183
  301TIP3    H1  867   2.538   2.688   2.236
  301TIP3    H2  868   2.500   2.835   2.240
  302TIP3   OH2  869   4.190   4.104   4.767
  302TIP3    H1  870   4.167   4.029   4.712
  302TIP3    H2  871   4.112   4.158   4.769
  303TIP3   OH2  872   2.135   6.191   2.977
  303TIP3    H1  873   2.132   6.122   2.910
  303TIP3    H2  874   2.169   6.268   2.931
  304TIP3   OH2  875   3.454   3.305   3.230
  304TIP3    H1  876   3.504   3.383   3.206
  304TIP3    H2  877   3.370   3.340   3.262
  305TIP3   OH2  878   5.627   3.443   5.642
  305TIP3    H1  879   5.584   3.500   5.706
  305TIP3    H2  880   5.666   3.503   5.579
  306TIP3   OH2  881   3.914   1.003   2.780
  306TIP3    H1  882   3.907   0.972   2.690
  306TIP3    H2  883   3.838   0.965   2.825
  307TIP3   OH2  884   0.497   0.144   0.224
  307TIP3    H1  885   0.576   0.171   0.177
  307TIP3    H2  886   0.521   0.154   0.317
  308TIP3   OH2  887   6.108   3.583   3.005
  308TIP3    H1  888   6.049   3.578   2.930
  308TIP3    H2  889   6.112   3.493   3.038
  309TIP3   OH2  890   0.033   1.201   5.371
  309TIP3    H1  891   0.121   1.163   5.367
  309TIP3    H2  892   0.012   1.202   5.464
  310TIP3   OH2  893   0.633   0.621   5.826
  310TIP3    H1  894   0.557   0.673   5.851
  310TIP3    H2  895   0.662   0.659   5.743
  311TIP3   OH2  896   4.971   2.858   1.597
  311TIP3    H1  897   5.009   2.839   1.512
  311TIP3    H2  898   5.046   2.867   1.656
  312TIP3   OH2  899   5.208   1.761   2.101
  312TIP3    H1  900   5.285   1.799   2.143
  312TIP3    H2  901   5.214   1.789   2.010
  313TIP3   OH2  902   1.729   0.718   3.452
  313TIP3    H1  903   1.637   0.699   3.434
  313TIP3    H2  904   1.729   0.761   3.538
  314TIP3   OH2  905   2.031   2.096   1.764
  314TIP3    H1  906   2.100   2.088   1.830
  314TIP3    H2  907   2.039   2.018   1.710
  315TIP3   OH2  908   5.615   3.073   1.951
  315TIP3    H1  909   5.686   3.020   1.988
  315TIP3    H2  910   5.659   3.138   1.897
  316TIP3   OH2  911   3.444   5.562   3.998
  316TIP3    H1  912   3.374   5.516   3.951
  316TIP3    H2  913   3.501   5.492   4.030
  317TIP3   OH2  914   1.565   0.497   1.578
  317TIP3    H1  915   1.659   0.502   1.594
  317TIP3    H2  916   1.543   0.405   1.594
  318TIP3   OH2  917   6.627   2.785   4.963
  318TIP3    H1  918   6.582   2.755   4.885
  318TIP3    H2  919   6.681   2.858   4.933
  319TIP3   OH2  920   1.784   3.405   2.850
  319TIP3    H1  921   1.786   3.378   2.942
  319TIP3    H2  922   1.870   3.444   2.834
  320TIP3   OH2  923   1.533   6.304   2.494
  320TIP3    H1  924   1.438   6.304   2.509
  320TIP3    H2  925   1.559   6.395   2.508
  321TIP3   OH2  926   2.986   1.630   3.276
  321TIP3    H1  927   3.068   1.605   3.234
  321TIP3    H2  928   2.919   1.581   3.228
  322TIP3   OH2  929   3.960   3.876   3.859
  322TIP3    H1  930   3.910   3.851   3.782
  322TIP3    H2  931   3.991   3.965   3.841
  323TIP3   OH2  932   2.389   5.610   2.830
  323TIP3    H1  933   2.379   5.638   2.921
  323TIP3    H2  934   2.364   5.517   2.831
  324TIP3   OH2  935   5.668   2.451   4.714
  324TIP3    H1  936   5.607   2.481   4.646
  324TIP3    H2  937   5.639   2.495   4.794
  325TIP3   OH2  938   3.322   1.803   2.132
  325TIP3    H1  939   3.280   1.856   2.064
  325TIP3    H2  940   3.265   1.814   2.208
  326TIP3   OH2  941   1.352   0.078   3.128
  326TIP3    H1  942   1.293   0.093   3.202
  326TIP3    H2  943   1.300   0.029   3.064
  327TIP3   OH2  944   7.098   1.374   0.869
  327TIP3    H1  945   7.017   1.362   0.820
  327TIP3    H2  946   7.096   1.307   0.937
  328TIP3   OH2  947   5.265   0.026   4.158
  328TIP3    H1  948   5.216  -0.039   4.208
  328TIP3    H2  949   5.253   0.108   4.206
  329TIP3   OH2  950   3.180   2.081   1.658
  329TIP3    H1  951   3.108   2.019   1.659
  329TIP3    H2  952   3.232   2.056   1.581
  330TIP3   OH2  953   5.621   5.746   0.619
  330TIP3    H1  954   5.670   5.780   0.544
  330TIP3    H2  955   5.614   5.820   0.679
  331TIP3   OH2  956   0.023   2.986   1.258
  331TIP3    H1  957  -0.032   2.908   1.256
  331TIP3    H2  958   0.036   3.009   1.166
  332TIP3   OH2  959   3.069   2.222   2.198
  332TIP3    H1  960   3.001   2.185   2.254
  332TIP3    H2  961   3.108   2.292   2.250
  333TIP3   OH2  962   3.820   6.724   4.630
  333TIP3    H1  963   3.730   6.692   4.641
  333TIP3    H2  964   3.846   6.693   4.543
  334TIP3   OH2  965   4.201   1.594   3.111
  334TIP3    H1  966   4.167   1.648   3.040
  334TIP3    H2  967   4.266   1.537   3.070
  335TIP3   OH2  968   6.873   5.573   3.508
  335TIP3    H1  969   6.819   5.586   3.586
  335TIP3    H2  970   6.812   5.580   3.435
  336TIP3   OH2  971   7.093   2.434   3.817
  336TIP3    H1  972   7.058   2.457   3.731
  336TIP3    H2  973   7.062   2.345   3.833
  337TIP3   OH2  974   5.966   6.717   1.917
  337TIP3    H1  975   5.895   6.681   1.865
  337TIP3    H2  976   6.000   6.790   1.866
  338TIP3   OH2  977   0.638   6.448   0.648
  338TIP3    H1  978   0.566   6.427   0.587
  338TIP3    H2  979   0.639   6.544   0.650
  339TIP3   OH2  980   0.408   0.045   4.022
  339TIP3    H1  981   0.465  -0.031   4.012
  339TIP3    H2  982   0.420   0.095   3.941
  340TIP3   OH2  983   3.247   3.271   5.293
  340TIP3    H1  984   3.319   3.244   5.350
  340TIP3    H2  985   3.274   3.355   5.258
  341TIP3   OH2  986   2.064   5.248   3.343
  341TIP3    H1  987   2.096   5.174   3.395
  341TIP3    H2  988   2.119   5.248   3.265
  342TIP3   OH2  989   0.449   5.187   1.665
  342TIP3    H1  990   0.481   5.226   1.746
  342TIP3    H2  991   0.525   5.143   1.627
  343TIP3   OH2  992   1.180   4.688   5.138
  343TIP3    H1  993   1.178   4.744   5.216
  343TIP3    H2  994   1.216   4.744   5.069
  344TIP3   OH2  995   0.053   5.517   3.770
  344TIP3    H1  996   0.034   5.543   3.860
  344TIP3    H2  997   0.122   5.451   3.778
  345TIP3   OH2  998   6.326   2.921   1.945
  345TIP3    H1  999   6.416   2.933   1.918
  345TIP3    H2 1000   6.278   2.904   1.864
  346TIP3   OH2 1001   3.217   4.947   1.631
  346TIP3    H1 1002   3.258   4.870   1.591
  346TIP3    H2 1003   3.278   4.973   1.700
  347TIP3   OH2 1004   5.417   5.770   2.500
  347TIP3    H1 1005   5.415   5.829   2.575
  347TIP3    H2 1006   5.508   5.773   2.469
  348TIP3   OH2 1007   0.007   2.208   0.394
  348TIP3    H1 1008  -0.021   2.299   0.380
  348TIP3    H2 1009   0.073   2.192   0.327
  349TIP3   OH2 1010   6.202   1.136   4.413
  349TIP3    H1 1011   6.276   1.100   4.365
  349TIP3    H2 1012   6.215   1.106   4.503
  350TIP3   OH2 1013   5.589   3.841   1.881
  350TIP3    H1 1014   5.618   3.752   1.862
  350TIP3    H2 1015   5.539   3.867   1.804
  351TIP3   OH2 1016   3.447   4.485   1.428
  351TIP3    H1 1017   3.418   4.427   1.358
  351TIP3    H2 1018   3.504   4.548   1.384
  352TIP3   OH2 1019   4.331   1.939   1.853
  352TIP3    H1 1020   4.371   1.931   1.940
  352TIP3    H2 1021   4.363   2.023   1.820
  353TIP3   OH2 1022   0.075   0.231   5.009
  353TIP3    H1 1023  -0.014   0.267   5.005
  353TIP3    H2 1024   0.124   0.296   5.060
  354TIP3   OH2 1025   2.849   4.741   4.629
  354TIP3    H1 1026   2.898   4.675   4.579
  354TIP3    H2 1027   2.765   4.699   4.648
  355TIP3   OH2 1028   3.483   2.727   3.098
  355TIP3    H1 1029   3.453   2.674   3.024
  355TIP3    H2 1030   3.576   2.743   3.080
  356TIP3   OH2 1031   3.822   1.258   3.127
  356TIP3    H1 1032   3.843   1.166   3.112
  356TIP3    H2 1033   3.765   1.282   3.054
  357TIP3   OH2 1034   4.341   0.427   5.527
  357TIP3    H1 1035   4.401   0.375   5.580
  357TIP3    H2 1036   4.378   0.516   5.529
  358TIP3   OH2 1037   2.444   3.653   2.540
  358TIP3    H1 1038   2.398   3.663   2.457
  358TIP3    H2 1039   2.417   3.568   2.573
  359TIP3   OH2 1040   4.511   0.053   2.257
  359TIP3    H1 1041   4.581  -0.002   2.292
  359TIP3    H2 1042   4.432   0.000   2.264
  360TIP3   OH2 1043   1.332   4.733   3.342
  360TIP3    H1 1044   1.333   4.822   3.378
  360TIP3    H2 1045   1.409   4.691   3.382
  361TIP3   OH2 1046   1.400   4.320   1.577
  361TIP3    H1 1047   1.388   4.268   1.656
  361TIP3    H2 1048   1.362   4.267   1.507
  362TIP3   OH2 1049   0.877   3.082   2.530
  362TIP3    H1 1050   0.882   3.057   2.622
  362TIP3    H2 1051   0.900   3.002   2.482
  363TIP3   OH2 1052   6.433   6.030   4.168
  363TIP3    H1 1053   6.492   5.960   4.196
  363TIP3    H2 1054   6.359   5.985   4.128
  364TIP3   OH2 1055   3.945   1.346   4.755
  364TIP3    H1 1056   3.914   1.352   4.846
  364TIP3    H2 1057   3.939   1.253   4.734
  365TIP3   OH2 1058   3.464   6.467   3.836
  365TIP3    H1 1059   3.526   6.478   3.763
  365TIP3    H2 1060   3.497   6.525   3.904
  366TIP3   OH2 1061   5.351   3.020   3.458
  366TIP3    H1 1062   5.386   3.095   3.410
  366TIP3    H2 1063   5.390   2.944   3.415
  367TIP3   OH2 1064   3.990   5.400   0.087
  367TIP3    H1 1065   3.925   5.367   0.025
  367TIP3    H2 1066   3.959   5.487   0.111
  368TIP3   OH2 1067   1.879   3.902   0.284
  368TIP3    H1 1068   1.810   3.849   0.243
  368TIP3    H2 1069   1.880   3.983   0.234
  369TIP3   OH2 1070   0.350   6.584   2.858
  369TIP3    H1 1071   0.391   6.540   2.932
  369TIP3    H2 1072   0.366   6.525   2.783
  370TIP3   OH2 1073   6.338   3.949   2.124
  370TIP3    H1 1074   6.289   3.906   2.054
  370TIP3    H2 1075   6.349   4.039   2.094
  371TIP3   OH2 1076   6.854   3.192   1.522
  371TIP3    H1 1077   6.875   3.104   1.552
  371TIP3    H2 1078   6.925   3.216   1.462
  372TIP3   OH2 1079   6.204   5.867   1.690
  372TIP3    H1 1080   6.179   5.775   1.689
  372TIP3    H2 1081   6.284   5.870   1.742
  373TIP3   OH2 1082   5.691   0.089   4.857
  373TIP3    H1 1083   5.742   0.162   4.824
  373TIP3    H2 1084   5.687   0.027   4.784
  374TIP3   OH2 1085   7.025   6.037   0.014
  374TIP3    H1 1086   7.096   6.095   0.041
  374TIP3    H2 1087   7.015   5.976   0.086
  375TIP3   OH2 1088   0.800   5.641   3.739
  375TIP3    H1 1089   0.867   5.608   3.798
  375TIP3    H2 1090   0.848   5.681   3.667
  376TIP3   OH2 1091   4.213   5.553   4.820
  376TIP3    H1 1092   4.156   5.588   4.889
  376TIP3    H2 1093   4.286   5.614   4.816
  377TIP3   OH2 1094   0.981   6.327   4.460
  377TIP3    H1 1095   0.955   6.415   4.432
  377TIP3    H2 1096   0.905   6.293   4.507
  378TIP3   OH2 1097   7.059   6.193   4.094
  378TIP3    H1 1098   7.136   6.154   4.136
  378TIP3    H2 1099   7.080   6.286   4.084
  379TIP3   OH2 1100   5.621   2.257   1.205
  379TIP3    H1 1101   5.578   2.306   1.135
  379TIP3    H2 1102   5.561   2.185   1.225
  380TIP3   OH2 1103   5.665   3.781   3.436
  380TIP3    H1 1104   5.695   3.855   3.489
  380TIP3    H2 1105   5.615   3.821   3.365
  381TIP3   OH2 1106   3.124   6.278   5.272
  381TIP3    H1 1107   3.057   6.230   5.321
  381TIP3    H2 1108   3.143   6.221   5.197
  382TIP3   OH2 1109   4.667   4.408   3.482
  382TIP3    H1 1110   4.691   4.343   3.415
  382TIP3    H2 1111   4.589   4.371   3.523
  383TIP3   OH2 1112   6.791   3.815   3.604
  383TIP3    H1 1113   6.778   3.746   3.668
  383TIP3    H2 1114   6.715   3.873   3.614
  384TIP3   OH2 1115   0.627   5.428   3.690
  384TIP3    H1 1116   0.681   5.353   3.712
  384TIP3    H2 1117   0.684   5.504   3.702
  385TIP3   OH2 1118   1.185   6.244   5.862
  385TIP3    H1 1119   1.179   6.319   5.921
  385TIP3    H2 1120   1.095   6.230   5.832
  386TIP3   OH2 1121   2.244   5.841   2.993
  386TIP3    H1 1122   2.316   5.885   3.037
  386TIP3    H2 1123   2.238   5.884   2.907
  387TIP3   OH2 1124   5.376   2.616   4.304
  387TIP3    H1 1125   5.359   2.605   4.210
  387TIP3    H2 1126   5.292   2.595   4.345
  388TIP3   OH2 1127   3.333   2.616   2.288
  388TIP3    H1 1128   3.318   2.529   2.251
  388TIP3    H2 1129   3.264   2.671   2.250
  389TIP3   OH2 1130   6.834   3.733   3.347
  389TIP3    H1 1131   6.836   3.767   3.436
  389TIP3    H2 1132   6.773   3.660   3.350
  390TIP3   OH2 1133   2.279   5.500   4.372
  390TIP3    H1 1134   2.310   5.486   4.462
  390TIP3    H2 1135   2.330   5.574   4.341
  391TIP3   OH2 1136   1.637   3.232   2.410
  391TIP3    H1 1137   1.719   3.256   2.367
  391TIP3    H2 1138   1.611   3.310   2.459
  392TIP3   OH2 1139   4.550   1.898   0.745
  392TIP3    H1 1140   4.557   1.954   0.667
  392TIP3    H2 1141   4.638   1.899   0.783
  393TIP3   OH2 1142   1.192   4.416   3.369
  393TIP3    H1 1143   1.145   4.453   3.444
  393TIP3    H2 1144   1.259   4.481   3.348
  394TIP3   OH2 1145   1.160   4.838   4.106
  394TIP3    H1 1146   1.102   4.915   4.101
  394TIP3    H2 1147   1.126   4.786   4.178
  395TIP3   OH2 1148   5.681   3.014   5.016
  395TIP3    H1 1149   5.627   3.093   5.013
  395TIP3    H2 1150   5.673   2.976   4.929
  396TIP3   OH2 1151   0.309   6.750   4.050
  396TIP3    H1 1152   0.379   6.786   4.105
  396TIP3    H2 1153   0.328   6.656   4.046
  397TIP3   OH2 1154   6.962   2.324   1.950
  397TIP3    H1 1155   6.899   2.304   2.019
  397TIP3    H2 1156   7.037   2.268   1.969
  398TIP3   OH2 1157   2.638   0.851   0.182
  398TIP3    H1 1158   2.647   0.813   0.095
  398TIP3    H2 1159   2.565   0.912   0.174
  399TIP3   OH2 1160   5.619   0.369   3.431
  399TIP3    H1 1161   5.621   0.455   3.389
  399TIP3    H2 1162   5.536   0.367   3.478
  400TIP3   OH2 1163   2.480   2.681   5.632
  400TIP3    H1 1164   2.550   2.746   5.635
  400TIP3    H2 1165   2.439   2.694   5.547
  401TIP3   OH2 1166   5.148   5.015   4.099
  401TIP3    H1 1167   5.219   4.955   4.075
  401TIP3    H2 1168   5.097   5.025   4.019
  402TIP3   OH2 1169   3.655   0.076   3.689
  402TIP3    H1 1170   3.688   0.049   3.603
  402TIP3    H2 1171   3.661  -0.003   3.743
  403TIP3   OH2 1172   6.549   5.455   5.249
  403TIP3    H1 1173   6.468   5.500   5.227
  403TIP3    H2 1174   6.522   5.366   5.271
  404TIP3   OH2 1175   6.461   5.653   2.905
  404TIP3    H1 1176   6.519   5.693   2.970
  404TIP3    H2 1177   6.374   5.684   2.930
  405TIP3   OH2 1178   4.854   3.588   4.953
  405TIP3    H1 1179   4.837   3.607   4.860
  405TIP3    H2 1180   4.893   3.501   4.952
  406TIP3   OH2 1181   0.493   3.561   3.047
  406TIP3    H1 1182   0.525   3.472   3.062
  406TIP3    H2 1183   0.475   3.596   3.134
  407TIP3   OH2 1184   5.754   3.832   2.374
  407TIP3    H1 1185   5.746   3.903   2.311
  407TIP3    H2 1186   5.676   3.779   2.361
  408TIP3   OH2 1187   2.758   6.255   0.230
  408TIP3    H1 1188   2.732   6.164   0.238
  408TIP3    H2 1189   2.727   6.297   0.311
  409TIP3   OH2 1190   5.001   2.870   4.239
  409TIP3    H1 1191   4.983   2.941   4.177
  409TIP3    H2 1192   5.096   2.864   4.240
  410TIP3   OH2 1193   3.240   4.879   0.733
  410TIP3    H1 1194   3.154   4.922   0.728
  410TIP3    H2 1195   3.300   4.943   0.694
  411TIP3   OH2 1196   5.643   1.709   5.052
  411TIP3    H1 1197   5.682   1.740   4.970
  411TIP3    H2 1198   5.549   1.703   5.034
  412TIP3   OH2 1199   3.650   0.175   2.872
  412TIP3    H1 1200   3.651   0.158   2.967
  412TIP3    H2 1201   3.730   0.133   2.840
  413TIP3   OH2 1202   3.345   0.316   1.378
  413TIP3    H1 1203   3.329   0.398   1.425
  413TIP3    H2 1204   3.294   0.251   1.426
  414TIP3   OH2 1205   0.077   4.058   3.104
  414TIP3    H1 1206   0.125   4.047   3.023
  414TIP3    H2 1207   0.073   4.153   3.117
  415TIP3   OH2 1208   1.014   3.976   2.549
  415TIP3    H1 1209   0.923   3.962   2.524
  415TIP3    H2 1210   1.063   3.914   2.495
  416TIP3   OH2 1211   2.027   1.156   5.088
  416TIP3    H1 1212   2.072   1.240   5.085
  416TIP3    H2 1213   1.934   1.178   5.097
  417TIP3   OH2 1214   4.413   3.769   3.251
  417TIP3    H1 1215   4.422   3.708   3.178
  417TIP3    H2 1216   4.477   3.738   3.316
  418TIP3   OH2 1217   5.231   0.305   5.488
  418TIP3    H1 1218   5.193   0.265   5.566
  418TIP3    H2 1219   5.319   0.266   5.481
  419TIP3   OH2 1220   4.806   5.787   3.903
  419TIP3    H1 1221   4.758   5.792   3.820
  419TIP3    H2 1222   4.810   5.878   3.934
  420TIP3   OH2 1223   4.807   2.059   4.844
  420TIP3    H1 1224   4.724   2.040   4.889
  420TIP3    H2 1225   4.837   2.140   4.884
  421TIP3   OH2 1226   6.836   4.376   4.449
  421TIP3    H1 1227   6.782   4.374   4.370
  421TIP3    H2 1228   6.776   4.352   4.519
  422TIP3   OH2 1229   0.382   0.921   0.652
  422TIP3    H1 1230   0.447   0.945   0.717
  422TIP3    H2 1231   0.324   0.859   0.697
  423TIP3   OH2 1232   4.976   3.159   1.033
  423TIP3    H1 1233   5.006   3.108   0.957
  423TIP3    H2 1234   4.943   3.241   0.995
  424TIP3   OH2 1235   0.764   4.824   4.072
  424TIP3    H1 1236   0.697   4.887   4.095
  424TIP3    H2 1237   0.847   4.866   4.097
  425TIP3   OH2 1238   0.119   4.832   4.604
  425TIP3    H1 1239   0.195   4.814   4.660
  425TIP3    H2 1240   0.044   4.807   4.657
  426TIP3   OH2 1241   2.893   3.643   4.375
  426TIP3    H1 1242   2.886   3.670   4.283
  426TIP3    H2 1243   2.987   3.648   4.394
  427TIP3   OH2 1244   5.911   4.960   2.686
  427TIP3    H1 1245   5.840   4.967   2.751
  427TIP3    H2 1246   5.877   4.902   2.619
  428TIP3   OH2 1247   3.580   5.519   5.593
  428TIP3    H1 1248   3.527   5.443   5.568
  428TIP3    H2 1249   3.517   5.588   5.611
  429TIP3   OH2 1250   1.088   2.206   5.697
  429TIP3    H1 1251   1.015   2.254   5.658
  429TIP3    H2 1252   1.124   2.267   5.762
  430TIP3   OH2 1253   1.204   3.311   4.022
  430TIP3    H1 1254   1.214   3.330   3.929
  430TIP3    H2 1255   1.112   3.327   4.040
  431TIP3   OH2 1256   3.219   0.297   4.130
  431TIP3    H1 1257   3.265   0.379   4.149
  431TIP3    H2 1258   3.166   0.280   4.208
  432TIP3   OH2 1259   1.936   4.553   0.262
  432TIP3    H1 1260   1.875   4.559   0.336
  432TIP3    H2 1261   2.021   4.533   0.303
  433TIP3   OH2 1262   4.199   3.596   3.299
  433TIP3    H1 1263   4.266   3.664   3.305
  433TIP3    H2 1264   4.239   3.519   3.339
  434TIP3   OH2 1265   2.369   0.782   3.688
  434TIP3    H1 1266   2.288   0.818   3.726
  434TIP3    H2 1267   2.341   0.702   3.643
  435TIP3   OH2 1268   4.824   1.031   2.049
  435TIP3    H1 1269   4.816   1.112   2.099
  435TIP3    H2 1270   4.735   0.996   2.044
  436TIP3   OH2 1271   1.236   6.257   4.612
  436TIP3    H1 1272   1.196   6.173   4.635
  436TIP3    H2 1273   1.165   6.306   4.571
  437TIP3   OH2 1274   3.841   1.475   5.560
  437TIP3    H1 1275   3.835   1.380   5.554
  437TIP3    H2 1276   3.756   1.507   5.530
  438TIP3   OH2 1277   3.353   2.078   1.122
  438TIP3    H1 1278   3.448   2.074   1.137
  438TIP3    H2 1279   3.330   1.992   1.087
  439TIP3   OH2 1280   0.650   4.357   5.403
  439TIP3    H1 1281   0.575   4.361   5.462
  439TIP3    H2 1282   0.703   4.285   5.436
  440TIP3   OH2 1283   2.457   0.293   1.880
  440TIP3    H1 1284   2.474   0.330   1.793
  440TIP3    H2 1285   2.404   0.215   1.863
  441TIP3   OH2 1286   1.844   6.536   5.174
  441TIP3    H1 1287   1.861   6.483   5.253
  441TIP3    H2 1288   1.910   6.507   5.112
  442TIP3   OH2 1289   6.482   0.982   1.857
  442TIP3    H1 1290   6.467   0.893   1.891
  442TIP3    H2 1291   6.394   1.019   1.848
  443TIP3   OH2 1292   3.222   0.009   3.959
  443TIP3    H1 1293   3.293   0.004   4.023
  443TIP3    H2 1294   3.251   0.076   3.897
  444TIP3   OH2 1295   7.098   1.603   4.547
  444TIP3    H1 1296   7.040   1.658   4.494
  444TIP3    H2 1297   7.127   1.535   4.486
  445TIP3   OH2 1298   4.055   3.717   2.083
  445TIP3    H1 1299   4.044   3.690   2.174
  445TIP3    H2 1300   3.971   3.695   2.042
  446TIP3   OH2 1301   4.206   4.767   3.406
  446TIP3    H1 1302   4.205   4.727   3.319
  446TIP3    H2 1303   4.267   4.713   3.456
  447TIP3   OH2 1304   0.231   6.341   3.831
  447TIP3    H1 1305   0.230   6.255   3.789
  447TIP3    H2 1306   0.195   6.400   3.764
  448TIP3   OH2 1307   2.281   0.074   4.658
  448TIP3    H1 1308   2.219   0.106   4.723
  448TIP3    H2 1309   2.337   0.012   4.706
  449TIP3   OH2 1310   2.435   5.320   2.230
  449TIP3    H1 1311   2.382   5.302   2.308
  449TIP3    H2 1312   2.406   5.256   2.166
  450TIP3   OH2 1313   6.409   1.402   2.368
  450TIP3    H1 1314   6.441   1.332   2.311
  450TIP3    H2 1315   6.316   1.409   2.348
  451TIP3   OH2 1316   6.079   5.455   5.656
  451TIP3    H1 1317   6.046   5.545   5.659
  451TIP3    H2 1318   6.143   5.455   5.585
  452TIP3   OH2 1319   3.250   5.852   2.588
  452TIP3    H1 1320   3.333   5.814   2.619
  452TIP3    H2 1321   3.189   5.778   2.588
  453TIP3   OH2 1322   2.363   1.720   0.450
  453TIP3    H1 1323   2.346   1.779   0.523
  453TIP3    H2 1324   2.324   1.637   0.477
  454TIP3   OH2 1325   6.176   6.536   4.702
  454TIP3    H1 1326   6.089   6.498   4.705
  454TIP3    H2 1327   6.221   6.487   4.633
  455TIP3   OH2 1328   5.598   5.522   3.815
  455TIP3    H1 1329   5.631   5.432   3.819
  455TIP3    H2 1330   5.599   5.552   3.906
  456TIP3   OH2 1331   2.483   2.220   5.353
  456TIP3    H1 1332   2.506   2.163   5.280
  456TIP3    H2 1333   2.534   2.186   5.427
  457TIP3   OH2 1334   4.572   3.888   4.148
  457TIP3    H1 1335   4.609   3.969   4.115
  457TIP3    H2 1336   4.566   3.831   4.072
  458TIP3   OH2 1337   0.523   0.557   0.433
  458TIP3    H1 1338   0.552   0.595   0.350
  458TIP3    H2 1339   0.603   0.552   0.485
  459TIP3   OH2 1340   3.696   5.033   5.723
  459TIP3    H1 1341   3.703   5.082   5.641
  459TIP3    H2 1342   3.765   4.967   5.717
  460TIP3   OH2 1343   6.703   3.315   2.926
  460TIP3    H1 1344   6.761   3.385   2.958
  460TIP3    H2 1345   6.625   3.361   2.896
  461TIP3   OH2 1346   1.199   1.033   2.956
  461TIP3    H1 1347   1.270   0.972   2.940
  461TIP3    H2 1348   1.158   1.046   2.870
  462TIP3   OH2 1349   1.147   2.283   0.855
  462TIP3    H1 1350   1.091   2.208   0.875
  462TIP3    H2 1351   1.087   2.356   0.844
  463TIP3   OH2 1352   2.861   2.681   3.184
  463TIP3    H1 1353   2.884   2.620   3.113
  463TIP3    H2 1354   2.789   2.733   3.148
  464TIP3   OH2 1355   2.873   4.032   2.601
  464TIP3    H1 1356   2.909   3.946   2.579
  464TIP3    H2 1357   2.811   4.051   2.531
  465TIP3   OH2 1358   1.773   3.019   4.080
  465TIP3    H1 1359   1.755   2.951   4.144
  465TIP3    H2 1360   1.688   3.059   4.063
  466TIP3   OH2 1361   3.813   3.845   0.507
  466TIP3    H1 1362   3.860   3.911   0.559
  466TIP3    H2 1363   3.832   3.763   0.551
  467TIP3   OH2 1364   2.854   4.837   3.842
  467TIP3    H1 1365   2.859   4.777   3.916
  467TIP3    H2 1366   2.834   4.922   3.882
  468TIP3   OH2 1367   2.543   6.327   0.030
  468TIP3    H1 1368   2.509   6.412   0.057
  468TIP3    H2 1369   2.606   6.303   0.098
  469TIP3   OH2 1370   0.964   3.023   4.005
  469TIP3    H1 1371   0.966   3.010   3.910
  469TIP3    H2 1372   0.988   3.115   4.017
  470TIP3   OH2 1373   2.850   0.083   4.267
  470TIP3    H1 1374   2.765   0.116   4.297
  470TIP3    H2 1375   2.914   0.140   4.311
  471TIP3   OH2 1376   1.129   2.585   0.066
  471TIP3    H1 1377   1.192   2.569   0.136
  471TIP3    H2 1378   1.158   2.667   0.026
  472TIP3   OH2 1379   4.505   4.072   3.168
  472TIP3    H1 1380   4.498   4.022   3.250
  472TIP3    H2 1381   4.428   4.046   3.118
  473TIP3   OH2 1382   4.875   5.110  -0.016
  473TIP3    H1 1383   4.954   5.117   0.038
  473TIP3    H2 1384   4.807   5.156   0.034
  474TIP3   OH2 1385   1.665   1.350   2.608
  474TIP3    H1 1386   1.627   1.431   2.640
  474TIP3    H2 1387   1.705   1.310   2.685
  475TIP3   OH2 1388   4.938   3.034   3.536
  475TIP3    H1 1389   4.893   2.953   3.561
  475TIP3    H2 1390   4.920   3.043   3.443
  476TIP3   OH2 1391   3.730   5.385   3.094
  476TIP3    H1 1392   3.690   5.302   3.066
  476TIP3    H2 1393   3.741   5.375   3.189
  477TIP3   OH2 1394   6.459   5.915   4.681
  477TIP3    H1 1395   6.420   5.940   4.597
  477TIP3    H2 1396   6.521   5.845   4.659
  478TIP3   OH2 1397   0.594   1.743   1.309
  478TIP3    H1 1398   0.616   1.815   1.368
  478TIP3    H2 1399   0.507   1.715   1.336
  479TIP3   OH2 1400   0.129   3.120   1.010
  479TIP3    H1 1401   0.128   3.044   0.952
  479TIP3    H2 1402   0.098   3.192   0.955
  480TIP3   OH2 1403   1.265   3.001   5.328
  480TIP3    H1 1404   1.237   2.911   5.339
  480TIP3    H2 1405   1.324   2.999   5.253
  481TIP3   OH2 1406   4.837   0.529   4.210
  481TIP3    H1 1407   4.855   0.469   4.138
  481TIP3    H2 1408   4.785   0.599   4.170
  482TIP3   OH2 1409   2.360   0.490   4.360
  482TIP3    H1 1410   2.315   0.561   4.314
  482TIP3    H2 1411   2.327   0.410   4.319
  483TIP3   OH2 1412   2.519   4.457   5.570
  483TIP3    H1 1413   2.540   4.550   5.561
  483TIP3    H2 1414   2.443   4.445   5.512
  484TIP3   OH2 1415   2.651   5.738   0.337
  484TIP3    H1 1416   2.641   5.813   0.279
  484TIP3    H2 1417   2.695   5.774   0.415
  485TIP3   OH2 1418   3.430   5.679   2.690
  485TIP3    H1 1419   3.477   5.653   2.611
  485TIP3    H2 1420   3.490   5.658   2.761
  486TIP3   OH2 1421   6.098   2.465   2.362
  486TIP3    H1 1422   6.059   2.521   2.295
  486TIP3    H2 1423   6.153   2.405   2.313
  487TIP3   OH2 1424   6.760   0.415   3.631
  487TIP3    H1 1425   6.766   0.507   3.657
  487TIP3    H2 1426   6.846   0.394   3.595
  488TIP3   OH2 1427   6.218   5.201   1.864
  488TIP3    H1 1428   6.150   5.236   1.921
  488TIP3    H2 1429   6.181   5.120   1.829
  489TIP3   OH2 1430   6.792   0.879   0.698
  489TIP3    H1 1431   6.885   0.878   0.717
  489TIP3    H2 1432   6.778   0.960   0.648
  490TIP3   OH2 1433   5.197   6.227   0.139
  490TIP3    H1 1434   5.201   6.295   0.072
  490TIP3    H2 1435   5.165   6.272   0.217
  491TIP3   OH2 1436   2.728   6.610   2.860
  491TIP3    H1 1437   2.732   6.543   2.928
  491TIP3    H2 1438   2.785   6.680   2.890
  492TIP3   OH2 1439   3.465   5.824   4.823
  492TIP3    H1 1440   3.468   5.731   4.844
  492TIP3    H2 1441   3.517   5.833   4.744
  493TIP3   OH2 1442   2.712   3.368   4.337
  493TIP3    H1 1443   2.748   3.284   4.365
  493TIP3    H2 1444   2.713   3.365   4.242
  494TIP3   OH2 1445   3.375   2.827   5.172
  494TIP3    H1 1446   3.435   2.831   5.247
  494TIP3    H2 1447   3.298   2.877   5.200
  495TIP3   OH2 1448   5.530   4.262   1.878
  495TIP3    H1 1449   5.584   4.338   1.857
  495TIP3    H2 1450   5.463   4.260   1.810
  496TIP3   OH2 1451   3.183   4.376   5.453
  496TIP3    H1 1452   3.246   4.440   5.485
  496TIP3    H2 1453   3.202   4.368   5.359
  497TIP3   OH2 1454   1.717   1.955   2.356
  497TIP3    H1 1455   1.749   1.922   2.272
  497TIP3    H2 1456   1.796   1.971   2.407
  498TIP3   OH2 1457   2.105   4.363   3.357
  498TIP3    H1 1458   2.132   4.397   3.272
  498TIP3    H2 1459   2.038   4.298   3.337
  499TIP3   OH2 1460   0.411   3.474   3.539
  499TIP3    H1 1461   0.453   3.472   3.625
  499TIP3    H2 1462   0.341   3.538   3.548
  500TIP3   OH2 1463   3.433   3.128   5.440
  500TIP3    H1 1464   3.458   3.101   5.529
  500TIP3    H2 1465   3.419   3.046   5.393
  501TIP3   OH2 1466   0.953   4.755   1.063
  501TIP3    H1 1467   0.978   4.835   1.109
  501TIP3    H2 1468   0.939   4.782   0.972
  502TIP3   OH2 1469   4.128   3.735   0.788
  502TIP3    H1 1470   4.094   3.819   0.818
  502TIP3    H2 1471   4.058   3.699   0.734
  503TIP3   OH2 1472   6.613   0.310   0.582
  503TIP3    H1 1473   6.527   0.334   0.618
  503TIP3    H2 1474   6.659   0.269   0.655
  504TIP3   OH2 1475   3.773   2.232   0.790
  504TIP3    H1 1476   3.854   2.278   0.812
  504TIP3    H2 1477   3.713   2.253   0.861
  505TIP3   OH2 1478   2.874   5.277   5.258
  505TIP3    H1 1479   2.900   5.368   5.241
  505TIP3    H2 1480   2.921   5.226   5.192
  506TIP3   OH2 1481   0.461   1.309   2.648
  506TIP3    H1 1482   0.452   1.372   2.577
  506TIP3    H2 1483   0.449   1.361   2.728
  507TIP3   OH2 1484   3.346   2.686   1.509
  507TIP3    H1 1485   3.277   2.699   1.445
  507TIP3    H2 1486   3.425   2.670   1.458
  508TIP3   OH2 1487   4.536   2.309   0.064
  508TIP3    H1 1488   4.622   2.267   0.058
  508TIP3    H2 1489   4.550   2.385   0.121
  509TIP3   OH2 1490   4.764   3.734   2.065
  509TIP3    H1 1491   4.757   3.689   1.981
  509TIP3    H2 1492   4.830   3.802   2.050
  510TIP3   OH2 1493   5.170   0.606   1.727
  510TIP3    H1 1494   5.126   0.680   1.769
  510TIP3    H2 1495   5.236   0.646   1.671
  511TIP3   OH2 1496   2.371   5.917   2.175
  511TIP3    H1 1497   2.347   5.888   2.087
  511TIP3    H2 1498   2.464   5.894   2.183
  512TIP3   OH2 1499   5.857   3.739   2.041
  512TIP3    H1 1500   5.809   3.810   1.997
  512TIP3    H2 1501   5.788   3.688   2.085
  513TIP3   OH2 1502   5.026   2.075   1.070
  513TIP3    H1 1503   4.934   2.091   1.086
  513TIP3    H2 1504   5.035   1.979   1.073
  514TIP3   OH2 1505   3.728   1.748   4.748
  514TIP3    H1 1506   3.758   1.839   4.741
  514TIP3    H2 1507   3.801   1.696   4.715
  515TIP3   OH2 1508   3.174   2.817   4.606
  515TIP3    H1 1509   3.269   2.805   4.615
  515TIP3    H2 1510   3.156   2.799   4.513
  516TIP3   OH2 1511   1.771   4.684   2.904
  516TIP3    H1 1512   1.798   4.612   2.960
  516TIP3    H2 1513   1.697   4.725   2.949
  517TIP3   OH2 1514   3.106   3.370   5.751
  517TIP3    H1 1515   3.079   3.352   5.661
  517TIP3    H2 1516   3.168   3.443   5.743
  518TIP3   OH2 1517   3.870   0.735   4.068
  518TIP3    H1 1518   3.781   0.755   4.097
  518TIP3    H2 1519   3.906   0.681   4.139
  519TIP3   OH2 1520   6.276   6.650   5.595
  519TIP3    H1 1521   6.221   6.648   5.516
  519TIP3    H2 1522   6.365   6.635   5.563
  520TIP3   OH2 1523   3.811   3.546   2.264
  520TIP3    H1 1524   3.735   3.565   2.317
  520TIP3    H2 1525   3.886   3.572   2.318
  521TIP3   OH2 1526   1.133   1.751   1.399
  521TIP3    H1 1527   1.063   1.815   1.406
  521TIP3    H2 1528   1.213   1.802   1.394
  522TIP3   OH2 1529   3.841   1.706   2.482
  522TIP3    H1 1530   3.802   1.703   2.569
  522TIP3    H2 1531   3.915   1.766   2.490
  523TIP3   OH2 1532   0.381   3.903   1.709
  523TIP3    H1 1533   0.287   3.887   1.702
  523TIP3    H2 1534   0.388   3.976   1.771
  524TIP3   OH2 1535   1.122   0.488   1.364
  524TIP3    H1 1536   1.199   0.529   1.404
  524TIP3    H2 1537   1.049   0.517   1.418
  525TIP3   OH2 1538   3.781   2.629   2.586
  525TIP3    H1 1539   3.697   2.615   2.543
  525TIP3    H2 1540   3.774   2.716   2.625
  526TIP3   OH2 1541   7.097   5.303   4.237
  526TIP3    H1 1542   7.135   5.215   4.240
  526TIP3    H2 1543   7.079   5.318   4.144
  527TIP3   OH2 1544   3.794   6.362   0.698
  527TIP3    H1 1545   3.889   6.363   0.714
  527TIP3    H2 1546   3.773   6.453   0.678
  528TIP3   OH2 1547   1.047   2.502   1.090
  528TIP3    H1 1548   1.052   2.587   1.046
  528TIP3    H2 1549   0.964   2.465   1.059
  529TIP3   OH2 1550   6.826   1.223   0.927
  529TIP3    H1 1551   6.901   1.169   0.952
  529TIP3    H2 1552   6.797   1.264   1.008
  530TIP3   OH2 1553   3.642   0.503   3.537
  530TIP3    H1 1554   3.570   0.480   3.596
  530TIP3    H2 1555   3.689   0.573   3.581
  531TIP3   OH2 1556   3.251   6.649   2.294
  531TIP3    H1 1557   3.344   6.671   2.292
  531TIP3    H2 1558   3.235   6.616   2.382
  532TIP3   OH2 1559   6.900   1.197   3.804
  532TIP3    H1 1560   6.861   1.254   3.737
  532TIP3    H2 1561   6.933   1.257   3.871
  533TIP3   OH2 1562   5.262   3.442   3.122
  533TIP3    H1 1563   5.255   3.362   3.174
  533TIP3    H2 1564   5.303   3.506   3.180
  534TIP3   OH2 1565   0.811   3.945   4.419
  534TIP3    H1 1566   0.874   4.009   4.452
  534TIP3    H2 1567   0.788   3.976   4.332
  535TIP3   OH2 1568   3.658   4.540   4.651
  535TIP3    H1 1569   3.643   4.509   4.741
  535TIP3    H2 1570   3.610   4.478   4.596
  536TIP3   OH2 1571   4.660   3.703   1.645
  536TIP3    H1 1572   4.616   3.708   1.560
  536TIP3    H2 1573   4.616   3.769   1.699
  537TIP3   OH2 1574   3.705   6.123   0.329
  537TIP3    H1 1575   3.612   6.126   0.348
  537TIP3    H2 1576   3.712   6.073   0.248
  538TIP3   OH2 1577   3.063   6.285   0.180
  538TIP3    H1 1578   3.086   6.373   0.211
  538TIP3    H2 1579   2.978   6.267   0.221
  539TIP3   OH2 1580   1.548   4.359   4.542
  539TIP3    H1 1581   1.467   4.358   4.592
  539TIP3    H2 1582   1.542   4.436   4.486
  540TIP3   OH2 1583   0.015   6.412   1.630
  540TIP3    H1 1584  -0.056   6.349   1.620
  540TIP3    H2 1585   0.071   6.397   1.553
  541TIP3   OH2 1586   3.903   0.094   0.035
  541TIP3    H1 1587   3.908   0.153   0.109
  541TIP3    H2 1588   3.982   0.040   0.041
  542TIP3   OH2 1589   1.204   4.368   5.618
  542TIP3    H1 1590   1.239   4.436   5.561
  542TIP3    H2 1591   1.183   4.415   5.699
  543TIP3   OH2 1592   6.074   5.014   0.060
  543TIP3    H1 1593   6.161   5.051   0.048
  543TIP3    H2 1594   6.039   5.007  -0.028
  544TIP3   OH2 1595   0.996   6.173   1.430
  544TIP3    H1 1596   1.012   6.079   1.439
  544TIP3    H2 1597   1.074   6.214   1.466
  545TIP3   OH2 1598   6.753   4.152   4.276
  545TIP3    H1 1599   6.794   4.107   4.350
  545TIP3    H2 1600   6.792   4.111   4.199
  546TIP3   OH2 1601   4.381   1.671   0.889
  546TIP3    H1 1602   4.376   1.711   0.976
  546TIP3    H2 1603   4.466   1.699   0.855
  547TIP3   OH2 1604   4.874   6.757   4.257
  547TIP3    H1 1605   4.968   6.748   4.244
  547TIP3    H2 1606   4.841   6.668   4.253
  548TIP3   OH2 1607   1.924   6.817   5.537
  548TIP3    H1 1608   1.988   6.870   5.585
  548TIP3    H2 1609   1.970   6.792   5.456
  549TIP3   OH2 1610   0.347   6.105   5.180
  549TIP3    H1 1611   0.356   6.154   5.262
  549TIP3    H2 1612   0.274   6.046   5.196
  550TIP3   OH2 1613   6.798   0.144   4.383
  550TIP3    H1 1614   6.770   0.094   4.306
  550TIP3    H2 1615   6.809   0.234   4.351
  551TIP3   OH2 1616   4.310   2.441   1.406
  551TIP3    H1 1617   4.387   2.496   1.420
  551TIP3    H2 1618   4.343   2.364   1.359
  552TIP3   OH2 1619   2.375   4.278   3.402
  552TIP3    H1 1620   2.281   4.285   3.383
  552TIP3    H2 1621   2.388   4.334   3.478
  553TIP3   OH2 1622   0.305   2.957   3.046
  553TIP3    H1 1623   0.357   2.928   3.121
  553TIP3    H2 1624   0.276   3.045   3.069
  554TIP3   OH2 1625   3.972   1.173   1.404
  554TIP3    H1 1626   4.046   1.234   1.400
  554TIP3    H2 1627   3.986   1.124   1.485
  555TIP3   OH2 1628   1.726   2.526   5.015
  555TIP3    H1 1629   1.708   2.461   5.082
  555TIP3    H2 1630   1.701   2.484   4.933
  556TIP3   OH2 1631   5.863   3.264   3.007
  556TIP3    H1 1632   5.907   3.245   3.090
  556TIP3    H2 1633   5.848   3.178   2.968
  557TIP3   OH2 1634   0.836   5.124   3.047
  557TIP3    H1 1635   0.799   5.206   3.079
  557TIP3    H2 1636   0.877   5.147   2.963
  558TIP3   OH2 1637   4.514   2.130   4.895
  558TIP3    H1 1638   4.440   2.181   4.928
  558TIP3    H2 1639   4.474   2.064   4.838
  559TIP3   OH2 1640   4.510   5.535   0.320
  559TIP3    H1 1641   4.499   5.496   0.407
  559TIP3    H2 1642   4.603   5.557   0.315
  560TIP3   OH2 1643   0.025   4.333   1.007
  560TIP3    H1 1644   0.100   4.273   1.000
  560TIP3    H2 1645   0.024   4.379   0.923
  561TIP3   OH2 1646   1.538   3.585   4.718
  561TIP3    H1 1647   1.498   3.636   4.647
  561TIP3    H2 1648   1.514   3.494   4.700
  562TIP3   OH2 1649   0.196   3.523   1.311
  562TIP3    H1 1650   0.132   3.485   1.251
  562TIP3    H2 1651   0.253   3.576   1.254
  563TIP3   OH2 1652   1.019   3.737   2.266
  563TIP3    H1 1653   1.018   3.698   2.179
  563TIP3    H2 1654   1.041   3.664   2.324
  564TIP3   OH2 1655   6.256   1.000   4.668
  564TIP3    H1 1656   6.196   0.962   4.732
  564TIP3    H2 1657   6.343   0.977   4.700
  565TIP3   OH2 1658   3.186   5.636   5.131
  565TIP3    H1 1659   3.242   5.621   5.207
  565TIP3    H2 1660   3.164   5.548   5.100
  566TIP3   OH2 1661   2.144   4.057   1.603
  566TIP3    H1 1662   2.132   4.140   1.557
  566TIP3    H2 1663   2.083   4.060   1.676
  567TIP3   OH2 1664   6.604   5.761   5.094
  567TIP3    H1 1665   6.539   5.789   5.158
  567TIP3    H2 1666   6.679   5.732   5.146
  568TIP3   OH2 1667   5.784   2.003   1.811
  568TIP3    H1 1668   5.783   2.094   1.843
  568TIP3    H2 1669   5.777   2.011   1.716
  569TIP3   OH2 1670   6.004   5.766   0.201
  569TIP3    H1 1671   5.968   5.733   0.284
  569TIP3    H2 1672   5.960   5.850   0.188
  570TIP3   OH2 1673   3.200   5.476   3.139
  570TIP3    H1 1674   3.237   5.395   3.105
  570TIP3    H2 1675   3.141   5.448   3.209
  571TIP3   OH2 1676   0.673   1.303   5.720
  571TIP3    H1 1677   0.721   1.261   5.792
  571TIP3    H2 1678   0.701   1.394   5.723
  572TIP3   OH2 1679   2.778   0.000   1.268
  572TIP3    H1 1680   2.792   0.054   1.346
  572TIP3    H2 1681   2.865  -0.032   1.245
  573TIP3   OH2 1682   3.928   5.218   2.904
  573TIP3    H1 1683   3.889   5.257   2.826
  573TIP3    H2 1684   3.922   5.288   2.970
  574TIP3   OH2 1685   3.485   0.662   2.335
  574TIP3    H1 1686   3.468   0.575   2.371
  574TIP3    H2 1687   3.580   0.663   2.319
  575TIP3   OH2 1688   1.871   1.738   3.515
  575TIP3    H1 1689   1.816   1.663   3.492
  575TIP3    H2 1690   1.861   1.799   3.441
  576TIP3   OH2 1691   0.042   2.613   2.107
  576TIP3    H1 1692   0.093   2.537   2.134
  576TIP3    H2 1693   0.105   2.685   2.103
  577TIP3   OH2 1694   0.613   3.995   3.020
  577TIP3    H1 1695   0.671   3.952   3.083
  577TIP3    H2 1696   0.673   4.041   2.961
  578TIP3   OH2 1697   5.201   3.676   1.007
  578TIP3    H1 1698   5.206   3.770   1.025
  578TIP3    H2 1699   5.176   3.637   1.090
  579TIP3   OH2 1700   2.078   0.078   4.844
  579TIP3    H1 1701   2.052   0.130   4.920
  579TIP3    H2 1702   2.016   0.104   4.775
  580TIP3   OH2 1703   0.998   5.898   1.409
  580TIP3    H1 1704   1.092   5.880   1.410
  580TIP3    H2 1705   0.958   5.814   1.383
  581TIP3   OH2 1706   3.283   2.157   2.590
  581TIP3    H1 1707   3.245   2.074   2.562
  581TIP3    H2 1708   3.208   2.210   2.616
  582TIP3   OH2 1709   5.478   3.978   5.625
  582TIP3    H1 1710   5.515   3.958   5.710
  582TIP3    H2 1711   5.388   3.948   5.630
  583TIP3   OH2 1712   4.521   0.077   1.190
  583TIP3    H1 1713   4.578   0.000   1.191
  583TIP3    H2 1714   4.440   0.046   1.150
  584TIP3   OH2 1715   0.003   2.041   4.301
  584TIP3    H1 1716   0.018   1.962   4.353
  584TIP3    H2 1717   0.080   2.096   4.318
  585TIP3   OH2 1718   0.858   1.752   1.617
  585TIP3    H1 1719   0.808   1.672   1.635
  585TIP3    H2 1720   0.943   1.736   1.657
  586TIP3   OH2 1721   1.418   1.414   1.183
  586TIP3    H1 1722   1.421   1.509   1.171
  586TIP3    H2 1723   1.509   1.386   1.174
  587TIP3   OH2 1724   2.233   6.594   1.337
  587TIP3    H1 1725   2.149   6.551   1.354
  587TIP3    H2 1726   2.272   6.604   1.423
  588TIP3   OH2 1727   1.220   2.591   2.465
  588TIP3    H1 1728   1.139   2.634   2.492
  588TIP3    H2 1729   1.231   2.518   2.527
  589TIP3   OH2 1730   1.930   2.572   1.880
  589TIP3    H1 1731   1.977   2.653   1.857
  589TIP3    H2 1732   1.865   2.600   1.944
  590TIP3   OH2 1733   0.111   6.416   3.151
  590TIP3    H1 1734   0.026   6.373   3.164
  590TIP3    H2 1735   0.133   6.452   3.237
  591TIP3   OH2 1736   4.964   4.225   3.078
  591TIP3    H1 1737   4.908   4.158   3.119
  591TIP3    H2 1738   5.052   4.204   3.109
  592TIP3   OH2 1739   6.835   0.550   4.621
  592TIP3    H1 1740   6.907   0.600   4.659
  592TIP3    H2 1741   6.777   0.617   4.584
  593TIP3   OH2 1742   4.863   5.726   1.605
  593TIP3    H1 1743   4.933   5.756   1.549
  593TIP3    H2 1744   4.895   5.644   1.643
  594TIP3   OH2 1745   1.139   3.163   5.518
  594TIP3    H1 1746   1.182   3.110   5.451
  594TIP3    H2 1747   1.108   3.098   5.582
  595TIP3   OH2 1748   1.850   2.121   4.922
  595TIP3    H1 1749   1.929   2.088   4.965
  595TIP3    H2 1750   1.785   2.051   4.933
  596TIP3   OH2 1751   4.216   5.954   5.453
  596TIP3    H1 1752   4.298   5.928   5.496
  596TIP3    H2 1753   4.243   6.014   5.384
  597TIP3   OH2 1754   5.664   0.742   3.227
  597TIP3    H1 1755   5.631   0.735   3.138
  597TIP3    H2 1756   5.756   0.766   3.217
  598TIP3   OH2 1757   1.086   4.170   3.283
  598TIP3    H1 1758   1.118   4.259   3.300
  598TIP3    H2 1759   1.094   4.126   3.367
  599TIP3   OH2 1760   1.930   1.891   1.342
  599TIP3    H1 1761   1.982   1.962   1.304
  599TIP3    H2 1762   1.908   1.921   1.430
  600TIP3   OH2 1763   6.168   0.575   4.132
  600TIP3    H1 1764   6.257   0.604   4.115
  600TIP3    H2 1765   6.153   0.593   4.225
  601TIP3   OH2 1766   6.543   6.578   0.798
  601TIP3    H1 1767   6.537   6.495   0.751
  601TIP3    H2 1768   6.624   6.572   0.848
  602TIP3   OH2 1769   1.045   3.685   5.874
  602TIP3    H1 1770   1.024   3.655   5.785
  602TIP3    H2 1771   1.126   3.736   5.863
  603TIP3   OH2 1772   2.571   3.369   3.569
  603TIP3    H1 1773   2.656   3.328   3.556
  603TIP3    H2 1774   2.529   3.366   3.483
  604TIP3   OH2 1775   5.939   4.067   2.311
  604TIP3    H1 1776   5.990   4.091   2.234
  604TIP3    H2 1777   6.001   4.021   2.368
  605TIP3   OH2 1778   7.052   3.239   1.121
  605TIP3    H1 1779   7.044   3.149   1.090
  605TIP3    H2 1780   7.040   3.233   1.216
  606TIP3   OH2 1781   4.860   1.001   2.834
  606TIP3    H1 1782   4.789   1.064   2.826
  606TIP3    H2 1783   4.927   1.032   2.773
  607TIP3   OH2 1784   4.980   0.934   0.440
  607TIP3    H1 1785   5.059   0.925   0.492
  607TIP3    H2 1786   4.908   0.923   0.503
  608TIP3   OH2 1787   0.873   1.571   2.515
  608TIP3    H1 1788   0.829   1.630   2.576
  608TIP3    H2 1789   0.877   1.487   2.561
  609TIP3   OH2 1790   1.017   3.666   4.111
  609TIP3    H1 1791   1.027   3.573   4.089
  609TIP3    H2 1792   1.061   3.712   4.040
  610TIP3   OH2 1793   6.503   4.725   1.720
  610TIP3    H1 1794   6.578   4.750   1.773
  610TIP3    H2 1795   6.428   4.735   1.778
  611TIP3   OH2 1796   5.834   2.976   5.302
  611TIP3    H1 1797   5.799   2.973   5.213
  611TIP3    H2 1798   5.870   3.064   5.311
  612TIP3   OH2 1799   2.345   2.417   0.467
  612TIP3    H1 1800   2.370   2.386   0.554
  612TIP3    H2 1801   2.413   2.384   0.409
  613TIP3   OH2 1802   1.930   6.706   1.088
  613TIP3    H1 1803   1.970   6.634   1.040
  613TIP3    H2 1804   1.862   6.739   1.029
  614TIP3   OH2 1805   4.333   0.095   0.085
  614TIP3    H1 1806   4.319   0.106  -0.009
  614TIP3    H2 1807   4.270   0.028   0.111
  615TIP3   OH2 1808   3.066   5.021   4.800
  615TIP3    H1 1809   3.082   4.927   4.805
  615TIP3    H2 1810   3.045   5.037   4.708
  616TIP3   OH2 1811   5.846   6.327   2.899
  616TIP3    H1 1812   5.932   6.285   2.902
  616TIP3    H2 1813   5.836   6.368   2.986
  617TIP3   OH2 1814   2.762   0.828   2.952
  617TIP3    H1 1815   2.803   0.824   2.865
  617TIP3    H2 1816   2.701   0.901   2.946
  618TIP3   OH2 1817   1.738   4.138   2.433
  618TIP3    H1 1818   1.706   4.179   2.352
  618TIP3    H2 1819   1.700   4.191   2.503
  619TIP3   OH2 1820   4.172   3.976   2.103
  619TIP3    H1 1821   4.127   3.892   2.092
  619TIP3    H2 1822   4.181   3.985   2.198
  620TIP3   OH2 1823   2.078   0.574   4.968
  620TIP3    H1 1824   2.019   0.499   4.968
  620TIP3    H2 1825   2.097   0.590   4.876
  621TIP3   OH2 1826   5.848   4.492   3.484
  621TIP3    H1 1827   5.789   4.461   3.415
  621TIP3    H2 1828   5.798   4.482   3.565
  622TIP3   OH2 1829   1.586   2.125   3.953
  622TIP3    H1 1830   1.518   2.058   3.938
  622TIP3    H2 1831   1.665   2.075   3.974
  623TIP3   OH2 1832   3.541   4.813   0.357
  623TIP3    H1 1833   3.602   4.865   0.410
  623TIP3    H2 1834   3.455   4.850   0.376
  624TIP3   OH2 1835   1.199   3.949   2.755
  624TIP3    H1 1836   1.171   4.005   2.683
  624TIP3    H2 1837   1.149   3.868   2.744
  625TIP3   OH2 1838   5.852   2.082   5.774
  625TIP3    H1 1839   5.878   2.074   5.865
  625TIP3    H2 1840   5.775   2.139   5.776
  626TIP3   OH2 1841   1.984   1.424   3.553
  626TIP3    H1 1842   1.930   1.345   3.566
  626TIP3    H2 1843   1.931   1.495   3.589
  627TIP3   OH2 1844   0.488   2.952   2.452
  627TIP3    H1 1845   0.507   2.986   2.365
  627TIP3    H2 1846   0.447   3.026   2.498
  628TIP3   OH2 1847   3.573   3.899   1.871
  628TIP3    H1 1848   3.579   3.986   1.910
  628TIP3    H2 1849   3.649   3.895   1.811
  629TIP3   OH2 1850   0.342   0.957   3.038
  629TIP3    H1 1851   0.278   0.966   3.109
  629TIP3    H2 1852   0.358   1.046   3.009
  630TIP3   OH2 1853   3.959   2.437   0.583
  630TIP3    H1 1854   4.032   2.494   0.560
  630TIP3    H2 1855   3.937   2.392   0.502
  631TIP3   OH2 1856   2.879   1.750   4.369
  631TIP3    H1 1857   2.844   1.662   4.385
  631TIP3    H2 1858   2.971   1.735   4.350
  632TIP3   OH2 1859   5.357   1.574   2.816
  632TIP3    H1 1860   5.350   1.669   2.821
  632TIP3    H2 1861   5.272   1.542   2.850
  633TIP3   OH2 1862   4.414   4.870   2.666
  633TIP3    H1 1863   4.319   4.878   2.666
  633TIP3    H2 1864   4.431   4.780   2.692
  634TIP3   OH2 1865   6.860   3.988   2.277
  634TIP3    H1 1866   6.876   3.927   2.206
  634TIP3    H2 1867   6.864   3.935   2.356
  635TIP3   OH2 1868   1.402   1.355   1.486
  635TIP3    H1 1869   1.320   1.402   1.502
  635TIP3    H2 1870   1.436   1.392   1.404
  636TIP3   OH2 1871   0.834   4.631   0.022
  636TIP3    H1 1872   0.874   4.547  -0.001
  636TIP3    H2 1873   0.773   4.610   0.092
  637TIP3   OH2 1874   3.864   3.957   2.418
  637TIP3    H1 1875   3.897   4.027   2.360
  637TIP3    H2 1876   3.778   3.936   2.383
  638TIP3   OH2 1877   7.020   6.465   1.039
  638TIP3    H1 1878   7.099   6.493   0.994
  638TIP3    H2 1879   7.050   6.437   1.126
  639TIP3   OH2 1880   1.073   5.254   4.964
  639TIP3    H1 1881   1.047   5.187   4.900
  639TIP3    H2 1882   1.029   5.334   4.935
  640TIP3   OH2 1883   2.603   3.906   0.387
  640TIP3    H1 1884   2.537   3.973   0.367
  640TIP3    H2 1885   2.575   3.869   0.470
  641TIP3   OH2 1886   6.354   3.278   5.126
  641TIP3    H1 1887   6.401   3.356   5.096
  641TIP3    H2 1888   6.393   3.206   5.076
  642TIP3   OH2 1889   3.360   3.532   1.817
  642TIP3    H1 1890   3.392   3.552   1.729
  642TIP3    H2 1891   3.309   3.609   1.842
  643TIP3   OH2 1892   1.803   2.677   3.802
  643TIP3    H1 1893   1.843   2.651   3.718
  643TIP3    H2 1894   1.866   2.646   3.868
  644TIP3   OH2 1895   3.664   0.542   5.268
  644TIP3    H1 1896   3.571   0.551   5.292
  644TIP3    H2 1897   3.689   0.456   5.302
  645TIP3   OH2 1898   1.103   3.692   2.733
  645TIP3    H1 1899   1.010   3.686   2.755
  645TIP3    H2 1900   1.107   3.668   2.640
  646TIP3   OH2 1901   1.561   2.675   0.134
  646TIP3    H1 1902   1.476   2.682   0.090
  646TIP3    H2 1903   1.571   2.582   0.152
  647TIP3   OH2 1904   4.949   1.939   5.089
  647TIP3    H1 1905   4.957   1.845   5.074
  647TIP3    H2 1906   4.860   1.961   5.059
  648TIP3   OH2 1907   1.524   1.084   0.616
  648TIP3    H1 1908   1.552   1.104   0.527
  648TIP3    H2 1909   1.592   1.121   0.672
  649TIP3   OH2 1910   0.356   6.753   0.927
  649TIP3    H1 1911   0.371   6.831   0.980
  649TIP3    H2 1912   0.393   6.681   0.979
  650TIP3   OH2 1913   6.844   3.683   0.843
  650TIP3    H1 1914   6.872   3.598   0.876
  650TIP3    H2 1915   6.819   3.732   0.921
  651TIP3   OH2 1916   1.970   2.725   5.106
  651TIP3    H1 1917   1.981   2.734   5.012
  651TIP3    H2 1918   2.049   2.680   5.136
  652TIP3   OH2 1919   0.709   2.945   0.791
  652TIP3    H1 1920   0.741   2.872   0.737
  652TIP3    H2 1921   0.710   3.021   0.731
  653TIP3   OH2 1922   2.461   2.841   0.546
  653TIP3    H1 1923   2.439   2.865   0.636
  653TIP3    H2 1924   2.544   2.886   0.529
  654TIP3   OH2 1925   4.330   2.678   2.430
  654TIP3    H1 1926   4.236   2.670   2.442
  654TIP3    H2 1927   4.364   2.693   2.518
  655TIP3   OH2 1928   5.500   1.758   3.334
  655TIP3    H1 1929   5.431   1.703   3.370
  655TIP3    H2 1930   5.570   1.698   3.311
  656TIP3   OH2 1931   2.819   4.433   2.814
  656TIP3    H1 1932   2.892   4.480   2.854
  656TIP3    H2 1933   2.795   4.366   2.878
  657TIP3   OH2 1934   2.494   1.134   0.844
  657TIP3    H1 1935   2.417   1.188   0.828
  657TIP3    H2 1936   2.481   1.099   0.932
  658TIP3   OH2 1937   6.604   0.138   3.935
  658TIP3    H1 1938   6.564   0.074   3.993
  658TIP3    H2 1939   6.614   0.217   3.989
  659TIP3   OH2 1940   1.343   3.681   4.214
  659TIP3    H1 1941   1.425   3.727   4.233
  659TIP3    H2 1942   1.274   3.746   4.232
  660TIP3   OH2 1943   3.467   0.710   0.739
  660TIP3    H1 1944   3.489   0.747   0.654
  660TIP3    H2 1945   3.538   0.738   0.796
  661TIP3   OH2 1946   2.153   5.591   3.570
  661TIP3    H1 1947   2.123   5.634   3.650
  661TIP3    H2 1948   2.231   5.542   3.596
  662TIP3   OH2 1949   1.402   3.794   1.837
  662TIP3    H1 1950   1.380   3.702   1.852
  662TIP3    H2 1951   1.331   3.843   1.879
  663TIP3   OH2 1952   0.001   2.972   2.890
  663TIP3    H1 1953  -0.046   3.032   2.948
  663TIP3    H2 1954   0.081   2.950   2.939
  664TIP3   OH2 1955   0.050   2.040   5.420
  664TIP3    H1 1956   0.030   2.134   5.422
  664TIP3    H2 1957   0.000   2.004   5.493
  665TIP3   OH2 1958   4.207   5.330   3.472
  665TIP3    H1 1959   4.178   5.239   3.459
  665TIP3    H2 1960   4.294   5.323   3.510
  666TIP3   OH2 1961   4.115   6.864   4.489
  666TIP3    H1 1962   4.205   6.847   4.516
  666TIP3    H2 1963   4.079   6.777   4.470
  667TIP3   OH2 1964   1.440   2.556   5.250
  667TIP3    H1 1965   1.437   2.466   5.219
  667TIP3    H2 1966   1.502   2.555   5.323
  668TIP3   OH2 1967   5.613   6.404   5.592
  668TIP3    H1 1968   5.534   6.441   5.633
  668TIP3    H2 1969   5.679   6.406   5.662
  669TIP3   OH2 1970   6.934   2.450   1.704
  669TIP3    H1 1971   6.845   2.430   1.674
  669TIP3    H2 1972   6.949   2.389   1.776
  670TIP3   OH2 1973   2.050   3.359   2.250
  670TIP3    H1 1974   2.142   3.339   2.232
  670TIP3    H2 1975   2.024   3.416   2.178
  671TIP3   OH2 1976   4.271   4.567   5.780
  671TIP3    H1 1977   4.214   4.552   5.856
  671TIP3    H2 1978   4.303   4.480   5.757
  672TIP3   OH2 1979   2.624   1.638   4.577
  672TIP3    H1 1980   2.674   1.579   4.632
  672TIP3    H2 1981   2.645   1.726   4.609
  673TIP3   OH2 1982   4.181   1.380   1.835
  673TIP3    H1 1983   4.189   1.360   1.742
  673TIP3    H2 1984   4.266   1.358   1.872
  674TIP3   OH2 1985   5.008   6.068   5.726
  674TIP3    H1 1986   5.032   6.035   5.813
  674TIP3    H2 1987   4.984   6.160   5.741
  675TIP3   OH2 1988   2.709   6.531   4.967
  675TIP3    H1 1989   2.657   6.550   5.045
  675TIP3    H2 1990   2.769   6.462   4.995
  676TIP3   OH2 1991   6.965   0.661   5.720
  676TIP3    H1 1992   6.880   0.704   5.713
  676TIP3    H2 1993   6.997   0.654   5.630
  677TIP3   OH2 1994   4.839   1.136   0.292
  677TIP3    H1 1995   4.889   1.217   0.306
  677TIP3    H2 1996   4.860   1.082   0.368
  678TIP3   OH2 1997   3.599   5.094   1.687
  678TIP3    H1 1998   3.636   5.041   1.616
  678TIP3    H2 1999   3.667   5.093   1.755
  679TIP3   OH2 2000   0.668   1.567   1.719
  679TIP3    H1 2001   0.697   1.592   1.807
  679TIP3    H2 2002   0.649   1.474   1.726
  680TIP3   OH2 2003   1.516   4.720   3.050
  680TIP3    H1 2004   1.527   4.794   3.109
  680TIP3    H2 2005   1.425   4.692   3.065
  681TIP3   OH2 2006   2.409   1.231   5.160
  681TIP3    H1 2007   2.334   1.288   5.176
  681TIP3    H2 2008   2.379   1.143   5.185
  682TIP3   OH2 2009   7.075   5.919   4.098
  682TIP3    H1 2010   7.012   5.852   4.070
  682TIP3    H2 2011   7.032   6.002   4.077
  683TIP3   OH2 2012   1.627   1.980   1.921
  683TIP3    H1 2013   1.613   1.917   1.851
  683TIP3    H2 2014   1.541   1.990   1.962
  684TIP3   OH2 2015   2.145   1.866   4.732
  684TIP3    H1 2016   2.190   1.787   4.703
  684TIP3    H2 2017   2.195   1.895   4.808
  685TIP3   OH2 2018   4.503   6.673   1.719
  685TIP3    H1 2019   4.492   6.607   1.786
  685TIP3    H2 2020   4.597   6.689   1.716
  686TIP3   OH2 2021   3.732   3.336   1.693
  686TIP3    H1 2022   3.803   3.278   1.720
  686TIP3    H2 2023   3.730   3.404   1.760
  687TIP3   OH2 2024   1.972   6.729   3.768
  687TIP3    H1 2025   1.960   6.651   3.822
  687TIP3    H2 2026   2.059   6.717   3.728
  688TIP3   OH2 2027   6.566   4.421   1.568
  688TIP3    H1 2028   6.585   4.457   1.482
  688TIP3    H2 2029   6.649   4.385   1.598
  689TIP3   OH2 2030   4.592   6.269   3.313
  689TIP3    H1 2031   4.570   6.362   3.321
  689TIP3    H2 2032   4.676   6.260   3.359
  690TIP3   OH2 2033   6.994   0.079   1.994
  690TIP3    H1 2034   7.018   0.043   2.080
  690TIP3    H2 2035   7.063   0.047   1.935
  691TIP3   OH2 2036   7.248   6.070   2.627
  691TIP3    H1 2037   7.161   6.032   2.613
  691TIP3    H2 2038   7.256   6.136   2.558
  692TIP3   OH2 2039   3.344   2.997   2.103
  692TIP3    H1 2040   3.301   3.072   2.063
  692TIP3    H2 2041   3.281   2.925   2.095
  693TIP3   OH2 2042   1.473   4.898   2.347
  693TIP3    H1 2043   1.547   4.927   2.400
  693TIP3    H2 2044   1.473   4.803   2.355
  694TIP3   OH2 2045   0.377   5.270   3.687
  694TIP3    H1 2046   0.356   5.240   3.599
  694TIP3    H2 2047   0.431   5.348   3.674
  695TIP3   OH2 2048   7.091   5.216   5.914
  695TIP3    H1 2049   7.182   5.202   5.886
  695TIP3    H2 2050   7.056   5.278   5.850
  696TIP3   OH2 2051   1.667   1.393   0.380
  696TIP3    H1 2052   1.628   1.455   0.441
  696TIP3    H2 2053   1.761   1.400   0.396
  697TIP3   OH2 2054   2.597   0.393   2.688
  697TIP3    H1 2055   2.580   0.472   2.739
  697TIP3    H2 2056   2.620   0.327   2.753
  698TIP3   OH2 2057   3.900   6.154   1.021
  698TIP3    H1 2058   3.899   6.072   1.070
  698TIP3    H2 2059   3.849   6.136   0.942
  699TIP3   OH2 2060   2.999   3.727   2.006
  699TIP3    H1 2061   2.989   3.632   2.009
  699TIP3    H2 2062   2.985   3.750   1.914
  700TIP3   OH2 2063   0.885   3.034   4.591
  700TIP3    H1 2064   0.821   2.979   4.545
  700TIP3    H2 2065   0.863   3.123   4.565
  701TIP3   OH2 2066   2.729   6.775   4.874
  701TIP3    H1 2067   2.717   6.682   4.895
  701TIP3    H2 2068   2.728   6.818   4.960
  702TIP3   OH2 2069   3.592   3.484   3.095
  702TIP3    H1 2070   3.620   3.575   3.101
  702TIP3    H2 2071   3.557   3.475   3.006
  703TIP3   OH2 2072   4.366   6.499   0.639
  703TIP3    H1 2073   4.289   6.442   0.635
  703TIP3    H2 2074   4.415   6.468   0.715
  704TIP3   OH2 2075   5.903   1.907   0.430
  704TIP3    H1 2076   5.966   1.914   0.502
  704TIP3    H2 2077   5.953   1.865   0.359
  705TIP3   OH2 2078   5.225   0.993   2.612
  705TIP3    H1 2079   5.189   1.064   2.666
  705TIP3    H2 2080   5.298   1.034   2.565
  706TIP3   OH2 2081   3.622   1.235   3.743
  706TIP3    H1 2082   3.712   1.204   3.741
  706TIP3    H2 2083   3.587   1.214   3.656
  707TIP3   OH2 2084   3.392   5.172   2.439
  707TIP3    H1 2085   3.435   5.145   2.358
  707TIP3    H2 2086   3.332   5.101   2.460
  708TIP3   OH2 2087   0.098   1.949   4.954
  708TIP3    H1 2088   0.157   1.947   4.879
  708TIP3    H2 2089   0.013   1.975   4.916
  709TIP3   OH2 2090   4.926   1.454   3.652
  709TIP3    H1 2091   4.996   1.389   3.646
  709TIP3    H2 2092   4.960   1.531   3.607
  710TIP3   OH2 2093   2.411   5.287   2.648
  710TIP3    H1 2094   2.361   5.325   2.721
  710TIP3    H2 2095   2.353   5.220   2.612
  711TIP3   OH2 2096   6.101   3.196   1.920
  711TIP3    H1 2097   6.139   3.160   2.001
  711TIP3    H2 2098   6.040   3.263   1.951
  712TIP3   OH2 2099   3.249   2.416   3.419
  712TIP3    H1 2100   3.280   2.348   3.478
  712TIP3    H2 2101   3.329   2.462   3.392
  713TIP3   OH2 2102   3.128   2.765   4.104
  713TIP3    H1 2103   3.123   2.836   4.039
  713TIP3    H2 2104   3.082   2.692   4.063
  714TIP3   OH2 2105   3.931   5.042   0.660
  714TIP3    H1 2106   3.940   5.110   0.726
  714TIP3    H2 2107   3.936   4.960   0.709
  715TIP3   OH2 2108   6.351   5.041   0.028
  715TIP3    H1 2109   6.352   5.108  -0.040
  715TIP3    H2 2110   6.342   5.089   0.110
  716TIP3   OH2 2111   2.640   6.676   1.304
  716TIP3    H1 2112   2.632   6.584   1.276
  716TIP3    H2 2113   2.681   6.720   1.230
  717TIP3   OH2 2114   1.851   6.147   3.009
  717TIP3    H1 2115   1.938   6.185   3.026
  717TIP3    H2 2116   1.801   6.167   3.088
  718TIP3   OH2 2117   6.780   1.652   0.752
  718TIP3    H1 2118   6.730   1.612   0.823
  718TIP3    H2 2119   6.715   1.669   0.684
  719TIP3   OH2 2120   2.286   4.104   5.490
  719TIP3    H1 2121   2.325   4.091   5.404
  719TIP3    H2 2122   2.202   4.146   5.472
  720TIP3   OH2 2123   5.692   3.388   4.203
  720TIP3    H1 2124   5.667   3.296   4.198
  720TIP3    H2 2125   5.787   3.388   4.191
  721TIP3   OH2 2126   0.103   4.618   4.899
  721TIP3    H1 2127   0.131   4.571   4.977
  721TIP3    H2 2128   0.133   4.564   4.826
  722TIP3   OH2 2129   0.895   0.467  -0.015
  722TIP3    H1 2130   0.880   0.380   0.022
  722TIP3    H2 2131   0.985   0.488   0.010
  723TIP3   OH2 2132   1.891   5.050   0.029
  723TIP3    H1 2133   1.844   5.060  -0.054
  723TIP3    H2 2134   1.825   5.016   0.090
  724TIP3   OH2 2135   2.869   6.723   3.890
  724TIP3    H1 2136   2.878   6.765   3.975
  724TIP3    H2 2137   2.946   6.751   3.841
  725TIP3   OH2 2138   6.397   2.416   4.310
  725TIP3    H1 2139   6.331   2.485   4.302
  725TIP3    H2 2140   6.382   2.379   4.397
  726TIP3   OH2 2141   0.263   4.638   1.490
  726TIP3    H1 2142   0.355   4.657   1.474
  726TIP3    H2 2143   0.227   4.619   1.404
  727TIP3   OH2 2144   6.584   0.390   3.436
  727TIP3    H1 2145   6.662   0.397   3.491
  727TIP3    H2 2146   6.561   0.297   3.438
  728TIP3   OH2 2147   5.285   5.692   1.992
  728TIP3    H1 2148   5.232   5.613   1.983
  728TIP3    H2 2149   5.313   5.693   2.083
  729TIP3   OH2 2150   1.114   0.101   0.679
  729TIP3    H1 2151   1.187   0.086   0.739
  729TIP3    H2 2152   1.139   0.054   0.599
  730TIP3   OH2 2153   2.734   5.076   4.869
  730TIP3    H1 2154   2.737   4.995   4.920
  730TIP3    H2 2155   2.704   5.047   4.782
  731TIP3   OH2 2156   4.243   3.993   3.220
  731TIP3    H1 2157   4.149   3.975   3.226
  731TIP3    H2 2158   4.285   3.910   3.243
  732TIP3   OH2 2159   3.184   2.218   5.276
  732TIP3    H1 2160   3.163   2.286   5.212
  732TIP3    H2 2161   3.130   2.238   5.352
  733TIP3   OH2 2162   3.464   3.162   0.846
  733TIP3    H1 2163   3.433   3.133   0.759
  733TIP3    H2 2164   3.484   3.080   0.892
  734TIP3   OH2 2165   0.701   2.643   1.010
  734TIP3    H1 2166   0.692   2.600   0.925
  734TIP3    H2 2167   0.719   2.735   0.989
  735TIP3   OH2 2168   5.374   6.432   3.615
  735TIP3    H1 2169   5.436   6.484   3.666
  735TIP3    H2 2170   5.298   6.490   3.603
  736TIP3   OH2 2171   0.006   4.339   2.347
  736TIP3    H1 2172   0.074   4.387   2.395
  736TIP3    H2 2173  -0.060   4.321   2.414
  737TIP3   OH2 2174   3.304   4.797   5.687
  737TIP3    H1 2175   3.306   4.835   5.599
  737TIP3    H2 2176   3.327   4.705   5.674
  738TIP3   OH2 2177   1.959   4.336   2.265
  738TIP3    H1 2178   2.034   4.357   2.210
  738TIP3    H2 2179   1.910   4.418   2.271
  739TIP3   OH2 2180   1.939   5.158   2.520
  739TIP3    H1 2181   1.886   5.080   2.537
  739TIP3    H2 2182   1.900   5.196   2.441
  740TIP3   OH2 2183   5.990   3.220   3.226
  740TIP3    H1 2184   6.019   3.305   3.260
  740TIP3    H2 2185   6.067   3.164   3.237
  741TIP3   OH2 2186   2.166   1.187   3.846
  741TIP3    H1 2187   2.110   1.182   3.923
  741TIP3    H2 2188   2.255   1.192   3.881
  742TIP3   OH2 2189   1.620   5.822   2.174
  742TIP3    H1 2190   1.649   5.730   2.172
  742TIP3    H2 2191   1.539   5.820   2.225
  743TIP3   OH2 2192   5.330   1.927   3.492
  743TIP3    H1 2193   5.412   1.920   3.443
  743TIP3    H2 2194   5.309   1.836   3.516
  744TIP3   OH2 2195   6.554   5.230   0.528
  744TIP3    H1 2196   6.527   5.171   0.599
  744TIP3    H2 2197   6.582   5.310   0.572
  745TIP3   OH2 2198   4.708   6.648   4.008
  745TIP3    H1 2199   4.773   6.582   3.985
  745TIP3    H2 2200   4.749   6.699   4.077
  746TIP3   OH2 2201   0.040   3.630   0.701
  746TIP3    H1 2202   0.088   3.693   0.754
  746TIP3    H2 2203  -0.040   3.676   0.675
  747TIP3   OH2 2204   4.568   1.006   1.290
  747TIP3    H1 2205   4.656   0.970   1.281
  747TIP3    H2 2206   4.578   1.099   1.272
  748TIP3   OH2 2207   7.191   5.791   5.304
  748TIP3    H1 2208   7.106   5.803   5.262
  748TIP3    H2 2209   7.235   5.875   5.295
  749TIP3   OH2 2210   6.170   1.612   4.466
  749TIP3    H1 2211   6.262   1.603   4.492
  749TIP3    H2 2212   6.144   1.699   4.498
  750TIP3   OH2 2213   1.567   0.580   3.142
  750TIP3    H1 2214   1.514   0.587   3.062
  750TIP3    H2 2215   1.514   0.528   3.202
  751TIP3   OH2 2216   6.254   1.676   0.809
  751TIP3    H1 2217   6.227   1.764   0.784
  751TIP3    H2 2218   6.214   1.619   0.742
  752TIP3   OH2 2219   3.001   2.303   1.935
  752TIP3    H1 2220   3.038   2.286   2.022
  752TIP3    H2 2221   3.066   2.358   1.892
  753TIP3   OH2 2222   1.393   5.464   5.705
  753TIP3    H1 2223   1.325   5.459   5.772
  753TIP3    H2 2224   1.360   5.409   5.633
  754TIP3   OH2 2225   1.381   2.087   1.743
  754TIP3    H1 2226   1.452   2.121   1.688
  754TIP3    H2 2227   1.404   2.113   1.832
  755TIP3   OH2 2228   0.954   2.440   3.578
  755TIP3    H1 2229   0.948   2.345   3.592
  755TIP3    H2 2230   0.955   2.450   3.483
  756TIP3   OH2 2231   3.020   5.837   4.770
  756TIP3    H1 2232   3.029   5.839   4.865
  756TIP3    H2 2233   3.072   5.912   4.740
  757TIP3   OH2 2234   3.806   4.437   1.744
  757TIP3    H1 2235   3.818   4.466   1.654
  757TIP3    H2 2236   3.743   4.365   1.737
  758TIP3   OH2 2237   4.394   0.878   2.438
  758TIP3    H1 2238   4.301   0.856   2.430
  758TIP3    H2 2239   4.409   0.943   2.370
  759TIP3   OH2 2240   6.089   1.820   3.376
  759TIP3    H1 2241   6.003   1.842   3.341
  759TIP3    H2 2242   6.097   1.726   3.363
  760TIP3   OH2 2243   0.255   0.470   3.612
  760TIP3    H1 2244   0.338   0.447   3.571
  760TIP3    H2 2245   0.261   0.435   3.701
  761TIP3   OH2 2246   5.637   6.183   4.864
  761TIP3    H1 2247   5.670   6.093   4.853
  761TIP3    H2 2248   5.699   6.237   4.816
  762TIP3   OH2 2249   2.950   6.280   0.723
  762TIP3    H1 2250   2.876   6.333   0.752
  762TIP3    H2 2251   2.961   6.213   0.791
  763TIP3   OH2 2252   6.447   4.286   0.657
  763TIP3    H1 2253   6.482   4.373   0.642
  763TIP3    H2 2254   6.521   4.235   0.688
  764TIP3   OH2 2255   6.356   2.490   0.469
  764TIP3    H1 2256   6.330   2.461   0.382
  764TIP3    H2 2257   6.451   2.500   0.464
  765TIP3   OH2 2258   6.385   6.099   4.429
  765TIP3    H1 2259   6.418   6.086   4.340
  765TIP3    H2 2260   6.443   6.165   4.466
  766TIP3   OH2 2261   3.109   2.330   4.051
  766TIP3    H1 2262   3.165   2.388   4.102
  766TIP3    H2 2263   3.064   2.389   3.990
  767TIP3   OH2 2264   3.534   4.025   5.632
  767TIP3    H1 2265   3.558   3.971   5.558
  767TIP3    H2 2266   3.475   4.091   5.596
  768TIP3   OH2 2267   6.056   5.389   4.333
  768TIP3    H1 2268   6.027   5.322   4.395
  768TIP3    H2 2269   6.138   5.421   4.369
  769TIP3   OH2 2270   4.981   0.109   5.388
  769TIP3    H1 2271   4.993   0.165   5.311
  769TIP3    H2 2272   5.053   0.047   5.384
  770TIP3   OH2 2273   1.529   3.132   4.410
  770TIP3    H1 2274   1.532   3.168   4.321
  770TIP3    H2 2275   1.620   3.134   4.440
  771TIP3   OH2 2276   1.981   0.262   2.899
  771TIP3    H1 2277   2.014   0.260   2.988
  771TIP3    H2 2278   1.887   0.277   2.908
  772TIP3   OH2 2279   6.635   3.479   1.836
  772TIP3    H1 2280   6.612   3.480   1.929
  772TIP3    H2 2281   6.669   3.391   1.821
  773TIP3   OH2 2282   4.990   2.595   5.463
  773TIP3    H1 2283   4.986   2.691   5.459
  773TIP3    H2 2284   4.919   2.570   5.522
  774TIP3   OH2 2285   6.389   2.657   1.383
  774TIP3    H1 2286   6.394   2.604   1.463
  774TIP3    H2 2287   6.480   2.668   1.356
  775TIP3   OH2 2288   6.535   4.286   4.985
  775TIP3    H1 2289   6.453   4.330   4.962
  775TIP3    H2 2290   6.582   4.279   4.902
  776TIP3   OH2 2291   3.214   1.556   2.192
  776TIP3    H1 2292   3.268   1.605   2.131
  776TIP3    H2 2293   3.195   1.617   2.263
  777TIP3   OH2 2294   4.199   3.327   2.030
  777TIP3    H1 2295   4.161   3.257   1.977
  777TIP3    H2 2296   4.141   3.402   2.016
  778TIP3   OH2 2297   1.278   2.410   2.034
  778TIP3    H1 2298   1.204   2.351   2.048
  778TIP3    H2 2299   1.291   2.412   1.940
  779TIP3   OH2 2300   0.941   2.089   4.762
  779TIP3    H1 2301   0.855   2.107   4.800
  779TIP3    H2 2302   0.965   2.003   4.796
  780TIP3   OH2 2303   2.160   1.522   3.334
  780TIP3    H1 2304   2.089   1.523   3.398
  780TIP3    H2 2305   2.207   1.441   3.351
  781TIP3   OH2 2306   1.013   1.528   4.178
  781TIP3    H1 2307   1.055   1.598   4.128
  781TIP3    H2 2308   0.966   1.574   4.248
  782TIP3   OH2 2309   3.960   2.094   3.395
  782TIP3    H1 2310   3.887   2.118   3.338
  782TIP3    H2 2311   4.006   2.177   3.410
  783TIP3   OH2 2312   5.468   5.201   5.553
  783TIP3    H1 2313   5.483   5.132   5.488
  783TIP3    H2 2314   5.465   5.282   5.502
  784TIP3   OH2 2315   5.902   0.367   1.441
  784TIP3    H1 2316   5.918   0.327   1.356
  784TIP3    H2 2317   5.977   0.425   1.455
  785TIP3   OH2 2318   2.642   1.853   2.958
  785TIP3    H1 2319   2.626   1.846   2.864
  785TIP3    H2 2320   2.623   1.944   2.979
  786TIP3   OH2 2321   3.196   5.459   2.677
  786TIP3    H1 2322   3.282   5.439   2.714
  786TIP3    H2 2323   3.150   5.505   2.748
  787TIP3   OH2 2324   6.539   6.318   2.437
  787TIP3    H1 2325   6.634   6.306   2.442
  787TIP3    H2 2326   6.527   6.384   2.368
  788TIP3   OH2 2327   0.910   6.225   3.973
  788TIP3    H1 2328   0.996   6.253   3.941
  788TIP3    H2 2329   0.862   6.306   3.987
  789TIP3   OH2 2330   5.665   2.186   3.444
  789TIP3    H1 2331   5.664   2.120   3.513
  789TIP3    H2 2332   5.757   2.194   3.419
  790TIP3   OH2 2333   5.857   3.779   0.301
  790TIP3    H1 2334   5.798   3.854   0.295
  790TIP3    H2 2335   5.801   3.703   0.291
  791TIP3   OH2 2336   0.441   4.185   4.461
  791TIP3    H1 2337   0.493   4.240   4.520
  791TIP3    H2 2338   0.352   4.219   4.468
  792TIP3   OH2 2339   1.529   2.711   3.821
  792TIP3    H1 2340   1.522   2.738   3.912
  792TIP3    H2 2341   1.623   2.713   3.802
  793TIP3   OH2 2342   3.422   0.427   3.680
  793TIP3    H1 2343   3.352   0.416   3.615
  793TIP3    H2 2344   3.452   0.338   3.698
  794TIP3   OH2 2345   4.554   3.273   4.039
  794TIP3    H1 2346   4.635   3.248   4.084
  794TIP3    H2 2347   4.491   3.205   4.064
  795TIP3   OH2 2348   7.000   6.204   4.541
  795TIP3    H1 2349   7.037   6.138   4.483
  795TIP3    H2 2350   6.946   6.259   4.483
  796TIP3   OH2 2351   0.427   1.684   4.074
  796TIP3    H1 2352   0.412   1.610   4.132
  796TIP3    H2 2353   0.498   1.733   4.116
  797TIP3   OH2 2354   2.357   0.937   3.165
  797TIP3    H1 2355   2.393   1.019   3.200
  797TIP3    H2 2356   2.327   0.889   3.242
  798TIP3   OH2 2357   4.954   5.323   5.575
  798TIP3    H1 2358   4.910   5.344   5.658
  798TIP3    H2 2359   4.979   5.231   5.585
  799TIP3   OH2 2360   3.010   2.273   2.614
  799TIP3    H1 2361   2.948   2.201   2.624
  799TIP3    H2 2362   2.966   2.349   2.653
  800TIP3   OH2 2363   5.713   1.282   1.974
  800TIP3    H1 2364   5.672   1.196   1.968
  800TIP3    H2 2365   5.807   1.264   1.968
  801TIP3   OH2 2366   5.559   4.144   5.033
  801TIP3    H1 2367   5.653   4.133   5.018
  801TIP3    H2 2368   5.522   4.057   5.019
  802TIP3   OH2 2369   5.058   4.635   3.610
  802TIP3    H1 2370   5.144   4.637   3.570
  802TIP3    H2 2371   5.043   4.542   3.631
  803TIP3   OH2 2372   1.540   4.535   4.329
  803TIP3    H1 2373   1.489   4.573   4.258
  803TIP3    H2 2374   1.579   4.610   4.373
  804TIP3   OH2 2375   6.695   5.321   1.913
  804TIP3    H1 2376   6.746   5.278   1.844
  804TIP3    H2 2377   6.670   5.249   1.971
  805TIP3   OH2 2378   0.082   4.391   2.806
  805TIP3    H1 2379   0.010   4.331   2.820
  805TIP3    H2 2380   0.161   4.339   2.825
  806TIP3   OH2 2381   0.944   6.797   3.540
  806TIP3    H1 2382   0.980   6.832   3.458
  806TIP3    H2 2383   1.005   6.728   3.565
  807TIP3   OH2 2384   6.830   1.510   1.876
  807TIP3    H1 2385   6.748   1.533   1.919
  807TIP3    H2 2386   6.895   1.513   1.947
  808TIP3   OH2 2387   0.551   4.481   3.960
  808TIP3    H1 2388   0.518   4.541   3.893
  808TIP3    H2 2389   0.531   4.525   4.043
  809TIP3   OH2 2390   3.289   2.745   3.708
  809TIP3    H1 2391   3.208   2.778   3.669
  809TIP3    H2 2392   3.358   2.773   3.648
  810TIP3   OH2 2393   5.380   4.638   1.580
  810TIP3    H1 2394   5.374   4.594   1.665
  810TIP3    H2 2395   5.414   4.726   1.600
  811TIP3   OH2 2396   1.882   5.309   0.853
  811TIP3    H1 2397   1.834   5.226   0.847
  811TIP3    H2 2398   1.846   5.362   0.782
  812TIP3   OH2 2399   1.080   2.651   0.705
  812TIP3    H1 2400   1.043   2.713   0.768
  812TIP3    H2 2401   1.169   2.684   0.690
  813TIP3   OH2 2402   5.688   6.361   2.279
  813TIP3    H1 2403   5.772   6.330   2.314
  813TIP3    H2 2404   5.656   6.421   2.346
  814TIP3   OH2 2405   1.139   3.396   0.964
  814TIP3    H1 2406   1.100   3.476   0.998
  814TIP3    H2 2407   1.234   3.409   0.973
  815TIP3   OH2 2408   3.780   2.913   0.312
  815TIP3    H1 2409   3.805   2.821   0.307
  815TIP3    H2 2410   3.858   2.961   0.285
  816TIP3   OH2 2411   0.366   0.702   5.833
  816TIP3    H1 2412   0.322   0.730   5.913
  816TIP3    H2 2413   0.300   0.650   5.786
  817TIP3   OH2 2414   6.686   4.274   0.281
  817TIP3    H1 2415   6.647   4.210   0.341
  817TIP3    H2 2416   6.624   4.347   0.281
  818TIP3   OH2 2417   5.982   4.707   4.808
  818TIP3    H1 2418   6.062   4.712   4.755
  818TIP3    H2 2419   5.918   4.665   4.750
  819TIP3   OH2 2420   5.286   4.517   4.416
  819TIP3    H1 2421   5.237   4.599   4.408
  819TIP3    H2 2422   5.297   4.504   4.510
  820TIP3   OH2 2423   3.252   5.664   2.072
  820TIP3    H1 2424   3.268   5.649   2.165
  820TIP3    H2 2425   3.269   5.580   2.030
  821TIP3   OH2 2426   6.728   3.073   3.366
  821TIP3    H1 2427   6.671   3.150   3.361
  821TIP3    H2 2428   6.791   3.094   3.436
  822TIP3   OH2 2429   3.389   1.092   2.633
  822TIP3    H1 2430   3.313   1.054   2.677
  822TIP3    H2 2431   3.354   1.128   2.551
  823TIP3   OH2 2432   0.947   4.320   5.184
  823TIP3    H1 2433   0.957   4.289   5.274
  823TIP3    H2 2434   0.974   4.245   5.130
  824TIP3   OH2 2435   2.877   0.682   0.475
  824TIP3    H1 2436   2.792   0.726   0.475
  824TIP3    H2 2437   2.900   0.673   0.567
  825TIP3   OH2 2438   5.496   3.565   3.475
  825TIP3    H1 2439   5.560   3.625   3.513
  825TIP3    H2 2440   5.505   3.485   3.527
  826TIP3   OH2 2441   1.078   1.029   1.308
  826TIP3    H1 2442   1.107   1.099   1.250
  826TIP3    H2 2443   1.107   1.057   1.395
  827TIP3   OH2 2444   0.073   6.164   2.887
  827TIP3    H1 2445  -0.005   6.167   2.942
  827TIP3    H2 2446   0.044   6.121   2.807
  828TIP3   OH2 2447   4.669   5.537   3.570
  828TIP3    H1 2448   4.737   5.521   3.635
  828TIP3    H2 2449   4.700   5.492   3.491
  829TIP3   OH2 2450   4.220   1.441   4.872
  829TIP3    H1 2451   4.151   1.508   4.866
  829TIP3    H2 2452   4.249   1.428   4.782
  830TIP3   OH2 2453   0.282   1.404   3.243
  830TIP3    H1 2454   0.352   1.430   3.303
  830TIP3    H2 2455   0.221   1.353   3.297
  831TIP3   OH2 2456   2.011   1.052   0.776
  831TIP3    H1 2457   1.939   1.091   0.826
  831TIP3    H2 2458   2.066   1.127   0.752
  832TIP3   OH2 2459   6.550   4.080   5.783
  832TIP3    H1 2460   6.532   3.987   5.791
  832TIP3    H2 2461   6.582   4.091   5.694
  833TIP3   OH2 2462   0.467   2.989   0.240
  833TIP3    H1 2463   0.480   3.010   0.333
  833TIP3    H2 2464   0.549   3.014   0.198
  834TIP3   OH2 2465   4.219   1.534   5.294
  834TIP3    H1 2466   4.152   1.578   5.242
  834TIP3    H2 2467   4.170   1.484   5.359
  835TIP3   OH2 2468   1.573   1.367   4.348
  835TIP3    H1 2469   1.530   1.284   4.369
  835TIP3    H2 2470   1.652   1.369   4.402
  836TIP3   OH2 2471   6.828   1.432   3.998
  836TIP3    H1 2472   6.804   1.416   3.906
  836TIP3    H2 2473   6.921   1.456   3.994
  837TIP3   OH2 2474   2.773   2.738   0.074
  837TIP3    H1 2475   2.710   2.787   0.128
  837TIP3    H2 2476   2.820   2.806   0.026
  838TIP3   OH2 2477   0.853   2.200   0.712
  838TIP3    H1 2478   0.887   2.281   0.749
  838TIP3    H2 2479   0.928   2.160   0.668
  839TIP3   OH2 2480   7.097   1.649   2.335
  839TIP3    H1 2481   7.159   1.656   2.407
  839TIP3    H2 2482   7.036   1.722   2.348
  840TIP3   OH2 2483   2.428   3.261   5.153
  840TIP3    H1 2484   2.367   3.329   5.125
  840TIP3    H2 2485   2.514   3.302   5.144
  841TIP3   OH2 2486   6.892   1.045   1.431
  841TIP3    H1 2487   6.860   0.997   1.354
  841TIP3    H2 2488   6.812   1.072   1.477
  842TIP3   OH2 2489   6.194   1.932   5.397
  842TIP3    H1 2490   6.107   1.952   5.433
  842TIP3    H2 2491   6.179   1.859   5.338
  843TIP3   OH2 2492   3.188   0.596   2.885
  843TIP3    H1 2493   3.200   0.647   2.805
  843TIP3    H2 2494   3.106   0.548   2.871
  844TIP3   OH2 2495   5.360   2.511   1.355
  844TIP3    H1 2496   5.287   2.543   1.408
  844TIP3    H2 2497   5.324   2.436   1.308
  845TIP3   OH2 2498   6.649   1.229   1.479
  845TIP3    H1 2499   6.615   1.161   1.538
  845TIP3    H2 2500   6.729   1.260   1.521
  846TIP3   OH2 2501   1.184   5.472   2.881
  846TIP3    H1 2502   1.154   5.520   2.958
  846TIP3    H2 2503   1.256   5.417   2.914
  847TIP3   OH2 2504   1.005   5.092   5.547
  847TIP3    H1 2505   0.914   5.074   5.523
  847TIP3    H2 2506   1.050   5.009   5.535
  848TIP3   OH2 2507   6.871   1.856   4.194
  848TIP3    H1 2508   6.925   1.934   4.203
  848TIP3    H2 2509   6.877   1.833   4.101
  849TIP3   OH2 2510   3.805   2.317   3.789
  849TIP3    H1 2511   3.865   2.245   3.771
  849TIP3    H2 2512   3.723   2.274   3.814
  850TIP3   OH2 2513   0.204   1.985   1.539
  850TIP3    H1 2514   0.219   1.898   1.577
  850TIP3    H2 2515   0.273   1.994   1.474
  851TIP3   OH2 2516   1.117   3.822   0.552
  851TIP3    H1 2517   1.041   3.824   0.494
  851TIP3    H2 2518   1.081   3.801   0.638
  852TIP3   OH2 2519   0.274   6.661   5.469
  852TIP3    H1 2520   0.231   6.724   5.411
  852TIP3    H2 2521   0.359   6.701   5.489
  853TIP3   OH2 2522   4.569   6.344   0.153
  853TIP3    H1 2523   4.661   6.316   0.155
  853TIP3    H2 2524   4.555   6.384   0.239
  854TIP3   OH2 2525   0.864   5.589   1.452
  854TIP3    H1 2526   0.858   5.493   1.445
  854TIP3    H2 2527   0.796   5.621   1.393
  855TIP3   OH2 2528   1.232   1.969   3.319
  855TIP3    H1 2529   1.209   2.007   3.234
  855TIP3    H2 2530   1.182   2.021   3.383
  856TIP3   OH2 2531   4.560   5.979   0.957
  856TIP3    H1 2532   4.580   5.885   0.960
  856TIP3    H2 2533   4.501   5.988   0.882
  857TIP3   OH2 2534   0.925   4.571   5.015
  857TIP3    H1 2535   0.987   4.630   5.058
  857TIP3    H2 2536   0.916   4.498   5.077
  858TIP3   OH2 2537   3.862   0.130   3.933
  858TIP3    H1 2538   3.847   0.212   3.886
  858TIP3    H2 2539   3.905   0.074   3.868
  859TIP3   OH2 2540   3.071   4.212   3.418
  859TIP3    H1 2541   3.083   4.152   3.492
  859TIP3    H2 2542   3.010   4.167   3.360
  860TIP3   OH2 2543   4.354   0.916   5.274
  860TIP3    H1 2544   4.288   0.913   5.342
  860TIP3    H2 2545   4.398   1.000   5.287
  861TIP3   OH2 2546   3.017   2.548   4.427
  861TIP3    H1 2547   2.993   2.455   4.434
  861TIP3    H2 2548   2.934   2.595   4.436
  862TIP3   OH2 2549   4.194   2.194   4.075
  862TIP3    H1 2550   4.153   2.260   4.019
  862TIP3    H2 2551   4.198   2.234   4.161
  863TIP3   OH2 2552   5.396   0.614   4.423
  863TIP3    H1 2553   5.432   0.528   4.400
  863TIP3    H2 2554   5.453   0.646   4.492
  864TIP3   OH2 2555   5.533   0.373   1.999
  864TIP3    H1 2556   5.454   0.322   1.982
  864TIP3    H2 2557   5.505   0.440   2.062
  865TIP3   OH2 2558   3.287   3.467   0.579
  865TIP3    H1 2559   3.209   3.469   0.634
  865TIP3    H2 2560   3.332   3.386   0.605
  866TIP3   OH2 2561   4.230   2.359   5.652
  866TIP3    H1 2562   4.272   2.433   5.608
  866TIP3    H2 2563   4.215   2.390   5.741
  867TIP3   OH2 2564   4.332   2.234   2.432
  867TIP3    H1 2565   4.345   2.186   2.514
  867TIP3    H2 2566   4.379   2.317   2.445
  868TIP3   OH2 2567   1.207   2.951   2.969
  868TIP3    H1 2568   1.175   3.035   2.938
  868TIP3    H2 2569   1.200   2.892   2.893
  869TIP3   OH2 2570   3.689   1.624   2.731
  869TIP3    H1 2571   3.716   1.678   2.805
  869TIP3    H2 2572   3.605   1.660   2.703
  870TIP3   OH2 2573   4.607   1.416   3.120
  870TIP3    H1 2574   4.665   1.481   3.079
  870TIP3    H2 2575   4.519   1.450   3.104
  871TIP3   OH2 2576   6.268   1.819   1.943
  871TIP3    H1 2577   6.224   1.740   1.911
  871TIP3    H2 2578   6.203   1.889   1.932
  872TIP3   OH2 2579   5.604   1.042   0.297
  872TIP3    H1 2580   5.650   0.971   0.253
  872TIP3    H2 2581   5.601   1.113   0.233
  873TIP3   OH2 2582   4.781   5.663   5.130
  873TIP3    H1 2583   4.777   5.573   5.097
  873TIP3    H2 2584   4.863   5.665   5.181
  874TIP3   OH2 2585   4.088   2.273   1.276
  874TIP3    H1 2586   4.167   2.280   1.223
  874TIP3    H2 2587   4.119   2.283   1.366
  875TIP3   OH2 2588   2.258   5.366   2.874
  875TIP3    H1 2589   2.269   5.336   2.965
  875TIP3    H2 2590   2.178   5.323   2.844
  876TIP3   OH2 2591   6.019   0.336   3.470
  876TIP3    H1 2592   6.108   0.304   3.457
  876TIP3    H2 2593   5.984   0.346   3.382
  877TIP3   OH2 2594   4.456   0.014   5.286
  877TIP3    H1 2595   4.413   0.079   5.231
  877TIP3    H2 2596   4.546   0.010   5.253
  878TIP3   OH2 2597   4.775   4.033   3.107
  878TIP3    H1 2598   4.767   3.943   3.075
  878TIP3    H2 2599   4.687   4.057   3.134
  879TIP3   OH2 2600   6.692   0.985   2.840
  879TIP3    H1 2601   6.635   1.042   2.789
  879TIP3    H2 2602   6.774   0.982   2.790
  880TIP3   OH2 2603   3.525   1.017   1.704
  880TIP3    H1 2604   3.597   0.974   1.657
  880TIP3    H2 2605   3.464   1.044   1.635
  881TIP3   OH2 2606   0.686   1.009   3.126
  881TIP3    H1 2607   0.686   1.104   3.135
  881TIP3    H2 2608   0.771   0.981   3.161
  882TIP3   OH2 2609   4.440   0.580   1.025
  882TIP3    H1 2610   4.368   0.533   1.067
  882TIP3    H2 2611   4.445   0.663   1.073
  883TIP3   OH2 2612   1.782   5.309   4.444
  883TIP3    H1 2613   1.810   5.289   4.533
  883TIP3    H2 2614   1.760   5.402   4.446
  884TIP3   OH2 2615   3.895   0.906   2.270
  884TIP3    H1 2616   3.881   0.855   2.190
  884TIP3    H2 2617   3.935   0.987   2.241
  885TIP3   OH2 2618   5.984   2.106  -0.014
  885TIP3    H1 2619   5.950   2.195  -0.015
  885TIP3    H2 2620   5.999   2.086   0.078
  886TIP3   OH2 2621   1.838   3.629   3.349
  886TIP3    H1 2622   1.917   3.682   3.334
  886TIP3    H2 2623   1.861   3.543   3.315
  887TIP3   OH2 2624   4.986   3.969   2.430
  887TIP3    H1 2625   5.043   3.970   2.353
  887TIP3    H2 2626   5.046   3.983   2.504
  888TIP3   OH2 2627   6.326   2.008   4.013
  888TIP3    H1 2628   6.378   2.003   4.093
  888TIP3    H2 2629   6.382   2.053   3.950
  889TIP3   OH2 2630   2.374   3.430   1.711
  889TIP3    H1 2631   2.299   3.436   1.652
  889TIP3    H2 2632   2.363   3.346   1.756
  890TIP3   OH2 2633   1.546   6.288   4.053
  890TIP3    H1 2634   1.553   6.384   4.055
  890TIP3    H2 2635   1.494   6.266   4.131
  891TIP3   OH2 2636   6.338   1.955   4.714
  891TIP3    H1 2637   6.357   1.864   4.737
  891TIP3    H2 2638   6.246   1.954   4.686
  892TIP3   OH2 2639   6.465   4.026   1.683
  892TIP3    H1 2640   6.432   4.102   1.635
  892TIP3    H2 2641   6.560   4.034   1.678
  893TIP3   OH2 2642   1.735   2.170   4.668
  893TIP3    H1 2643   1.766   2.236   4.607
  893TIP3    H2 2644   1.797   2.172   4.741
  894TIP3   OH2 2645   7.179   2.346   2.587
  894TIP3    H1 2646   7.243   2.411   2.559
  894TIP3    H2 2647   7.144   2.381   2.669
  895TIP3   OH2 2648   2.481   5.439   5.406
  895TIP3    H1 2649   2.490   5.401   5.318
  895TIP3    H2 2650   2.571   5.447   5.437
  896TIP3   OH2 2651   2.453   3.558   0.623
  896TIP3    H1 2652   2.407   3.502   0.686
  896TIP3    H2 2653   2.543   3.526   0.623
  897TIP3   OH2 2654   2.465   4.372   2.919
  897TIP3    H1 2655   2.536   4.353   2.857
  897TIP3    H2 2656   2.496   4.336   3.002
  898TIP3   OH2 2657   3.449   0.685   5.023
  898TIP3    H1 2658   3.462   0.621   4.952
  898TIP3    H2 2659   3.473   0.769   4.984
  899TIP3   OH2 2660   2.195   3.638   1.914
  899TIP3    H1 2661   2.282   3.625   1.951
  899TIP3    H2 2662   2.211   3.686   1.832
  900TIP3   OH2 2663   2.301   0.277   5.357
  900TIP3    H1 2664   2.280   0.336   5.284
  900TIP3    H2 2665   2.364   0.215   5.320
  901TIP3   OH2 2666   5.394   1.993   5.200
  901TIP3    H1 2667   5.452   1.998   5.276
  901TIP3    H2 2668   5.363   1.903   5.199
  902TIP3   OH2 2669   3.498   0.304   5.833
  902TIP3    H1 2670   3.430   0.240   5.813
  902TIP3    H2 2671   3.460   0.359   5.902
  903TIP3   OH2 2672   5.043   3.177   1.620
  903TIP3    H1 2673   4.959   3.209   1.653
  903TIP3    H2 2674   5.022   3.097   1.572
  904TIP3   OH2 2675   5.010   2.076   5.338
  904TIP3    H1 2676   5.100   2.062   5.369
  904TIP3    H2 2677   4.999   2.011   5.269
  905TIP3   OH2 2678   3.821   2.977   3.279
  905TIP3    H1 2679   3.776   3.042   3.226
  905TIP3    H2 2680   3.786   2.893   3.248
  906TIP3   OH2 2681   1.565   2.711   1.648
  906TIP3    H1 2682   1.528   2.657   1.718
  906TIP3    H2 2683   1.656   2.723   1.672
  907TIP3   OH2 2684   3.807   1.498   0.282
  907TIP3    H1 2685   3.869   1.424   0.279
  907TIP3    H2 2686   3.721   1.458   0.268
  908TIP3   OH2 2687   6.488   2.813   3.613
  908TIP3    H1 2688   6.481   2.720   3.589
  908TIP3    H2 2689   6.581   2.828   3.623
  909TIP3   OH2 2690   4.914   4.420   3.359
  909TIP3    H1 2691   4.876   4.382   3.280
  909TIP3    H2 2692   4.839   4.438   3.415
  910TIP3   OH2 2693   1.318   0.538   1.715
  910TIP3    H1 2694   1.371   0.558   1.638
  910TIP3    H2 2695   1.279   0.622   1.740
  911TIP3   OH2 2696   4.586   6.189   5.155
  911TIP3    H1 2697   4.593   6.141   5.072
  911TIP3    H2 2698   4.646   6.144   5.214
  912TIP3   OH2 2699   4.053   1.967   1.808
  912TIP3    H1 2700   4.138   1.954   1.850
  912TIP3    H2 2701   4.051   1.903   1.737
  913TIP3   OH2 2702   5.090   6.277   3.957
  913TIP3    H1 2703   5.036   6.287   4.035
  913TIP3    H2 2704   5.040   6.220   3.900
  914TIP3   OH2 2705   4.408   5.235   2.489
  914TIP3    H1 2706   4.444   5.323   2.475
  914TIP3    H2 2707   4.469   5.193   2.549
  915TIP3   OH2 2708   0.160   0.028   5.197
  915TIP3    H1 2709   0.103  -0.043   5.225
  915TIP3    H2 2710   0.103   0.087   5.147
  916TIP3   OH2 2711   3.622   6.232   1.708
  916TIP3    H1 2712   3.668   6.161   1.753
  916TIP3    H2 2713   3.583   6.284   1.779
  917TIP3   OH2 2714   2.941   5.360   2.344
  917TIP3    H1 2715   2.899   5.288   2.298
  917TIP3    H2 2716   3.035   5.345   2.332
  918TIP3   OH2 2717   5.828   2.149   4.008
  918TIP3    H1 2718   5.879   2.140   3.928
  918TIP3    H2 2719   5.737   2.156   3.979
  919TIP3   OH2 2720   3.192   5.652   0.907
  919TIP3    H1 2721   3.198   5.557   0.899
  919TIP3    H2 2722   3.265   5.685   0.854
  920TIP3   OH2 2723   0.869   1.262   4.201
  920TIP3    H1 2724   0.834   1.238   4.115
  920TIP3    H2 2725   0.916   1.344   4.186
  921TIP3   OH2 2726   4.017   4.702   2.367
  921TIP3    H1 2727   4.104   4.684   2.404
  921TIP3    H2 2728   4.031   4.776   2.308
  922TIP3   OH2 2729   2.965   4.579   2.232
  922TIP3    H1 2730   3.001   4.632   2.160
  922TIP3    H2 2731   2.901   4.636   2.274
  923TIP3   OH2 2732   1.490   1.287   4.624
  923TIP3    H1 2733   1.471   1.381   4.626
  923TIP3    H2 2734   1.583   1.282   4.601
  924TIP3   OH2 2735   3.834   4.811   3.002
  924TIP3    H1 2736   3.828   4.869   2.926
  924TIP3    H2 2737   3.911   4.844   3.050
  925TIP3   OH2 2738   6.950   0.013   0.785
  925TIP3    H1 2739   7.005  -0.044   0.838
  925TIP3    H2 2740   7.009   0.080   0.751
  926TIP3   OH2 2741   0.157   6.498   1.279
  926TIP3    H1 2742   0.161   6.461   1.191
  926TIP3    H2 2743   0.148   6.422   1.337
  927TIP3   OH2 2744   3.137   5.356   4.204
  927TIP3    H1 2745   3.137   5.387   4.113
  927TIP3    H2 2746   3.168   5.431   4.255
  928TIP3   OH2 2747   5.856   2.213   0.899
  928TIP3    H1 2748   5.938   2.205   0.849
  928TIP3    H2 2749   5.790   2.238   0.833
  929TIP3   OH2 2750   5.366   4.852   5.620
  929TIP3    H1 2751   5.440   4.895   5.662
  929TIP3    H2 2752   5.320   4.807   5.691
  930TIP3   OH2 2753   5.347   4.942   0.038
  930TIP3    H1 2754   5.254   4.938   0.058
  930TIP3    H2 2755   5.380   5.016   0.090
  931TIP3   OH2 2756   5.387   2.267   4.949
  931TIP3    H1 2757   5.474   2.251   4.986
  931TIP3    H2 2758   5.326   2.234   5.016
  932TIP3   OH2 2759   2.348   2.083   0.277
  932TIP3    H1 2760   2.436   2.048   0.292
  932TIP3    H2 2761   2.294   2.043   0.346
  933TIP3   OH2 2762   4.649   4.089   0.543
  933TIP3    H1 2763   4.610   4.142   0.473
  933TIP3    H2 2764   4.703   4.025   0.497
  934TIP3   OH2 2765   5.097   6.199   5.373
  934TIP3    H1 2766   5.070   6.108   5.369
  934TIP3    H2 2767   5.132   6.218   5.286
  935TIP3   OH2 2768   4.265   4.081   1.654
  935TIP3    H1 2769   4.251   4.161   1.603
  935TIP3    H2 2770   4.231   4.011   1.598
  936TIP3   OH2 2771   4.963   2.600   2.735
  936TIP3    H1 2772   4.964   2.670   2.800
  936TIP3    H2 2773   5.007   2.637   2.659
  937TIP3   OH2 2774   3.540   1.668   3.864
  937TIP3    H1 2775   3.536   1.579   3.900
  937TIP3    H2 2776   3.621   1.705   3.900
  938TIP3   OH2 2777   1.861   1.365   1.458
  938TIP3    H1 2778   1.946   1.321   1.452
  938TIP3    H2 2779   1.874   1.448   1.412
  939TIP3   OH2 2780   0.589   3.024   5.206
  939TIP3    H1 2781   0.559   3.112   5.184
  939TIP3    H2 2782   0.682   3.034   5.227
  940TIP3   OH2 2783   4.307   1.174   4.268
  940TIP3    H1 2784   4.320   1.185   4.362
  940TIP3    H2 2785   4.384   1.216   4.229
  941TIP3   OH2 2786   3.028   0.955   4.664
  941TIP3    H1 2787   3.061   0.922   4.581
  941TIP3    H2 2788   3.070   0.900   4.730
  942TIP3   OH2 2789   6.823   5.518   0.228
  942TIP3    H1 2790   6.857   5.434   0.259
  942TIP3    H2 2791   6.814   5.507   0.134
  943TIP3   OH2 2792   6.869   2.199   2.552
  943TIP3    H1 2793   6.924   2.165   2.623
  943TIP3    H2 2794   6.931   2.237   2.489
  944TIP3   OH2 2795   0.116   1.209   4.951
  944TIP3    H1 2796   0.040   1.238   5.002
  944TIP3    H2 2797   0.086   1.212   4.860
  945TIP3   OH2 2798   3.456   5.225   3.857
  945TIP3    H1 2799   3.470   5.182   3.941
  945TIP3    H2 2800   3.362   5.214   3.840
  946TIP3   OH2 2801   4.553   4.944   3.368
  946TIP3    H1 2802   4.511   4.887   3.431
  946TIP3    H2 2803   4.576   4.887   3.295
  947TIP3   OH2 2804   2.080   3.090   3.181
  947TIP3    H1 2805   2.029   3.100   3.262
  947TIP3    H2 2806   2.171   3.085   3.211
  948TIP3   OH2 2807   1.133   3.119   2.736
  948TIP3    H1 2808   1.210   3.176   2.743
  948TIP3    H2 2809   1.151   3.065   2.659
  949TIP3   OH2 2810   6.869   4.238   3.213
  949TIP3    H1 2811   6.876   4.172   3.143
  949TIP3    H2 2812   6.899   4.319   3.172
  950TIP3   OH2 2813   7.063   6.695   2.460
  950TIP3    H1 2814   7.036   6.691   2.368
  950TIP3    H2 2815   7.011   6.627   2.503
  951TIP3   OH2 2816   1.049   2.923   1.211
  951TIP3    H1 2817   0.970   2.922   1.157
  951TIP3    H2 2818   1.017   2.913   1.301
  952TIP3   OH2 2819   0.614   2.697   2.032
  952TIP3    H1 2820   0.685   2.653   2.080
  952TIP3    H2 2821   0.649   2.784   2.012
  953TIP3   OH2 2822   2.056   0.254   5.066
  953TIP3    H1 2823   2.129   0.254   5.129
  953TIP3    H2 2824   1.983   0.291   5.115
  954TIP3   OH2 2825   1.249   0.450   4.536
  954TIP3    H1 2826   1.186   0.472   4.468
  954TIP3    H2 2827   1.197   0.438   4.615
  955TIP3   OH2 2828   4.944   0.836   2.273
  955TIP3    H1 2829   4.873   0.855   2.212
  955TIP3    H2 2830   5.006   0.907   2.260
  956TIP3   OH2 2831   1.492   1.531   2.699
  956TIP3    H1 2832   1.492   1.497   2.789
  956TIP3    H2 2833   1.426   1.600   2.699
  957TIP3   OH2 2834   2.653   0.823   3.465
  957TIP3    H1 2835   2.631   0.755   3.402
  957TIP3    H2 2836   2.569   0.859   3.493
  958TIP3   OH2 2837   5.441   3.900   1.336
  958TIP3    H1 2838   5.395   3.983   1.326
  958TIP3    H2 2839   5.470   3.899   1.427
  959TIP3   OH2 2840   5.633   1.546   0.500
  959TIP3    H1 2841   5.570   1.523   0.569
  959TIP3    H2 2842   5.618   1.639   0.484
  960TIP3   OH2 2843   6.532   2.698   3.011
  960TIP3    H1 2844   6.615   2.706   2.965
  960TIP3    H2 2845   6.534   2.768   3.077
  961TIP3   OH2 2846   2.584   5.247   3.789
  961TIP3    H1 2847   2.554   5.212   3.705
  961TIP3    H2 2848   2.593   5.341   3.774
  962TIP3   OH2 2849   0.139   1.570   3.074
  962TIP3    H1 2850   0.200   1.625   3.025
  962TIP3    H2 2851   0.190   1.540   3.150
  963TIP3   OH2 2852   6.638   3.651   5.394
  963TIP3    H1 2853   6.681   3.706   5.459
  963TIP3    H2 2854   6.634   3.704   5.315
  964TIP3   OH2 2855   2.011   3.631   0.844
  964TIP3    H1 2856   2.034   3.658   0.933
  964TIP3    H2 2857   1.919   3.656   0.835
  965TIP3   OH2 2858   1.184   4.902   4.944
  965TIP3    H1 2859   1.197   4.974   5.005
  965TIP3    H2 2860   1.237   4.926   4.867
  966TIP3   OH2 2861   4.032   0.988   1.625
  966TIP3    H1 2862   3.971   0.986   1.700
  966TIP3    H2 2863   4.107   0.937   1.654
  967TIP3   OH2 2864   5.934   0.824   3.188
  967TIP3    H1 2865   6.009   0.858   3.139
  967TIP3    H2 2866   5.973   0.764   3.252
  968TIP3   OH2 2867   5.891   0.508   0.310
  968TIP3    H1 2868   5.865   0.437   0.251
  968TIP3    H2 2869   5.904   0.465   0.394
  969TIP3   OH2 2870   2.517   5.735   1.344
  969TIP3    H1 2871   2.432   5.691   1.336
  969TIP3    H2 2872   2.507   5.816   1.294
  970TIP3   OH2 2873   6.102   2.656   5.722
  970TIP3    H1 2874   6.133   2.592   5.786
  970TIP3    H2 2875   6.042   2.606   5.666
  971TIP3   OH2 2876   0.494   1.067   4.562
  971TIP3    H1 2877   0.412   1.100   4.526
  971TIP3    H2 2878   0.469   1.023   4.643
  972TIP3   OH2 2879   2.364   3.409   5.447
  972TIP3    H1 2880   2.285   3.375   5.406
  972TIP3    H2 2881   2.422   3.333   5.453
  973TIP3   OH2 2882   6.814   5.425   4.818
  973TIP3    H1 2883   6.825   5.351   4.759
  973TIP3    H2 2884   6.745   5.479   4.778
  974TIP3   OH2 2885   2.192   2.666   4.187
  974TIP3    H1 2886   2.115   2.624   4.225
  974TIP3    H2 2887   2.216   2.734   4.251
  975TIP3   OH2 2888   0.885   3.030   1.717
  975TIP3    H1 2889   0.970   2.987   1.723
  975TIP3    H2 2890   0.897   3.096   1.648
  976TIP3   OH2 2891   3.886   3.471   0.224
  976TIP3    H1 2892   3.961   3.529   0.239
  976TIP3    H2 2893   3.902   3.431   0.139
  977TIP3   OH2 2894   4.446   5.448   2.161
  977TIP3    H1 2895   4.477   5.524   2.209
  977TIP3    H2 2896   4.487   5.373   2.206
  978TIP3   OH2 2897   0.494   0.632   2.022
  978TIP3    H1 2898   0.546   0.613   1.944
  978TIP3    H2 2899   0.508   0.557   2.080
  979TIP3   OH2 2900   4.067   3.204   0.984
  979TIP3    H1 2901   3.989   3.153   0.964
  979TIP3    H2 2902   4.034   3.290   1.011
  980TIP3   OH2 2903   6.359   0.460   5.359
  980TIP3    H1 2904   6.380   0.402   5.432
  980TIP3    H2 2905   6.390   0.546   5.387
  981TIP3   OH2 2906   2.779   4.316   5.079
  981TIP3    H1 2907   2.734   4.396   5.105
  981TIP3    H2 2908   2.717   4.271   5.021
  982TIP3   OH2 2909   5.525   3.499   5.127
  982TIP3    H1 2910   5.585   3.431   5.097
  982TIP3    H2 2911   5.525   3.489   5.222
  983TIP3   OH2 2912   2.992   4.398   3.678
  983TIP3    H1 2913   2.956   4.384   3.590
  983TIP3    H2 2914   3.029   4.313   3.702
  984TIP3   OH2 2915   5.450   1.665   5.470
  984TIP3    H1 2916   5.405   1.663   5.385
  984TIP3    H2 2917   5.516   1.733   5.461
  985TIP3   OH2 2918   2.903   5.575   5.314
  985TIP3    H1 2919   2.879   5.622   5.234
  985TIP3    H2 2920   2.970   5.630   5.355
  986TIP3   OH2 2921   2.131   4.757   0.440
  986TIP3    H1 2922   2.199   4.746   0.507
  986TIP3    H2 2923   2.060   4.698   0.469
  987TIP3   OH2 2924   6.812   0.160   0.465
  987TIP3    H1 2925   6.883   0.225   0.459
  987TIP3    H2 2926   6.740   0.208   0.506
  988TIP3   OH2 2927   5.754   4.336   3.198
  988TIP3    H1 2928   5.658   4.341   3.197
  988TIP3    H2 2929   5.774   4.261   3.253
  989TIP3   OH2 2930   5.357   5.203   0.771
  989TIP3    H1 2931   5.303   5.136   0.728
  989TIP3    H2 2932   5.375   5.167   0.858
  990TIP3   OH2 2933   2.176   3.139   5.507
  990TIP3    H1 2934   2.242   3.071   5.518
  990TIP3    H2 2935   2.163   3.174   5.596
  991TIP3   OH2 2936   3.620   5.117   2.988
  991TIP3    H1 2937   3.704   5.085   2.955
  991TIP3    H2 2938   3.563   5.120   2.911
  992TIP3   OH2 2939   4.323   2.700   4.039
  992TIP3    H1 2940   4.393   2.641   4.009
  992TIP3    H2 2941   4.311   2.762   3.967
  993TIP3   OH2 2942   3.946   6.500   3.181
  993TIP3    H1 2943   3.932   6.441   3.255
  993TIP3    H2 2944   3.995   6.447   3.118
  994TIP3   OH2 2945   6.883   2.580   1.120
  994TIP3    H1 2946   6.939   2.517   1.074
  994TIP3    H2 2947   6.847   2.634   1.051
  995TIP3   OH2 2948   6.943   4.710   5.379
  995TIP3    H1 2949   6.915   4.619   5.372
  995TIP3    H2 2950   6.896   4.755   5.308
  996TIP3   OH2 2951   5.310   4.132   1.379
  996TIP3    H1 2952   5.334   4.204   1.436
  996TIP3    H2 2953   5.280   4.174   1.298
  997TIP3   OH2 2954   6.343   1.138   5.054
  997TIP3    H1 2955   6.381   1.148   5.142
  997TIP3    H2 2956   6.264   1.086   5.068
  998TIP3   OH2 2957   0.080   5.801   1.494
  998TIP3    H1 2958   0.144   5.735   1.468
  998TIP3    H2 2959  -0.005   5.759   1.478
  999TIP3   OH2 2960   1.250   5.032   0.187
  999TIP3    H1 2961   1.217   5.122   0.186
  999TIP3    H2 2962   1.268   5.012   0.095
 1000TIP3   OH2 2963   1.508   0.323   0.263
 1000TIP3    H1 2964   1.563   0.376   0.320
 1000TIP3    H2 2965   1.566   0.256   0.229
 1001TIP3   OH2 2966   1.613   3.419   5.425
 1001TIP3    H1 2967   1.618   3.386   5.336
 1001TIP3    H2 2968   1.552   3.360   5.470
 1002TIP3   OH2 2969   1.407   1.937   5.731
 1002TIP3    H1 2970   1.344   1.957   5.662
 1002TIP3    H2 2971   1.490   1.972   5.698
 1003TIP3   OH2 2972   3.592   2.402   4.891
 1003TIP3    H1 2973   3.546   2.327   4.853
 1003TIP3    H2 2974   3.541   2.478   4.864
 1004TIP3   OH2 2975   5.499   2.938   1.735
 1004TIP3    H1 2976   5.536   2.994   1.804
 1004TIP3    H2 2977   5.404   2.945   1.747
 1005TIP3   OH2 2978   3.491   2.638   4.814
 1005TIP3    H1 2979   3.522   2.718   4.856
 1005TIP3    H2 2980   3.492   2.658   4.721
 1006TIP3   OH2 2981   0.219   2.017   5.184
 1006TIP3    H1 2982   0.158   2.035   5.256
 1006TIP3    H2 2983   0.163   2.008   5.107
 1007TIP3   OH2 2984   1.362   0.073   4.991
 1007TIP3    H1 2985   1.345   0.114   4.906
 1007TIP3    H2 2986   1.364   0.147   5.052
 1008TIP3   OH2 2987   1.789   2.161   0.554
 1008TIP3    H1 2988   1.789   2.233   0.491
 1008TIP3    H2 2989   1.867   2.176   0.607
 1009TIP3   OH2 2990   2.195   4.901   0.224
 1009TIP3    H1 2991   2.210   4.989   0.259
 1009TIP3    H2 2992   2.177   4.847   0.302
 1010TIP3   OH2 2993   1.393   0.923   2.417
 1010TIP3    H1 2994   1.354   0.855   2.473
 1010TIP3    H2 2995   1.351   1.004   2.446
 1011TIP3   OH2 2996   2.314   0.060   1.800
 1011TIP3    H1 2997   2.224   0.089   1.787
 1011TIP3    H2 2998   2.346   0.039   1.712
 1012TIP3   OH2 2999   3.747   5.086   3.831
 1012TIP3    H1 3000   3.831   5.120   3.801
 1012TIP3    H2 3001   3.688   5.101   3.758
 1013TIP3   OH2 3002   6.496   1.164   2.250
 1013TIP3    H1 3003   6.472   1.074   2.228
 1013TIP3    H2 3004   6.590   1.169   2.229
 1014TIP3   OH2 3005   2.189   6.345   1.597
 1014TIP3    H1 3006   2.243   6.423   1.599
 1014TIP3    H2 3007   2.105   6.374   1.562
 1015TIP3   OH2 3008   2.345   5.489   4.640
 1015TIP3    H1 3009   2.353   5.448   4.726
 1015TIP3    H2 3010   2.420   5.548   4.634
 1016TIP3   OH2 3011   2.413   6.073   2.861
 1016TIP3    H1 3012   2.431   6.048   2.771
 1016TIP3    H2 3013   2.367   6.156   2.854
 1017TIP3   OH2 3014   3.026   6.766   5.162
 1017TIP3    H1 3015   2.964   6.825   5.120
 1017TIP3    H2 3016   3.050   6.704   5.094
 1018TIP3   OH2 3017   3.988   1.843   0.512
 1018TIP3    H1 3018   4.062   1.830   0.570
 1018TIP3    H2 3019   3.946   1.923   0.544
 1019TIP3   OH2 3020   1.276   5.860   1.366
 1019TIP3    H1 3021   1.354   5.837   1.417
 1019TIP3    H2 3022   1.302   5.846   1.275
 1020TIP3   OH2 3023   4.220   4.680   3.147
 1020TIP3    H1 3024   4.171   4.614   3.099
 1020TIP3    H2 3025   4.205   4.761   3.098
 1021TIP3   OH2 3026   2.189   4.363   2.086
 1021TIP3    H1 3027   2.270   4.348   2.134
 1021TIP3    H2 3028   2.206   4.328   1.998
 1022TIP3   OH2 3029   6.559   1.827   4.468
 1022TIP3    H1 3030   6.520   1.753   4.515
 1022TIP3    H2 3031   6.651   1.802   4.456
 1023TIP3   OH2 3032   2.064   3.088   1.882
 1023TIP3    H1 3033   1.974   3.055   1.885
 1023TIP3    H2 3034   2.059   3.165   1.825
 1024TIP3   OH2 3035   4.004   1.968   1.421
 1024TIP3    H1 3036   4.090   2.009   1.426
 1024TIP3    H2 3037   4.009   1.911   1.344
 1025TIP3   OH2 3038   2.775   3.286   2.112
 1025TIP3    H1 3039   2.720   3.221   2.067
 1025TIP3    H2 3040   2.729   3.304   2.194
 1026TIP3   OH2 3041   3.505   1.401   5.558
 1026TIP3    H1 3042   3.497   1.402   5.653
 1026TIP3    H2 3043   3.416   1.413   5.526
 1027TIP3   OH2 3044   4.813   2.942   2.827
 1027TIP3    H1 3045   4.733   2.964   2.876
 1027TIP3    H2 3046   4.854   3.027   2.811
 1028TIP3   OH2 3047   1.737   0.071   5.419
 1028TIP3    H1 3048   1.730  -0.016   5.379
 1028TIP3    H2 3049   1.710   0.132   5.350
 1029TIP3   OH2 3050   4.165   2.754   5.080
 1029TIP3    H1 3051   4.251   2.774   5.117
 1029TIP3    H2 3052   4.140   2.834   5.033
 1030TIP3   OH2 3053   2.943   3.797   3.192
 1030TIP3    H1 3054   2.869   3.737   3.204
 1030TIP3    H2 3055   2.948   3.810   3.098
 1031TIP3   OH2 3056   6.377   6.548   2.290
 1031TIP3    H1 3057   6.315   6.613   2.258
 1031TIP3    H2 3058   6.422   6.591   2.363
 1032TIP3   OH2 3059   0.021   5.402   5.303
 1032TIP3    H1 3060   0.101   5.392   5.251
 1032TIP3    H2 3061  -0.019   5.315   5.302
 1033TIP3   OH2 3062   5.356   3.307   0.177
 1033TIP3    H1 3063   5.305   3.315   0.096
 1033TIP3    H2 3064   5.292   3.319   0.247
 1034TIP3   OH2 3065   2.774   0.049   1.604
 1034TIP3    H1 3066   2.752   0.131   1.649
 1034TIP3    H2 3067   2.869   0.051   1.594
 1035TIP3   OH2 3068   4.197   4.034   2.413
 1035TIP3    H1 3069   4.206   4.053   2.506
 1035TIP3    H2 3070   4.114   4.075   2.388
 1036TIP3   OH2 3071   0.140   3.971   1.070
 1036TIP3    H1 3072   0.196   4.042   1.040
 1036TIP3    H2 3073   0.172   3.949   1.157
 1037TIP3   OH2 3074   3.264   0.340   5.679
 1037TIP3    H1 3075   3.221   0.371   5.758
 1037TIP3    H2 3076   3.300   0.420   5.639
 1038TIP3   OH2 3077   2.566   1.573   4.323
 1038TIP3    H1 3078   2.471   1.568   4.334
 1038TIP3    H2 3079   2.601   1.565   4.411
 1039TIP3   OH2 3080   1.349   2.192   0.149
 1039TIP3    H1 3081   1.383   2.113   0.107
 1039TIP3    H2 3082   1.305   2.239   0.078
 1040TIP3   OH2 3083   3.690   3.525   1.922
 1040TIP3    H1 3084   3.660   3.576   1.997
 1040TIP3    H2 3085   3.620   3.534   1.858
 1041TIP3   OH2 3086   4.898   4.410   1.544
 1041TIP3    H1 3087   4.835   4.466   1.590
 1041TIP3    H2 3088   4.845   4.343   1.502
 1042TIP3   OH2 3089   3.355   4.207   4.049
 1042TIP3    H1 3090   3.447   4.233   4.063
 1042TIP3    H2 3091   3.337   4.145   4.119
 1043TIP3   OH2 3092   0.685   2.135   5.699
 1043TIP3    H1 3093   0.709   2.109   5.788
 1043TIP3    H2 3094   0.643   2.220   5.709
 1044TIP3   OH2 3095   3.350   6.708   1.144
 1044TIP3    H1 3096   3.279   6.723   1.082
 1044TIP3    H2 3097   3.405   6.641   1.102
 1045TIP3   OH2 3098   3.938   1.104   0.531
 1045TIP3    H1 3099   3.951   1.060   0.447
 1045TIP3    H2 3100   3.852   1.146   0.523
 1046TIP3   OH2 3101   2.734   4.776   3.231
 1046TIP3    H1 3102   2.709   4.702   3.287
 1046TIP3    H2 3103   2.752   4.847   3.292
 1047TIP3   OH2 3104   4.963   0.085   4.105
 1047TIP3    H1 3105   4.925   0.103   4.191
 1047TIP3    H2 3106   4.987  -0.007   4.108
 1048TIP3   OH2 3107   4.760   4.862   2.094
 1048TIP3    H1 3108   4.801   4.812   2.164
 1048TIP3    H2 3109   4.826   4.868   2.026
 1049TIP3   OH2 3110   5.040   4.048   4.727
 1049TIP3    H1 3111   4.973   4.000   4.775
 1049TIP3    H2 3112   5.036   4.013   4.638
 1050TIP3   OH2 3113   2.284   3.654   5.270
 1050TIP3    H1 3114   2.264   3.721   5.336
 1050TIP3    H2 3115   2.273   3.571   5.317
 1051TIP3   OH2 3116   5.528   0.102   2.469
 1051TIP3    H1 3117   5.586   0.118   2.395
 1051TIP3    H2 3118   5.481   0.022   2.445
 1052TIP3   OH2 3119   5.604   5.269   3.279
 1052TIP3    H1 3120   5.676   5.270   3.215
 1052TIP3    H2 3121   5.626   5.196   3.337
 1053TIP3   OH2 3122   3.724   1.730   5.104
 1053TIP3    H1 3123   3.636   1.696   5.085
 1053TIP3    H2 3124   3.715   1.825   5.097
 1054TIP3   OH2 3125   3.843   2.360   2.412
 1054TIP3    H1 3126   3.818   2.408   2.333
 1054TIP3    H2 3127   3.783   2.392   2.479
 1055TIP3   OH2 3128   6.672   1.086   0.584
 1055TIP3    H1 3129   6.734   1.158   0.592
 1055TIP3    H2 3130   6.632   1.098   0.498
 1056TIP3   OH2 3131   3.591   5.196   5.921
 1056TIP3    H1 3132   3.625   5.145   5.847
 1056TIP3    H2 3133   3.520   5.248   5.883
 1057TIP3   OH2 3134   3.293   6.628   4.996
 1057TIP3    H1 3135   3.377   6.582   5.004
 1057TIP3    H2 3136   3.310   6.699   4.935
 1058TIP3   OH2 3137   3.515   4.258   3.771
 1058TIP3    H1 3138   3.450   4.276   3.839
 1058TIP3    H2 3139   3.503   4.328   3.707
 1059TIP3   OH2 3140   6.232   3.041   1.171
 1059TIP3    H1 3141   6.312   3.061   1.122
 1059TIP3    H2 3142   6.177   3.119   1.162
 1060TIP3   OH2 3143   4.165   5.994   3.927
 1060TIP3    H1 3144   4.144   6.004   3.834
 1060TIP3    H2 3145   4.224   5.918   3.929
 1061TIP3   OH2 3146   0.944   6.221   0.869
 1061TIP3    H1 3147   0.912   6.137   0.904
 1061TIP3    H2 3148   0.896   6.232   0.787
 1062TIP3   OH2 3149   5.074   6.187   1.023
 1062TIP3    H1 3150   5.150   6.138   1.056
 1062TIP3    H2 3151   5.044   6.239   1.098
 1063TIP3   OH2 3152   3.653   1.636   4.178
 1063TIP3    H1 3153   3.709   1.659   4.104
 1063TIP3    H2 3154   3.682   1.693   4.249
 1064TIP3   OH2 3155   0.574   2.415   0.517
 1064TIP3    H1 3156   0.641   2.451   0.458
 1064TIP3    H2 3157   0.491   2.443   0.479
 1065TIP3   OH2 3158   2.417   4.990   1.032
 1065TIP3    H1 3159   2.335   5.033   1.058
 1065TIP3    H2 3160   2.472   4.994   1.110
 1066TIP3   OH2 3161   0.469   3.680   1.852
 1066TIP3    H1 3162   0.409   3.616   1.815
 1066TIP3    H2 3163   0.454   3.760   1.801
 1067TIP3   OH2 3164   6.971   5.680   1.671
 1067TIP3    H1 3165   7.043   5.640   1.720
 1067TIP3    H2 3166   6.894   5.629   1.697
 1068TIP3   OH2 3167   0.302   1.557   4.492
 1068TIP3    H1 3168   0.211   1.534   4.475
 1068TIP3    H2 3169   0.345   1.548   4.407
 1069TIP3   OH2 3170   3.475   5.884   0.189
 1069TIP3    H1 3171   3.432   5.803   0.161
 1069TIP3    H2 3172   3.491   5.932   0.107
 1070TIP3   OH2 3173   1.493   3.136   0.781
 1070TIP3    H1 3174   1.470   3.196   0.851
 1070TIP3    H2 3175   1.497   3.191   0.702
 1071TIP3   OH2 3176   0.878   6.817   2.233
 1071TIP3    H1 3177   0.840   6.808   2.320
 1071TIP3    H2 3178   0.953   6.757   2.233
 1072TIP3   OH2 3179   4.506   4.796   1.966
 1072TIP3    H1 3180   4.463   4.734   2.026
 1072TIP3    H2 3181   4.584   4.824   2.013
 1073TIP3   OH2 3182   7.248   0.142   3.665
 1073TIP3    H1 3183   7.176   0.091   3.629
 1073TIP3    H2 3184   7.207   0.221   3.699
 1074TIP3   OH2 3185   5.557   0.306   3.818
 1074TIP3    H1 3186   5.607   0.309   3.736
 1074TIP3    H2 3187   5.476   0.354   3.799
 1075TIP3   OH2 3188   5.910   6.629   5.667
 1075TIP3    H1 3189   5.957   6.549   5.640
 1075TIP3    H2 3190   5.892   6.674   5.584
 1076TIP3   OH2 3191   2.965   6.487   0.547
 1076TIP3    H1 3192   2.969   6.397   0.580
 1076TIP3    H2 3193   2.992   6.541   0.622
 1077TIP3   OH2 3194   2.419   0.509   3.500
 1077TIP3    H1 3195   2.355   0.503   3.570
 1077TIP3    H2 3196   2.488   0.447   3.524
 1078TIP3   OH2 3197   4.558   1.187   0.991
 1078TIP3    H1 3198   4.535   1.237   1.070
 1078TIP3    H2 3199   4.546   1.249   0.919
 1079TIP3   OH2 3200   1.600   4.950   3.186
 1079TIP3    H1 3201   1.531   4.967   3.250
 1079TIP3    H2 3202   1.678   4.935   3.239
 1080TIP3   OH2 3203   1.148   1.549   2.502
 1080TIP3    H1 3204   1.066   1.566   2.457
 1080TIP3    H2 3205   1.213   1.542   2.432
 1081TIP3   OH2 3206   1.189   3.416   3.496
 1081TIP3    H1 3207   1.143   3.499   3.509
 1081TIP3    H2 3208   1.276   3.442   3.466
 1082TIP3   OH2 3209   2.104   2.081   1.223
 1082TIP3    H1 3210   2.066   2.149   1.167
 1082TIP3    H2 3211   2.161   2.130   1.283
 1083TIP3   OH2 3212   5.705   2.685   3.031
 1083TIP3    H1 3213   5.686   2.596   3.061
 1083TIP3    H2 3214   5.619   2.721   3.009
 1084TIP3   OH2 3215   7.016   3.513   3.408
 1084TIP3    H1 3216   7.028   3.588   3.350
 1084TIP3    H2 3217   6.922   3.497   3.407
 1085TIP3   OH2 3218   0.177   4.290   4.476
 1085TIP3    H1 3219   0.111   4.292   4.407
 1085TIP3    H2 3220   0.154   4.214   4.530
 1086TIP3   OH2 3221   1.782   0.094   2.154
 1086TIP3    H1 3222   1.760   0.153   2.082
 1086TIP3    H2 3223   1.878   0.094   2.157
 1087TIP3   OH2 3224   5.990   6.303   2.198
 1087TIP3    H1 3225   6.019   6.343   2.116
 1087TIP3    H2 3226   6.065   6.310   2.257
 1088TIP3   OH2 3227   5.604   5.507   4.456
 1088TIP3    H1 3228   5.555   5.426   4.439
 1088TIP3    H2 3229   5.539   5.577   4.446
 1089TIP3   OH2 3230   1.264   1.321   5.784
 1089TIP3    H1 3231   1.248   1.232   5.815
 1089TIP3    H2 3232   1.354   1.319   5.751
 1090TIP3   OH2 3233   6.756   1.441   3.725
 1090TIP3    H1 3234   6.673   1.473   3.760
 1090TIP3    H2 3235   6.762   1.481   3.638
 1091TIP3   OH2 3236   6.945   6.411   5.591
 1091TIP3    H1 3237   6.970   6.476   5.526
 1091TIP3    H2 3238   6.914   6.462   5.666
 1092TIP3   OH2 3239   3.905   4.276   1.965
 1092TIP3    H1 3240   4.001   4.270   1.956
 1092TIP3    H2 3241   3.878   4.333   1.893
 1093TIP3   OH2 3242   0.989   4.015   5.098
 1093TIP3    H1 3243   0.897   3.998   5.079
 1093TIP3    H2 3244   1.011   3.953   5.168
 1094TIP3   OH2 3245   5.877   5.188   4.981
 1094TIP3    H1 3246   5.884   5.096   4.958
 1094TIP3    H2 3247   5.968   5.218   4.985
 1095TIP3   OH2 3248   6.528   5.310   1.490
 1095TIP3    H1 3249   6.596   5.376   1.503
 1095TIP3    H2 3250   6.545   5.274   1.403
 1096TIP3   OH2 3251   2.529   3.925   2.795
 1096TIP3    H1 3252   2.552   3.871   2.870
 1096TIP3    H2 3253   2.441   3.898   2.772
 1097TIP3   OH2 3254   4.992   3.039   0.774
 1097TIP3    H1 3255   4.928   2.971   0.754
 1097TIP3    H2 3256   5.056   3.033   0.703
 1098TIP3   OH2 3257   6.623   5.339   0.957
 1098TIP3    H1 3258   6.534   5.307   0.973
 1098TIP3    H2 3259   6.679   5.283   1.011
 1099TIP3   OH2 3260   3.621   1.984   5.134
 1099TIP3    H1 3261   3.616   1.974   5.229
 1099TIP3    H2 3262   3.532   1.968   5.103
 1100TIP3   OH2 3263   5.224   6.020   1.203
 1100TIP3    H1 3264   5.182   5.938   1.176
 1100TIP3    H2 3265   5.263   6.001   1.288
 1101TIP3   OH2 3266   5.415   3.417   4.792
 1101TIP3    H1 3267   5.429   3.507   4.821
 1101TIP3    H2 3268   5.464   3.409   4.711
 1102TIP3   OH2 3269   3.350   1.138   1.517
 1102TIP3    H1 3270   3.317   1.150   1.428
 1102TIP3    H2 3271   3.284   1.181   1.573
 1103TIP3   OH2 3272   1.566   4.297   0.049
 1103TIP3    H1 3273   1.515   4.337   0.120
 1103TIP3    H2 3274   1.657   4.306   0.077
 1104TIP3   OH2 3275   5.921   4.314   2.719
 1104TIP3    H1 3276   5.871   4.268   2.652
 1104TIP3    H2 3277   5.857   4.340   2.784
 1105TIP3   OH2 3278   1.825   6.624   4.476
 1105TIP3    H1 3279   1.905   6.586   4.511
 1105TIP3    H2 3280   1.756   6.560   4.496
 1106TIP3   OH2 3281   4.786   3.779   3.482
 1106TIP3    H1 3282   4.856   3.767   3.418
 1106TIP3    H2 3283   4.714   3.726   3.449
 1107TIP3   OH2 3284   3.985   1.217   4.444
 1107TIP3    H1 3285   4.044   1.145   4.466
 1107TIP3    H2 3286   4.016   1.249   4.360
 1108TIP3   OH2 3287   2.926   4.023   5.468
 1108TIP3    H1 3288   2.944   4.028   5.562
 1108TIP3    H2 3289   2.909   3.930   5.453
 1109TIP3   OH2 3290   1.649   4.368   1.816
 1109TIP3    H1 3291   1.673   4.314   1.742
 1109TIP3    H2 3292   1.560   4.399   1.796
 1110TIP3   OH2 3293   5.471   4.638   3.306
 1110TIP3    H1 3294   5.382   4.629   3.274
 1110TIP3    H2 3295   5.485   4.560   3.361
 1111TIP3   OH2 3296   2.222   1.384   5.320
 1111TIP3    H1 3297   2.196   1.429   5.400
 1111TIP3    H2 3298   2.203   1.448   5.250
 1112TIP3   OH2 3299   0.431   6.309   0.534
 1112TIP3    H1 3300   0.364   6.300   0.466
 1112TIP3    H2 3301   0.422   6.229   0.587
 1113TIP3   OH2 3302   4.027   3.735   2.361
 1113TIP3    H1 3303   3.966   3.789   2.410
 1113TIP3    H2 3304   4.105   3.728   2.417
 1114TIP3   OH2 3305   5.799   2.358   2.337
 1114TIP3    H1 3306   5.844   2.422   2.392
 1114TIP3    H2 3307   5.870   2.306   2.300
 1115TIP3   OH2 3308   0.209   4.493   3.875
 1115TIP3    H1 3309   0.244   4.544   3.802
 1115TIP3    H2 3310   0.123   4.531   3.891
 1116TIP3   OH2 3311   2.821   2.567   1.273
 1116TIP3    H1 3312   2.856   2.485   1.237
 1116TIP3    H2 3313   2.743   2.541   1.321
 1117TIP3   OH2 3314   1.437   2.438   3.824
 1117TIP3    H1 3315   1.519   2.400   3.794
 1117TIP3    H2 3316   1.459   2.528   3.847
 1118TIP3   OH2 3317   1.003   2.715   2.641
 1118TIP3    H1 3318   0.966   2.783   2.584
 1118TIP3    H2 3319   0.928   2.659   2.663
 1119TIP3   OH2 3320   1.924   2.973   2.779
 1119TIP3    H1 3321   1.854   3.037   2.764
 1119TIP3    H2 3322   2.004   3.018   2.752
 1120TIP3   OH2 3323   0.037   2.487   5.699
 1120TIP3    H1 3324   0.035   2.419   5.632
 1120TIP3    H2 3325   0.078   2.562   5.656
 1121TIP3   OH2 3326   2.315   0.774   2.293
 1121TIP3    H1 3327   2.277   0.802   2.376
 1121TIP3    H2 3328   2.283   0.838   2.229
 1122TIP3   OH2 3329   1.019   0.412   4.395
 1122TIP3    H1 3330   0.965   0.365   4.458
 1122TIP3    H2 3331   0.957   0.456   4.337
 1123TIP3   OH2 3332   3.717   0.841   1.573
 1123TIP3    H1 3333   3.649   0.803   1.516
 1123TIP3    H2 3334   3.799   0.819   1.529
 1124TIP3   OH2 3335   3.771   2.251   4.473
 1124TIP3    H1 3336   3.704   2.318   4.462
 1124TIP3    H2 3337   3.796   2.228   4.383
 1125TIP3   OH2 3338   0.875   0.158   4.412
 1125TIP3    H1 3339   0.780   0.167   4.424
 1125TIP3    H2 3340   0.887   0.157   4.317
 1126TIP3   OH2 3341   0.854   1.541   5.322
 1126TIP3    H1 3342   0.846   1.515   5.413
 1126TIP3    H2 3343   0.839   1.459   5.273
 1127TIP3   OH2 3344   2.298   4.410   5.416
 1127TIP3    H1 3345   2.206   4.420   5.439
 1127TIP3    H2 3346   2.307   4.455   5.332
 1128TIP3   OH2 3347   3.140   2.819   5.809
 1128TIP3    H1 3348   3.156   2.725   5.819
 1128TIP3    H2 3349   3.191   2.844   5.732
 1129TIP3   OH2 3350   3.598   1.213   2.340
 1129TIP3    H1 3351   3.691   1.219   2.359
 1129TIP3    H2 3352   3.563   1.153   2.406
 1130TIP3   OH2 3353   3.471   3.574   0.103
 1130TIP3    H1 3354   3.472   3.670   0.101
 1130TIP3    H2 3355   3.534   3.548   0.037
 1131TIP3   OH2 3356   5.163   2.629   0.283
 1131TIP3    H1 3357   5.242   2.578   0.264
 1131TIP3    H2 3358   5.187   2.719   0.260
 1132TIP3   OH2 3359   4.616   3.303   4.460
 1132TIP3    H1 3360   4.677   3.254   4.515
 1132TIP3    H2 3361   4.668   3.334   4.387
 1133TIP3   OH2 3362   1.599   6.551   4.940
 1133TIP3    H1 3363   1.579   6.642   4.959
 1133TIP3    H2 3364   1.694   6.549   4.925
 1134TIP3   OH2 3365   5.199   1.184   1.277
 1134TIP3    H1 3366   5.165   1.273   1.274
 1134TIP3    H2 3367   5.218   1.169   1.370
 1135TIP3   OH2 3368   2.120   4.783   2.249
 1135TIP3    H1 3369   2.145   4.747   2.334
 1135TIP3    H2 3370   2.025   4.791   2.253
 1136TIP3   OH2 3371   3.372   0.586   5.534
 1136TIP3    H1 3372   3.463   0.615   5.537
 1136TIP3    H2 3373   3.360   0.556   5.444
 1137TIP3   OH2 3374   4.502   0.647   1.733
 1137TIP3    H1 3375   4.499   0.580   1.665
 1137TIP3    H2 3376   4.591   0.683   1.727
 1138TIP3   OH2 3377   2.167   6.293   5.315
 1138TIP3    H1 3378   2.139   6.330   5.231
 1138TIP3    H2 3379   2.110   6.218   5.329
 1139TIP3   OH2 3380   2.344   2.149   4.726
 1139TIP3    H1 3381   2.360   2.074   4.669
 1139TIP3    H2 3382   2.362   2.225   4.670
 1140TIP3   OH2 3383   6.476   0.819   0.239
 1140TIP3    H1 3384   6.510   0.812   0.328
 1140TIP3    H2 3385   6.384   0.841   0.249
 1141TIP3   OH2 3386   2.700   4.195   3.594
 1141TIP3    H1 3387   2.668   4.113   3.558
 1141TIP3    H2 3388   2.780   4.172   3.641
 1142TIP3   OH2 3389   4.321   1.797  -0.018
 1142TIP3    H1 3390   4.330   1.834   0.070
 1142TIP3    H2 3391   4.352   1.707  -0.009
 1143TIP3   OH2 3392   1.254   0.314   5.673
 1143TIP3    H1 3393   1.314   0.333   5.745
 1143TIP3    H2 3394   1.216   0.229   5.696
 1144TIP3   OH2 3395   5.877   3.197   0.714
 1144TIP3    H1 3396   5.913   3.281   0.744
 1144TIP3    H2 3397   5.833   3.161   0.791
 1145TIP3   OH2 3398   6.217   3.640   5.314
 1145TIP3    H1 3399   6.288   3.644   5.250
 1145TIP3    H2 3400   6.228   3.718   5.368
 1146TIP3   OH2 3401   5.811   0.425   1.998
 1146TIP3    H1 3402   5.859   0.345   2.018
 1146TIP3    H2 3403   5.721   0.395   1.981
 1147TIP3   OH2 3404   1.257   6.035   4.236
 1147TIP3    H1 3405   1.280   5.942   4.233
 1147TIP3    H2 3406   1.325   6.075   4.290
 1148TIP3   OH2 3407   3.320   2.398   3.731
 1148TIP3    H1 3408   3.258   2.350   3.786
 1148TIP3    H2 3409   3.346   2.473   3.784
 1149TIP3   OH2 3410   2.945   3.423   4.545
 1149TIP3    H1 3411   2.903   3.487   4.488
 1149TIP3    H2 3412   2.875   3.362   4.569
 1150TIP3   OH2 3413   2.750   5.523   3.435
 1150TIP3    H1 3414   2.696   5.596   3.469
 1150TIP3    H2 3415   2.829   5.525   3.489
 1151TIP3   OH2 3416   2.742   2.198   1.897
 1151TIP3    H1 3417   2.695   2.246   1.965
 1151TIP3    H2 3418   2.825   2.245   1.887
 1152TIP3   OH2 3419   1.190   4.259   4.363
 1152TIP3    H1 3420   1.120   4.274   4.300
 1152TIP3    H2 3421   1.263   4.226   4.310
 1153TIP3   OH2 3422   6.892   2.439   2.762
 1153TIP3    H1 3423   6.901   2.349   2.794
 1153TIP3    H2 3424   6.921   2.494   2.835
 1154TIP3   OH2 3425   6.351   1.061   0.753
 1154TIP3    H1 3426   6.428   1.099   0.711
 1154TIP3    H2 3427   6.384   1.022   0.834
 1155TIP3   OH2 3428   4.168   3.526   0.132
 1155TIP3    H1 3429   4.196   3.552   0.220
 1155TIP3    H2 3430   4.163   3.608   0.083
 1156TIP3   OH2 3431   2.058   5.990   5.084
 1156TIP3    H1 3432   2.052   6.024   5.173
 1156TIP3    H2 3433   2.125   5.922   5.089
 1157TIP3   OH2 3434   0.954   0.933   3.103
 1157TIP3    H1 3435   0.912   0.860   3.056
 1157TIP3    H2 3436   1.042   0.901   3.122
 1158TIP3   OH2 3437   4.432   4.401   1.983
 1158TIP3    H1 3438   4.495   4.436   2.046
 1158TIP3    H2 3439   4.453   4.307   1.979
 1159TIP3   OH2 3440   7.051   5.603   2.340
 1159TIP3    H1 3441   6.999   5.661   2.285
 1159TIP3    H2 3442   7.121   5.572   2.283
 1160TIP3   OH2 3443   2.275   0.912   4.029
 1160TIP3    H1 3444   2.328   0.985   3.999
 1160TIP3    H2 3445   2.226   0.884   3.952
 1161TIP3   OH2 3446   5.019   1.945   2.151
 1161TIP3    H1 3447   4.975   1.930   2.067
 1161TIP3    H2 3448   5.094   1.886   2.150
 1162TIP3   OH2 3449   3.058   5.678   0.149
 1162TIP3    H1 3450   3.021   5.766   0.150
 1162TIP3    H2 3451   2.983   5.620   0.167
 1163TIP3   OH2 3452   5.367   0.341   1.218
 1163TIP3    H1 3453   5.334   0.295   1.295
 1163TIP3    H2 3454   5.320   0.424   1.218
 1164TIP3   OH2 3455   5.019   6.254   4.991
 1164TIP3    H1 3456   5.049   6.304   5.066
 1164TIP3    H2 3457   5.009   6.318   4.921
 1165TIP3   OH2 3458   7.176   0.810   5.825
 1165TIP3    H1 3459   7.105   0.765   5.779
 1165TIP3    H2 3460   7.163   0.902   5.804
 1166TIP3   OH2 3461   2.389   5.491   1.022
 1166TIP3    H1 3462   2.395   5.549   0.946
 1166TIP3    H2 3463   2.364   5.406   0.987
 1167TIP3   OH2 3464   1.648   1.336   0.678
 1167TIP3    H1 3465   1.572   1.378   0.718
 1167TIP3    H2 3466   1.711   1.327   0.750
 1168TIP3   OH2 3467   0.281   3.708   4.585
 1168TIP3    H1 3468   0.355   3.762   4.557
 1168TIP3    H2 3469   0.301   3.684   4.676
 1169TIP3   OH2 3470   6.077   5.405   1.025
 1169TIP3    H1 3471   6.018   5.337   0.992
 1169TIP3    H2 3472   6.089   5.464   0.950
 1170TIP3   OH2 3473   7.128   6.619   0.569
 1170TIP3    H1 3474   7.122   6.713   0.549
 1170TIP3    H2 3475   7.072   6.577   0.504
 1171TIP3   OH2 3476   6.851   2.371   1.312
 1171TIP3    H1 3477   6.899   2.435   1.259
 1171TIP3    H2 3478   6.917   2.335   1.372
 1172TIP3   OH2 3479   5.568   2.182   3.177
 1172TIP3    H1 3480   5.635   2.249   3.163
 1172TIP3    H2 3481   5.561   2.175   3.272
 1173TIP3   OH2 3482   1.848   5.571   1.702
 1173TIP3    H1 3483   1.903   5.630   1.650
 1173TIP3    H2 3484   1.795   5.629   1.757
 1174TIP3   OH2 3485   0.498   5.539   0.188
 1174TIP3    H1 3486   0.462   5.556   0.101
 1174TIP3    H2 3487   0.491   5.444   0.199
 1175TIP3   OH2 3488   6.048   4.004   4.359
 1175TIP3    H1 3489   5.959   3.996   4.325
 1175TIP3    H2 3490   6.084   3.916   4.352
 1176TIP3   OH2 3491   1.744   0.059   0.813
 1176TIP3    H1 3492   1.752  -0.033   0.786
 1176TIP3    H2 3493   1.746   0.056   0.909
 1177TIP3   OH2 3494   1.262   1.338   5.062
 1177TIP3    H1 3495   1.250   1.252   5.022
 1177TIP3    H2 3496   1.219   1.331   5.148
 1178TIP3   OH2 3497   3.783   3.655   3.352
 1178TIP3    H1 3498   3.690   3.679   3.357
 1178TIP3    H2 3499   3.806   3.665   3.260
 1179TIP3   OH2 3500   3.904   3.683   2.785
 1179TIP3    H1 3501   3.946   3.767   2.766
 1179TIP3    H2 3502   3.974   3.619   2.779
 1180TIP3   OH2 3503   1.742   5.335   5.342
 1180TIP3    H1 3504   1.769   5.420   5.375
 1180TIP3    H2 3505   1.795   5.321   5.263
 1181TIP3   OH2 3506   1.469   4.832   5.386
 1181TIP3    H1 3507   1.482   4.753   5.332
 1181TIP3    H2 3508   1.556   4.868   5.397
 1182TIP3   OH2 3509   7.129   2.266   5.592
 1182TIP3    H1 3510   7.056   2.267   5.530
 1182TIP3    H2 3511   7.094   2.220   5.669
 1183TIP3   OH2 3512   1.074   0.610   5.436
 1183TIP3    H1 3513   0.982   0.621   5.460
 1183TIP3    H2 3514   1.083   0.657   5.353
 1184TIP3   OH2 3515   6.886   1.264   2.468
 1184TIP3    H1 3516   6.958   1.205   2.488
 1184TIP3    H2 3517   6.869   1.250   2.374
 1185TIP3   OH2 3518   5.601   3.872   0.700
 1185TIP3    H1 3519   5.673   3.818   0.669
 1185TIP3    H2 3520   5.584   3.840   0.789
 1186TIP3   OH2 3521   3.218   1.624   5.635
 1186TIP3    H1 3522   3.192   1.692   5.697
 1186TIP3    H2 3523   3.137   1.581   5.610
 1187TIP3   OH2 3524   4.520   4.698   0.978
 1187TIP3    H1 3525   4.524   4.655   0.893
 1187TIP3    H2 3526   4.612   4.707   1.005
 1188TIP3   OH2 3527   5.746   3.357   2.774
 1188TIP3    H1 3528   5.787   3.440   2.748
 1188TIP3    H2 3529   5.789   3.335   2.857
 1189TIP3   OH2 3530   3.188   2.988   0.833
 1189TIP3    H1 3531   3.168   3.057   0.896
 1189TIP3    H2 3532   3.111   2.983   0.777
 1190TIP3   OH2 3533   3.046   5.120   5.609
 1190TIP3    H1 3534   3.017   5.029   5.609
 1190TIP3    H2 3535   3.075   5.136   5.519
 1191TIP3   OH2 3536   3.330   2.078   3.614
 1191TIP3    H1 3537   3.315   2.158   3.665
 1191TIP3    H2 3538   3.297   2.008   3.670
 1192TIP3   OH2 3539   5.721   5.409   0.273
 1192TIP3    H1 3540   5.745   5.317   0.259
 1192TIP3    H2 3541   5.682   5.436   0.190
 1193TIP3   OH2 3542   0.539   5.160   5.015
 1193TIP3    H1 3543   0.523   5.252   5.039
 1193TIP3    H2 3544   0.459   5.133   4.969
 1194TIP3   OH2 3545   3.746   2.552   1.746
 1194TIP3    H1 3546   3.709   2.481   1.798
 1194TIP3    H2 3547   3.835   2.563   1.779
 1195TIP3   OH2 3548   3.202   6.474   3.782
 1195TIP3    H1 3549   3.295   6.452   3.780
 1195TIP3    H2 3550   3.179   6.471   3.875
 1196TIP3   OH2 3551   3.715   3.523   4.647
 1196TIP3    H1 3552   3.715   3.599   4.589
 1196TIP3    H2 3553   3.632   3.529   4.694
 1197TIP3   OH2 3554   2.136   0.054   4.361
 1197TIP3    H1 3555   2.164   0.060   4.453
 1197TIP3    H2 3556   2.216   0.071   4.311
 1198TIP3   OH2 3557   5.849   5.809   2.492
 1198TIP3    H1 3558   5.869   5.901   2.478
 1198TIP3    H2 3559   5.875   5.791   2.582
 1199TIP3   OH2 3560   5.907   4.373   2.075
 1199TIP3    H1 3561   5.949   4.416   2.001
 1199TIP3    H2 3562   5.978   4.329   2.122
 1200TIP3   OH2 3563   1.452   0.598   3.748
 1200TIP3    H1 3564   1.438   0.526   3.686
 1200TIP3    H2 3565   1.519   0.566   3.808
 1201TIP3   OH2 3566   5.565   0.541   3.027
 1201TIP3    H1 3567   5.502   0.562   2.958
 1201TIP3    H2 3568   5.513   0.498   3.095
 1202TIP3   OH2 3569   6.613   2.542   0.365
 1202TIP3    H1 3570   6.625   2.536   0.270
 1202TIP3    H2 3571   6.659   2.621   0.390
 1203TIP3   OH2 3572   5.522   4.263   0.721
 1203TIP3    H1 3573   5.502   4.215   0.641
 1203TIP3    H2 3574   5.520   4.197   0.791
 1204TIP3   OH2 3575   3.878   4.160   1.621
 1204TIP3    H1 3576   3.794   4.194   1.652
 1204TIP3    H2 3577   3.922   4.236   1.582
 1205TIP3   OH2 3578   0.422   3.992   5.554
 1205TIP3    H1 3579   0.377   4.063   5.599
 1205TIP3    H2 3580   0.352   3.932   5.527
 1206TIP3   OH2 3581   5.390   1.970   4.395
 1206TIP3    H1 3582   5.406   1.979   4.489
 1206TIP3    H2 3583   5.303   2.008   4.382
 1207TIP3   OH2 3584   5.217   3.060   5.053
 1207TIP3    H1 3585   5.196   2.979   5.006
 1207TIP3    H2 3586   5.206   3.129   4.988
 1208TIP3   OH2 3587   3.515   1.047   3.034
 1208TIP3    H1 3588   3.581   0.995   2.988
 1208TIP3    H2 3589   3.508   1.006   3.120
 1209TIP3   OH2 3590   5.109   5.738   1.466
 1209TIP3    H1 3591   5.141   5.663   1.516
 1209TIP3    H2 3592   5.168   5.743   1.391
 1210TIP3   OH2 3593   4.763   5.801   0.786
 1210TIP3    H1 3594   4.766   5.892   0.814
 1210TIP3    H2 3595   4.766   5.750   0.867
 1211TIP3   OH2 3596   2.230   2.718   3.105
 1211TIP3    H1 3597   2.293   2.765   3.160
 1211TIP3    H2 3598   2.167   2.785   3.079
 1212TIP3   OH2 3599   2.525   6.671   0.464
 1212TIP3    H1 3600   2.440   6.707   0.436
 1212TIP3    H2 3601   2.590   6.720   0.413
 1213TIP3   OH2 3602   0.214   4.151   5.686
 1213TIP3    H1 3603   0.175   4.190   5.608
 1213TIP3    H2 3604   0.206   4.219   5.753
 1214TIP3   OH2 3605   5.019   0.583   2.165
 1214TIP3    H1 3606   4.991   0.672   2.147
 1214TIP3    H2 3607   4.944   0.541   2.207
 1215TIP3   OH2 3608   7.173   4.092   1.360
 1215TIP3    H1 3609   7.234   4.163   1.378
 1215TIP3    H2 3610   7.129   4.118   1.279
 1216TIP3   OH2 3611   3.052   2.341   0.103
 1216TIP3    H1 3612   3.132   2.392   0.110
 1216TIP3    H2 3613   2.993   2.396   0.051
 1217TIP3   OH2 3614   7.205   0.890   0.197
 1217TIP3    H1 3615   7.116   0.903   0.165
 1217TIP3    H2 3616   7.234   0.977   0.224
 1218TIP3   OH2 3617   5.152   4.997   3.124
 1218TIP3    H1 3618   5.214   5.032   3.187
 1218TIP3    H2 3619   5.067   5.029   3.155
 1219TIP3   OH2 3620   4.030   1.237   5.196
 1219TIP3    H1 3621   4.094   1.227   5.266
 1219TIP3    H2 3622   3.964   1.295   5.233
 1220TIP3   OH2 3623   5.016   0.586   2.915
 1220TIP3    H1 3624   5.066   0.514   2.879
 1220TIP3    H2 3625   5.010   0.567   3.009
 1221TIP3   OH2 3626   4.401   0.528   3.414
 1221TIP3    H1 3627   4.478   0.510   3.359
 1221TIP3    H2 3628   4.407   0.465   3.486
 1222TIP3   OH2 3629   5.380   6.173   1.910
 1222TIP3    H1 3630   5.288   6.151   1.897
 1222TIP3    H2 3631   5.408   6.119   1.984
 1223TIP3   OH2 3632   6.860   1.780   4.455
 1223TIP3    H1 3633   6.877   1.862   4.502
 1223TIP3    H2 3634   6.856   1.806   4.363
 1224TIP3   OH2 3635   4.914   1.220   4.214
 1224TIP3    H1 3636   5.004   1.206   4.186
 1224TIP3    H2 3637   4.921   1.242   4.307
 1225TIP3   OH2 3638   4.412   6.503   3.278
 1225TIP3    H1 3639   4.396   6.504   3.372
 1225TIP3    H2 3640   4.347   6.562   3.241
 1226TIP3   OH2 3641   5.334   6.433   4.750
 1226TIP3    H1 3642   5.279   6.466   4.821
 1226TIP3    H2 3643   5.272   6.394   4.688
 1227TIP3   OH2 3644   2.948   1.520   5.638
 1227TIP3    H1 3645   2.972   1.499   5.728
 1227TIP3    H2 3646   2.869   1.470   5.621
 1228TIP3   OH2 3647   2.597   0.162   4.365
 1228TIP3    H1 3648   2.566   0.234   4.419
 1228TIP3    H2 3649   2.615   0.091   4.427
 1229TIP3   OH2 3650   0.894   2.601   4.566
 1229TIP3    H1 3651   0.961   2.664   4.539
 1229TIP3    H2 3652   0.857   2.639   4.646
 1230TIP3   OH2 3653   5.082   2.409   4.682
 1230TIP3    H1 3654   5.028   2.399   4.760
 1230TIP3    H2 3655   5.069   2.327   4.633
 1231TIP3   OH2 3656   3.199   3.019   1.830
 1231TIP3    H1 3657   3.218   3.113   1.831
 1231TIP3    H2 3658   3.253   2.984   1.759
 1232TIP3   OH2 3659   6.606   2.111   5.083
 1232TIP3    H1 3660   6.531   2.165   5.060
 1232TIP3    H2 3661   6.666   2.122   5.009
 1233TIP3   OH2 3662   7.062   5.861   1.198
 1233TIP3    H1 3663   7.151   5.836   1.175
 1233TIP3    H2 3664   7.049   5.828   1.287
 1234TIP3   OH2 3665   2.222   2.929   0.052
 1234TIP3    H1 3666   2.200   2.948  -0.039
 1234TIP3    H2 3667   2.181   2.845   0.070
 1235TIP3   OH2 3668   0.253   1.811   2.928
 1235TIP3    H1 3669   0.320   1.834   2.992
 1235TIP3    H2 3670   0.300   1.801   2.846
 1236TIP3   OH2 3671   5.262   5.428   5.665
 1236TIP3    H1 3672   5.321   5.496   5.697
 1236TIP3    H2 3673   5.233   5.383   5.743
 1237TIP3   OH2 3674   1.187   5.004   5.226
 1237TIP3    H1 3675   1.163   4.963   5.310
 1237TIP3    H2 3676   1.103   5.024   5.185
 1238TIP3   OH2 3677   0.135   2.392   0.075
 1238TIP3    H1 3678   0.114   2.472   0.122
 1238TIP3    H2 3679   0.142   2.420  -0.017
 1239TIP3   OH2 3680   5.599   3.734   1.174
 1239TIP3    H1 3681   5.565   3.646   1.189
 1239TIP3    H2 3682   5.542   3.791   1.226
 1240TIP3   OH2 3683   2.280   3.378   4.763
 1240TIP3    H1 3684   2.302   3.288   4.787
 1240TIP3    H2 3685   2.263   3.422   4.847
 1241TIP3   OH2 3686   1.678   0.532   3.897
 1241TIP3    H1 3687   1.718   0.452   3.930
 1241TIP3    H2 3688   1.669   0.588   3.975
 1242TIP3   OH2 3689   6.370   4.165   1.966
 1242TIP3    H1 3690   6.380   4.253   1.929
 1242TIP3    H2 3691   6.408   4.107   1.899
 1243TIP3   OH2 3692   5.214   2.196   1.224
 1243TIP3    H1 3693   5.165   2.157   1.152
 1243TIP3    H2 3694   5.149   2.213   1.292
 1244TIP3   OH2 3695   5.438   6.109   2.871
 1244TIP3    H1 3696   5.380   6.059   2.813
 1244TIP3    H2 3697   5.452   6.191   2.825
 1245TIP3   OH2 3698   6.390   2.922   3.841
 1245TIP3    H1 3699   6.448   2.890   3.772
 1245TIP3    H2 3700   6.335   2.847   3.863
 1246TIP3   OH2 3701   2.058   2.953   4.056
 1246TIP3    H1 3702   2.086   2.891   4.123
 1246TIP3    H2 3703   1.968   2.976   4.080
 1247TIP3   OH2 3704   1.633   3.858   4.893
 1247TIP3    H1 3705   1.584   3.934   4.924
 1247TIP3    H2 3706   1.672   3.820   4.972
 1248TIP3   OH2 3707   1.372   2.200   3.673
 1248TIP3    H1 3708   1.384   2.283   3.720
 1248TIP3    H2 3709   1.461   2.168   3.658
 1249TIP3   OH2 3710   0.954   3.618   5.592
 1249TIP3    H1 3711   0.865   3.615   5.558
 1249TIP3    H2 3712   0.974   3.527   5.616
 1250TIP3   OH2 3713   0.420   0.136   5.162
 1250TIP3    H1 3714   0.421   0.121   5.067
 1250TIP3    H2 3715   0.337   0.099   5.191
 1251TIP3   OH2 3716   5.097   2.720   0.571
 1251TIP3    H1 3717   5.082   2.674   0.489
 1251TIP3    H2 3718   5.072   2.658   0.639
 1252TIP3   OH2 3719   4.654   5.193   3.531
 1252TIP3    H1 3720   4.736   5.226   3.567
 1252TIP3    H2 3721   4.665   5.098   3.529
 1253TIP3   OH2 3722   3.657   1.199   2.779
 1253TIP3    H1 3723   3.589   1.155   2.829
 1253TIP3    H2 3724   3.673   1.142   2.704
 1254TIP3   OH2 3725   3.200   5.433   3.936
 1254TIP3    H1 3726   3.120   5.444   3.885
 1254TIP3    H2 3727   3.229   5.344   3.916
 1255TIP3   OH2 3728   6.221   6.318   2.612
 1255TIP3    H1 3729   6.140   6.368   2.603
 1255TIP3    H2 3730   6.197   6.230   2.582
 1256TIP3   OH2 3731   0.276   5.660   2.189
 1256TIP3    H1 3732   0.256   5.753   2.179
 1256TIP3    H2 3733   0.371   5.657   2.199
 1257TIP3   OH2 3734   0.266   2.634   3.053
 1257TIP3    H1 3735   0.231   2.576   2.985
 1257TIP3    H2 3736   0.279   2.718   3.010
 1258TIP3   OH2 3737   5.801   5.793   5.627
 1258TIP3    H1 3738   5.812   5.870   5.571
 1258TIP3    H2 3739   5.707   5.783   5.635
 1259TIP3   OH2 3740   4.586   1.395   4.819
 1259TIP3    H1 3741   4.595   1.370   4.727
 1259TIP3    H2 3742   4.525   1.331   4.856
 1260TIP3   OH2 3743   4.163   3.722   3.914
 1260TIP3    H1 3744   4.213   3.801   3.935
 1260TIP3    H2 3745   4.079   3.755   3.884
 1261TIP3   OH2 3746   2.627   3.759   1.213
 1261TIP3    H1 3747   2.596   3.835   1.263
 1261TIP3    H2 3748   2.624   3.687   1.276
 1262TIP3   OH2 3749   2.003   0.981   3.619
 1262TIP3    H1 3750   2.022   1.021   3.534
 1262TIP3    H2 3751   1.993   1.056   3.678
 1263TIP3   OH2 3752   3.242   4.565   0.052
 1263TIP3    H1 3753   3.182   4.622   0.101
 1263TIP3    H2 3754   3.227   4.478   0.088
 1264TIP3   OH2 3755   5.206   6.102   4.846
 1264TIP3    H1 3756   5.138   6.144   4.898
 1264TIP3    H2 3757   5.287   6.120   4.894
 1265TIP3   OH2 3758   0.355   0.593   0.644
 1265TIP3    H1 3759   0.439   0.640   0.646
 1265TIP3    H2 3760   0.356   0.547   0.560
 1266TIP3   OH2 3761   4.495   3.823   2.656
 1266TIP3    H1 3762   4.503   3.860   2.568
 1266TIP3    H2 3763   4.581   3.784   2.673
 1267TIP3   OH2 3764   2.703   1.375   2.157
 1267TIP3    H1 3765   2.688   1.403   2.248
 1267TIP3    H2 3766   2.797   1.362   2.151
 1268TIP3   OH2 3767   3.672   2.291   0.545
 1268TIP3    H1 3768   3.706   2.278   0.634
 1268TIP3    H2 3769   3.670   2.386   0.534
 1269TIP3   OH2 3770   5.090   0.771   4.700
 1269TIP3    H1 3771   5.038   0.707   4.651
 1269TIP3    H2 3772   5.169   0.723   4.725
 1270TIP3   OH2 3773   1.355   2.568   3.321
 1270TIP3    H1 3774   1.345   2.621   3.243
 1270TIP3    H2 3775   1.447   2.579   3.346
 1271TIP3   OH2 3776   6.279   5.627   0.411
 1271TIP3    H1 3777   6.209   5.679   0.449
 1271TIP3    H2 3778   6.247   5.603   0.324
 1272TIP3   OH2 3779   4.373   2.344   0.862
 1272TIP3    H1 3780   4.353   2.330   0.769
 1272TIP3    H2 3781   4.289   2.337   0.906
 1273TIP3   OH2 3782   2.161   3.956   0.621
 1273TIP3    H1 3783   2.084   3.929   0.571
 1273TIP3    H2 3784   2.140   4.044   0.652
 1274TIP3   OH2 3785   3.264   6.623   1.645
 1274TIP3    H1 3786   3.201   6.692   1.622
 1274TIP3    H2 3787   3.219   6.541   1.623
 1275TIP3   OH2 3788   4.904   3.786   5.127
 1275TIP3    H1 3789   4.884   3.701   5.087
 1275TIP3    H2 3790   4.834   3.800   5.191
 1276TIP3   OH2 3791   3.685   4.804   3.837
 1276TIP3    H1 3792   3.727   4.887   3.857
 1276TIP3    H2 3793   3.594   4.815   3.867
 1277TIP3   OH2 3794   3.436   6.258   5.016
 1277TIP3    H1 3795   3.457   6.166   4.997
 1277TIP3    H2 3796   3.356   6.254   5.069
 1278TIP3   OH2 3797   4.165   5.463   3.098
 1278TIP3    H1 3798   4.097   5.401   3.122
 1278TIP3    H2 3799   4.176   5.518   3.175
 1279TIP3   OH2 3800   4.762   2.036   3.874
 1279TIP3    H1 3801   4.847   2.053   3.915
 1279TIP3    H2 3802   4.777   2.051   3.781
 1280TIP3   OH2 3803   0.138   0.328   4.462
 1280TIP3    H1 3804   0.047   0.346   4.483
 1280TIP3    H2 3805   0.149   0.234   4.478
 1281TIP3   OH2 3806   3.396   5.548   4.861
 1281TIP3    H1 3807   3.428   5.481   4.921
 1281TIP3    H2 3808   3.317   5.582   4.903
 1282TIP3   OH2 3809   5.951   3.961   4.788
 1282TIP3    H1 3810   6.036   3.983   4.752
 1282TIP3    H2 3811   5.889   3.978   4.716
 1283TIP3   OH2 3812   2.937   1.276   3.040
 1283TIP3    H1 3813   3.019   1.243   3.004
 1283TIP3    H2 3814   2.926   1.228   3.122
 1284TIP3   OH2 3815   2.745   2.309   3.910
 1284TIP3    H1 3816   2.722   2.218   3.925
 1284TIP3    H2 3817   2.837   2.307   3.883
 1285TIP3   OH2 3818   0.494   1.826   3.790
 1285TIP3    H1 3819   0.549   1.849   3.865
 1285TIP3    H2 3820   0.550   1.771   3.735
 1286TIP3   OH2 3821   4.511   0.711   5.796
 1286TIP3    H1 3822   4.453   0.752   5.861
 1286TIP3    H2 3823   4.465   0.630   5.772
 1287TIP3   OH2 3824   4.115   4.927   0.880
 1287TIP3    H1 3825   4.049   4.867   0.846
 1287TIP3    H2 3826   4.175   4.872   0.929
 1288TIP3   OH2 3827   6.988   0.437   3.400
 1288TIP3    H1 3828   7.074   0.399   3.416
 1288TIP3    H2 3829   6.981   0.508   3.463
 1289TIP3   OH2 3830   6.762   0.716   1.579
 1289TIP3    H1 3831   6.857   0.703   1.575
 1289TIP3    H2 3832   6.737   0.690   1.667
 1290TIP3   OH2 3833   5.928   1.875   1.582
 1290TIP3    H1 3834   5.981   1.808   1.539
 1290TIP3    H2 3835   5.846   1.876   1.531
 1291TIP3   OH2 3836   2.748   4.223   2.254
 1291TIP3    H1 3837   2.711   4.308   2.277
 1291TIP3    H2 3838   2.715   4.164   2.322
 1292TIP3   OH2 3839   1.010   2.311   2.044
 1292TIP3    H1 3840   0.985   2.269   2.126
 1292TIP3    H2 3841   1.005   2.241   1.979
 1293TIP3   OH2 3842   5.616   3.816   3.792
 1293TIP3    H1 3843   5.608   3.723   3.768
 1293TIP3    H2 3844   5.674   3.853   3.725
 1294TIP3   OH2 3845   5.194   3.873   5.684
 1294TIP3    H1 3846   5.157   3.810   5.621
 1294TIP3    H2 3847   5.132   3.947   5.682
 1295TIP3   OH2 3848   4.315   5.791   3.018
 1295TIP3    H1 3849   4.331   5.698   3.036
 1295TIP3    H2 3850   4.259   5.791   2.940
 1296TIP3   OH2 3851   5.345   4.459   2.819
 1296TIP3    H1 3852   5.308   4.536   2.776
 1296TIP3    H2 3853   5.409   4.494   2.881
 1297TIP3   OH2 3854   3.712   2.568   3.686
 1297TIP3    H1 3855   3.748   2.488   3.723
 1297TIP3    H2 3856   3.740   2.567   3.594
 1298TIP3   OH2 3857   4.938   0.747   3.273
 1298TIP3    H1 3858   4.882   0.812   3.315
 1298TIP3    H2 3859   4.980   0.794   3.201
 1299TIP3   OH2 3860   6.992  -0.018   4.820
 1299TIP3    H1 3861   6.952   0.039   4.755
 1299TIP3    H2 3862   6.957   0.012   4.904
 1300TIP3   OH2 3863   1.958   3.453   5.811
 1300TIP3    H1 3864   1.871   3.434   5.776
 1300TIP3    H2 3865   1.945   3.457   5.906
 1301TIP3   OH2 3866   6.087   0.627   5.215
 1301TIP3    H1 3867   6.074   0.551   5.272
 1301TIP3    H2 3868   6.012   0.684   5.235
 1302TIP3   OH2 3869   1.804   1.025   1.274
 1302TIP3    H1 3870   1.762   1.036   1.359
 1302TIP3    H2 3871   1.734   0.993   1.217
 1303TIP3   OH2 3872   5.143   1.009   4.825
 1303TIP3    H1 3873   5.123   0.935   4.768
 1303TIP3    H2 3874   5.059   1.032   4.865
 1304TIP3   OH2 3875   7.049   0.017   4.458
 1304TIP3    H1 3876   6.965   0.060   4.445
 1304TIP3    H2 3877   7.108   0.060   4.396
 1305TIP3   OH2 3878   1.634   3.787   0.670
 1305TIP3    H1 3879   1.593   3.706   0.700
 1305TIP3    H2 3880   1.606   3.797   0.580
 1306TIP3   OH2 3881   3.698   4.316   3.017
 1306TIP3    H1 3882   3.738   4.285   2.935
 1306TIP3    H2 3883   3.772   4.322   3.078
 1307TIP3   OH2 3884   6.626   5.935   0.005
 1307TIP3    H1 3885   6.696   5.997  -0.016
 1307TIP3    H2 3886   6.572   5.981   0.069
 1308TIP3   OH2 3887   6.977   1.918   1.597
 1308TIP3    H1 3888   6.934   1.954   1.674
 1308TIP3    H2 3889   6.905   1.893   1.539
 1309TIP3   OH2 3890   4.386   0.364   4.551
 1309TIP3    H1 3891   4.312   0.425   4.560
 1309TIP3    H2 3892   4.346   0.278   4.558
 1310TIP3   OH2 3893   4.828   4.968   2.798
 1310TIP3    H1 3894   4.909   4.971   2.849
 1310TIP3    H2 3895   4.772   5.035   2.837
 1311TIP3   OH2 3896   1.291   0.311   2.446
 1311TIP3    H1 3897   1.362   0.313   2.381
 1311TIP3    H2 3898   1.243   0.231   2.426
 1312TIP3   OH2 3899   7.062   3.751   2.398
 1312TIP3    H1 3900   7.109   3.729   2.317
 1312TIP3    H2 3901   7.000   3.680   2.410
 1313TIP3   OH2 3902   1.352   5.756   5.792
 1313TIP3    H1 3903   1.259   5.777   5.792
 1313TIP3    H2 3904   1.356   5.668   5.754
 1314TIP3   OH2 3905   6.004   1.268   4.306
 1314TIP3    H1 3906   6.042   1.243   4.221
 1314TIP3    H2 3907   6.073   1.249   4.369
 1315TIP3   OH2 3908   2.088   0.637   4.716
 1315TIP3    H1 3909   2.050   0.725   4.718
 1315TIP3    H2 3910   2.175   0.648   4.676
 1316TIP3   OH2 3911   0.040   4.550   3.004
 1316TIP3    H1 3912   0.061   4.632   2.959
 1316TIP3    H2 3913   0.061   4.482   2.941
 1317TIP3   OH2 3914   5.998   2.635   1.234
 1317TIP3    H1 3915   5.947   2.582   1.173
 1317TIP3    H2 3916   6.042   2.699   1.179
 1318TIP3   OH2 3917   6.664   1.641   2.077
 1318TIP3    H1 3918   6.735   1.705   2.073
 1318TIP3    H2 3919   6.586   1.692   2.097
 1319TIP3   OH2 3920   4.976   6.548   1.746
 1319TIP3    H1 3921   4.991   6.454   1.734
 1319TIP3    H2 3922   5.013   6.567   1.832
 1320TIP3   OH2 3923   1.228   3.578   0.379
 1320TIP3    H1 3924   1.182   3.505   0.420
 1320TIP3    H2 3925   1.220   3.650   0.442
 1321TIP3   OH2 3926   4.786   4.320   1.999
 1321TIP3    H1 3927   4.866   4.270   1.983
 1321TIP3    H2 3928   4.799   4.402   1.950
 1322TIP3   OH2 3929   6.179   6.041   1.152
 1322TIP3    H1 3930   6.114   5.978   1.182
 1322TIP3    H2 3931   6.255   6.027   1.209
 1323TIP3   OH2 3932   6.880   5.215   1.167
 1323TIP3    H1 3933   6.949   5.278   1.147
 1323TIP3    H2 3934   6.926   5.133   1.184
 1324TIP3   OH2 3935   6.661   2.370   5.847
 1324TIP3    H1 3936   6.737   2.321   5.817
 1324TIP3    H2 3937   6.594   2.354   5.780
 1325TIP3   OH2 3938   1.634   3.333   3.394
 1325TIP3    H1 3939   1.584   3.279   3.456
 1325TIP3    H2 3940   1.725   3.304   3.405
 1326TIP3   OH2 3941   1.063   5.303   3.319
 1326TIP3    H1 3942   1.130   5.369   3.298
 1326TIP3    H2 3943   1.000   5.350   3.374
 1327TIP3   OH2 3944   6.504   0.480   2.684
 1327TIP3    H1 3945   6.564   0.410   2.656
 1327TIP3    H2 3946   6.548   0.520   2.759
 1328TIP3   OH2 3947   1.368   3.320   1.838
 1328TIP3    H1 3948   1.360   3.343   1.746
 1328TIP3    H2 3949   1.450   3.359   1.867
 1329TIP3   OH2 3950   6.669   1.381   2.838
 1329TIP3    H1 3951   6.748   1.331   2.857
 1329TIP3    H2 3952   6.695   1.443   2.770
 1330TIP3   OH2 3953   1.323   5.748   4.048
 1330TIP3    H1 3954   1.404   5.790   4.017
 1330TIP3    H2 3955   1.316   5.668   3.996
 1331TIP3   OH2 3956   6.870   0.996   5.000
 1331TIP3    H1 3957   6.879   0.939   4.924
 1331TIP3    H2 3958   6.841   1.080   4.964
 1332TIP3   OH2 3959   3.472   5.259   5.540
 1332TIP3    H1 3960   3.545   5.203   5.514
 1332TIP3    H2 3961   3.417   5.203   5.595
 1333TIP3   OH2 3962   2.958   3.667   4.824
 1333TIP3    H1 3963   2.904   3.734   4.782
 1333TIP3    H2 3964   3.009   3.715   4.890
 1334TIP3   OH2 3965   1.480   1.148   3.798
 1334TIP3    H1 3966   1.431   1.230   3.793
 1334TIP3    H2 3967   1.527   1.142   3.715
 1335TIP3   OH2 3968   4.822   6.547   1.128
 1335TIP3    H1 3969   4.778   6.584   1.204
 1335TIP3    H2 3970   4.895   6.498   1.164
 1336TIP3   OH2 3971   6.407   4.986   5.668
 1336TIP3    H1 3972   6.463   5.060   5.644
 1336TIP3    H2 3973   6.366   5.012   5.750
 1337TIP3   OH2 3974   2.909   2.703   1.536
 1337TIP3    H1 3975   2.991   2.665   1.566
 1337TIP3    H2 3976   2.917   2.796   1.557
 1338TIP3   OH2 3977   6.426   0.899   3.987
 1338TIP3    H1 3978   6.487   0.955   3.939
 1338TIP3    H2 3979   6.352   0.889   3.928
 1339TIP3   OH2 3980   5.071   1.292   2.205
 1339TIP3    H1 3981   5.064   1.388   2.205
 1339TIP3    H2 3982   5.070   1.268   2.113
 1340TIP3   OH2 3983   2.471   4.385   3.678
 1340TIP3    H1 3984   2.522   4.312   3.644
 1340TIP3    H2 3985   2.535   4.453   3.696
 1341TIP3   OH2 3986   1.290   2.319   1.110
 1341TIP3    H1 3987   1.207   2.352   1.075
 1341TIP3    H2 3988   1.338   2.289   1.032
 1342TIP3   OH2 3989   4.242   3.508   0.843
 1342TIP3    H1 3990   4.223   3.457   0.922
 1342TIP3    H2 3991   4.226   3.598   0.869
 1343TIP3   OH2 3992   7.128   5.133   3.395
 1343TIP3    H1 3993   7.089   5.095   3.317
 1343TIP3    H2 3994   7.066   5.201   3.423
 1344TIP3   OH2 3995   0.086   1.628   0.482
 1344TIP3    H1 3996   0.011   1.610   0.538
 1344TIP3    H2 3997   0.078   1.721   0.461
 1345TIP3   OH2 3998   6.162   1.863   0.336
 1345TIP3    H1 3999   6.146   1.770   0.327
 1345TIP3    H2 4000   6.212   1.871   0.418
 1346TIP3   OH2 4001   1.163   0.523   0.074
 1346TIP3    H1 4002   1.208   0.479   0.002
 1346TIP3    H2 4003   1.227   0.585   0.108
 1347TIP3   OH2 4004   4.376   6.272   5.514
 1347TIP3    H1 4005   4.353   6.246   5.424
 1347TIP3    H2 4006   4.377   6.190   5.563
 1348TIP3   OH2 4007   0.949   0.643   1.897
 1348TIP3    H1 4008   1.024   0.698   1.875
 1348TIP3    H2 4009   0.945   0.645   1.993
 1349TIP3   OH2 4010   3.495   2.511   5.839
 1349TIP3    H1 4011   3.540   2.432   5.867
 1349TIP3    H2 4012   3.529   2.529   5.752
 1350TIP3   OH2 4013   5.466   4.695   1.902
 1350TIP3    H1 4014   5.518   4.643   1.963
 1350TIP3    H2 4015   5.528   4.719   1.832
 1351TIP3   OH2 4016   5.332   1.218   0.231
 1351TIP3    H1 4017   5.305   1.274   0.305
 1351TIP3    H2 4018   5.278   1.139   0.240
 1352TIP3   OH2 4019   0.020   6.676   4.807
 1352TIP3    H1 4020  -0.051   6.621   4.774
 1352TIP3    H2 4021   0.098   6.623   4.797
 1353TIP3   OH2 4022   4.072   5.071   3.486
 1353TIP3    H1 4023   4.154   5.048   3.442
 1353TIP3    H2 4024   4.006   5.066   3.416
 1354TIP3   OH2 4025   0.471   2.085   2.839
 1354TIP3    H1 4026   0.440   2.002   2.801
 1354TIP3    H2 4027   0.553   2.062   2.884
 1355TIP3   OH2 4028   2.870   1.392  -0.016
 1355TIP3    H1 4029   2.908   1.362   0.066
 1355TIP3    H2 4030   2.869   1.488  -0.008
 1356TIP3   OH2 4031   2.050   0.727   3.495
 1356TIP3    H1 4032   1.967   0.687   3.522
 1356TIP3    H2 4033   2.060   0.803   3.553
 1357TIP3   OH2 4034   3.185   1.247   2.864
 1357TIP3    H1 4035   3.223   1.164   2.837
 1357TIP3    H2 4036   3.118   1.266   2.798
 1358TIP3   OH2 4037   5.637   1.675   1.296
 1358TIP3    H1 4038   5.556   1.655   1.344
 1358TIP3    H2 4039   5.665   1.759   1.332
 1359TIP3   OH2 4040   3.853   6.737   3.349
 1359TIP3    H1 4041   3.857   6.672   3.280
 1359TIP3    H2 4042   3.867   6.688   3.430
 1360TIP3   OH2 4043   2.531   3.165   1.656
 1360TIP3    H1 4044   2.582   3.099   1.608
 1360TIP3    H2 4045   2.567   3.164   1.744
 1361TIP3   OH2 4046   3.768   5.655   5.754
 1361TIP3    H1 4047   3.787   5.565   5.784
 1361TIP3    H2 4048   3.700   5.645   5.688
 1362TIP3   OH2 4049   6.480   0.797   2.635
 1362TIP3    H1 4050   6.501   0.818   2.544
 1362TIP3    H2 4051   6.563   0.802   2.682
 1363TIP3   OH2 4052   1.398   4.114   4.242
 1363TIP3    H1 4053   1.441   4.043   4.292
 1363TIP3    H2 4054   1.396   4.081   4.152
 1364TIP3   OH2 4055   6.366   0.305   0.680
 1364TIP3    H1 4056   6.351   0.251   0.758
 1364TIP3    H2 4057   6.279   0.333   0.653
 1365TIP3   OH2 4058   4.468   4.656   5.005
 1365TIP3    H1 4059   4.479   4.638   5.098
 1365TIP3    H2 4060   4.461   4.751   5.000
 1366TIP3   OH2 4061   6.588   6.652   1.410
 1366TIP3    H1 4062   6.494   6.658   1.395
 1366TIP3    H2 4063   6.625   6.636   1.323
 1367TIP3   OH2 4064   2.820   5.055   1.011
 1367TIP3    H1 4065   2.738   5.097   0.984
 1367TIP3    H2 4066   2.793   4.968   1.041
 1368TIP3   OH2 4067   0.867   2.442   2.458
 1368TIP3    H1 4068   0.896   2.425   2.548
 1368TIP3    H2 4069   0.772   2.440   2.462
 1369TIP3   OH2 4070   4.280   2.639   1.634
 1369TIP3    H1 4071   4.333   2.666   1.559
 1369TIP3    H2 4072   4.313   2.692   1.707
 1370TIP3   OH2 4073   0.222   1.940   0.648
 1370TIP3    H1 4074   0.232   2.002   0.576
 1370TIP3    H2 4075   0.289   1.873   0.633
 1371TIP3   OH2 4076   2.781   6.105   4.776
 1371TIP3    H1 4077   2.730   6.182   4.802
 1371TIP3    H2 4078   2.872   6.135   4.775
 1372TIP3   OH2 4079   7.108   0.762   3.117
 1372TIP3    H1 4080   7.132   0.763   3.209
 1372TIP3    H2 4081   7.013   0.768   3.117
 1373TIP3   OH2 4082   3.711   2.006   0.446
 1373TIP3    H1 4083   3.791   2.008   0.392
 1373TIP3    H2 4084   3.693   2.098   0.466
 1374TIP3   OH2 4085   4.386   5.077   3.076
 1374TIP3    H1 4086   4.417   5.167   3.059
 1374TIP3    H2 4087   4.453   5.022   3.037
 1375TIP3   OH2 4088   4.798   6.258   3.511
 1375TIP3    H1 4089   4.741   6.205   3.567
 1375TIP3    H2 4090   4.881   6.262   3.559
 1376TIP3   OH2 4091   6.553   2.860   3.235
 1376TIP3    H1 4092   6.636   2.815   3.239
 1376TIP3    H2 4093   6.568   2.944   3.280
 1377TIP3   OH2 4094   3.799   1.774   3.992
 1377TIP3    H1 4095   3.828   1.753   3.903
 1377TIP3    H2 4096   3.832   1.862   4.008
 1378TIP3   OH2 4097   6.113   6.383   1.577
 1378TIP3    H1 4098   6.051   6.311   1.562
 1378TIP3    H2 4099   6.144   6.370   1.666
 1379TIP3   OH2 4100   3.588   0.269   5.049
 1379TIP3    H1 4101   3.529   0.292   5.121
 1379TIP3    H2 4102   3.613   0.353   5.010
 1380TIP3   OH2 4103   3.807   1.364   3.456
 1380TIP3    H1 4104   3.837   1.361   3.365
 1380TIP3    H2 4105   3.715   1.340   3.452
 1381TIP3   OH2 4106   1.449   6.648   1.607
 1381TIP3    H1 4107   1.525   6.702   1.628
 1381TIP3    H2 4108   1.477   6.592   1.535
 1382TIP3   OH2 4109   6.003   3.681   2.279
 1382TIP3    H1 4110   5.945   3.705   2.207
 1382TIP3    H2 4111   6.025   3.589   2.262
 1383TIP3   OH2 4112   7.081   3.098   0.514
 1383TIP3    H1 4113   7.144   3.147   0.462
 1383TIP3    H2 4114   6.995   3.128   0.483
 1384TIP3   OH2 4115   5.263   5.909   2.702
 1384TIP3    H1 4116   5.173   5.933   2.726
 1384TIP3    H2 4117   5.270   5.931   2.609
 1385TIP3   OH2 4118   5.138   0.972   3.921
 1385TIP3    H1 4119   5.053   0.939   3.893
 1385TIP3    H2 4120   5.171   0.904   3.980
 1386TIP3   OH2 4121   2.398   2.376   3.721
 1386TIP3    H1 4122   2.357   2.380   3.808
 1386TIP3    H2 4123   2.438   2.289   3.717
 1387TIP3   OH2 4124   6.775   4.985   1.483
 1387TIP3    H1 4125   6.752   5.077   1.496
 1387TIP3    H2 4126   6.865   4.987   1.451
 1388TIP3   OH2 4127   1.744   0.527   5.391
 1388TIP3    H1 4128   1.649   0.521   5.407
 1388TIP3    H2 4129   1.766   0.617   5.413
 1389TIP3   OH2 4130   0.338   0.701   3.742
 1389TIP3    H1 4131   0.266   0.668   3.687
 1389TIP3    H2 4132   0.344   0.638   3.814
 1390TIP3   OH2 4133   2.928   1.829   1.139
 1390TIP3    H1 4134   2.965   1.795   1.221
 1390TIP3    H2 4135   2.860   1.766   1.115
 1391TIP3   OH2 4136   7.052   3.878   1.469
 1391TIP3    H1 4137   7.102   3.951   1.430
 1391TIP3    H2 4138   7.093   3.800   1.433
 1392TIP3   OH2 4139   6.499   6.713   5.096
 1392TIP3    H1 4140   6.420   6.701   5.045
 1392TIP3    H2 4141   6.500   6.639   5.158
 1393TIP3   OH2 4142   6.323   3.781   1.282
 1393TIP3    H1 4143   6.342   3.760   1.374
 1393TIP3    H2 4144   6.343   3.874   1.274
 1394TIP3   OH2 4145   3.337   1.088   5.811
 1394TIP3    H1 4146   3.262   1.146   5.820
 1394TIP3    H2 4147   3.305   1.016   5.757
 1395TIP3   OH2 4148   5.504   0.130   0.415
 1395TIP3    H1 4149   5.542   0.100   0.332
 1395TIP3    H2 4150   5.515   0.225   0.414
 1396TIP3   OH2 4151   0.481   2.427   2.762
 1396TIP3    H1 4152   0.576   2.422   2.767
 1396TIP3    H2 4153   0.457   2.362   2.695
 1397TIP3   OH2 4154   7.031   5.368   1.507
 1397TIP3    H1 4155   7.114   5.402   1.474
 1397TIP3    H2 4156   7.043   5.274   1.513
 1398TIP3   OH2 4157   5.427   1.461   0.686
 1398TIP3    H1 4158   5.423   1.366   0.693
 1398TIP3    H2 4159   5.337   1.487   0.665
 1399TIP3   OH2 4160   6.217   4.074   0.784
 1399TIP3    H1 4161   6.221   4.144   0.719
 1399TIP3    H2 4162   6.173   4.002   0.739
 1400TIP3   OH2 4163   1.402  -0.008   2.568
 1400TIP3    H1 4164   1.309   0.012   2.561
 1400TIP3    H2 4165   1.440   0.068   2.612
 1401TIP3   OH2 4166   3.806   4.112   4.589
 1401TIP3    H1 4167   3.865   4.051   4.545
 1401TIP3    H2 4168   3.861   4.157   4.653
 1402TIP3   OH2 4169   4.604   3.823   4.884
 1402TIP3    H1 4170   4.636   3.890   4.945
 1402TIP3    H2 4171   4.518   3.853   4.857
 1403TIP3   OH2 4172   6.474   3.589   4.552
 1403TIP3    H1 4173   6.539   3.652   4.521
 1403TIP3    H2 4174   6.515   3.550   4.630
 1404TIP3   OH2 4175   1.147   3.519   3.781
 1404TIP3    H1 4176   1.134   3.424   3.783
 1404TIP3    H2 4177   1.236   3.531   3.817
 1405TIP3   OH2 4178   0.287   4.696   5.124
 1405TIP3    H1 4179   0.375   4.728   5.105
 1405TIP3    H2 4180   0.236   4.717   5.045
 1406TIP3   OH2 4181   4.223   5.317   4.700
 1406TIP3    H1 4182   4.252   5.394   4.748
 1406TIP3    H2 4183   4.141   5.344   4.659
 1407TIP3   OH2 4184   0.591   0.719   4.231
 1407TIP3    H1 4185   0.517   0.747   4.285
 1407TIP3    H2 4186   0.558   0.643   4.183
 1408TIP3   OH2 4187   3.930   3.439   3.955
 1408TIP3    H1 4188   3.884   3.438   3.872
 1408TIP3    H2 4189   3.870   3.482   4.016
 1409TIP3   OH2 4190   6.045   5.506   1.285
 1409TIP3    H1 4191   6.135   5.493   1.314
 1409TIP3    H2 4192   6.049   5.498   1.189
 1410TIP3   OH2 4193   0.266   3.386   4.496
 1410TIP3    H1 4194   0.239   3.368   4.586
 1410TIP3    H2 4195   0.261   3.481   4.488
 1411TIP3   OH2 4196   6.529   2.044   1.354
 1411TIP3    H1 4197   6.564   2.023   1.268
 1411TIP3    H2 4198   6.509   2.138   1.350
 1412TIP3   OH2 4199   2.759   3.613   5.075
 1412TIP3    H1 4200   2.723   3.552   5.011
 1412TIP3    H2 4201   2.832   3.565   5.115
 1413TIP3   OH2 4202   1.579   0.760   0.558
 1413TIP3    H1 4203   1.636   0.768   0.635
 1413TIP3    H2 4204   1.540   0.847   0.548
 1414TIP3   OH2 4205   0.212   0.585   2.367
 1414TIP3    H1 4206   0.227   0.564   2.275
 1414TIP3    H2 4207   0.280   0.537   2.414
 1415TIP3   OH2 4208   4.588   3.293   5.145
 1415TIP3    H1 4209   4.659   3.315   5.085
 1415TIP3    H2 4210   4.631   3.244   5.215
 1416TIP3   OH2 4211   2.307   6.653   1.042
 1416TIP3    H1 4212   2.244   6.583   1.028
 1416TIP3    H2 4213   2.336   6.643   1.132
 1417TIP3   OH2 4214   3.705   5.669   1.032
 1417TIP3    H1 4215   3.763   5.614   1.084
 1417TIP3    H2 4216   3.717   5.757   1.068
 1418TIP3   OH2 4217   0.790   2.285   1.332
 1418TIP3    H1 4218   0.753   2.351   1.391
 1418TIP3    H2 4219   0.878   2.269   1.365
 1419TIP3   OH2 4220   0.929   1.455   2.956
 1419TIP3    H1 4221   0.834   1.454   2.960
 1419TIP3    H2 4222   0.956   1.375   3.002
 1420TIP3   OH2 4223   0.896   4.910   1.895
 1420TIP3    H1 4224   0.988   4.889   1.881
 1420TIP3    H2 4225   0.883   4.901   1.989
 1421TIP3   OH2 4226   1.864   5.651   1.292
 1421TIP3    H1 4227   1.923   5.604   1.350
 1421TIP3    H2 4228   1.875   5.610   1.207
 1422TIP3   OH2 4229   2.810   5.895   3.741
 1422TIP3    H1 4230   2.721   5.931   3.732
 1422TIP3    H2 4231   2.859   5.933   3.669
 1423TIP3   OH2 4232   4.736   1.350   0.136
 1423TIP3    H1 4233   4.771   1.324   0.221
 1423TIP3    H2 4234   4.708   1.441   0.149
 1424TIP3   OH2 4235   6.077   2.009   0.623
 1424TIP3    H1 4236   6.030   2.091   0.611
 1424TIP3    H2 4237   6.166   2.027   0.593
 1425TIP3   OH2 4238   2.546   0.190   5.921
 1425TIP3    H1 4239   2.478   0.247   5.884
 1425TIP3    H2 4240   2.557   0.122   5.856
 1426TIP3   OH2 4241   5.155   6.559   4.939
 1426TIP3    H1 4242   5.062   6.581   4.941
 1426TIP3    H2 4243   5.180   6.553   5.031
 1427TIP3   OH2 4244   0.397   3.924   4.310
 1427TIP3    H1 4245   0.385   4.006   4.359
 1427TIP3    H2 4246   0.463   3.876   4.360
 1428TIP3   OH2 4247   0.172   4.878   1.452
 1428TIP3    H1 4248   0.176   4.947   1.518
 1428TIP3    H2 4249   0.208   4.800   1.496
 1429TIP3   OH2 4250   0.178   3.641   0.310
 1429TIP3    H1 4251   0.213   3.727   0.332
 1429TIP3    H2 4252   0.251   3.596   0.268
 1430TIP3   OH2 4253   6.193   1.775   3.654
 1430TIP3    H1 4254   6.197   1.868   3.675
 1430TIP3    H2 4255   6.136   1.771   3.577
 1431TIP3   OH2 4256   4.859   0.973   5.147
 1431TIP3    H1 4257   4.935   0.966   5.204
 1431TIP3    H2 4258   4.893   0.952   5.060
 1432TIP3   OH2 4259   2.634   3.610   4.231
 1432TIP3    H1 4260   2.566   3.676   4.247
 1432TIP3    H2 4261   2.656   3.578   4.318
 1433TIP3   OH2 4262   1.357   1.979   0.704
 1433TIP3    H1 4263   1.354   1.898   0.653
 1433TIP3    H2 4264   1.424   2.031   0.662
 1434TIP3   OH2 4265   1.946   1.618   1.419
 1434TIP3    H1 4266   1.893   1.616   1.499
 1434TIP3    H2 4267   1.939   1.708   1.387
 1435TIP3   OH2 4268   0.924   4.935   5.172
 1435TIP3    H1 4269   0.871   4.907   5.247
 1435TIP3    H2 4270   0.967   4.855   5.143
 1436TIP3   OH2 4271   0.881   5.835   1.902
 1436TIP3    H1 4272   0.922   5.837   1.988
 1436TIP3    H2 4273   0.794   5.872   1.916
 1437TIP3   OH2 4274   1.587   0.985   1.784
 1437TIP3    H1 4275   1.616   0.915   1.842
 1437TIP3    H2 4276   1.571   1.059   1.842
 1438TIP3   OH2 4277   6.472   2.800   5.484
 1438TIP3    H1 4278   6.432   2.886   5.491
 1438TIP3    H2 4279   6.494   2.791   5.391
 1439TIP3   OH2 4280   2.509   2.503   5.312
 1439TIP3    H1 4281   2.523   2.412   5.337
 1439TIP3    H2 4282   2.544   2.509   5.223
 1440TIP3   OH2 4283   0.400   0.172   2.798
 1440TIP3    H1 4284   0.434   0.112   2.732
 1440TIP3    H2 4285   0.390   0.255   2.753
 1441TIP3   OH2 4286   4.240   5.320   4.399
 1441TIP3    H1 4287   4.296   5.343   4.326
 1441TIP3    H2 4288   4.295   5.330   4.477
 1442TIP3   OH2 4289   2.256   0.692   0.207
 1442TIP3    H1 4290   2.314   0.700   0.282
 1442TIP3    H2 4291   2.172   0.727   0.237
 1443TIP3   OH2 4292   5.656   3.369   4.558
 1443TIP3    H1 4293   5.686   3.299   4.500
 1443TIP3    H2 4294   5.720   3.369   4.630
 1444TIP3   OH2 4295   4.351   0.448   5.836
 1444TIP3    H1 4296   4.256   0.438   5.851
 1444TIP3    H2 4297   4.379   0.363   5.803
 1445TIP3   OH2 4298   5.810   0.061   2.664
 1445TIP3    H1 4299   5.773   0.090   2.747
 1445TIP3    H2 4300   5.795   0.133   2.604
 1446TIP3   OH2 4301   5.860   3.723   4.855
 1446TIP3    H1 4302   5.895   3.812   4.849
 1446TIP3    H2 4303   5.882   3.683   4.770
 1447TIP3   OH2 4304   3.818   5.834   5.272
 1447TIP3    H1 4305   3.816   5.847   5.366
 1447TIP3    H2 4306   3.907   5.806   5.252
 1448TIP3   OH2 4307   4.376   0.238   5.154
 1448TIP3    H1 4308   4.359   0.174   5.086
 1448TIP3    H2 4309   4.293   0.285   5.165
 1449TIP3   OH2 4310   2.717   3.521   5.862
 1449TIP3    H1 4311   2.738   3.474   5.781
 1449TIP3    H2 4312   2.771   3.479   5.929
 1450TIP3   OH2 4313   5.667   3.432   0.890
 1450TIP3    H1 4314   5.726   3.458   0.961
 1450TIP3    H2 4315   5.580   3.436   0.929
 1451TIP3   OH2 4316   4.033   3.915   4.139
 1451TIP3    H1 4317   4.037   3.928   4.044
 1451TIP3    H2 4318   4.124   3.923   4.168
 1452TIP3   OH2 4319   4.725   2.135   0.959
 1452TIP3    H1 4320   4.748   2.159   0.869
 1452TIP3    H2 4321   4.728   2.039   0.960
 1453TIP3   OH2 4322   1.975   5.538   3.923
 1453TIP3    H1 4323   1.975   5.599   3.997
 1453TIP3    H2 4324   1.993   5.593   3.847
 1454TIP3   OH2 4325   6.141   4.437   1.902
 1454TIP3    H1 4326   6.229   4.444   1.866
 1454TIP3    H2 4327   6.137   4.507   1.968
 1455TIP3   OH2 4328   4.339   5.735   5.088
 1455TIP3    H1 4329   4.290   5.817   5.079
 1455TIP3    H2 4330   4.273   5.672   5.118
 1456TIP3   OH2 4331   0.667   6.497   5.330
 1456TIP3    H1 4332   0.731   6.530   5.266
 1456TIP3    H2 4333   0.712   6.425   5.374
 1457TIP3   OH2 4334   5.248   1.378   0.036
 1457TIP3    H1 4335   5.157   1.399   0.053
 1457TIP3    H2 4336   5.268   1.304   0.093
 1458TIP3   OH2 4337   0.084   0.445   1.250
 1458TIP3    H1 4338   0.041   0.364   1.278
 1458TIP3    H2 4339   0.067   0.449   1.156
 1459TIP3   OH2 4340   2.638   2.401   3.150
 1459TIP3    H1 4341   2.612   2.345   3.223
 1459TIP3    H2 4342   2.733   2.397   3.149
 1460TIP3   OH2 4343   5.170   0.603   4.266
 1460TIP3    H1 4344   5.254   0.615   4.311
 1460TIP3    H2 4345   5.151   0.689   4.227
 1461TIP3   OH2 4346   3.901   6.306   3.398
 1461TIP3    H1 4347   3.826   6.272   3.446
 1461TIP3    H2 4348   3.961   6.336   3.466
 1462TIP3   OH2 4349   2.589   4.688   4.630
 1462TIP3    H1 4350   2.596   4.659   4.721
 1462TIP3    H2 4351   2.520   4.755   4.631
 1463TIP3   OH2 4352   2.617   3.612   5.396
 1463TIP3    H1 4353   2.649   3.522   5.398
 1463TIP3    H2 4354   2.526   3.604   5.367
 1464TIP3   OH2 4355   0.414   3.590   3.813
 1464TIP3    H1 4356   0.404   3.496   3.828
 1464TIP3    H2 4357   0.443   3.625   3.898
 1465TIP3   OH2 4358   4.925   4.835   5.898
 1465TIP3    H1 4359   4.854   4.771   5.896
 1465TIP3    H2 4360   4.905   4.895   5.826
 1466TIP3   OH2 4361   3.376   0.019   1.878
 1466TIP3    H1 4362   3.356  -0.067   1.914
 1466TIP3    H2 4363   3.447   0.052   1.933
 1467TIP3   OH2 4364   1.826   1.523   2.782
 1467TIP3    H1 4365   1.776   1.466   2.841
 1467TIP3    H2 4366   1.885   1.464   2.736
 1468TIP3   OH2 4367   0.789   4.174   0.429
 1468TIP3    H1 4368   0.695   4.157   0.417
 1468TIP3    H2 4369   0.822   4.188   0.341
 1469TIP3   OH2 4370   3.599   6.235   5.854
 1469TIP3    H1 4371   3.596   6.237   5.758
 1469TIP3    H2 4372   3.669   6.296   5.877
 1470TIP3   OH2 4373   2.901   4.531   3.926
 1470TIP3    H1 4374   2.962   4.577   3.984
 1470TIP3    H2 4375   2.957   4.486   3.862
 1471TIP3   OH2 4376   4.131   4.334   2.232
 1471TIP3    H1 4377   4.174   4.288   2.160
 1471TIP3    H2 4378   4.107   4.419   2.195
 1472TIP3   OH2 4379   3.979   0.366   1.274
 1472TIP3    H1 4380   3.948   0.453   1.250
 1472TIP3    H2 4381   3.911   0.331   1.332
 1473TIP3   OH2 4382   3.669   0.806   0.898
 1473TIP3    H1 4383   3.750   0.758   0.880
 1473TIP3    H2 4384   3.679   0.888   0.850
 1474TIP3   OH2 4385   5.958   0.583   2.518
 1474TIP3    H1 4386   5.926   0.673   2.522
 1474TIP3    H2 4387   5.956   0.553   2.609
 1475TIP3   OH2 4388   3.133   0.446   1.772
 1475TIP3    H1 4389   3.196   0.374   1.763
 1475TIP3    H2 4390   3.100   0.460   1.683
 1476TIP3   OH2 4391   0.082   0.515   3.405
 1476TIP3    H1 4392   0.128   0.579   3.351
 1476TIP3    H2 4393   0.144   0.494   3.475
 1477TIP3   OH2 4394   4.637   1.586   1.441
 1477TIP3    H1 4395   4.552   1.565   1.403
 1477TIP3    H2 4396   4.637   1.681   1.451
 1478TIP3   OH2 4397   6.344   3.690   0.276
 1478TIP3    H1 4398   6.258   3.682   0.234
 1478TIP3    H2 4399   6.335   3.765   0.334
 1479TIP3   OH2 4400   0.740   2.618   3.490
 1479TIP3    H1 4401   0.806   2.601   3.422
 1479TIP3    H2 4402   0.720   2.531   3.525
 1480TIP3   OH2 4403   0.996   1.925   4.173
 1480TIP3    H1 4404   0.949   1.933   4.256
 1480TIP3    H2 4405   1.083   1.959   4.191
 1481TIP3   OH2 4406   3.357   5.028   4.825
 1481TIP3    H1 4407   3.301   5.084   4.772
 1481TIP3    H2 4408   3.412   5.089   4.875
 1482TIP3   OH2 4409   3.291   2.290   0.930
 1482TIP3    H1 4410   3.291   2.254   1.019
 1482TIP3    H2 4411   3.207   2.263   0.893
 1483TIP3   OH2 4412   1.432   3.678   5.694
 1483TIP3    H1 4413   1.426   3.671   5.599
 1483TIP3    H2 4414   1.487   3.755   5.709
 1484TIP3   OH2 4415   5.571   3.052   1.477
 1484TIP3    H1 4416   5.614   3.005   1.406
 1484TIP3    H2 4417   5.539   2.983   1.535
 1485TIP3   OH2 4418   3.652   3.392   0.883
 1485TIP3    H1 4419   3.628   3.483   0.866
 1485TIP3    H2 4420   3.571   3.343   0.867
 1486TIP3   OH2 4421   0.100   2.538   2.470
 1486TIP3    H1 4422   0.162   2.609   2.481
 1486TIP3    H2 4423   0.139   2.481   2.404
 1487TIP3   OH2 4424   6.238   2.037   1.424
 1487TIP3    H1 4425   6.303   2.084   1.372
 1487TIP3    H2 4426   6.288   1.966   1.465
 1488TIP3   OH2 4427   5.016   1.081   1.748
 1488TIP3    H1 4428   4.988   1.002   1.795
 1488TIP3    H2 4429   5.083   1.050   1.687
 1489TIP3   OH2 4430   1.354   1.193   1.835
 1489TIP3    H1 4431   1.347   1.280   1.876
 1489TIP3    H2 4432   1.325   1.133   1.904
 1490TIP3   OH2 4433   5.702   0.140   2.915
 1490TIP3    H1 4434   5.745   0.219   2.948
 1490TIP3    H2 4435   5.609   0.164   2.908
 1491TIP3   OH2 4436   0.952   3.321   1.853
 1491TIP3    H1 4437   0.996   3.236   1.862
 1491TIP3    H2 4438   0.859   3.301   1.851
 1492TIP3   OH2 4439   2.205   5.939   4.588
 1492TIP3    H1 4440   2.165   6.008   4.535
 1492TIP3    H2 4441   2.157   5.942   4.671
 1493TIP3   OH2 4442   2.086   2.213   0.395
 1493TIP3    H1 4443   2.166   2.237   0.348
 1493TIP3    H2 4444   2.026   2.185   0.325
 1494TIP3   OH2 4445   1.814   1.615   2.065
 1494TIP3    H1 4446   1.835   1.708   2.061
 1494TIP3    H2 4447   1.784   1.594   1.976
 1495TIP3   OH2 4448   3.111   6.135   4.751
 1495TIP3    H1 4449   3.177   6.128   4.820
 1495TIP3    H2 4450   3.145   6.203   4.692
 1496TIP3   OH2 4451   3.143   4.928   3.044
 1496TIP3    H1 4452   3.217   4.876   3.012
 1496TIP3    H2 4453   3.085   4.936   2.968
 1497TIP3   OH2 4454   6.887   4.026   1.093
 1497TIP3    H1 4455   6.817   3.960   1.091
 1497TIP3    H2 4456   6.870   4.081   1.017
 1498TIP3   OH2 4457   5.672   3.104   4.336
 1498TIP3    H1 4458   5.622   3.023   4.320
 1498TIP3    H2 4459   5.763   3.076   4.335
 1499TIP3   OH2 4460   4.787   2.394   2.826
 1499TIP3    H1 4461   4.857   2.459   2.821
 1499TIP3    H2 4462   4.777   2.376   2.919
 1500TIP3   OH2 4463   4.596   5.771   5.289
 1500TIP3    H1 4464   4.660   5.722   5.237
 1500TIP3    H2 4465   4.516   5.769   5.236
 1501TIP3   OH2 4466   6.595   4.468   2.495
 1501TIP3    H1 4467   6.603   4.558   2.465
 1501TIP3    H2 4468   6.506   4.442   2.468
 1502TIP3   OH2 4469   6.310   3.860  -0.022
 1502TIP3    H1 4470   6.274   3.907   0.052
 1502TIP3    H2 4471   6.397   3.831   0.007
 1503TIP3   OH2 4472   1.000   0.319   3.231
 1503TIP3    H1 4473   0.966   0.381   3.294
 1503TIP3    H2 4474   0.964   0.347   3.147
 1504TIP3   OH2 4475   3.108   3.574   1.524
 1504TIP3    H1 4476   3.068   3.571   1.438
 1504TIP3    H2 4477   3.169   3.500   1.525
 1505TIP3   OH2 4478   4.154   6.164   1.190
 1505TIP3    H1 4479   4.124   6.096   1.251
 1505TIP3    H2 4480   4.079   6.178   1.132
 1506TIP3   OH2 4481   4.189   1.870   3.483
 1506TIP3    H1 4482   4.158   1.821   3.559
 1506TIP3    H2 4483   4.196   1.960   3.514
 1507TIP3   OH2 4484   1.675   5.630   4.074
 1507TIP3    H1 4485   1.667   5.682   3.994
 1507TIP3    H2 4486   1.767   5.606   4.078
 1508TIP3   OH2 4487   2.756   4.068   4.069
 1508TIP3    H1 4488   2.724   4.155   4.044
 1508TIP3    H2 4489   2.818   4.044   3.999
 1509TIP3   OH2 4490   4.261   3.642   4.709
 1509TIP3    H1 4491   4.301   3.573   4.657
 1509TIP3    H2 4492   4.328   3.666   4.773
 1510TIP3   OH2 4493   0.113   5.730   1.175
 1510TIP3    H1 4494   0.154   5.769   1.098
 1510TIP3    H2 4495   0.177   5.741   1.245
 1511TIP3   OH2 4496   1.963   5.699   0.568
 1511TIP3    H1 4497   1.952   5.777   0.515
 1511TIP3    H2 4498   1.941   5.726   0.657
 1512TIP3   OH2 4499   3.252   0.221   1.743
 1512TIP3    H1 4500   3.298   0.148   1.783
 1512TIP3    H2 4501   3.223   0.187   1.658
 1513TIP3   OH2 4502   2.917   0.441   5.815
 1513TIP3    H1 4503   2.939   0.350   5.835
 1513TIP3    H2 4504   2.902   0.481   5.901
 1514TIP3   OH2 4505   4.748   2.957   4.092
 1514TIP3    H1 4506   4.766   2.863   4.090
 1514TIP3    H2 4507   4.674   2.966   4.152
 1515TIP3   OH2 4508   5.477   1.434   5.591
 1515TIP3    H1 4509   5.559   1.391   5.569
 1515TIP3    H2 4510   5.485   1.522   5.553
 1516TIP3   OH2 4511   0.725   0.379   0.644
 1516TIP3    H1 4512   0.723   0.462   0.692
 1516TIP3    H2 4513   0.727   0.312   0.713
 1517TIP3   OH2 4514   1.283   4.982   4.413
 1517TIP3    H1 4515   1.190   5.004   4.408
 1517TIP3    H2 4516   1.289   4.893   4.379
 1518TIP3   OH2 4517   2.924   4.363   4.616
 1518TIP3    H1 4518   2.859   4.293   4.626
 1518TIP3    H2 4519   2.938   4.368   4.521
 1519TIP3   OH2 4520   3.520   5.346   1.566
 1519TIP3    H1 4521   3.436   5.346   1.519
 1519TIP3    H2 4522   3.540   5.254   1.579
 1520TIP3   OH2 4523   6.751   0.020   3.722
 1520TIP3    H1 4524   6.693   0.076   3.773
 1520TIP3    H2 4525   6.765  -0.057   3.776
 1521TIP3   OH2 4526   6.687   3.164   2.072
 1521TIP3    H1 4527   6.731   3.124   2.147
 1521TIP3    H2 4528   6.666   3.252   2.101
 1522TIP3   OH2 4529   6.898   5.983   1.581
 1522TIP3    H1 4530   6.847   5.962   1.503
 1522TIP3    H2 4531   6.903   5.901   1.630
 1523TIP3   OH2 4532   5.299   0.843   4.077
 1523TIP3    H1 4533   5.296   0.938   4.071
 1523TIP3    H2 4534   5.377   0.825   4.130
 1524TIP3   OH2 4535   6.090   4.695   5.068
 1524TIP3    H1 4536   6.075   4.610   5.109
 1524TIP3    H2 4537   6.073   4.680   4.975
 1525TIP3   OH2 4538   4.777   0.831   1.333
 1525TIP3    H1 4539   4.864   0.868   1.346
 1525TIP3    H2 4540   4.777   0.752   1.387
 1526TIP3   OH2 4541   5.364   0.416   3.235
 1526TIP3    H1 4542   5.273   0.417   3.206
 1526TIP3    H2 4543   5.360   0.397   3.329
 1527TIP3   OH2 4544   4.719   2.353   3.089
 1527TIP3    H1 4545   4.690   2.375   3.177
 1527TIP3    H2 4546   4.673   2.271   3.068
 1528TIP3   OH2 4547   0.839   3.739   2.806
 1528TIP3    H1 4548   0.885   3.783   2.878
 1528TIP3    H2 4549   0.749   3.769   2.814
 1529TIP3   OH2 4550   3.943   4.687   4.932
 1529TIP3    H1 4551   3.953   4.757   4.996
 1529TIP3    H2 4552   3.875   4.719   4.872
 1530TIP3   OH2 4553   5.631   0.033   0.116
 1530TIP3    H1 4554   5.653   0.110   0.064
 1530TIP3    H2 4555   5.537   0.040   0.131
 1531TIP3   OH2 4556   5.185   1.838   3.785
 1531TIP3    H1 4557   5.170   1.859   3.693
 1531TIP3    H2 4558   5.184   1.742   3.788
 1532TIP3   OH2 4559   0.092   4.740   2.283
 1532TIP3    H1 4560   0.068   4.667   2.226
 1532TIP3    H2 4561   0.118   4.810   2.223
 1533TIP3   OH2 4562   2.365   0.283   3.690
 1533TIP3    H1 4563   2.447   0.254   3.650
 1533TIP3    H2 4564   2.371   0.254   3.781
 1534TIP3   OH2 4565   3.936   4.006   5.269
 1534TIP3    H1 4566   3.856   4.047   5.304
 1534TIP3    H2 4567   3.992   3.994   5.345
 1535TIP3   OH2 4568   1.507   4.275   3.408
 1535TIP3    H1 4569   1.469   4.320   3.484
 1535TIP3    H2 4570   1.472   4.322   3.332
 1536TIP3   OH2 4571   6.393   3.692   1.550
 1536TIP3    H1 4572   6.360   3.701   1.639
 1536TIP3    H2 4573   6.488   3.695   1.558
 1537TIP3   OH2 4574   4.126   6.142   3.503
 1537TIP3    H1 4575   4.198   6.129   3.440
 1537TIP3    H2 4576   4.055   6.087   3.469
 1538TIP3   OH2 4577   0.121   0.902   2.662
 1538TIP3    H1 4578   0.075   0.952   2.730
 1538TIP3    H2 4579   0.213   0.906   2.687
 1539TIP3   OH2 4580   4.735   0.224   3.838
 1539TIP3    H1 4581   4.790   0.168   3.784
 1539TIP3    H2 4582   4.682   0.273   3.775
 1540TIP3   OH2 4583   5.085   1.595   3.865
 1540TIP3    H1 4584   5.040   1.530   3.811
 1540TIP3    H2 4585   5.017   1.627   3.925
 1541TIP3   OH2 4586   7.130   2.100   2.466
 1541TIP3    H1 4587   7.140   2.176   2.523
 1541TIP3    H2 4588   7.213   2.094   2.418
 1542TIP3   OH2 4589   6.084   5.073   5.580
 1542TIP3    H1 4590   6.064   5.162   5.610
 1542TIP3    H2 4591   6.156   5.084   5.518
 1543TIP3   OH2 4592   1.987   2.386   1.394
 1543TIP3    H1 4593   1.962   2.473   1.362
 1543TIP3    H2 4594   1.995   2.397   1.489
 1544TIP3   OH2 4595   5.322   0.501   2.406
 1544TIP3    H1 4596   5.307   0.407   2.397
 1544TIP3    H2 4597   5.235   0.538   2.421
 1545TIP3   OH2 4598   1.592   4.795   4.416
 1545TIP3    H1 4599   1.576   4.830   4.504
 1545TIP3    H2 4600   1.504   4.787   4.378
 1546TIP3   OH2 4601   3.734   0.595   2.245
 1546TIP3    H1 4602   3.727   0.512   2.294
 1546TIP3    H2 4603   3.810   0.583   2.188
 1547TIP3   OH2 4604   5.452   3.244   3.322
 1547TIP3    H1 4605   5.358   3.244   3.307
 1547TIP3    H2 4606   5.490   3.226   3.236
 1548TIP3   OH2 4607   4.524   1.982   5.505
 1548TIP3    H1 4608   4.440   2.012   5.538
 1548TIP3    H2 4609   4.550   1.912   5.565
 1549TIP3   OH2 4610   0.673   4.628   3.686
 1549TIP3    H1 4611   0.723   4.637   3.606
 1549TIP3    H2 4612   0.738   4.610   3.754
 1550TIP3   OH2 4613   3.668   6.214   3.530
 1550TIP3    H1 4614   3.687   6.124   3.557
 1550TIP3    H2 4615   3.574   6.225   3.548
 1551TIP3   OH2 4616   0.729   2.791   0.158
 1551TIP3    H1 4617   0.689   2.746   0.084
 1551TIP3    H2 4618   0.798   2.845   0.119
 1552TIP3   OH2 4619   0.351   0.217   3.261
 1552TIP3    H1 4620   0.327   0.188   3.349
 1552TIP3    H2 4621   0.422   0.158   3.235
 1553TIP3   OH2 4622   2.019  -0.030   4.127
 1553TIP3    H1 4623   1.958   0.039   4.100
 1553TIP3    H2 4624   2.054   0.000   4.211
 1554TIP3   OH2 4625   3.487   1.940   4.585
 1554TIP3    H1 4626   3.579   1.961   4.600
 1554TIP3    H2 4627   3.442   1.977   4.662
 1555TIP3   OH2 4628   5.421   0.345   1.632
 1555TIP3    H1 4629   5.516   0.348   1.645
 1555TIP3    H2 4630   5.397   0.436   1.610
 1556TIP3   OH2 4631   6.040   3.611   1.660
 1556TIP3    H1 4632   6.080   3.693   1.692
 1556TIP3    H2 4633   6.006   3.569   1.739
 1557TIP3   OH2 4634   5.164   4.889   5.407
 1557TIP3    H1 4635   5.223   4.867   5.479
 1557TIP3    H2 4636   5.154   4.984   5.412
 1558TIP3   OH2 4637   2.285   1.755   1.051
 1558TIP3    H1 4638   2.194   1.783   1.041
 1558TIP3    H2 4639   2.301   1.759   1.146
 1559TIP3   OH2 4640   7.157   1.603   1.026
 1559TIP3    H1 4641   7.187   1.671   0.966
 1559TIP3    H2 4642   7.151   1.524   0.973
 1560TIP3   OH2 4643   2.831   0.255   4.744
 1560TIP3    H1 4644   2.812   0.195   4.671
 1560TIP3    H2 4645   2.806   0.207   4.822
 1561TIP3   OH2 4646   0.441   2.931   1.736
 1561TIP3    H1 4647   0.504   2.867   1.701
 1561TIP3    H2 4648   0.433   2.996   1.666
 1562TIP3   OH2 4649   6.730   2.315   0.508
 1562TIP3    H1 4650   6.725   2.336   0.602
 1562TIP3    H2 4651   6.678   2.384   0.466
 1563TIP3   OH2 4652   4.835   4.524   4.681
 1563TIP3    H1 4653   4.831   4.537   4.586
 1563TIP3    H2 4654   4.858   4.431   4.691
 1564TIP3   OH2 4655   5.564   5.741   2.009
 1564TIP3    H1 4656   5.618   5.798   1.955
 1564TIP3    H2 4657   5.474   5.766   1.988
 1565TIP3   OH2 4658   0.153   3.001   3.506
 1565TIP3    H1 4659   0.225   3.003   3.443
 1565TIP3    H2 4660   0.081   3.046   3.462
 1566TIP3   OH2 4661   5.993   4.957   4.675
 1566TIP3    H1 4662   5.928   4.907   4.724
 1566TIP3    H2 4663   6.023   4.896   4.607
 1567TIP3   OH2 4664   2.183   0.385   2.734
 1567TIP3    H1 4665   2.204   0.472   2.767
 1567TIP3    H2 4666   2.099   0.363   2.774
 1568TIP3   OH2 4667   6.952   4.540   0.796
 1568TIP3    H1 4668   7.035   4.528   0.749
 1568TIP3    H2 4669   6.933   4.634   0.785
 1569TIP3   OH2 4670   0.439   6.245   2.006
 1569TIP3    H1 4671   0.442   6.170   2.065
 1569TIP3    H2 4672   0.385   6.217   1.933
 1570TIP3   OH2 4673   0.900   1.733   2.088
 1570TIP3    H1 4674   0.970   1.793   2.062
 1570TIP3    H2 4675   0.819   1.783   2.073
 1571TIP3   OH2 4676   0.359   2.200   4.999
 1571TIP3    H1 4677   0.406   2.126   4.960
 1571TIP3    H2 4678   0.319   2.164   5.078
 1572TIP3   OH2 4679   1.558   1.585   3.666
 1572TIP3    H1 4680   1.498   1.518   3.634
 1572TIP3    H2 4681   1.569   1.645   3.593
 1573TIP3   OH2 4682   3.239   1.342   5.517
 1573TIP3    H1 4683   3.224   1.396   5.595
 1573TIP3    H2 4684   3.275   1.260   5.551
 1574TIP3   OH2 4685   2.995   4.753   4.856
 1574TIP3    H1 4686   2.940   4.760   4.778
 1574TIP3    H2 4687   3.049   4.675   4.840
 1575TIP3   OH2 4688   3.945   6.771   4.864
 1575TIP3    H1 4689   4.039   6.771   4.847
 1575TIP3    H2 4690   3.905   6.753   4.779
 1576TIP3   OH2 4691   4.236   0.607   0.522
 1576TIP3    H1 4692   4.189   0.652   0.593
 1576TIP3    H2 4693   4.197   0.643   0.442
 1577TIP3   OH2 4694   0.115   0.546   4.763
 1577TIP3    H1 4695   0.140   0.455   4.780
 1577TIP3    H2 4696   0.085   0.546   4.672
 1578TIP3   OH2 4697   3.746   1.197   1.563
 1578TIP3    H1 4698   3.820   1.176   1.505
 1578TIP3    H2 4699   3.681   1.237   1.505
 1579TIP3   OH2 4700   4.378   3.507   2.554
 1579TIP3    H1 4701   4.445   3.451   2.514
 1579TIP3    H2 4702   4.333   3.547   2.479
 1580TIP3   OH2 4703   6.212   1.309   5.386
 1580TIP3    H1 4704   6.294   1.261   5.374
 1580TIP3    H2 4705   6.229   1.394   5.345
 1581TIP3   OH2 4706   1.190   0.357   5.400
 1581TIP3    H1 4707   1.135   0.435   5.413
 1581TIP3    H2 4708   1.209   0.327   5.489
 1582TIP3   OH2 4709   5.002   3.723   2.922
 1582TIP3    H1 4710   5.021   3.779   2.847
 1582TIP3    H2 4711   4.910   3.699   2.912
 1583TIP3   OH2 4712   1.331   0.057   4.498
 1583TIP3    H1 4713   1.297   0.123   4.438
 1583TIP3    H2 4714   1.336   0.102   4.583
 1584TIP3   OH2 4715   2.535   4.722   5.519
 1584TIP3    H1 4716   2.577   4.785   5.460
 1584TIP3    H2 4717   2.530   4.768   5.603
 1585TIP3   OH2 4718   1.409   1.649   4.951
 1585TIP3    H1 4719   1.351   1.606   5.014
 1585TIP3    H2 4720   1.429   1.734   4.991
 1586TIP3   OH2 4721   5.711   2.742   5.404
 1586TIP3    H1 4722   5.767   2.818   5.389
 1586TIP3    H2 4723   5.624   2.771   5.375
 1587TIP3   OH2 4724   0.684   3.498   3.935
 1587TIP3    H1 4725   0.745   3.558   3.892
 1587TIP3    H2 4726   0.669   3.536   4.022
 1588TIP3   OH2 4727   6.096   1.142   2.066
 1588TIP3    H1 4728   6.045   1.208   2.019
 1588TIP3    H2 4729   6.081   1.061   2.018
 1589TIP3   OH2 4730   3.855   4.374   3.242
 1589TIP3    H1 4731   3.814   4.311   3.302
 1589TIP3    H2 4732   3.811   4.457   3.261
 1590TIP3   OH2 4733   1.707   6.380   1.191
 1590TIP3    H1 4734   1.718   6.345   1.103
 1590TIP3    H2 4735   1.699   6.303   1.247
 1591TIP3   OH2 4736   6.260   6.774   1.875
 1591TIP3    H1 4737   6.199   6.815   1.813
 1591TIP3    H2 4738   6.287   6.693   1.832
 1592TIP3   OH2 4739   6.773   1.512   2.578
 1592TIP3    H1 4740   6.711   1.555   2.519
 1592TIP3    H2 4741   6.808   1.439   2.527
 1593TIP3   OH2 4742   0.723   6.440   4.013
 1593TIP3    H1 4743   0.628   6.442   4.021
 1593TIP3    H2 4744   0.755   6.423   4.102
 1594TIP3   OH2 4745   3.212   1.160   2.441
 1594TIP3    H1 4746   3.171   1.207   2.368
 1594TIP3    H2 4747   3.255   1.085   2.400
 1595TIP3   OH2 4748   1.966   2.009   4.553
 1595TIP3    H1 4749   2.032   2.078   4.545
 1595TIP3    H2 4750   2.007   1.943   4.610
 1596TIP3   OH2 4751   4.880   6.075   1.481
 1596TIP3    H1 4752   4.913   6.164   1.472
 1596TIP3    H2 4753   4.938   6.034   1.546
 1597TIP3   OH2 4754   2.577   5.946   1.166
 1597TIP3    H1 4755   2.583   6.037   1.195
 1597TIP3    H2 4756   2.667   5.920   1.148
 1598TIP3   OH2 4757   0.195   5.150   1.553
 1598TIP3    H1 4758   0.210   5.210   1.480
 1598TIP3    H2 4759   0.279   5.147   1.599
 1599TIP3   OH2 4760   5.979   3.230   5.248
 1599TIP3    H1 4761   6.062   3.276   5.260
 1599TIP3    H2 4762   5.913   3.299   5.238
 1600TIP3   OH2 4763   4.082   0.338   5.500
 1600TIP3    H1 4764   4.163   0.389   5.502
 1600TIP3    H2 4765   4.062   0.330   5.407
 1601TIP3   OH2 4766   4.181   3.358   5.351
 1601TIP3    H1 4767   4.142   3.271   5.349
 1601TIP3    H2 4768   4.236   3.362   5.273
 1602TIP3   OH2 4769   6.106   1.533   2.878
 1602TIP3    H1 4770   6.135   1.450   2.916
 1602TIP3    H2 4771   6.020   1.513   2.840
 1603TIP3   OH2 4772   0.925   6.458   3.381
 1603TIP3    H1 4773   0.893   6.369   3.364
 1603TIP3    H2 4774   0.983   6.478   3.308
 1604TIP3   OH2 4775   5.771   2.151   1.560
 1604TIP3    H1 4776   5.812   2.097   1.492
 1604TIP3    H2 4777   5.683   2.168   1.526
 1605TIP3   OH2 4778   4.457   6.613   3.858
 1605TIP3    H1 4779   4.457   6.519   3.878
 1605TIP3    H2 4780   4.530   6.649   3.908
 1606TIP3   OH2 4781   1.078   3.570   4.911
 1606TIP3    H1 4782   1.079   3.663   4.888
 1606TIP3    H2 4783   1.001   3.534   4.867
 1607TIP3   OH2 4784   2.883   6.472   4.213
 1607TIP3    H1 4785   2.908   6.392   4.259
 1607TIP3    H2 4786   2.803   6.449   4.166
 1608TIP3   OH2 4787   3.303   1.085   5.470
 1608TIP3    H1 4788   3.330   1.135   5.393
 1608TIP3    H2 4789   3.383   1.072   5.520
 1609TIP3   OH2 4790   6.093   3.496   5.098
 1609TIP3    H1 4791   6.156   3.480   5.027
 1609TIP3    H2 4792   6.147   3.527   5.171
 1610TIP3   OH2 4793   3.355   4.542   3.433
 1610TIP3    H1 4794   3.427   4.527   3.371
 1610TIP3    H2 4795   3.276   4.514   3.386
 1611TIP3   OH2 4796   3.339   3.159   0.443
 1611TIP3    H1 4797   3.314   3.217   0.371
 1611TIP3    H2 4798   3.270   3.093   0.447
 1612TIP3   OH2 4799   3.953   0.341   2.130
 1612TIP3    H1 4800   3.906   0.329   2.213
 1612TIP3    H2 4801   3.914   0.277   2.071
 1613TIP3   OH2 4802   1.190   3.419   2.189
 1613TIP3    H1 4803   1.256   3.351   2.174
 1613TIP3    H2 4804   1.111   3.387   2.145
 1614TIP3   OH2 4805   4.569   1.336   3.738
 1614TIP3    H1 4806   4.637   1.315   3.802
 1614TIP3    H2 4807   4.616   1.380   3.667
 1615TIP3   OH2 4808   4.662   4.181   1.674
 1615TIP3    H1 4809   4.641   4.269   1.707
 1615TIP3    H2 4810   4.578   4.143   1.651
 1616TIP3   OH2 4811   5.524   3.269   1.205
 1616TIP3    H1 4812   5.504   3.349   1.254
 1616TIP3    H2 4813   5.512   3.293   1.113
 1617TIP3   OH2 4814   5.431   6.355   0.655
 1617TIP3    H1 4815   5.355   6.375   0.601
 1617TIP3    H2 4816   5.441   6.431   0.713
 1618TIP3   OH2 4817   1.863   2.539   3.562
 1618TIP3    H1 4818   1.897   2.454   3.591
 1618TIP3    H2 4819   1.915   2.561   3.485
 1619TIP3   OH2 4820   0.186   2.673   5.594
 1619TIP3    H1 4821   0.243   2.674   5.671
 1619TIP3    H2 4822   0.193   2.761   5.558
 1620TIP3   OH2 4823   2.144   5.825   0.851
 1620TIP3    H1 4824   2.192   5.863   0.925
 1620TIP3    H2 4825   2.053   5.821   0.880
 1621TIP3   OH2 4826   3.603   6.566   0.051
 1621TIP3    H1 4827   3.632   6.507   0.121
 1621TIP3    H2 4828   3.677   6.569  -0.010
 1622TIP3   OH2 4829   6.175   3.642   4.681
 1622TIP3    H1 4830   6.087   3.644   4.644
 1622TIP3    H2 4831   6.233   3.649   4.605
 1623TIP3   OH2 4832   4.147   3.000   3.985
 1623TIP3    H1 4833   4.112   2.999   3.896
 1623TIP3    H2 4834   4.074   3.026   4.040
 1624TIP3   OH2 4835   2.064  -0.007   5.391
 1624TIP3    H1 4836   1.988  -0.065   5.399
 1624TIP3    H2 4837   2.094  -0.019   5.301
 1625TIP3   OH2 4838   7.113   1.118   2.475
 1625TIP3    H1 4839   7.177   1.128   2.546
 1625TIP3    H2 4840   7.157   1.062   2.411
 1626TIP3   OH2 4841   0.470   0.046   1.086
 1626TIP3    H1 4842   0.548   0.001   1.119
 1626TIP3    H2 4843   0.399   0.017   1.144
 1627TIP3   OH2 4844   2.460   0.518   1.714
 1627TIP3    H1 4845   2.386   0.561   1.755
 1627TIP3    H2 4846   2.535   0.575   1.733
 1628TIP3   OH2 4847   2.079   1.431   2.310
 1628TIP3    H1 4848   2.143   1.372   2.349
 1628TIP3    H2 4849   2.071   1.402   2.219
 1629TIP3   OH2 4850   7.017   0.758   4.391
 1629TIP3    H1 4851   6.924   0.780   4.386
 1629TIP3    H2 4852   7.061   0.842   4.401
 1630TIP3   OH2 4853   6.213   5.909   4.044
 1630TIP3    H1 4854   6.242   5.824   4.011
 1630TIP3    H2 4855   6.153   5.941   3.976
 1631TIP3   OH2 4856   0.261   1.915   5.540
 1631TIP3    H1 4857   0.251   1.994   5.487
 1631TIP3    H2 4858   0.314   1.942   5.615
 1632TIP3   OH2 4859   6.515   0.896   5.227
 1632TIP3    H1 4860   6.582   0.839   5.265
 1632TIP3    H2 4861   6.440   0.839   5.213
 1633TIP3   OH2 4862   4.610   4.807   0.034
 1633TIP3    H1 4863   4.643   4.802  -0.056
 1633TIP3    H2 4864   4.629   4.896   0.062
 1634TIP3   OH2 4865   4.587   0.316   1.275
 1634TIP3    H1 4866   4.631   0.335   1.191
 1634TIP3    H2 4867   4.545   0.231   1.261
 1635TIP3   OH2 4868   1.684   3.028   3.641
 1635TIP3    H1 4869   1.677   2.975   3.721
 1635TIP3    H2 4870   1.596   3.063   3.628
 1636TIP3   OH2 4871   1.747   1.370   5.556
 1636TIP3    H1 4872   1.777   1.450   5.512
 1636TIP3    H2 4873   1.813   1.305   5.534
 1637TIP3   OH2 4874   3.024   6.647   0.770
 1637TIP3    H1 4875   3.098   6.697   0.804
 1637TIP3    H2 4876   2.996   6.593   0.845
 1638TIP3   OH2 4877   4.695   3.775   2.983
 1638TIP3    H1 4878   4.698   3.690   3.025
 1638TIP3    H2 4879   4.688   3.756   2.889
 1639TIP3   OH2 4880   5.481   2.804   1.037
 1639TIP3    H1 4881   5.411   2.850   0.990
 1639TIP3    H2 4882   5.509   2.866   1.104
 1640TIP3   OH2 4883   0.554   0.968   0.862
 1640TIP3    H1 4884   0.586   1.008   0.943
 1640TIP3    H2 4885   0.631   0.925   0.824
 1641TIP3   OH2 4886   3.261   3.867   3.177
 1641TIP3    H1 4887   3.251   3.779   3.140
 1641TIP3    H2 4888   3.172   3.896   3.197
 1642TIP3   OH2 4889   2.094   2.727   0.729
 1642TIP3    H1 4890   2.186   2.701   0.740
 1642TIP3    H2 4891   2.092   2.820   0.754
 1643TIP3   OH2 4892   1.432   3.361   4.618
 1643TIP3    H1 4893   1.453   3.284   4.671
 1643TIP3    H2 4894   1.381   3.327   4.545
 1644TIP3   OH2 4895   0.635   0.125   3.426
 1644TIP3    H1 4896   0.597   0.070   3.358
 1644TIP3    H2 4897   0.726   0.096   3.433
 1645TIP3   OH2 4898   4.198   2.082   0.685
 1645TIP3    H1 4899   4.231   1.994   0.669
 1645TIP3    H2 4900   4.104   2.075   0.669
 1646TIP3   OH2 4901   1.752   3.358   3.125
 1646TIP3    H1 4902   1.730   3.325   3.212
 1646TIP3    H2 4903   1.848   3.358   3.124
 1647TIP3   OH2 4904   2.820   1.425   1.326
 1647TIP3    H1 4905   2.837   1.359   1.393
 1647TIP3    H2 4906   2.725   1.425   1.315
 1648TIP3   OH2 4907   3.356   3.816   1.506
 1648TIP3    H1 4908   3.279   3.760   1.503
 1648TIP3    H2 4909   3.428   3.756   1.528
 1649TIP3   OH2 4910   0.504   6.494   4.539
 1649TIP3    H1 4911   0.597   6.495   4.559
 1649TIP3    H2 4912   0.475   6.406   4.562
 1650TIP3   OH2 4913   4.278   6.492   2.952
 1650TIP3    H1 4914   4.287   6.462   2.861
 1650TIP3    H2 4915   4.354   6.456   2.997
 1651TIP3   OH2 4916   4.974   1.316   4.472
 1651TIP3    H1 4917   5.061   1.284   4.446
 1651TIP3    H2 4918   4.980   1.329   4.567
 1652TIP3   OH2 4919   2.582   0.631   2.847
 1652TIP3    H1 4920   2.676   0.635   2.865
 1652TIP3    H2 4921   2.542   0.615   2.932
 1653TIP3   OH2 4922   0.665   2.715   3.960
 1653TIP3    H1 4923   0.732   2.691   3.895
 1653TIP3    H2 4924   0.646   2.807   3.942
 1654TIP3   OH2 4925   1.857   0.225   1.440
 1654TIP3    H1 4926   1.882   0.244   1.350
 1654TIP3    H2 4927   1.924   0.269   1.493
 1655TIP3   OH2 4928   7.052   2.505   5.904
 1655TIP3    H1 4929   7.073   2.598   5.907
 1655TIP3    H2 4930   7.104   2.471   5.831
 1656TIP3   OH2 4931   3.580   5.281   1.266
 1656TIP3    H1 4932   3.514   5.339   1.228
 1656TIP3    H2 4933   3.644   5.341   1.305
 1657TIP3   OH2 4934   5.961   5.163   2.410
 1657TIP3    H1 4935   5.995   5.209   2.486
 1657TIP3    H2 4936   6.023   5.182   2.340
 1658TIP3   OH2 4937   4.239   4.602   4.156
 1658TIP3    H1 4938   4.263   4.509   4.155
 1658TIP3    H2 4939   4.184   4.613   4.079
 1659TIP3   OH2 4940   5.975   1.159   5.369
 1659TIP3    H1 4941   6.044   1.224   5.387
 1659TIP3    H2 4942   5.937   1.139   5.454
 1660TIP3   OH2 4943   1.020   0.210   0.133
 1660TIP3    H1 4944   1.087   0.271   0.163
 1660TIP3    H2 4945   1.057   0.172   0.053
 1661TIP3   OH2 4946   3.615   4.722   2.793
 1661TIP3    H1 4947   3.599   4.739   2.885
 1661TIP3    H2 4948   3.702   4.758   2.776
 1662TIP3   OH2 4949   1.146   3.079   2.222
 1662TIP3    H1 4950   1.111   3.016   2.159
 1662TIP3    H2 4951   1.192   3.144   2.168
 1663TIP3   OH2 4952   2.122   3.329   5.313
 1663TIP3    H1 4953   2.165   3.288   5.238
 1663TIP3    H2 4954   2.113   3.257   5.376
 1664TIP3   OH2 4955   5.961   5.667   2.732
 1664TIP3    H1 4956   5.933   5.648   2.821
 1664TIP3    H2 4957   6.050   5.631   2.726
 1665TIP3   OH2 4958   5.192   0.329   3.819
 1665TIP3    H1 4959   5.201   0.297   3.908
 1665TIP3    H2 4960   5.166   0.252   3.768
 1666TIP3   OH2 4961   2.621   2.900   0.222
 1666TIP3    H1 4962   2.669   2.925   0.300
 1666TIP3    H2 4963   2.529   2.905   0.247
 1667TIP3   OH2 4964   5.436   2.040   1.276
 1667TIP3    H1 4965   5.415   1.947   1.291
 1667TIP3    H2 4966   5.355   2.078   1.243
 1668TIP3   OH2 4967   3.495   6.730   2.279
 1668TIP3    H1 4968   3.501   6.824   2.266
 1668TIP3    H2 4969   3.540   6.692   2.203
 1669TIP3   OH2 4970   1.522   3.095   1.857
 1669TIP3    H1 4971   1.445   3.048   1.888
 1669TIP3    H2 4972   1.488   3.167   1.805
 1670TIP3   OH2 4973   4.704   5.687   2.830
 1670TIP3    H1 4974   4.720   5.777   2.859
 1670TIP3    H2 4975   4.683   5.696   2.737
 1671TIP3   OH2 4976   0.073   0.391   2.747
 1671TIP3    H1 4977   0.155   0.436   2.724
 1671TIP3    H2 4978   0.064   0.404   2.841
 1672TIP3   OH2 4979   2.923   0.219   1.013
 1672TIP3    H1 4980   3.015   0.221   1.041
 1672TIP3    H2 4981   2.926   0.247   0.921
 1673TIP3   OH2 4982   3.692   6.118   2.752
 1673TIP3    H1 4983   3.716   6.132   2.661
 1673TIP3    H2 4984   3.603   6.082   2.749
 1674TIP3   OH2 4985   6.156   1.337   2.385
 1674TIP3    H1 4986   6.128   1.245   2.385
 1674TIP3    H2 4987   6.084   1.384   2.342
 1675TIP3   OH2 4988   1.391   6.192   1.152
 1675TIP3    H1 4989   1.325   6.132   1.116
 1675TIP3    H2 4990   1.474   6.152   1.128
 1676TIP3   OH2 4991   5.140   1.458   0.696
 1676TIP3    H1 4992   5.063   1.403   0.685
 1676TIP3    H2 4993   5.106   1.539   0.734
 1677TIP3   OH2 4994   2.262   5.670   1.247
 1677TIP3    H1 4995   2.193   5.737   1.245
 1677TIP3    H2 4996   2.223   5.594   1.205
 1678TIP3   OH2 4997   5.195   2.441   3.273
 1678TIP3    H1 4998   5.179   2.496   3.197
 1678TIP3    H2 4999   5.244   2.366   3.239
 1679TIP3   OH2 5000   3.420   4.535   2.688
 1679TIP3    H1 5001   3.492   4.473   2.676
 1679TIP3    H2 5002   3.462   4.618   2.711
 1680TIP3   OH2 5003   4.791   2.621   0.629
 1680TIP3    H1 5004   4.699   2.602   0.612
 1680TIP3    H2 5005   4.837   2.594   0.549
 1681TIP3   OH2 5006   6.821   6.583   0.890
 1681TIP3    H1 5007   6.875   6.516   0.932
 1681TIP3    H2 5008   6.846   6.665   0.933
 1682TIP3   OH2 5009   2.252   3.790   3.164
 1682TIP3    H1 5010   2.182   3.766   3.225
 1682TIP3    H2 5011   2.333   3.766   3.210
 1683TIP3   OH2 5012   7.116   5.111   1.513
 1683TIP3    H1 5013   7.089   5.091   1.602
 1683TIP3    H2 5014   7.210   5.093   1.512
 1684TIP3   OH2 5015   2.152   4.280   1.415
 1684TIP3    H1 5016   2.229   4.335   1.397
 1684TIP3    H2 5017   2.086   4.341   1.447
 1685TIP3   OH2 5018   0.045   3.652   3.741
 1685TIP3    H1 5019   0.090   3.598   3.806
 1685TIP3    H2 5020   0.020   3.731   3.788
 1686TIP3   OH2 5021   2.395   1.547   3.088
 1686TIP3    H1 5022   2.335   1.561   3.161
 1686TIP3    H2 5023   2.355   1.593   3.015
 1687TIP3   OH2 5024   3.841   5.696   0.778
 1687TIP3    H1 5025   3.919   5.746   0.799
 1687TIP3    H2 5026   3.793   5.690   0.860
 1688TIP3   OH2 5027   3.657   4.603   5.462
 1688TIP3    H1 5028   3.711   4.555   5.525
 1688TIP3    H2 5029   3.638   4.685   5.507
 1689TIP3   OH2 5030   2.798   2.418   0.883
 1689TIP3    H1 5031   2.850   2.415   0.963
 1689TIP3    H2 5032   2.801   2.329   0.849
 1690TIP3   OH2 5033   4.832   5.185   0.976
 1690TIP3    H1 5034   4.916   5.229   0.965
 1690TIP3    H2 5035   4.819   5.137   0.895
 1691TIP3   OH2 5036   1.871   3.038   1.511
 1691TIP3    H1 5037   1.932   3.102   1.473
 1691TIP3    H2 5038   1.883   3.048   1.606
 1692TIP3   OH2 5039   4.256   5.335   2.863
 1692TIP3    H1 5040   4.271   5.403   2.929
 1692TIP3    H2 5041   4.182   5.285   2.898
 1693TIP3   OH2 5042   6.549   0.890   4.691
 1693TIP3    H1 5043   6.639   0.859   4.683
 1693TIP3    H2 5044   6.542   0.918   4.782
 1694TIP3   OH2 5045   3.065   0.240   2.419
 1694TIP3    H1 5046   3.021   0.273   2.341
 1694TIP3    H2 5047   3.089   0.318   2.468
 1695TIP3   OH2 5048   3.655   2.277   0.162
 1695TIP3    H1 5049   3.665   2.349   0.224
 1695TIP3    H2 5050   3.574   2.233   0.189
 1696TIP3   OH2 5051   6.102   5.354   5.242
 1696TIP3    H1 5052   6.014   5.317   5.235
 1696TIP3    H2 5053   6.142   5.338   5.156
 1697TIP3   OH2 5054   4.792   0.693   1.742
 1697TIP3    H1 5055   4.862   0.758   1.756
 1697TIP3    H2 5056   4.768   0.664   1.829
 1698TIP3   OH2 5057   1.442   0.235   2.230
 1698TIP3    H1 5058   1.470   0.150   2.197
 1698TIP3    H2 5059   1.393   0.274   2.158
 1699TIP3   OH2 5060   5.000   3.214   5.599
 1699TIP3    H1 5061   5.065   3.192   5.665
 1699TIP3    H2 5062   5.004   3.143   5.535
 1700TIP3   OH2 5063   6.167   3.366   3.938
 1700TIP3    H1 5064   6.072   3.366   3.945
 1700TIP3    H2 5065   6.192   3.458   3.939
 1701TIP3   OH2 5066   1.016   5.632   2.693
 1701TIP3    H1 5067   1.059   5.692   2.754
 1701TIP3    H2 5068   1.083   5.611   2.628
 1702TIP3   OH2 5069   6.211   0.840   3.068
 1702TIP3    H1 5070   6.156   0.818   2.993
 1702TIP3    H2 5071   6.291   0.789   3.055
 1703TIP3   OH2 5072   0.949   4.989   3.738
 1703TIP3    H1 5073   0.944   4.893   3.733
 1703TIP3    H2 5074   0.940   5.009   3.831
 1704TIP3   OH2 5075   1.128   4.599   4.816
 1704TIP3    H1 5076   1.103   4.612   4.724
 1704TIP3    H2 5077   1.053   4.630   4.866
 1705TIP3   OH2 5078   4.604   1.897   3.157
 1705TIP3    H1 5079   4.686   1.875   3.201
 1705TIP3    H2 5080   4.628   1.962   3.091
 1706TIP3   OH2 5081   4.009   1.142   2.190
 1706TIP3    H1 5082   4.056   1.218   2.223
 1706TIP3    H2 5083   4.037   1.134   2.098
 1707TIP3   OH2 5084   3.281   5.320   0.118
 1707TIP3    H1 5085   3.337   5.244   0.135
 1707TIP3    H2 5086   3.194   5.282   0.104
 1708TIP3   OH2 5087   5.365   4.995   1.238
 1708TIP3    H1 5088   5.304   5.025   1.306
 1708TIP3    H2 5089   5.427   4.938   1.284
 1709TIP3   OH2 5090   0.108   4.327   0.077
 1709TIP3    H1 5091   0.202   4.318   0.061
 1709TIP3    H2 5092   0.073   4.365  -0.003
 1710TIP3   OH2 5093   4.200   4.591   5.122
 1710TIP3    H1 5094   4.285   4.570   5.161
 1710TIP3    H2 5095   4.202   4.548   5.036
 1711TIP3   OH2 5096   6.713   3.822   1.067
 1711TIP3    H1 5097   6.716   3.793   1.159
 1711TIP3    H2 5098   6.622   3.808   1.041
 1712TIP3   OH2 5099   2.395   3.666   1.494
 1712TIP3    H1 5100   2.480   3.647   1.534
 1712TIP3    H2 5101   2.357   3.733   1.550
 1713TIP3   OH2 5102   5.242   2.354   2.724
 1713TIP3    H1 5103   5.307   2.402   2.775
 1713TIP3    H2 5104   5.267   2.369   2.633
 1714TIP3   OH2 5105   3.498   4.208   5.317
 1714TIP3    H1 5106   3.582   4.197   5.362
 1714TIP3    H2 5107   3.434   4.172   5.378
 1715TIP3   OH2 5108   0.471   0.479   2.396
 1715TIP3    H1 5109   0.509   0.564   2.376
 1715TIP3    H2 5110   0.460   0.478   2.491
 1716TIP3   OH2 5111   7.019   0.647   4.787
 1716TIP3    H1 5112   7.021   0.644   4.882
 1716TIP3    H2 5113   7.105   0.614   4.760
 1717TIP3   OH2 5114   5.000   0.430   5.456
 1717TIP3    H1 5115   4.942   0.390   5.520
 1717TIP3    H2 5116   5.087   0.394   5.477
 1718TIP3   OH2 5117   3.583   5.383   5.307
 1718TIP3    H1 5118   3.632   5.304   5.330
 1718TIP3    H2 5119   3.537   5.407   5.388
 1719TIP3   OH2 5120   2.425   0.763   1.185
 1719TIP3    H1 5121   2.460   0.714   1.260
 1719TIP3    H2 5122   2.330   0.750   1.190
 1720TIP3   OH2 5123   3.011   3.379   5.456
 1720TIP3    H1 5124   3.025   3.455   5.399
 1720TIP3    H2 5125   3.052   3.306   5.410
 1721TIP3   OH2 5126   1.025   6.167   2.859
 1721TIP3    H1 5127   1.048   6.074   2.863
 1721TIP3    H2 5128   0.931   6.167   2.841
 1722TIP3   OH2 5129   4.992   4.310   4.855
 1722TIP3    H1 5130   4.950   4.290   4.939
 1722TIP3    H2 5131   5.029   4.227   4.826
 1723TIP3   OH2 5132   2.003   3.002   2.465
 1723TIP3    H1 5133   1.979   3.089   2.495
 1723TIP3    H2 5134   2.045   3.016   2.380
 1724TIP3   OH2 5135   5.406   4.287   4.832
 1724TIP3    H1 5136   5.436   4.220   4.893
 1724TIP3    H2 5137   5.390   4.240   4.751
 1725TIP3   OH2 5138   4.210   1.813   4.731
 1725TIP3    H1 5139   4.161   1.895   4.718
 1725TIP3    H2 5140   4.150   1.757   4.780
 1726TIP3   OH2 5141   0.396   2.710   0.278
 1726TIP3    H1 5142   0.445   2.679   0.201
 1726TIP3    H2 5143   0.396   2.805   0.269
 1727TIP3   OH2 5144   5.528   4.359   3.423
 1727TIP3    H1 5145   5.498   4.365   3.332
 1727TIP3    H2 5146   5.549   4.267   3.435
 1728TIP3   OH2 5147   1.864   5.860   4.416
 1728TIP3    H1 5148   1.917   5.940   4.413
 1728TIP3    H2 5149   1.788   5.883   4.469
 1729TIP3   OH2 5150   5.438   4.443   5.748
 1729TIP3    H1 5151   5.473   4.369   5.698
 1729TIP3    H2 5152   5.509   4.508   5.747
 1730TIP3   OH2 5153   6.803   6.587   1.892
 1730TIP3    H1 5154   6.869   6.550   1.834
 1730TIP3    H2 5155   6.799   6.680   1.869
 1731TIP3   OH2 5156   2.183   2.851   2.621
 1731TIP3    H1 5157   2.237   2.917   2.663
 1731TIP3    H2 5158   2.126   2.900   2.562
 1732TIP3   OH2 5159   0.079   6.541   5.603
 1732TIP3    H1 5160   0.011   6.608   5.590
 1732TIP3    H2 5161   0.154   6.572   5.553
 1733TIP3   OH2 5162   6.332   6.199   5.406
 1733TIP3    H1 5163   6.244   6.238   5.399
 1733TIP3    H2 5164   6.350   6.163   5.320
 1734TIP3   OH2 5165   4.782   5.964   4.290
 1734TIP3    H1 5166   4.838   5.890   4.267
 1734TIP3    H2 5167   4.789   5.971   4.386
 1735TIP3   OH2 5168   3.709   0.084   1.577
 1735TIP3    H1 5169   3.614   0.074   1.574
 1735TIP3    H2 5170   3.742  -0.006   1.587
 1736TIP3   OH2 5171   6.801   6.805   0.176
 1736TIP3    H1 5172   6.788   6.827   0.084
 1736TIP3    H2 5173   6.771   6.715   0.184
 1737TIP3   OH2 5174   3.476   1.658   4.737
 1737TIP3    H1 5175   3.552   1.715   4.729
 1737TIP3    H2 5176   3.507   1.572   4.708
 1738TIP3   OH2 5177   5.664   3.998   3.600
 1738TIP3    H1 5178   5.723   4.072   3.613
 1738TIP3    H2 5179   5.595   4.031   3.543
 1739TIP3   OH2 5180   6.489   5.316   4.751
 1739TIP3    H1 5181   6.497   5.385   4.816
 1739TIP3    H2 5182   6.551   5.340   4.682
 1740TIP3   OH2 5183   2.719   2.978   4.207
 1740TIP3    H1 5184   2.755   3.052   4.256
 1740TIP3    H2 5185   2.635   3.009   4.174
 1741TIP3   OH2 5186   2.321   3.737   0.448
 1741TIP3    H1 5187   2.330   3.819   0.498
 1741TIP3    H2 5188   2.396   3.685   0.475
 1742TIP3   OH2 5189   6.108   2.919   2.135
 1742TIP3    H1 5190   6.186   2.901   2.082
 1742TIP3    H2 5191   6.141   2.973   2.207
 1743TIP3   OH2 5192   5.193   3.813   1.432
 1743TIP3    H1 5193   5.267   3.859   1.392
 1743TIP3    H2 5194   5.122   3.877   1.434
 1744TIP3   OH2 5195   4.488   3.396   1.381
 1744TIP3    H1 5196   4.561   3.336   1.364
 1744TIP3    H2 5197   4.410   3.344   1.364
 1745TIP3   OH2 5198   3.319   4.608   4.543
 1745TIP3    H1 5199   3.308   4.558   4.462
 1745TIP3    H2 5200   3.260   4.566   4.605
 1746TIP3   OH2 5201   2.834   3.136   2.398
 1746TIP3    H1 5202   2.895   3.201   2.364
 1746TIP3    H2 5203   2.834   3.149   2.493
 1747TIP3   OH2 5204   2.992   6.623   2.161
 1747TIP3    H1 5205   3.084   6.622   2.187
 1747TIP3    H2 5206   2.980   6.544   2.109
 1748TIP3   OH2 5207   6.245   3.121   0.210
 1748TIP3    H1 5208   6.259   3.208   0.174
 1748TIP3    H2 5209   6.158   3.096   0.181
 1749TIP3   OH2 5210   0.838   0.351   4.680
 1749TIP3    H1 5211   0.781   0.292   4.629
 1749TIP3    H2 5212   0.827   0.322   4.771
 1750TIP3   OH2 5213   3.080   0.581   4.919
 1750TIP3    H1 5214   3.011   0.637   4.884
 1750TIP3    H2 5215   3.092   0.512   4.853
 1751TIP3   OH2 5216   2.384   5.207   1.584
 1751TIP3    H1 5217   2.459   5.149   1.596
 1751TIP3    H2 5218   2.326   5.185   1.657
 1752TIP3   OH2 5219   0.125   3.170   5.700
 1752TIP3    H1 5220   0.062   3.222   5.652
 1752TIP3    H2 5221   0.142   3.220   5.780
 1753TIP3   OH2 5222   3.103   5.096   3.307
 1753TIP3    H1 5223   3.163   5.056   3.371
 1753TIP3    H2 5224   3.113   5.043   3.228
 1754TIP3   OH2 5225   2.694   6.689   4.349
 1754TIP3    H1 5226   2.720   6.711   4.438
 1754TIP3    H2 5227   2.659   6.600   4.356
 1755TIP3   OH2 5228   1.876   4.631   0.530
 1755TIP3    H1 5229   1.784   4.608   0.548
 1755TIP3    H2 5230   1.925   4.590   0.602
 1756TIP3   OH2 5231   2.428   3.551   5.869
 1756TIP3    H1 5232   2.406   3.557   5.776
 1756TIP3    H2 5233   2.523   3.540   5.871
 1757TIP3   OH2 5234   3.754   2.483   2.190
 1757TIP3    H1 5235   3.715   2.570   2.178
 1757TIP3    H2 5236   3.834   2.485   2.137
 1758TIP3   OH2 5237   2.670   5.505   3.805
 1758TIP3    H1 5238   2.747   5.559   3.823
 1758TIP3    H2 5239   2.638   5.480   3.891
 1759TIP3   OH2 5240   3.886   1.905   3.569
 1759TIP3    H1 5241   3.814   1.859   3.526
 1759TIP3    H2 5242   3.919   1.966   3.502
 1760TIP3   OH2 5243   6.057   1.123   3.431
 1760TIP3    H1 5244   6.080   1.210   3.462
 1760TIP3    H2 5245   6.102   1.116   3.346
 1761TIP3   OH2 5246   2.978   5.751   4.157
 1761TIP3    H1 5247   2.990   5.705   4.240
 1761TIP3    H2 5248   2.938   5.835   4.183
 1762TIP3   OH2 5249   0.202   2.623   1.138
 1762TIP3    H1 5250   0.264   2.557   1.168
 1762TIP3    H2 5251   0.255   2.687   1.091
 1763TIP3   OH2 5252   5.875   6.129   4.683
 1763TIP3    H1 5253   5.839   6.041   4.685
 1763TIP3    H2 5254   5.937   6.128   4.610
 1764TIP3   OH2 5255   5.727   1.708   3.804
 1764TIP3    H1 5256   5.765   1.692   3.890
 1764TIP3    H2 5257   5.800   1.695   3.743
 1765TIP3   OH2 5258   1.236   6.530   1.720
 1765TIP3    H1 5259   1.174   6.519   1.649
 1765TIP3    H2 5260   1.305   6.587   1.684
 1766TIP3   OH2 5261   4.025   0.142   3.433
 1766TIP3    H1 5262   3.961   0.073   3.453
 1766TIP3    H2 5263   3.981   0.224   3.458
 1767TIP3   OH2 5264   4.431   1.689   2.906
 1767TIP3    H1 5265   4.477   1.750   2.847
 1767TIP3    H2 5266   4.341   1.720   2.906
 1768TIP3   OH2 5267   2.466   4.339   1.064
 1768TIP3    H1 5268   2.383   4.355   1.020
 1768TIP3    H2 5269   2.473   4.244   1.070
 1769TIP3   OH2 5270   3.692   5.020   0.502
 1769TIP3    H1 5271   3.774   5.027   0.551
 1769TIP3    H2 5272   3.686   5.101   0.453
 1770TIP3   OH2 5273   4.769   1.318   3.963
 1770TIP3    H1 5274   4.798   1.302   4.053
 1770TIP3    H2 5275   4.835   1.276   3.909
 1771TIP3   OH2 5276   5.899   4.632   1.861
 1771TIP3    H1 5277   5.815   4.656   1.821
 1771TIP3    H2 5278   5.962   4.638   1.789
 1772TIP3   OH2 5279   1.264   5.046   0.783
 1772TIP3    H1 5280   1.176   5.081   0.792
 1772TIP3    H2 5281   1.252   4.957   0.751
 1773TIP3   OH2 5282   0.204   0.617   5.507
 1773TIP3    H1 5283   0.298   0.637   5.512
 1773TIP3    H2 5284   0.180   0.595   5.597
 1774TIP3   OH2 5285   1.026   0.128   4.648
 1774TIP3    H1 5286   0.992   0.098   4.564
 1774TIP3    H2 5287   0.972   0.205   4.669
 1775TIP3   OH2 5288   5.858   2.572   2.518
 1775TIP3    H1 5289   5.951   2.549   2.509
 1775TIP3    H2 5290   5.843   2.574   2.613
 1776TIP3   OH2 5291   0.954   2.048   3.917
 1776TIP3    H1 5292   1.042   2.075   3.892
 1776TIP3    H2 5293   0.962   2.021   4.008
 1777TIP3   OH2 5294   6.630   5.333   2.311
 1777TIP3    H1 5295   6.712   5.380   2.325
 1777TIP3    H2 5296   6.657   5.245   2.286
 1778TIP3   OH2 5297   4.729   0.169   4.822
 1778TIP3    H1 5298   4.786   0.183   4.897
 1778TIP3    H2 5299   4.704   0.257   4.794
 1779TIP3   OH2 5300   3.518   4.055   2.793
 1779TIP3    H1 5301   3.468   4.050   2.711
 1779TIP3    H2 5302   3.491   3.978   2.842
 1780TIP3   OH2 5303   3.412   5.282   4.405
 1780TIP3    H1 5304   3.443   5.319   4.322
 1780TIP3    H2 5305   3.455   5.335   4.472
 1781TIP3   OH2 5306   5.152   5.285   4.479
 1781TIP3    H1 5307   5.093   5.229   4.530
 1781TIP3    H2 5308   5.095   5.354   4.444
 1782TIP3   OH2 5309   6.272   5.551   1.921
 1782TIP3    H1 5310   6.329   5.484   1.884
 1782TIP3    H2 5311   6.324   5.631   1.919
 1783TIP3   OH2 5312   1.634   3.636   2.752
 1783TIP3    H1 5313   1.663   3.548   2.778
 1783TIP3    H2 5314   1.551   3.648   2.798
 1784TIP3   OH2 5315   3.041   5.525   2.913
 1784TIP3    H1 5316   2.954   5.509   2.949
 1784TIP3    H2 5317   3.099   5.523   2.989
 1785TIP3   OH2 5318   4.816   0.446   2.557
 1785TIP3    H1 5319   4.758   0.419   2.486
 1785TIP3    H2 5320   4.891   0.386   2.550
 1786TIP3   OH2 5321   2.473   5.718   2.583
 1786TIP3    H1 5322   2.447   5.664   2.658
 1786TIP3    H2 5323   2.433   5.674   2.507
 1787TIP3   OH2 5324   3.780   5.762   0.383
 1787TIP3    H1 5325   3.772   5.825   0.455
 1787TIP3    H2 5326   3.758   5.813   0.304
 1788TIP3   OH2 5327   0.519   4.837   4.365
 1788TIP3    H1 5328   0.556   4.876   4.286
 1788TIP3    H2 5329   0.426   4.831   4.348
 1789TIP3   OH2 5330   0.226   6.471   3.430
 1789TIP3    H1 5331   0.172   6.454   3.507
 1789TIP3    H2 5332   0.302   6.519   3.463
 1790TIP3   OH2 5333   2.052   4.982   2.912
 1790TIP3    H1 5334   2.021   5.051   2.854
 1790TIP3    H2 5335   2.014   4.902   2.877
 1791TIP3   OH2 5336   2.455   4.177   4.125
 1791TIP3    H1 5337   2.430   4.135   4.043
 1791TIP3    H2 5338   2.548   4.157   4.135
 1792TIP3   OH2 5339   7.016   0.405   5.279
 1792TIP3    H1 5340   7.038   0.350   5.355
 1792TIP3    H2 5341   6.930   0.375   5.251
 1793TIP3   OH2 5342   4.238   1.511   4.095
 1793TIP3    H1 5343   4.184   1.591   4.097
 1793TIP3    H2 5344   4.327   1.542   4.110
 1794TIP3   OH2 5345   5.793   6.449   4.936
 1794TIP3    H1 5346   5.746   6.505   4.875
 1794TIP3    H2 5347   5.724   6.401   4.982
 1795TIP3   OH2 5348   1.020   4.566   3.174
 1795TIP3    H1 5349   1.043   4.497   3.236
 1795TIP3    H2 5350   1.010   4.644   3.229
 1796TIP3   OH2 5351   5.134   4.543   1.919
 1796TIP3    H1 5352   5.167   4.581   2.000
 1796TIP3    H2 5353   5.041   4.567   1.918
 1797TIP3   OH2 5354   2.917   6.127   5.310
 1797TIP3    H1 5355   2.840   6.137   5.365
 1797TIP3    H2 5356   2.886   6.150   5.222
 1798TIP3   OH2 5357   0.866   1.894   5.384
 1798TIP3    H1 5358   0.844   1.820   5.328
 1798TIP3    H2 5359   0.936   1.939   5.338
 1799TIP3   OH2 5360   1.182   5.358   1.455
 1799TIP3    H1 5361   1.140   5.422   1.398
 1799TIP3    H2 5362   1.275   5.381   1.452
 1800TIP3   OH2 5363   3.074   4.014   0.680
 1800TIP3    H1 5364   3.009   4.083   0.688
 1800TIP3    H2 5365   3.102   4.018   0.589
 1801TIP3   OH2 5366   6.680   0.492   0.359
 1801TIP3    H1 5367   6.674   0.582   0.392
 1801TIP3    H2 5368   6.664   0.437   0.435
 1802TIP3   OH2 5369   0.803   3.907   2.168
 1802TIP3    H1 5370   0.737   3.856   2.120
 1802TIP3    H2 5371   0.873   3.844   2.186
 1803TIP3   OH2 5372   1.343   1.395   0.552
 1803TIP3    H1 5373   1.345   1.468   0.613
 1803TIP3    H2 5374   1.418   1.341   0.578
 1804TIP3   OH2 5375   5.771   3.938   4.290
 1804TIP3    H1 5376   5.762   3.847   4.318
 1804TIP3    H2 5377   5.749   3.937   4.197
 1805TIP3   OH2 5378   1.594   2.447   1.450
 1805TIP3    H1 5379   1.631   2.525   1.492
 1805TIP3    H2 5380   1.525   2.480   1.393
 1806TIP3   OH2 5381   5.746   6.297   0.335
 1806TIP3    H1 5382   5.710   6.209   0.343
 1806TIP3    H2 5383   5.676   6.355   0.366
 1807TIP3   OH2 5384   2.989   2.596   3.954
 1807TIP3    H1 5385   2.919   2.659   3.971
 1807TIP3    H2 5386   3.028   2.625   3.871
 1808TIP3   OH2 5387   2.771   4.835   5.018
 1808TIP3    H1 5388   2.858   4.795   5.011
 1808TIP3    H2 5389   2.759   4.849   5.112
 1809TIP3   OH2 5390   0.808   2.880   1.962
 1809TIP3    H1 5391   0.834   2.960   2.007
 1809TIP3    H2 5392   0.807   2.904   1.870
 1810TIP3   OH2 5393   5.095   4.654   0.508
 1810TIP3    H1 5394   5.006   4.677   0.532
 1810TIP3    H2 5395   5.086   4.602   0.428
 1811TIP3   OH2 5396   6.294   2.649   1.018
 1811TIP3    H1 5397   6.231   2.708   1.060
 1811TIP3    H2 5398   6.338   2.704   0.954
 1812TIP3   OH2 5399   2.053   4.449   3.596
 1812TIP3    H1 5400   1.971   4.416   3.635
 1812TIP3    H2 5401   2.060   4.403   3.513
 1813TIP3   OH2 5402   6.419   6.188   1.766
 1813TIP3    H1 5403   6.326   6.187   1.789
 1813TIP3    H2 5404   6.428   6.263   1.707
 1814TIP3   OH2 5405   4.748   2.906   5.259
 1814TIP3    H1 5406   4.729   2.993   5.295
 1814TIP3    H2 5407   4.772   2.923   5.168
 1815TIP3   OH2 5408   5.569   2.926   4.776
 1815TIP3    H1 5409   5.604   2.904   4.689
 1815TIP3    H2 5410   5.502   2.859   4.792
 1816TIP3   OH2 5411   5.323   2.327   3.999
 1816TIP3    H1 5412   5.230   2.304   3.996
 1816TIP3    H2 5413   5.325   2.417   4.030
 1817TIP3   OH2 5414   7.056   5.701   2.580
 1817TIP3    H1 5415   7.052   5.677   2.487
 1817TIP3    H2 5416   7.114   5.636   2.619
 1818TIP3   OH2 5417   1.425   6.654   1.908
 1818TIP3    H1 5418   1.353   6.624   1.852
 1818TIP3    H2 5419   1.502   6.611   1.871
 1819TIP3   OH2 5420   5.486   3.317   3.597
 1819TIP3    H1 5421   5.412   3.285   3.648
 1819TIP3    H2 5422   5.475   3.277   3.511
 1820TIP3   OH2 5423   2.089   5.477   1.147
 1820TIP3    H1 5424   2.046   5.545   1.095
 1820TIP3    H2 5425   2.100   5.404   1.086
 1821TIP3   OH2 5426   7.082   3.888   0.959
 1821TIP3    H1 5427   7.148   3.899   1.027
 1821TIP3    H2 5428   7.005   3.935   0.991
 1822TIP3   OH2 5429   4.788   5.290   1.958
 1822TIP3    H1 5430   4.705   5.336   1.966
 1822TIP3    H2 5431   4.796   5.271   1.864
 1823TIP3   OH2 5432   4.192   4.295   3.542
 1823TIP3    H1 5433   4.195   4.211   3.588
 1823TIP3    H2 5434   4.100   4.321   3.545
 1824TIP3   OH2 5435   6.726   4.627   0.484
 1824TIP3    H1 5436   6.809   4.585   0.462
 1824TIP3    H2 5437   6.713   4.691   0.413
 1825TIP3   OH2 5438   6.504   5.919   1.063
 1825TIP3    H1 5439   6.596   5.903   1.085
 1825TIP3    H2 5440   6.500   5.910   0.968
 1826TIP3   OH2 5441   2.328   2.352   3.985
 1826TIP3    H1 5442   2.262   2.399   4.036
 1826TIP3    H2 5443   2.363   2.286   4.045
 1827TIP3   OH2 5444   0.334   5.021   2.933
 1827TIP3    H1 5445   0.384   4.950   2.893
 1827TIP3    H2 5446   0.377   5.037   3.018
 1828TIP3   OH2 5447   1.540   0.347   3.369
 1828TIP3    H1 5448   1.528   0.256   3.397
 1828TIP3    H2 5449   1.590   0.340   3.288
 1829TIP3   OH2 5450   3.904   2.583   0.034
 1829TIP3    H1 5451   3.896   2.522  -0.039
 1829TIP3    H2 5452   3.826   2.567   0.087
 1830TIP3   OH2 5453   1.071   1.578   4.983
 1830TIP3    H1 5454   1.119   1.496   4.987
 1830TIP3    H2 5455   1.069   1.610   5.073
 1831TIP3   OH2 5456   2.175   0.002   0.978
 1831TIP3    H1 5457   2.227   0.070   0.936
 1831TIP3    H2 5458   2.236  -0.071   0.991
 1832TIP3   OH2 5459   4.710   5.182   2.949
 1832TIP3    H1 5460   4.711   5.140   3.035
 1832TIP3    H2 5461   4.778   5.249   2.954
 1833TIP3   OH2 5462   5.201   0.020   2.644
 1833TIP3    H1 5463   5.202  -0.058   2.588
 1833TIP3    H2 5464   5.118   0.017   2.690
 1834TIP3   OH2 5465   0.906   5.374   3.802
 1834TIP3    H1 5466   0.977   5.425   3.842
 1834TIP3    H2 5467   0.884   5.308   3.868
 1835TIP3   OH2 5468   2.741   2.474   4.134
 1835TIP3    H1 5469   2.748   2.568   4.115
 1835TIP3    H2 5470   2.727   2.433   4.049
 1836TIP3   OH2 5471   4.194   1.632   2.040
 1836TIP3    H1 5472   4.150   1.608   1.958
 1836TIP3    H2 5473   4.276   1.673   2.013
 1837TIP3   OH2 5474   2.141   2.456   0.839
 1837TIP3    H1 5475   2.175   2.545   0.851
 1837TIP3    H2 5476   2.219   2.400   0.842
 1838TIP3   OH2 5477   1.701   0.841   3.740
 1838TIP3    H1 5478   1.632   0.783   3.773
 1838TIP3    H2 5479   1.770   0.836   3.805
 1839TIP3   OH2 5480   4.779   3.138   0.101
 1839TIP3    H1 5481   4.706   3.160   0.159
 1839TIP3    H2 5482   4.754   3.054   0.062
 1840TIP3   OH2 5483   4.126   6.473   4.205
 1840TIP3    H1 5484   4.178   6.413   4.153
 1840TIP3    H2 5485   4.049   6.422   4.230
 1841TIP3   OH2 5486   1.442   4.991   1.419
 1841TIP3    H1 5487   1.441   4.993   1.324
 1841TIP3    H2 5488   1.360   5.033   1.445
 1842TIP3   OH2 5489   1.150   3.468   4.660
 1842TIP3    H1 5490   1.090   3.399   4.691
 1842TIP3    H2 5491   1.145   3.535   4.728
 1843TIP3   OH2 5492   1.653   3.428   4.433
 1843TIP3    H1 5493   1.570   3.396   4.471
 1843TIP3    H2 5494   1.712   3.353   4.439
 1844TIP3   OH2 5495   7.047   0.295   1.027
 1844TIP3    H1 5496   7.056   0.244   0.946
 1844TIP3    H2 5497   6.960   0.272   1.059
 1845TIP3   OH2 5498   1.609   6.202   1.873
 1845TIP3    H1 5499   1.543   6.163   1.816
 1845TIP3    H2 5500   1.587   6.171   1.961
 1846TIP3   OH2 5501   1.804   3.965   5.651
 1846TIP3    H1 5502   1.821   4.056   5.624
 1846TIP3    H2 5503   1.890   3.930   5.672
 1847TIP3   OH2 5504   0.748   2.903   2.853
 1847TIP3    H1 5505   0.660   2.939   2.842
 1847TIP3    H2 5506   0.806   2.979   2.856
 1848TIP3   OH2 5507   4.401   6.500   5.094
 1848TIP3    H1 5508   4.441   6.501   5.008
 1848TIP3    H2 5509   4.473   6.518   5.155
 1849TIP3   OH2 5510   0.766   4.328   1.364
 1849TIP3    H1 5511   0.856   4.339   1.396
 1849TIP3    H2 5512   0.735   4.248   1.406
 1850TIP3   OH2 5513   2.299   1.841   0.087
 1850TIP3    H1 5514   2.274   1.791   0.010
 1850TIP3    H2 5515   2.360   1.907   0.054
 1851TIP3   OH2 5516   6.789   2.465   3.546
 1851TIP3    H1 5517   6.754   2.440   3.461
 1851TIP3    H2 5518   6.879   2.491   3.529
 1852TIP3   OH2 5519   1.579   0.727   5.723
 1852TIP3    H1 5520   1.638   0.702   5.793
 1852TIP3    H2 5521   1.612   0.811   5.691
 1853TIP3   OH2 5522   1.048   6.753   3.124
 1853TIP3    H1 5523   1.137   6.730   3.101
 1853TIP3    H2 5524   1.003   6.767   3.041
 1854TIP3   OH2 5525   3.486   1.791   2.671
 1854TIP3    H1 5526   3.447   1.808   2.757
 1854TIP3    H2 5527   3.413   1.796   2.610
 1855TIP3   OH2 5528   3.743   0.298   5.713
 1855TIP3    H1 5529   3.658   0.274   5.751
 1855TIP3    H2 5530   3.782   0.358   5.776
 1856TIP3   OH2 5531   1.827   0.727   0.011
 1856TIP3    H1 5532   1.904   0.678   0.041
 1856TIP3    H2 5533   1.849   0.753  -0.078
 1857TIP3   OH2 5534   3.937   6.162   2.860
 1857TIP3    H1 5535   3.950   6.247   2.901
 1857TIP3    H2 5536   3.842   6.156   2.848
 1858TIP3   OH2 5537   2.448   4.759   0.862
 1858TIP3    H1 5538   2.435   4.838   0.913
 1858TIP3    H2 5539   2.372   4.753   0.805
 1859TIP3   OH2 5540   6.187   1.345   3.541
 1859TIP3    H1 5541   6.191   1.416   3.477
 1859TIP3    H2 5542   6.272   1.302   3.534
 1860TIP3   OH2 5543   2.948   4.456   1.936
 1860TIP3    H1 5544   2.913   4.391   1.875
 1860TIP3    H2 5545   2.967   4.407   2.016
 1861TIP3   OH2 5546   1.760   2.329   2.102
 1861TIP3    H1 5547   1.708   2.255   2.134
 1861TIP3    H2 5548   1.728   2.404   2.151
 1862TIP3   OH2 5549   6.928   6.583   3.637
 1862TIP3    H1 5550   6.987   6.654   3.663
 1862TIP3    H2 5551   6.871   6.569   3.712
 1863TIP3   OH2 5552   0.444   5.533   1.034
 1863TIP3    H1 5553   0.464   5.598   1.102
 1863TIP3    H2 5554   0.437   5.585   0.954
 1864TIP3   OH2 5555   1.775   5.991   5.025
 1864TIP3    H1 5556   1.749   5.903   5.051
 1864TIP3    H2 5557   1.870   5.992   5.038
 1865TIP3   OH2 5558   0.928   6.380   5.473
 1865TIP3    H1 5559   1.002   6.319   5.475
 1865TIP3    H2 5560   0.961   6.458   5.517
 1866TIP3   OH2 5561   6.388   3.895   2.597
 1866TIP3    H1 5562   6.357   3.824   2.539
 1866TIP3    H2 5563   6.474   3.917   2.563
 1867TIP3   OH2 5564   0.548   4.573   5.720
 1867TIP3    H1 5565   0.499   4.655   5.708
 1867TIP3    H2 5566   0.637   4.594   5.692
 1868TIP3   OH2 5567   3.173   0.408   3.536
 1868TIP3    H1 5568   3.154   0.314   3.539
 1868TIP3    H2 5569   3.106   0.447   3.592
 1869TIP3   OH2 5570   6.994   5.224   0.718
 1869TIP3    H1 5571   7.063   5.264   0.770
 1869TIP3    H2 5572   6.923   5.287   0.719
 1870TIP3   OH2 5573   0.558   2.416   5.085
 1870TIP3    H1 5574   0.611   2.366   5.148
 1870TIP3    H2 5575   0.503   2.350   5.043
 1871TIP3   OH2 5576   3.495   5.903   0.700
 1871TIP3    H1 5577   3.495   5.818   0.745
 1871TIP3    H2 5578   3.443   5.888   0.621
 1872TIP3   OH2 5579   2.658   6.658   2.027
 1872TIP3    H1 5580   2.727   6.639   1.963
 1872TIP3    H2 5581   2.681   6.606   2.104
 1873TIP3   OH2 5582   2.333   5.152   0.682
 1873TIP3    H1 5583   2.285   5.196   0.612
 1873TIP3    H2 5584   2.386   5.221   0.722
 1874TIP3   OH2 5585   1.901   3.895   2.155
 1874TIP3    H1 5586   1.823   3.930   2.112
 1874TIP3    H2 5587   1.882   3.802   2.167
 1875TIP3   OH2 5588   6.638   6.229   3.095
 1875TIP3    H1 5589   6.652   6.236   3.001
 1875TIP3    H2 5590   6.719   6.262   3.134
 1876TIP3   OH2 5591   3.602   0.622   1.135
 1876TIP3    H1 5592   3.605   0.669   1.052
 1876TIP3    H2 5593   3.691   0.588   1.147
 1877TIP3   OH2 5594   5.867   1.747   2.252
 1877TIP3    H1 5595   5.778   1.716   2.238
 1877TIP3    H2 5596   5.860   1.814   2.320
 1878TIP3   OH2 5597   3.726   0.230   3.138
 1878TIP3    H1 5598   3.654   0.283   3.172
 1878TIP3    H2 5599   3.798   0.292   3.127
 1879TIP3   OH2 5600   2.882   1.224   5.171
 1879TIP3    H1 5601   2.790   1.221   5.143
 1879TIP3    H2 5602   2.880   1.271   5.254
 1880TIP3   OH2 5603   1.496   2.719   2.106
 1880TIP3    H1 5604   1.458   2.721   2.193
 1880TIP3    H2 5605   1.438   2.773   2.052
 1881TIP3   OH2 5606   1.938   6.434   3.756
 1881TIP3    H1 5607   2.030   6.443   3.780
 1881TIP3    H2 5608   1.936   6.447   3.661
 1882TIP3   OH2 5609   5.418   2.779   0.088
 1882TIP3    H1 5610   5.358   2.853   0.081
 1882TIP3    H2 5611   5.498   2.816   0.125
 1883TIP3   OH2 5612   4.545   4.414   1.748
 1883TIP3    H1 5613   4.466   4.436   1.699
 1883TIP3    H2 5614   4.522   4.425   1.840
 1884TIP3   OH2 5615   1.274   6.713   5.837
 1884TIP3    H1 5616   1.220   6.758   5.902
 1884TIP3    H2 5617   1.363   6.742   5.856
 1885TIP3   OH2 5618   4.160   4.188   1.918
 1885TIP3    H1 5619   4.202   4.157   1.838
 1885TIP3    H2 5620   4.161   4.111   1.976
 1886TIP3   OH2 5621   1.037   6.042   5.335
 1886TIP3    H1 5622   1.027   5.959   5.288
 1886TIP3    H2 5623   1.123   6.037   5.375
 1887TIP3   OH2 5624   1.996   4.482   5.394
 1887TIP3    H1 5625   2.010   4.559   5.449
 1887TIP3    H2 5626   1.901   4.472   5.391
 1888TIP3   OH2 5627   6.198   0.615   5.613
 1888TIP3    H1 5628   6.293   0.620   5.623
 1888TIP3    H2 5629   6.177   0.524   5.633
 1889TIP3   OH2 5630   0.735   1.295   3.611
 1889TIP3    H1 5631   0.800   1.233   3.644
 1889TIP3    H2 5632   0.783   1.350   3.550
 1890TIP3   OH2 5633   2.832   3.693   0.770
 1890TIP3    H1 5634   2.772   3.668   0.700
 1890TIP3    H2 5635   2.827   3.621   0.833
 1891TIP3   OH2 5636   3.087   0.623   1.974
 1891TIP3    H1 5637   3.086   0.561   1.900
 1891TIP3    H2 5638   3.169   0.605   2.019
 1892TIP3   OH2 5639   2.341   1.922   1.396
 1892TIP3    H1 5640   2.302   2.008   1.409
 1892TIP3    H2 5641   2.401   1.934   1.322
 1893TIP3   OH2 5642   4.059   4.619   5.586
 1893TIP3    H1 5643   4.151   4.600   5.598
 1893TIP3    H2 5644   4.050   4.640   5.493
 1894TIP3   OH2 5645   0.893   6.165   1.177
 1894TIP3    H1 5646   0.930   6.139   1.261
 1894TIP3    H2 5647   0.821   6.103   1.162
 1895TIP3   OH2 5648   0.564   1.712   0.336
 1895TIP3    H1 5649   0.659   1.712   0.338
 1895TIP3    H2 5650   0.541   1.793   0.292
 1896TIP3   OH2 5651   6.674   5.716   0.706
 1896TIP3    H1 5652   6.611   5.685   0.641
 1896TIP3    H2 5653   6.634   5.696   0.791
 1897TIP3   OH2 5654   6.498   5.532   4.912
 1897TIP3    H1 5655   6.405   5.548   4.899
 1897TIP3    H2 5656   6.533   5.617   4.941
 1898TIP3   OH2 5657   5.107   2.538   1.461
 1898TIP3    H1 5658   5.098   2.595   1.385
 1898TIP3    H2 5659   5.035   2.475   1.453
 1899TIP3   OH2 5660   3.498   4.270   2.433
 1899TIP3    H1 5661   3.558   4.260   2.508
 1899TIP3    H2 5662   3.497   4.184   2.392
 1900TIP3   OH2 5663   1.517   1.060   4.775
 1900TIP3    H1 5664   1.598   1.039   4.821
 1900TIP3    H2 5665   1.530   1.149   4.742
 1901TIP3   OH2 5666   4.073   2.595   4.099
 1901TIP3    H1 5667   4.164   2.623   4.084
 1901TIP3    H2 5668   4.057   2.529   4.031
 1902TIP3   OH2 5669   2.629   3.625   1.672
 1902TIP3    H1 5670   2.572   3.552   1.696
 1902TIP3    H2 5671   2.716   3.586   1.666
 1903TIP3   OH2 5672   5.885   4.288   5.519
 1903TIP3    H1 5673   5.889   4.251   5.607
 1903TIP3    H2 5674   5.969   4.334   5.508
 1904TIP3   OH2 5675   1.968   1.953   0.578
 1904TIP3    H1 5676   1.896   2.004   0.539
 1904TIP3    H2 5677   2.025   1.931   0.504
 1905TIP3   OH2 5678   2.325   4.004   3.005
 1905TIP3    H1 5679   2.410   3.977   2.969
 1905TIP3    H2 5680   2.294   3.927   3.053
 1906TIP3   OH2 5681   6.430   2.160   0.114
 1906TIP3    H1 5682   6.361   2.226   0.121
 1906TIP3    H2 5683   6.500   2.204   0.066
 1907TIP3   OH2 5684   2.899   0.040   2.246
 1907TIP3    H1 5685   2.970   0.102   2.231
 1907TIP3    H2 5686   2.920  -0.035   2.190
 1908TIP3   OH2 5687   4.043   2.396   1.571
 1908TIP3    H1 5688   4.132   2.410   1.538
 1908TIP3    H2 5689   4.044   2.434   1.658
 1909TIP3   OH2 5690   3.600   2.682   2.123
 1909TIP3    H1 5691   3.597   2.753   2.059
 1909TIP3    H2 5692   3.509   2.670   2.150
 1910TIP3   OH2 5693   4.196   3.469   1.140
 1910TIP3    H1 5694   4.103   3.452   1.124
 1910TIP3    H2 5695   4.223   3.398   1.198
 1911TIP3   OH2 5696   5.685   4.624   1.465
 1911TIP3    H1 5697   5.626   4.550   1.482
 1911TIP3    H2 5698   5.772   4.585   1.463
 1912TIP3   OH2 5699   2.996   4.568   5.579
 1912TIP3    H1 5700   2.914   4.540   5.538
 1912TIP3    H2 5701   3.064   4.522   5.530
 1913TIP3   OH2 5702   5.198   2.946   0.013
 1913TIP3    H1 5703   5.169   2.949   0.104
 1913TIP3    H2 5704   5.171   3.030  -0.023
 1914TIP3   OH2 5705   0.780   5.038   5.431
 1914TIP3    H1 5706   0.725   5.114   5.410
 1914TIP3    H2 5707   0.735   4.964   5.391
 1915TIP3   OH2 5708   4.760   0.579   1.511
 1915TIP3    H1 5709   4.700   0.510   1.538
 1915TIP3    H2 5710   4.775   0.630   1.591
 1916TIP3   OH2 5711   1.133   0.224   1.495
 1916TIP3    H1 5712   1.041   0.197   1.497
 1916TIP3    H2 5713   1.158   0.216   1.403
 1917TIP3   OH2 5714   2.800   6.311   2.045
 1917TIP3    H1 5715   2.811   6.219   2.020
 1917TIP3    H2 5716   2.826   6.360   1.967
 1918TIP3   OH2 5717   2.120   2.964   0.407
 1918TIP3    H1 5718   2.171   2.884   0.419
 1918TIP3    H2 5719   2.115   3.003   0.494
 1919TIP3   OH2 5720   0.134   4.999   2.694
 1919TIP3    H1 5721   0.046   5.026   2.665
 1919TIP3    H2 5722   0.177   4.969   2.614
 1920TIP3   OH2 5723   3.347   5.966   4.302
 1920TIP3    H1 5724   3.408   6.039   4.295
 1920TIP3    H2 5725   3.402   5.889   4.317
 1921TIP3   OH2 5726   1.750   3.347   5.653
 1921TIP3    H1 5727   1.670   3.331   5.704
 1921TIP3    H2 5728   1.719   3.383   5.570
 1922TIP3   OH2 5729   2.232   1.698   2.501
 1922TIP3    H1 5730   2.192   1.617   2.530
 1922TIP3    H2 5731   2.323   1.692   2.530
 1923TIP3   OH2 5732   4.713   5.405   2.657
 1923TIP3    H1 5733   4.627   5.365   2.671
 1923TIP3    H2 5734   4.754   5.403   2.743
 1924TIP3   OH2 5735   5.169   1.001   0.221
 1924TIP3    H1 5736   5.157   0.935   0.153
 1924TIP3    H2 5737   5.103   0.979   0.287
 1925TIP3   OH2 5738   2.696   2.280   4.361
 1925TIP3    H1 5739   2.705   2.185   4.348
 1925TIP3    H2 5740   2.716   2.318   4.276
 1926TIP3   OH2 5741   4.261   4.656   2.492
 1926TIP3    H1 5742   4.297   4.590   2.432
 1926TIP3    H2 5743   4.287   4.625   2.579
 1927TIP3   OH2 5744   2.549   3.202   5.475
 1927TIP3    H1 5745   2.632   3.164   5.504
 1927TIP3    H2 5746   2.490   3.127   5.465
 1928TIP3   OH2 5747   2.658   2.151   5.569
 1928TIP3    H1 5748   2.663   2.108   5.654
 1928TIP3    H2 5749   2.697   2.238   5.584
 1929TIP3   OH2 5750   6.692   5.070   2.441
 1929TIP3    H1 5751   6.726   5.136   2.502
 1929TIP3    H2 5752   6.746   5.081   2.362
 1930TIP3   OH2 5753   3.379   4.266   1.249
 1930TIP3    H1 5754   3.294   4.307   1.263
 1930TIP3    H2 5755   3.375   4.184   1.298
 1931TIP3   OH2 5756   1.103   1.291   3.304
 1931TIP3    H1 5757   1.108   1.345   3.225
 1931TIP3    H2 5758   1.029   1.327   3.353
 1932TIP3   OH2 5759   1.002   6.520   0.512
 1932TIP3    H1 5760   0.989   6.570   0.431
 1932TIP3    H2 5761   0.945   6.444   0.502
 1933TIP3   OH2 5762   5.948   5.943   1.777
 1933TIP3    H1 5763   5.928   6.036   1.773
 1933TIP3    H2 5764   6.018   5.930   1.713
 1934TIP3   OH2 5765   4.958   0.637   3.697
 1934TIP3    H1 5766   5.001   0.623   3.613
 1934TIP3    H2 5767   4.868   0.661   3.675
 1935TIP3   OH2 5768   3.629   1.399   3.955
 1935TIP3    H1 5769   3.617   1.333   3.887
 1935TIP3    H2 5770   3.659   1.351   4.031
 1936TIP3   OH2 5771   5.093   5.325   4.053
 1936TIP3    H1 5772   5.042   5.257   4.010
 1936TIP3    H2 5773   5.057   5.407   4.019
 1937TIP3   OH2 5774   4.655   2.143   3.570
 1937TIP3    H1 5775   4.736   2.093   3.583
 1937TIP3    H2 5776   4.587   2.076   3.563
 1938TIP3   OH2 5777   2.770   3.013   2.167
 1938TIP3    H1 5778   2.791   3.055   2.250
 1938TIP3    H2 5779   2.817   2.929   2.170
 1939TIP3   OH2 5780   2.289   3.840   2.759
 1939TIP3    H1 5781   2.286   3.782   2.683
 1939TIP3    H2 5782   2.211   3.817   2.809
 1940TIP3   OH2 5783   4.971   4.242   4.365
 1940TIP3    H1 5784   4.977   4.278   4.454
 1940TIP3    H2 5785   4.909   4.169   4.374
 1941TIP3   OH2 5786   5.379   6.404   1.746
 1941TIP3    H1 5787   5.400   6.324   1.793
 1941TIP3    H2 5788   5.322   6.376   1.674
 1942TIP3   OH2 5789   4.883  -0.046   0.033
 1942TIP3    H1 5790   4.808  -0.001  -0.006
 1942TIP3    H2 5791   4.959   0.003   0.001
 1943TIP3   OH2 5792   3.445   0.769   3.987
 1943TIP3    H1 5793   3.530   0.787   4.025
 1943TIP3    H2 5794   3.400   0.854   3.985
 1944TIP3   OH2 5795   6.190   5.744   3.019
 1944TIP3    H1 5796   6.099   5.717   3.005
 1944TIP3    H2 5797   6.203   5.817   2.958
 1945TIP3   OH2 5798   2.440   4.488   4.130
 1945TIP3    H1 5799   2.376   4.454   4.192
 1945TIP3    H2 5800   2.491   4.412   4.103
 1946TIP3   OH2 5801   2.852   3.221   2.969
 1946TIP3    H1 5802   2.849   3.174   3.053
 1946TIP3    H2 5803   2.941   3.208   2.937
 1947TIP3   OH2 5804   4.509   2.504   4.774
 1947TIP3    H1 5805   4.469   2.441   4.714
 1947TIP3    H2 5806   4.591   2.528   4.731
 1948TIP3   OH2 5807   3.928   6.281   4.302
 1948TIP3    H1 5808   3.860   6.331   4.348
 1948TIP3    H2 5809   3.879   6.212   4.256
 1949TIP3   OH2 5810   0.384   1.746   2.064
 1949TIP3    H1 5811   0.347   1.659   2.073
 1949TIP3    H2 5812   0.324   1.792   2.006
 1950TIP3   OH2 5813   0.243   0.653   2.950
 1950TIP3    H1 5814   0.162   0.605   2.933
 1950TIP3    H2 5815   0.304   0.623   2.883
 1951TIP3   OH2 5816   0.305   1.089   5.358
 1951TIP3    H1 5817   0.345   1.102   5.443
 1951TIP3    H2 5818   0.368   1.124   5.295
 1952TIP3   OH2 5819   4.786   3.227   4.175
 1952TIP3    H1 5820   4.851   3.287   4.140
 1952TIP3    H2 5821   4.806   3.143   4.134
 1953TIP3   OH2 5822   2.899   4.622   5.844
 1953TIP3    H1 5823   2.966   4.684   5.871
 1953TIP3    H2 5824   2.918   4.604   5.752
 1954TIP3   OH2 5825   7.051   3.096   3.979
 1954TIP3    H1 5826   7.075   3.096   3.886
 1954TIP3    H2 5827   6.955   3.092   3.980
 1955TIP3   OH2 5828   0.260   1.635   5.820
 1955TIP3    H1 5829   0.246   1.627   5.914
 1955TIP3    H2 5830   0.342   1.683   5.812
 1956TIP3   OH2 5831   6.802   3.574   0.104
 1956TIP3    H1 5832   6.876   3.621   0.142
 1956TIP3    H2 5833   6.746   3.554   0.179
 1957TIP3   OH2 5834   2.494   5.849   5.664
 1957TIP3    H1 5835   2.452   5.820   5.583
 1957TIP3    H2 5836   2.446   5.929   5.687
 1958TIP3   OH2 5837   6.427   5.616   2.597
 1958TIP3    H1 5838   6.449   5.525   2.578
 1958TIP3    H2 5839   6.469   5.634   2.681
 1959TIP3   OH2 5840   2.532   1.227   2.658
 1959TIP3    H1 5841   2.607   1.168   2.653
 1959TIP3    H2 5842   2.464   1.175   2.700
 1960TIP3   OH2 5843   6.684   4.169   3.438
 1960TIP3    H1 5844   6.765   4.149   3.391
 1960TIP3    H2 5845   6.702   4.252   3.482
 1961TIP3   OH2 5846   2.506   2.095   3.001
 1961TIP3    H1 5847   2.444   2.045   2.948
 1961TIP3    H2 5848   2.456   2.124   3.076
 1962TIP3   OH2 5849   6.650   1.171   4.314
 1962TIP3    H1 5850   6.714   1.108   4.281
 1962TIP3    H2 5851   6.660   1.247   4.257
 1963TIP3   OH2 5852   4.851   1.956   3.590
 1963TIP3    H1 5853   4.928   2.011   3.607
 1963TIP3    H2 5854   4.888   1.871   3.567
 1964TIP3   OH2 5855   1.009   0.704   3.878
 1964TIP3    H1 5856   1.064   0.635   3.914
 1964TIP3    H2 5857   1.001   0.768   3.949
 1965TIP3   OH2 5858   3.891   5.688   3.156
 1965TIP3    H1 5859   3.910   5.781   3.143
 1965TIP3    H2 5860   3.841   5.685   3.237
 1966TIP3   OH2 5861   3.569   6.666   2.013
 1966TIP3    H1 5862   3.657   6.703   2.015
 1966TIP3    H2 5863   3.553   6.645   1.921
 1967TIP3   OH2 5864   1.664   6.379   1.580
 1967TIP3    H1 5865   1.675   6.440   1.507
 1967TIP3    H2 5866   1.594   6.320   1.551
 1968TIP3   OH2 5867   2.176   6.152   1.106
 1968TIP3    H1 5868   2.224   6.075   1.077
 1968TIP3    H2 5869   2.226   6.226   1.071
 1969TIP3   OH2 5870   4.542   0.768   3.650
 1969TIP3    H1 5871   4.531   0.698   3.714
 1969TIP3    H2 5872   4.453   0.794   3.627
 1970TIP3   OH2 5873   4.378   2.534   5.427
 1970TIP3    H1 5874   4.426   2.562   5.505
 1970TIP3    H2 5875   4.444   2.489   5.374
 1971TIP3   OH2 5876   6.801   1.032   5.744
 1971TIP3    H1 5877   6.819   1.058   5.654
 1971TIP3    H2 5878   6.887   1.011   5.780
 1972TIP3   OH2 5879   3.133   2.560   1.647
 1972TIP3    H1 5880   3.178   2.481   1.677
 1972TIP3    H2 5881   3.202   2.615   1.610
 1973TIP3   OH2 5882   1.776   5.930   1.900
 1973TIP3    H1 5883   1.720   5.961   1.971
 1973TIP3    H2 5884   1.864   5.955   1.926
 1974TIP3   OH2 5885   4.605   5.851   5.859
 1974TIP3    H1 5886   4.521   5.810   5.880
 1974TIP3    H2 5887   4.600   5.937   5.901
 1975TIP3   OH2 5888   2.968   4.388   2.557
 1975TIP3    H1 5889   2.897   4.437   2.598
 1975TIP3    H2 5890   3.001   4.331   2.626
 1976TIP3   OH2 5891   3.335   1.852   3.765
 1976TIP3    H1 5892   3.264   1.804   3.807
 1976TIP3    H2 5893   3.414   1.804   3.790
 1977TIP3   OH2 5894   4.026   4.518   0.575
 1977TIP3    H1 5895   4.067   4.604   0.577
 1977TIP3    H2 5896   3.999   4.507   0.484
 1978TIP3   OH2 5897   4.886   1.724   5.761
 1978TIP3    H1 5898   4.881   1.777   5.681
 1978TIP3    H2 5899   4.951   1.656   5.741
 1979TIP3   OH2 5900   1.944   6.351   2.658
 1979TIP3    H1 5901   1.849   6.336   2.660
 1979TIP3    H2 5902   1.982   6.264   2.642
 1980TIP3   OH2 5903   6.678   1.534   0.988
 1980TIP3    H1 5904   6.652   1.614   1.034
 1980TIP3    H2 5905   6.597   1.503   0.948
 1981TIP3   OH2 5906   1.663   0.222   3.794
 1981TIP3    H1 5907   1.575   0.192   3.813
 1981TIP3    H2 5908   1.700   0.157   3.734
 1982TIP3   OH2 5909   3.810   2.571   1.057
 1982TIP3    H1 5910   3.815   2.475   1.063
 1982TIP3    H2 5911   3.835   2.590   0.967
 1983TIP3   OH2 5912   3.811   1.725   1.344
 1983TIP3    H1 5913   3.906   1.717   1.346
 1983TIP3    H2 5914   3.779   1.650   1.395
 1984TIP3   OH2 5915   3.375   4.156   1.729
 1984TIP3    H1 5916   3.374   4.132   1.821
 1984TIP3    H2 5917   3.301   4.109   1.691
 1985TIP3   OH2 5918   7.213   3.476   1.130
 1985TIP3    H1 5919   7.241   3.494   1.040
 1985TIP3    H2 5920   7.188   3.384   1.129
 1986TIP3   OH2 5921   3.928   1.672   0.077
 1986TIP3    H1 5922   3.984   1.703   0.149
 1986TIP3    H2 5923   3.879   1.599   0.115
 1987TIP3   OH2 5924   6.699   2.838   5.655
 1987TIP3    H1 5925   6.674   2.925   5.684
 1987TIP3    H2 5926   6.644   2.822   5.577
 1988TIP3   OH2 5927   0.573   6.039   3.742
 1988TIP3    H1 5928   0.632   6.021   3.669
 1988TIP3    H2 5929   0.552   6.132   3.733
 1989TIP3   OH2 5930   6.157   6.238   1.815
 1989TIP3    H1 5931   6.162   6.308   1.881
 1989TIP3    H2 5932   6.063   6.223   1.803
 1990TIP3   OH2 5933   3.015   4.755   4.095
 1990TIP3    H1 5934   2.964   4.727   4.171
 1990TIP3    H2 5935   3.102   4.772   4.130
 1991TIP3   OH2 5936   4.634   0.391   4.691
 1991TIP3    H1 5937   4.613   0.443   4.768
 1991TIP3    H2 5938   4.557   0.401   4.634
 1992TIP3   OH2 5939   6.282   5.972   2.877
 1992TIP3    H1 5940   6.314   6.044   2.932
 1992TIP3    H2 5941   6.239   6.017   2.804
 1993TIP3   OH2 5942   1.459   3.883   1.024
 1993TIP3    H1 5943   1.423   3.935   0.952
 1993TIP3    H2 5944   1.538   3.843   0.987
 1994TIP3   OH2 5945   0.545   0.898   2.057
 1994TIP3    H1 5946   0.535   0.803   2.048
 1994TIP3    H2 5947   0.634   0.909   2.092
 1995TIP3   OH2 5948   5.622   5.595   5.049
 1995TIP3    H1 5949   5.697   5.620   5.103
 1995TIP3    H2 5950   5.653   5.520   4.998
 1996TIP3   OH2 5951   5.513   0.402   0.454
 1996TIP3    H1 5952   5.419   0.419   0.462
 1996TIP3    H2 5953   5.545   0.471   0.395
 1997TIP3   OH2 5954   0.156   5.902   2.184
 1997TIP3    H1 5955   0.109   5.901   2.267
 1997TIP3    H2 5956   0.099   5.853   2.124
 1998TIP3   OH2 5957   1.866   5.271   4.699
 1998TIP3    H1 5958   1.905   5.185   4.715
 1998TIP3    H2 5959   1.940   5.327   4.674
 1999TIP3   OH2 5960   4.398   2.685   0.710
 1999TIP3    H1 5961   4.424   2.629   0.783
 1999TIP3    H2 5962   4.479   2.728   0.683
 2000TIP3   OH2 5963   4.768   5.105   1.294
 2000TIP3    H1 5964   4.827   5.035   1.323
 2000TIP3    H2 5965   4.818   5.153   1.228
 2001TIP3   OH2 5966   1.223   2.756   2.793
 2001TIP3    H1 5967   1.252   2.667   2.817
 2001TIP3    H2 5968   1.155   2.742   2.727
 2002TIP3   OH2 5969   2.057   6.753   2.864
 2002TIP3    H1 5970   2.123   6.781   2.928
 2002TIP3    H2 5971   2.013   6.833   2.838
 2003TIP3   OH2 5972   6.218   3.560   0.995
 2003TIP3    H1 5973   6.139   3.606   1.023
 2003TIP3    H2 5974   6.257   3.527   1.076
 2004TIP3   OH2 5975   4.752   3.663   2.752
 2004TIP3    H1 5976   4.754   3.696   2.662
 2004TIP3    H2 5977   4.751   3.568   2.742
 2005TIP3   OH2 5978   3.868   5.466   1.087
 2005TIP3    H1 5979   3.861   5.456   1.182
 2005TIP3    H2 5980   3.953   5.508   1.074
 2006TIP3   OH2 5981   7.113   5.123   0.487
 2006TIP3    H1 5982   7.134   5.205   0.440
 2006TIP3    H2 5983   7.071   5.152   0.568
 2007TIP3   OH2 5984   7.231   3.384   3.565
 2007TIP3    H1 5985   7.280   3.440   3.625
 2007TIP3    H2 5986   7.173   3.444   3.518
 2008TIP3   OH2 5987   2.059   4.605   3.864
 2008TIP3    H1 5988   2.071   4.535   3.800
 2008TIP3    H2 5989   2.147   4.633   3.886
 2009TIP3   OH2 5990   1.300   0.237   1.990
 2009TIP3    H1 5991   1.291   0.273   1.902
 2009TIP3    H2 5992   1.210   0.213   2.015
 2010TIP3   OH2 5993   1.092   5.898   2.402
 2010TIP3    H1 5994   1.016   5.930   2.355
 2010TIP3    H2 5995   1.080   5.803   2.404
 2011TIP3   OH2 5996   3.510   4.227   4.701
 2011TIP3    H1 5997   3.427   4.275   4.703
 2011TIP3    H2 5998   3.556   4.257   4.779
 2012TIP3   OH2 5999   1.285   0.175   4.741
 2012TIP3    H1 6000   1.311   0.259   4.778
 2012TIP3    H2 6001   1.191   0.184   4.725
 2013TIP3   OH2 6002   1.287   6.288   2.597
 2013TIP3    H1 6003   1.192   6.278   2.587
 2013TIP3    H2 6004   1.319   6.199   2.613
 2014TIP3   OH2 6005   2.833   1.191   1.947
 2014TIP3    H1 6006   2.889   1.267   1.963
 2014TIP3    H2 6007   2.771   1.220   1.881
 2015TIP3   OH2 6008   5.617   5.107   1.837
 2015TIP3    H1 6009   5.593   5.050   1.911
 2015TIP3    H2 6010   5.661   5.182   1.878
 2016TIP3   OH2 6011   4.296   1.946   0.245
 2016TIP3    H1 6012   4.279   1.960   0.338
 2016TIP3    H2 6013   4.375   1.996   0.226
 2017TIP3   OH2 6014   5.818   1.440   3.518
 2017TIP3    H1 6015   5.789   1.508   3.457
 2017TIP3    H2 6016   5.889   1.481   3.567
 2018TIP3   OH2 6017   1.563   3.474   3.675
 2018TIP3    H1 6018   1.582   3.557   3.633
 2018TIP3    H2 6019   1.572   3.491   3.769
 2019TIP3   OH2 6020   6.953   1.043   4.647
 2019TIP3    H1 6021   7.032   1.046   4.593
 2019TIP3    H2 6022   6.928   1.134   4.658
 2020TIP3   OH2 6023   2.137   1.256   4.120
 2020TIP3    H1 6024   2.137   1.346   4.087
 2020TIP3    H2 6025   2.227   1.240   4.146
 2021TIP3   OH2 6026   5.695   5.894   1.329
 2021TIP3    H1 6027   5.730   5.830   1.268
 2021TIP3    H2 6028   5.707   5.979   1.285
 2022TIP3   OH2 6029   4.797   2.830   0.843
 2022TIP3    H1 6030   4.710   2.868   0.831
 2022TIP3    H2 6031   4.801   2.759   0.779
 2023TIP3   OH2 6032   1.366   6.689   1.122
 2023TIP3    H1 6033   1.335   6.600   1.138
 2023TIP3    H2 6034   1.316   6.743   1.183
 2024TIP3   OH2 6035   3.481   6.554   3.517
 2024TIP3    H1 6036   3.472   6.613   3.442
 2024TIP3    H2 6037   3.457   6.608   3.593
 2025TIP3   OH2 6038   1.335   3.426   5.196
 2025TIP3    H1 6039   1.301   3.515   5.203
 2025TIP3    H2 6040   1.366   3.419   5.106
 2026TIP3   OH2 6041   5.454   6.025   2.137
 2026TIP3    H1 6042   5.369   5.989   2.164
 2026TIP3    H2 6043   5.518   5.977   2.190
 2027TIP3   OH2 6044   3.243   3.161   2.666
 2027TIP3    H1 6045   3.326   3.201   2.643
 2027TIP3    H2 6046   3.193   3.160   2.585
 2028TIP3   OH2 6047   3.847   4.262   4.283
 2028TIP3    H1 6048   3.810   4.346   4.257
 2028TIP3    H2 6049   3.865   4.271   4.377
 2029TIP3   OH2 6050   3.414   1.764   4.177
 2029TIP3    H1 6051   3.381   1.756   4.267
 2029TIP3    H2 6052   3.490   1.707   4.175
 2030TIP3   OH2 6053   4.260   2.029   1.482
 2030TIP3    H1 6054   4.287   1.938   1.497
 2030TIP3    H2 6055   4.299   2.077   1.555
 2031TIP3   OH2 6056   1.414   1.274   2.349
 2031TIP3    H1 6057   1.351   1.295   2.279
 2031TIP3    H2 6058   1.447   1.358   2.378
 2032TIP3   OH2 6059   4.375   5.596   2.676
 2032TIP3    H1 6060   4.280   5.592   2.685
 2032TIP3    H2 6061   4.408   5.589   2.765
 2033TIP3   OH2 6062   6.637   3.819   4.087
 2033TIP3    H1 6063   6.591   3.902   4.102
 2033TIP3    H2 6064   6.704   3.841   4.021
 2034TIP3   OH2 6065   1.615   4.846   5.668
 2034TIP3    H1 6066   1.608   4.932   5.628
 2034TIP3    H2 6067   1.590   4.860   5.760
 2035TIP3   OH2 6068   1.698   3.015   1.294
 2035TIP3    H1 6069   1.765   3.019   1.362
 2035TIP3    H2 6070   1.651   2.933   1.312
 2036TIP3   OH2 6071   0.981   1.202   3.010
 2036TIP3    H1 6072   0.910   1.138   3.006
 2036TIP3    H2 6073   1.059   1.150   3.023
 2037TIP3   OH2 6074   2.849   5.908   1.191
 2037TIP3    H1 6075   2.832   5.817   1.215
 2037TIP3    H2 6076   2.945   5.917   1.197
 2038TIP3   OH2 6077   6.282   0.370   4.852
 2038TIP3    H1 6078   6.302   0.331   4.938
 2038TIP3    H2 6079   6.348   0.333   4.793
 2039TIP3   OH2 6080   5.805   1.056   5.556
 2039TIP3    H1 6081   5.720   1.100   5.549
 2039TIP3    H2 6082   5.816   1.041   5.650
 2040TIP3   OH2 6083   7.231   2.730   3.158
 2040TIP3    H1 6084   7.209   2.664   3.092
 2040TIP3    H2 6085   7.326   2.740   3.152
 2041TIP3   OH2 6086   7.076   6.452   1.312
 2041TIP3    H1 6087   7.159   6.497   1.295
 2041TIP3    H2 6088   7.029   6.510   1.372
 2042TIP3   OH2 6089   2.961   5.657   2.098
 2042TIP3    H1 6090   2.938   5.645   2.006
 2042TIP3    H2 6091   3.055   5.675   2.098
 2043TIP3   OH2 6092   1.520   5.126   2.638
 2043TIP3    H1 6093   1.440   5.110   2.688
 2043TIP3    H2 6094   1.589   5.084   2.690
 2044TIP3   OH2 6095   1.718   1.988   1.590
 2044TIP3    H1 6096   1.760   2.074   1.588
 2044TIP3    H2 6097   1.646   1.995   1.527
 2045TIP3   OH2 6098   1.396   4.501   0.724
 2045TIP3    H1 6099   1.406   4.405   0.722
 2045TIP3    H2 6100   1.301   4.515   0.716
 2046TIP3   OH2 6101   6.183   0.725   2.047
 2046TIP3    H1 6102   6.168   0.648   1.992
 2046TIP3    H2 6103   6.200   0.689   2.134
 2047TIP3   OH2 6104   1.654   5.559   3.340
 2047TIP3    H1 6105   1.737   5.536   3.381
 2047TIP3    H2 6106   1.636   5.487   3.280
 2048TIP3   OH2 6107   2.137   6.407   2.259
 2048TIP3    H1 6108   2.178   6.341   2.316
 2048TIP3    H2 6109   2.061   6.436   2.308
 2049TIP3   OH2 6110   6.297   3.845   5.504
 2049TIP3    H1 6111   6.333   3.887   5.427
 2049TIP3    H2 6112   6.369   3.794   5.541
 2050TIP3   OH2 6113   4.486   1.293   1.235
 2050TIP3    H1 6114   4.504   1.292   1.329
 2050TIP3    H2 6115   4.441   1.376   1.220
 2051TIP3   OH2 6116   0.798   1.934   1.798
 2051TIP3    H1 6117   0.710   1.972   1.790
 2051TIP3    H2 6118   0.802   1.867   1.730
 2052TIP3   OH2 6119   0.677   0.577   3.221
 2052TIP3    H1 6120   0.610   0.634   3.258
 2052TIP3    H2 6121   0.643   0.551   3.135
 2053TIP3   OH2 6122   1.002   0.497   2.932
 2053TIP3    H1 6123   0.971   0.587   2.923
 2053TIP3    H2 6124   0.923   0.444   2.942
 2054TIP3   OH2 6125   6.486   2.109   1.783
 2054TIP3    H1 6126   6.462   2.121   1.875
 2054TIP3    H2 6127   6.525   2.022   1.780
 2055TIP3   OH2 6128   5.532   0.719   0.593
 2055TIP3    H1 6129   5.528   0.751   0.683
 2055TIP3    H2 6130   5.625   0.704   0.577
 2056TIP3   OH2 6131   2.557   4.038   5.590
 2056TIP3    H1 6132   2.605   4.005   5.514
 2056TIP3    H2 6133   2.475   4.070   5.553
 2057TIP3   OH2 6134   6.610   0.977   1.608
 2057TIP3    H1 6135   6.645   0.892   1.581
 2057TIP3    H2 6136   6.574   0.961   1.695
 2058TIP3   OH2 6137   3.269   3.113   1.189
 2058TIP3    H1 6138   3.318   3.031   1.200
 2058TIP3    H2 6139   3.187   3.086   1.148
 2059TIP3   OH2 6140   1.913   2.603   3.065
 2059TIP3    H1 6141   1.963   2.684   3.057
 2059TIP3    H2 6142   1.825   2.626   3.036
 2060TIP3   OH2 6143   2.159   6.084   3.960
 2060TIP3    H1 6144   2.162   5.994   3.928
 2060TIP3    H2 6145   2.074   6.091   4.004
 2061TIP3   OH2 6146   3.943   2.101   0.593
 2061TIP3    H1 6147   3.884   2.158   0.643
 2061TIP3    H2 6148   3.985   2.160   0.531
 2062TIP3   OH2 6149   1.110   0.687   5.166
 2062TIP3    H1 6150   1.037   0.632   5.137
 2062TIP3    H2 6151   1.169   0.691   5.091
 2063TIP3   OH2 6152   1.228   3.770   3.656
 2063TIP3    H1 6153   1.169   3.703   3.622
 2063TIP3    H2 6154   1.208   3.773   3.750
 2064TIP3   OH2 6155   6.303   3.631   2.480
 2064TIP3    H1 6156   6.250   3.605   2.556
 2064TIP3    H2 6157   6.368   3.562   2.472
 2065TIP3   OH2 6158   2.518   6.506   4.493
 2065TIP3    H1 6159   2.474   6.551   4.565
 2065TIP3    H2 6160   2.447   6.470   4.439
 2066TIP3   OH2 6161   6.655   4.846   1.913
 2066TIP3    H1 6162   6.651   4.937   1.942
 2066TIP3    H2 6163   6.643   4.795   1.993
 2067TIP3   OH2 6164   6.396   0.488   3.877
 2067TIP3    H1 6165   6.412   0.458   3.788
 2067TIP3    H2 6166   6.351   0.415   3.919
 2068TIP3   OH2 6167   5.263   4.872   1.844
 2068TIP3    H1 6168   5.312   4.911   1.771
 2068TIP3    H2 6169   5.316   4.798   1.872
 2069TIP3   OH2 6170   6.439   0.851   3.627
 2069TIP3    H1 6171   6.384   0.864   3.705
 2069TIP3    H2 6172   6.463   0.940   3.600
 2070TIP3   OH2 6173   1.812   5.302   3.943
 2070TIP3    H1 6174   1.883   5.365   3.955
 2070TIP3    H2 6175   1.774   5.325   3.857
 2071TIP3   OH2 6176   6.336   1.000   1.483
 2071TIP3    H1 6177   6.332   0.929   1.419
 2071TIP3    H2 6178   6.391   0.965   1.553
 2072TIP3   OH2 6179   0.543   6.690   5.515
 2072TIP3    H1 6180   0.629   6.724   5.539
 2072TIP3    H2 6181   0.561   6.628   5.444
 2073TIP3   OH2 6182   7.005   2.378   2.346
 2073TIP3    H1 6183   7.011   2.455   2.403
 2073TIP3    H2 6184   7.087   2.331   2.360
 2074TIP3   OH2 6185   6.671   6.603   2.135
 2074TIP3    H1 6186   6.607   6.672   2.122
 2074TIP3    H2 6187   6.700   6.579   2.047
 2075TIP3   OH2 6188   7.152   4.498   3.522
 2075TIP3    H1 6189   7.118   4.473   3.607
 2075TIP3    H2 6190   7.075   4.499   3.465
 2076TIP3   OH2 6191   0.484   2.606   4.541
 2076TIP3    H1 6192   0.450   2.583   4.628
 2076TIP3    H2 6193   0.493   2.701   4.544
 2077TIP3   OH2 6194   5.799   1.910   1.332
 2077TIP3    H1 6195   5.893   1.899   1.321
 2077TIP3    H2 6196   5.771   1.955   1.253
 2078TIP3   OH2 6197   3.759   4.183   5.423
 2078TIP3    H1 6198   3.768   4.195   5.517
 2078TIP3    H2 6199   3.794   4.263   5.385
 2079TIP3   OH2 6200   4.391   1.127   3.738
 2079TIP3    H1 6201   4.439   1.206   3.714
 2079TIP3    H2 6202   4.343   1.150   3.817
 2080TIP3   OH2 6203   2.935   2.539   0.381
 2080TIP3    H1 6204   2.991   2.521   0.456
 2080TIP3    H2 6205   2.975   2.490   0.309
 2081TIP3   OH2 6206   4.904   3.479   5.594
 2081TIP3    H1 6207   4.973   3.528   5.637
 2081TIP3    H2 6208   4.919   3.388   5.619
 2082TIP3   OH2 6209   6.114   2.313   0.759
 2082TIP3    H1 6210   6.191   2.256   0.769
 2082TIP3    H2 6211   6.151   2.402   0.756
 2083TIP3   OH2 6212   2.830   5.464   3.170
 2083TIP3    H1 6213   2.756   5.412   3.140
 2083TIP3    H2 6214   2.795   5.517   3.242
 2084TIP3   OH2 6215   4.609   2.961   2.524
 2084TIP3    H1 6216   4.573   2.981   2.438
 2084TIP3    H2 6217   4.635   2.869   2.518
 2085TIP3   OH2 6218   1.081   1.056   5.457
 2085TIP3    H1 6219   0.999   1.007   5.442
 2085TIP3    H2 6220   1.064   1.104   5.538
 2086TIP3   OH2 6221   5.522   0.679   4.988
 2086TIP3    H1 6222   5.475   0.679   5.072
 2086TIP3    H2 6223   5.610   0.648   5.009
 2087TIP3   OH2 6224   3.260   0.847   1.835
 2087TIP3    H1 6225   3.284   0.766   1.791
 2087TIP3    H2 6226   3.344   0.888   1.857
 2088TIP3   OH2 6227   2.387   2.959   5.511
 2088TIP3    H1 6228   2.368   2.930   5.601
 2088TIP3    H2 6229   2.383   2.878   5.459
 2089TIP3   OH2 6230   2.032   1.261   5.704
 2089TIP3    H1 6231   2.015   1.255   5.610
 2089TIP3    H2 6232   2.070   1.348   5.716
 2090TIP3   OH2 6233   4.812   0.100   5.908
 2090TIP3    H1 6234   4.769   0.165   5.963
 2090TIP3    H2 6235   4.829   0.146   5.826
 2091TIP3   OH2 6236   3.784   0.772   5.362
 2091TIP3    H1 6237   3.834   0.700   5.400
 2091TIP3    H2 6238   3.728   0.730   5.296
 2092TIP3   OH2 6239   4.134   0.006   1.984
 2092TIP3    H1 6240   4.169   0.091   2.012
 2092TIP3    H2 6241   4.181  -0.058   2.037
 2093TIP3   OH2 6242   7.175   4.555   0.173
 2093TIP3    H1 6243   7.226   4.477   0.153
 2093TIP3    H2 6244   7.138   4.583   0.090
 2094TIP3   OH2 6245   4.541   6.400   0.844
 2094TIP3    H1 6246   4.595   6.477   0.861
 2094TIP3    H2 6247   4.567   6.336   0.910
 2095TIP3   OH2 6248   2.308   1.591   4.591
 2095TIP3    H1 6249   2.268   1.602   4.505
 2095TIP3    H2 6250   2.401   1.607   4.576
 2096TIP3   OH2 6251   3.385   4.106   0.629
 2096TIP3    H1 6252   3.322   4.161   0.674
 2096TIP3    H2 6253   3.336   4.064   0.558
 2097TIP3   OH2 6254   4.623   5.826   3.454
 2097TIP3    H1 6255   4.596   5.734   3.450
 2097TIP3    H2 6256   4.636   5.852   3.363
 2098TIP3   OH2 6257   5.719   2.743   1.302
 2098TIP3    H1 6258   5.738   2.783   1.216
 2098TIP3    H2 6259   5.804   2.738   1.345
 2099TIP3   OH2 6260   5.809   0.398   2.965
 2099TIP3    H1 6261   5.732   0.447   2.993
 2099TIP3    H2 6262   5.815   0.414   2.871
 2100TIP3   OH2 6263   0.787   1.881   0.527
 2100TIP3    H1 6264   0.714   1.939   0.506
 2100TIP3    H2 6265   0.865   1.931   0.506
 2101TIP3   OH2 6266   5.118   4.265   0.466
 2101TIP3    H1 6267   5.057   4.330   0.500
 2101TIP3    H2 6268   5.115   4.193   0.529
 2102TIP3   OH2 6269   4.289   3.710   3.580
 2102TIP3    H1 6270   4.232   3.785   3.563
 2102TIP3    H2 6271   4.373   3.750   3.604
 2103TIP3   OH2 6272   6.557   6.065   5.509
 2103TIP3    H1 6273   6.532   6.152   5.478
 2103TIP3    H2 6274   6.483   6.009   5.487
 2104TIP3   OH2 6275   0.049   2.928   4.110
 2104TIP3    H1 6276  -0.023   2.954   4.053
 2104TIP3    H2 6277   0.011   2.926   4.198
 2105TIP3   OH2 6278   5.415   2.683   3.629
 2105TIP3    H1 6279   5.424   2.618   3.559
 2105TIP3    H2 6280   5.329   2.722   3.615
 2106TIP3   OH2 6281   1.318   6.228   2.996
 2106TIP3    H1 6282   1.390   6.288   2.977
 2106TIP3    H2 6283   1.239   6.283   2.992
 2107TIP3   OH2 6284   3.450   1.439   2.642
 2107TIP3    H1 6285   3.504   1.479   2.710
 2107TIP3    H2 6286   3.467   1.345   2.651
 2108TIP3   OH2 6287   0.028   2.204   1.608
 2108TIP3    H1 6288   0.065   2.292   1.596
 2108TIP3    H2 6289   0.095   2.145   1.574
 2109TIP3   OH2 6290   4.958   3.912   2.031
 2109TIP3    H1 6291   4.894   3.943   1.967
 2109TIP3    H2 6292   4.997   3.991   2.067
 2110TIP3   OH2 6293   2.574   6.438   3.236
 2110TIP3    H1 6294   2.643   6.435   3.170
 2110TIP3    H2 6295   2.493   6.447   3.186
 2111TIP3   OH2 6296   6.643   4.294   5.248
 2111TIP3    H1 6297   6.576   4.248   5.297
 2111TIP3    H2 6298   6.601   4.317   5.165
 2112TIP3   OH2 6299   1.243   0.127   4.015
 2112TIP3    H1 6300   1.237   0.217   3.983
 2112TIP3    H2 6301   1.337   0.111   4.022
 2113TIP3   OH2 6302   1.820   2.769   1.614
 2113TIP3    H1 6303   1.903   2.742   1.654
 2113TIP3    H2 6304   1.838   2.856   1.578
 2114TIP3   OH2 6305   0.432   5.581   1.910
 2114TIP3    H1 6306   0.425   5.493   1.875
 2114TIP3    H2 6307   0.374   5.634   1.855
 2115TIP3   OH2 6308   5.758   6.074   3.634
 2115TIP3    H1 6309   5.787   6.007   3.572
 2115TIP3    H2 6310   5.755   6.029   3.718
 2116TIP3   OH2 6311   2.630   5.052   1.629
 2116TIP3    H1 6312   2.670   5.124   1.580
 2116TIP3    H2 6313   2.648   4.974   1.576
 2117TIP3   OH2 6314   2.996   6.098   0.918
 2117TIP3    H1 6315   3.040   6.126   0.998
 2117TIP3    H2 6316   3.019   6.006   0.909
 2118TIP3   OH2 6317   6.988   6.326   3.551
 2118TIP3    H1 6318   7.009   6.352   3.462
 2118TIP3    H2 6319   6.982   6.409   3.599
 2119TIP3   OH2 6320   5.639   5.881   2.276
 2119TIP3    H1 6321   5.725   5.878   2.319
 2119TIP3    H2 6322   5.639   5.807   2.215
 2120TIP3   OH2 6323   2.464   5.010   5.205
 2120TIP3    H1 6324   2.404   4.970   5.268
 2120TIP3    H2 6325   2.539   4.952   5.203
 2121TIP3   OH2 6326   7.204   2.484   1.776
 2121TIP3    H1 6327   7.109   2.499   1.774
 2121TIP3    H2 6328   7.218   2.427   1.851
 2122TIP3   OH2 6329   4.229   4.771   1.842
 2122TIP3    H1 6330   4.304   4.779   1.902
 2122TIP3    H2 6331   4.202   4.679   1.850
 2123TIP3   OH2 6332   1.515   5.963   4.355
 2123TIP3    H1 6333   1.538   5.872   4.340
 2123TIP3    H2 6334   1.516   5.973   4.450
 2124TIP3   OH2 6335   0.363   3.851   5.834
 2124TIP3    H1 6336   0.385   3.920   5.898
 2124TIP3    H2 6337   0.448   3.825   5.798
 2125TIP3   OH2 6338   6.174   3.276   2.903
 2125TIP3    H1 6339   6.193   3.304   2.813
 2125TIP3    H2 6340   6.080   3.292   2.913
 2126TIP3   OH2 6341   5.796   5.334   2.247
 2126TIP3    H1 6342   5.808   5.255   2.299
 2126TIP3    H2 6343   5.845   5.401   2.294
 2127TIP3   OH2 6344   1.793   4.476   1.581
 2127TIP3    H1 6345   1.707   4.503   1.548
 2127TIP3    H2 6346   1.782   4.470   1.676
 2128TIP3   OH2 6347   4.346   1.401   3.023
 2128TIP3    H1 6348   4.415   1.432   2.965
 2128TIP3    H2 6349   4.342   1.307   3.007
 2129TIP3   OH2 6350   5.650   5.213   1.394
 2129TIP3    H1 6351   5.615   5.197   1.306
 2129TIP3    H2 6352   5.698   5.295   1.386
 2130TIP3   OH2 6353   0.180   3.486   3.974
 2130TIP3    H1 6354   0.184   3.422   4.045
 2130TIP3    H2 6355   0.215   3.566   4.012
 2131TIP3   OH2 6356   0.573   1.749   2.405
 2131TIP3    H1 6357   0.631   1.755   2.482
 2131TIP3    H2 6358   0.595   1.826   2.353
 2132TIP3   OH2 6359   1.240   0.990   0.215
 2132TIP3    H1 6360   1.233   1.080   0.249
 2132TIP3    H2 6361   1.151   0.968   0.187
 2133TIP3   OH2 6362   5.601   5.511   0.032
 2133TIP3    H1 6363   5.514   5.550   0.039
 2133TIP3    H2 6364   5.650   5.570  -0.025
 2134TIP3   OH2 6365   1.582   4.275   0.345
 2134TIP3    H1 6366   1.632   4.249   0.422
 2134TIP3    H2 6367   1.591   4.370   0.341
 2135TIP3   OH2 6368   2.219   1.262   1.733
 2135TIP3    H1 6369   2.133   1.240   1.697
 2135TIP3    H2 6370   2.277   1.196   1.697
 2136TIP3   OH2 6371   1.120   6.643   2.299
 2136TIP3    H1 6372   1.210   6.613   2.282
 2136TIP3    H2 6373   1.127   6.696   2.378
 2137TIP3   OH2 6374   3.491   3.213   2.427
 2137TIP3    H1 6375   3.510   3.249   2.514
 2137TIP3    H2 6376   3.470   3.290   2.374
 2138TIP3   OH2 6377   4.544   0.212   2.566
 2138TIP3    H1 6378   4.557   0.142   2.501
 2138TIP3    H2 6379   4.471   0.264   2.531
 2139TIP3   OH2 6380   4.561   4.515   0.112
 2139TIP3    H1 6381   4.604   4.586   0.160
 2139TIP3    H2 6382   4.473   4.511   0.149
 2140TIP3   OH2 6383   4.840   4.585   1.016
 2140TIP3    H1 6384   4.882   4.629   0.942
 2140TIP3    H2 6385   4.878   4.627   1.094
 2141TIP3   OH2 6386   4.737   3.585   0.865
 2141TIP3    H1 6387   4.784   3.502   0.855
 2141TIP3    H2 6388   4.727   3.618   0.776
 2142TIP3   OH2 6389   2.559   4.931   1.889
 2142TIP3    H1 6390   2.619   4.950   1.817
 2142TIP3    H2 6391   2.504   4.860   1.856
 2143TIP3   OH2 6392   2.455   1.363   0.272
 2143TIP3    H1 6393   2.524   1.400   0.327
 2143TIP3    H2 6394   2.487   1.374   0.183
 2144TIP3   OH2 6395   6.527   3.543   2.795
 2144TIP3    H1 6396   6.501   3.615   2.853
 2144TIP3    H2 6397   6.551   3.587   2.713
 2145TIP3   OH2 6398   2.145   0.573   1.504
 2145TIP3    H1 6399   2.189   0.489   1.513
 2145TIP3    H2 6400   2.078   0.558   1.438
 2146TIP3   OH2 6401   2.768   2.008   0.036
 2146TIP3    H1 6402   2.746   2.101   0.041
 2146TIP3    H2 6403   2.863   2.005   0.050
 2147TIP3   OH2 6404   2.328   2.686   0.365
 2147TIP3    H1 6405   2.309   2.605   0.412
 2147TIP3    H2 6406   2.385   2.735   0.425
 2148TIP3   OH2 6407   1.017   0.293   3.805
 2148TIP3    H1 6408   1.022   0.340   3.888
 2148TIP3    H2 6409   0.929   0.254   3.805
 2149TIP3   OH2 6410   5.375   0.990   4.454
 2149TIP3    H1 6411   5.432   0.929   4.502
 2149TIP3    H2 6412   5.294   0.941   4.440
 2150TIP3   OH2 6413   0.194   4.384   4.123
 2150TIP3    H1 6414   0.275   4.381   4.174
 2150TIP3    H2 6415   0.220   4.421   4.038
 2151TIP3   OH2 6416   5.082   2.679   2.502
 2151TIP3    H1 6417   5.110   2.746   2.440
 2151TIP3    H2 6418   5.143   2.607   2.490
 2152TIP3   OH2 6419   3.844   0.365   0.708
 2152TIP3    H1 6420   3.929   0.349   0.666
 2152TIP3    H2 6421   3.854   0.329   0.796
 2153TIP3   OH2 6422   3.789   2.793   4.613
 2153TIP3    H1 6423   3.813   2.745   4.692
 2153TIP3    H2 6424   3.813   2.884   4.631
 2154TIP3   OH2 6425   5.232   3.643   3.390
 2154TIP3    H1 6426   5.212   3.712   3.453
 2154TIP3    H2 6427   5.319   3.612   3.415
 2155TIP3   OH2 6428   3.236   4.019   5.001
 2155TIP3    H1 6429   3.144   3.993   4.998
 2155TIP3    H2 6430   3.262   4.006   5.092
 2156TIP3   OH2 6431   6.640   2.559   1.705
 2156TIP3    H1 6432   6.550   2.589   1.695
 2156TIP3    H2 6433   6.634   2.487   1.767
 2157TIP3   OH2 6434   3.791   2.986   5.478
 2157TIP3    H1 6435   3.822   3.061   5.426
 2157TIP3    H2 6436   3.826   3.002   5.566
 2158TIP3   OH2 6437   2.417   1.751   3.388
 2158TIP3    H1 6438   2.393   1.673   3.438
 2158TIP3    H2 6439   2.500   1.728   3.347
 2159TIP3   OH2 6440   0.649   5.608   2.803
 2159TIP3    H1 6441   0.592   5.545   2.848
 2159TIP3    H2 6442   0.737   5.587   2.835
 2160TIP3   OH2 6443   6.727   3.442   3.392
 2160TIP3    H1 6444   6.703   3.439   3.485
 2160TIP3    H2 6445   6.660   3.389   3.349
 2161TIP3   OH2 6446   1.417   0.068   1.215
 2161TIP3    H1 6447   1.486   0.055   1.280
 2161TIP3    H2 6448   1.385   0.157   1.231
 2162TIP3   OH2 6449   2.653   2.266   4.811
 2162TIP3    H1 6450   2.696   2.351   4.808
 2162TIP3    H2 6451   2.593   2.266   4.736
 2163TIP3   OH2 6452   6.489   4.963   1.308
 2163TIP3    H1 6453   6.434   4.932   1.236
 2163TIP3    H2 6454   6.453   4.921   1.386
 2164TIP3   OH2 6455   0.989   5.651   2.342
 2164TIP3    H1 6456   0.906   5.616   2.375
 2164TIP3    H2 6457   1.051   5.579   2.350
 2165TIP3   OH2 6458   4.381   4.481   3.823
 2165TIP3    H1 6459   4.412   4.541   3.891
 2165TIP3    H2 6460   4.290   4.464   3.846
 2166TIP3   OH2 6461   2.797   3.231   3.491
 2166TIP3    H1 6462   2.885   3.265   3.508
 2166TIP3    H2 6463   2.805   3.187   3.406
 2167TIP3   OH2 6464   3.121   3.159   4.978
 2167TIP3    H1 6465   3.070   3.103   4.920
 2167TIP3    H2 6466   3.142   3.236   4.924
 2168TIP3   OH2 6467   5.057   0.646   2.469
 2168TIP3    H1 6468   5.048   0.701   2.391
 2168TIP3    H2 6469   4.994   0.575   2.455
 2169TIP3   OH2 6470   2.750   2.532   4.801
 2169TIP3    H1 6471   2.675   2.579   4.765
 2169TIP3    H2 6472   2.826   2.578   4.766
 2170TIP3   OH2 6473   2.880   4.832   2.374
 2170TIP3    H1 6474   2.885   4.847   2.469
 2170TIP3    H2 6475   2.947   4.889   2.337
 2171TIP3   OH2 6476   0.172   1.271   4.342
 2171TIP3    H1 6477   0.189   1.223   4.423
 2171TIP3    H2 6478   0.169   1.203   4.274
 2172TIP3   OH2 6479   2.373   1.931   2.802
 2172TIP3    H1 6480   2.315   1.860   2.831
 2172TIP3    H2 6481   2.435   1.889   2.743
 2173TIP3   OH2 6482   6.655   5.156   3.454
 2173TIP3    H1 6483   6.585   5.173   3.390
 2173TIP3    H2 6484   6.638   5.067   3.485
 2174TIP3   OH2 6485   3.015   4.240   0.453
 2174TIP3    H1 6486   2.952   4.196   0.396
 2174TIP3    H2 6487   3.097   4.241   0.403
 2175TIP3   OH2 6488   1.913   6.415   0.348
 2175TIP3    H1 6489   1.821   6.396   0.365
 2175TIP3    H2 6490   1.913   6.469   0.268
 2176TIP3   OH2 6491   0.356   0.396   1.887
 2176TIP3    H1 6492   0.443   0.361   1.906
 2176TIP3    H2 6493   0.348   0.390   1.791
 2177TIP3   OH2 6494   0.355   2.566   3.868
 2177TIP3    H1 6495   0.388   2.573   3.957
 2177TIP3    H2 6496   0.338   2.656   3.841
 2178TIP3   OH2 6497   1.641   5.961   3.343
 2178TIP3    H1 6498   1.591   6.036   3.311
 2178TIP3    H2 6499   1.602   5.886   3.298
 2179TIP3   OH2 6500   7.192   5.974   1.683
 2179TIP3    H1 6501   7.222   5.921   1.609
 2179TIP3    H2 6502   7.097   5.976   1.674
 2180TIP3   OH2 6503   3.341   1.263   4.050
 2180TIP3    H1 6504   3.410   1.197   4.041
 2180TIP3    H2 6505   3.380   1.329   4.107
 2181TIP3   OH2 6506   0.449   1.085   4.133
 2181TIP3    H1 6507   0.514   1.149   4.162
 2181TIP3    H2 6508   0.486   1.049   4.052
 2182TIP3   OH2 6509   0.651   6.710   4.181
 2182TIP3    H1 6510   0.589   6.778   4.209
 2182TIP3    H2 6511   0.677   6.735   4.093
 2183TIP3   OH2 6512   4.276   0.525   3.933
 2183TIP3    H1 6513   4.195   0.537   3.884
 2183TIP3    H2 6514   4.283   0.430   3.946
 2184TIP3   OH2 6515   2.024   1.864   1.046
 2184TIP3    H1 6516   2.018   1.908   0.961
 2184TIP3    H2 6517   2.065   1.929   1.104
 2185TIP3   OH2 6518   2.895   1.224   5.779
 2185TIP3    H1 6519   2.916   1.142   5.733
 2185TIP3    H2 6520   2.826   1.263   5.726
 2186TIP3   OH2 6521   5.329   6.430   2.460
 2186TIP3    H1 6522   5.399   6.467   2.406
 2186TIP3    H2 6523   5.358   6.442   2.550
 2187TIP3   OH2 6524   2.478   1.450   0.899
 2187TIP3    H1 6525   2.491   1.544   0.887
 2187TIP3    H2 6526   2.461   1.416   0.811
 2188TIP3   OH2 6527   6.528   2.522   1.093
 2188TIP3    H1 6528   6.596   2.588   1.108
 2188TIP3    H2 6529   6.446   2.567   1.114
 2189TIP3   OH2 6530   5.087   5.324   2.973
 2189TIP3    H1 6531   5.113   5.411   2.943
 2189TIP3    H2 6532   5.109   5.267   2.899
 2190TIP3   OH2 6533   5.315   5.930   3.694
 2190TIP3    H1 6534   5.288   5.900   3.607
 2190TIP3    H2 6535   5.405   5.898   3.704
 2191TIP3   OH2 6536   0.820   3.904   0.720
 2191TIP3    H1 6537   0.828   3.957   0.641
 2191TIP3    H2 6538   0.733   3.864   0.713
 2192TIP3   OH2 6539   7.015   2.887   1.921
 2192TIP3    H1 6540   7.052   2.803   1.946
 2192TIP3    H2 6541   6.923   2.882   1.948
 2193TIP3   OH2 6542   6.039   3.396   2.178
 2193TIP3    H1 6543   6.112   3.352   2.220
 2193TIP3    H2 6544   5.966   3.336   2.187
 2194TIP3   OH2 6545   1.800   5.896   5.414
 2194TIP3    H1 6546   1.790   5.801   5.418
 2194TIP3    H2 6547   1.712   5.930   5.399
 2195TIP3   OH2 6548   1.323   4.612   2.509
 2195TIP3    H1 6549   1.414   4.621   2.538
 2195TIP3    H2 6550   1.299   4.521   2.530
 2196TIP3   OH2 6551   2.664   3.636   3.528
 2196TIP3    H1 6552   2.628   3.560   3.573
 2196TIP3    H2 6553   2.716   3.681   3.595
 2197TIP3   OH2 6554   5.533   3.598   4.350
 2197TIP3    H1 6555   5.486   3.633   4.275
 2197TIP3    H2 6556   5.539   3.504   4.333
 2198TIP3   OH2 6557   3.830   3.067   1.335
 2198TIP3    H1 6558   3.751   3.114   1.309
 2198TIP3    H2 6559   3.805   2.974   1.332
 2199TIP3   OH2 6560   0.856   1.345   2.676
 2199TIP3    H1 6561   0.918   1.353   2.748
 2199TIP3    H2 6562   0.786   1.290   2.711
 2200TIP3   OH2 6563   4.741   1.257   5.157
 2200TIP3    H1 6564   4.810   1.309   5.198
 2200TIP3    H2 6565   4.785   1.178   5.126
 2201TIP3   OH2 6566   4.433   4.245   2.512
 2201TIP3    H1 6567   4.387   4.162   2.526
 2201TIP3    H2 6568   4.508   4.241   2.571
 2202TIP3   OH2 6569   6.344   0.687   5.160
 2202TIP3    H1 6570   6.356   0.609   5.213
 2202TIP3    H2 6571   6.261   0.725   5.190
 2203TIP3   OH2 6572   3.018   6.690   4.692
 2203TIP3    H1 6573   3.113   6.693   4.698
 2203TIP3    H2 6574   3.000   6.672   4.600
 2204TIP3   OH2 6575   2.472   2.632   3.182
 2204TIP3    H1 6576   2.400   2.587   3.139
 2204TIP3    H2 6577   2.543   2.568   3.185
 2205TIP3   OH2 6578   3.774   2.092   1.576
 2205TIP3    H1 6579   3.866   2.087   1.552
 2205TIP3    H2 6580   3.763   2.028   1.646
 2206TIP3   OH2 6581   5.235   2.971   2.765
 2206TIP3    H1 6582   5.323   2.985   2.731
 2206TIP3    H2 6583   5.177   3.008   2.699
 2207TIP3   OH2 6584   1.025   0.452   4.041
 2207TIP3    H1 6585   1.071   0.496   4.113
 2207TIP3    H2 6586   0.936   0.487   4.046
 2208TIP3   OH2 6587   6.437   5.129   1.685
 2208TIP3    H1 6588   6.441   5.158   1.594
 2208TIP3    H2 6589   6.354   5.081   1.692
 2209TIP3   OH2 6590   5.239   1.288   5.424
 2209TIP3    H1 6591   5.177   1.284   5.496
 2209TIP3    H2 6592   5.317   1.331   5.461
 2210TIP3   OH2 6593   0.221   5.599   5.685
 2210TIP3    H1 6594   0.281   5.645   5.627
 2210TIP3    H2 6595   0.155   5.561   5.626
 2211TIP3   OH2 6596   5.018   5.613   3.975
 2211TIP3    H1 6597   4.943   5.658   3.937
 2211TIP3    H2 6598   5.094   5.657   3.937
 2212TIP3   OH2 6599   1.380   6.100   0.272
 2212TIP3    H1 6600   1.357   6.032   0.334
 2212TIP3    H2 6601   1.418   6.053   0.197
 2213TIP3   OH2 6602   6.849   3.907   3.906
 2213TIP3    H1 6603   6.927   3.960   3.924
 2213TIP3    H2 6604   6.823   3.932   3.817
 2214TIP3   OH2 6605   2.304   2.216   1.334
 2214TIP3    H1 6606   2.389   2.242   1.299
 2214TIP3    H2 6607   2.287   2.279   1.404
 2215TIP3   OH2 6608   0.256   3.945   3.652
 2215TIP3    H1 6609   0.336   3.988   3.681
 2215TIP3    H2 6610   0.232   3.991   3.572
 2216TIP3   OH2 6611   5.603   1.328   4.991
 2216TIP3    H1 6612   5.668   1.297   5.054
 2216TIP3    H2 6613   5.592   1.255   4.930
 2217TIP3   OH2 6614   6.446   1.535   4.496
 2217TIP3    H1 6615   6.438   1.486   4.414
 2217TIP3    H2 6616   6.411   1.476   4.563
 2218TIP3   OH2 6617   3.478   0.597   3.021
 2218TIP3    H1 6618   3.516   0.649   3.092
 2218TIP3    H2 6619   3.546   0.598   2.953
 2219TIP3   OH2 6620   1.365   3.603   3.924
 2219TIP3    H1 6621   1.351   3.632   4.014
 2219TIP3    H2 6622   1.460   3.601   3.914
 2220TIP3   OH2 6623   6.342   4.208   5.401
 2220TIP3    H1 6624   6.275   4.277   5.397
 2220TIP3    H2 6625   6.334   4.172   5.490
 2221TIP3   OH2 6626   3.816   5.953   2.232
 2221TIP3    H1 6627   3.744   5.899   2.198
 2221TIP3    H2 6628   3.812   6.033   2.179
 2222TIP3   OH2 6629   1.826   1.590   4.072
 2222TIP3    H1 6630   1.781   1.665   4.032
 2222TIP3    H2 6631   1.847   1.533   3.998
 2223TIP3   OH2 6632   4.306   4.694   2.166
 2223TIP3    H1 6633   4.362   4.739   2.229
 2223TIP3    H2 6634   4.328   4.601   2.176
 2224TIP3   OH2 6635   3.725   4.651   1.435
 2224TIP3    H1 6636   3.816   4.673   1.454
 2224TIP3    H2 6637   3.730   4.586   1.365
 2225TIP3   OH2 6638   0.612   4.299   4.244
 2225TIP3    H1 6639   0.552   4.364   4.209
 2225TIP3    H2 6640   0.558   4.248   4.306
 2226TIP3   OH2 6641   1.438   2.894   5.544
 2226TIP3    H1 6642   1.387   2.819   5.575
 2226TIP3    H2 6643   1.382   2.936   5.479
 2227TIP3   OH2 6644   2.704   2.270   0.033
 2227TIP3    H1 6645   2.758   2.348   0.020
 2227TIP3    H2 6646   2.621   2.292  -0.010
 2228TIP3   OH2 6647   3.951   4.749   3.313
 2228TIP3    H1 6648   4.033   4.743   3.361
 2228TIP3    H2 6649   3.913   4.833   3.342
 2229TIP3   OH2 6650   3.321   5.634   2.339
 2229TIP3    H1 6651   3.401   5.588   2.313
 2229TIP3    H2 6652   3.288   5.584   2.415
 2230TIP3   OH2 6653   2.559   5.042   1.275
 2230TIP3    H1 6654   2.467   5.030   1.297
 2230TIP3    H2 6655   2.607   4.998   1.345
 2231TIP3   OH2 6656   3.981   5.038   2.439
 2231TIP3    H1 6657   3.968   5.097   2.364
 2231TIP3    H2 6658   4.075   5.021   2.439
 2232TIP3   OH2 6659   1.112   6.410   3.156
 2232TIP3    H1 6660   1.079   6.394   3.068
 2232TIP3    H2 6661   1.095   6.328   3.203
 2233TIP3   OH2 6662   2.681   6.214   5.474
 2233TIP3    H1 6663   2.600   6.230   5.522
 2233TIP3    H2 6664   2.717   6.135   5.514
 2234TIP3   OH2 6665   0.708   5.277   5.738
 2234TIP3    H1 6666   0.676   5.305   5.652
 2234TIP3    H2 6667   0.794   5.319   5.746
 2235TIP3   OH2 6668   5.461   5.180   0.162
 2235TIP3    H1 6669   5.514   5.230   0.100
 2235TIP3    H2 6670   5.378   5.227   0.166
 2236TIP3   OH2 6671   5.995   0.793   3.449
 2236TIP3    H1 6672   6.048   0.860   3.407
 2236TIP3    H2 6673   5.911   0.836   3.467
 2237TIP3   OH2 6674   1.400   3.020   3.807
 2237TIP3    H1 6675   1.325   3.015   3.867
 2237TIP3    H2 6676   1.412   2.930   3.777
 2238TIP3   OH2 6677   0.960   3.982   0.949
 2238TIP3    H1 6678   0.917   4.062   0.978
 2238TIP3    H2 6679   0.911   3.956   0.871
 2239TIP3   OH2 6680   0.318   1.690   5.380
 2239TIP3    H1 6681   0.259   1.615   5.393
 2239TIP3    H2 6682   0.270   1.765   5.415
 2240TIP3   OH2 6683   0.362   5.199   3.426
 2240TIP3    H1 6684   0.411   5.130   3.381
 2240TIP3    H2 6685   0.289   5.219   3.366
 2241TIP3   OH2 6686   1.899   6.005   1.029
 2241TIP3    H1 6687   1.907   5.914   1.058
 2241TIP3    H2 6688   1.983   6.046   1.051
 2242TIP3   OH2 6689   1.209   3.893   1.190
 2242TIP3    H1 6690   1.300   3.893   1.220
 2242TIP3    H2 6691   1.215   3.887   1.095
 2243TIP3   OH2 6692   6.349   4.474   3.853
 2243TIP3    H1 6693   6.332   4.426   3.934
 2243TIP3    H2 6694   6.317   4.416   3.783
 2244TIP3   OH2 6695   4.029   2.625   3.124
 2244TIP3    H1 6696   4.102   2.592   3.071
 2244TIP3    H2 6697   4.069   2.684   3.187
 2245TIP3   OH2 6698   2.723   5.904   0.848
 2245TIP3    H1 6699   2.810   5.889   0.884
 2245TIP3    H2 6700   2.676   5.822   0.863
 2246TIP3   OH2 6701   2.702   6.131   2.591
 2246TIP3    H1 6702   2.764   6.061   2.570
 2246TIP3    H2 6703   2.618   6.086   2.602
 2247TIP3   OH2 6704   3.452   2.579   3.877
 2247TIP3    H1 6705   3.395   2.649   3.844
 2247TIP3    H2 6706   3.516   2.565   3.807
 2248TIP3   OH2 6707   0.514   6.272   0.025
 2248TIP3    H1 6708   0.559   6.188   0.024
 2248TIP3    H2 6709   0.421   6.250   0.018
 2249TIP3   OH2 6710   5.236   0.352   4.826
 2249TIP3    H1 6711   5.283   0.270   4.818
 2249TIP3    H2 6712   5.270   0.393   4.906
 2250TIP3   OH2 6713   4.987   1.574   1.937
 2250TIP3    H1 6714   5.013   1.612   1.853
 2250TIP3    H2 6715   5.053   1.506   1.954
 2251TIP3   OH2 6716   0.836   6.192   3.281
 2251TIP3    H1 6717   0.782   6.148   3.347
 2251TIP3    H2 6718   0.921   6.149   3.287
 2252TIP3   OH2 6719   4.058   0.210   4.695
 2252TIP3    H1 6720   4.118   0.280   4.718
 2252TIP3    H2 6721   4.057   0.209   4.599
 2253TIP3   OH2 6722   4.967   0.950   3.103
 2253TIP3    H1 6723   4.999   0.958   3.013
 2253TIP3    H2 6724   4.911   1.027   3.115
 2254TIP3   OH2 6725   1.745   2.220   1.394
 2254TIP3    H1 6726   1.686   2.267   1.454
 2254TIP3    H2 6727   1.827   2.270   1.397
 2255TIP3   OH2 6728   0.099   0.986   3.207
 2255TIP3    H1 6729   0.105   0.913   3.268
 2255TIP3    H2 6730   0.005   0.995   3.190
 2256TIP3   OH2 6731   4.159   4.928   3.939
 2256TIP3    H1 6732   4.108   5.006   3.914
 2256TIP3    H2 6733   4.207   4.905   3.860
 2257TIP3   OH2 6734   0.656   5.046   1.526
 2257TIP3    H1 6735   0.662   4.980   1.595
 2257TIP3    H2 6736   0.622   4.999   1.450
 2258TIP3   OH2 6737   7.112   3.182   0.791
 2258TIP3    H1 6738   7.074   3.148   0.710
 2258TIP3    H2 6739   7.081   3.122   0.859
 2259TIP3   OH2 6740   3.248   4.319   2.482
 2259TIP3    H1 6741   3.237   4.229   2.450
 2259TIP3    H2 6742   3.342   4.335   2.475
 2260TIP3   OH2 6743   4.626   1.004   4.654
 2260TIP3    H1 6744   4.544   0.977   4.612
 2260TIP3    H2 6745   4.607   1.000   4.747
 2261TIP3   OH2 6746   1.055   4.116   1.509
 2261TIP3    H1 6747   1.044   4.075   1.594
 2261TIP3    H2 6748   1.015   4.055   1.447
 2262TIP3   OH2 6749   5.481   5.288   5.132
 2262TIP3    H1 6750   5.541   5.290   5.057
 2262TIP3    H2 6751   5.394   5.288   5.093
 2263TIP3   OH2 6752   1.738   3.185   2.695
 2263TIP3    H1 6753   1.755   3.270   2.735
 2263TIP3    H2 6754   1.740   3.202   2.600
 2264TIP3   OH2 6755   1.105   3.792   0.216
 2264TIP3    H1 6756   1.158   3.851   0.162
 2264TIP3    H2 6757   1.165   3.721   0.240
 2265TIP3   OH2 6758   5.304   0.456   5.089
 2265TIP3    H1 6759   5.295   0.547   5.117
 2265TIP3    H2 6760   5.293   0.406   5.170
 2266TIP3   OH2 6761   3.811   3.875   1.638
 2266TIP3    H1 6762   3.845   3.964   1.646
 2266TIP3    H2 6763   3.771   3.872   1.551
 2267TIP3   OH2 6764   6.089   3.314   4.555
 2267TIP3    H1 6765   6.173   3.293   4.594
 2267TIP3    H2 6766   6.104   3.396   4.507
 2268TIP3   OH2 6767   2.509   6.768   1.508
 2268TIP3    H1 6768   2.493   6.862   1.505
 2268TIP3    H2 6769   2.555   6.748   1.427
 2269TIP3   OH2 6770   1.885   2.094   5.286
 2269TIP3    H1 6771   1.949   2.142   5.339
 2269TIP3    H2 6772   1.936   2.026   5.242
 2270TIP3   OH2 6773   1.538   3.974   5.689
 2270TIP3    H1 6774   1.622   3.956   5.648
 2270TIP3    H2 6775   1.557   3.980   5.782
 2271TIP3   OH2 6776   4.524   6.622   5.763
 2271TIP3    H1 6777   4.457   6.618   5.695
 2271TIP3    H2 6778   4.475   6.631   5.845
 2272TIP3   OH2 6779   6.444   6.366   5.642
 2272TIP3    H1 6780   6.411   6.311   5.570
 2272TIP3    H2 6781   6.455   6.305   5.715
 2273TIP3   OH2 6782   5.198   6.707   0.525
 2273TIP3    H1 6783   5.274   6.700   0.583
 2273TIP3    H2 6784   5.148   6.781   0.560
 2274TIP3   OH2 6785   0.625   1.300   3.295
 2274TIP3    H1 6786   0.705   1.339   3.329
 2274TIP3    H2 6787   0.555   1.342   3.344
 2275TIP3   OH2 6788   3.303   4.121   5.494
 2275TIP3    H1 6789   3.244   4.193   5.472
 2275TIP3    H2 6790   3.244   4.047   5.511
 2276TIP3   OH2 6791   4.506   5.343   3.110
 2276TIP3    H1 6792   4.583   5.299   3.147
 2276TIP3    H2 6793   4.460   5.378   3.185
 2277TIP3   OH2 6794   1.655   1.097   1.523
 2277TIP3    H1 6795   1.703   1.084   1.605
 2277TIP3    H2 6796   1.651   1.192   1.512
 2278TIP3   OH2 6797   0.139   2.042   3.526
 2278TIP3    H1 6798   0.171   2.096   3.454
 2278TIP3    H2 6799   0.091   1.971   3.483
 2279TIP3   OH2 6800  -0.017   5.783   3.093
 2279TIP3    H1 6801   0.050   5.756   3.030
 2279TIP3    H2 6802   0.030   5.839   3.155
 2280TIP3   OH2 6803   1.967   6.106   0.708
 2280TIP3    H1 6804   2.048   6.103   0.658
 2280TIP3    H2 6805   1.899   6.122   0.642
 2281TIP3   OH2 6806   1.103   1.351   1.306
 2281TIP3    H1 6807   1.091   1.348   1.401
 2281TIP3    H2 6808   1.185   1.399   1.294
 2282TIP3   OH2 6809   6.175   6.243   3.829
 2282TIP3    H1 6810   6.268   6.221   3.835
 2282TIP3    H2 6811   6.133   6.161   3.804
 2283TIP3   OH2 6812   3.208   1.779   1.110
 2283TIP3    H1 6813   3.128   1.730   1.088
 2283TIP3    H2 6814   3.252   1.790   1.026
 2284TIP3   OH2 6815   5.010   1.811   1.026
 2284TIP3    H1 6816   5.030   1.775   1.112
 2284TIP3    H2 6817   5.091   1.800   0.975
 2285TIP3   OH2 6818   5.370   1.203   0.659
 2285TIP3    H1 6819   5.299   1.153   0.698
 2285TIP3    H2 6820   5.433   1.136   0.630
 2286TIP3   OH2 6821   4.838   4.555   1.889
 2286TIP3    H1 6822   4.782   4.616   1.937
 2286TIP3    H2 6823   4.858   4.600   1.807
 2287TIP3   OH2 6824   3.435   6.357   2.715
 2287TIP3    H1 6825   3.408   6.373   2.805
 2287TIP3    H2 6826   3.453   6.264   2.710
 2288TIP3   OH2 6827   4.223   0.577   4.518
 2288TIP3    H1 6828   4.251   0.597   4.428
 2288TIP3    H2 6829   4.206   0.663   4.557
 2289TIP3   OH2 6830   0.755   4.619   1.792
 2289TIP3    H1 6831   0.841   4.599   1.755
 2289TIP3    H2 6832   0.754   4.576   1.877
 2290TIP3   OH2 6833   7.137   6.710   0.267
 2290TIP3    H1 6834   7.142   6.626   0.221
 2290TIP3    H2 6835   7.047   6.738   0.256
 2291TIP3   OH2 6836   3.293   4.086   1.985
 2291TIP3    H1 6837   3.351   4.088   2.062
 2291TIP3    H2 6838   3.205   4.081   2.022
 2292TIP3   OH2 6839   3.466   2.008   2.413
 2292TIP3    H1 6840   3.425   2.066   2.477
 2292TIP3    H2 6841   3.401   1.999   2.344
 2293TIP3   OH2 6842   1.212   5.154   2.423
 2293TIP3    H1 6843   1.180   5.158   2.513
 2293TIP3    H2 6844   1.252   5.068   2.415
 2294TIP3   OH2 6845   5.166   1.872   0.454
 2294TIP3    H1 6846   5.198   1.854   0.365
 2294TIP3    H2 6847   5.245   1.887   0.505
 2295TIP3   OH2 6848   0.762   0.719   0.462
 2295TIP3    H1 6849   0.846   0.674   0.452
 2295TIP3    H2 6850   0.765   0.788   0.396
 2296TIP3   OH2 6851   5.124   3.917   2.738
 2296TIP3    H1 6852   5.163   3.902   2.652
 2296TIP3    H2 6853   5.104   4.010   2.741
 2297TIP3   OH2 6854   1.776   0.549   0.864
 2297TIP3    H1 6855   1.796   0.503   0.783
 2297TIP3    H2 6856   1.740   0.633   0.836
 2298TIP3   OH2 6857   4.907   0.169   2.723
 2298TIP3    H1 6858   4.926   0.113   2.648
 2298TIP3    H2 6859   4.822   0.209   2.702
 2299TIP3   OH2 6860   0.098   5.276   2.537
 2299TIP3    H1 6861   0.046   5.355   2.523
 2299TIP3    H2 6862   0.036   5.204   2.527
 2300TIP3   OH2 6863   1.275   2.009   4.530
 2300TIP3    H1 6864   1.259   1.993   4.437
 2300TIP3    H2 6865   1.221   2.086   4.551
 2301TIP3   OH2 6866   0.195   2.193   2.844
 2301TIP3    H1 6867   0.279   2.157   2.872
 2301TIP3    H2 6868   0.187   2.166   2.753
 2302TIP3   OH2 6869   2.329   0.254   2.243
 2302TIP3    H1 6870   2.295   0.344   2.245
 2302TIP3    H2 6871   2.374   0.244   2.327
 2303TIP3   OH2 6872   5.054   2.270   2.422
 2303TIP3    H1 6873   5.133   2.318   2.447
 2303TIP3    H2 6874   5.078   2.178   2.435
 2304TIP3   OH2 6875   1.455   5.316   1.062
 2304TIP3    H1 6876   1.396   5.247   1.094
 2304TIP3    H2 6877   1.441   5.318   0.968
 2305TIP3   OH2 6878   3.534   5.208   4.931
 2305TIP3    H1 6879   3.545   5.290   4.978
 2305TIP3    H2 6880   3.583   5.143   4.982
 2306TIP3   OH2 6881   0.547   2.340   1.497
 2306TIP3    H1 6882   0.574   2.268   1.555
 2306TIP3    H2 6883   0.492   2.298   1.431
 2307TIP3   OH2 6884   2.856   0.579   5.588
 2307TIP3    H1 6885   2.826   0.661   5.626
 2307TIP3    H2 6886   2.927   0.550   5.646
 2308TIP3   OH2 6887   5.736   0.931   3.463
 2308TIP3    H1 6888   5.641   0.935   3.454
 2308TIP3    H2 6889   5.758   1.006   3.518
 2309TIP3   OH2 6890   3.697   4.992   2.496
 2309TIP3    H1 6891   3.787   5.003   2.468
 2309TIP3    H2 6892   3.659   5.080   2.493
 2310TIP3   OH2 6893   0.646   3.688   1.033
 2310TIP3    H1 6894   0.576   3.746   1.002
 2310TIP3    H2 6895   0.602   3.607   1.056
 2311TIP3   OH2 6896   0.410   6.172   1.432
 2311TIP3    H1 6897   0.466   6.173   1.354
 2311TIP3    H2 6898   0.471   6.165   1.505
 2312TIP3   OH2 6899   6.983   6.189   1.249
 2312TIP3    H1 6900   7.053   6.135   1.286
 2312TIP3    H2 6901   6.981   6.267   1.305
 2313TIP3   OH2 6902   1.680   1.977   0.857
 2313TIP3    H1 6903   1.622   2.053   0.867
 2313TIP3    H2 6904   1.766   2.009   0.882
 2314TIP3   OH2 6905   5.790   0.746   4.172
 2314TIP3    H1 6906   5.832   0.825   4.139
 2314TIP3    H2 6907   5.715   0.779   4.222
 2315TIP3   OH2 6908   6.960   2.941   1.511
 2315TIP3    H1 6909   6.944   2.969   1.421
 2315TIP3    H2 6910   6.936   2.848   1.512
 2316TIP3   OH2 6911   1.692   3.764   0.986
 2316TIP3    H1 6912   1.754   3.828   0.952
 2316TIP3    H2 6913   1.691   3.694   0.921
 2317TIP3   OH2 6914   5.279   3.526   5.509
 2317TIP3    H1 6915   5.372   3.547   5.511
 2317TIP3    H2 6916   5.266   3.480   5.426
 2318TIP3   OH2 6917   5.176   3.249   3.298
 2318TIP3    H1 6918   5.105   3.308   3.322
 2318TIP3    H2 6919   5.132   3.167   3.276
 2319TIP3   OH2 6920   3.279   1.725   0.126
 2319TIP3    H1 6921   3.280   1.753   0.218
 2319TIP3    H2 6922   3.199   1.763   0.091
 2320TIP3   OH2 6923   3.720   5.442   2.775
 2320TIP3    H1 6924   3.658   5.371   2.757
 2320TIP3    H2 6925   3.792   5.428   2.714
 2321TIP3   OH2 6926   3.247   4.252   0.836
 2321TIP3    H1 6927   3.296   4.301   0.902
 2321TIP3    H2 6928   3.219   4.172   0.880
 2322TIP3   OH2 6929   1.389   5.010   2.090
 2322TIP3    H1 6930   1.461   4.983   2.147
 2322TIP3    H2 6931   1.391   5.106   2.093
 2323TIP3   OH2 6932   2.008   3.339   3.060
 2323TIP3    H1 6933   2.037   3.250   3.081
 2323TIP3    H2 6934   2.089   3.387   3.040
 2324TIP3   OH2 6935   4.187   6.375   0.329
 2324TIP3    H1 6936   4.168   6.356   0.421
 2324TIP3    H2 6937   4.174   6.469   0.321
 2325TIP3   OH2 6938   3.973   3.271   2.739
 2325TIP3    H1 6939   4.030   3.307   2.672
 2325TIP3    H2 6940   4.032   3.247   2.811
 2326TIP3   OH2 6941   1.078   3.464   4.391
 2326TIP3    H1 6942   1.162   3.439   4.351
 2326TIP3    H2 6943   1.090   3.448   4.484
 2327TIP3   OH2 6944   0.340   0.577   0.155
 2327TIP3    H1 6945   0.425   0.620   0.162
 2327TIP3    H2 6946   0.283   0.628   0.212
 2328TIP3   OH2 6947   5.282   5.981   0.864
 2328TIP3    H1 6948   5.202   5.987   0.812
 2328TIP3    H2 6949   5.305   5.888   0.862
 2329TIP3   OH2 6950   1.118   1.741   4.406
 2329TIP3    H1 6951   1.066   1.807   4.450
 2329TIP3    H2 6952   1.095   1.659   4.450
 2330TIP3   OH2 6953   0.313   5.211   2.692
 2330TIP3    H1 6954   0.267   5.135   2.726
 2330TIP3    H2 6955   0.254   5.249   2.627
 2331TIP3   OH2 6956   0.405   0.934   4.803
 2331TIP3    H1 6957   0.499   0.919   4.809
 2331TIP3    H2 6958   0.380   0.964   4.891
 2332TIP3   OH2 6959   1.943   3.273   2.476
 2332TIP3    H1 6960   1.986   3.312   2.399
 2332TIP3    H2 6961   1.982   3.319   2.550
 2333TIP3   OH2 6962   2.377   4.704   1.574
 2333TIP3    H1 6963   2.374   4.792   1.535
 2333TIP3    H2 6964   2.286   4.686   1.598
 2334TIP3   OH2 6965   4.391   5.824   2.365
 2334TIP3    H1 6966   4.477   5.806   2.327
 2334TIP3    H2 6967   4.331   5.818   2.291
 2335TIP3   OH2 6968   2.420   0.112   4.990
 2335TIP3    H1 6969   2.474   0.184   5.023
 2335TIP3    H2 6970   2.483   0.049   4.955
 2336TIP3   OH2 6971   1.131   1.470   4.527
 2336TIP3    H1 6972   1.180   1.452   4.446
 2336TIP3    H2 6973   1.139   1.390   4.578
 2337TIP3   OH2 6974   0.728   6.437   2.361
 2337TIP3    H1 6975   0.775   6.478   2.434
 2337TIP3    H2 6976   0.782   6.457   2.284
 2338TIP3   OH2 6977   3.016   1.862   1.608
 2338TIP3    H1 6978   3.040   1.854   1.516
 2338TIP3    H2 6979   2.932   1.816   1.614
 2339TIP3   OH2 6980   2.050   5.065   4.760
 2339TIP3    H1 6981   2.002   5.049   4.679
 2339TIP3    H2 6982   2.080   4.978   4.788
 2340TIP3   OH2 6983   2.936   5.680   1.759
 2340TIP3    H1 6984   2.866   5.729   1.717
 2340TIP3    H2 6985   2.905   5.590   1.761
 2341TIP3   OH2 6986   5.865   5.795   4.058
 2341TIP3    H1 6987   5.786   5.742   4.071
 2341TIP3    H2 6988   5.936   5.738   4.088
 2342TIP3   OH2 6989   3.743   4.949   1.484
 2342TIP3    H1 6990   3.819   4.991   1.524
 2342TIP3    H2 6991   3.747   4.858   1.513
 2343TIP3   OH2 6992   5.935   3.733   2.548
 2343TIP3    H1 6993   5.955   3.711   2.457
 2343TIP3    H2 6994   5.852   3.781   2.544
 2344TIP3   OH2 6995   0.472   1.221   0.806
 2344TIP3    H1 6996   0.495   1.269   0.885
 2344TIP3    H2 6997   0.513   1.135   0.818
 2345TIP3   OH2 6998   6.106   5.885   4.580
 2345TIP3    H1 6999   6.152   5.968   4.591
 2345TIP3    H2 7000   6.107   5.869   4.486
 2346TIP3   OH2 7001   1.684   1.506   5.298
 2346TIP3    H1 7002   1.769   1.500   5.341
 2346TIP3    H2 7003   1.677   1.598   5.271
 2347TIP3   OH2 7004   1.549   1.775   3.938
 2347TIP3    H1 7005   1.536   1.681   3.952
 2347TIP3    H2 7006   1.580   1.781   3.848
 2348TIP3   OH2 7007   5.896   3.690   3.731
 2348TIP3    H1 7008   5.919   3.741   3.809
 2348TIP3    H2 7009   5.953   3.725   3.662
 2349TIP3   OH2 7010   2.900   6.042   5.623
 2349TIP3    H1 7011   2.987   6.008   5.603
 2349TIP3    H2 7012   2.915   6.111   5.688
 2350TIP3   OH2 7013   6.588   5.323   0.260
 2350TIP3    H1 7014   6.512   5.311   0.202
 2350TIP3    H2 7015   6.551   5.317   0.348
 2351TIP3   OH2 7016   2.582   1.357   3.040
 2351TIP3    H1 7017   2.513   1.418   3.066
 2351TIP3    H2 7018   2.662   1.410   3.039
 2352TIP3   OH2 7019   4.548   0.310   1.872
 2352TIP3    H1 7020   4.460   0.348   1.860
 2352TIP3    H2 7021   4.557   0.248   1.799
 2353TIP3   OH2 7022   1.596   4.070   3.825
 2353TIP3    H1 7023   1.584   3.993   3.769
 2353TIP3    H2 7024   1.673   4.049   3.878
 2354TIP3   OH2 7025   5.563   4.551   4.247
 2354TIP3    H1 7026   5.485   4.496   4.240
 2354TIP3    H2 7027   5.530   4.636   4.274
 2355TIP3   OH2 7028   2.519   2.624   3.980
 2355TIP3    H1 7029   2.505   2.606   4.073
 2355TIP3    H2 7030   2.449   2.577   3.936
 2356TIP3   OH2 7031   3.418   6.675   2.997
 2356TIP3    H1 7032   3.409   6.765   2.967
 2356TIP3    H2 7033   3.337   6.632   2.969
 2357TIP3   OH2 7034   3.573   1.706   2.134
 2357TIP3    H1 7035   3.480   1.721   2.151
 2357TIP3    H2 7036   3.618   1.762   2.198
 2358TIP3   OH2 7037   4.298   5.031   0.400
 2358TIP3    H1 7038   4.293   5.073   0.485
 2358TIP3    H2 7039   4.210   4.999   0.383
 2359TIP3   OH2 7040   1.384   0.324   1.283
 2359TIP3    H1 7041   1.394   0.383   1.358
 2359TIP3    H2 7042   1.333   0.375   1.220
 2360TIP3   OH2 7043   6.307   4.437   1.004
 2360TIP3    H1 7044   6.396   4.402   0.995
 2360TIP3    H2 7045   6.319   4.530   1.019
 2361TIP3   OH2 7046   1.888   1.519   4.328
 2361TIP3    H1 7047   1.829   1.444   4.342
 2361TIP3    H2 7048   1.870   1.547   4.238
 2362TIP3   OH2 7049   5.651   6.748   5.716
 2362TIP3    H1 7050   5.665   6.842   5.713
 2362TIP3    H2 7051   5.738   6.710   5.703
 2363TIP3   OH2 7052   5.842   3.453   1.113
 2363TIP3    H1 7053   5.859   3.541   1.148
 2363TIP3    H2 7054   5.880   3.394   1.177
 2364TIP3   OH2 7055   6.998   5.526   5.188
 2364TIP3    H1 7056   7.067   5.474   5.229
 2364TIP3    H2 7057   6.917   5.494   5.228
 2365TIP3   OH2 7058   6.332   2.266   1.627
 2365TIP3    H1 7059   6.351   2.243   1.536
 2365TIP3    H2 7060   6.371   2.196   1.678
 2366TIP3   OH2 7061   0.904   2.273   4.184
 2366TIP3    H1 7062   0.818   2.230   4.181
 2366TIP3    H2 7063   0.889   2.360   4.148
 2367TIP3   OH2 7064   4.559   6.534   0.382
 2367TIP3    H1 7065   4.558   6.544   0.477
 2367TIP3    H2 7066   4.521   6.615   0.349
 2368TIP3   OH2 7067   1.231   4.580   1.338
 2368TIP3    H1 7068   1.169   4.512   1.311
 2368TIP3    H2 7069   1.316   4.548   1.307
 2369TIP3   OH2 7070   6.020   5.615   4.200
 2369TIP3    H1 7071   6.057   5.597   4.113
 2369TIP3    H2 7072   6.002   5.529   4.237
 2370TIP3   OH2 7073   6.920   6.524   4.663
 2370TIP3    H1 7074   6.836   6.502   4.702
 2370TIP3    H2 7075   6.898   6.574   4.585
 2371TIP3   OH2 7076   2.997   5.008   0.706
 2371TIP3    H1 7077   2.994   5.076   0.774
 2371TIP3    H2 7078   2.932   5.036   0.641
 2372TIP3   OH2 7079   2.012   5.487   1.430
 2372TIP3    H1 7080   2.029   5.405   1.476
 2372TIP3    H2 7081   2.075   5.489   1.358
 2373TIP3   OH2 7082   6.077   5.997   3.796
 2373TIP3    H1 7083   6.059   5.954   3.713
 2373TIP3    H2 7084   5.992   6.026   3.827
 2374TIP3   OH2 7085   2.448   6.728   5.032
 2374TIP3    H1 7086   2.418   6.816   5.055
 2374TIP3    H2 7087   2.497   6.699   5.110
 2375TIP3   OH2 7088   1.539   5.268   1.651
 2375TIP3    H1 7089   1.536   5.316   1.734
 2375TIP3    H2 7090   1.592   5.323   1.593
 2376TIP3   OH2 7091   4.530   4.347   5.022
 2376TIP3    H1 7092   4.491   4.423   4.978
 2376TIP3    H2 7093   4.500   4.272   4.971
 2377TIP3   OH2 7094   6.415   0.745   1.633
 2377TIP3    H1 7095   6.454   0.784   1.555
 2377TIP3    H2 7096   6.383   0.660   1.605
 2378TIP3   OH2 7097   0.972   1.190   2.093
 2378TIP3    H1 7098   0.992   1.103   2.129
 2378TIP3    H2 7099   0.973   1.176   1.998
 2379TIP3   OH2 7100   2.801   4.199   0.282
 2379TIP3    H1 7101   2.763   4.130   0.227
 2379TIP3    H2 7102   2.805   4.275   0.224
 2380TIP3   OH2 7103   0.431   4.348   5.577
 2380TIP3    H1 7104   0.348   4.376   5.540
 2380TIP3    H2 7105   0.467   4.427   5.618
 2381TIP3   OH2 7106   2.705   2.150   0.579
 2381TIP3    H1 7107   2.771   2.182   0.518
 2381TIP3    H2 7108   2.751   2.083   0.631
 2382TIP3   OH2 7109   3.191   0.878   4.009
 2382TIP3    H1 7110   3.133   0.945   3.971
 2382TIP3    H2 7111   3.231   0.921   4.085
 2383TIP3   OH2 7112  -0.005   2.038   3.240
 2383TIP3    H1 7113  -0.064   1.994   3.301
 2383TIP3    H2 7114   0.019   2.119   3.284
 2384TIP3   OH2 7115   7.134   0.672   2.654
 2384TIP3    H1 7116   7.221   0.710   2.666
 2384TIP3    H2 7117   7.107   0.701   2.567
 2385TIP3   OH2 7118   7.148   4.711   5.547
 2385TIP3    H1 7119   7.140   4.790   5.600
 2385TIP3    H2 7120   7.072   4.713   5.489
 2386TIP3   OH2 7121   1.659   5.165   2.240
 2386TIP3    H1 7122   1.602   5.214   2.299
 2386TIP3    H2 7123   1.695   5.095   2.295
 2387TIP3   OH2 7124   4.428   1.182   4.822
 2387TIP3    H1 7125   4.478   1.106   4.850
 2387TIP3    H2 7126   4.338   1.163   4.849
 2388TIP3   OH2 7127   5.641   5.464   5.686
 2388TIP3    H1 7128   5.700   5.452   5.611
 2388TIP3    H2 7129   5.603   5.550   5.673
 2389TIP3   OH2 7130   1.110   2.562   4.089
 2389TIP3    H1 7131   1.019   2.579   4.065
 2389TIP3    H2 7132   1.144   2.508   4.017
 2390TIP3   OH2 7133   5.672   4.463   1.777
 2390TIP3    H1 7134   5.751   4.413   1.799
 2390TIP3    H2 7135   5.652   4.437   1.687
 2391TIP3   OH2 7136   6.864   2.400   0.150
 2391TIP3    H1 7137   6.789   2.412   0.091
 2391TIP3    H2 7138   6.844   2.319   0.197
 2392TIP3   OH2 7139   6.952   5.008   5.428
 2392TIP3    H1 7140   6.904   5.072   5.377
 2392TIP3    H2 7141   6.925   4.923   5.393
 2393TIP3   OH2 7142   2.766   2.000   3.301
 2393TIP3    H1 7143   2.711   2.023   3.376
 2393TIP3    H2 7144   2.755   1.906   3.291
 2394TIP3   OH2 7145   6.624   2.160   5.358
 2394TIP3    H1 7146   6.610   2.155   5.263
 2394TIP3    H2 7147   6.580   2.082   5.393
 2395TIP3   OH2 7148   5.839   4.397   1.405
 2395TIP3    H1 7149   5.926   4.438   1.401
 2395TIP3    H2 7150   5.837   4.338   1.330
 2396TIP3   OH2 7151   1.861   0.605   3.234
 2396TIP3    H1 7152   1.830   0.643   3.317
 2396TIP3    H2 7153   1.780   0.582   3.188
 2397TIP3   OH2 7154   2.128   1.960   5.450
 2397TIP3    H1 7155   2.187   1.894   5.486
 2397TIP3    H2 7156   2.170   2.044   5.471
 2398TIP3   OH2 7157   3.466   2.230   5.332
 2398TIP3    H1 7158   3.485   2.142   5.366
 2398TIP3    H2 7159   3.370   2.235   5.331
 2399TIP3   OH2 7160   6.773   5.146   1.724
 2399TIP3    H1 7161   6.687   5.118   1.693
 2399TIP3    H2 7162   6.811   5.068   1.764
 2400TIP3   OH2 7163   0.118   3.090   1.503
 2400TIP3    H1 7164   0.094   3.056   1.417
 2400TIP3    H2 7165   0.050   3.056   1.562
 2401TIP3   OH2 7166   0.782   5.169   4.519
 2401TIP3    H1 7167   0.768   5.204   4.431
 2401TIP3    H2 7168   0.699   5.126   4.541
 2402TIP3   OH2 7169   3.504   4.404   0.719
 2402TIP3    H1 7170   3.425   4.456   0.734
 2402TIP3    H2 7171   3.505   4.341   0.791
 2403TIP3   OH2 7172   2.545   4.215   4.979
 2403TIP3    H1 7173   2.514   4.239   5.066
 2403TIP3    H2 7174   2.493   4.138   4.955
 2404TIP3   OH2 7175   4.179   2.176   1.017
 2404TIP3    H1 7176   4.157   2.101   1.074
 2404TIP3    H2 7177   4.121   2.167   0.942
 2405TIP3   OH2 7178   7.130   4.937   5.720
 2405TIP3    H1 7179   7.135   4.985   5.803
 2405TIP3    H2 7180   7.109   5.004   5.655
 2406TIP3   OH2 7181   4.720   0.272   5.655
 2406TIP3    H1 7182   4.734   0.188   5.610
 2406TIP3    H2 7183   4.808   0.300   5.680
 2407TIP3   OH2 7184   3.161   2.346   2.928
 2407TIP3    H1 7185   3.213   2.350   3.009
 2407TIP3    H2 7186   3.135   2.254   2.922
 2408TIP3   OH2 7187   5.451   0.398   0.904
 2408TIP3    H1 7188   5.385   0.391   0.973
 2408TIP3    H2 7189   5.406   0.367   0.825
 2409TIP3   OH2 7190   5.884   0.593   5.517
 2409TIP3    H1 7191   5.929   0.554   5.442
 2409TIP3    H2 7192   5.878   0.523   5.582
 2410TIP3   OH2 7193   1.322   2.779   0.666
 2410TIP3    H1 7194   1.406   2.735   0.676
 2410TIP3    H2 7195   1.314   2.834   0.745
 2411TIP3   OH2 7196   1.538   5.966   5.430
 2411TIP3    H1 7197   1.575   6.051   5.408
 2411TIP3    H2 7198   1.459   5.960   5.376
 2412TIP3   OH2 7199   2.222   5.698   4.107
 2412TIP3    H1 7200   2.308   5.678   4.145
 2412TIP3    H2 7201   2.181   5.758   4.169
 2413TIP3   OH2 7202   6.122   5.098   3.090
 2413TIP3    H1 7203   6.195   5.160   3.096
 2413TIP3    H2 7204   6.147   5.037   3.021
 2414TIP3   OH2 7205   2.513   2.394   4.592
 2414TIP3    H1 7206   2.557   2.477   4.610
 2414TIP3    H2 7207   2.565   2.352   4.524
 2415TIP3   OH2 7208   6.363   2.587   3.473
 2415TIP3    H1 7209   6.438   2.580   3.414
 2415TIP3    H2 7210   6.306   2.652   3.432
 2416TIP3   OH2 7211   1.263   3.422   2.668
 2416TIP3    H1 7212   1.209   3.428   2.589
 2416TIP3    H2 7213   1.328   3.355   2.646
 2417TIP3   OH2 7214   0.933   5.934   3.740
 2417TIP3    H1 7215   1.025   5.939   3.765
 2417TIP3    H2 7216   0.888   5.910   3.821
 2418TIP3   OH2 7217   1.885   4.954   0.479
 2418TIP3    H1 7218   1.833   4.944   0.559
 2418TIP3    H2 7219   1.945   4.879   0.479
 2419TIP3   OH2 7220   3.134   0.960   2.060
 2419TIP3    H1 7221   3.161   0.902   1.989
 2419TIP3    H2 7222   3.167   1.046   2.034
 2420TIP3   OH2 7223   4.070   1.546   4.379
 2420TIP3    H1 7224   4.062   1.637   4.408
 2420TIP3    H2 7225   3.980   1.514   4.372
 2421TIP3   OH2 7226   3.554   4.365   4.445
 2421TIP3    H1 7227   3.468   4.340   4.478
 2421TIP3    H2 7228   3.597   4.281   4.425
 2422TIP3   OH2 7229   4.757   0.027   5.535
 2422TIP3    H1 7230   4.732  -0.061   5.507
 2422TIP3    H2 7231   4.835   0.048   5.483
 2423TIP3   OH2 7232   2.907   6.038   1.907
 2423TIP3    H1 7233   2.863   5.957   1.934
 2423TIP3    H2 7234   2.993   6.033   1.948
 2424TIP3   OH2 7235   2.511   2.103   4.068
 2424TIP3    H1 7236   2.602   2.085   4.045
 2424TIP3    H2 7237   2.469   2.017   4.073
 2425TIP3   OH2 7238   2.754   2.666   4.431
 2425TIP3    H1 7239   2.717   2.614   4.360
 2425TIP3    H2 7240   2.693   2.653   4.504
 2426TIP3   OH2 7241   3.276   6.271   5.493
 2426TIP3    H1 7242   3.218   6.297   5.422
 2426TIP3    H2 7243   3.307   6.184   5.467
 2427TIP3   OH2 7244   2.415   4.324   2.577
 2427TIP3    H1 7245   2.482   4.362   2.520
 2427TIP3    H2 7246   2.464   4.263   2.633
 2428TIP3   OH2 7247   5.340   3.953   2.043
 2428TIP3    H1 7248   5.340   4.035   1.993
 2428TIP3    H2 7249   5.324   3.886   1.977
 2429TIP3   OH2 7250   6.133   0.598   4.933
 2429TIP3    H1 7251   6.173   0.514   4.912
 2429TIP3    H2 7252   6.128   0.599   5.029
 2430TIP3   OH2 7253   6.755   1.232   4.585
 2430TIP3    H1 7254   6.729   1.190   4.503
 2430TIP3    H2 7255   6.759   1.325   4.564
 2431TIP3   OH2 7256   6.488   1.546   1.428
 2431TIP3    H1 7257   6.576   1.516   1.402
 2431TIP3    H2 7258   6.452   1.585   1.348
 2432TIP3   OH2 7259   0.165   2.171   5.712
 2432TIP3    H1 7260   0.088   2.203   5.665
 2432TIP3    H2 7261   0.226   2.245   5.712
 2433TIP3   OH2 7262   4.408   0.843   4.583
 2433TIP3    H1 7263   4.347   0.797   4.640
 2433TIP3    H2 7264   4.428   0.781   4.513
 2434TIP3   OH2 7265   4.043   3.003   4.668
 2434TIP3    H1 7266   4.070   2.997   4.576
 2434TIP3    H2 7267   3.966   3.061   4.666
 2435TIP3   OH2 7268   1.953   2.077   2.963
 2435TIP3    H1 7269   2.027   2.132   2.989
 2435TIP3    H2 7270   1.970   2.057   2.871
 2436TIP3   OH2 7271   6.902   0.565   0.572
 2436TIP3    H1 7272   6.894   0.563   0.668
 2436TIP3    H2 7273   6.824   0.612   0.542
 2437TIP3   OH2 7274   2.702   3.623   3.952
 2437TIP3    H1 7275   2.739   3.540   3.921
 2437TIP3    H2 7276   2.669   3.603   4.039
 2438TIP3   OH2 7277   5.215   6.570   3.099
 2438TIP3    H1 7278   5.160   6.559   3.021
 2438TIP3    H2 7279   5.284   6.504   3.089
 2439TIP3   OH2 7280   7.115   3.689   1.301
 2439TIP3    H1 7281   7.191   3.733   1.262
 2439TIP3    H2 7282   7.138   3.596   1.298
 2440TIP3   OH2 7283   2.205   5.045   3.983
 2440TIP3    H1 7284   2.125   5.072   3.939
 2440TIP3    H2 7285   2.176   4.992   4.057
 2441TIP3   OH2 7286   2.488   6.716   4.732
 2441TIP3    H1 7287   2.538   6.753   4.805
 2441TIP3    H2 7288   2.399   6.748   4.746
 2442TIP3   OH2 7289   1.311   2.985   4.497
 2442TIP3    H1 7290   1.386   3.024   4.453
 2442TIP3    H2 7291   1.281   2.916   4.438
 2443TIP3   OH2 7292   3.296   4.532   4.984
 2443TIP3    H1 7293   3.311   4.624   5.007
 2443TIP3    H2 7294   3.280   4.533   4.890
 2444TIP3   OH2 7295   4.619   5.333   1.070
 2444TIP3    H1 7296   4.632   5.378   1.154
 2444TIP3    H2 7297   4.701   5.286   1.055
 2445TIP3   OH2 7298   3.130   2.077   4.234
 2445TIP3    H1 7299   3.213   2.034   4.215
 2445TIP3    H2 7300   3.124   2.148   4.171
 2446TIP3   OH2 7301   5.153   5.245   0.346
 2446TIP3    H1 7302   5.128   5.263   0.436
 2446TIP3    H2 7303   5.198   5.324   0.318
 2447TIP3   OH2 7304   1.626   0.092   0.218
 2447TIP3    H1 7305   1.689   0.047   0.274
 2447TIP3    H2 7306   1.619   0.036   0.140
 2448TIP3   OH2 7307   4.615   4.085   3.595
 2448TIP3    H1 7308   4.559   4.160   3.612
 2448TIP3    H2 7309   4.675   4.114   3.526
 2449TIP3   OH2 7310   4.231   1.097   3.210
 2449TIP3    H1 7311   4.264   1.137   3.130
 2449TIP3    H2 7312   4.282   1.017   3.220
 2450TIP3   OH2 7313   6.012   2.899   5.680
 2450TIP3    H1 7314   5.985   2.935   5.765
 2450TIP3    H2 7315   6.032   2.808   5.699
 2451TIP3   OH2 7316   2.254   5.520   0.771
 2451TIP3    H1 7317   2.201   5.595   0.794
 2451TIP3    H2 7318   2.211   5.446   0.813
 2452TIP3   OH2 7319   3.394   0.263   2.178
 2452TIP3    H1 7320   3.341   0.184   2.191
 2452TIP3    H2 7321   3.428   0.284   2.264
 2453TIP3   OH2 7322   2.914   5.429   2.598
 2453TIP3    H1 7323   3.004   5.405   2.623
 2453TIP3    H2 7324   2.907   5.403   2.506
 2454TIP3   OH2 7325   1.672   3.727   5.148
 2454TIP3    H1 7326   1.732   3.742   5.221
 2454TIP3    H2 7327   1.590   3.769   5.174
 2455TIP3   OH2 7328   5.828   5.250   5.250
 2455TIP3    H1 7329   5.816   5.236   5.156
 2455TIP3    H2 7330   5.858   5.165   5.283
 2456TIP3   OH2 7331   4.635   2.530   0.184
 2456TIP3    H1 7332   4.668   2.568   0.103
 2456TIP3    H2 7333   4.707   2.542   0.247
 2457TIP3   OH2 7334   0.555   6.708   0.757
 2457TIP3    H1 7335   0.599   6.657   0.825
 2457TIP3    H2 7336   0.476   6.740   0.799
 2458TIP3   OH2 7337   6.098   0.038   1.676
 2458TIP3    H1 7338   6.049  -0.041   1.697
 2458TIP3    H2 7339   6.103   0.039   1.581
 2459TIP3   OH2 7340   6.464   6.417   4.761
 2459TIP3    H1 7341   6.391   6.478   4.770
 2459TIP3    H2 7342   6.540   6.466   4.791
 2460TIP3   OH2 7343   5.726   4.164   2.029
 2460TIP3    H1 7344   5.646   4.184   1.981
 2460TIP3    H2 7345   5.752   4.248   2.069
 2461TIP3   OH2 7346   2.876   2.116   2.347
 2461TIP3    H1 7347   2.852   2.063   2.423
 2461TIP3    H2 7348   2.844   2.066   2.272
 2462TIP3   OH2 7349   2.315   0.475   5.138
 2462TIP3    H1 7350   2.374   0.543   5.107
 2462TIP3    H2 7351   2.228   0.505   5.112
 2463TIP3   OH2 7352   5.745   0.240   4.288
 2463TIP3    H1 7353   5.754   0.325   4.244
 2463TIP3    H2 7354   5.732   0.178   4.216
 2464TIP3   OH2 7355   4.686   0.139   0.594
 2464TIP3    H1 7356   4.711   0.178   0.510
 2464TIP3    H2 7357   4.604   0.094   0.576
 2465TIP3   OH2 7358   5.713   3.281   1.551
 2465TIP3    H1 7359   5.660   3.216   1.506
 2465TIP3    H2 7360   5.797   3.281   1.505
 2466TIP3   OH2 7361   2.174   0.522   3.694
 2466TIP3    H1 7362   2.148   0.432   3.716
 2466TIP3    H2 7363   2.111   0.549   3.627
 2467TIP3   OH2 7364   7.049   0.428   4.163
 2467TIP3    H1 7365   7.101   0.349   4.147
 2467TIP3    H2 7366   6.996   0.408   4.240
 2468TIP3   OH2 7367   4.812   4.839   3.975
 2468TIP3    H1 7368   4.769   4.754   3.985
 2468TIP3    H2 7369   4.898   4.818   3.936
 2469TIP3   OH2 7370   0.287   6.006   3.465
 2469TIP3    H1 7371   0.308   6.045   3.380
 2469TIP3    H2 7372   0.204   5.961   3.450
 2470TIP3   OH2 7373   3.777   4.814   4.468
 2470TIP3    H1 7374   3.811   4.816   4.558
 2470TIP3    H2 7375   3.683   4.828   4.479
 2471TIP3   OH2 7376   3.058   3.413   0.728
 2471TIP3    H1 7377   3.048   3.453   0.814
 2471TIP3    H2 7378   3.009   3.331   0.733
 2472TIP3   OH2 7379   2.195   1.331   3.003
 2472TIP3    H1 7380   2.109   1.292   3.021
 2472TIP3    H2 7381   2.190   1.360   2.912
 2473TIP3   OH2 7382   6.869   3.226   3.584
 2473TIP3    H1 7383   6.861   3.238   3.678
 2473TIP3    H2 7384   6.876   3.314   3.548
 2474TIP3   OH2 7385   2.713   6.799   1.052
 2474TIP3    H1 7386   2.667   6.877   1.022
 2474TIP3    H2 7387   2.691   6.732   0.987
 2475TIP3   OH2 7388   4.771   0.299   0.374
 2475TIP3    H1 7389   4.822   0.260   0.303
 2475TIP3    H2 7390   4.747   0.386   0.342
 2476TIP3   OH2 7391   2.928   4.382   1.190
 2476TIP3    H1 7392   2.931   4.477   1.175
 2476TIP3    H2 7393   2.835   4.363   1.202
 2477TIP3   OH2 7394   5.111   3.511   0.802
 2477TIP3    H1 7395   5.130   3.575   0.870
 2477TIP3    H2 7396   5.196   3.485   0.769
 2478TIP3   OH2 7397   0.753   5.666   2.561
 2478TIP3    H1 7398   0.841   5.664   2.598
 2478TIP3    H2 7399   0.695   5.668   2.637
 2479TIP3   OH2 7400   5.967   2.040   5.222
 2479TIP3    H1 7401   6.051   2.066   5.260
 2479TIP3    H2 7402   5.970   2.074   5.132
 2480TIP3   OH2 7403   3.374   2.735   0.273
 2480TIP3    H1 7404   3.399   2.681   0.347
 2480TIP3    H2 7405   3.414   2.820   0.290
 2481TIP3   OH2 7406   1.052   1.914   2.620
 2481TIP3    H1 7407   0.995   1.862   2.677
 2481TIP3    H2 7408   1.043   1.874   2.534
 2482TIP3   OH2 7409   3.685   3.819   4.236
 2482TIP3    H1 7410   3.755   3.773   4.191
 2482TIP3    H2 7411   3.702   3.911   4.220
 2483TIP3   OH2 7412   6.374   2.559   1.663
 2483TIP3    H1 7413   6.340   2.599   1.743
 2483TIP3    H2 7414   6.334   2.472   1.662
 2484TIP3   OH2 7415   1.575   1.330   1.690
 2484TIP3    H1 7416   1.507   1.335   1.624
 2484TIP3    H2 7417   1.534   1.287   1.765
 2485TIP3   OH2 7418   3.507   1.040   3.359
 2485TIP3    H1 7419   3.584   1.014   3.307
 2485TIP3    H2 7420   3.532   1.124   3.398
 2486TIP3   OH2 7421   5.326   4.907   4.563
 2486TIP3    H1 7422   5.270   4.918   4.640
 2486TIP3    H2 7423   5.395   4.972   4.575
 2487TIP3   OH2 7424   0.213   2.982   5.166
 2487TIP3    H1 7425   0.240   3.051   5.227
 2487TIP3    H2 7426   0.288   2.970   5.109
 2488TIP3   OH2 7427   3.929   6.644   5.099
 2488TIP3    H1 7428   3.936   6.690   5.015
 2488TIP3    H2 7429   4.020   6.623   5.121
 2489TIP3   OH2 7430   3.907   1.499   2.316
 2489TIP3    H1 7431   3.836   1.466   2.259
 2489TIP3    H2 7432   3.864   1.564   2.372
 2490TIP3   OH2 7433   1.684   5.169   0.640
 2490TIP3    H1 7434   1.610   5.190   0.583
 2490TIP3    H2 7435   1.650   5.102   0.700
 2491TIP3   OH2 7436   2.965   6.092   3.587
 2491TIP3    H1 7437   2.883   6.076   3.540
 2491TIP3    H2 7438   2.973   6.187   3.592
 2492TIP3   OH2 7439   1.546   1.656   2.179
 2492TIP3    H1 7440   1.490   1.710   2.123
 2492TIP3    H2 7441   1.625   1.709   2.191
 2493TIP3   OH2 7442   3.058   3.086   4.673
 2493TIP3    H1 7443   3.064   2.998   4.637
 2493TIP3    H2 7444   3.129   3.134   4.631
 2494TIP3   OH2 7445   0.772   6.094   5.389
 2494TIP3    H1 7446   0.868   6.096   5.387
 2494TIP3    H2 7447   0.749   6.141   5.469
 2495TIP3   OH2 7448   1.438   2.006   2.721
 2495TIP3    H1 7449   1.415   1.939   2.657
 2495TIP3    H2 7450   1.357   2.025   2.767
 2496TIP3   OH2 7451   3.278   3.071   4.205
 2496TIP3    H1 7452   3.250   3.133   4.138
 2496TIP3    H2 7453   3.363   3.105   4.235
 2497TIP3   OH2 7454   5.800   0.133   3.909
 2497TIP3    H1 7455   5.877   0.170   3.951
 2497TIP3    H2 7456   5.748   0.209   3.881
 2498TIP3   OH2 7457   5.364   3.664   2.638
 2498TIP3    H1 7458   5.296   3.716   2.595
 2498TIP3    H2 7459   5.350   3.680   2.731
 2499TIP3   OH2 7460   4.208   4.901   2.964
 2499TIP3    H1 7461   4.185   4.936   2.878
 2499TIP3    H2 7462   4.257   4.972   3.006
 2500TIP3   OH2 7463   0.473   1.411   4.683
 2500TIP3    H1 7464   0.407   1.454   4.628
 2500TIP3    H2 7465   0.539   1.478   4.698
 2501TIP3   OH2 7466   1.252   0.450   3.235
 2501TIP3    H1 7467   1.277   0.387   3.302
 2501TIP3    H2 7468   1.169   0.417   3.200
 2502TIP3   OH2 7469   4.945   6.530   2.039
 2502TIP3    H1 7470   4.859   6.492   2.058
 2502TIP3    H2 7471   5.005   6.485   2.099
 2503TIP3   OH2 7472   0.188   2.420   1.453
 2503TIP3    H1 7473   0.223   2.390   1.369
 2503TIP3    H2 7474   0.266   2.438   1.506
 2504TIP3   OH2 7475   6.767   0.777   5.617
 2504TIP3    H1 7476   6.701   0.845   5.600
 2504TIP3    H2 7477   6.824   0.779   5.541
 2505TIP3   OH2 7478   6.912   3.128   5.103
 2505TIP3    H1 7479   6.934   3.210   5.058
 2505TIP3    H2 7480   6.892   3.155   5.193
 2506TIP3   OH2 7481   0.398   5.332   3.098
 2506TIP3    H1 7482   0.331   5.267   3.118
 2506TIP3    H2 7483   0.473   5.308   3.153
 2507TIP3   OH2 7484   6.031   0.639   0.608
 2507TIP3    H1 7485   6.047   0.663   0.699
 2507TIP3    H2 7486   6.013   0.545   0.611
 2508TIP3   OH2 7487   4.858   3.257   3.076
 2508TIP3    H1 7488   4.889   3.224   2.992
 2508TIP3    H2 7489   4.863   3.182   3.135
 2509TIP3   OH2 7490   6.926   0.664   2.240
 2509TIP3    H1 7491   6.955   0.577   2.211
 2509TIP3    H2 7492   6.864   0.692   2.173
 2510TIP3   OH2 7493   0.330   4.812   1.804
 2510TIP3    H1 7494   0.388   4.839   1.732
 2510TIP3    H2 7495   0.372   4.848   1.882
 2511TIP3   OH2 7496   7.158   5.546   3.501
 2511TIP3    H1 7497   7.173   5.514   3.589
 2511TIP3    H2 7498   7.068   5.580   3.502
 2512TIP3   OH2 7499   4.784   6.468   4.214
 2512TIP3    H1 7500   4.850   6.399   4.207
 2512TIP3    H2 7501   4.770   6.478   4.309
 2513TIP3   OH2 7502   3.144   2.387   1.251
 2513TIP3    H1 7503   3.236   2.411   1.237
 2513TIP3    H2 7504   3.138   2.370   1.345
 2514TIP3   OH2 7505   0.445   3.533   4.907
 2514TIP3    H1 7506   0.367   3.557   4.958
 2514TIP3    H2 7507   0.487   3.617   4.887
 2515TIP3   OH2 7508   4.975   4.349   0.734
 2515TIP3    H1 7509   5.002   4.332   0.824
 2515TIP3    H2 7510   4.920   4.274   0.711
 2516TIP3   OH2 7511   5.016   2.793   4.783
 2516TIP3    H1 7512   4.946   2.729   4.791
 2516TIP3    H2 7513   5.041   2.790   4.691
 2517TIP3   OH2 7514   4.025   5.265   2.225
 2517TIP3    H1 7515   3.953   5.327   2.221
 2517TIP3    H2 7516   4.093   5.311   2.275
 2518TIP3   OH2 7517   2.760   3.877   5.064
 2518TIP3    H1 7518   2.753   3.782   5.062
 2518TIP3    H2 7519   2.751   3.903   4.972
 2519TIP3   OH2 7520   4.400   1.703   4.895
 2519TIP3    H1 7521   4.343   1.742   4.829
 2519TIP3    H2 7522   4.380   1.750   4.975
 2520TIP3   OH2 7523   2.192   2.228   2.942
 2520TIP3    H1 7524   2.232   2.207   3.026
 2520TIP3    H2 7525   2.230   2.312   2.918
 2521TIP3   OH2 7526   0.929   5.632   0.478
 2521TIP3    H1 7527   0.870   5.648   0.404
 2521TIP3    H2 7528   0.885   5.564   0.529
 2522TIP3   OH2 7529   7.205   5.117   5.505
 2522TIP3    H1 7530   7.114   5.133   5.480
 2522TIP3    H2 7531   7.245   5.075   5.429
 2523TIP3   OH2 7532   7.153   1.075   5.808
 2523TIP3    H1 7533   7.155   1.143   5.875
 2523TIP3    H2 7534   7.133   1.122   5.727
 2524TIP3   OH2 7535   6.417   6.099   5.163
 2524TIP3    H1 7536   6.399   6.106   5.070
 2524TIP3    H2 7537   6.367   6.022   5.192
 2525TIP3   OH2 7538   4.777   3.061   2.054
 2525TIP3    H1 7539   4.848   3.009   2.092
 2525TIP3    H2 7540   4.822   3.132   2.007
 2526TIP3   OH2 7541   2.592   5.659   1.825
 2526TIP3    H1 7542   2.593   5.588   1.761
 2526TIP3    H2 7543   2.616   5.618   1.908
 2527TIP3   OH2 7544   6.699   1.611   3.482
 2527TIP3    H1 7545   6.689   1.698   3.521
 2527TIP3    H2 7546   6.638   1.611   3.409
 2528TIP3   OH2 7547   0.703   2.430   5.740
 2528TIP3    H1 7548   0.756   2.491   5.792
 2528TIP3    H2 7549   0.623   2.479   5.719
 2529TIP3   OH2 7550   2.563   4.694   4.912
 2529TIP3    H1 7551   2.640   4.728   4.958
 2529TIP3    H2 7552   2.495   4.690   4.979
 2530TIP3   OH2 7553   3.908   4.023   2.954
 2530TIP3    H1 7554   3.966   3.981   2.890
 2530TIP3    H2 7555   3.860   4.089   2.903
 2531TIP3   OH2 7556   2.095   5.008   3.514
 2531TIP3    H1 7557   2.082   4.945   3.585
 2531TIP3    H2 7558   2.161   4.967   3.458
 2532TIP3   OH2 7559   4.314   1.313   3.379
 2532TIP3    H1 7560   4.240   1.306   3.439
 2532TIP3    H2 7561   4.306   1.236   3.323
 2533TIP3   OH2 7562   4.426   6.276   3.082
 2533TIP3    H1 7563   4.463   6.313   3.162
 2533TIP3    H2 7564   4.397   6.188   3.107
 2534TIP3   OH2 7565   5.322   1.259   2.318
 2534TIP3    H1 7566   5.251   1.317   2.289
 2534TIP3    H2 7567   5.392   1.319   2.346
 2535TIP3   OH2 7568   5.515   5.128   4.681
 2535TIP3    H1 7569   5.591   5.158   4.631
 2535TIP3    H2 7570   5.543   5.046   4.721
 2536TIP3   OH2 7571   4.939   2.533   3.107
 2536TIP3    H1 7572   5.008   2.506   3.047
 2536TIP3    H2 7573   4.873   2.465   3.101
 2537TIP3   OH2 7574   6.910   5.618   4.250
 2537TIP3    H1 7575   6.893   5.536   4.298
 2537TIP3    H2 7576   6.874   5.602   4.163
 2538TIP3   OH2 7577   4.694   4.442   0.585
 2538TIP3    H1 7578   4.602   4.421   0.566
 2538TIP3    H2 7579   4.743   4.365   0.556
 2539TIP3   OH2 7580   2.993   3.649   5.686
 2539TIP3    H1 7581   2.992   3.578   5.622
 2539TIP3    H2 7582   2.905   3.688   5.679
 2540TIP3   OH2 7583   4.432   6.040   4.496
 2540TIP3    H1 7584   4.396   6.054   4.583
 2540TIP3    H2 7585   4.393   5.958   4.467
 2541TIP3   OH2 7586   4.040   1.990   3.985
 2541TIP3    H1 7587   4.001   2.052   3.923
 2541TIP3    H2 7588   4.096   2.044   4.041
 2542TIP3   OH2 7589   6.939   0.668   2.851
 2542TIP3    H1 7590   6.938   0.733   2.922
 2542TIP3    H2 7591   7.014   0.693   2.797
 2543TIP3   OH2 7592   0.463   1.972   4.839
 2543TIP3    H1 7593   0.420   1.932   4.763
 2543TIP3    H2 7594   0.502   1.899   4.886
 2544TIP3   OH2 7595   6.182   4.382   4.642
 2544TIP3    H1 7596   6.091   4.402   4.621
 2544TIP3    H2 7597   6.198   4.297   4.602
 2545TIP3   OH2 7598   2.134   4.728   1.707
 2545TIP3    H1 7599   2.084   4.809   1.694
 2545TIP3    H2 7600   2.151   4.725   1.801
 2546TIP3   OH2 7601   0.552   3.367   3.338
 2546TIP3    H1 7602   0.632   3.419   3.336
 2546TIP3    H2 7603   0.494   3.415   3.397
 2547TIP3   OH2 7604   1.356   5.241   4.956
 2547TIP3    H1 7605   1.261   5.244   4.959
 2547TIP3    H2 7606   1.380   5.177   5.024
 2548TIP3   OH2 7607   3.444   4.881   2.633
 2548TIP3    H1 7608   3.480   4.808   2.683
 2548TIP3    H2 7609   3.518   4.916   2.585
 2549TIP3   OH2 7610   3.149   2.339   0.444
 2549TIP3    H1 7611   3.180   2.353   0.533
 2549TIP3    H2 7612   3.220   2.290   0.402
 2550TIP3   OH2 7613   3.836   2.459   4.784
 2550TIP3    H1 7614   3.770   2.396   4.816
 2550TIP3    H2 7615   3.800   2.492   4.702
 2551TIP3   OH2 7616   5.410   1.617   0.084
 2551TIP3    H1 7617   5.358   1.537   0.089
 2551TIP3    H2 7618   5.483   1.594   0.025
 2552TIP3   OH2 7619   5.872   2.944   2.004
 2552TIP3    H1 7620   5.880   2.908   1.916
 2552TIP3    H2 7621   5.962   2.941   2.039
 2553TIP3   OH2 7622   4.123   4.965   2.711
 2553TIP3    H1 7623   4.120   5.049   2.666
 2553TIP3    H2 7624   4.038   4.926   2.694
 2554TIP3   OH2 7625   0.330   5.703   4.224
 2554TIP3    H1 7626   0.372   5.748   4.151
 2554TIP3    H2 7627   0.244   5.744   4.232
 2555TIP3   OH2 7628   6.299   3.324   1.775
 2555TIP3    H1 7629   6.245   3.253   1.811
 2555TIP3    H2 7630   6.278   3.400   1.828
 2556TIP3   OH2 7631   3.269   1.276   1.275
 2556TIP3    H1 7632   3.276   1.298   1.182
 2556TIP3    H2 7633   3.237   1.356   1.317
 2557TIP3   OH2 7634   3.632   0.487   3.998
 2557TIP3    H1 7635   3.603   0.416   4.055
 2557TIP3    H2 7636   3.573   0.560   4.019
 2558TIP3   OH2 7637   1.344   2.668   4.476
 2558TIP3    H1 7638   1.258   2.707   4.463
 2558TIP3    H2 7639   1.344   2.590   4.422
 2559TIP3   OH2 7640   2.956   2.682   3.706
 2559TIP3    H1 7641   2.880   2.630   3.730
 2559TIP3    H2 7642   2.953   2.688   3.611
 2560TIP3   OH2 7643   4.088   5.393   4.066
 2560TIP3    H1 7644   4.114   5.485   4.075
 2560TIP3    H2 7645   4.046   5.371   4.149
 2561TIP3   OH2 7646   2.083   5.650   0.098
 2561TIP3    H1 7647   2.000   5.684   0.132
 2561TIP3    H2 7648   2.148   5.713   0.129
 2562TIP3   OH2 7649   4.928   6.693   2.286
 2562TIP3    H1 7650   4.868   6.716   2.215
 2562TIP3    H2 7651   4.960   6.606   2.262
 2563TIP3   OH2 7652   2.461   1.462   5.740
 2563TIP3    H1 7653   2.381   1.473   5.689
 2563TIP3    H2 7654   2.473   1.547   5.783
 2564TIP3   OH2 7655   0.443   2.715   4.840
 2564TIP3    H1 7656   0.466   2.794   4.889
 2564TIP3    H2 7657   0.457   2.644   4.903
 2565TIP3   OH2 7658   2.703   1.691   5.582
 2565TIP3    H1 7659   2.625   1.743   5.600
 2565TIP3    H2 7660   2.760   1.706   5.658
 2566TIP3   OH2 7661   2.235   4.207   4.809
 2566TIP3    H1 7662   2.273   4.132   4.763
 2566TIP3    H2 7663   2.150   4.175   4.839
 2567TIP3   OH2 7664   0.723   3.804   1.777
 2567TIP3    H1 7665   0.773   3.736   1.732
 2567TIP3    H2 7666   0.696   3.763   1.859
 2568TIP3   OH2 7667   5.070   1.521   5.748
 2568TIP3    H1 7668   5.041   1.510   5.839
 2568TIP3    H2 7669   5.109   1.437   5.725
 2569TIP3   OH2 7670   5.503   5.055   2.120
 2569TIP3    H1 7671   5.523   5.148   2.122
 2569TIP3    H2 7672   5.556   5.017   2.190
 2570TIP3   OH2 7673   3.898   0.560   5.521
 2570TIP3    H1 7674   3.936   0.472   5.523
 2570TIP3    H2 7675   3.951   0.609   5.584
 2571TIP3   OH2 7676   2.416   0.358   3.236
 2571TIP3    H1 7677   2.429   0.397   3.322
 2571TIP3    H2 7678   2.442   0.267   3.246
 2572TIP3   OH2 7679   4.508   5.985   4.217
 2572TIP3    H1 7680   4.466   6.054   4.268
 2572TIP3    H2 7681   4.588   5.964   4.265
 2573TIP3   OH2 7682   4.126   4.485   2.679
 2573TIP3    H1 7683   4.077   4.455   2.603
 2573TIP3    H2 7684   4.060   4.523   2.737
 2574TIP3   OH2 7685   4.918   3.118   1.294
 2574TIP3    H1 7686   4.917   3.171   1.214
 2574TIP3    H2 7687   5.007   3.082   1.297
 2575TIP3   OH2 7688   1.799   3.198   4.464
 2575TIP3    H1 7689   1.830   3.209   4.554
 2575TIP3    H2 7690   1.878   3.209   4.411
 2576TIP3   OH2 7691   6.269   0.588   2.592
 2576TIP3    H1 7692   6.282   0.677   2.625
 2576TIP3    H2 7693   6.352   0.543   2.609
 2577TIP3   OH2 7694   0.562   3.835   0.752
 2577TIP3    H1 7695   0.534   3.914   0.798
 2577TIP3    H2 7696   0.505   3.766   0.786
 2578TIP3   OH2 7697   4.751   6.315   1.788
 2578TIP3    H1 7698   4.750   6.245   1.853
 2578TIP3    H2 7699   4.844   6.332   1.773
 2579TIP3   OH2 7700   6.410   4.693   2.693
 2579TIP3    H1 7701   6.368   4.700   2.779
 2579TIP3    H2 7702   6.467   4.616   2.700
 2580TIP3   OH2 7703   1.057   4.587   3.539
 2580TIP3    H1 7704   1.040   4.650   3.469
 2580TIP3    H2 7705   1.123   4.629   3.594
 2581TIP3   OH2 7706   6.096   0.885   4.854
 2581TIP3    H1 7707   6.112   0.791   4.850
 2581TIP3    H2 7708   6.026   0.894   4.919
 2582TIP3   OH2 7709   5.095   5.771   0.045
 2582TIP3    H1 7710   5.115   5.758   0.138
 2582TIP3    H2 7711   5.012   5.818   0.045
 2583TIP3   OH2 7712   5.767   1.431   5.792
 2583TIP3    H1 7713   5.714   1.511   5.793
 2583TIP3    H2 7714   5.711   1.364   5.830
 2584TIP3   OH2 7715   1.303   0.073   0.290
 2584TIP3    H1 7716   1.351   0.148   0.253
 2584TIP3    H2 7717   1.305   0.088   0.385
 2585TIP3   OH2 7718   1.044   6.157   4.875
 2585TIP3    H1 7719   0.981   6.169   4.946
 2585TIP3    H2 7720   1.001   6.097   4.814
 2586TIP3   OH2 7721   4.000   6.031   3.207
 2586TIP3    H1 7722   3.960   5.971   3.269
 2586TIP3    H2 7723   3.927   6.079   3.169
 2587TIP3   OH2 7724   6.523   3.961   3.382
 2587TIP3    H1 7725   6.471   3.977   3.304
 2587TIP3    H2 7726   6.588   4.032   3.382
 2588TIP3   OH2 7727   2.078   6.330   0.066
 2588TIP3    H1 7728   2.149   6.274   0.035
 2588TIP3    H2 7729   2.015   6.270   0.106
 2589TIP3   OH2 7730   1.500   2.220   4.803
 2589TIP3    H1 7731   1.592   2.225   4.776
 2589TIP3    H2 7732   1.451   2.249   4.726
 2590TIP3   OH2 7733   0.161   4.846   0.094
 2590TIP3    H1 7734   0.104   4.783   0.049
 2590TIP3    H2 7735   0.187   4.802   0.175
 2591TIP3   OH2 7736   1.394   5.286   2.956
 2591TIP3    H1 7737   1.360   5.203   2.924
 2591TIP3    H2 7738   1.470   5.304   2.900
 2592TIP3   OH2 7739   4.317   6.151   3.698
 2592TIP3    H1 7740   4.251   6.144   3.630
 2592TIP3    H2 7741   4.373   6.074   3.686
 2593TIP3   OH2 7742   2.946   3.952   3.434
 2593TIP3    H1 7743   2.975   3.888   3.369
 2593TIP3    H2 7744   2.874   3.998   3.391
 2594TIP3   OH2 7745   3.182   0.065   4.831
 2594TIP3    H1 7746   3.118  -0.002   4.854
 2594TIP3    H2 7747   3.170   0.134   4.897
 2595TIP3   OH2 7748   3.842   3.497   5.678
 2595TIP3    H1 7749   3.765   3.458   5.635
 2595TIP3    H2 7750   3.870   3.566   5.619
 2596TIP3   OH2 7751   5.935   3.462   1.908
 2596TIP3    H1 7752   6.022   3.461   1.949
 2596TIP3    H2 7753   5.883   3.519   1.964
 2597TIP3   OH2 7754   0.090   6.779   3.488
 2597TIP3    H1 7755   0.119   6.870   3.492
 2597TIP3    H2 7756   0.170   6.727   3.499
 2598TIP3   OH2 7757   3.446   3.065   3.534
 2598TIP3    H1 7758   3.510   3.134   3.553
 2598TIP3    H2 7759   3.364   3.112   3.520
 2599TIP3   OH2 7760   7.099   3.220   1.396
 2599TIP3    H1 7761   7.147   3.251   1.473
 2599TIP3    H2 7762   7.143   3.140   1.369
 2600TIP3   OH2 7763   5.562   0.574   2.514
 2600TIP3    H1 7764   5.478   0.549   2.477
 2600TIP3    H2 7765   5.567   0.669   2.503
 2601TIP3   OH2 7766   2.310   0.889   5.618
 2601TIP3    H1 7767   2.229   0.874   5.668
 2601TIP3    H2 7768   2.311   0.983   5.602
 2602TIP3   OH2 7769   5.358   1.434   4.864
 2602TIP3    H1 7770   5.341   1.431   4.769
 2602TIP3    H2 7771   5.324   1.351   4.896
 2603TIP3   OH2 7772   7.154   0.104   2.916
 2603TIP3    H1 7773   7.153   0.118   2.821
 2603TIP3    H2 7774   7.231   0.152   2.947
 2604TIP3   OH2 7775   1.551   2.440   0.556
 2604TIP3    H1 7776   1.640   2.437   0.522
 2604TIP3    H2 7777   1.552   2.508   0.623
 2605TIP3   OH2 7778   1.013   0.875   4.770
 2605TIP3    H1 7779   1.107   0.882   4.756
 2605TIP3    H2 7780   0.988   0.792   4.729
 2606TIP3   OH2 7781   2.366   6.314   0.994
 2606TIP3    H1 7782   2.429   6.268   0.938
 2606TIP3    H2 7783   2.418   6.343   1.069
 2607TIP3   OH2 7784   6.560   5.611   0.932
 2607TIP3    H1 7785   6.579   5.517   0.931
 2607TIP3    H2 7786   6.559   5.634   1.025
 2608TIP3   OH2 7787   6.812   4.246   3.980
 2608TIP3    H1 7788   6.725   4.230   3.943
 2608TIP3    H2 7789   6.800   4.320   4.039
 2609TIP3   OH2 7790   1.871   3.552   1.429
 2609TIP3    H1 7791   1.784   3.512   1.424
 2609TIP3    H2 7792   1.864   3.632   1.377
 2610TIP3   OH2 7793   4.575   4.705   5.719
 2610TIP3    H1 7794   4.639   4.683   5.787
 2610TIP3    H2 7795   4.498   4.734   5.768
 2611TIP3   OH2 7796   0.393   6.062   2.199
 2611TIP3    H1 7797   0.437   6.027   2.277
 2611TIP3    H2 7798   0.310   6.015   2.195
 2612TIP3   OH2 7799   3.302   6.569   2.046
 2612TIP3    H1 7800   3.386   6.607   2.022
 2612TIP3    H2 7801   3.272   6.622   2.120
 2613TIP3   OH2 7802   5.163   2.874   2.337
 2613TIP3    H1 7803   5.172   2.942   2.405
 2613TIP3    H2 7804   5.246   2.827   2.339
 2614TIP3   OH2 7805   2.147   5.222   1.915
 2614TIP3    H1 7806   2.090   5.266   1.979
 2614TIP3    H2 7807   2.118   5.131   1.916
 2615TIP3   OH2 7808   5.918   5.706   1.907
 2615TIP3    H1 7809   5.942   5.790   1.868
 2615TIP3    H2 7810   5.880   5.656   1.835
 2616TIP3   OH2 7811   3.585   6.752   0.267
 2616TIP3    H1 7812   3.598   6.729   0.175
 2616TIP3    H2 7813   3.666   6.796   0.292
 2617TIP3   OH2 7814   3.559   2.203   3.873
 2617TIP3    H1 7815   3.471   2.212   3.836
 2617TIP3    H2 7816   3.554   2.126   3.930
 2618TIP3   OH2 7817   5.282   6.283   5.162
 2618TIP3    H1 7818   5.345   6.265   5.232
 2618TIP3    H2 7819   5.309   6.226   5.090
 2619TIP3   OH2 7820   3.871   0.592   1.130
 2619TIP3    H1 7821   3.911   0.595   1.043
 2619TIP3    H2 7822   3.885   0.680   1.165
 2620TIP3   OH2 7823   0.974   0.629   4.660
 2620TIP3    H1 7824   0.920   0.550   4.658
 2620TIP3    H2 7825   1.055   0.602   4.704
 2621TIP3   OH2 7826   5.686   4.961   1.131
 2621TIP3    H1 7827   5.717   4.872   1.112
 2621TIP3    H2 7828   5.753   4.998   1.188
 2622TIP3   OH2 7829   5.999   4.125   2.916
 2622TIP3    H1 7830   5.985   4.172   2.833
 2622TIP3    H2 7831   5.924   4.065   2.921
 2623TIP3   OH2 7832   6.424   3.058   3.479
 2623TIP3    H1 7833   6.421   2.969   3.512
 2623TIP3    H2 7834   6.334   3.078   3.452
 2624TIP3   OH2 7835   2.012   0.346   2.068
 2624TIP3    H1 7836   2.010   0.293   2.148
 2624TIP3    H2 7837   1.963   0.425   2.090
 2625TIP3   OH2 7838   6.234   4.343   3.647
 2625TIP3    H1 7839   6.235   4.334   3.552
 2625TIP3    H2 7840   6.141   4.350   3.669
 2626TIP3   OH2 7841   5.650   2.900   0.178
 2626TIP3    H1 7842   5.717   2.891   0.245
 2626TIP3    H2 7843   5.665   2.987   0.140
 2627TIP3   OH2 7844   3.263   1.876   3.140
 2627TIP3    H1 7845   3.278   1.888   3.234
 2627TIP3    H2 7846   3.169   1.863   3.132
 2628TIP3   OH2 7847   3.428   3.282   5.818
 2628TIP3    H1 7848   3.402   3.198   5.855
 2628TIP3    H2 7849   3.346   3.329   5.805
 2629TIP3   OH2 7850   6.953   2.817   5.366
 2629TIP3    H1 7851   7.038   2.858   5.377
 2629TIP3    H2 7852   6.970   2.723   5.379
 2630TIP3   OH2 7853   1.642   6.563   2.569
 2630TIP3    H1 7854   1.645   6.581   2.663
 2630TIP3    H2 7855   1.637   6.650   2.528
 2631TIP3   OH2 7856   5.026   5.209   0.777
 2631TIP3    H1 7857   5.076   5.130   0.756
 2631TIP3    H2 7858   5.087   5.281   0.759
 2632TIP3   OH2 7859  -0.029   3.874   3.282
 2632TIP3    H1 7860  -0.002   3.794   3.238
 2632TIP3    H2 7861   0.003   3.945   3.226
 2633TIP3   OH2 7862   4.423   0.238   4.863
 2633TIP3    H1 7863   4.486   0.291   4.815
 2633TIP3    H2 7864   4.342   0.288   4.861
 2634TIP3   OH2 7865   1.955   6.716   4.837
 2634TIP3    H1 7866   1.890   6.746   4.900
 2634TIP3    H2 7867   1.925   6.630   4.808
 2635TIP3   OH2 7868   4.595   0.123   1.673
 2635TIP3    H1 7869   4.526   0.089   1.617
 2635TIP3    H2 7870   4.660   0.159   1.613
 2636TIP3   OH2 7871   4.542   3.835   3.658
 2636TIP3    H1 7872   4.605   3.777   3.615
 2636TIP3    H2 7873   4.563   3.922   3.624
 2637TIP3   OH2 7874   5.860   0.657   4.901
 2637TIP3    H1 7875   5.820   0.613   4.975
 2637TIP3    H2 7876   5.953   0.661   4.922
 2638TIP3   OH2 7877   0.752   3.489   0.576
 2638TIP3    H1 7878   0.803   3.469   0.654
 2638TIP3    H2 7879   0.666   3.449   0.593
 2639TIP3   OH2 7880   5.129   1.264   1.941
 2639TIP3    H1 7881   5.099   1.213   1.866
 2639TIP3    H2 7882   5.222   1.243   1.948
 2640TIP3   OH2 7883   6.828   1.832   5.134
 2640TIP3    H1 7884   6.818   1.817   5.040
 2640TIP3    H2 7885   6.880   1.913   5.139
 2641TIP3   OH2 7886   5.961   1.196   1.809
 2641TIP3    H1 7887   6.016   1.119   1.795
 2641TIP3    H2 7888   5.917   1.209   1.725
 2642TIP3   OH2 7889   4.387   1.534   0.016
 2642TIP3    H1 7890   4.374   1.465  -0.049
 2642TIP3    H2 7891   4.329   1.510   0.089
 2643TIP3   OH2 7892   1.032   0.806   0.086
 2643TIP3    H1 7893   0.940   0.820   0.109
 2643TIP3    H2 7894   1.047   0.714   0.104
 2644TIP3   OH2 7895   3.816   3.228   5.314
 2644TIP3    H1 7896   3.738   3.273   5.346
 2644TIP3    H2 7897   3.883   3.296   5.309
 2645TIP3   OH2 7898   6.006   2.654   0.830
 2645TIP3    H1 7899   6.100   2.644   0.814
 2645TIP3    H2 7900   6.001   2.698   0.915
 2646TIP3   OH2 7901   2.571   4.193   5.864
 2646TIP3    H1 7902   2.483   4.159   5.876
 2646TIP3    H2 7903   2.565   4.284   5.893
 2647TIP3   OH2 7904   6.575   0.050   5.568
 2647TIP3    H1 7905   6.608  -0.039   5.571
 2647TIP3    H2 7906   6.653   0.105   5.564
 2648TIP3   OH2 7907   1.293   2.874   0.428
 2648TIP3    H1 7908   1.300   2.815   0.503
 2648TIP3    H2 7909   1.237   2.945   0.458
 2649TIP3   OH2 7910   4.509   3.037   4.180
 2649TIP3    H1 7911   4.448   3.081   4.239
 2649TIP3    H2 7912   4.458   2.964   4.144
 2650TIP3   OH2 7913   4.929   6.692   5.599
 2650TIP3    H1 7914   4.898   6.666   5.686
 2650TIP3    H2 7915   4.878   6.638   5.538
 2651TIP3   OH2 7916   1.453   4.462   3.601
 2651TIP3    H1 7917   1.455   4.461   3.697
 2651TIP3    H2 7918   1.512   4.534   3.577
 2652TIP3   OH2 7919   4.707   2.581   2.089
 2652TIP3    H1 7920   4.773   2.583   2.158
 2652TIP3    H2 7921   4.639   2.642   2.119
 2653TIP3   OH2 7922   3.918   2.440   2.770
 2653TIP3    H1 7923   3.897   2.517   2.718
 2653TIP3    H2 7924   4.007   2.416   2.744
 2654TIP3   OH2 7925   1.002   1.240   1.077
 2654TIP3    H1 7926   1.060   1.249   1.001
 2654TIP3    H2 7927   1.033   1.306   1.139
 2655TIP3   OH2 7928   1.440   4.495   1.950
 2655TIP3    H1 7929   1.525   4.537   1.963
 2655TIP3    H2 7930   1.390   4.558   1.898
 2656TIP3   OH2 7931   4.176   1.890   5.815
 2656TIP3    H1 7932   4.174   1.842   5.732
 2656TIP3    H2 7933   4.085   1.912   5.832
 2657TIP3   OH2 7934   3.201   0.782   3.178
 2657TIP3    H1 7935   3.127   0.839   3.200
 2657TIP3    H2 7936   3.275   0.841   3.168
 2658TIP3   OH2 7937   2.010   5.709   3.127
 2658TIP3    H1 7938   2.096   5.734   3.093
 2658TIP3    H2 7939   2.021   5.707   3.222
 2659TIP3   OH2 7940   1.668   5.420   4.850
 2659TIP3    H1 7941   1.674   5.335   4.806
 2659TIP3    H2 7942   1.665   5.398   4.943
 2660TIP3   OH2 7943   3.383   5.070   5.710
 2660TIP3    H1 7944   3.342   5.096   5.793
 2660TIP3    H2 7945   3.351   4.982   5.693
 2661TIP3   OH2 7946   0.449   6.540   1.089
 2661TIP3    H1 7947   0.445   6.446   1.072
 2661TIP3    H2 7948   0.465   6.547   1.183
 2662TIP3   OH2 7949   1.724   4.051   2.946
 2662TIP3    H1 7950   1.765   3.980   2.897
 2662TIP3    H2 7951   1.794   4.084   3.003
 2663TIP3   OH2 7952   3.568   3.925   3.545
 2663TIP3    H1 7953   3.510   3.997   3.568
 2663TIP3    H2 7954   3.577   3.875   3.626
 2664TIP3   OH2 7955   1.013   2.034   0.919
 2664TIP3    H1 7956   0.995   1.950   0.876
 2664TIP3    H2 7957   0.960   2.032   0.998
 2665TIP3   OH2 7958   3.005   1.362   5.372
 2665TIP3    H1 7959   3.033   1.405   5.291
 2665TIP3    H2 7960   3.085   1.351   5.423
 2666TIP3   OH2 7961   5.995   5.971   0.810
 2666TIP3    H1 7962   6.002   6.051   0.861
 2666TIP3    H2 7963   6.049   5.986   0.733
 2667TIP3   OH2 7964   2.686   5.892   1.931
 2667TIP3    H1 7965   2.653   5.824   1.873
 2667TIP3    H2 7966   2.646   5.973   1.899
 2668TIP3   OH2 7967   1.696   2.252   4.281
 2668TIP3    H1 7968   1.644   2.216   4.353
 2668TIP3    H2 7969   1.786   2.246   4.312
 2669TIP3   OH2 7970   6.842   1.858   1.256
 2669TIP3    H1 7971   6.832   1.834   1.164
 2669TIP3    H2 7972   6.785   1.934   1.269
 2670TIP3   OH2 7973   1.337   1.157   1.110
 2670TIP3    H1 7974   1.350   1.252   1.108
 2670TIP3    H2 7975   1.280   1.139   1.036
 2671TIP3   OH2 7976   0.239   2.103   2.569
 2671TIP3    H1 7977   0.222   2.090   2.476
 2671TIP3    H2 7978   0.182   2.041   2.614
 2672TIP3   OH2 7979   6.460   5.730   2.291
 2672TIP3    H1 7980   6.368   5.746   2.268
 2672TIP3    H2 7981   6.462   5.638   2.317
 2673TIP3   OH2 7982   4.697   4.907   0.998
 2673TIP3    H1 7983   4.714   4.989   1.045
 2673TIP3    H2 7984   4.603   4.892   1.009
 2674TIP3   OH2 7985   4.357   3.151   0.977
 2674TIP3    H1 7986   4.279   3.205   0.990
 2674TIP3    H2 7987   4.353   3.085   1.046
 2675TIP3   OH2 7988   5.287   3.883   3.204
 2675TIP3    H1 7989   5.196   3.861   3.227
 2675TIP3    H2 7990   5.331   3.798   3.201
 2676TIP3   OH2 7991   4.627   4.317   3.220
 2676TIP3    H1 7992   4.595   4.232   3.190
 2676TIP3    H2 7993   4.552   4.376   3.210
 2677TIP3   OH2 7994   0.130   1.638   4.945
 2677TIP3    H1 7995   0.042   1.633   4.985
 2677TIP3    H2 7996   0.153   1.731   4.950
 2678TIP3   OH2 7997   5.243   6.165   3.491
 2678TIP3    H1 7998   5.262   6.123   3.575
 2678TIP3    H2 7999   5.288   6.111   3.426
 2679TIP3   OH2 8000   0.801   1.587   5.015
 2679TIP3    H1 8001   0.884   1.553   4.980
 2679TIP3    H2 8002   0.763   1.512   5.061
 2680TIP3   OH2 8003   1.341   5.031   2.844
 2680TIP3    H1 8004   1.279   5.002   2.911
 2680TIP3    H2 8005   1.426   5.032   2.888
 2681TIP3   OH2 8006   3.067   3.119   2.090
 2681TIP3    H1 8007   3.077   3.097   1.997
 2681TIP3    H2 8008   2.973   3.125   2.103
 2682TIP3   OH2 8009   1.070   0.905   2.102
 2682TIP3    H1 8010   1.084   0.948   2.186
 2682TIP3    H2 8011   1.158   0.887   2.069
 2683TIP3   OH2 8012   1.178   4.924   1.929
 2683TIP3    H1 8013   1.195   4.984   1.856
 2683TIP3    H2 8014   1.248   4.941   1.992
 2684TIP3   OH2 8015   6.360   4.197   1.475
 2684TIP3    H1 8016   6.428   4.260   1.499
 2684TIP3    H2 8017   6.332   4.223   1.388
 2685TIP3   OH2 8018   5.833   5.423   1.445
 2685TIP3    H1 8019   5.887   5.373   1.506
 2685TIP3    H2 8020   5.895   5.459   1.382
 2686TIP3   OH2 8021   4.799   3.013   4.424
 2686TIP3    H1 8022   4.789   3.066   4.345
 2686TIP3    H2 8023   4.882   3.042   4.462
 2687TIP3   OH2 8024   5.699   1.448   5.422
 2687TIP3    H1 8025   5.627   1.446   5.358
 2687TIP3    H2 8026   5.739   1.534   5.409
 2688TIP3   OH2 8027   6.303   5.209   0.262
 2688TIP3    H1 8028   6.300   5.191   0.356
 2688TIP3    H2 8029   6.217   5.246   0.241
 2689TIP3   OH2 8030   0.736   3.950   4.950
 2689TIP3    H1 8031   0.694   3.892   5.014
 2689TIP3    H2 8032   0.751   3.894   4.874
 2690TIP3   OH2 8033   2.805   5.851   3.166
 2690TIP3    H1 8034   2.825   5.934   3.122
 2690TIP3    H2 8035   2.751   5.803   3.104
 2691TIP3   OH2 8036   6.164   5.994   5.537
 2691TIP3    H1 8037   6.207   6.072   5.502
 2691TIP3    H2 8038   6.140   6.018   5.626
 2692TIP3   OH2 8039   6.558   0.144   2.175
 2692TIP3    H1 8040   6.476   0.193   2.167
 2692TIP3    H2 8041   6.603   0.185   2.249
 2693TIP3   OH2 8042   4.481   0.113   4.389
 2693TIP3    H1 8043   4.558   0.120   4.446
 2693TIP3    H2 8044   4.408   0.106   4.450
 2694TIP3   OH2 8045   3.872   4.768   2.618
 2694TIP3    H1 8046   3.890   4.771   2.524
 2694TIP3    H2 8047   3.945   4.717   2.654
 2695TIP3   OH2 8048   5.209   4.003   3.828
 2695TIP3    H1 8049   5.302   4.022   3.839
 2695TIP3    H2 8050   5.165   4.087   3.842
 2696TIP3   OH2 8051   4.577   2.122   0.573
 2696TIP3    H1 8052   4.490   2.161   0.570
 2696TIP3    H2 8053   4.625   2.166   0.502
 2697TIP3   OH2 8054   6.279   1.614   3.870
 2697TIP3    H1 8055   6.261   1.620   3.963
 2697TIP3    H2 8056   6.234   1.689   3.832
 2698TIP3   OH2 8057   4.236   4.208   1.416
 2698TIP3    H1 8058   4.187   4.144   1.365
 2698TIP3    H2 8059   4.234   4.288   1.362
 2699TIP3   OH2 8060   0.984   2.883   1.455
 2699TIP3    H1 8061   0.927   2.809   1.477
 2699TIP3    H2 8062   0.969   2.946   1.526
 2700TIP3   OH2 8063   3.387   0.570   4.417
 2700TIP3    H1 8064   3.349   0.640   4.471
 2700TIP3    H2 8065   3.482   0.581   4.428
 2701TIP3   OH2 8066   4.838   1.693   0.385
 2701TIP3    H1 8067   4.883   1.739   0.314
 2701TIP3    H2 8068   4.746   1.719   0.375
 2702TIP3   OH2 8069   0.036   3.445   5.206
 2702TIP3    H1 8070   0.065   3.444   5.297
 2702TIP3    H2 8071  -0.015   3.526   5.198
 2703TIP3   OH2 8072   6.671   0.423   3.978
 2703TIP3    H1 8073   6.595   0.469   3.943
 2703TIP3    H2 8074   6.746   0.477   3.954
 2704TIP3   OH2 8075   2.986   2.474   0.688
 2704TIP3    H1 8076   2.899   2.477   0.727
 2704TIP3    H2 8077   3.008   2.381   0.688
 2705TIP3   OH2 8078   3.155   1.917   2.632
 2705TIP3    H1 8079   3.197   1.866   2.701
 2705TIP3    H2 8080   3.081   1.960   2.676
 2706TIP3   OH2 8081   4.678   4.312   0.962
 2706TIP3    H1 8082   4.693   4.375   1.033
 2706TIP3    H2 8083   4.623   4.359   0.900
 2707TIP3   OH2 8084   3.283   4.613   3.848
 2707TIP3    H1 8085   3.246   4.547   3.907
 2707TIP3    H2 8086   3.208   4.665   3.820
 2708TIP3   OH2 8087   2.518   5.373   3.422
 2708TIP3    H1 8088   2.613   5.387   3.428
 2708TIP3    H2 8089   2.494   5.412   3.338
 2709TIP3   OH2 8090   1.043   0.229   2.781
 2709TIP3    H1 8091   1.137   0.229   2.765
 2709TIP3    H2 8092   1.031   0.290   2.855
 2710TIP3   OH2 8093   4.432   6.244   2.439
 2710TIP3    H1 8094   4.477   6.185   2.500
 2710TIP3    H2 8095   4.367   6.188   2.396
 2711TIP3   OH2 8096   0.542   5.043   4.546
 2711TIP3    H1 8097   0.545   4.959   4.500
 2711TIP3    H2 8098   0.449   5.069   4.543
 2712TIP3   OH2 8099   3.811   1.007   4.303
 2712TIP3    H1 8100   3.800   0.990   4.397
 2712TIP3    H2 8101   3.901   0.981   4.285
 2713TIP3   OH2 8102   0.768   2.831   0.536
 2713TIP3    H1 8103   0.807   2.913   0.506
 2713TIP3    H2 8104   0.803   2.765   0.477
 2714TIP3   OH2 8105   6.251   0.346   3.641
 2714TIP3    H1 8106   6.338   0.321   3.672
 2714TIP3    H2 8107   6.191   0.290   3.691
 2715TIP3   OH2 8108   5.352   1.337   2.639
 2715TIP3    H1 8109   5.258   1.316   2.646
 2715TIP3    H2 8110   5.363   1.419   2.686
 2716TIP3   OH2 8111   5.880   3.943   5.804
 2716TIP3    H1 8112   5.922   4.026   5.779
 2716TIP3    H2 8113   5.929   3.914   5.882
 2717TIP3   OH2 8114   2.298   4.767   5.003
 2717TIP3    H1 8115   2.297   4.854   5.042
 2717TIP3    H2 8116   2.247   4.776   4.923
 2718TIP3   OH2 8117   2.176   0.641   1.785
 2718TIP3    H1 8118   2.088   0.643   1.822
 2718TIP3    H2 8119   2.162   0.650   1.691
 2719TIP3   OH2 8120   4.119   6.589   1.880
 2719TIP3    H1 8121   4.199   6.623   1.921
 2719TIP3    H2 8122   4.149   6.545   1.801
 2720TIP3   OH2 8123   4.974   1.395   2.519
 2720TIP3    H1 8124   4.885   1.419   2.543
 2720TIP3    H2 8125   5.018   1.479   2.506
 2721TIP3   OH2 8126   4.482   5.529   3.326
 2721TIP3    H1 8127   4.388   5.537   3.338
 2721TIP3    H2 8128   4.518   5.535   3.414
 2722TIP3   OH2 8129   1.876   3.856   4.800
 2722TIP3    H1 8130   1.900   3.946   4.820
 2722TIP3    H2 8131   1.781   3.854   4.812
 2723TIP3   OH2 8132   4.048   5.399   0.496
 2723TIP3    H1 8133   3.969   5.390   0.549
 2723TIP3    H2 8134   4.115   5.429   0.557
 2724TIP3   OH2 8135   1.749   3.555   0.784
 2724TIP3    H1 8136   1.741   3.566   0.690
 2724TIP3    H2 8137   1.725   3.464   0.800
 2725TIP3   OH2 8138   0.683   0.240   4.978
 2725TIP3    H1 8139   0.621   0.169   4.965
 2725TIP3    H2 8140   0.632   0.310   5.019
 2726TIP3   OH2 8141   5.344   5.669   0.584
 2726TIP3    H1 8142   5.335   5.574   0.582
 2726TIP3    H2 8143   5.431   5.684   0.621
 2727TIP3   OH2 8144   0.575   6.300   2.773
 2727TIP3    H1 8145   0.631   6.223   2.770
 2727TIP3    H2 8146   0.497   6.271   2.821
 2728TIP3   OH2 8147   0.663   6.660   1.570
 2728TIP3    H1 8148   0.730   6.609   1.614
 2728TIP3    H2 8149   0.580   6.619   1.596
 2729TIP3   OH2 8150   0.129   5.250   3.275
 2729TIP3    H1 8151   0.049   5.215   3.313
 2729TIP3    H2 8152   0.105   5.337   3.244
 2730TIP3   OH2 8153   4.898   1.354   2.861
 2730TIP3    H1 8154   4.936   1.317   2.941
 2730TIP3    H2 8155   4.807   1.372   2.884
 2731TIP3   OH2 8156   4.043   4.682   1.431
 2731TIP3    H1 8157   4.026   4.674   1.337
 2731TIP3    H2 8158   4.122   4.735   1.436
 2732TIP3   OH2 8159   5.772   2.549   5.241
 2732TIP3    H1 8160   5.847   2.506   5.281
 2732TIP3    H2 8161   5.774   2.638   5.275
 2733TIP3   OH2 8162   6.169   2.735   3.907
 2733TIP3    H1 8163   6.104   2.683   3.859
 2733TIP3    H2 8164   6.220   2.670   3.956
 2734TIP3   OH2 8165   3.912   1.464   3.900
 2734TIP3    H1 8166   3.914   1.556   3.876
 2734TIP3    H2 8167   3.826   1.451   3.940
 2735TIP3   OH2 8168   1.520   1.848   4.664
 2735TIP3    H1 8169   1.589   1.878   4.723
 2735TIP3    H2 8170   1.454   1.917   4.666
 2736TIP3   OH2 8171   3.439   4.028   1.362
 2736TIP3    H1 8172   3.426   3.980   1.444
 2736TIP3    H2 8173   3.411   3.968   1.294
 2737TIP3   OH2 8174   6.168   5.783   2.289
 2737TIP3    H1 8175   6.160   5.713   2.225
 2737TIP3    H2 8176   6.108   5.851   2.258
 2738TIP3   OH2 8177   1.475   4.431   3.177
 2738TIP3    H1 8178   1.391   4.452   3.138
 2738TIP3    H2 8179   1.539   4.451   3.108
 2739TIP3   OH2 8180   2.503   2.679   1.043
 2739TIP3    H1 8181   2.511   2.763   1.088
 2739TIP3    H2 8182   2.510   2.614   1.112
 2740TIP3   OH2 8183   0.309   5.665   4.516
 2740TIP3    H1 8184   0.298   5.576   4.551
 2740TIP3    H2 8185   0.326   5.652   4.423
 2741TIP3   OH2 8186   3.270   2.639   2.585
 2741TIP3    H1 8187   3.237   2.729   2.585
 2741TIP3    H2 8188   3.312   2.629   2.500
 2742TIP3   OH2 8189   2.779   3.860   2.167
 2742TIP3    H1 8190   2.811   3.771   2.150
 2742TIP3    H2 8191   2.757   3.894   2.080
 2743TIP3   OH2 8192   6.239   1.304   3.815
 2743TIP3    H1 8193   6.275   1.391   3.828
 2743TIP3    H2 8194   6.238   1.293   3.719
 2744TIP3   OH2 8195   0.485   6.655   5.771
 2744TIP3    H1 8196   0.393   6.643   5.794
 2744TIP3    H2 8197   0.487   6.649   5.676
 2745TIP3   OH2 8198   4.664   6.497   2.086
 2745TIP3    H1 8199   4.600   6.477   2.154
 2745TIP3    H2 8200   4.614   6.496   2.004
 2746TIP3   OH2 8201   6.977   4.785   0.639
 2746TIP3    H1 8202   6.921   4.843   0.690
 2746TIP3    H2 8203   6.922   4.754   0.568
 2747TIP3   OH2 8204   1.735   4.926   4.886
 2747TIP3    H1 8205   1.769   5.002   4.932
 2747TIP3    H2 8206   1.809   4.865   4.881
 2748TIP3   OH2 8207   3.321   4.990   4.438
 2748TIP3    H1 8208   3.355   5.078   4.425
 2748TIP3    H2 8209   3.235   5.002   4.477
 2749TIP3   OH2 8210   6.396   2.605   5.653
 2749TIP3    H1 8211   6.317   2.657   5.670
 2749TIP3    H2 8212   6.441   2.652   5.583
 2750TIP3   OH2 8213   6.304   4.902   2.557
 2750TIP3    H1 8214   6.336   4.818   2.589
 2750TIP3    H2 8215   6.372   4.965   2.581
 2751TIP3   OH2 8216   3.848   0.903   1.804
 2751TIP3    H1 8217   3.825   0.852   1.882
 2751TIP3    H2 8218   3.790   0.869   1.735
 2752TIP3   OH2 8219   2.316   0.359   1.559
 2752TIP3    H1 8220   2.360   0.341   1.476
 2752TIP3    H2 8221   2.382   0.407   1.610
 2753TIP3   OH2 8222   4.441   2.983   2.267
 2753TIP3    H1 8223   4.440   3.063   2.319
 2753TIP3    H2 8224   4.408   3.010   2.181
 2754TIP3   OH2 8225   1.544   5.217   3.408
 2754TIP3    H1 8226   1.499   5.271   3.343
 2754TIP3    H2 8227   1.628   5.196   3.368
 2755TIP3   OH2 8228   1.084   6.582   1.945
 2755TIP3    H1 8229   1.142   6.581   1.868
 2755TIP3    H2 8230   1.129   6.529   2.010
 2756TIP3   OH2 8231   0.071   6.499   0.123
 2756TIP3    H1 8232   0.138   6.509   0.191
 2756TIP3    H2 8233   0.083   6.576   0.068
 2757TIP3   OH2 8234   0.220   0.602   1.676
 2757TIP3    H1 8235   0.149   0.666   1.673
 2757TIP3    H2 8236   0.299   0.655   1.678
 2758TIP3   OH2 8237   0.497   0.914   2.347
 2758TIP3    H1 8238   0.417   0.941   2.302
 2758TIP3    H2 8239   0.467   0.853   2.415
 2759TIP3   OH2 8240   2.693   1.750   3.197
 2759TIP3    H1 8241   2.625   1.765   3.131
 2759TIP3    H2 8242   2.748   1.681   3.159
 2760TIP3   OH2 8243   2.076   2.821   1.813
 2760TIP3    H1 8244   2.088   2.904   1.860
 2760TIP3    H2 8245   2.145   2.821   1.747
 2761TIP3   OH2 8246   1.602   2.679   0.702
 2761TIP3    H1 8247   1.687   2.668   0.659
 2761TIP3    H2 8248   1.623   2.723   0.784
 2762TIP3   OH2 8249   4.432   4.334   0.502
 2762TIP3    H1 8250   4.370   4.323   0.574
 2762TIP3    H2 8251   4.378   4.334   0.423
 2763TIP3   OH2 8252   2.449   4.804   0.402
 2763TIP3    H1 8253   2.400   4.868   0.351
 2763TIP3    H2 8254   2.497   4.753   0.336
 2764TIP3   OH2 8255   5.147   5.904   4.339
 2764TIP3    H1 8256   5.132   5.933   4.249
 2764TIP3    H2 8257   5.062   5.869   4.367
 2765TIP3   OH2 8258   1.363   6.631   0.080
 2765TIP3    H1 8259   1.351   6.693   0.008
 2765TIP3    H2 8260   1.357   6.684   0.159
 2766TIP3   OH2 8261   3.848   0.061   5.329
 2766TIP3    H1 8262   3.840   0.020   5.243
 2766TIP3    H2 8263   3.939   0.045   5.354
 2767TIP3   OH2 8264   0.971   1.855   4.898
 2767TIP3    H1 8265   0.887   1.837   4.939
 2767TIP3    H2 8266   1.029   1.786   4.929
 2768TIP3   OH2 8267   4.012   1.853   3.227
 2768TIP3    H1 8268   3.936   1.867   3.171
 2768TIP3    H2 8269   4.032   1.939   3.263
 2769TIP3   OH2 8270   1.138   1.745   5.550
 2769TIP3    H1 8271   1.152   1.802   5.625
 2769TIP3    H2 8272   1.114   1.804   5.479
 2770TIP3   OH2 8273   0.166   4.672   0.351
 2770TIP3    H1 8274   0.130   4.635   0.271
 2770TIP3    H2 8275   0.099   4.732   0.383
 2771TIP3   OH2 8276   2.089   0.134   2.550
 2771TIP3    H1 8277   2.063   0.043   2.566
 2771TIP3    H2 8278   2.070   0.180   2.632
 2772TIP3   OH2 8279   0.775   3.891   2.462
 2772TIP3    H1 8280   0.770   3.796   2.448
 2772TIP3    H2 8281   0.741   3.929   2.381
 2773TIP3   OH2 8282   3.148   4.442   3.249
 2773TIP3    H1 8283   3.070   4.497   3.254
 2773TIP3    H2 8284   3.119   4.357   3.283
 2774TIP3   OH2 8285   5.387   2.461   1.983
 2774TIP3    H1 8286   5.361   2.500   1.899
 2774TIP3    H2 8287   5.457   2.517   2.014
 2775TIP3   OH2 8288   0.521   1.697   4.519
 2775TIP3    H1 8289   0.584   1.667   4.584
 2775TIP3    H2 8290   0.440   1.649   4.540
 2776TIP3   OH2 8291   6.794   0.815   3.401
 2776TIP3    H1 8292   6.707   0.774   3.403
 2776TIP3    H2 8293   6.791   0.882   3.469
 2777TIP3   OH2 8294   3.948   3.956   0.908
 2777TIP3    H1 8295   3.882   4.004   0.959
 2777TIP3    H2 8296   4.031   3.995   0.934
 2778TIP3   OH2 8297   6.748   2.712   4.681
 2778TIP3    H1 8298   6.807   2.742   4.751
 2778TIP3    H2 8299   6.752   2.781   4.615
 2779TIP3   OH2 8300   0.236   4.952   0.961
 2779TIP3    H1 8301   0.141   4.966   0.954
 2779TIP3    H2 8302   0.246   4.901   1.042
 2780TIP3   OH2 8303   4.222   5.555   3.679
 2780TIP3    H1 8304   4.237   5.465   3.649
 2780TIP3    H2 8305   4.128   5.568   3.667
 2781TIP3   OH2 8306   2.966   3.904   0.357
 2781TIP3    H1 8307   2.905   3.831   0.364
 2781TIP3    H2 8308   2.984   3.911   0.263
 2782TIP3   OH2 8309   1.802   1.565   3.771
 2782TIP3    H1 8310   1.842   1.652   3.772
 2782TIP3    H2 8311   1.725   1.575   3.714
 2783TIP3   OH2 8312   6.557   4.935   3.184
 2783TIP3    H1 8313   6.566   5.027   3.160
 2783TIP3    H2 8314   6.485   4.934   3.246
 2784TIP3   OH2 8315   5.050   4.343   3.693
 2784TIP3    H1 8316   5.063   4.341   3.788
 2784TIP3    H2 8317   5.129   4.302   3.657
 2785TIP3   OH2 8318   3.058   4.791   3.660
 2785TIP3    H1 8319   3.021   4.707   3.688
 2785TIP3    H2 8320   2.989   4.855   3.678
 2786TIP3   OH2 8321   5.976   5.319   1.671
 2786TIP3    H1 8322   6.041   5.251   1.653
 2786TIP3    H2 8323   5.942   5.297   1.758
 2787TIP3   OH2 8324   7.004   6.700   2.095
 2787TIP3    H1 8325   6.946   6.771   2.123
 2787TIP3    H2 8326   6.952   6.651   2.032
 2788TIP3   OH2 8327   0.328   3.183   4.880
 2788TIP3    H1 8328   0.386   3.217   4.948
 2788TIP3    H2 8329   0.261   3.135   4.927
 2789TIP3   OH2 8330   1.162   1.079   4.915
 2789TIP3    H1 8331   1.210   1.000   4.892
 2789TIP3    H2 8332   1.070   1.053   4.912
 2790TIP3   OH2 8333   3.011   6.525   3.136
 2790TIP3    H1 8334   3.034   6.561   3.051
 2790TIP3    H2 8335   3.086   6.544   3.192
 2791TIP3   OH2 8336   5.719   4.484   5.692
 2791TIP3    H1 8337   5.777   4.411   5.712
 2791TIP3    H2 8338   5.725   4.493   5.597
 2792TIP3   OH2 8339   2.269   5.258   4.241
 2792TIP3    H1 8340   2.272   5.316   4.317
 2792TIP3    H2 8341   2.226   5.309   4.173
 2793TIP3   OH2 8342   2.769   6.423   3.069
 2793TIP3    H1 8343   2.810   6.346   3.027
 2793TIP3    H2 8344   2.843   6.472   3.106
 2794TIP3   OH2 8345   4.647   4.977   2.555
 2794TIP3    H1 8346   4.552   4.978   2.567
 2794TIP3    H2 8347   4.682   4.985   2.644
 2795TIP3   OH2 8348   1.996   0.283   4.433
 2795TIP3    H1 8349   1.951   0.242   4.507
 2795TIP3    H2 8350   2.073   0.228   4.419
 2796TIP3   OH2 8351   3.743   4.190   2.785
 2796TIP3    H1 8352   3.721   4.273   2.742
 2796TIP3    H2 8353   3.662   4.140   2.785
 2797TIP3   OH2 8354   6.452   4.954   3.470
 2797TIP3    H1 8355   6.455   4.968   3.565
 2797TIP3    H2 8356   6.416   5.036   3.435
 2798TIP3   OH2 8357   0.140   4.409   5.068
 2798TIP3    H1 8358   0.198   4.405   5.144
 2798TIP3    H2 8359   0.139   4.320   5.034
 2799TIP3   OH2 8360   2.313   1.895   5.221
 2799TIP3    H1 8361   2.327   1.850   5.304
 2799TIP3    H2 8362   2.356   1.980   5.233
 2800TIP3   OH2 8363   4.536   1.249   4.136
 2800TIP3    H1 8364   4.588   1.226   4.214
 2800TIP3    H2 8365   4.601   1.275   4.071
 2801TIP3   OH2 8366   1.249   1.245   0.340
 2801TIP3    H1 8367   1.290   1.298   0.408
 2801TIP3    H2 8368   1.258   1.297   0.260
 2802TIP3   OH2 8369   5.843   1.542   1.747
 2802TIP3    H1 8370   5.872   1.536   1.838
 2802TIP3    H2 8371   5.920   1.572   1.699
 2803TIP3   OH2 8372   3.365   2.925   1.658
 2803TIP3    H1 8373   3.354   2.861   1.588
 2803TIP3    H2 8374   3.418   2.994   1.618
 2804TIP3   OH2 8375   5.739   0.480   4.156
 2804TIP3    H1 8376   5.770   0.454   4.070
 2804TIP3    H2 8377   5.738   0.576   4.152
 2805TIP3   OH2 8378   4.481   3.464   5.420
 2805TIP3    H1 8379   4.423   3.457   5.344
 2805TIP3    H2 8380   4.568   3.474   5.383
 2806TIP3   OH2 8381   3.058   4.726   2.774
 2806TIP3    H1 8382   3.148   4.752   2.791
 2806TIP3    H2 8383   3.050   4.639   2.813
 2807TIP3   OH2 8384   5.980   3.310   0.345
 2807TIP3    H1 8385   5.928   3.387   0.322
 2807TIP3    H2 8386   6.069   3.345   0.358
 2808TIP3   OH2 8387   6.231   0.340   4.363
 2808TIP3    H1 8388   6.159   0.386   4.319
 2808TIP3    H2 8389   6.190   0.263   4.402
 2809TIP3   OH2 8390   5.801   4.801   4.172
 2809TIP3    H1 8391   5.752   4.825   4.251
 2809TIP3    H2 8392   5.781   4.709   4.158
 2810TIP3   OH2 8393   6.804   5.872   1.073
 2810TIP3    H1 8394   6.767   5.794   1.113
 2810TIP3    H2 8395   6.887   5.885   1.119
 2811TIP3   OH2 8396   0.512   3.785   4.007
 2811TIP3    H1 8397   0.547   3.864   3.966
 2811TIP3    H2 8398   0.586   3.750   4.056
 2812TIP3   OH2 8399   4.806   3.887   5.648
 2812TIP3    H1 8400   4.881   3.934   5.613
 2812TIP3    H2 8401   4.766   3.948   5.709
 2813TIP3   OH2 8402   1.989   1.150   1.615
 2813TIP3    H1 8403   1.978   1.055   1.621
 2813TIP3    H2 8404   2.004   1.167   1.522
 2814TIP3   OH2 8405   1.221   1.899   1.628
 2814TIP3    H1 8406   1.278   1.959   1.676
 2814TIP3    H2 8407   1.164   1.861   1.695
 2815TIP3   OH2 8408   0.366   2.987   3.349
 2815TIP3    H1 8409   0.444   2.965   3.401
 2815TIP3    H2 8410   0.380   3.077   3.321
 2816TIP3   OH2 8411   2.500   4.848   2.588
 2816TIP3    H1 8412   2.565   4.827   2.655
 2816TIP3    H2 8413   2.526   4.795   2.512
 2817TIP3   OH2 8414   2.374   2.310   0.809
 2817TIP3    H1 8415   2.437   2.379   0.791
 2817TIP3    H2 8416   2.427   2.231   0.822
 2818TIP3   OH2 8417   0.385   4.799   2.755
 2818TIP3    H1 8418   0.365   4.713   2.791
 2818TIP3    H2 8419   0.426   4.780   2.670
 2819TIP3   OH2 8420   6.321   3.828   4.461
 2819TIP3    H1 8421   6.315   3.886   4.537
 2819TIP3    H2 8422   6.415   3.816   4.448
 2820TIP3   OH2 8423   0.445   1.487   2.449
 2820TIP3    H1 8424   0.450   1.461   2.357
 2820TIP3    H2 8425   0.523   1.542   2.463
 2821TIP3   OH2 8426   5.137   2.137   0.032
 2821TIP3    H1 8427   5.090   2.140  -0.051
 2821TIP3    H2 8428   5.118   2.221   0.073
 2822TIP3   OH2 8429   4.115   3.631   3.036
 2822TIP3    H1 8430   4.055   3.567   3.077
 2822TIP3    H2 8431   4.169   3.662   3.109
 2823TIP3   OH2 8432   3.046   5.850   5.043
 2823TIP3    H1 8433   2.963   5.826   5.085
 2823TIP3    H2 8434   3.111   5.792   5.083
 2824TIP3   OH2 8435   4.449   0.365   0.536
 2824TIP3    H1 8436   4.459   0.273   0.563
 2824TIP3    H2 8437   4.419   0.360   0.445
 2825TIP3   OH2 8438   4.173   5.491   2.347
 2825TIP3    H1 8439   4.195   5.529   2.262
 2825TIP3    H2 8440   4.257   5.470   2.387
 2826TIP3   OH2 8441   4.618   0.375   5.210
 2826TIP3    H1 8442   4.533   0.332   5.207
 2826TIP3    H2 8443   4.613   0.434   5.285
 2827TIP3   OH2 8444   3.262   2.339   1.767
 2827TIP3    H1 8445   3.246   2.251   1.735
 2827TIP3    H2 8446   3.341   2.368   1.721
 2828TIP3   OH2 8447   0.829   3.126   2.080
 2828TIP3    H1 8448   0.903   3.120   2.020
 2828TIP3    H2 8449   0.814   3.221   2.090
 2829TIP3   OH2 8450   6.024   1.806   0.055
 2829TIP3    H1 8451   5.974   1.796   0.137
 2829TIP3    H2 8452   6.107   1.845   0.083
 2830TIP3   OH2 8453   1.634   6.000   4.087
 2830TIP3    H1 8454   1.621   6.076   4.031
 2830TIP3    H2 8455   1.608   6.029   4.174
 2831TIP3   OH2 8456   4.439   1.394   5.553
 2831TIP3    H1 8457   4.464   1.303   5.540
 2831TIP3    H2 8458   4.450   1.435   5.467
 2832TIP3   OH2 8459   7.032   3.202   4.760
 2832TIP3    H1 8460   6.982   3.245   4.691
 2832TIP3    H2 8461   7.027   3.261   4.835
 2833TIP3   OH2 8462   4.518   6.213   1.308
 2833TIP3    H1 8463   4.532   6.307   1.316
 2833TIP3    H2 8464   4.438   6.195   1.358
 2834TIP3   OH2 8465   0.541   4.487   2.340
 2834TIP3    H1 8466   0.636   4.494   2.355
 2834TIP3    H2 8467   0.509   4.576   2.348
 2835TIP3   OH2 8468   0.889   1.955   1.437
 2835TIP3    H1 8469   0.943   2.014   1.490
 2835TIP3    H2 8470   0.879   1.876   1.491
 2836TIP3   OH2 8471   6.951   3.127   5.666
 2836TIP3    H1 8472   6.859   3.102   5.657
 2836TIP3    H2 8473   7.000   3.047   5.648
 2837TIP3   OH2 8474   5.307   3.087   0.993
 2837TIP3    H1 8475   5.386   3.114   0.945
 2837TIP3    H2 8476   5.283   3.163   1.045
 2838TIP3   OH2 8477   1.463   3.915   5.302
 2838TIP3    H1 8478   1.456   3.828   5.343
 2838TIP3    H2 8479   1.392   3.966   5.341
 2839TIP3   OH2 8480   6.010   3.896   0.683
 2839TIP3    H1 8481   5.953   3.822   0.666
 2839TIP3    H2 8482   5.951   3.971   0.688
 2840TIP3   OH2 8483   6.176   2.050   3.700
 2840TIP3    H1 8484   6.251   2.069   3.643
 2840TIP3    H2 8485   6.169   2.128   3.756
 2841TIP3   OH2 8486   3.403   2.140   2.842
 2841TIP3    H1 8487   3.494   2.167   2.841
 2841TIP3    H2 8488   3.376   2.142   2.750
 2842TIP3   OH2 8489   5.044   3.072   3.948
 2842TIP3    H1 8490   5.035   3.157   3.906
 2842TIP3    H2 8491   4.977   3.017   3.907
 2843TIP3   OH2 8492   1.302   1.746   0.505
 2843TIP3    H1 8493   1.218   1.735   0.550
 2843TIP3    H2 8494   1.280   1.744   0.412
 2844TIP3   OH2 8495   7.043   5.021   4.098
 2844TIP3    H1 8496   7.138   5.019   4.087
 2844TIP3    H2 8497   7.012   5.085   4.035
 2845TIP3   OH2 8498   3.437   6.043   2.677
 2845TIP3    H1 8499   3.359   5.998   2.644
 2845TIP3    H2 8500   3.459   5.997   2.758
 2846TIP3   OH2 8501   2.631   2.516   1.770
 2846TIP3    H1 8502   2.585   2.480   1.846
 2846TIP3    H2 8503   2.684   2.588   1.805
 2847TIP3   OH2 8504   2.530   0.578   0.018
 2847TIP3    H1 8505   2.489   0.632   0.086
 2847TIP3    H2 8506   2.616   0.618   0.004
 2848TIP3   OH2 8507   2.359   5.237   0.052
 2848TIP3    H1 8508   2.354   5.166  -0.012
 2848TIP3    H2 8509   2.269   5.249   0.082
 2849TIP3   OH2 8510   1.147   3.273   4.919
 2849TIP3    H1 8511   1.189   3.358   4.932
 2849TIP3    H2 8512   1.196   3.234   4.847
 2850TIP3   OH2 8513   6.733   3.530   4.287
 2850TIP3    H1 8514   6.804   3.551   4.347
 2850TIP3    H2 8515   6.668   3.485   4.342
 2851TIP3   OH2 8516   4.220   0.498   1.183
 2851TIP3    H1 8517   4.171   0.573   1.215
 2851TIP3    H2 8518   4.154   0.430   1.169
 2852TIP3   OH2 8519   3.313   3.361   1.016
 2852TIP3    H1 8520   3.305   3.290   1.080
 2852TIP3    H2 8521   3.351   3.319   0.939
 2853TIP3   OH2 8522   0.456   0.089   0.799
 2853TIP3    H1 8523   0.375   0.112   0.754
 2853TIP3    H2 8524   0.432   0.086   0.892
 2854TIP3   OH2 8525   5.568   0.436   5.678
 2854TIP3    H1 8526   5.616   0.487   5.744
 2854TIP3    H2 8527   5.505   0.498   5.642
 2855TIP3   OH2 8528   3.367   5.182   4.130
 2855TIP3    H1 8529   3.313   5.230   4.192
 2855TIP3    H2 8530   3.457   5.193   4.161
 2856TIP3   OH2 8531   4.250   3.254   1.306
 2856TIP3    H1 8532   4.272   3.163   1.323
 2856TIP3    H2 8533   4.218   3.287   1.390
 2857TIP3   OH2 8534   2.156   0.919   2.982
 2857TIP3    H1 8535   2.110   0.840   3.012
 2857TIP3    H2 8536   2.235   0.922   3.036
 2858TIP3   OH2 8537   1.393   3.310   2.969
 2858TIP3    H1 8538   1.426   3.243   3.029
 2858TIP3    H2 8539   1.423   3.282   2.882
 2859TIP3   OH2 8540   5.969   3.060   0.499
 2859TIP3    H1 8541   5.932   3.093   0.581
 2859TIP3    H2 8542   5.996   3.138   0.451
 2860TIP3   OH2 8543   4.466   0.847   0.548
 2860TIP3    H1 8544   4.398   0.913   0.537
 2860TIP3    H2 8545   4.548   0.895   0.538
 2861TIP3   OH2 8546   5.324   0.225   2.276
 2861TIP3    H1 8547   5.316   0.134   2.304
 2861TIP3    H2 8548   5.296   0.225   2.185
 2862TIP3   OH2 8549   3.874   3.056   4.074
 2862TIP3    H1 8550   3.835   3.142   4.092
 2862TIP3    H2 8551   3.820   3.021   4.003
 2863TIP3   OH2 8552   6.302   6.728   3.852
 2863TIP3    H1 8553   6.249   6.652   3.877
 2863TIP3    H2 8554   6.303   6.784   3.930
 2864TIP3   OH2 8555   0.687   2.537   4.374
 2864TIP3    H1 8556   0.603   2.561   4.412
 2864TIP3    H2 8557   0.751   2.558   4.442
 2865TIP3   OH2 8558   4.829   5.445   2.893
 2865TIP3    H1 8559   4.803   5.536   2.899
 2865TIP3    H2 8560   4.911   5.440   2.943
 2866TIP3   OH2 8561   0.369   5.978   0.392
 2866TIP3    H1 8562   0.353   5.890   0.359
 2866TIP3    H2 8563   0.462   5.994   0.372
 2867TIP3   OH2 8564   2.139   3.499   3.346
 2867TIP3    H1 8565   2.141   3.594   3.351
 2867TIP3    H2 8566   2.163   3.470   3.434
 2868TIP3   OH2 8567   0.887   1.104   1.840
 2868TIP3    H1 8568   0.792   1.117   1.852
 2868TIP3    H2 8569   0.893   1.028   1.782
 2869TIP3   OH2 8570   5.980   0.911   1.942
 2869TIP3    H1 8571   5.918   0.884   1.873
 2869TIP3    H2 8572   6.063   0.870   1.917
 2870TIP3   OH2 8573   3.878   5.035   4.975
 2870TIP3    H1 8574   3.804   4.990   5.017
 2870TIP3    H2 8575   3.932   4.964   4.940
 2871TIP3   OH2 8576   6.578   3.635   3.863
 2871TIP3    H1 8577   6.566   3.696   3.936
 2871TIP3    H2 8578   6.641   3.571   3.896
 2872TIP3   OH2 8579   6.451   0.598   0.056
 2872TIP3    H1 8580   6.467   0.649   0.134
 2872TIP3    H2 8581   6.538   0.567   0.029
 2873TIP3   OH2 8582   5.432   5.488   5.881
 2873TIP3    H1 8583   5.447   5.575   5.917
 2873TIP3    H2 8584   5.511   5.469   5.830
 2874TIP3   OH2 8585   2.899   2.773   2.180
 2874TIP3    H1 8586   2.920   2.792   2.271
 2874TIP3    H2 8587   2.932   2.684   2.165
 2875TIP3   OH2 8588   0.229   0.684   1.045
 2875TIP3    H1 8589   0.170   0.609   1.040
 2875TIP3    H2 8590   0.216   0.718   1.134
 2876TIP3   OH2 8591   1.286   4.716   2.120
 2876TIP3    H1 8592   1.199   4.706   2.081
 2876TIP3    H2 8593   1.338   4.759   2.054
 2877TIP3   OH2 8594   0.104   0.239   2.164
 2877TIP3    H1 8595   0.067   0.159   2.126
 2877TIP3    H2 8596   0.062   0.310   2.117
 2878TIP3   OH2 8597   3.514   3.074   2.849
 2878TIP3    H1 8598   3.519   3.160   2.807
 2878TIP3    H2 8599   3.468   3.090   2.931
 2879TIP3   OH2 8600   5.850   6.746   5.407
 2879TIP3    H1 8601   5.823   6.827   5.450
 2879TIP3    H2 8602   5.800   6.746   5.324
 2880TIP3   OH2 8603   3.059   2.124   4.977
 2880TIP3    H1 8604   3.081   2.209   5.016
 2880TIP3    H2 8605   3.134   2.103   4.922
 2881TIP3   OH2 8606   2.324   4.856   5.365
 2881TIP3    H1 8607   2.355   4.829   5.452
 2881TIP3    H2 8608   2.338   4.778   5.310
 2882TIP3   OH2 8609   6.341   3.501   4.197
 2882TIP3    H1 8610   6.392   3.422   4.178
 2882TIP3    H2 8611   6.333   3.545   4.113
 2883TIP3   OH2 8612   0.030   0.537   0.021
 2883TIP3    H1 8613   0.089   0.474  -0.020
 2883TIP3    H2 8614  -0.055   0.493   0.020
 2884TIP3   OH2 8615   3.156   4.792   1.213
 2884TIP3    H1 8616   3.149   4.843   1.132
 2884TIP3    H2 8617   3.250   4.777   1.223
 2885TIP3   OH2 8618   4.898   5.397   5.853
 2885TIP3    H1 8619   4.887   5.491   5.867
 2885TIP3    H2 8620   4.992   5.382   5.867
 2886TIP3   OH2 8621   6.388   1.114   5.315
 2886TIP3    H1 8622   6.452   1.047   5.295
 2886TIP3    H2 8623   6.303   1.071   5.302
 2887TIP3   OH2 8624   6.075   5.528   2.112
 2887TIP3    H1 8625   5.997   5.576   2.083
 2887TIP3    H2 8626   6.139   5.542   2.042
 2888TIP3   OH2 8627   0.909   5.961   4.700
 2888TIP3    H1 8628   0.956   5.881   4.676
 2888TIP3    H2 8629   0.844   5.972   4.630
 2889TIP3   OH2 8630   1.899   0.670   1.337
 2889TIP3    H1 8631   1.816   0.682   1.383
 2889TIP3    H2 8632   1.878   0.614   1.263
 2890TIP3   OH2 8633   1.403   4.108   2.540
 2890TIP3    H1 8634   1.382   4.168   2.469
 2890TIP3    H2 8635   1.452   4.161   2.603
 2891TIP3   OH2 8636   5.308   4.107   4.644
 2891TIP3    H1 8637   5.318   4.166   4.569
 2891TIP3    H2 8638   5.215   4.086   4.645
 2892TIP3   OH2 8639   4.023   1.226   0.886
 2892TIP3    H1 8640   4.078   1.260   0.815
 2892TIP3    H2 8641   4.048   1.134   0.894
 2893TIP3   OH2 8642   2.464   0.022   1.542
 2893TIP3    H1 8643   2.449  -0.009   1.452
 2893TIP3    H2 8644   2.559   0.012   1.554
 2894TIP3   OH2 8645   5.745   3.152   3.982
 2894TIP3    H1 8646   5.791   3.085   4.033
 2894TIP3    H2 8647   5.750   3.120   3.891
 2895TIP3   OH2 8648   6.581   2.396   1.908
 2895TIP3    H1 8649   6.536   2.314   1.926
 2895TIP3    H2 8650   6.614   2.425   1.993
 2896TIP3   OH2 8651   6.834   4.254   5.491
 2896TIP3    H1 8652   6.770   4.278   5.424
 2896TIP3    H2 8653   6.918   4.283   5.455
 2897TIP3   OH2 8654   5.500   2.174   1.517
 2897TIP3    H1 8655   5.439   2.127   1.575
 2897TIP3    H2 8656   5.481   2.139   1.430
 2898TIP3   OH2 8657   5.307   2.408   2.472
 2898TIP3    H1 8658   5.298   2.436   2.381
 2898TIP3    H2 8659   5.402   2.412   2.489
 2899TIP3   OH2 8660   4.207   4.043   0.961
 2899TIP3    H1 8661   4.299   4.036   0.934
 2899TIP3    H2 8662   4.211   4.088   1.045
 2900TIP3   OH2 8663   2.951   5.170   5.011
 2900TIP3    H1 8664   2.861   5.144   4.989
 2900TIP3    H2 8665   3.005   5.127   4.944
 2901TIP3   OH2 8666   4.449   5.219   3.848
 2901TIP3    H1 8667   4.503   5.225   3.927
 2901TIP3    H2 8668   4.465   5.131   3.814
 2902TIP3   OH2 8669   4.304   4.429   0.227
 2902TIP3    H1 8670   4.269   4.442   0.139
 2902TIP3    H2 8671   4.247   4.362   0.266
 2903TIP3   OH2 8672   5.888   5.129   4.057
 2903TIP3    H1 8673   5.826   5.058   4.040
 2903TIP3    H2 8674   5.905   5.123   4.151
 2904TIP3   OH2 8675   2.806   2.073   2.638
 2904TIP3    H1 8676   2.827   2.020   2.716
 2904TIP3    H2 8677   2.712   2.063   2.627
 2905TIP3   OH2 8678   6.244   1.523   5.198
 2905TIP3    H1 8679   6.168   1.479   5.161
 2905TIP3    H2 8680   6.241   1.611   5.160
 2906TIP3   OH2 8681   2.177   0.296   1.876
 2906TIP3    H1 8682   2.262   0.332   1.900
 2906TIP3    H2 8683   2.115   0.340   1.933
 2907TIP3   OH2 8684   2.333   3.822   1.716
 2907TIP3    H1 8685   2.393   3.847   1.786
 2907TIP3    H2 8686   2.291   3.904   1.690
 2908TIP3   OH2 8687   2.678   4.696   4.110
 2908TIP3    H1 8688   2.636   4.673   4.027
 2908TIP3    H2 8689   2.607   4.697   4.174
 2909TIP3   OH2 8690   6.942   3.265   2.761
 2909TIP3    H1 8691   6.861   3.299   2.797
 2909TIP3    H2 8692   6.933   3.276   2.666
 2910TIP3   OH2 8693   3.243   2.570   1.012
 2910TIP3    H1 8694   3.157   2.602   1.038
 2910TIP3    H2 8695   3.235   2.475   1.013
 2911TIP3   OH2 8696   1.433   2.121   2.040
 2911TIP3    H1 8697   1.497   2.141   2.108
 2911TIP3    H2 8698   1.348   2.141   2.080
 2912TIP3   OH2 8699   0.842   5.460   4.074
 2912TIP3    H1 8700   0.839   5.530   4.140
 2912TIP3    H2 8701   0.777   5.486   4.009
 2913TIP3   OH2 8702   4.499   4.942   4.834
 2913TIP3    H1 8703   4.497   5.037   4.819
 2913TIP3    H2 8704   4.460   4.905   4.755
 2914TIP3   OH2 8705   1.639   6.497   1.843
 2914TIP3    H1 8706   1.690   6.496   1.762
 2914TIP3    H2 8707   1.624   6.405   1.864
 2915TIP3   OH2 8708   6.153   0.984   5.222
 2915TIP3    H1 8709   6.154   0.927   5.299
 2915TIP3    H2 8710   6.087   1.050   5.242
 2916TIP3   OH2 8711   1.537   3.140   4.005
 2916TIP3    H1 8712   1.463   3.154   4.063
 2916TIP3    H2 8713   1.498   3.112   3.922
 2917TIP3   OH2 8714   5.554   6.653   4.193
 2917TIP3    H1 8715   5.493   6.624   4.261
 2917TIP3    H2 8716   5.641   6.639   4.230
 2918TIP3   OH2 8717   5.069   1.198   1.013
 2918TIP3    H1 8718   5.041   1.163   1.097
 2918TIP3    H2 8719   4.997   1.253   0.984
 2919TIP3   OH2 8720   3.904   5.116   0.144
 2919TIP3    H1 8721   3.845   5.041   0.137
 2919TIP3    H2 8722   3.956   5.114   0.064
 2920TIP3   OH2 8723   2.029   2.351   1.061
 2920TIP3    H1 8724   2.073   2.400   0.991
 2920TIP3    H2 8725   2.044   2.402   1.140
 2921TIP3   OH2 8726   1.646   2.118   5.433
 2921TIP3    H1 8727   1.590   2.044   5.413
 2921TIP3    H2 8728   1.731   2.096   5.395
 2922TIP3   OH2 8729   1.924   6.507   2.870
 2922TIP3    H1 8730   1.920   6.589   2.821
 2922TIP3    H2 8731   1.917   6.439   2.802
 2923TIP3   OH2 8732   3.260   3.360   1.423
 2923TIP3    H1 8733   3.335   3.330   1.371
 2923TIP3    H2 8734   3.185   3.351   1.365
 2924TIP3   OH2 8735   2.507   3.849   0.654
 2924TIP3    H1 8736   2.490   3.900   0.733
 2924TIP3    H2 8737   2.514   3.759   0.684
 2925TIP3   OH2 8738   2.718   1.390   2.492
 2925TIP3    H1 8739   2.625   1.376   2.511
 2925TIP3    H2 8740   2.755   1.303   2.483
 2926TIP3   OH2 8741   6.807   3.557   2.644
 2926TIP3    H1 8742   6.757   3.514   2.574
 2926TIP3    H2 8743   6.898   3.548   2.616
 2927TIP3   OH2 8744   4.713   6.597   1.396
 2927TIP3    H1 8745   4.630   6.565   1.361
 2927TIP3    H2 8746   4.729   6.542   1.473
 2928TIP3   OH2 8747   5.473   2.978   2.606
 2928TIP3    H1 8748   5.426   2.915   2.552
 2928TIP3    H2 8749   5.562   2.943   2.611
 2929TIP3   OH2 8750   3.716   1.414   2.930
 2929TIP3    H1 8751   3.727   1.497   2.883
 2929TIP3    H2 8752   3.702   1.349   2.861
 2930TIP3   OH2 8753   2.381   0.115   0.465
 2930TIP3    H1 8754   2.369   0.049   0.397
 2930TIP3    H2 8755   2.361   0.198   0.421
 2931TIP3   OH2 8756   6.557   1.587   2.966
 2931TIP3    H1 8757   6.609   1.514   2.930
 2931TIP3    H2 8758   6.500   1.612   2.894
 2932TIP3   OH2 8759   5.811   2.498   1.665
 2932TIP3    H1 8760   5.805   2.590   1.692
 2932TIP3    H2 8761   5.721   2.468   1.662
 2933TIP3   OH2 8762   4.779   1.197   3.121
 2933TIP3    H1 8763   4.859   1.246   3.136
 2933TIP3    H2 8764   4.709   1.260   3.136
 2934TIP3   OH2 8765   5.692   5.566   1.688
 2934TIP3    H1 8766   5.725   5.510   1.618
 2934TIP3    H2 8767   5.667   5.647   1.644
 2935TIP3   OH2 8768   2.314   1.940   0.659
 2935TIP3    H1 8769   2.222   1.956   0.638
 2935TIP3    H2 8770   2.345   2.024   0.694
 2936TIP3   OH2 8771   3.167   5.167   5.853
 2936TIP3    H1 8772   3.127   5.149   5.769
 2936TIP3    H2 8773   3.200   5.256   5.847
 2937TIP3   OH2 8774   6.734   2.450   2.524
 2937TIP3    H1 8775   6.794   2.384   2.490
 2937TIP3    H2 8776   6.771   2.475   2.609
 2938TIP3   OH2 8777   1.940   2.090   0.880
 2938TIP3    H1 8778   1.977   2.124   0.798
 2938TIP3    H2 8779   1.963   2.156   0.945
 2939TIP3   OH2 8780   4.199   5.562   3.352
 2939TIP3    H1 8781   4.134   5.621   3.390
 2939TIP3    H2 8782   4.196   5.484   3.408
 2940TIP3   OH2 8783   1.260   0.395   0.293
 2940TIP3    H1 8784   1.247   0.461   0.225
 2940TIP3    H2 8785   1.353   0.373   0.287
 2941TIP3   OH2 8786   1.639   1.879   4.980
 2941TIP3    H1 8787   1.698   1.850   4.911
 2941TIP3    H2 8788   1.680   1.851   5.061
 2942TIP3   OH2 8789   2.961   0.448   0.371
 2942TIP3    H1 8790   2.923   0.530   0.402
 2942TIP3    H2 8791   3.040   0.474   0.324
 2943TIP3   OH2 8792   4.076   5.882   0.746
 2943TIP3    H1 8793   4.100   5.870   0.654
 2943TIP3    H2 8794   4.151   5.848   0.795
 2944TIP3   OH2 8795   2.715   1.868   0.862
 2944TIP3    H1 8796   2.629   1.827   0.871
 2944TIP3    H2 8797   2.772   1.818   0.921
 2945TIP3   OH2 8798   7.025   4.295   1.190
 2945TIP3    H1 8799   6.939   4.257   1.171
 2945TIP3    H2 8800   7.067   4.302   1.104
 2946TIP3   OH2 8801   2.356   4.956   2.851
 2946TIP3    H1 8802   2.365   4.941   2.757
 2946TIP3    H2 8803   2.262   4.964   2.865
 2947TIP3   OH2 8804   4.295   0.307   2.463
 2947TIP3    H1 8805   4.286   0.352   2.379
 2947TIP3    H2 8806   4.218   0.250   2.468
 2948TIP3   OH2 8807   2.510   2.823   1.910
 2948TIP3    H1 8808   2.592   2.778   1.892
 2948TIP3    H2 8809   2.481   2.787   1.994
 2949TIP3   OH2 8810   5.445   0.859   3.123
 2949TIP3    H1 8811   5.446   0.954   3.131
 2949TIP3    H2 8812   5.488   0.827   3.202
 2950TIP3   OH2 8813   0.514   2.584   0.074
 2950TIP3    H1 8814   0.565   2.518   0.122
 2950TIP3    H2 8815   0.490   2.540  -0.008
 2951TIP3   OH2 8816   2.854   6.582   2.496
 2951TIP3    H1 8817   2.818   6.618   2.415
 2951TIP3    H2 8818   2.865   6.489   2.478
 2952TIP3   OH2 8819   4.899   1.051   4.618
 2952TIP3    H1 8820   4.885   1.097   4.535
 2952TIP3    H2 8821   4.824   0.992   4.624
 2953TIP3   OH2 8822   4.711   5.239   0.147
 2953TIP3    H1 8823   4.716   5.334   0.137
 2953TIP3    H2 8824   4.620   5.222   0.170
 2954TIP3   OH2 8825   4.506   4.294   1.425
 2954TIP3    H1 8826   4.431   4.236   1.435
 2954TIP3    H2 8827   4.485   4.370   1.479
 2955TIP3   OH2 8828   0.891   0.485   2.332
 2955TIP3    H1 8829   0.864   0.409   2.282
 2955TIP3    H2 8830   0.940   0.539   2.270
 2956TIP3   OH2 8831   5.943   0.377   3.205
 2956TIP3    H1 8832   6.021   0.347   3.157
 2956TIP3    H2 8833   5.896   0.431   3.143
 2957TIP3   OH2 8834   1.335   2.904   1.967
 2957TIP3    H1 8835   1.272   2.846   1.924
 2957TIP3    H2 8836   1.287   2.944   2.039
 2958TIP3   OH2 8837   1.819   6.302   3.983
 2958TIP3    H1 8838   1.854   6.347   3.907
 2958TIP3    H2 8839   1.724   6.305   3.972
 2959TIP3   OH2 8840   4.095   1.010   5.749
 2959TIP3    H1 8841   4.028   0.944   5.762
 2959TIP3    H2 8842   4.049   1.094   5.758
 2960TIP3   OH2 8843   1.113   1.902   2.033
 2960TIP3    H1 8844   1.162   1.928   2.111
 2960TIP3    H2 8845   1.074   1.984   2.002
 2961TIP3   OH2 8846   7.042   1.827   5.321
 2961TIP3    H1 8847   7.021   1.906   5.271
 2961TIP3    H2 8848   7.060   1.859   5.410
 2962TIP3   OH2 8849   0.707   5.182   3.917
 2962TIP3    H1 8850   0.789   5.171   3.965
 2962TIP3    H2 8851   0.704   5.106   3.858
 2963TIP3   OH2 8852   3.771   2.898   3.564
 2963TIP3    H1 8853   3.771   2.970   3.626
 2963TIP3    H2 8854   3.772   2.940   3.478
 2964TIP3   OH2 8855   4.485   1.085   5.822
 2964TIP3    H1 8856   4.448   1.090   5.734
 2964TIP3    H2 8857   4.485   1.176   5.853
 2965TIP3   OH2 8858   6.081   5.325   0.301
 2965TIP3    H1 8859   6.049   5.409   0.334
 2965TIP3    H2 8860   6.001   5.279   0.274
 2966TIP3   OH2 8861   0.723   6.182   4.846
 2966TIP3    H1 8862   0.644   6.133   4.869
 2966TIP3    H2 8863   0.783   6.166   4.918
 2967TIP3   OH2 8864   2.780   6.382   1.597
 2967TIP3    H1 8865   2.776   6.408   1.505
 2967TIP3    H2 8866   2.768   6.287   1.596
 2968TIP3   OH2 8867   5.717   1.127   4.258
 2968TIP3    H1 8868   5.670   1.206   4.285
 2968TIP3    H2 8869   5.739   1.083   4.340
 2969TIP3   OH2 8870   1.193   4.521   4.437
 2969TIP3    H1 8871   1.193   4.438   4.388
 2969TIP3    H2 8872   1.187   4.495   4.529
 2970TIP3   OH2 8873   5.806   5.797   1.103
 2970TIP3    H1 8874   5.797   5.872   1.044
 2970TIP3    H2 8875   5.895   5.765   1.086
 2971TIP3   OH2 8876   3.040   5.195   0.948
 2971TIP3    H1 8877   3.059   5.251   1.023
 2971TIP3    H2 8878   2.957   5.153   0.970
 2972TIP3   OH2 8879   6.547   3.823   0.713
 2972TIP3    H1 8880   6.512   3.735   0.724
 2972TIP3    H2 8881   6.514   3.872   0.789
 2973TIP3   OH2 8882   1.155   6.109   1.035
 2973TIP3    H1 8883   1.105   6.141   1.110
 2973TIP3    H2 8884   1.115   6.153   0.960
 2974TIP3   OH2 8885   0.172   1.916   3.749
 2974TIP3    H1 8886   0.239   1.853   3.722
 2974TIP3    H2 8887   0.151   1.964   3.669
 2975TIP3   OH2 8888   0.097   1.073   0.581
 2975TIP3    H1 8889   0.146   1.149   0.549
 2975TIP3    H2 8890   0.155   0.999   0.563
 2976TIP3   OH2 8891   2.336   5.067   4.751
 2976TIP3    H1 8892   2.254   5.110   4.729
 2976TIP3    H2 8893   2.337   5.067   4.847
 2977TIP3   OH2 8894   0.209   0.358   5.210
 2977TIP3    H1 8895   0.199   0.453   5.210
 2977TIP3    H2 8896   0.147   0.327   5.276
 2978TIP3   OH2 8897   3.496   5.459   4.601
 2978TIP3    H1 8898   3.478   5.529   4.538
 2978TIP3    H2 8899   3.458   5.490   4.683
 2979TIP3   OH2 8900   1.672   0.679   4.159
 2979TIP3    H1 8901   1.588   0.725   4.148
 2979TIP3    H2 8902   1.676   0.659   4.252
 2980TIP3   OH2 8903   5.001   2.515   4.204
 2980TIP3    H1 8904   5.011   2.515   4.299
 2980TIP3    H2 8905   5.023   2.604   4.176
 2981TIP3   OH2 8906   3.058   4.001   2.160
 2981TIP3    H1 8907   3.079   4.036   2.247
 2981TIP3    H2 8908   2.974   3.958   2.171
 2982TIP3   OH2 8909   0.164   3.704   3.168
 2982TIP3    H1 8910   0.216   3.673   3.243
 2982TIP3    H2 8911   0.218   3.685   3.092
 2983TIP3   OH2 8912   1.695   3.001   0.583
 2983TIP3    H1 8913   1.602   3.021   0.574
 2983TIP3    H2 8914   1.727   2.996   0.493
 2984TIP3   OH2 8915   4.640   5.712   1.030
 2984TIP3    H1 8916   4.598   5.642   1.079
 2984TIP3    H2 8917   4.697   5.755   1.094
 2985TIP3   OH2 8918   3.258   1.176   1.980
 2985TIP3    H1 8919   3.253   1.258   1.931
 2985TIP3    H2 8920   3.349   1.170   2.009
 2986TIP3   OH2 8921   1.989   1.919   3.175
 2986TIP3    H1 8922   1.928   1.960   3.236
 2986TIP3    H2 8923   1.968   1.958   3.090
 2987TIP3   OH2 8924   3.572   5.611   1.889
 2987TIP3    H1 8925   3.623   5.546   1.841
 2987TIP3    H2 8926   3.486   5.571   1.901
 2988TIP3   OH2 8927   1.994   5.417   4.223
 2988TIP3    H1 8928   2.036   5.415   4.309
 2988TIP3    H2 8929   1.998   5.327   4.192
 2989TIP3   OH2 8930   1.432   3.198   5.755
 2989TIP3    H1 8931   1.428   3.234   5.666
 2989TIP3    H2 8932   1.490   3.258   5.802
 2990TIP3   OH2 8933   0.848   3.885   0.216
 2990TIP3    H1 8934   0.792   3.815   0.249
 2990TIP3    H2 8935   0.937   3.850   0.219
 2991TIP3   OH2 8936   0.414   1.454   5.546
 2991TIP3    H1 8937   0.482   1.513   5.513
 2991TIP3    H2 8938   0.337   1.475   5.494
 2992TIP3   OH2 8939   2.394   4.091   0.365
 2992TIP3    H1 8940   2.366   4.133   0.446
 2992TIP3    H2 8941   2.317   4.094   0.308
 2993TIP3   OH2 8942   3.912   5.054   2.037
 2993TIP3    H1 8943   3.903   5.122   2.103
 2993TIP3    H2 8944   4.001   5.020   2.049
 2994TIP3   OH2 8945   2.758   3.743   4.591
 2994TIP3    H1 8946   2.681   3.686   4.598
 2994TIP3    H2 8947   2.808   3.707   4.518
 2995TIP3   OH2 8948   5.645   4.572   3.679
 2995TIP3    H1 8949   5.729   4.599   3.716
 2995TIP3    H2 8950   5.585   4.571   3.753
 2996TIP3   OH2 8951   0.772   2.040   2.736
 2996TIP3    H1 8952   0.760   2.036   2.831
 2996TIP3    H2 8953   0.750   1.952   2.705
 2997TIP3   OH2 8954   1.888   2.054   3.422
 2997TIP3    H1 8955   1.940   2.107   3.483
 2997TIP3    H2 8956   1.806   2.102   3.414
 2998TIP3   OH2 8957   2.687   5.014   0.219
 2998TIP3    H1 8958   2.626   4.942   0.231
 2998TIP3    H2 8959   2.766   4.986   0.265
 2999TIP3   OH2 8960   6.107   0.135   5.112
 2999TIP3    H1 8961   6.045   0.203   5.088
 2999TIP3    H2 8962   6.085   0.061   5.054
 3000TIP3   OH2 8963   1.480   6.041   0.744
 3000TIP3    H1 8964   1.491   6.131   0.776
 3000TIP3    H2 8965   1.393   6.040   0.705
 3001TIP3   OH2 8966   4.254   3.240   3.935
 3001TIP3    H1 8967   4.212   3.189   4.004
 3001TIP3    H2 8968   4.268   3.177   3.864
 3002TIP3   OH2 8969   6.539   1.891   1.913
 3002TIP3    H1 8970   6.535   1.824   1.844
 3002TIP3    H2 8971   6.469   1.867   1.973
 3003TIP3   OH2 8972   6.930   5.180   2.831
 3003TIP3    H1 8973   6.918   5.236   2.906
 3003TIP3    H2 8974   6.984   5.107   2.863
 3004TIP3   OH2 8975   0.559   0.721   0.211
 3004TIP3    H1 8976   0.538   0.796   0.266
 3004TIP3    H2 8977   0.648   0.738   0.179
 3005TIP3   OH2 8978   6.697   0.049   1.775
 3005TIP3    H1 8979   6.765  -0.009   1.741
 3005TIP3    H2 8980   6.709   0.048   1.870
 3006TIP3   OH2 8981   2.905   4.841   5.609
 3006TIP3    H1 8982   2.899   4.850   5.514
 3006TIP3    H2 8983   2.942   4.754   5.622
 3007TIP3   OH2 8984   3.535   6.329   3.255
 3007TIP3    H1 8985   3.473   6.375   3.311
 3007TIP3    H2 8986   3.618   6.334   3.304
 3008TIP3   OH2 8987   0.924   0.204   5.624
 3008TIP3    H1 8988   0.948   0.281   5.677
 3008TIP3    H2 8989   0.830   0.213   5.610
 3009TIP3   OH2 8990   4.430   6.027   0.051
 3009TIP3    H1 8991   4.400   5.950   0.100
 3009TIP3    H2 8992   4.525   6.027   0.063
 3010TIP3   OH2 8993   3.362   5.403   0.831
 3010TIP3    H1 8994   3.430   5.340   0.853
 3010TIP3    H2 8995   3.304   5.357   0.771
 3011TIP3   OH2 8996   5.173   6.353   5.604
 3011TIP3    H1 8997   5.102   6.341   5.668
 3011TIP3    H2 8998   5.174   6.273   5.553
 3012TIP3   OH2 8999   2.759   2.377   5.663
 3012TIP3    H1 9000   2.775   2.471   5.668
 3012TIP3    H2 9001   2.740   2.350   5.753
 3013TIP3   OH2 9002   2.054   2.186   3.595
 3013TIP3    H1 9003   2.054   2.253   3.664
 3013TIP3    H2 9004   2.128   2.209   3.540
 3014TIP3   OH2 9005   1.896   4.254   1.902
 3014TIP3    H1 9006   1.948   4.324   1.941
 3014TIP3    H2 9007   1.806   4.274   1.928
 3015TIP3   OH2 9008   2.574   6.460   1.782
 3015TIP3    H1 9009   2.602   6.508   1.860
 3015TIP3    H2 9010   2.655   6.433   1.740
 3016TIP3   OH2 9011   6.327   1.736   2.436
 3016TIP3    H1 9012   6.332   1.800   2.508
 3016TIP3    H2 9013   6.287   1.659   2.476
 3017TIP3   OH2 9014   3.300   0.502   3.324
 3017TIP3    H1 9015   3.351   0.557   3.383
 3017TIP3    H2 9016   3.225   0.473   3.376
 3018TIP3   OH2 9017   1.377   0.982   5.164
 3018TIP3    H1 9018   1.290   0.982   5.124
 3018TIP3    H2 9019   1.362   0.950   5.253
 3019TIP3   OH2 9020   0.430   1.015   3.362
 3019TIP3    H1 9021   0.469   0.929   3.379
 3019TIP3    H2 9022   0.482   1.051   3.290
 3020TIP3   OH2 9023   2.798   5.423   1.233
 3020TIP3    H1 9024   2.788   5.328   1.226
 3020TIP3    H2 9025   2.845   5.449   1.154
 3021TIP3   OH2 9026   6.605   4.488   5.514
 3021TIP3    H1 9027   6.516   4.507   5.544
 3021TIP3    H2 9028   6.596   4.474   5.420
 3022TIP3   OH2 9029   0.838   2.584   1.675
 3022TIP3    H1 9030   0.854   2.573   1.769
 3022TIP3    H2 9031   0.873   2.505   1.635
 3023TIP3   OH2 9032   4.442   4.873   4.585
 3023TIP3    H1 9033   4.454   4.837   4.497
 3023TIP3    H2 9034   4.351   4.853   4.606
 3024TIP3   OH2 9035   0.951   6.419   1.086
 3024TIP3    H1 9036   0.929   6.365   1.162
 3024TIP3    H2 9037   0.960   6.356   1.014
 3025TIP3   OH2 9038   0.028   0.716   1.861
 3025TIP3    H1 9039   0.058   0.635   1.903
 3025TIP3    H2 9040   0.091   0.782   1.888
 3026TIP3   OH2 9041   0.842   4.707   0.528
 3026TIP3    H1 9042   0.802   4.726   0.444
 3026TIP3    H2 9043   0.908   4.641   0.508
 3027TIP3   OH2 9044   4.923   5.856   0.449
 3027TIP3    H1 9045   4.864   5.855   0.373
 3027TIP3    H2 9046   4.891   5.929   0.502
 3028TIP3   OH2 9047   4.140   0.912   0.922
 3028TIP3    H1 9048   4.080   0.874   0.985
 3028TIP3    H2 9049   4.152   0.844   0.856
 3029TIP3   OH2 9050   0.884   1.089   3.697
 3029TIP3    H1 9051   0.961   1.102   3.753
 3029TIP3    H2 9052   0.902   1.007   3.651
 3030TIP3   OH2 9053   0.958   2.925   5.161
 3030TIP3    H1 9054   1.004   3.009   5.168
 3030TIP3    H2 9055   0.992   2.886   5.081
 3031TIP3   OH2 9056   1.645   2.507   5.467
 3031TIP3    H1 9057   1.715   2.559   5.428
 3031TIP3    H2 9058   1.632   2.435   5.406
 3032TIP3   OH2 9059   5.647   5.586   4.082
 3032TIP3    H1 9060   5.642   5.651   4.151
 3032TIP3    H2 9061   5.656   5.503   4.127
 3033TIP3   OH2 9062   0.950   4.531   0.302
 3033TIP3    H1 9063   1.041   4.508   0.320
 3033TIP3    H2 9064   0.954   4.585   0.223
 3034TIP3   OH2 9065   5.983   3.546   2.738
 3034TIP3    H1 9066   6.010   3.480   2.674
 3034TIP3    H2 9067   5.952   3.619   2.685
 3035TIP3   OH2 9068   1.571   6.565   2.824
 3035TIP3    H1 9069   1.579   6.477   2.863
 3035TIP3    H2 9070   1.480   6.571   2.796
 3036TIP3   OH2 9071   7.084   2.509   3.529
 3036TIP3    H1 9072   7.172   2.501   3.564
 3036TIP3    H2 9073   7.077   2.600   3.499
 3037TIP3   OH2 9074   2.378   2.535   4.933
 3037TIP3    H1 9075   2.467   2.502   4.934
 3037TIP3    H2 9076   2.386   2.625   4.901
 3038TIP3   OH2 9077   2.269   0.731   3.355
 3038TIP3    H1 9078   2.200   0.730   3.421
 3038TIP3    H2 9079   2.334   0.669   3.388
 3039TIP3   OH2 9080   2.455   1.033   1.123
 3039TIP3    H1 9081   2.437   0.944   1.095
 3039TIP3    H2 9082   2.498   1.024   1.208
 3040TIP3   OH2 9083   4.123   4.444   3.940
 3040TIP3    H1 9084   4.050   4.505   3.926
 3040TIP3    H2 9085   4.084   4.371   3.988
 3041TIP3   OH2 9086   6.500   5.013   2.252
 3041TIP3    H1 9087   6.411   4.998   2.283
 3041TIP3    H2 9088   6.555   4.998   2.328
 3042TIP3   OH2 9089   6.455   0.657   4.069
 3042TIP3    H1 9090   6.434   0.610   3.988
 3042TIP3    H2 9091   6.432   0.748   4.051
 3043TIP3   OH2 9092   3.316   4.930   5.428
 3043TIP3    H1 9093   3.300   4.991   5.356
 3043TIP3    H2 9094   3.402   4.893   5.411
 3044TIP3   OH2 9095   4.234   4.915   3.647
 3044TIP3    H1 9096   4.157   4.963   3.615
 3044TIP3    H2 9097   4.257   4.856   3.576
 3045TIP3   OH2 9098   2.283   3.212   1.528
 3045TIP3    H1 9099   2.208   3.224   1.587
 3045TIP3    H2 9100   2.359   3.209   1.586
 3046TIP3   OH2 9101   0.277   3.485   1.759
 3046TIP3    H1 9102   0.198   3.436   1.737
 3046TIP3    H2 9103   0.331   3.481   1.681
 3047TIP3   OH2 9104   1.277   5.375   4.620
 3047TIP3    H1 9105   1.267   5.380   4.525
 3047TIP3    H2 9106   1.192   5.399   4.655
 3048TIP3   OH2 9107   4.010   0.021   1.219
 3048TIP3    H1 9108   4.011   0.109   1.180
 3048TIP3    H2 9109   3.951  -0.029   1.163
 3049TIP3   OH2 9110   4.290   0.951   2.060
 3049TIP3    H1 9111   4.199   0.920   2.060
 3049TIP3    H2 9112   4.342   0.874   2.038
 3050TIP3   OH2 9113   0.660   0.956   5.821
 3050TIP3    H1 9114   0.631   0.938   5.731
 3050TIP3    H2 9115   0.750   0.925   5.824
 3051TIP3   OH2 9116   3.208   5.253   2.187
 3051TIP3    H1 9117   3.272   5.244   2.116
 3051TIP3    H2 9118   3.260   5.243   2.267
 3052TIP3   OH2 9119   3.386   0.137   2.734
 3052TIP3    H1 9120   3.370   0.227   2.764
 3052TIP3    H2 9121   3.478   0.121   2.753
 3053TIP3   OH2 9122   2.217   2.528   1.235
 3053TIP3    H1 9123   2.302   2.513   1.195
 3053TIP3    H2 9124   2.225   2.493   1.323
 3054TIP3   OH2 9125   4.096   6.406   5.774
 3054TIP3    H1 9126   4.127   6.324   5.812
 3054TIP3    H2 9127   4.007   6.416   5.808
 3055TIP3   OH2 9128   6.606   1.077   3.843
 3055TIP3    H1 9129   6.583   1.109   3.756
 3055TIP3    H2 9130   6.702   1.074   3.843
 3056TIP3   OH2 9131   5.317   1.466   4.549
 3056TIP3    H1 9132   5.401   1.425   4.568
 3056TIP3    H2 9133   5.267   1.399   4.503
 3057TIP3   OH2 9134   6.868   0.578   1.048
 3057TIP3    H1 9135   6.798   0.568   1.113
 3057TIP3    H2 9136   6.891   0.488   1.024
 3058TIP3   OH2 9137   0.798   0.524   3.893
 3058TIP3    H1 9138   0.867   0.590   3.895
 3058TIP3    H2 9139   0.787   0.503   3.801
 3059TIP3   OH2 9140   2.220   4.241   2.972
 3059TIP3    H1 9141   2.295   4.291   2.941
 3059TIP3    H2 9142   2.257   4.160   3.007
 3060TIP3   OH2 9143   2.814   2.375   2.396
 3060TIP3    H1 9144   2.855   2.360   2.481
 3060TIP3    H2 9145   2.803   2.288   2.358
 3061TIP3   OH2 9146   1.981   3.888   2.548
 3061TIP3    H1 9147   1.957   3.937   2.627
 3061TIP3    H2 9148   1.999   3.955   2.482
 3062TIP3   OH2 9149   0.778   1.569   3.924
 3062TIP3    H1 9150   0.847   1.558   3.990
 3062TIP3    H2 9151   0.765   1.664   3.919
 3063TIP3   OH2 9152   2.931   1.507   3.893
 3063TIP3    H1 9153   3.011   1.473   3.854
 3063TIP3    H2 9154   2.861   1.480   3.834
 3064TIP3   OH2 9155   6.681   1.431   0.230
 3064TIP3    H1 9156   6.731   1.417   0.150
 3064TIP3    H2 9157   6.710   1.516   0.262
 3065TIP3   OH2 9158   5.898   2.844   3.236
 3065TIP3    H1 9159   5.822   2.786   3.240
 3065TIP3    H2 9160   5.959   2.810   3.302
 3066TIP3   OH2 9161   5.552   3.472   3.979
 3066TIP3    H1 9162   5.468   3.484   4.023
 3066TIP3    H2 9163   5.616   3.471   4.050
 3067TIP3   OH2 9164   2.694   1.895   1.491
 3067TIP3    H1 9165   2.639   1.911   1.414
 3067TIP3    H2 9166   2.632   1.878   1.562
 3068TIP3   OH2 9167   2.567   4.487   2.364
 3068TIP3    H1 9168   2.550   4.580   2.347
 3068TIP3    H2 9169   2.639   4.487   2.428
 3069TIP3   OH2 9170   2.624   0.787   0.983
 3069TIP3    H1 9171   2.584   0.783   1.070
 3069TIP3    H2 9172   2.707   0.739   0.993
 3070TIP3   OH2 9173   6.719   1.337   3.275
 3070TIP3    H1 9174   6.778   1.332   3.200
 3070TIP3    H2 9175   6.686   1.427   3.273
 3071TIP3   OH2 9176   1.546   1.845   4.389
 3071TIP3    H1 9177   1.467   1.834   4.336
 3071TIP3    H2 9178   1.516   1.836   4.479
 3072TIP3   OH2 9179   2.407   6.306   2.010
 3072TIP3    H1 9180   2.449   6.379   1.965
 3072TIP3    H2 9181   2.337   6.278   1.951
 3073TIP3   OH2 9182   3.138   1.056   1.141
 3073TIP3    H1 9183   3.188   1.106   1.205
 3073TIP3    H2 9184   3.151   0.964   1.166
 3074TIP3   OH2 9185   1.483   3.887   3.656
 3074TIP3    H1 9186   1.400   3.841   3.660
 3074TIP3    H2 9187   1.547   3.819   3.633
 3075TIP3   OH2 9188   4.623   1.734   1.762
 3075TIP3    H1 9189   4.651   1.645   1.783
 3075TIP3    H2 9190   4.533   1.725   1.732
 3076TIP3   OH2 9191   2.976   1.124   3.277
 3076TIP3    H1 9192   2.940   1.042   3.244
 3076TIP3    H2 9193   3.066   1.104   3.301
 3077TIP3   OH2 9194   6.097   0.127   3.775
 3077TIP3    H1 9195   6.092   0.076   3.856
 3077TIP3    H2 9196   6.034   0.085   3.716
 3078TIP3   OH2 9197   2.001   5.302   5.546
 3078TIP3    H1 9198   2.096   5.301   5.552
 3078TIP3    H2 9199   1.973   5.223   5.592
 3079TIP3   OH2 9200   1.437   5.111   5.170
 3079TIP3    H1 9201   1.359   5.059   5.188
 3079TIP3    H2 9202   1.473   5.132   5.256
 3080TIP3   OH2 9203   3.036   0.576   3.812
 3080TIP3    H1 9204   3.039   0.495   3.863
 3080TIP3    H2 9205   3.127   0.608   3.813
 3081TIP3   OH2 9206   5.254   5.249   4.986
 3081TIP3    H1 9207   5.169   5.290   5.003
 3081TIP3    H2 9208   5.281   5.285   4.902
 3082TIP3   OH2 9209   0.710   1.901   3.950
 3082TIP3    H1 9210   0.782   1.963   3.939
 3082TIP3    H2 9211   0.713   1.877   4.043
 3083TIP3   OH2 9212   0.899   1.888   4.511
 3083TIP3    H1 9213   0.949   1.914   4.589
 3083TIP3    H2 9214   0.807   1.898   4.537
 3084TIP3   OH2 9215   2.973   5.401   2.043
 3084TIP3    H1 9216   2.960   5.481   2.093
 3084TIP3    H2 9217   2.997   5.335   2.108
 3085TIP3   OH2 9218   2.528   2.287   3.407
 3085TIP3    H1 9219   2.437   2.304   3.432
 3085TIP3    H2 9220   2.579   2.309   3.484
 3086TIP3   OH2 9221   5.969   5.086   0.619
 3086TIP3    H1 9222   5.966   5.014   0.682
 3086TIP3    H2 9223   5.880   5.123   0.622
 3087TIP3   OH2 9224   1.427   5.715   4.647
 3087TIP3    H1 9225   1.402   5.741   4.736
 3087TIP3    H2 9226   1.437   5.798   4.600
 3088TIP3   OH2 9227   7.075   4.240   3.416
 3088TIP3    H1 9228   7.007   4.301   3.386
 3088TIP3    H2 9229   7.039   4.154   3.397
 3089TIP3   OH2 9230   6.431   1.475   0.334
 3089TIP3    H1 9231   6.402   1.563   0.308
 3089TIP3    H2 9232   6.514   1.463   0.289
 3090TIP3   OH2 9233   3.019   0.102   3.279
 3090TIP3    H1 9234   2.984   0.019   3.246
 3090TIP3    H2 9235   3.106   0.109   3.239
 3091TIP3   OH2 9236   6.620   1.078   3.328
 3091TIP3    H1 9237   6.634   1.021   3.253
 3091TIP3    H2 9238   6.652   1.163   3.300
 3092TIP3   OH2 9239   0.531   1.106   3.607
 3092TIP3    H1 9240   0.604   1.167   3.605
 3092TIP3    H2 9241   0.520   1.078   3.516
 3093TIP3   OH2 9242   0.099   3.374   0.819
 3093TIP3    H1 9243   0.028   3.322   0.781
 3093TIP3    H2 9244   0.086   3.462   0.782
 3094TIP3   OH2 9245   5.150   0.502   4.571
 3094TIP3    H1 9246   5.175   0.442   4.641
 3094TIP3    H2 9247   5.233   0.537   4.538
 3095TIP3   OH2 9248   2.966   0.238   1.937
 3095TIP3    H1 9249   3.023   0.161   1.948
 3095TIP3    H2 9250   3.015   0.297   1.881
 3096TIP3   OH2 9251   5.408   1.091   4.808
 3096TIP3    H1 9252   5.471   1.022   4.830
 3096TIP3    H2 9253   5.323   1.051   4.825
 3097TIP3   OH2 9254   6.086   4.999   5.173
 3097TIP3    H1 9255   6.004   4.951   5.160
 3097TIP3    H2 9256   6.131   4.992   5.090
 3098TIP3   OH2 9257   4.479   3.435   3.656
 3098TIP3    H1 9258   4.407   3.485   3.620
 3098TIP3    H2 9259   4.539   3.422   3.582
 3099TIP3   OH2 9260   6.860   3.732   5.619
 3099TIP3    H1 9261   6.881   3.825   5.616
 3099TIP3    H2 9262   6.943   3.688   5.635
 3100TIP3   OH2 9263   1.803   5.206   3.300
 3100TIP3    H1 9264   1.806   5.200   3.204
 3100TIP3    H2 9265   1.892   5.235   3.324
 3101TIP3   OH2 9266   3.541   2.627   1.059
 3101TIP3    H1 9267   3.636   2.625   1.051
 3101TIP3    H2 9268   3.514   2.536   1.043
 3102TIP3   OH2 9269   4.128   1.910   1.089
 3102TIP3    H1 9270   4.202   1.850   1.084
 3102TIP3    H2 9271   4.063   1.873   1.028
 3103TIP3   OH2 9272   1.537   1.385   5.735
 3103TIP3    H1 9273   1.574   1.336   5.809
 3103TIP3    H2 9274   1.603   1.379   5.666
 3104TIP3   OH2 9275   0.421   2.826   5.823
 3104TIP3    H1 9276   0.432   2.815   5.918
 3104TIP3    H2 9277   0.333   2.862   5.813
 3105TIP3   OH2 9278   4.638   1.662   4.744
 3105TIP3    H1 9279   4.557   1.692   4.786
 3105TIP3    H2 9280   4.639   1.568   4.762
 3106TIP3   OH2 9281   1.241   0.553   2.015
 3106TIP3    H1 9282   1.327   0.514   1.999
 3106TIP3    H2 9283   1.201   0.560   1.928
 3107TIP3   OH2 9284   6.615   1.179   0.304
 3107TIP3    H1 9285   6.622   1.274   0.293
 3107TIP3    H2 9286   6.565   1.149   0.228
 3108TIP3   OH2 9287   5.839   4.058   3.255
 3108TIP3    H1 9288   5.899   4.003   3.305
 3108TIP3    H2 9289   5.897   4.118   3.208
 3109TIP3   OH2 9290   5.749   6.352   5.838
 3109TIP3    H1 9291   5.822   6.291   5.848
 3109TIP3    H2 9292   5.724   6.373   5.928
 3110TIP3   OH2 9293   2.202   6.085   0.523
 3110TIP3    H1 9294   2.286   6.043   0.507
 3110TIP3    H2 9295   2.138   6.029   0.478
 3111TIP3   OH2 9296   4.506   5.252   2.761
 3111TIP3    H1 9297   4.419   5.283   2.789
 3111TIP3    H2 9298   4.554   5.239   2.843
 3112TIP3   OH2 9299   4.464   2.349   4.133
 3112TIP3    H1 9300   4.397   2.317   4.193
 3112TIP3    H2 9301   4.507   2.270   4.101
 3113TIP3   OH2 9302   5.199   5.965   2.209
 3113TIP3    H1 9303   5.114   5.923   2.223
 3113TIP3    H2 9304   5.183   6.058   2.220
 3114TIP3   OH2 9305   2.102   1.045   0.079
 3114TIP3    H1 9306   2.013   1.081   0.075
 3114TIP3    H2 9307   2.139   1.065  -0.007
 3115TIP3   OH2 9308   4.140   1.014   4.036
 3115TIP3    H1 9309   4.089   1.075   3.982
 3115TIP3    H2 9310   4.203   1.070   4.081
 3116TIP3   OH2 9311   2.183   5.285   2.391
 3116TIP3    H1 9312   2.199   5.196   2.425
 3116TIP3    H2 9313   2.134   5.329   2.460
 3117TIP3   OH2 9314   3.831   5.849   5.553
 3117TIP3    H1 9315   3.895   5.911   5.588
 3117TIP3    H2 9316   3.844   5.769   5.605
 3118TIP3   OH2 9317   3.997   6.817   0.540
 3118TIP3    H1 9318   3.993   6.858   0.627
 3118TIP3    H2 9319   4.088   6.788   0.532
 3119TIP3   OH2 9320   4.897   2.166   2.718
 3119TIP3    H1 9321   4.869   2.254   2.743
 3119TIP3    H2 9322   4.845   2.145   2.641
 3120TIP3   OH2 9323   2.130   6.157   3.254
 3120TIP3    H1 9324   2.124   6.149   3.159
 3120TIP3    H2 9325   2.052   6.113   3.287
 3121TIP3   OH2 9326   5.127   6.506   3.403
 3121TIP3    H1 9327   5.192   6.455   3.355
 3121TIP3    H2 9328   5.049   6.506   3.346
 3122TIP3   OH2 9329   3.252   2.226   4.579
 3122TIP3    H1 9330   3.263   2.284   4.503
 3122TIP3    H2 9331   3.189   2.272   4.635
 3123TIP3   OH2 9332   6.858   5.684   5.683
 3123TIP3    H1 9333   6.891   5.766   5.647
 3123TIP3    H2 9334   6.847   5.701   5.777
 3124TIP3   OH2 9335   1.046   6.564   3.596
 3124TIP3    H1 9336   0.969   6.537   3.647
 3124TIP3    H2 9337   1.031   6.527   3.509
 3125TIP3   OH2 9338   5.934   5.875   2.123
 3125TIP3    H1 9339   5.878   5.952   2.110
 3125TIP3    H2 9340   5.913   5.818   2.049
 3126TIP3   OH2 9341   4.668   5.316   4.369
 3126TIP3    H1 9342   4.699   5.315   4.459
 3126TIP3    H2 9343   4.669   5.409   4.345
 3127TIP3   OH2 9344   5.900   6.678   2.171
 3127TIP3    H1 9345   5.808   6.700   2.182
 3127TIP3    H2 9346   5.921   6.708   2.082
 3128TIP3   OH2 9347   1.870   3.795   1.265
 3128TIP3    H1 9348   1.852   3.877   1.218
 3128TIP3    H2 9349   1.932   3.820   1.333
 3129TIP3   OH2 9350   6.440   1.789   2.143
 3129TIP3    H1 9351   6.412   1.765   2.232
 3129TIP3    H2 9352   6.360   1.790   2.092
 3130TIP3   OH2 9353   3.192   1.302   4.374
 3130TIP3    H1 9354   3.262   1.364   4.352
 3130TIP3    H2 9355   3.211   1.275   4.464
 3131TIP3   OH2 9356   1.711   3.545   4.932
 3131TIP3    H1 9357   1.705   3.614   4.999
 3131TIP3    H2 9358   1.644   3.569   4.868
 3132TIP3   OH2 9359   0.457   5.125   5.706
 3132TIP3    H1 9360   0.455   5.215   5.673
 3132TIP3    H2 9361   0.539   5.120   5.756
 3133TIP3   OH2 9362   0.708   1.719   3.687
 3133TIP3    H1 9363   0.721   1.644   3.745
 3133TIP3    H2 9364   0.778   1.780   3.711
 3134TIP3   OH2 9365   5.192   1.167   4.125
 3134TIP3    H1 9366   5.279   1.143   4.093
 3134TIP3    H2 9367   5.132   1.135   4.058
 3135TIP3   OH2 9368   6.895   3.339   4.564
 3135TIP3    H1 9369   6.808   3.307   4.538
 3135TIP3    H2 9370   6.946   3.337   4.483
 3136TIP3   OH2 9371   1.051   5.782   5.869
 3136TIP3    H1 9372   1.052   5.841   5.944
 3136TIP3    H2 9373   0.992   5.824   5.806
 3137TIP3   OH2 9374   1.215   0.204   4.317
 3137TIP3    H1 9375   1.166   0.173   4.240
 3137TIP3    H2 9376   1.158   0.270   4.356
 3138TIP3   OH2 9377   5.174   3.893   5.154
 3138TIP3    H1 9378   5.164   3.916   5.061
 3138TIP3    H2 9379   5.092   3.850   5.177
 3139TIP3   OH2 9380   4.093   5.584   5.512
 3139TIP3    H1 9381   4.010   5.540   5.529
 3139TIP3    H2 9382   4.160   5.517   5.528
 3140TIP3   OH2 9383   5.644   5.426   2.801
 3140TIP3    H1 9384   5.564   5.413   2.750
 3140TIP3    H2 9385   5.663   5.519   2.793
 3141TIP3   OH2 9386   2.795   1.822   5.812
 3141TIP3    H1 9387   2.762   1.912   5.822
 3141TIP3    H2 9388   2.889   1.832   5.795
 3142TIP3   OH2 9389   3.597   3.562   2.427
 3142TIP3    H1 9390   3.620   3.586   2.516
 3142TIP3    H2 9391   3.510   3.601   2.413
 3143TIP3   OH2 9392   5.337   4.456   5.097
 3143TIP3    H1 9393   5.354   4.435   5.005
 3143TIP3    H2 9394   5.401   4.524   5.118
 3144TIP3   OH2 9395   5.094   4.360   2.849
 3144TIP3    H1 9396   5.176   4.403   2.872
 3144TIP3    H2 9397   5.053   4.340   2.933
 3145TIP3   OH2 9398   3.246   2.090   0.308
 3145TIP3    H1 9399   3.324   2.091   0.364
 3145TIP3    H2 9400   3.278   2.062   0.222
 3146TIP3   OH2 9401   5.402   2.468   0.259
 3146TIP3    H1 9402   5.408   2.521   0.339
 3146TIP3    H2 9403   5.431   2.381   0.285
 3147TIP3   OH2 9404   0.709   5.884   0.116
 3147TIP3    H1 9405   0.675   5.946   0.052
 3147TIP3    H2 9406   0.759   5.938   0.177
 3148TIP3   OH2 9407   3.537   1.292   3.476
 3148TIP3    H1 9408   3.539   1.383   3.505
 3148TIP3    H2 9409   3.445   1.274   3.459
 3149TIP3   OH2 9410   5.836   3.179   3.444
 3149TIP3    H1 9411   5.859   3.257   3.495
 3149TIP3    H2 9412   5.893   3.182   3.368
 3150TIP3   OH2 9413   4.019   1.697   5.193
 3150TIP3    H1 9414   3.933   1.718   5.159
 3150TIP3    H2 9415   4.018   1.728   5.284
 3151TIP3   OH2 9416   5.444   2.651   5.781
 3151TIP3    H1 9417   5.483   2.722   5.732
 3151TIP3    H2 9418   5.444   2.577   5.721
 3152TIP3   OH2 9419   6.870   4.687   2.382
 3152TIP3    H1 9420   6.796   4.677   2.441
 3152TIP3    H2 9421   6.859   4.617   2.317
 3153TIP3   OH2 9422   5.615   6.382   2.024
 3153TIP3    H1 9423   5.659   6.383   2.110
 3153TIP3    H2 9424   5.588   6.291   2.013
 3154TIP3   OH2 9425   6.532   2.525   0.811
 3154TIP3    H1 9426   6.510   2.513   0.903
 3154TIP3    H2 9427   6.609   2.470   0.796
 3155TIP3   OH2 9428   5.078   1.418   1.293
 3155TIP3    H1 9429   5.080   1.510   1.265
 3155TIP3    H2 9430   5.042   1.421   1.381
 3156TIP3   OH2 9431   4.352   4.453   2.348
 3156TIP3    H1 9432   4.272   4.411   2.317
 3156TIP3    H2 9433   4.392   4.389   2.406
 3157TIP3   OH2 9434   2.394   6.540   1.592
 3157TIP3    H1 9435   2.433   6.627   1.583
 3157TIP3    H2 9436   2.450   6.497   1.657
 3158TIP3   OH2 9437   0.043   3.190   2.600
 3158TIP3    H1 9438   0.036   3.133   2.524
 3158TIP3    H2 9439  -0.037   3.242   2.599
 3159TIP3   OH2 9440   5.654   1.109   1.280
 3159TIP3    H1 9441   5.635   1.201   1.261
 3159TIP3    H2 9442   5.580   1.081   1.334
 3160TIP3   OH2 9443   5.387   6.696   4.437
 3160TIP3    H1 9444   5.446   6.697   4.512
 3160TIP3    H2 9445   5.388   6.786   4.405
 3161TIP3   OH2 9446   3.504   3.804   2.958
 3161TIP3    H1 9447   3.589   3.761   2.965
 3161TIP3    H2 9448   3.488   3.841   3.045
 3162TIP3   OH2 9449   2.306   2.229   1.669
 3162TIP3    H1 9450   2.282   2.236   1.761
 3162TIP3    H2 9451   2.390   2.182   1.670
 3163TIP3   OH2 9452   2.325   0.334   5.811
 3163TIP3    H1 9453   2.234   0.317   5.784
 3163TIP3    H2 9454   2.317   0.380   5.894
 3164TIP3   OH2 9455   1.757   0.156   4.937
 3164TIP3    H1 9456   1.694   0.139   4.868
 3164TIP3    H2 9457   1.738   0.091   5.004
 3165TIP3   OH2 9458   5.116   2.841   1.357
 3165TIP3    H1 9459   5.154   2.928   1.348
 3165TIP3    H2 9460   5.176   2.783   1.310
 3166TIP3   OH2 9461   6.662   5.007   0.953
 3166TIP3    H1 9462   6.635   4.956   1.029
 3166TIP3    H2 9463   6.590   4.996   0.891
 3167TIP3   OH2 9464   4.777   1.618   3.986
 3167TIP3    H1 9465   4.689   1.655   3.981
 3167TIP3    H2 9466   4.766   1.527   3.957
 3168TIP3   OH2 9467   3.202   6.078   5.040
 3168TIP3    H1 9468   3.285   6.030   5.035
 3168TIP3    H2 9469   3.135   6.010   5.036
 3169TIP3   OH2 9470   0.643   3.716   2.051
 3169TIP3    H1 9471   0.567   3.702   1.994
 3169TIP3    H2 9472   0.662   3.630   2.088
 3170TIP3   OH2 9473   6.137   0.385   0.274
 3170TIP3    H1 9474   6.123   0.426   0.188
 3170TIP3    H2 9475   6.162   0.458   0.331
 3171TIP3   OH2 9476   5.170   3.295   4.937
 3171TIP3    H1 9477   5.225   3.371   4.958
 3171TIP3    H2 9478   5.148   3.305   4.845
 3172TIP3   OH2 9479   0.033   2.936   0.154
 3172TIP3    H1 9480  -0.047   2.958   0.106
 3172TIP3    H2 9481   0.002   2.880   0.226
 3173TIP3   OH2 9482   1.282   3.168   1.438
 3173TIP3    H1 9483   1.285   3.142   1.345
 3173TIP3    H2 9484   1.318   3.092   1.484
 3174TIP3   OH2 9485   6.660   0.172   5.871
 3174TIP3    H1 9486   6.600   0.098   5.861
 3174TIP3    H2 9487   6.746   0.132   5.885
 3175TIP3   OH2 9488   4.456   3.182   5.453
 3175TIP3    H1 9489   4.462   3.276   5.435
 3175TIP3    H2 9490   4.398   3.176   5.529
 3176TIP3   OH2 9491   5.413   2.444   5.587
 3176TIP3    H1 9492   5.326   2.409   5.568
 3176TIP3    H2 9493   5.470   2.399   5.524
 3177TIP3   OH2 9494   4.673   4.354   4.064
 3177TIP3    H1 9495   4.673   4.432   4.009
 3177TIP3    H2 9496   4.764   4.326   4.068
 3178TIP3   OH2 9497   5.716   3.055   3.692
 3178TIP3    H1 9498   5.728   2.976   3.639
 3178TIP3    H2 9499   5.752   3.126   3.637
 3179TIP3   OH2 9500   2.352   5.936   1.022
 3179TIP3    H1 9501   2.394   5.951   0.938
 3179TIP3    H2 9502   2.424   5.924   1.083
 3180TIP3   OH2 9503   4.147   0.032   0.373
 3180TIP3    H1 9504   4.155  -0.006   0.285
 3180TIP3    H2 9505   4.089   0.108   0.360
 3181TIP3   OH2 9506   4.707   6.057   4.031
 3181TIP3    H1 9507   4.691   6.004   4.109
 3181TIP3    H2 9508   4.664   6.141   4.050
 3182TIP3   OH2 9509   1.439   5.594   2.657
 3182TIP3    H1 9510   1.517   5.548   2.625
 3182TIP3    H2 9511   1.472   5.678   2.687
 3183TIP3   OH2 9512   3.006   3.547   0.311
 3183TIP3    H1 9513   3.077   3.590   0.263
 3183TIP3    H2 9514   3.047   3.472   0.353
 3184TIP3   OH2 9515   1.903   4.005   1.761
 3184TIP3    H1 9516   1.824   3.958   1.786
 3184TIP3    H2 9517   1.894   4.091   1.802
 3185TIP3   OH2 9518   5.170   3.596   1.265
 3185TIP3    H1 9519   5.135   3.514   1.300
 3185TIP3    H2 9520   5.179   3.653   1.340
 3186TIP3   OH2 9521   4.739   4.930   4.962
 3186TIP3    H1 9522   4.746   4.836   4.943
 3186TIP3    H2 9523   4.661   4.958   4.915
 3187TIP3   OH2 9524   3.103   4.511   4.747
 3187TIP3    H1 9525   3.023   4.485   4.702
 3187TIP3    H2 9526   3.112   4.448   4.818
 3188TIP3   OH2 9527   2.253   5.368   5.825
 3188TIP3    H1 9528   2.282   5.457   5.805
 3188TIP3    H2 9529   2.306   5.341   5.901
 3189TIP3   OH2 9530   1.612   5.786   0.715
 3189TIP3    H1 9531   1.561   5.731   0.656
 3189TIP3    H2 9532   1.562   5.867   0.722
 3190TIP3   OH2 9533   3.674   1.837   0.653
 3190TIP3    H1 9534   3.728   1.766   0.620
 3190TIP3    H2 9535   3.693   1.911   0.596
 3191TIP3   OH2 9536   6.169   0.649   4.401
 3191TIP3    H1 9537   6.232   0.720   4.391
 3191TIP3    H2 9538   6.207   0.593   4.469
 3192TIP3   OH2 9539   0.111   0.850   3.950
 3192TIP3    H1 9540   0.106   0.819   3.860
 3192TIP3    H2 9541   0.184   0.800   3.989
 3193TIP3   OH2 9542   0.421   3.055   0.954
 3193TIP3    H1 9543   0.334   3.075   0.988
 3193TIP3    H2 9544   0.430   3.109   0.876
 3194TIP3   OH2 9545   3.322   3.534   5.729
 3194TIP3    H1 9546   3.317   3.602   5.663
 3194TIP3    H2 9547   3.415   3.516   5.740
 3195TIP3   OH2 9548   0.928   2.446   0.800
 3195TIP3    H1 9549   0.987   2.512   0.764
 3195TIP3    H2 9550   0.841   2.484   0.791
 3196TIP3   OH2 9551   2.282   4.613   2.948
 3196TIP3    H1 9552   2.285   4.557   2.871
 3196TIP3    H2 9553   2.374   4.628   2.970
 3197TIP3   OH2 9554   7.034   1.056   3.244
 3197TIP3    H1 9555   6.969   1.009   3.192
 3197TIP3    H2 9556   7.021   1.148   3.223
 3198TIP3   OH2 9557   4.594   4.126   2.297
 3198TIP3    H1 9558   4.563   4.040   2.325
 3198TIP3    H2 9559   4.554   4.187   2.357
 3199TIP3   OH2 9560   6.115   4.345   5.689
 3199TIP3    H1 9561   6.104   4.371   5.780
 3199TIP3    H2 9562   6.168   4.266   5.693
 3200TIP3   OH2 9563   4.629   5.852   1.691
 3200TIP3    H1 9564   4.644   5.876   1.599
 3200TIP3    H2 9565   4.717   5.852   1.730
 3201TIP3   OH2 9566   4.428   5.861   3.983
 3201TIP3    H1 9567   4.464   5.902   4.062
 3201TIP3    H2 9568   4.456   5.919   3.912
 3202TIP3   OH2 9569   3.193   6.211   0.614
 3202TIP3    H1 9570   3.105   6.230   0.647
 3202TIP3    H2 9571   3.231   6.297   0.596
 3203TIP3   OH2 9572   3.363   5.986   3.969
 3203TIP3    H1 9573   3.333   5.967   3.880
 3203TIP3    H2 9574   3.327   5.915   4.022
 3204TIP3   OH2 9575   0.318   4.358   3.430
 3204TIP3    H1 9576   0.400   4.354   3.479
 3204TIP3    H2 9577   0.341   4.400   3.347
 3205TIP3   OH2 9578   3.038   5.039   1.427
 3205TIP3    H1 9579   3.083   5.013   1.507
 3205TIP3    H2 9580   3.063   4.973   1.362
 3206TIP3   OH2 9581   2.603   0.689   3.198
 3206TIP3    H1 9582   2.517   0.698   3.157
 3206TIP3    H2 9583   2.651   0.767   3.169
 3207TIP3   OH2 9584   2.814   3.101   5.478
 3207TIP3    H1 9585   2.902   3.137   5.484
 3207TIP3    H2 9586   2.810   3.060   5.392
 3208TIP3   OH2 9587   5.291   4.259   2.484
 3208TIP3    H1 9588   5.227   4.211   2.537
 3208TIP3    H2 9589   5.238   4.306   2.419
 3209TIP3   OH2 9590   4.918   1.817   3.000
 3209TIP3    H1 9591   4.992   1.788   3.053
 3209TIP3    H2 9592   4.900   1.906   3.031
 3210TIP3   OH2 9593   3.276   0.872   0.134
 3210TIP3    H1 9594   3.218   0.795   0.140
 3210TIP3    H2 9595   3.222   0.944   0.168
 3211TIP3   OH2 9596   6.051   3.871   3.346
 3211TIP3    H1 9597   6.084   3.926   3.275
 3211TIP3    H2 9598   6.009   3.797   3.302
 3212TIP3   OH2 9599   1.227   6.291   1.550
 3212TIP3    H1 9600   1.211   6.263   1.640
 3212TIP3    H2 9601   1.321   6.278   1.537
 3213TIP3   OH2 9602   6.627   4.753   2.206
 3213TIP3    H1 9603   6.553   4.808   2.230
 3213TIP3    H2 9604   6.684   4.754   2.283
 3214TIP3   OH2 9605   3.719   4.429   1.263
 3214TIP3    H1 9606   3.728   4.457   1.172
 3214TIP3    H2 9607   3.706   4.334   1.258
 3215TIP3   OH2 9608   4.426   3.769   0.150
 3215TIP3    H1 9609   4.392   3.764   0.061
 3215TIP3    H2 9610   4.429   3.678   0.180
 3216TIP3   OH2 9611   1.829   1.671   0.280
 3216TIP3    H1 9612   1.743   1.659   0.319
 3216TIP3    H2 9613   1.870   1.584   0.286
 3217TIP3   OH2 9614   6.670   3.665   1.642
 3217TIP3    H1 9615   6.731   3.736   1.660
 3217TIP3    H2 9616   6.665   3.616   1.724
 3218TIP3   OH2 9617   2.233   1.155   5.467
 3218TIP3    H1 9618   2.261   1.184   5.554
 3218TIP3    H2 9619   2.231   1.235   5.415
 3219TIP3   OH2 9620   2.351   3.405   2.578
 3219TIP3    H1 9621   2.260   3.403   2.609
 3219TIP3    H2 9622   2.344   3.405   2.482
 3220TIP3   OH2 9623   6.652   3.252   0.256
 3220TIP3    H1 9624   6.646   3.250   0.160
 3220TIP3    H2 9625   6.612   3.336   0.280
 3221TIP3   OH2 9626   0.397   1.155   5.599
 3221TIP3    H1 9627   0.415   1.248   5.612
 3221TIP3    H2 9628   0.355   1.128   5.681
 3222TIP3   OH2 9629   5.288   6.182   1.535
 3222TIP3    H1 9630   5.377   6.152   1.552
 3222TIP3    H2 9631   5.232   6.110   1.563
 3223TIP3   OH2 9632   4.828   4.829   2.400
 3223TIP3    H1 9633   4.795   4.912   2.435
 3223TIP3    H2 9634   4.774   4.762   2.443
 3224TIP3   OH2 9635   6.727   4.069   1.663
 3224TIP3    H1 9636   6.781   4.137   1.704
 3224TIP3    H2 9637   6.776   3.988   1.678
 3225TIP3   OH2 9638   0.083   4.546   1.687
 3225TIP3    H1 9639   0.127   4.583   1.610
 3225TIP3    H2 9640   0.155   4.520   1.745
 3226TIP3   OH2 9641   4.898   4.920   0.601
 3226TIP3    H1 9642   4.888   4.844   0.544
 3226TIP3    H2 9643   4.841   4.986   0.564
 3227TIP3   OH2 9644   0.247   3.596   2.921
 3227TIP3    H1 9645   0.342   3.593   2.932
 3227TIP3    H2 9646   0.234   3.630   2.832
 3228TIP3   OH2 9647   0.313   1.240   3.012
 3228TIP3    H1 9648   0.365   1.295   2.954
 3228TIP3    H2 9649   0.334   1.271   3.100
 3229TIP3   OH2 9650   3.421   5.388   5.820
 3229TIP3    H1 9651   3.476   5.416   5.746
 3229TIP3    H2 9652   3.413   5.466   5.874
 3230TIP3   OH2 9653   3.917   3.901   4.441
 3230TIP3    H1 9654   3.933   3.837   4.371
 3230TIP3    H2 9655   3.845   3.864   4.491
 3231TIP3   OH2 9656   6.685   1.435   4.216
 3231TIP3    H1 9657   6.653   1.524   4.206
 3231TIP3    H2 9658   6.737   1.418   4.137
 3232TIP3   OH2 9659   1.382   5.873   0.444
 3232TIP3    H1 9660   1.347   5.790   0.475
 3232TIP3    H2 9661   1.344   5.939   0.502
 3233TIP3   OH2 9662   0.167   2.228   3.326
 3233TIP3    H1 9663   0.230   2.291   3.361
 3233TIP3    H2 9664   0.082   2.267   3.344
 3234TIP3   OH2 9665   4.606   1.386   4.545
 3234TIP3    H1 9666   4.520   1.397   4.505
 3234TIP3    H2 9667   4.659   1.456   4.507
 3235TIP3   OH2 9668   4.549   5.529   5.720
 3235TIP3    H1 9669   4.603   5.574   5.785
 3235TIP3    H2 9670   4.588   5.553   5.636
 3236TIP3   OH2 9671   5.225   1.218   4.398
 3236TIP3    H1 9672   5.247   1.213   4.305
 3236TIP3    H2 9673   5.279   1.152   4.440
 3237TIP3   OH2 9674   2.374   3.984   5.274
 3237TIP3    H1 9675   2.456   3.935   5.269
 3237TIP3    H2 9676   2.345   3.992   5.183
 3238TIP3   OH2 9677   6.099   4.076   3.156
 3238TIP3    H1 9678   6.193   4.091   3.153
 3238TIP3    H2 9679   6.072   4.075   3.064
 3239TIP3   OH2 9680   0.782   3.619   2.473
 3239TIP3    H1 9681   0.765   3.550   2.538
 3239TIP3    H2 9682   0.704   3.620   2.419
 3240TIP3   OH2 9683   7.099   1.584   5.824
 3240TIP3    H1 9684   7.087   1.547   5.912
 3240TIP3    H2 9685   7.026   1.549   5.774
 3241TIP3   OH2 9686   0.442   0.386   5.060
 3241TIP3    H1 9687   0.408   0.377   4.971
 3241TIP3    H2 9688   0.376   0.344   5.115
 3242TIP3   OH2 9689   3.392   3.724   2.368
 3242TIP3    H1 9690   3.370   3.710   2.276
 3242TIP3    H2 9691   3.355   3.809   2.389
 3243TIP3   OH2 9692   4.939   1.436   0.335
 3243TIP3    H1 9693   4.930   1.526   0.367
 3243TIP3    H2 9694   5.021   1.405   0.373
 3244TIP3   OH2 9695   1.827   0.706   2.872
 3244TIP3    H1 9696   1.760   0.748   2.818
 3244TIP3    H2 9697   1.832   0.761   2.950
 3245TIP3   OH2 9698   1.145   2.228   2.407
 3245TIP3    H1 9699   1.094   2.304   2.435
 3245TIP3    H2 9700   1.202   2.209   2.482
 3246TIP3   OH2 9701   3.947   6.401   2.636
 3246TIP3    H1 9702   3.852   6.418   2.637
 3246TIP3    H2 9703   3.964   6.365   2.549
 3247TIP3   OH2 9704   3.932   0.417   3.467
 3247TIP3    H1 9705   3.838   0.426   3.484
 3247TIP3    H2 9706   3.973   0.419   3.553
 3248TIP3   OH2 9707   5.924   4.501   5.875
 3248TIP3    H1 9708   5.996   4.557   5.904
 3248TIP3    H2 9709   5.881   4.550   5.805
 3249TIP3   OH2 9710   5.609   5.528   1.291
 3249TIP3    H1 9711   5.533   5.567   1.336
 3249TIP3    H2 9712   5.676   5.521   1.359
 3250TIP3   OH2 9713   1.453   4.161   3.123
 3250TIP3    H1 9714   1.520   4.115   3.174
 3250TIP3    H2 9715   1.472   4.254   3.137
 3251TIP3   OH2 9716   6.595   3.472   2.096
 3251TIP3    H1 9717   6.507   3.497   2.124
 3251TIP3    H2 9718   6.651   3.492   2.171
 3252TIP3   OH2 9719   2.557   6.086   1.564
 3252TIP3    H1 9720   2.498   6.010   1.565
 3252TIP3    H2 9721   2.566   6.109   1.657
 3253TIP3   OH2 9722   0.355   0.163   2.246
 3253TIP3    H1 9723   0.265   0.188   2.223
 3253TIP3    H2 9724   0.366   0.076   2.209
 3254TIP3   OH2 9725   6.827   4.041   5.114
 3254TIP3    H1 9726   6.863   4.018   5.029
 3254TIP3    H2 9727   6.864   4.127   5.133
 3255TIP3   OH2 9728   5.853   0.849   2.580
 3255TIP3    H1 9729   5.871   0.861   2.487
 3255TIP3    H2 9730   5.758   0.863   2.589
 3256TIP3   OH2 9731   4.636   1.151   2.827
 3256TIP3    H1 9732   4.615   1.239   2.857
 3256TIP3    H2 9733   4.573   1.133   2.757
 3257TIP3   OH2 9734   3.218   5.990   5.815
 3257TIP3    H1 9735   3.205   5.895   5.816
 3257TIP3    H2 9736   3.291   6.005   5.875
 3258TIP3   OH2 9737   2.780   0.954   0.808
 3258TIP3    H1 9738   2.697   0.909   0.819
 3258TIP3    H2 9739   2.804   0.983   0.896
 3259TIP3   OH2 9740   2.581   4.818   3.621
 3259TIP3    H1 9741   2.511   4.843   3.682
 3259TIP3    H2 9742   2.549   4.844   3.535
 3260TIP3   OH2 9743   3.379   6.674   0.687
 3260TIP3    H1 9744   3.337   6.731   0.752
 3260TIP3    H2 9745   3.438   6.619   0.738
 3261TIP3   OH2 9746   4.450   3.244   3.053
 3261TIP3    H1 9747   4.532   3.197   3.068
 3261TIP3    H2 9748   4.382   3.179   3.072
 3262TIP3   OH2 9749   3.651   5.702   0.043
 3262TIP3    H1 9750   3.655   5.791   0.077
 3262TIP3    H2 9751   3.742   5.674   0.038
 3263TIP3   OH2 9752   2.418   0.919   4.302
 3263TIP3    H1 9753   2.448   0.938   4.392
 3263TIP3    H2 9754   2.364   0.840   4.311
 3264TIP3   OH2 9755   1.799   6.054   5.696
 3264TIP3    H1 9756   1.752   6.136   5.709
 3264TIP3    H2 9757   1.740   5.987   5.730
 3265TIP3   OH2 9758   2.794   5.272   0.280
 3265TIP3    H1 9759   2.721   5.210   0.290
 3265TIP3    H2 9760   2.859   5.224   0.230
 3266TIP3   OH2 9761   6.243   3.509   4.444
 3266TIP3    H1 9762   6.334   3.496   4.472
 3266TIP3    H2 9763   6.250   3.523   4.349
 3267TIP3   OH2 9764   0.564   5.831   5.816
 3267TIP3    H1 9765   0.594   5.840   5.906
 3267TIP3    H2 9766   0.474   5.863   5.817
 3268TIP3   OH2 9767   6.540   6.807   1.100
 3268TIP3    H1 9768   6.471   6.763   1.150
 3268TIP3    H2 9769   6.621   6.779   1.141
 3269TIP3   OH2 9770   4.763   4.275   5.108
 3269TIP3    H1 9771   4.680   4.317   5.086
 3269TIP3    H2 9772   4.789   4.315   5.191
 3270TIP3   OH2 9773   2.704   5.411   5.024
 3270TIP3    H1 9774   2.764   5.403   4.949
 3270TIP3    H2 9775   2.755   5.458   5.090
 3271TIP3   OH2 9776   6.689   2.786   1.283
 3271TIP3    H1 9777   6.739   2.866   1.271
 3271TIP3    H2 9778   6.735   2.740   1.354
 3272TIP3   OH2 9779   3.149   4.092   4.465
 3272TIP3    H1 9780   3.152   4.021   4.529
 3272TIP3    H2 9781   3.065   4.081   4.420
 3273TIP3   OH2 9782   1.092   1.156   0.586
 3273TIP3    H1 9783   1.102   1.247   0.612
 3273TIP3    H2 9784   1.129   1.152   0.497
 3274TIP3   OH2 9785   5.081   5.960   4.074
 3274TIP3    H1 9786   5.050   5.959   3.984
 3274TIP3    H2 9787   5.177   5.962   4.066
 3275TIP3   OH2 9788   2.682   0.345   5.340
 3275TIP3    H1 9789   2.653   0.334   5.431
 3275TIP3    H2 9790   2.778   0.345   5.345
 3276TIP3   OH2 9791   3.322   1.655   0.684
 3276TIP3    H1 9792   3.392   1.685   0.742
 3276TIP3    H2 9793   3.269   1.598   0.740
 3277TIP3   OH2 9794   2.552   1.073   0.440
 3277TIP3    H1 9795   2.526   1.151   0.489
 3277TIP3    H2 9796   2.469   1.032   0.415
 3278TIP3   OH2 9797   1.045   2.756   0.950
 3278TIP3    H1 9798   0.974   2.817   0.931
 3278TIP3    H2 9799   1.073   2.779   1.038
 3279TIP3   OH2 9800   2.972   1.530   1.746
 3279TIP3    H1 9801   3.031   1.604   1.737
 3279TIP3    H2 9802   2.889   1.560   1.707
 3280TIP3   OH2 9803   0.778   3.169   3.408
 3280TIP3    H1 9804   0.796   3.095   3.466
 3280TIP3    H2 9805   0.697   3.207   3.441
 3281TIP3   OH2 9806   5.153   2.360   5.507
 3281TIP3    H1 9807   5.070   2.402   5.484
 3281TIP3    H2 9808   5.170   2.299   5.435
 3282TIP3   OH2 9809   0.604   3.819   5.676
 3282TIP3    H1 9810   0.569   3.874   5.605
 3282TIP3    H2 9811   0.669   3.874   5.719
 3283TIP3   OH2 9812   4.302   3.903   4.307
 3283TIP3    H1 9813   4.372   3.922   4.244
 3283TIP3    H2 9814   4.305   3.975   4.370
 3284TIP3   OH2 9815   1.845   6.643   5.858
 3284TIP3    H1 9816   1.917   6.644   5.796
 3284TIP3    H2 9817   1.772   6.682   5.811
 3285TIP3   OH2 9818   5.759   2.586   0.432
 3285TIP3    H1 9819   5.752   2.587   0.528
 3285TIP3    H2 9820   5.844   2.546   0.415
 3286TIP3   OH2 9821   7.229   5.640   0.771
 3286TIP3    H1 9822   7.208   5.552   0.803
 3286TIP3    H2 9823   7.144   5.682   0.758
 3287TIP3   OH2 9824   4.183   5.217   1.975
 3287TIP3    H1 9825   4.136   5.235   2.056
 3287TIP3    H2 9826   4.264   5.174   2.002
 3288TIP3   OH2 9827   6.377   4.723   4.442
 3288TIP3    H1 9828   6.330   4.651   4.399
 3288TIP3    H2 9829   6.454   4.737   4.387
 3289TIP3   OH2 9830   2.813   5.877   3.445
 3289TIP3    H1 9831   2.803   5.879   3.350
 3289TIP3    H2 9832   2.898   5.834   3.458
 3290TIP3   OH2 9833   3.181   6.608   2.876
 3290TIP3    H1 9834   3.170   6.690   2.828
 3290TIP3    H2 9835   3.128   6.544   2.829
 3291TIP3   OH2 9836   0.780   4.346   3.940
 3291TIP3    H1 9837   0.826   4.429   3.926
 3291TIP3    H2 9838   0.688   4.370   3.943
 3292TIP3   OH2 9839   2.471   5.867   4.521
 3292TIP3    H1 9840   2.385   5.876   4.561
 3292TIP3    H2 9841   2.474   5.936   4.455
 3293TIP3   OH2 9842   5.300   4.525   4.131
 3293TIP3    H1 9843   5.214   4.557   4.103
 3293TIP3    H2 9844   5.290   4.506   4.224
 3294TIP3   OH2 9845   6.911   1.817   0.988
 3294TIP3    H1 9846   6.932   1.834   0.896
 3294TIP3    H2 9847   6.995   1.801   1.030
 3295TIP3   OH2 9848   4.614   0.925   0.925
 3295TIP3    H1 9849   4.649   0.935   0.836
 3295TIP3    H2 9850   4.575   1.010   0.945
 3296TIP3   OH2 9851   5.267   3.069   1.276
 3296TIP3    H1 9852   5.349   3.108   1.306
 3296TIP3    H2 9853   5.280   3.052   1.182
 3297TIP3   OH2 9854   3.588   2.979   1.046
 3297TIP3    H1 9855   3.630   2.919   1.108
 3297TIP3    H2 9856   3.588   2.932   0.963
 3298TIP3   OH2 9857   2.869   6.097   1.640
 3298TIP3    H1 9858   2.878   6.089   1.735
 3298TIP3    H2 9859   2.814   6.023   1.614
 3299TIP3   OH2 9860   2.536   4.631   1.206
 3299TIP3    H1 9861   2.582   4.547   1.203
 3299TIP3    H2 9862   2.580   4.679   1.277
 3300TIP3   OH2 9863   4.279   0.173   2.846
 3300TIP3    H1 9864   4.192   0.174   2.806
 3300TIP3    H2 9865   4.264   0.145   2.936
 3301TIP3   OH2 9866   3.908   3.472   3.129
 3301TIP3    H1 9867   3.935   3.381   3.119
 3301TIP3    H2 9868   3.813   3.470   3.114
 3302TIP3   OH2 9869   6.967   6.233   1.651
 3302TIP3    H1 9870   6.963   6.220   1.746
 3302TIP3    H2 9871   6.950   6.147   1.614
 3303TIP3   OH2 9872   1.769   4.621   5.689
 3303TIP3    H1 9873   1.854   4.660   5.670
 3303TIP3    H2 9874   1.713   4.695   5.711
 3304TIP3   OH2 9875   1.941   3.261   4.673
 3304TIP3    H1 9876   2.029   3.282   4.642
 3304TIP3    H2 9877   1.953   3.244   4.767
 3305TIP3   OH2 9878   1.729   0.424   2.935
 3305TIP3    H1 9879   1.714   0.514   2.907
 3305TIP3    H2 9880   1.641   0.390   2.955
 3306TIP3   OH2 9881   3.578   3.374   5.419
 3306TIP3    H1 9882   3.598   3.356   5.511
 3306TIP3    H2 9883   3.538   3.293   5.388
 3307TIP3   OH2 9884   0.309   4.010   1.326
 3307TIP3    H1 9885   0.276   4.099   1.342
 3307TIP3    H2 9886   0.262   3.955   1.389
 3308TIP3   OH2 9887   1.208   0.812   5.898
 3308TIP3    H1 9888   1.213   0.732   5.846
 3308TIP3    H2 9889   1.248   0.789   5.982
 3309TIP3   OH2 9890   2.731   3.534   0.301
 3309TIP3    H1 9891   2.707   3.608   0.246
 3309TIP3    H2 9892   2.821   3.552   0.327
 3310TIP3   OH2 9893   2.195  -0.013   5.096
 3310TIP3    H1 9894   2.120  -0.007   5.037
 3310TIP3    H2 9895   2.262   0.041   5.055
 3311TIP3   OH2 9896   5.864   3.098   1.299
 3311TIP3    H1 9897   5.874   3.018   1.350
 3311TIP3    H2 9898   5.898   3.167   1.356
 3312TIP3   OH2 9899   1.093   3.115   4.359
 3312TIP3    H1 9900   1.035   3.169   4.413
 3312TIP3    H2 9901   1.148   3.068   4.422
 3313TIP3   OH2 9902   1.836   6.181   0.051
 3313TIP3    H1 9903   1.862   6.177  -0.041
 3313TIP3    H2 9904   1.751   6.226   0.050
 3314TIP3   OH2 9905   7.196   3.991   2.410
 3314TIP3    H1 9906   7.227   4.030   2.492
 3314TIP3    H2 9907   7.126   3.931   2.437
 3315TIP3   OH2 9908   2.746   3.950   0.956
 3315TIP3    H1 9909   2.754   3.942   1.051
 3315TIP3    H2 9910   2.799   3.877   0.922
 3316TIP3   OH2 9911   0.176   4.064   4.632
 3316TIP3    H1 9912   0.113   3.993   4.651
 3316TIP3    H2 9913   0.256   4.038   4.676
 3317TIP3   OH2 9914   1.112   6.552   5.656
 3317TIP3    H1 9915   1.165   6.491   5.606
 3317TIP3    H2 9916   1.175   6.609   5.700
 3318TIP3   OH2 9917   3.033   6.157   2.684
 3318TIP3    H1 9918   2.972   6.085   2.664
 3318TIP3    H2 9919   3.083   6.126   2.760
 3319TIP3   OH2 9920   3.697   6.469   2.647
 3319TIP3    H1 9921   3.669   6.551   2.606
 3319TIP3    H2 9922   3.616   6.426   2.672
 3320TIP3   OH2 9923   5.550   2.598   3.859
 3320TIP3    H1 9924   5.489   2.626   3.791
 3320TIP3    H2 9925   5.610   2.538   3.815
 3321TIP3   OH2 9926   0.684   2.273   4.483
 3321TIP3    H1 9927   0.727   2.347   4.527
 3321TIP3    H2 9928   0.631   2.314   4.414
 3322TIP3   OH2 9929   2.802   1.073   4.567
 3322TIP3    H1 9930   2.858   1.021   4.624
 3322TIP3    H2 9931   2.787   1.018   4.490
 3323TIP3   OH2 9932   2.410   6.179   4.973
 3323TIP3    H1 9933   2.409   6.185   5.068
 3323TIP3    H2 9934   2.337   6.234   4.945
 3324TIP3   OH2 9935   6.722   3.763   2.772
 3324TIP3    H1 9936   6.781   3.834   2.747
 3324TIP3    H2 9937   6.770   3.683   2.752
 3325TIP3   OH2 9938   6.446   4.656   0.860
 3325TIP3    H1 9939   6.442   4.586   0.795
 3325TIP3    H2 9940   6.509   4.719   0.824
 3326TIP3   OH2 9941   7.199   0.539   3.009
 3326TIP3    H1 9942   7.169   0.614   3.059
 3326TIP3    H2 9943   7.211   0.470   3.074
 3327TIP3   OH2 9944   2.995   2.788   5.328
 3327TIP3    H1 9945   2.911   2.833   5.317
 3327TIP3    H2 9946   3.059   2.849   5.291
 3328TIP3   OH2 9947   4.988   0.192   0.840
 3328TIP3    H1 9948   5.068   0.234   0.808
 3328TIP3    H2 9949   4.981   0.111   0.790
 3329TIP3   OH2 9950   4.462   4.292   3.649
 3329TIP3    H1 9951   4.378   4.301   3.605
 3329TIP3    H2 9952   4.450   4.335   3.734
 3330TIP3   OH2 9953   2.889   5.338   5.680
 3330TIP3    H1 9954   2.931   5.356   5.764
 3330TIP3    H2 9955   2.939   5.265   5.643
 3331TIP3   OH2 9956   0.283   4.607   0.835
 3331TIP3    H1 9957   0.215   4.551   0.871
 3331TIP3    H2 9958   0.237   4.670   0.780
 3332TIP3   OH2 9959   1.394   2.677   4.745
 3332TIP3    H1 9960   1.347   2.758   4.765
 3332TIP3    H2 9961   1.379   2.662   4.652
 3333TIP3   OH2 9962   3.506   5.085   3.255
 3333TIP3    H1 9963   3.496   4.998   3.293
 3333TIP3    H2 9964   3.546   5.070   3.170
 3334TIP3   OH2 9965   2.474   0.282   2.918
 3334TIP3    H1 9966   2.486   0.187   2.907
 3334TIP3    H2 9967   2.396   0.302   2.867
 3335TIP3   OH2 9968   2.235   0.691   4.208
 3335TIP3    H1 9969   2.272   0.757   4.150
 3335TIP3    H2 9970   2.172   0.644   4.153
 3336TIP3   OH2 9971   3.308   3.828   1.863
 3336TIP3    H1 9972   3.402   3.842   1.869
 3336TIP3    H2 9973   3.275   3.847   1.952
 3337TIP3   OH2 9974   0.805   4.913   4.677
 3337TIP3    H1 9975   0.797   4.991   4.622
 3337TIP3    H2 9976   0.804   4.946   4.767
 3338TIP3   OH2 9977   1.286   5.524   1.173
 3338TIP3    H1 9978   1.356   5.469   1.137
 3338TIP3    H2 9979   1.333   5.587   1.228
 3339TIP3   OH2 9980   6.968   4.761   1.494
 3339TIP3    H1 9981   7.001   4.713   1.570
 3339TIP3    H2 9982   6.875   4.771   1.511
 3340TIP3   OH2 9983   0.038   5.890   3.786
 3340TIP3    H1 9984   0.013   5.825   3.850
 3340TIP3    H2 9985  -0.040   5.943   3.772
 3341TIP3   OH2 9986   3.985   0.619   2.103
 3341TIP3    H1 9987   4.013   0.576   2.022
 3341TIP3    H2 9988   4.012   0.559   2.173
 3342TIP3   OH2 9989   0.954   5.709   3.531
 3342TIP3    H1 9990   1.015   5.774   3.497
 3342TIP3    H2 9991   0.869   5.736   3.497
 3343TIP3   OH2 9992   4.723   3.348   3.809
 3343TIP3    H1 9993   4.671   3.385   3.880
 3343TIP3    H2 9994   4.748   3.424   3.756
 3344TIP3   OH2 9995   0.819   4.663   5.706
 3344TIP3    H1 9996   0.856   4.751   5.700
 3344TIP3    H2 9997   0.799   4.651   5.799
 3345TIP3   OH2 9998   2.588   0.646   5.340
 3345TIP3    H1 9999   2.552   0.637   5.252
 3345TIP3    H210000   2.631   0.562   5.356
 3346TIP3   OH210001   3.251   5.193   4.623
 3346TIP3    H110002   3.158   5.210   4.613
 3346TIP3    H210003   3.291   5.236   4.547
 3347TIP3   OH210004   7.016   6.307   4.840
 3347TIP3    H110005   6.977   6.293   4.754
 3347TIP3    H210006   7.108   6.327   4.822
 3348TIP3   OH210007   2.079   4.945   1.961
 3348TIP3    H110008   2.108   4.900   2.041
 3348TIP3    H210009   1.989   4.916   1.948
 3349TIP3   OH210010   3.324   2.526   4.121
 3349TIP3    H110011   3.391   2.540   4.053
 3349TIP3    H210012   3.292   2.614   4.142
 3350TIP3   OH210013   0.816   1.430   2.198
 3350TIP3    H110014   0.724   1.456   2.198
 3350TIP3    H210015   0.824   1.370   2.272
 3351TIP3   OH210016   6.125   0.255   5.568
 3351TIP3    H110017   6.217   0.242   5.593
 3351TIP3    H210018   6.104   0.178   5.514
 3352TIP3   OH210019   5.652   0.098   5.190
 3352TIP3    H110020   5.574   0.047   5.171
 3352TIP3    H210021   5.721   0.033   5.202
 3353TIP3   OH210022   1.475   4.150   2.824
 3353TIP3    H110023   1.474   4.246   2.819
 3353TIP3    H210024   1.562   4.128   2.857
 3354TIP3   OH210025   5.551   1.835   2.851
 3354TIP3    H110026   5.553   1.877   2.937
 3354TIP3    H210027   5.607   1.758   2.862
 3355TIP3   OH210028   5.008   3.477   3.378
 3355TIP3    H110029   4.942   3.486   3.309
 3355TIP3    H210030   5.081   3.532   3.348
 3356TIP3   OH210031   1.310   0.729   4.963
 3356TIP3    H110032   1.400   0.731   4.995
 3356TIP3    H210033   1.311   0.781   4.883
 3357TIP3   OH210034   7.138   5.315   0.211
 3357TIP3    H110035   7.047   5.292   0.230
 3357TIP3    H210036   7.131   5.393   0.156
 3358TIP3   OH210037   4.879   2.426   1.340
 3358TIP3    H110038   4.812   2.385   1.285
 3358TIP3    H210039   4.892   2.512   1.302
 3359TIP3   OH210040   6.121   3.330   3.650
 3359TIP3    H110041   6.138   3.385   3.726
 3359TIP3    H210042   6.033   3.356   3.621
 3360TIP3   OH210043   3.844   3.822   3.622
 3360TIP3    H110044   3.902   3.797   3.550
 3360TIP3    H210045   3.765   3.855   3.579
 3361TIP3   OH210046   1.839   2.479   2.640
 3361TIP3    H110047   1.874   2.567   2.653
 3361TIP3    H210048   1.890   2.424   2.700
 3362TIP3   OH210049   1.016   2.341   4.413
 3362TIP3    H110050   0.973   2.303   4.337
 3362TIP3    H210051   0.974   2.427   4.423
 3363TIP3   OH210052   5.997   2.500   4.059
 3363TIP3    H110053   5.952   2.534   3.982
 3363TIP3    H210054   6.047   2.425   4.027
 3364TIP3   OH210055   1.383   3.571   2.323
 3364TIP3    H110056   1.315   3.519   2.281
 3364TIP3    H210057   1.343   3.656   2.337
 3365TIP3   OH210058   6.463   1.669   1.697
 3365TIP3    H110059   6.449   1.611   1.772
 3365TIP3    H210060   6.506   1.614   1.631
 3366TIP3   OH210061   6.401   1.469   0.904
 3366TIP3    H110062   6.375   1.408   0.834
 3366TIP3    H210063   6.360   1.552   0.880
 3367TIP3   OH210064   6.238   2.887   5.214
 3367TIP3    H110065   6.160   2.875   5.269
 3367TIP3    H210066   6.287   2.958   5.256
 3368TIP3   OH210067   4.700   3.145   2.311
 3368TIP3    H110068   4.768   3.199   2.271
 3368TIP3    H210069   4.670   3.088   2.241
 3369TIP3   OH210070   5.421   0.619   3.473
 3369TIP3    H110071   5.342   0.638   3.422
 3369TIP3    H210072   5.487   0.680   3.439
 3370TIP3   OH210073   1.417   5.821   4.912
 3370TIP3    H110074   1.481   5.888   4.889
 3370TIP3    H210075   1.468   5.740   4.922
 3371TIP3   OH210076   1.291   4.984   5.807
 3371TIP3    H110077   1.230   5.049   5.843
 3371TIP3    H210078   1.256   4.900   5.835
 3372TIP3   OH210079   4.179   2.123   3.150
 3372TIP3    H110080   4.084   2.111   3.150
 3372TIP3    H210081   4.192   2.211   3.185
 3373TIP3   OH210082   3.888   2.795   4.186
 3373TIP3    H110083   3.958   2.749   4.141
 3373TIP3    H210084   3.886   2.882   4.146
 3374TIP3   OH210085   4.820   6.669   4.904
 3374TIP3    H110086   4.784   6.627   4.983
 3374TIP3    H210087   4.745   6.714   4.865
 3375TIP3   OH210088   3.765   6.426   4.016
 3375TIP3    H110089   3.829   6.374   4.064
 3375TIP3    H210090   3.772   6.395   3.926
 3376TIP3   OH210091   5.491   5.212   1.619
 3376TIP3    H110092   5.536   5.175   1.695
 3376TIP3    H210093   5.548   5.191   1.545
 3377TIP3   OH210094   2.484   5.392   0.703
 3377TIP3    H110095   2.518   5.404   0.615
 3377TIP3    H210096   2.430   5.470   0.719
 3378TIP3   OH210097   0.141   1.247   2.526
 3378TIP3    H110098   0.235   1.239   2.542
 3378TIP3    H210099   0.134   1.314   2.458
 3379TIP3   OH210100   4.008   5.145   1.039
 3379TIP3    H110101   3.918   5.163   1.014
 3379TIP3    H210102   4.035   5.073   0.982
 3380TIP3   OH210103   5.827   4.482   2.433
 3380TIP3    H110104   5.917   4.497   2.405
 3380TIP3    H210105   5.829   4.494   2.528
 3381TIP3   OH210106   2.346   2.640   0.808
 3381TIP3    H110107   2.374   2.697   0.879
 3381TIP3    H210108   2.420   2.580   0.795
 3382TIP3   OH210109   4.249   2.407   2.097
 3382TIP3    H110110   4.212   2.329   2.056
 3382TIP3    H210111   4.209   2.409   2.184
 3383TIP3   OH210112   1.026   6.333   2.467
 3383TIP3    H110113   1.019   6.352   2.374
 3383TIP3    H210114   0.993   6.412   2.510
 3384TIP3   OH210115   6.437   2.183   2.049
 3384TIP3    H110116   6.348   2.162   2.021
 3384TIP3    H210117   6.450   2.133   2.129
 3385TIP3   OH210118   4.562   6.049   2.593
 3385TIP3    H110119   4.658   6.056   2.594
 3385TIP3    H210120   4.545   5.956   2.583
 3386TIP3   OH210121   2.030   1.631   3.101
 3386TIP3    H110122   2.013   1.719   3.137
 3386TIP3    H210123   2.068   1.583   3.174
 3387TIP3   OH210124   0.452   1.951   3.408
 3387TIP3    H110125   0.358   1.934   3.396
 3387TIP3    H210126   0.469   2.028   3.353
 3388TIP3   OH210127   2.321   3.093   3.298
 3388TIP3    H110128   2.265   3.051   3.363
 3388TIP3    H210129   2.387   3.139   3.350
 3389TIP3   OH210130   5.117   6.486   5.183
 3389TIP3    H110131   5.163   6.405   5.204
 3389TIP3    H210132   5.126   6.540   5.261
 3390TIP3   OH210133   4.576   5.753   2.580
 3390TIP3    H110134   4.486   5.722   2.570
 3390TIP3    H210135   4.625   5.710   2.509
 3391TIP3   OH210136   4.402   4.414   3.082
 3391TIP3    H110137   4.357   4.398   2.999
 3391TIP3    H210138   4.352   4.364   3.146
 3392TIP3   OH210139   3.884   0.861   1.100
 3392TIP3    H110140   3.946   0.907   1.157
 3392TIP3    H210141   3.799   0.895   1.125
 3393TIP3   OH210142   2.149   2.951   5.196
 3393TIP3    H110143   2.101   3.004   5.132
 3393TIP3    H210144   2.118   2.862   5.181
 3394TIP3   OH210145   5.150   4.665   2.876
 3394TIP3    H110146   5.212   4.727   2.836
 3394TIP3    H210147   5.064   4.702   2.858
 3395TIP3   OH210148   0.606   6.004   2.031
 3395TIP3    H110149   0.532   6.008   2.092
 3395TIP3    H210150   0.565   6.003   1.944
 3396TIP3   OH210151   0.204   3.338   4.198
 3396TIP3    H110152   0.119   3.294   4.185
 3396TIP3    H210153   0.217   3.336   4.293
 3397TIP3   OH210154   0.442   3.398   2.610
 3397TIP3    H110155   0.480   3.352   2.684
 3397TIP3    H210156   0.426   3.487   2.642
 3398TIP3   OH210157   3.992   4.664   1.169
 3398TIP3    H110158   4.027   4.626   1.088
 3398TIP3    H210159   3.917   4.716   1.141
 3399TIP3   OH210160   4.650   5.107   0.739
 3399TIP3    H110161   4.577   5.157   0.775
 3399TIP3    H210162   4.616   5.017   0.734
 3400TIP3   OH210163   0.977   4.812   2.804
 3400TIP3    H110164   0.969   4.816   2.709
 3400TIP3    H210165   1.071   4.805   2.820
 3401TIP3   OH210166   6.934   4.475   4.143
 3401TIP3    H110167   6.977   4.561   4.139
 3401TIP3    H210168   7.002   4.416   4.176
 3402TIP3   OH210169   4.424   1.779   2.466
 3402TIP3    H110170   4.511   1.769   2.428
 3402TIP3    H210171   4.379   1.840   2.407
 3403TIP3   OH210172   3.292   5.991   3.689
 3403TIP3    H110173   3.213   6.014   3.737
 3403TIP3    H210174   3.307   6.065   3.631
 3404TIP3   OH210175   2.305   3.796   1.227
 3404TIP3    H110176   2.347   3.711   1.235
 3404TIP3    H210177   2.217   3.777   1.194
 3405TIP3   OH210178   0.129   2.482   0.842
 3405TIP3    H110179   0.166   2.404   0.800
 3405TIP3    H210180   0.198   2.548   0.834
 3406TIP3   OH210181   3.041   1.048   1.798
 3406TIP3    H110182   3.127   1.021   1.829
 3406TIP3    H210183   2.998   1.084   1.876
 3407TIP3   OH210184   5.905   2.562   3.824
 3407TIP3    H110185   5.965   2.620   3.777
 3407TIP3    H210186   5.887   2.491   3.762
 3408TIP3   OH210187   6.355   1.625   2.774
 3408TIP3    H110188   6.404   1.571   2.712
 3408TIP3    H210189   6.273   1.578   2.786
 3409TIP3   OH210190   5.005   1.410   3.343
 3409TIP3    H110191   5.030   1.501   3.357
 3409TIP3    H210192   5.062   1.379   3.273
 3410TIP3   OH210193   1.369   2.769   1.304
 3410TIP3    H110194   1.282   2.775   1.265
 3410TIP3    H210195   1.401   2.682   1.280
 3411TIP3   OH210196   6.123   6.091   3.264
 3411TIP3    H110197   6.045   6.108   3.211
 3411TIP3    H210198   6.173   6.172   3.259
 3412TIP3   OH210199   4.595   1.913   2.165
 3412TIP3    H110200   4.529   1.846   2.185
 3412TIP3    H210201   4.652   1.872   2.101
 3413TIP3   OH210202   0.094   0.837   2.383
 3413TIP3    H110203   0.129   0.750   2.362
 3413TIP3    H210204   0.112   0.848   2.477
 3414TIP3   OH210205   2.543   1.551   1.751
 3414TIP3    H110206   2.449   1.571   1.750
 3414TIP3    H210207   2.578   1.602   1.824
 3415TIP3   OH210208   6.371   4.581   2.134
 3415TIP3    H110209   6.448   4.526   2.148
 3415TIP3    H210210   6.316   4.564   2.210
 3416TIP3   OH210211   6.417   2.065   5.674
 3416TIP3    H110212   6.425   2.161   5.673
 3416TIP3    H210213   6.499   2.035   5.715
 3417TIP3   OH210214   3.912   0.061   2.276
 3417TIP3    H110215   3.925   0.085   2.184
 3417TIP3    H210216   3.847   0.123   2.309
 3418TIP3   OH210217   5.552   6.425   5.051
 3418TIP3    H110218   5.554   6.403   5.144
 3418TIP3    H210219   5.543   6.341   5.006
 3419TIP3   OH210220   6.614   3.808   5.806
 3419TIP3    H110221   6.676   3.789   5.735
 3419TIP3    H210222   6.544   3.744   5.795
 3420TIP3   OH210223   1.374   4.186   5.161
 3420TIP3    H110224   1.328   4.257   5.115
 3420TIP3    H210225   1.307   4.144   5.215
 3421TIP3   OH210226   0.696   5.916   0.627
 3421TIP3    H110227   0.648   5.947   0.704
 3421TIP3    H210228   0.670   5.825   0.618
 3422TIP3   OH210229   2.152   5.303   0.929
 3422TIP3    H110230   2.062   5.298   0.895
 3422TIP3    H210231   2.171   5.215   0.961
 3423TIP3   OH210232   5.764   0.208   0.889
 3423TIP3    H110233   5.767   0.296   0.927
 3423TIP3    H210234   5.760   0.222   0.795
 3424TIP3   OH210235   2.463   5.452   3.171
 3424TIP3    H110236   2.457   5.547   3.161
 3424TIP3    H210237   2.515   5.424   3.096
 3425TIP3   OH210238   1.434   0.686   4.658
 3425TIP3    H110239   1.513   0.736   4.678
 3425TIP3    H210240   1.462   0.595   4.664
 3426TIP3   OH210241   6.448   5.537   3.359
 3426TIP3    H110242   6.391   5.560   3.285
 3426TIP3    H210243   6.405   5.576   3.435
 3427TIP3   OH210244   1.193   1.118   2.443
 3427TIP3    H110245   1.227   1.138   2.356
 3427TIP3    H210246   1.116   1.175   2.452
 3428TIP3   OH210247   1.834   4.488   4.888
 3428TIP3    H110248   1.763   4.543   4.921
 3428TIP3    H210249   1.825   4.406   4.937
 3429TIP3   OH210250   1.057   3.699   1.985
 3429TIP3    H110251   1.012   3.668   1.906
 3429TIP3    H210252   1.141   3.652   1.984
 3430TIP3   OH210253   4.512   0.660   3.913
 3430TIP3    H110254   4.424   0.627   3.893
 3430TIP3    H210255   4.556   0.586   3.954
 3431TIP3   OH210256   0.367   1.721   0.561
 3431TIP3    H110257   0.293   1.672   0.524
 3431TIP3    H210258   0.437   1.711   0.495
 3432TIP3   OH210259   6.181   4.923   1.745
 3432TIP3    H110260   6.239   4.890   1.814
 3432TIP3    H210261   6.116   4.853   1.734
 3433TIP3   OH210262   6.406   2.330   2.896
 3433TIP3    H110263   6.463   2.339   2.820
 3433TIP3    H210264   6.322   2.303   2.860
 3434TIP3   OH210265   2.183   3.080   4.788
 3434TIP3    H110266   2.132   3.026   4.728
 3434TIP3    H210267   2.256   3.024   4.815
 3435TIP3   OH210268   0.378   4.681   2.484
 3435TIP3    H110269   0.310   4.738   2.447
 3435TIP3    H210270   0.340   4.594   2.483
 3436TIP3   OH210271   5.234   3.762   4.815
 3436TIP3    H110272   5.157   3.791   4.765
 3436TIP3    H210273   5.299   3.740   4.748
 3437TIP3   OH210274   0.953   4.326   0.573
 3437TIP3    H110275   0.897   4.272   0.517
 3437TIP3    H210276   0.935   4.295   0.662
 3438TIP3   OH210277   0.897   6.320   5.741
 3438TIP3    H110278   0.836   6.385   5.774
 3438TIP3    H210279   0.897   6.334   5.646
 3439TIP3   OH210280   2.018   3.801   5.263
 3439TIP3    H110281   2.081   3.801   5.335
 3439TIP3    H210282   1.992   3.710   5.253
 3440TIP3   OH210283   5.005   3.996   3.291
 3440TIP3    H110284   4.949   4.039   3.356
 3440TIP3    H210285   4.943   3.953   3.232
 3441TIP3   OH210286   5.291   3.606   1.629
 3441TIP3    H110287   5.376   3.608   1.586
 3441TIP3    H210288   5.248   3.687   1.599
 3442TIP3   OH210289   6.841   1.349   5.336
 3442TIP3    H110290   6.826   1.329   5.244
 3442TIP3    H210291   6.861   1.442   5.338
 3443TIP3   OH210292   2.706   4.283   0.514
 3443TIP3    H110293   2.683   4.228   0.589
 3443TIP3    H210294   2.707   4.223   0.440
 3444TIP3   OH210295   0.509   5.961   2.452
 3444TIP3    H110296   0.580   6.017   2.481
 3444TIP3    H210297   0.549   5.900   2.389
 3445TIP3   OH210298   6.433   1.251   4.019
 3445TIP3    H110299   6.484   1.194   3.961
 3445TIP3    H210300   6.365   1.287   3.962
 3446TIP3   OH210301   3.304   2.433   0.686
 3446TIP3    H110302   3.227   2.485   0.709
 3446TIP3    H210303   3.307   2.363   0.751
 3447TIP3   OH210304   2.332   2.202   3.180
 3447TIP3    H110305   2.300   2.139   3.245
 3447TIP3    H210306   2.348   2.282   3.230
 3448TIP3   OH210307   1.897   2.373   4.453
 3448TIP3    H110308   1.978   2.322   4.462
 3448TIP3    H210309   1.923   2.451   4.405
 3449TIP3   OH210310   4.921   3.203   2.788
 3449TIP3    H110311   4.964   3.286   2.764
 3449TIP3    H210312   4.905   3.160   2.704
 3450TIP3   OH210313   5.905   1.008   4.061
 3450TIP3    H110314   5.839   1.065   4.101
 3450TIP3    H210315   5.986   1.059   4.065
 3451TIP3   OH210316   3.998   2.539   1.316
 3451TIP3    H110317   4.017   2.471   1.251
 3451TIP3    H210318   4.009   2.494   1.400
 3452TIP3   OH210319   6.461   1.357   3.542
 3452TIP3    H110320   6.439   1.440   3.584
 3452TIP3    H210321   6.510   1.382   3.464
 3453TIP3   OH210322   5.519   3.933   4.631
 3453TIP3    H110323   5.450   3.994   4.608
 3453TIP3    H210324   5.519   3.931   4.726
 3454TIP3   OH210325   5.022   2.297   0.446
 3454TIP3    H110326   5.089   2.333   0.505
 3454TIP3    H210327   4.984   2.225   0.496
 3455TIP3   OH210328   0.446   2.543   5.694
 3455TIP3    H110329   0.447   2.633   5.662
 3455TIP3    H210330   0.404   2.492   5.625
 3456TIP3   OH210331   4.851   5.945   4.617
 3456TIP3    H110332   4.928   5.895   4.643
 3456TIP3    H210333   4.884   6.033   4.599
 3457TIP3   OH210334   6.459   3.448   1.150
 3457TIP3    H110335   6.493   3.464   1.238
 3457TIP3    H210336   6.525   3.485   1.092
 3458TIP3   OH210337   1.876   1.838   3.799
 3458TIP3    H110338   1.846   1.926   3.822
 3458TIP3    H210339   1.883   1.839   3.704
 3459TIP3   OH210340   2.999   4.299   2.178
 3459TIP3    H110341   2.918   4.272   2.220
 3459TIP3    H210342   3.031   4.219   2.135
 3460TIP3   OH210343   3.720   3.855   1.368
 3460TIP3    H110344   3.637   3.828   1.329
 3460TIP3    H210345   3.763   3.907   1.301
 3461TIP3   OH210346   4.609   1.935   4.304
 3461TIP3    H110347   4.641   1.872   4.368
 3461TIP3    H210348   4.555   1.995   4.354
 3462TIP3   OH210349   6.448   3.119   1.678
 3462TIP3    H110350   6.453   3.139   1.584
 3462TIP3    H210351   6.419   3.200   1.718
 3463TIP3   OH210352   6.473   1.426   2.628
 3463TIP3    H110353   6.537   1.355   2.625
 3463TIP3    H210354   6.438   1.431   2.539
 3464TIP3   OH210355   3.461   2.904   4.051
 3464TIP3    H110356   3.465   2.874   3.960
 3464TIP3    H210357   3.419   2.989   4.047
 3465TIP3   OH210358   6.508   1.185   2.952
 3465TIP3    H110359   6.558   1.262   2.925
 3465TIP3    H210360   6.561   1.144   3.021
 3466TIP3   OH210361   6.746   2.592   4.224
 3466TIP3    H110362   6.748   2.615   4.131
 3466TIP3    H210363   6.787   2.668   4.267
 3467TIP3   OH210364   1.483   1.724   0.109
 3467TIP3    H110365   1.441   1.639   0.126
 3467TIP3    H210366   1.553   1.704   0.046
 3468TIP3   OH210367   2.956   3.992   4.267
 3468TIP3    H110368   2.996   3.920   4.217
 3468TIP3    H210369   2.863   3.989   4.242
 3469TIP3   OH210370   0.732   4.233   3.664
 3469TIP3    H110371   0.758   4.245   3.756
 3469TIP3    H210372   0.814   4.241   3.615
 3470TIP3   OH210373   2.321   3.162   2.392
 3470TIP3    H110374   2.405   3.118   2.391
 3470TIP3    H210375   2.258   3.095   2.367
 3471TIP3   OH210376   5.878   1.541   1.410
 3471TIP3    H110377   5.910   1.493   1.334
 3471TIP3    H210378   5.811   1.599   1.376
 3472TIP3   OH210379   4.543   4.336   4.299
 3472TIP3    H110380   4.562   4.428   4.319
 3472TIP3    H210381   4.584   4.321   4.214
 3473TIP3   OH210382   6.094   0.567   1.177
 3473TIP3    H110383   6.083   0.578   1.082
 3473TIP3    H210384   6.163   0.501   1.185
 3474TIP3   OH210385   1.882   2.127   0.233
 3474TIP3    H110386   1.835   2.074   0.297
 3474TIP3    H210387   1.898   2.067   0.160
 3475TIP3   OH210388   1.087   4.154   0.175
 3475TIP3    H110389   1.169   4.184   0.214
 3475TIP3    H210390   1.059   4.082   0.231
 3476TIP3   OH210391   2.878   4.445   5.332
 3476TIP3    H110392   2.827   4.367   5.356
 3476TIP3    H210393   2.950   4.411   5.279
 3477TIP3   OH210394   5.123   4.966   3.626
 3477TIP3    H110395   5.103   4.884   3.581
 3477TIP3    H210396   5.085   5.034   3.570
 3478TIP3   OH210397   5.872   6.700   3.948
 3478TIP3    H110398   5.903   6.785   3.979
 3478TIP3    H210399   5.878   6.643   4.025
 3479TIP3   OH210400   6.409   0.372   2.259
 3479TIP3    H110401   6.451   0.441   2.310
 3479TIP3    H210402   6.334   0.345   2.312
 3480TIP3   OH210403   6.883   1.607   5.397
 3480TIP3    H110404   6.931   1.684   5.368
 3480TIP3    H210405   6.803   1.643   5.435
 3481TIP3   OH210406   6.725   4.272   1.203
 3481TIP3    H110407   6.711   4.199   1.263
 3481TIP3    H210408   6.712   4.351   1.256
 3482TIP3   OH210409   2.837   6.189   1.187
 3482TIP3    H110410   2.816   6.096   1.179
 3482TIP3    H210411   2.802   6.229   1.107
 3483TIP3   OH210412   1.136   4.223   2.369
 3483TIP3    H110413   1.138   4.318   2.365
 3483TIP3    H210414   1.054   4.202   2.414
 3484TIP3   OH210415   4.969   4.466   2.639
 3484TIP3    H110416   5.030   4.459   2.566
 3484TIP3    H210417   5.020   4.441   2.716
 3485TIP3   OH210418   3.750   1.831   1.722
 3485TIP3    H110419   3.841   1.822   1.693
 3485TIP3    H210420   3.742   1.771   1.796
 3486TIP3   OH210421   3.346   3.804   1.198
 3486TIP3    H110422   3.302   3.803   1.113
 3486TIP3    H210423   3.400   3.724   1.198
 3487TIP3   OH210424   6.875   2.678   2.247
 3487TIP3    H110425   6.913   2.659   2.161
 3487TIP3    H210426   6.947   2.667   2.309
 3488TIP3   OH210427   3.155   1.545   3.595
 3488TIP3    H110428   3.158   1.520   3.688
 3488TIP3    H210429   3.133   1.464   3.549
 3489TIP3   OH210430   5.766   4.009   4.568
 3489TIP3    H110431   5.679   3.968   4.574
 3489TIP3    H210432   5.773   4.035   4.476
 3490TIP3   OH210433   1.359   4.662   0.491
 3490TIP3    H110434   1.281   4.702   0.529
 3490TIP3    H210435   1.386   4.596   0.555
 3491TIP3   OH210436   0.288   4.289   3.026
 3491TIP3    H110437   0.316   4.215   2.972
 3491TIP3    H210438   0.357   4.299   3.091
 3492TIP3   OH210439   2.744   5.819   5.732
 3492TIP3    H110440   2.656   5.816   5.694
 3492TIP3    H210441   2.785   5.894   5.690
 3493TIP3   OH210442   3.737   1.050   1.274
 3493TIP3    H110443   3.732   1.110   1.199
 3493TIP3    H210444   3.809   1.084   1.327
 3494TIP3   OH210445   2.752   2.022   3.941
 3494TIP3    H110446   2.770   1.932   3.912
 3494TIP3    H210447   2.834   2.069   3.927
 3495TIP3   OH210448   2.575   1.157   5.478
 3495TIP3    H110449   2.486   1.172   5.447
 3495TIP3    H210450   2.591   1.064   5.462
 3496TIP3   OH210451   2.333   2.781   1.419
 3496TIP3    H110452   2.318   2.809   1.509
 3496TIP3    H210453   2.321   2.686   1.421
 3497TIP3   OH210454   1.090   1.137   2.707
 3497TIP3    H110455   1.167   1.110   2.657
 3497TIP3    H210456   1.110   1.226   2.735
 3498TIP3   OH210457   4.160   2.713   0.233
 3498TIP3    H110458   4.206   2.641   0.190
 3498TIP3    H210459   4.220   2.787   0.229
 3499TIP3   OH210460   0.395   4.020   3.365
 3499TIP3    H110461   0.442   4.093   3.326
 3499TIP3    H210462   0.435   3.942   3.327
 3500TIP3   OH210463   5.816   6.747   0.981
 3500TIP3    H110464   5.814   6.708   0.894
 3500TIP3    H210465   5.908   6.770   0.995
 3501TIP3   OH210466   3.762   6.744   2.807
 3501TIP3    H110467   3.804   6.663   2.777
 3501TIP3    H210468   3.703   6.769   2.736
 3502TIP3   OH210469   5.714   6.766   5.170
 3502TIP3    H110470   5.632   6.740   5.128
 3502TIP3    H210471   5.774   6.782   5.098
 3503TIP3   OH210472   2.027   4.185   5.502
 3503TIP3    H110473   2.000   4.164   5.412
 3503TIP3    H210474   1.994   4.274   5.516
 3504TIP3   OH210475   5.748   5.921   4.878
 3504TIP3    H110476   5.687   5.849   4.862
 3504TIP3    H210477   5.825   5.879   4.915
 3505TIP3   OH210478   5.353   0.302   2.677
 3505TIP3    H110479   5.438   0.345   2.684
 3505TIP3    H210480   5.374   0.209   2.668
 3506TIP3   OH210481   0.740   4.835   1.303
 3506TIP3    H110482   0.821   4.853   1.256
 3506TIP3    H210483   0.747   4.743   1.329
 3507TIP3   OH210484   6.511   5.052   4.859
 3507TIP3    H110485   6.423   5.018   4.841
 3507TIP3    H210486   6.503   5.146   4.846
 3508TIP3   OH210487   4.272   6.367   2.673
 3508TIP3    H110488   4.197   6.414   2.637
 3508TIP3    H210489   4.249   6.274   2.662
 3509TIP3   OH210490   0.133   2.434   4.076
 3509TIP3    H110491   0.105   2.342   4.079
 3509TIP3    H210492   0.148   2.457   4.167
 3510TIP3   OH210493   0.587   5.021   4.150
 3510TIP3    H110494   0.659   5.082   4.164
 3510TIP3    H210495   0.518   5.074   4.109
 3511TIP3   OH210496   5.492   5.425   5.355
 3511TIP3    H110497   5.582   5.441   5.383
 3511TIP3    H210498   5.501   5.360   5.285
 3512TIP3   OH210499   0.505   3.013   2.843
 3512TIP3    H110500   0.464   3.032   2.928
 3512TIP3    H210501   0.548   3.094   2.818
 3513TIP3   OH210502   1.405   5.572   4.415
 3513TIP3    H110503   1.488   5.613   4.389
 3513TIP3    H210504   1.405   5.577   4.511
 3514TIP3   OH210505   1.558   1.065   5.470
 3514TIP3    H110506   1.485   1.003   5.471
 3514TIP3    H210507   1.524   1.142   5.424
 3515TIP3   OH210508   1.769   1.979   4.342
 3515TIP3    H110509   1.803   1.995   4.430
 3515TIP3    H210510   1.694   1.921   4.356
 3516TIP3   OH210511   5.414   4.997   3.679
 3516TIP3    H110512   5.440   4.941   3.752
 3516TIP3    H210513   5.321   4.979   3.667
 3517TIP3   OH210514   0.193   6.469   5.104
 3517TIP3    H110515   0.104   6.489   5.132
 3517TIP3    H210516   0.184   6.390   5.051
 3518TIP3   OH210517   1.749   2.375   0.352
 3518TIP3    H110518   1.778   2.291   0.317
 3518TIP3    H210519   1.678   2.402   0.294
 3519TIP3   OH210520   2.612   5.495   2.059
 3519TIP3    H110521   2.648   5.512   2.146
 3519TIP3    H210522   2.555   5.419   2.071
 3520TIP3   OH210523   6.488   6.792   3.126
 3520TIP3    H110524   6.558   6.834   3.175
 3520TIP3    H210525   6.518   6.702   3.113
 3521TIP3   OH210526   6.263   2.290   2.244
 3521TIP3    H110527   6.300   2.273   2.158
 3521TIP3    H210528   6.326   2.253   2.306
 3522TIP3   OH210529   6.098   6.049   2.607
 3522TIP3    H110530   6.025   6.037   2.547
 3522TIP3    H210531   6.159   5.979   2.585
 3523TIP3   OH210532   2.071   2.624   3.927
 3523TIP3    H110533   2.108   2.646   4.013
 3523TIP3    H210534   2.097   2.696   3.870
 3524TIP3   OH210535   6.674   5.739   0.260
 3524TIP3    H110536   6.730   5.816   0.269
 3524TIP3    H210537   6.736   5.666   0.249
 3525TIP3   OH210538   1.408   2.760   5.071
 3525TIP3    H110539   1.315   2.765   5.047
 3525TIP3    H210540   1.412   2.690   5.137
 3526TIP3   OH210541   5.695   2.806   4.518
 3526TIP3    H110542   5.774   2.857   4.501
 3526TIP3    H210543   5.635   2.830   4.447
 3527TIP3   OH210544   5.257   4.541   3.130
 3527TIP3    H110545   5.176   4.581   3.162
 3527TIP3    H210546   5.253   4.552   3.035
 3528TIP3   OH210547   0.663   5.790   2.306
 3528TIP3    H110548   0.720   5.732   2.357
 3528TIP3    H210549   0.601   5.730   2.263
 3529TIP3   OH210550   5.368   5.587   2.738
 3529TIP3    H110551   5.396   5.663   2.688
 3529TIP3    H210552   5.400   5.603   2.827
 3530TIP3   OH210553   4.970   1.189   3.822
 3530TIP3    H110554   4.952   1.095   3.820
 3530TIP3    H210555   5.044   1.200   3.762
 3531TIP3   OH210556   7.101   0.567   5.059
 3531TIP3    H110557   7.177   0.624   5.070
 3531TIP3    H210558   7.094   0.521   5.143
 3532TIP3   OH210559   4.519   1.417   2.815
 3532TIP3    H110560   4.516   1.513   2.814
 3532TIP3    H210561   4.559   1.393   2.732
 3533TIP3   OH210562   6.531   4.062   0.473
 3533TIP3    H110563   6.520   4.070   0.568
 3533TIP3    H210564   6.612   4.012   0.462
 3534TIP3   OH210565   6.094   6.052   5.196
 3534TIP3    H110566   6.096   6.092   5.109
 3534TIP3    H210567   6.104   6.125   5.257
 3535TIP3   OH210568   2.800   3.227   4.691
 3535TIP3    H110569   2.739   3.180   4.749
 3535TIP3    H210570   2.877   3.171   4.687
 3536TIP3   OH210571   3.628   4.603   4.314
 3536TIP3    H110572   3.594   4.541   4.380
 3536TIP3    H210573   3.692   4.655   4.362
 3537TIP3   OH210574   5.683   1.787   1.949
 3537TIP3    H110575   5.639   1.739   1.878
 3537TIP3    H210576   5.711   1.869   1.909
 3538TIP3   OH210577   2.211   6.722   4.756
 3538TIP3    H110578   2.118   6.714   4.776
 3538TIP3    H210579   2.230   6.815   4.768
 3539TIP3   OH210580   0.949   5.225   2.801
 3539TIP3    H110581   0.915   5.163   2.736
 3539TIP3    H210582   0.923   5.311   2.767
 3540TIP3   OH210583   1.771   2.936   0.294
 3540TIP3    H110584   1.841   2.986   0.253
 3540TIP3    H210585   1.787   2.845   0.268
 3541TIP3   OH210586   2.932   5.615   3.620
 3541TIP3    H110587   2.858   5.669   3.648
 3541TIP3    H210588   2.989   5.674   3.571
 3542TIP3   OH210589   4.057   3.845   5.079
 3542TIP3    H110590   4.054   3.763   5.129
 3542TIP3    H210591   4.014   3.909   5.135
 3543TIP3   OH210592   0.387   5.705   4.948
 3543TIP3    H110593   0.294   5.691   4.929
 3543TIP3    H210594   0.388   5.778   5.010
 3544TIP3   OH210595   5.484   4.882   3.021
 3544TIP3    H110596   5.417   4.939   2.983
 3544TIP3    H210597   5.456   4.871   3.112
 3545TIP3   OH210598   3.364   1.228   0.435
 3545TIP3    H110599   3.383   1.320   0.416
 3545TIP3    H210600   3.274   1.229   0.469
 3546TIP3   OH210601   2.732   5.109   5.422
 3546TIP3    H110602   2.711   5.156   5.502
 3546TIP3    H210603   2.785   5.170   5.372
 3547TIP3   OH210604   5.165   5.212   2.741
 3547TIP3    H110605   5.125   5.147   2.683
 3547TIP3    H210606   5.156   5.295   2.695
 3548TIP3   OH210607   4.076   3.102   5.352
 3548TIP3    H110608   3.987   3.098   5.316
 3548TIP3    H210609   4.078   3.032   5.417
 3549TIP3   OH210610   4.049   3.778   3.432
 3549TIP3    H110611   4.109   3.707   3.410
 3549TIP3    H210612   3.997   3.791   3.352
 3550TIP3   OH210613   0.032   0.276   3.290
 3550TIP3    H110614   0.068   0.276   3.202
 3550TIP3    H210615   0.072   0.352   3.333
 3551TIP3   OH210616   3.293   4.592   1.825
 3551TIP3    H110617   3.362   4.530   1.846
 3551TIP3    H210618   3.338   4.675   1.812
 3552TIP3   OH210619   0.443   4.361   1.264
 3552TIP3    H110620   0.503   4.388   1.334
 3552TIP3    H210621   0.357   4.392   1.293
 3553TIP3   OH210622   5.332   2.620   4.038
 3553TIP3    H110623   5.259   2.671   4.004
 3553TIP3    H210624   5.403   2.636   3.977
 3554TIP3   OH210625   1.921   0.828   4.435
 3554TIP3    H110626   1.975   0.855   4.361
 3554TIP3    H210627   1.946   0.737   4.450
 3555TIP3   OH210628   3.626   3.739   4.866
 3555TIP3    H110629   3.714   3.764   4.837
 3555TIP3    H210630   3.569   3.805   4.826
 3556TIP3   OH210631   7.096   0.807   4.126
 3556TIP3    H110632   7.096   0.771   4.215
 3556TIP3    H210633   7.189   0.817   4.105
 3557TIP3   OH210634   6.424   0.636   5.816
 3557TIP3    H110635   6.402   0.567   5.879
 3557TIP3    H210636   6.402   0.717   5.862
 3558TIP3   OH210637   5.359   5.953   3.944
 3558TIP3    H110638   5.406   6.034   3.963
 3558TIP3    H210639   5.318   5.969   3.859
 3559TIP3   OH210640   2.058   5.404   5.315
 3559TIP3    H110641   2.126   5.456   5.358
 3559TIP3    H210642   2.002   5.373   5.387
 3560TIP3   OH210643   5.737   0.630   2.167
 3560TIP3    H110644   5.642   0.616   2.164
 3560TIP3    H210645   5.769   0.599   2.082
 3561TIP3   OH210646   0.816   6.087   1.720
 3561TIP3    H110647   0.747   6.033   1.759
 3561TIP3    H210648   0.798   6.084   1.626
 3562TIP3   OH210649   3.282   6.467   0.530
 3562TIP3    H110650   3.307   6.532   0.596
 3562TIP3    H210651   3.306   6.507   0.447
 3563TIP3   OH210652   0.024   4.879   5.008
 3563TIP3    H110653  -0.071   4.884   5.000
 3563TIP3    H210654   0.046   4.790   4.979
 3564TIP3   OH210655   2.300   1.985   3.612
 3564TIP3    H110656   2.219   1.982   3.664
 3564TIP3    H210657   2.280   1.935   3.533
 3565TIP3   OH210658   1.516   0.514   5.558
 3565TIP3    H110659   1.447   0.464   5.603
 3565TIP3    H210660   1.532   0.589   5.614
 3566TIP3   OH210661   3.918   1.038   0.218
 3566TIP3    H110662   3.886   1.125   0.194
 3566TIP3    H210663   3.975   1.013   0.145
 3567TIP3   OH210664   0.583   1.418   0.348
 3567TIP3    H110665   0.489   1.412   0.332
 3567TIP3    H210666   0.611   1.497   0.301
 3568TIP3   OH210667   3.920   3.326   4.612
 3568TIP3    H110668   3.848   3.389   4.614
 3568TIP3    H210669   3.914   3.285   4.526
 3569TIP3   OH210670   6.724   4.021   5.560
 3569TIP3    H110671   6.770   4.105   5.560
 3569TIP3    H210672   6.771   3.968   5.497
 3570TIP3   OH210673   3.036   2.985   1.084
 3570TIP3    H110674   2.973   2.924   1.122
 3570TIP3    H210675   3.076   2.938   1.011
 3571TIP3   OH210676   4.752   5.991   5.661
 3571TIP3    H110677   4.841   6.004   5.694
 3571TIP3    H210678   4.720   5.913   5.708
 3572TIP3   OH210679   2.353   4.664   0.113
 3572TIP3    H110680   2.310   4.599   0.169
 3572TIP3    H210681   2.292   4.738   0.111
 3573TIP3   OH210682   3.970   3.913   3.205
 3573TIP3    H110683   3.973   3.939   3.113
 3573TIP3    H210684   3.903   3.969   3.244
 3574TIP3   OH210685   6.212   3.336   5.360
 3574TIP3    H110686   6.250   3.424   5.367
 3574TIP3    H210687   6.258   3.295   5.287
 3575TIP3   OH210688   3.133   5.900   1.702
 3575TIP3    H110689   3.039   5.885   1.713
 3575TIP3    H210690   3.149   5.983   1.746
 3576TIP3   OH210691   5.550   0.933   2.873
 3576TIP3    H110692   5.528   0.903   2.962
 3576TIP3    H210693   5.645   0.936   2.871
 3577TIP3   OH210694   1.511   3.528   3.096
 3577TIP3    H110695   1.438   3.491   3.047
 3577TIP3    H210696   1.576   3.457   3.099
 3578TIP3   OH210697   0.070   5.137   4.405
 3578TIP3    H110698   0.144   5.187   4.371
 3578TIP3    H210699   0.033   5.192   4.474
 3579TIP3   OH210700   3.653   4.384   4.891
 3579TIP3    H110701   3.597   4.373   4.968
 3579TIP3    H210702   3.733   4.335   4.912
 3580TIP3   OH210703   2.865   2.838   2.795
 3580TIP3    H110704   2.863   2.906   2.862
 3580TIP3    H210705   2.928   2.773   2.828
 3581TIP3   OH210706   5.585   0.751   5.533
 3581TIP3    H110707   5.637   0.673   5.554
 3581TIP3    H210708   5.544   0.775   5.616
 3582TIP3   OH210709   6.722   2.984   0.066
 3582TIP3    H110710   6.712   3.040  -0.010
 3582TIP3    H210711   6.635   2.978   0.105
 3583TIP3   OH210712   5.160   3.534   3.684
 3583TIP3    H110713   5.152   3.502   3.594
 3583TIP3    H210714   5.215   3.612   3.676
 3584TIP3   OH210715   1.439   4.968   4.102
 3584TIP3    H110716   1.486   4.906   4.047
 3584TIP3    H210717   1.356   4.924   4.123
 3585TIP3   OH210718   0.642   3.762   5.101
 3585TIP3    H110719   0.631   3.667   5.106
 3585TIP3    H210720   0.628   3.792   5.191
 3586TIP3   OH210721   4.536   3.734   3.938
 3586TIP3    H110722   4.533   3.753   3.844
 3586TIP3    H210723   4.492   3.650   3.947
 3587TIP3   OH210724   5.828   1.808   0.959
 3587TIP3    H110725   5.767   1.882   0.958
 3587TIP3    H210726   5.772   1.731   0.968
 3588TIP3   OH210727   2.791   0.141   3.409
 3588TIP3    H110728   2.866   0.140   3.348
 3588TIP3    H210729   2.814   0.077   3.476
 3589TIP3   OH210730   1.183   0.774   1.721
 3589TIP3    H110731   1.247   0.832   1.680
 3589TIP3    H210732   1.098   0.812   1.701
 3590TIP3   OH210733   7.127   0.255   0.745
 3590TIP3    H110734   7.175   0.236   0.664
 3590TIP3    H210735   7.131   0.351   0.753
 3591TIP3   OH210736   1.106   1.721   4.018
 3591TIP3    H110737   1.067   1.777   4.085
 3591TIP3    H210738   1.198   1.714   4.044
 3592TIP3   OH210739   1.386   3.656   4.953
 3592TIP3    H110740   1.429   3.671   4.868
 3592TIP3    H210741   1.400   3.563   4.970
 3593TIP3   OH210742   4.728   4.665   4.896
 3593TIP3    H110743   4.758   4.597   4.836
 3593TIP3    H210744   4.647   4.631   4.933
 3594TIP3   OH210745   6.652   4.637   3.600
 3594TIP3    H110746   6.605   4.628   3.517
 3594TIP3    H210747   6.735   4.678   3.575
 3595TIP3   OH210748   2.985   0.617   2.442
 3595TIP3    H110749   3.006   0.651   2.356
 3595TIP3    H210750   2.921   0.547   2.425
 3596TIP3   OH210751   0.710   3.623   0.119
 3596TIP3    H110752   0.709   3.585   0.031
 3596TIP3    H210753   0.797   3.601   0.153
 3597TIP3   OH210754   4.654   0.775   4.118
 3597TIP3    H110755   4.592   0.740   4.054
 3597TIP3    H210756   4.737   0.781   4.070
 3598TIP3   OH210757   0.888   6.627   4.332
 3598TIP3    H110758   0.844   6.544   4.317
 3598TIP3    H210759   0.824   6.693   4.305
 3599TIP3   OH210760   6.243   1.834   3.019
 3599TIP3    H110761   6.201   1.816   2.935
 3599TIP3    H210762   6.236   1.752   3.068
 3600TIP3   OH210763   0.722   6.533   5.830
 3600TIP3    H110764   0.773   6.614   5.828
 3600TIP3    H210765   0.631   6.562   5.833
 3601TIP3   OH210766   2.860   2.612   3.453
 3601TIP3    H110767   2.847   2.650   3.366
 3601TIP3    H210768   2.913   2.534   3.437
 3602TIP3   OH210769   5.282   4.878   2.287
 3602TIP3    H110770   5.263   4.911   2.199
 3602TIP3    H210771   5.197   4.878   2.332
 3603TIP3   OH210772   4.468   4.939   3.769
 3603TIP3    H110773   4.375   4.924   3.757
 3603TIP3    H210774   4.510   4.884   3.702
 3604TIP3   OH210775   2.876   1.626   2.857
 3604TIP3    H110776   2.799   1.585   2.817
 3604TIP3    H210777   2.950   1.583   2.814
 3605TIP3   OH210778   6.866   5.859   4.376
 3605TIP3    H110779   6.889   5.777   4.334
 3605TIP3    H210780   6.914   5.858   4.459
 3606TIP3   OH210781   3.375   1.929   5.726
 3606TIP3    H110782   3.406   1.996   5.785
 3606TIP3    H210783   3.401   1.959   5.639
 3607TIP3   OH210784   3.259   5.753   4.092
 3607TIP3    H110785   3.168   5.733   4.114
 3607TIP3    H210786   3.287   5.679   4.039
 3608TIP3   OH210787   5.634   6.211   1.414
 3608TIP3    H110788   5.563   6.208   1.350
 3608TIP3    H210789   5.605   6.154   1.485
 3609TIP3   OH210790   4.114   2.352   2.314
 3609TIP3    H110791   4.159   2.297   2.379
 3609TIP3    H210792   4.029   2.370   2.353
 3610TIP3   OH210793   5.661   2.552   4.141
 3610TIP3    H110794   5.630   2.592   4.059
 3610TIP3    H210795   5.600   2.584   4.208
 3611TIP3   OH210796   0.566   5.319   1.908
 3611TIP3    H110797   0.545   5.315   2.001
 3611TIP3    H210798   0.621   5.243   1.891
 3612TIP3   OH210799   5.184   2.907   3.637
 3612TIP3    H110800   5.101   2.949   3.612
 3612TIP3    H210801   5.246   2.935   3.570
 3613TIP3   OH210802   1.613   0.336   4.135
 3613TIP3    H110803   1.533   0.353   4.085
 3613TIP3    H210804   1.588   0.349   4.226
 3614TIP3   OH210805   2.466   1.496   3.502
 3614TIP3    H110806   2.395   1.458   3.554
 3614TIP3    H210807   2.511   1.420   3.464
 3615TIP3   OH210808   0.277   4.573   1.893
 3615TIP3    H110809   0.354   4.572   1.950
 3615TIP3    H210810   0.283   4.656   1.847
 3616TIP3   OH210811   6.549   2.898   1.075
 3616TIP3    H110812   6.503   2.980   1.095
 3616TIP3    H210813   6.573   2.863   1.161
 3617TIP3   OH210814   5.424   1.469   3.689
 3617TIP3    H110815   5.481   1.392   3.688
 3617TIP3    H210816   5.405   1.484   3.782
 3618TIP3   OH210817   2.413   3.123   2.112
 3618TIP3    H110818   2.431   3.049   2.171
 3618TIP3    H210819   2.363   3.184   2.166
 3619TIP3   OH210820   6.107   2.997   3.620
 3619TIP3    H110821   6.032   3.051   3.596
 3619TIP3    H210822   6.144   3.040   3.697
 3620TIP3   OH210823   2.339   5.423   3.633
 3620TIP3    H110824   2.402   5.411   3.562
 3620TIP3    H210825   2.295   5.339   3.640
 3621TIP3   OH210826   4.760   1.420   1.223
 3621TIP3    H110827   4.729   1.423   1.314
 3621TIP3    H210828   4.799   1.333   1.214
 3622TIP3   OH210829   4.976   5.367   3.610
 3622TIP3    H110830   4.986   5.276   3.580
 3622TIP3    H210831   4.948   5.359   3.701
 3623TIP3   OH210832   4.322   3.719   1.168
 3623TIP3    H110833   4.413   3.719   1.138
 3623TIP3    H210834   4.298   3.626   1.170
 3624TIP3   OH210835   4.358   1.597   3.460
 3624TIP3    H110836   4.389   1.511   3.432
 3624TIP3    H210837   4.428   1.631   3.516
 3625TIP3   OH210838   6.576   1.612   3.863
 3625TIP3    H110839   6.603   1.693   3.819
 3625TIP3    H210840   6.484   1.601   3.841
 3626TIP3   OH210841   2.035   0.687   5.609
 3626TIP3    H110842   2.010   0.774   5.640
 3626TIP3    H210843   2.008   0.686   5.517
 3627TIP3   OH210844   5.506   5.139   0.432
 3627TIP3    H110845   5.493   5.168   0.342
 3627TIP3    H210846   5.460   5.055   0.438
 3628TIP3   OH210847   3.283   0.141   0.828
 3628TIP3    H110848   3.334   0.183   0.758
 3628TIP3    H210849   3.264   0.054   0.794
 3629TIP3   OH210850   2.148   6.582   5.429
 3629TIP3    H110851   2.218   6.547   5.374
 3629TIP3    H210852   2.133   6.670   5.396
 3630TIP3   OH210853   0.062   6.194   4.624
 3630TIP3    H110854   0.079   6.142   4.702
 3630TIP3    H210855  -0.032   6.188   4.611
 3631TIP3   OH210856   4.504   4.743   3.569
 3631TIP3    H110857   4.437   4.674   3.576
 3631TIP3    H210858   4.586   4.699   3.593
 3632TIP3   OH210859   6.341   5.244   3.049
 3632TIP3    H110860   6.434   5.234   3.069
 3632TIP3    H210861   6.320   5.334   3.076
 3633TIP3   OH210862   4.806   4.286   5.785
 3633TIP3    H110863   4.876   4.350   5.801
 3633TIP3    H210864   4.769   4.311   5.701
 3634TIP3   OH210865   2.665   4.387   1.252
 3634TIP3    H110866   2.619   4.384   1.336
 3634TIP3    H210867   2.599   4.359   1.188
 3635TIP3   OH210868   3.036   0.639   4.238
 3635TIP3    H110869   3.106   0.637   4.173
 3635TIP3    H210870   2.957   0.662   4.188
 3636TIP3   OH210871   5.508   3.731   2.143
 3636TIP3    H110872   5.504   3.663   2.077
 3636TIP3    H210873   5.462   3.805   2.104
 3637TIP3   OH210874   5.795   0.769   0.526
 3637TIP3    H110875   5.811   0.863   0.519
 3637TIP3    H210876   5.878   0.732   0.557
 3638TIP3   OH210877   0.979   6.543   1.589
 3638TIP3    H110878   0.917   6.485   1.546
 3638TIP3    H210879   0.958   6.536   1.682
 3639TIP3   OH210880   1.218   1.364   0.089
 3639TIP3    H110881   1.191   1.295   0.028
 3639TIP3    H210882   1.310   1.378   0.071
 3640TIP3   OH210883   1.403   2.509   1.255
 3640TIP3    H110884   1.344   2.434   1.260
 3640TIP3    H210885   1.460   2.491   1.180
 3641TIP3   OH210886   2.701   4.098   0.725
 3641TIP3    H110887   2.704   4.070   0.817
 3641TIP3    H210888   2.689   4.018   0.675
 3642TIP3   OH210889   5.187   0.165   5.727
 3642TIP3    H110890   5.145   0.088   5.688
 3642TIP3    H210891   5.270   0.132   5.761
 3643TIP3   OH210892   4.300   2.350   3.240
 3643TIP3    H110893   4.351   2.346   3.160
 3643TIP3    H210894   4.359   2.318   3.308
 3644TIP3   OH210895   2.479   3.663   5.076
 3644TIP3    H110896   2.418   3.690   5.144
 3644TIP3    H210897   2.564   3.658   5.121
 3645TIP3   OH210898   0.083   5.488   1.307
 3645TIP3    H110899   0.096   5.573   1.264
 3645TIP3    H210900   0.165   5.441   1.293
 3646TIP3   OH210901   0.274   3.957   2.013
 3646TIP3    H110902   0.185   3.922   2.007
 3646TIP3    H210903   0.306   3.928   2.098
 3647TIP3   OH210904   3.824   1.621   0.534
 3647TIP3    H110905   3.887   1.688   0.508
 3647TIP3    H210906   3.786   1.590   0.452
 3648TIP3   OH210907   3.833   5.464   2.165
 3648TIP3    H110908   3.857   5.493   2.077
 3648TIP3    H210909   3.825   5.545   2.216
 3649TIP3   OH210910   2.237   4.596   2.447
 3649TIP3    H110911   2.308   4.534   2.468
 3649TIP3    H210912   2.248   4.667   2.510
 3650TIP3   OH210913   4.849   1.218   4.869
 3650TIP3    H110914   4.848   1.150   4.802
 3650TIP3    H210915   4.761   1.256   4.866
 3651TIP3   OH210916   0.734   1.355   0.026
 3651TIP3    H110917   0.812   1.310   0.060
 3651TIP3    H210918   0.757   1.380  -0.063
 3652TIP3   OH210919   0.343   0.696   4.363
 3652TIP3    H110920   0.290   0.653   4.296
 3652TIP3    H210921   0.318   0.652   4.444
 3653TIP3   OH210922   1.237   4.063   5.391
 3653TIP3    H110923   1.159   4.020   5.428
 3653TIP3    H210924   1.215   4.156   5.393
 3654TIP3   OH210925   0.542   6.002   1.768
 3654TIP3    H110926   0.522   5.943   1.696
 3654TIP3    H210927   0.457   6.038   1.793
 3655TIP3   OH210928   3.761   6.048   1.872
 3655TIP3    H110929   3.805   5.990   1.810
 3655TIP3    H210930   3.730   5.989   1.942
 3656TIP3   OH210931   2.458   1.435   4.063
 3656TIP3    H110932   2.504   1.463   4.142
 3656TIP3    H210933   2.450   1.515   4.010
 3657TIP3   OH210934   2.478   4.171   1.993
 3657TIP3    H110935   2.404   4.201   1.942
 3657TIP3    H210936   2.447   4.172   2.084
 3658TIP3   OH210937   4.951   1.855   1.494
 3658TIP3    H110938   4.878   1.916   1.485
 3658TIP3    H210939   4.973   1.831   1.404
 3659TIP3   OH210940   4.850   3.095   2.543
 3659TIP3    H110941   4.798   3.137   2.474
 3659TIP3    H210942   4.805   3.013   2.560
 3660TIP3   OH210943   5.375   0.261   4.057
 3660TIP3    H110944   5.348   0.169   4.064
 3660TIP3    H210945   5.445   0.260   3.992
 3661TIP3   OH210946   5.159   3.520   4.529
 3661TIP3    H110947   5.092   3.557   4.471
 3661TIP3    H210948   5.220   3.592   4.545
 3662TIP3   OH210949   3.940   6.227   0.102
 3662TIP3    H110950   4.011   6.275   0.059
 3662TIP3    H210951   3.893   6.293   0.152
 3663TIP3   OH210952   1.338   4.726   1.823
 3663TIP3    H110953   1.257   4.775   1.831
 3663TIP3    H210954   1.350   4.713   1.729
 3664TIP3   OH210955   3.992   5.324   4.319
 3664TIP3    H110956   4.084   5.307   4.337
 3664TIP3    H210957   3.946   5.286   4.395
 3665TIP3   OH210958   2.125   6.492   0.506
 3665TIP3    H110959   2.134   6.438   0.585
 3665TIP3    H210960   2.055   6.449   0.457
 3666TIP3   OH210961   2.978   5.256   4.568
 3666TIP3    H110962   2.949   5.286   4.481
 3666TIP3    H210963   2.993   5.162   4.557
 3667TIP3   OH210964   6.449   2.083   2.303
 3667TIP3    H110965   6.401   2.117   2.379
 3667TIP3    H210966   6.536   2.061   2.338
 3668TIP3   OH210967   1.253   2.443   5.507
 3668TIP3    H110968   1.321   2.380   5.531
 3668TIP3    H210969   1.181   2.389   5.473
 3669TIP3   OH210970   2.049   5.658   4.435
 3669TIP3    H110971   2.119   5.672   4.371
 3669TIP3    H210972   2.001   5.741   4.435
 3670TIP3   OH210973   1.304   0.800   4.419
 3670TIP3    H110974   1.326   0.732   4.483
 3670TIP3    H210975   1.386   0.845   4.403
 3671TIP3   OH210976   0.492   6.181   1.020
 3671TIP3    H110977   0.536   6.249   0.969
 3671TIP3    H210978   0.521   6.194   1.110
 3672TIP3   OH210979   0.312   1.158   3.746
 3672TIP3    H110980   0.390   1.141   3.693
 3672TIP3    H210981   0.308   1.084   3.806
 3673TIP3   OH210982   5.979   3.510   5.493
 3673TIP3    H110983   6.029   3.563   5.431
 3673TIP3    H210984   5.920   3.572   5.536
 3674TIP3   OH210985   0.629   1.299   1.760
 3674TIP3    H110986   0.690   1.254   1.702
 3674TIP3    H210987   0.582   1.228   1.805
 3675TIP3   OH210988   5.883   6.204   1.757
 3675TIP3    H110989   5.906   6.226   1.667
 3675TIP3    H210990   5.809   6.262   1.777
 3676TIP3   OH210991   2.644   5.943   2.195
 3676TIP3    H110992   2.710   5.893   2.244
 3676TIP3    H210993   2.670   5.931   2.103
 3677TIP3   OH210994   3.014   5.088   2.453
 3677TIP3    H110995   3.006   5.110   2.361
 3677TIP3    H210996   3.066   5.008   2.455
 3678TIP3   OH210997   4.118   6.609   2.543
 3678TIP3    H110998   4.128   6.610   2.447
 3678TIP3    H210999   4.039   6.556   2.558
 3679TIP3   OH211000   6.054   2.286   1.723
 3679TIP3    H111001   6.035   2.201   1.762
 3679TIP3    H211002   6.145   2.280   1.696
 3680TIP3   OH211003   0.556   2.593   1.422
 3680TIP3    H111004   0.471   2.629   1.398
 3680TIP3    H211005   0.536   2.510   1.465
 3681TIP3   OH211006   6.082   6.624   5.381
 3681TIP3    H111007   6.071   6.596   5.291
 3681TIP3    H211008   6.009   6.684   5.397
 3682TIP3   OH211009   1.364   0.177   5.280
 3682TIP3    H111010   1.299   0.235   5.319
 3682TIP3    H211011   1.387   0.116   5.351
 3683TIP3   OH211012   7.197   3.742   1.678
 3683TIP3    H111013   7.209   3.825   1.632
 3683TIP3    H211014   7.154   3.766   1.760
 3684TIP3   OH211015   2.327   6.468   4.310
 3684TIP3    H111016   2.302   6.421   4.230
 3684TIP3    H211017   2.258   6.532   4.323
 3685TIP3   OH211018   0.172   2.932   1.803
 3685TIP3    H111019   0.105   2.975   1.749
 3685TIP3    H211020   0.255   2.961   1.765
 3686TIP3   OH211021   6.616   5.210   3.157
 3686TIP3    H111022   6.710   5.194   3.162
 3686TIP3    H211023   6.605   5.265   3.079
 3687TIP3   OH211024   5.716   1.423   4.328
 3687TIP3    H111025   5.723   1.503   4.380
 3687TIP3    H211026   5.803   1.384   4.333
 3688TIP3   OH211027   1.428   4.123   2.243
 3688TIP3    H111028   1.444   4.066   2.318
 3688TIP3    H211029   1.351   4.085   2.200
 3689TIP3   OH211030   4.313   6.232   0.816
 3689TIP3    H111031   4.346   6.168   0.753
 3689TIP3    H211032   4.384   6.295   0.825
 3690TIP3   OH211033   5.480   3.335   0.493
 3690TIP3    H111034   5.410   3.270   0.491
 3690TIP3    H211035   5.455   3.399   0.426
 3691TIP3   OH211036   4.452   3.648   5.630
 3691TIP3    H111037   4.512   3.717   5.602
 3691TIP3    H211038   4.445   3.590   5.554
 3692TIP3   OH211039   1.454   1.894   5.363
 3692TIP3    H111040   1.415   1.882   5.276
 3692TIP3    H211041   1.384   1.933   5.415
 3693TIP3   OH211042   6.419   2.625   4.814
 3693TIP3    H111043   6.348   2.562   4.802
 3693TIP3    H211044   6.376   2.710   4.818
 3694TIP3   OH211045   1.026   5.566   5.607
 3694TIP3    H111046   1.011   5.595   5.697
 3694TIP3    H211047   1.037   5.471   5.614
 3695TIP3   OH211048   3.203   1.697   3.994
 3695TIP3    H111049   3.134   1.658   4.046
 3695TIP3    H211050   3.269   1.725   4.058
 3696TIP3   OH211051   3.033   1.228   2.633
 3696TIP3    H111052   2.957   1.196   2.585
 3696TIP3    H211053   3.108   1.197   2.581
 3697TIP3   OH211054   1.744   5.088   0.928
 3697TIP3    H111055   1.710   4.998   0.936
 3697TIP3    H211056   1.800   5.099   1.005
 3698TIP3   OH211057   6.240   3.910   4.729
 3698TIP3    H111058   6.223   3.816   4.726
 3698TIP3    H211059   6.294   3.922   4.807
 3699TIP3   OH211060   5.365   5.616   5.173
 3699TIP3    H111061   5.381   5.566   5.253
 3699TIP3    H211062   5.451   5.625   5.132
 3700TIP3   OH211063   7.036   5.441   1.175
 3700TIP3    H111064   7.051   5.513   1.113
 3700TIP3    H211065   7.119   5.432   1.221
 3701TIP3   OH211066   2.049   0.324   1.617
 3701TIP3    H111067   2.034   0.313   1.711
 3701TIP3    H211068   2.137   0.291   1.603
 3702TIP3   OH211069   0.480   6.519   1.360
 3702TIP3    H111070   0.491   6.498   1.453
 3702TIP3    H211071   0.387   6.539   1.351
 3703TIP3   OH211072   5.974   3.062   0.171
 3703TIP3    H111073   5.953   3.144   0.215
 3703TIP3    H211074   5.943   2.994   0.232
 3704TIP3   OH211075   2.004   1.123   3.079
 3704TIP3    H111076   1.918   1.095   3.049
 3704TIP3    H211077   2.066   1.072   3.027
 3705TIP3   OH211078   2.962   5.397   3.781
 3705TIP3    H111079   2.918   5.476   3.751
 3705TIP3    H211080   2.993   5.354   3.702
 3706TIP3   OH211081   2.063   3.849   1.432
 3706TIP3    H111082   2.147   3.864   1.389
 3706TIP3    H211083   2.062   3.909   1.506
 3707TIP3   OH211084   3.115   2.818   2.946
 3707TIP3    H111085   3.085   2.861   3.027
 3707TIP3    H211086   3.161   2.740   2.976
 3708TIP3   OH211087   7.078   0.635   5.480
 3708TIP3    H111088   7.171   0.653   5.485
 3708TIP3    H211089   7.070   0.570   5.410
 3709TIP3   OH211090   4.866   0.913   1.034
 3709TIP3    H111091   4.774   0.897   1.015
 3709TIP3    H211092   4.911   0.901   0.950
 3710TIP3   OH211093   4.800   6.596   5.832
 3710TIP3    H111094   4.811   6.622   5.923
 3710TIP3    H211095   4.706   6.586   5.820
 3711TIP3   OH211096   0.492   0.627   4.884
 3711TIP3    H111097   0.489   0.709   4.934
 3711TIP3    H211098   0.455   0.561   4.943
 3712TIP3   OH211099   3.649   5.764   4.643
 3712TIP3    H111100   3.658   5.829   4.574
 3712TIP3    H211101   3.597   5.694   4.603
 3713TIP3   OH211102   6.112   4.461   2.589
 3713TIP3    H111103   6.118   4.534   2.651
 3713TIP3    H211104   6.063   4.394   2.637
 3714TIP3   OH211105   3.507   2.194   3.296
 3714TIP3    H111106   3.477   2.255   3.364
 3714TIP3    H211107   3.513   2.109   3.340
 3715TIP3   OH211108   4.710   2.331   1.576
 3715TIP3    H111109   4.732   2.409   1.526
 3715TIP3    H211110   4.635   2.357   1.630
 3716TIP3   OH211111   3.833   3.095   1.796
 3716TIP3    H111112   3.773   3.036   1.750
 3716TIP3    H211113   3.850   3.051   1.879
 3717TIP3   OH211114   2.256   1.807   4.354
 3717TIP3    H111115   2.268   1.713   4.337
 3717TIP3    H211116   2.165   1.824   4.332
 3718TIP3   OH211117   3.009   1.782   3.483
 3718TIP3    H111118   3.050   1.711   3.532
 3718TIP3    H211119   2.994   1.746   3.396
 3719TIP3   OH211120   4.877   3.285   4.595
 3719TIP3    H111121   4.961   3.262   4.555
 3719TIP3    H211122   4.861   3.216   4.660
 3720TIP3   OH211123   1.223   2.853   4.849
 3720TIP3    H111124   1.297   2.914   4.841
 3720TIP3    H211125   1.146   2.908   4.831
 3721TIP3   OH211126   6.560   1.555   3.257
 3721TIP3    H111127   6.579   1.580   3.167
 3721TIP3    H211128   6.496   1.619   3.287
 3722TIP3   OH211129   3.279   0.549   2.155
 3722TIP3    H111130   3.321   0.589   2.231
 3722TIP3    H211131   3.297   0.455   2.164
 3723TIP3   OH211132   0.504   1.783   1.633
 3723TIP3    H111133   0.550   1.713   1.678
 3723TIP3    H211134   0.418   1.786   1.675
 3724TIP3   OH211135   5.343   6.597   3.992
 3724TIP3    H111136   5.357   6.510   3.955
 3724TIP3    H211137   5.428   6.622   4.028
 3725TIP3   OH211138   5.026   0.864   5.612
 3725TIP3    H111139   4.949   0.813   5.638
 3725TIP3    H211140   5.032   0.854   5.518
 3726TIP3   OH211141   0.795   3.341   2.594
 3726TIP3    H111142   0.728   3.349   2.526
 3726TIP3    H211143   0.826   3.250   2.586
 3727TIP3   OH211144   1.743   2.889   0.851
 3727TIP3    H111145   1.738   2.918   0.760
 3727TIP3    H211146   1.726   2.968   0.902
 3728TIP3   OH211147   4.785   3.589   4.672
 3728TIP3    H111148   4.830   3.517   4.629
 3728TIP3    H211149   4.693   3.563   4.672
 3729TIP3   OH211150   5.161   3.141   4.219
 3729TIP3    H111151   5.227   3.072   4.229
 3729TIP3    H211152   5.138   3.140   4.127
 3730TIP3   OH211153   6.612   3.449   3.632
 3730TIP3    H111154   6.541   3.387   3.650
 3730TIP3    H211155   6.604   3.515   3.700
 3731TIP3   OH211156   4.476   5.351   0.813
 3731TIP3    H111157   4.516   5.334   0.898
 3731TIP3    H211158   4.407   5.415   0.831
 3732TIP3   OH211159   4.256   5.291   5.024
 3732TIP3    H111160   4.190   5.274   4.957
 3732TIP3    H211161   4.225   5.370   5.069
 3733TIP3   OH211162   3.562   4.037   4.495
 3733TIP3    H111163   3.651   4.052   4.524
 3733TIP3    H211164   3.510   4.101   4.544
 3734TIP3   OH211165   7.120   3.297   0.202
 3734TIP3    H111166   7.154   3.332   0.120
 3734TIP3    H211167   7.110   3.374   0.259
 3735TIP3   OH211168   3.409   2.501   1.281
 3735TIP3    H111169   3.447   2.558   1.215
 3735TIP3    H211170   3.460   2.421   1.277
 3736TIP3   OH211171   1.667   5.691   4.949
 3736TIP3    H111172   1.721   5.709   5.026
 3736TIP3    H211173   1.648   5.597   4.954
 3737TIP3   OH211174   2.764   0.575   4.737
 3737TIP3    H111175   2.682   0.549   4.779
 3737TIP3    H211176   2.806   0.493   4.712
 3738TIP3   OH211177   2.322   1.848   4.932
 3738TIP3    H111178   2.410   1.825   4.901
 3738TIP3    H211179   2.337   1.900   5.011
 3739TIP3   OH211180   7.187   3.910   5.786
 3739TIP3    H111181   7.140   3.993   5.781
 3739TIP3    H211182   7.266   3.930   5.836
 3740TIP3   OH211183   6.518   4.529   0.619
 3740TIP3    H111184   6.485   4.548   0.531
 3740TIP3    H211185   6.612   4.544   0.613
 3741TIP3   OH211186   0.755   5.373   0.238
 3741TIP3    H111187   0.685   5.437   0.227
 3741TIP3    H211188   0.714   5.289   0.216
 3742TIP3   OH211189   4.013   5.286   3.242
 3742TIP3    H111190   3.930   5.316   3.278
 3742TIP3    H211191   4.067   5.266   3.318
 3743TIP3   OH211192   3.296   1.706   5.364
 3743TIP3    H111193   3.206   1.680   5.348
 3743TIP3    H211194   3.309   1.692   5.458
 3744TIP3   OH211195   4.255   5.599   0.715
 3744TIP3    H111196   4.333   5.645   0.684
 3744TIP3    H211197   4.231   5.646   0.795
 3745TIP3   OH211198   1.198   3.972   2.223
 3745TIP3    H111199   1.141   3.897   2.239
 3745TIP3    H211200   1.160   4.043   2.275
 3746TIP3   OH211201   2.958   6.359   3.640
 3746TIP3    H111202   2.900   6.368   3.717
 3746TIP3    H211203   3.037   6.407   3.665
 3747TIP3   OH211204   2.371   0.994   0.177
 3747TIP3    H111205   2.276   0.994   0.176
 3747TIP3    H211206   2.396   0.933   0.108
 3748TIP3   OH211207   6.642   5.521   4.604
 3748TIP3    H111208   6.592   5.497   4.526
 3748TIP3    H211209   6.638   5.616   4.608
 3749TIP3   OH211210   1.244   0.597   4.171
 3749TIP3    H111211   1.199   0.636   4.245
 3749TIP3    H211212   1.321   0.652   4.157
 3750TIP3   OH211213   4.757   2.029   1.774
 3750TIP3    H111214   4.702   2.052   1.850
 3750TIP3    H211215   4.741   1.936   1.760
 3751TIP3   OH211216   6.405  -0.018   0.018
 3751TIP3    H111217   6.406  -0.056   0.106
 3751TIP3    H211218   6.398   0.077   0.034
 3752TIP3   OH211219   0.696   1.899   1.033
 3752TIP3    H111220   0.676   1.989   1.006
 3752TIP3    H211221   0.769   1.909   1.095
 3753TIP3   OH211222   0.972   4.328   3.618
 3753TIP3    H111223   0.991   4.421   3.607
 3753TIP3    H211224   1.053   4.292   3.655
 3754TIP3   OH211225   4.982   5.296   5.030
 3754TIP3    H111226   4.896   5.336   5.038
 3754TIP3    H211227   4.967   5.203   5.043
 3755TIP3   OH211228   4.531   2.536   3.952
 3755TIP3    H111229   4.504   2.475   4.020
 3755TIP3    H211230   4.538   2.483   3.873
 3756TIP3   OH211231   1.404   6.551   5.530
 3756TIP3    H111232   1.487   6.556   5.482
 3756TIP3    H211233   1.401   6.461   5.563
 3757TIP3   OH211234   6.684   5.784   4.594
 3757TIP3    H111235   6.699   5.825   4.509
 3757TIP3    H211236   6.765   5.801   4.643
 3758TIP3   OH211237   1.635   4.645   4.983
 3758TIP3    H111238   1.676   4.731   4.990
 3758TIP3    H211239   1.553   4.661   4.935
 3759TIP3   OH211240   4.765   4.228   0.029
 3759TIP3    H111241   4.802   4.228   0.117
 3759TIP3    H211242   4.777   4.317  -0.003
 3760TIP3   OH211243   3.667   2.636   5.286
 3760TIP3    H111244   3.630   2.550   5.304
 3760TIP3    H211245   3.731   2.620   5.217
 3761TIP3   OH211246   1.926   5.608   0.969
 3761TIP3    H111247   1.919   5.670   0.896
 3761TIP3    H211248   1.851   5.550   0.958
 3762TIP3   OH211249   1.443   3.185   2.720
 3762TIP3    H111250   1.534   3.204   2.698
 3762TIP3    H211251   1.426   3.101   2.677
 3763TIP3   OH211252   2.943   3.488   4.062
 3763TIP3    H111253   2.954   3.420   4.129
 3763TIP3    H211254   2.887   3.447   3.996
 3764TIP3   OH211255   1.424   4.236   0.695
 3764TIP3    H111256   1.472   4.155   0.715
 3764TIP3    H211257   1.369   4.213   0.620
 3765TIP3   OH211258   4.922   0.271   1.101
 3765TIP3    H111259   4.916   0.233   1.014
 3765TIP3    H211260   4.845   0.327   1.109
 3766TIP3   OH211261   4.680   1.328   2.094
 3766TIP3    H111262   4.707   1.266   2.162
 3766TIP3    H211263   4.694   1.414   2.134
 3767TIP3   OH211264   6.663   0.707   3.711
 3767TIP3    H111265   6.704   0.792   3.696
 3767TIP3    H211266   6.569   0.725   3.708
 3768TIP3   OH211267   1.807   4.756   2.233
 3768TIP3    H111268   1.757   4.678   2.257
 3768TIP3    H211269   1.772   4.825   2.289
 3769TIP3   OH211270   2.209   2.558   3.346
 3769TIP3    H111271   2.200   2.594   3.258
 3769TIP3    H211272   2.137   2.596   3.396
 3770TIP3   OH211273   3.127   0.328   3.896
 3770TIP3    H111274   3.197   0.274   3.861
 3770TIP3    H211275   3.119   0.301   3.987
 3771TIP3   OH211276   2.979   1.644   1.352
 3771TIP3    H111277   3.061   1.604   1.382
 3771TIP3    H211278   2.912   1.578   1.368
 3772TIP3   OH211279   1.099   1.480   5.637
 3772TIP3    H111280   1.142   1.564   5.625
 3772TIP3    H211281   1.162   1.428   5.688
 3773TIP3   OH211282   2.626   3.870   1.546
 3773TIP3    H111283   2.551   3.925   1.569
 3773TIP3    H211284   2.610   3.787   1.591
 3774TIP3   OH211285   3.394   4.651   1.023
 3774TIP3    H111286   3.437   4.723   1.071
 3774TIP3    H211287   3.352   4.599   1.092
 3775TIP3   OH211288   5.903   0.342   0.554
 3775TIP3    H111289   5.912   0.260   0.505
 3775TIP3    H211290   5.814   0.338   0.590
 3776TIP3   OH211291   1.269   4.427   0.315
 3776TIP3    H111292   1.280   4.431   0.220
 3776TIP3    H211293   1.304   4.510   0.348
 3777TIP3   OH211294   3.506   3.572   1.095
 3777TIP3    H111295   3.520   3.610   1.008
 3777TIP3    H211296   3.427   3.519   1.085
 3778TIP3   OH211297   4.942   3.406   4.042
 3778TIP3    H111298   5.028   3.392   4.002
 3778TIP3    H211299   4.894   3.459   3.978
 3779TIP3   OH211300   5.370   5.615   1.397
 3779TIP3    H111301   5.334   5.631   1.484
 3779TIP3    H211302   5.335   5.530   1.372
 3780TIP3   OH211303   5.339   0.942   5.117
 3780TIP3    H111304   5.354   0.981   5.204
 3780TIP3    H211305   5.273   0.998   5.077
 3781TIP3   OH211306   0.556   2.435   3.687
 3781TIP3    H111307   0.488   2.474   3.742
 3781TIP3    H211308   0.625   2.409   3.748
 3782TIP3   OH211309   2.447   6.547   5.485
 3782TIP3    H111310   2.497   6.595   5.551
 3782TIP3    H211311   2.452   6.456   5.513
 3783TIP3   OH211312   2.242   3.541   1.004
 3783TIP3    H111313   2.182   3.580   1.068
 3783TIP3    H211314   2.189   3.533   0.924
 3784TIP3   OH211315   2.121   6.009   2.772
 3784TIP3    H111316   2.096   6.049   2.689
 3784TIP3    H211317   2.127   5.915   2.752
 3785TIP3   OH211318   6.910   4.734   3.564
 3785TIP3    H111319   6.881   4.770   3.648
 3785TIP3    H211320   7.000   4.766   3.554
 3786TIP3   OH211321   1.221   0.068   5.774
 3786TIP3    H111322   1.192  -0.023   5.762
 3786TIP3    H211323   1.308   0.060   5.812
 3787TIP3   OH211324   2.777   3.331  -0.030
 3787TIP3    H111325   2.760   3.324   0.064
 3787TIP3    H211326   2.704   3.285  -0.071
 3788TIP3   OH211327   0.212   2.142   0.189
 3788TIP3    H111328   0.180   2.059   0.154
 3788TIP3    H211329   0.178   2.208   0.129
 3789TIP3   OH211330   0.888   1.216   4.628
 3789TIP3    H111331   0.971   1.246   4.664
 3789TIP3    H211332   0.834   1.197   4.704
 3790TIP3   OH211333   6.830   5.080   3.880
 3790TIP3    H111334   6.846   5.173   3.868
 3790TIP3    H211335   6.745   5.065   3.840
 3791TIP3   OH211336   3.028   6.440   2.744
 3791TIP3    H111337   2.937   6.460   2.720
 3791TIP3    H211338   3.035   6.345   2.733
 3792TIP3   OH211339   3.735   1.710   2.986
 3792TIP3    H111340   3.684   1.732   3.065
 3792TIP3    H211341   3.796   1.643   3.015
 3793TIP3   OH211342   3.272   5.740   5.782
 3793TIP3    H111343   3.313   5.691   5.853
 3793TIP3    H211344   3.219   5.675   5.736
 3794TIP3   OH211345   5.241   1.589   1.113
 3794TIP3    H111346   5.231   1.494   1.105
 3794TIP3    H211347   5.310   1.612   1.052
 3795TIP3   OH211348   2.823   5.351   4.754
 3795TIP3    H111349   2.884   5.328   4.684
 3795TIP3    H211350   2.787   5.268   4.784
 3796TIP3   OH211351   3.218   1.466   3.860
 3796TIP3    H111352   3.219   1.552   3.901
 3796TIP3    H211353   3.279   1.413   3.912
 3797TIP3   OH211354   0.555   3.786   3.655
 3797TIP3    H111355   0.487   3.728   3.689
 3797TIP3    H211356   0.547   3.866   3.708
 3798TIP3   OH211357   6.761   2.134   3.504
 3798TIP3    H111358   6.813   2.127   3.424
 3798TIP3    H211359   6.789   2.217   3.543
 3799TIP3   OH211360   2.788   2.434   2.715
 3799TIP3    H111361   2.726   2.503   2.740
 3799TIP3    H211362   2.765   2.360   2.771
 3800TIP3   OH211363   0.715   6.048   1.455
 3800TIP3    H111364   0.678   5.972   1.499
 3800TIP3    H211365   0.732   6.019   1.366
 3801TIP3   OH211366   6.326   4.772   1.952
 3801TIP3    H111367   6.370   4.695   1.989
 3801TIP3    H211368   6.340   4.841   2.017
 3802TIP3   OH211369   5.699   5.861   4.585
 3802TIP3    H111370   5.761   5.795   4.554
 3802TIP3    H211371   5.635   5.812   4.637
 3803TIP3   OH211372   2.071   6.531   0.920
 3803TIP3    H111373   2.043   6.594   0.855
 3803TIP3    H211374   2.117   6.463   0.870
 3804TIP3   OH211375   5.223   2.920   5.293
 3804TIP3    H111376   5.196   2.928   5.202
 3804TIP3    H211377   5.146   2.948   5.343
 3805TIP3   OH211378   4.076   2.254   1.936
 3805TIP3    H111379   4.030   2.332   1.905
 3805TIP3    H211380   4.089   2.201   1.858
 3806TIP3   OH211381   6.592   2.528   3.341
 3806TIP3    H111382   6.567   2.481   3.262
 3806TIP3    H211383   6.632   2.609   3.309
 3807TIP3   OH211384   1.668   1.712   1.623
 3807TIP3    H111385   1.677   1.807   1.613
 3807TIP3    H211386   1.589   1.690   1.574
 3808TIP3   OH211387   5.804   1.263   1.547
 3808TIP3    H111388   5.714   1.292   1.557
 3808TIP3    H211389   5.854   1.343   1.531
 3809TIP3   OH211390   5.703   6.459   0.032
 3809TIP3    H111391   5.610   6.472   0.050
 3809TIP3    H211392   5.724   6.377   0.078
 3810TIP3   OH211393   2.881   6.013   4.202
 3810TIP3    H111394   2.854   6.085   4.259
 3810TIP3    H211395   2.975   6.026   4.190
 3811TIP3   OH211396   1.491   5.429   4.177
 3811TIP3    H111397   1.500   5.449   4.270
 3811TIP3    H211398   1.568   5.469   4.136
 3812TIP3   OH211399   2.278   1.158   2.368
 3812TIP3    H111400   2.340   1.108   2.314
 3812TIP3    H211401   2.192   1.128   2.339
 3813TIP3   OH211402   0.100   5.033   4.036
 3813TIP3    H111403   0.105   4.945   3.998
 3813TIP3    H211404   0.168   5.082   3.990
 3814TIP3   OH211405   4.175   1.283   0.683
 3814TIP3    H111406   4.121   1.227   0.627
 3814TIP3    H211407   4.229   1.333   0.622
 3815TIP3   OH211408   6.134   1.171   4.047
 3815TIP3    H111409   6.228   1.171   4.060
 3815TIP3    H211410   6.122   1.173   3.952
 3816TIP3   OH211411   0.130   1.584   0.235
 3816TIP3    H111412   0.047   1.544   0.211
 3816TIP3    H211413   0.129   1.584   0.331
 3817TIP3   OH211414   5.348   3.589   4.133
 3817TIP3    H111415   5.284   3.519   4.143
 3817TIP3    H211416   5.300   3.661   4.092
 3818TIP3   OH211417   0.572   3.782   5.387
 3818TIP3    H111418   0.486   3.745   5.370
 3818TIP3    H211419   0.562   3.876   5.372
 3819TIP3   OH211420   1.550   5.624   0.140
 3819TIP3    H111421   1.582   5.660   0.223
 3819TIP3    H211422   1.600   5.543   0.128
 3820TIP3   OH211423   3.744   1.136   0.855
 3820TIP3    H111424   3.832   1.159   0.881
 3820TIP3    H211425   3.743   1.146   0.760
 3821TIP3   OH211426   1.129   6.135   3.271
 3821TIP3    H111427   1.154   6.057   3.221
 3821TIP3    H211428   1.192   6.138   3.343
 3822TIP3   OH211429   2.081   5.779   2.625
 3822TIP3    H111430   2.142   5.706   2.637
 3822TIP3    H211431   2.083   5.796   2.530
 3823TIP3   OH211432   2.625   3.088   1.929
 3823TIP3    H111433   2.546   3.035   1.938
 3823TIP3    H211434   2.680   3.061   2.003
 3824TIP3   OH211435   2.632   4.562   3.396
 3824TIP3    H111436   2.625   4.473   3.363
 3824TIP3    H211437   2.650   4.552   3.489
 3825TIP3   OH211438   4.905   1.778   4.768
 3825TIP3    H111439   4.928   1.764   4.860
 3825TIP3    H211440   4.815   1.745   4.761
 3826TIP3   OH211441   5.534   4.052   0.141
 3826TIP3    H111442   5.494   4.109   0.076
 3826TIP3    H211443   5.628   4.057   0.125
 3827TIP3   OH211444   0.046   5.754   1.959
 3827TIP3    H111445  -0.019   5.821   1.937
 3827TIP3    H211446   0.028   5.683   1.897
 3828TIP3   OH211447   1.213   5.778   5.529
 3828TIP3    H111448   1.162   5.713   5.577
 3828TIP3    H211449   1.274   5.726   5.477
 3829TIP3   OH211450   2.924   4.725   5.331
 3829TIP3    H111451   2.981   4.751   5.259
 3829TIP3    H211452   2.946   4.634   5.348
 3830TIP3   OH211453   7.125   1.722   5.084
 3830TIP3    H111454   7.105   1.725   5.178
 3830TIP3    H211455   7.162   1.808   5.065
 3831TIP3   OH211456   4.151   5.074   5.592
 3831TIP3    H111457   4.107   5.127   5.659
 3831TIP3    H211458   4.242   5.068   5.623
 3832TIP3   OH211459   0.887   3.213   4.956
 3832TIP3    H111460   0.852   3.300   4.940
 3832TIP3    H211461   0.959   3.227   5.018
 3833TIP3   OH211462   7.023   0.217   5.506
 3833TIP3    H111463   6.954   0.256   5.560
 3833TIP3    H211464   7.083   0.176   5.568
 3834TIP3   OH211465   6.868   5.264   0.313
 3834TIP3    H111466   6.773   5.273   0.300
 3834TIP3    H211467   6.881   5.171   0.329
 3835TIP3   OH211468   5.726   1.194   0.908
 3835TIP3    H111469   5.642   1.151   0.924
 3835TIP3    H211470   5.778   1.176   0.986
 3836TIP3   OH211471   4.066   3.568   4.985
 3836TIP3    H111472   4.059   3.484   4.940
 3836TIP3    H211473   4.141   3.611   4.945
 3837TIP3   OH211474   5.073   4.738   3.886
 3837TIP3    H111475   5.070   4.689   3.804
 3837TIP3    H211476   5.161   4.776   3.889
 3838TIP3   OH211477   5.431   3.239   2.561
 3838TIP3    H111478   5.515   3.257   2.519
 3838TIP3    H211479   5.423   3.143   2.558
 3839TIP3   OH211480   6.053   6.547   3.164
 3839TIP3    H111481   6.067   6.580   3.076
 3839TIP3    H211482   5.959   6.530   3.169
 3840TIP3   OH211483   6.990   0.260   2.287
 3840TIP3    H111484   6.992   0.166   2.267
 3840TIP3    H211485   6.901   0.287   2.267
 3841TIP3   OH211486   3.041   0.837   5.820
 3841TIP3    H111487   3.096   0.856   5.744
 3841TIP3    H211488   2.955   0.818   5.784
 3842TIP3   OH211489   4.671   0.389   1.009
 3842TIP3    H111490   4.635   0.315   0.961
 3842TIP3    H211491   4.617   0.463   0.983
 3843TIP3   OH211492   4.098   1.701   1.349
 3843TIP3    H111493   4.191   1.710   1.369
 3843TIP3    H211494   4.094   1.628   1.288
 3844TIP3   OH211495   6.880   5.891   3.707
 3844TIP3    H111496   6.877   5.986   3.700
 3844TIP3    H211497   6.914   5.861   3.623
 3845TIP3   OH211498   0.017   2.144   4.038
 3845TIP3    H111499   0.102   2.136   3.995
 3845TIP3    H211500   0.029   2.103   4.124
 3846TIP3   OH211501   5.467   0.968   3.503
 3846TIP3    H111502   5.449   0.983   3.596
 3846TIP3    H211503   5.433   1.047   3.460
 3847TIP3   OH211504   4.493   1.164   5.248
 3847TIP3    H111505   4.437   1.223   5.196
 3847TIP3    H211506   4.582   1.190   5.224
 3848TIP3   OH211507   4.397   3.834   2.948
 3848TIP3    H111508   4.484   3.872   2.938
 3848TIP3    H211509   4.398   3.756   2.894
 3849TIP3   OH211510   5.397   5.648   2.234
 3849TIP3    H111511   5.481   5.662   2.189
 3849TIP3    H211512   5.418   5.656   2.327
 3850TIP3   OH211513   6.015   0.081   3.312
 3850TIP3    H111514   6.094   0.028   3.308
 3850TIP3    H211515   6.045   0.168   3.340
 3851TIP3   OH211516   6.824   0.967   3.641
 3851TIP3    H111517   6.819   1.052   3.596
 3851TIP3    H211518   6.866   0.987   3.725
 3852TIP3   OH211519   0.397   6.788   2.558
 3852TIP3    H111520   0.472   6.729   2.552
 3852TIP3    H211521   0.368   6.799   2.468
 3853TIP3   OH211522   0.637   4.790   0.346
 3853TIP3    H111523   0.593   4.868   0.379
 3853TIP3    H211524   0.576   4.753   0.283
 3854TIP3   OH211525   6.813   2.686   0.872
 3854TIP3    H111526   6.801   2.779   0.851
 3854TIP3    H211527   6.816   2.642   0.787
 3855TIP3   OH211528   6.438   5.781   1.819
 3855TIP3    H111529   6.469   5.822   1.900
 3855TIP3    H211530   6.515   5.776   1.763
 3856TIP3   OH211531   1.117   6.612   1.364
 3856TIP3    H111532   1.069   6.589   1.443
 3856TIP3    H211533   1.178   6.540   1.351
 3857TIP3   OH211534   5.152   2.940   0.278
 3857TIP3    H111535   5.238   2.976   0.301
 3857TIP3    H211536   5.099   2.953   0.357
 3858TIP3   OH211537   1.393   3.219   2.135
 3858TIP3    H111538   1.472   3.231   2.081
 3858TIP3    H211539   1.421   3.162   2.206
 3859TIP3   OH211540   4.747   5.849   0.236
 3859TIP3    H111541   4.668   5.899   0.253
 3859TIP3    H211542   4.789   5.895   0.163
 3860TIP3   OH211543   5.658   5.667   2.697
 3860TIP3    H111544   5.670   5.762   2.700
 3860TIP3    H211545   5.746   5.631   2.700
 3861TIP3   OH211546   0.394   1.440   4.245
 3861TIP3    H111547   0.327   1.380   4.277
 3861TIP3    H211548   0.476   1.391   4.256
 3862TIP3   OH211549   0.611   4.348   4.612
 3862TIP3    H111550   0.688   4.402   4.592
 3862TIP3    H211551   0.626   4.319   4.702
 3863TIP3   OH211552   2.817   2.105   1.327
 3863TIP3    H111553   2.770   2.039   1.378
 3863TIP3    H211554   2.886   2.135   1.385
 3864TIP3   OH211555   0.875   6.514   0.075
 3864TIP3    H111556   0.792   6.560   0.088
 3864TIP3    H211557   0.850   6.422   0.069
 3865TIP3   OH211558   6.800   2.115   1.450
 3865TIP3    H111559   6.806   2.133   1.544
 3865TIP3    H211560   6.713   2.145   1.426
 3866TIP3   OH211561   6.334   3.567   3.776
 3866TIP3    H111562   6.413   3.586   3.827
 3866TIP3    H211563   6.273   3.637   3.800
 3867TIP3   OH211564   1.344   1.523   0.797
 3867TIP3    H111565   1.422   1.558   0.841
 3867TIP3    H211566   1.276   1.589   0.814
 3868TIP3   OH211567   4.757   3.586   3.948
 3868TIP3    H111568   4.806   3.614   3.871
 3868TIP3    H211569   4.691   3.654   3.961
 3869TIP3   OH211570   1.000   2.704   4.931
 3869TIP3    H111571   1.086   2.719   4.892
 3869TIP3    H211572   0.949   2.781   4.907
 3870TIP3   OH211573   1.596   5.424   1.860
 3870TIP3    H111574   1.612   5.518   1.866
 3870TIP3    H211575   1.659   5.385   1.921
 3871TIP3   OH211576   5.861   1.682   3.126
 3871TIP3    H111577   5.885   1.770   3.155
 3871TIP3    H211578   5.811   1.696   3.045
 3872TIP3   OH211579   6.211   0.503   0.898
 3872TIP3    H111580   6.303   0.498   0.873
 3872TIP3    H211581   6.170   0.428   0.854
 3873TIP3   OH211582   0.443   2.194   3.868
 3873TIP3    H111583   0.486   2.112   3.843
 3873TIP3    H211584   0.513   2.245   3.909
 3874TIP3   OH211585   1.178   2.370   3.348
 3874TIP3    H111586   1.187   2.294   3.407
 3874TIP3    H211587   1.239   2.435   3.384
 3875TIP3   OH211588   0.808   5.253   4.261
 3875TIP3    H111589   0.851   5.180   4.215
 3875TIP3    H211590   0.809   5.325   4.198
 3876TIP3   OH211591   2.387   0.029   4.176
 3876TIP3    H111592   2.415  -0.059   4.201
 3876TIP3    H211593   2.452   0.087   4.216
 3877TIP3   OH211594   2.367   5.133   2.025
 3877TIP3    H111595   2.408   5.070   1.966
 3877TIP3    H211596   2.283   5.154   1.983
 3878TIP3   OH211597   1.704   1.833   3.272
 3878TIP3    H111598   1.725   1.867   3.186
 3878TIP3    H211599   1.640   1.895   3.308
 3879TIP3   OH211600   6.010   1.180   0.491
 3879TIP3    H111601   5.971   1.173   0.404
 3879TIP3    H211602   6.078   1.247   0.482
 3880TIP3   OH211603   4.767   5.575   0.301
 3880TIP3    H111604   4.769   5.671   0.303
 3880TIP3    H211605   4.847   5.549   0.346
 3881TIP3   OH211606   1.257   2.378   3.087
 3881TIP3    H111607   1.226   2.390   3.177
 3881TIP3    H211608   1.206   2.304   3.054
 3882TIP3   OH211609   0.027   5.654   0.241
 3882TIP3    H111610   0.069   5.725   0.192
 3882TIP3    H211611   0.007   5.588   0.174
 3883TIP3   OH211612   6.501   5.079   2.631
 3883TIP3    H111613   6.565   5.048   2.694
 3883TIP3    H211614   6.548   5.082   2.547
 3884TIP3   OH211615   4.274   1.545   2.522
 3884TIP3    H111616   4.332   1.619   2.504
 3884TIP3    H211617   4.203   1.582   2.574
 3885TIP3   OH211618   1.706   0.967   2.321
 3885TIP3    H111619   1.730   0.979   2.413
 3885TIP3    H211620   1.619   1.006   2.314
 3886TIP3   OH211621   0.746   4.363   5.730
 3886TIP3    H111622   0.818   4.366   5.793
 3886TIP3    H211623   0.679   4.421   5.767
 3887TIP3   OH211624   2.599   4.178   2.734
 3887TIP3    H111625   2.646   4.159   2.653
 3887TIP3    H211626   2.565   4.093   2.762
 3888TIP3   OH211627   1.918   4.792   0.853
 3888TIP3    H111628   1.977   4.853   0.807
 3888TIP3    H211629   1.886   4.842   0.928
 3889TIP3   OH211630   4.705   6.535   3.564
 3889TIP3    H111631   4.679   6.535   3.656
 3889TIP3    H211632   4.760   6.457   3.556
 3890TIP3   OH211633   1.017   3.027   0.701
 3890TIP3    H111634   1.069   3.034   0.781
 3890TIP3    H211635   1.065   3.079   0.637
 3891TIP3   OH211636   5.314   0.979   5.445
 3891TIP3    H111637   5.228   0.991   5.405
 3891TIP3    H211638   5.328   0.884   5.444
 3892TIP3   OH211639   1.480   0.242   1.646
 3892TIP3    H111640   1.398   0.201   1.673
 3892TIP3    H211641   1.520   0.179   1.586
 3893TIP3   OH211642   2.586   0.263   3.531
 3893TIP3    H111643   2.641   0.321   3.585
 3893TIP3    H211644   2.644   0.233   3.462
 3894TIP3   OH211645   2.114   4.544   1.111
 3894TIP3    H111646   2.109   4.580   1.023
 3894TIP3    H211647   2.147   4.455   1.098
 3895TIP3   OH211648   4.660   0.405   3.621
 3895TIP3    H111649   4.679   0.386   3.530
 3895TIP3    H211650   4.666   0.500   3.628
 3896TIP3   OH211651   4.007   0.903   5.256
 3896TIP3    H111652   3.993   0.994   5.229
 3896TIP3    H211653   3.931   0.882   5.310
 3897TIP3   OH211654   5.875   1.540   0.608
 3897TIP3    H111655   5.879   1.511   0.700
 3897TIP3    H211656   5.785   1.523   0.582
 3898TIP3   OH211657   4.490   4.704   3.152
 3898TIP3    H111658   4.400   4.672   3.141
 3898TIP3    H211659   4.498   4.775   3.089
 3899TIP3   OH211660   0.906   2.898   4.248
 3899TIP3    H111661   0.912   2.906   4.152
 3899TIP3    H211662   0.945   2.979   4.281
 3900TIP3   OH211663   0.547   1.219   5.199
 3900TIP3    H111664   0.590   1.255   5.277
 3900TIP3    H211665   0.619   1.186   5.146
 3901TIP3   OH211666   0.223   1.339   1.496
 3901TIP3    H111667   0.312   1.313   1.474
 3901TIP3    H211668   0.219   1.333   1.592
 3902TIP3   OH211669   2.681   3.296   0.226
 3902TIP3    H111670   2.687   3.378   0.276
 3902TIP3    H211671   2.587   3.286   0.209
 3903TIP3   OH211672   6.940   5.823   4.685
 3903TIP3    H111673   7.003   5.751   4.677
 3903TIP3    H211674   6.967   5.869   4.764
 3904TIP3   OH211675   1.198   2.902   3.976
 3904TIP3    H111676   1.175   2.817   3.937
 3904TIP3    H211677   1.113   2.942   3.997
 3905TIP3   OH211678   0.271   6.557   4.769
 3905TIP3    H111679   0.276   6.552   4.673
 3905TIP3    H211680   0.293   6.468   4.798
 3906TIP3   OH211681   4.504   6.061   4.883
 3906TIP3    H111682   4.544   5.974   4.876
 3906TIP3    H211683   4.413   6.048   4.857
 3907TIP3   OH211684   0.329   2.360   4.508
 3907TIP3    H111685   0.377   2.371   4.590
 3907TIP3    H211686   0.395   2.371   4.440
 3908TIP3   OH211687   2.191   4.140   4.261
 3908TIP3    H111688   2.167   4.209   4.323
 3908TIP3    H211689   2.285   4.151   4.248
 3909TIP3   OH211690   3.364   5.481   1.170
 3909TIP3    H111691   3.390   5.447   1.084
 3909TIP3    H211692   3.320   5.564   1.149
 3910TIP3   OH211693   4.342   2.284   0.583
 3910TIP3    H111694   4.291   2.314   0.507
 3910TIP3    H211695   4.291   2.210   0.617
 3911TIP3   OH211696   7.195   3.727   5.280
 3911TIP3    H111697   7.260   3.783   5.238
 3911TIP3    H211698   7.124   3.721   5.216
 3912TIP3   OH211699   1.571   0.230   2.619
 3912TIP3    H111700   1.607   0.182   2.543
 3912TIP3    H211701   1.616   0.314   2.618
 3913TIP3   OH211702   0.806   5.282   1.478
 3913TIP3    H111703   0.796   5.353   1.541
 3913TIP3    H211704   0.744   5.215   1.507
 3914TIP3   OH211705   2.750   0.442   1.133
 3914TIP3    H111706   2.703   0.407   1.209
 3914TIP3    H211707   2.825   0.384   1.121
 3915TIP3   OH211708   1.384   0.662   0.159
 3915TIP3    H111709   1.461   0.615   0.126
 3915TIP3    H211710   1.406   0.755   0.145
 3916TIP3   OH211711   2.632   0.798   0.481
 3916TIP3    H111712   2.591   0.802   0.568
 3916TIP3    H211713   2.610   0.881   0.440
 3917TIP3   OH211714   6.560   6.667   2.831
 3917TIP3    H111715   6.570   6.645   2.923
 3917TIP3    H211716   6.467   6.690   2.822
 3918TIP3   OH211717   0.926   6.706   5.767
 3918TIP3    H111718   0.986   6.763   5.814
 3918TIP3    H211719   0.982   6.642   5.723
 3919TIP3   OH211720   4.506   0.620   2.764
 3919TIP3    H111721   4.513   0.668   2.846
 3919TIP3    H211722   4.412   0.607   2.751
 3920TIP3   OH211723   1.906   1.774   5.463
 3920TIP3    H111724   1.971   1.844   5.467
 3920TIP3    H211725   1.959   1.694   5.459
 3921TIP3   OH211726   2.882   3.700   1.150
 3921TIP3    H111727   2.939   3.760   1.198
 3921TIP3    H211728   2.794   3.737   1.161
 3922TIP3   OH211729   1.118   3.572   1.445
 3922TIP3    H111730   1.070   3.650   1.471
 3922TIP3    H211731   1.117   3.574   1.349
 3923TIP3   OH211732   2.989   1.998   0.350
 3923TIP3    H111733   3.076   2.023   0.318
 3923TIP3    H211734   2.974   1.911   0.312
 3924TIP3   OH211735   4.757   4.903   5.230
 3924TIP3    H111736   4.847   4.872   5.227
 3924TIP3    H211737   4.731   4.913   5.138
 3925TIP3   OH211738   0.524   4.980   1.189
 3925TIP3    H111739   0.604   4.943   1.228
 3925TIP3    H211740   0.551   5.009   1.102
 3926TIP3   OH211741   3.393   4.777   5.026
 3926TIP3    H111742   3.425   4.858   4.987
 3926TIP3    H211743   3.464   4.747   5.082
 3927TIP3   OH211744   3.658   4.665   0.836
 3927TIP3    H111745   3.610   4.619   0.768
 3927TIP3    H211746   3.595   4.725   0.875
 3928TIP3   OH211747   6.599   3.888   2.995
 3928TIP3    H111748   6.518   3.920   2.956
 3928TIP3    H211749   6.635   3.827   2.930
 3929TIP3   OH211750   4.340   3.187   2.479
 3929TIP3    H111751   4.273   3.238   2.524
 3929TIP3    H211752   4.334   3.214   2.388
 3930TIP3   OH211753   3.952   0.646   2.695
 3930TIP3    H111754   3.919   0.720   2.644
 3930TIP3    H211755   3.988   0.685   2.774
 3931TIP3   OH211756   3.556   6.391   1.920
 3931TIP3    H111757   3.490   6.370   1.986
 3931TIP3    H211758   3.638   6.395   1.970
 3932TIP3   OH211759   0.090   0.581   4.256
 3932TIP3    H111760   0.000   0.556   4.236
 3932TIP3    H211761   0.098   0.571   4.351
 3933TIP3   OH211762   4.129   6.732   3.009
 3933TIP3    H111763   4.157   6.735   3.101
 3933TIP3    H211764   4.153   6.644   2.980
 3934TIP3   OH211765   0.616   1.185   0.558
 3934TIP3    H111766   0.568   1.194   0.640
 3934TIP3    H211767   0.645   1.274   0.538
 3935TIP3   OH211768   0.214   0.106   0.618
 3935TIP3    H111769   0.132   0.058   0.623
 3935TIP3    H211770   0.187   0.198   0.609
 3936TIP3   OH211771   4.175   4.684   4.729
 3936TIP3    H111772   4.168   4.747   4.657
 3936TIP3    H211773   4.089   4.687   4.773
 3937TIP3   OH211774   6.768   4.650   4.744
 3937TIP3    H111775   6.846   4.607   4.709
 3937TIP3    H211776   6.799   4.698   4.821
 3938TIP3   OH211777   3.946   2.501   4.338
 3938TIP3    H111778   3.940   2.411   4.307
 3938TIP3    H211779   3.961   2.553   4.258
 3939TIP3   OH211780   7.035   6.604   3.059
 3939TIP3    H111781   7.082   6.628   2.979
 3939TIP3    H211782   7.103   6.567   3.116
 3940TIP3   OH211783   3.282   3.888   3.929
 3940TIP3    H111784   3.321   3.801   3.943
 3940TIP3    H211785   3.357   3.947   3.924
 3941TIP3   OH211786   6.700   5.991   0.653
 3941TIP3    H111787   6.743   6.004   0.738
 3941TIP3    H211788   6.697   5.896   0.643
 3942TIP3   OH211789   4.393   6.624   2.486
 3942TIP3    H111790   4.302   6.625   2.515
 3942TIP3    H211791   4.443   6.651   2.563
 3943TIP3   OH211792   4.792   2.698   5.015
 3943TIP3    H111793   4.871   2.675   5.064
 3943TIP3    H211794   4.769   2.618   4.968
 3944TIP3   OH211795   4.213   4.373   4.926
 3944TIP3    H111796   4.241   4.282   4.924
 3944TIP3    H211797   4.244   4.410   4.843
 3945TIP3   OH211798   0.183   5.204   0.121
 3945TIP3    H111799   0.105   5.243   0.160
 3945TIP3    H211800   0.162   5.195   0.028
 3946TIP3   OH211801   5.842   1.853   4.009
 3946TIP3    H111802   5.900   1.874   4.082
 3946TIP3    H211803   5.759   1.894   4.032
 3947TIP3   OH211804   5.545   4.149   2.961
 3947TIP3    H111805   5.537   4.173   2.869
 3947TIP3    H211806   5.629   4.102   2.967
 3948TIP3   OH211807   2.261   2.324   3.481
 3948TIP3    H111808   2.303   2.349   3.563
 3948TIP3    H211809   2.240   2.407   3.438
 3949TIP3   OH211810   2.082   0.700   1.000
 3949TIP3    H111811   2.032   0.672   0.923
 3949TIP3    H211812   2.151   0.634   1.009
 3950TIP3   OH211813   6.974   6.355   2.486
 3950TIP3    H111814   6.963   6.380   2.578
 3950TIP3    H211815   7.066   6.330   2.478
 3951TIP3   OH211816   3.616   1.911   0.012
 3951TIP3    H111817   3.586   1.955  -0.068
 3951TIP3    H211818   3.706   1.942   0.025
 3952TIP3   OH211819   3.491   5.080   3.621
 3952TIP3    H111820   3.492   5.105   3.714
 3952TIP3    H211821   3.460   5.158   3.576
 3953TIP3   OH211822   6.298   1.383   1.618
 3953TIP3    H111823   6.342   1.413   1.698
 3953TIP3    H211824   6.356   1.410   1.547
 3954TIP3   OH211825   6.188   4.507   3.170
 3954TIP3    H111826   6.122   4.449   3.133
 3954TIP3    H211827   6.159   4.521   3.261
 3955TIP3   OH211828   4.858   2.654   0.339
 3955TIP3    H111829   4.943   2.610   0.338
 3955TIP3    H211830   4.865   2.722   0.272
 3956TIP3   OH211831   3.414   5.064   1.234
 3956TIP3    H111832   3.339   5.119   1.210
 3956TIP3    H211833   3.484   5.126   1.254
 3957TIP3   OH211834   0.482   2.588   3.244
 3957TIP3    H111835   0.406   2.578   3.187
 3957TIP3    H211836   0.554   2.611   3.186
 3958TIP3   OH211837   1.478   2.243   2.588
 3958TIP3    H111838   1.485   2.148   2.597
 3958TIP3    H211839   1.409   2.268   2.651
 3959TIP3   OH211840   5.654   2.066   2.272
 3959TIP3    H111841   5.748   2.079   2.284
 3959TIP3    H211842   5.630   2.133   2.208
 3960TIP3   OH211843   6.715   3.754   0.383
 3960TIP3    H111844   6.738   3.805   0.461
 3960TIP3    H211845   6.720   3.816   0.311
 3961TIP3   OH211846   7.159   4.076   2.109
 3961TIP3    H111847   7.132   4.026   2.186
 3961TIP3    H211848   7.178   4.164   2.143
 3962TIP3   OH211849   7.037   4.955   2.969
 3962TIP3    H111850   7.019   4.864   2.991
 3962TIP3    H211851   7.110   4.980   3.025
 3963TIP3   OH211852   0.013   1.155   0.219
 3963TIP3    H111853  -0.071   1.187   0.253
 3963TIP3    H211854   0.079   1.205   0.267
 3964TIP3   OH211855   3.010   1.525   5.118
 3964TIP3    H111856   2.921   1.548   5.094
 3964TIP3    H211857   3.059   1.607   5.111
 3965TIP3   OH211858   5.010   6.050   3.355
 3965TIP3    H111859   4.929   6.090   3.386
 3965TIP3    H211860   5.079   6.090   3.409
 3966TIP3   OH211861   3.774   0.406   0.110
 3966TIP3    H111862   3.787   0.436   0.020
 3966TIP3    H211863   3.742   0.483   0.156
 3967TIP3   OH211864   4.136   0.047   2.407
 3967TIP3    H111865   4.202   0.041   2.338
 3967TIP3    H211866   4.053   0.049   2.360
 3968TIP3   OH211867   5.377   4.664   5.408
 3968TIP3    H111868   5.410   4.729   5.470
 3968TIP3    H211869   5.378   4.709   5.323
 3969TIP3   OH211870   1.938   1.209   1.123
 3969TIP3    H111871   1.905   1.139   1.178
 3969TIP3    H211872   2.025   1.180   1.096
 3970TIP3   OH211873   6.073   1.170   4.862
 3970TIP3    H111874   6.038   1.081   4.867
 3970TIP3    H211875   6.054   1.198   4.773
 3971TIP3   OH211876   5.081   5.026   2.548
 3971TIP3    H111877   4.988   5.039   2.568
 3971TIP3    H211878   5.097   4.933   2.565
 3972TIP3   OH211879   6.788   3.189   0.734
 3972TIP3    H111880   6.701   3.229   0.738
 3972TIP3    H211881   6.823   3.215   0.649
 3973TIP3   OH211882   5.091   6.693   2.476
 3973TIP3    H111883   5.069   6.768   2.532
 3973TIP3    H211884   5.037   6.704   2.399
 3974TIP3   OH211885   3.908   5.445   4.767
 3974TIP3    H111886   3.940   5.403   4.846
 3974TIP3    H211887   3.848   5.382   4.728
 3975TIP3   OH211888   6.147   0.362   2.474
 3975TIP3    H111889   6.076   0.424   2.457
 3975TIP3    H211890   6.201   0.404   2.541
 3976TIP3   OH211891   4.778   2.452   0.869
 3976TIP3    H111892   4.795   2.507   0.792
 3976TIP3    H211893   4.858   2.401   0.880
 3977TIP3   OH211894   4.224   3.777   5.715
 3977TIP3    H111895   4.255   3.808   5.800
 3977TIP3    H211896   4.300   3.733   5.677
 3978TIP3   OH211897   6.918   1.877   3.192
 3978TIP3    H111898   6.902   1.808   3.255
 3978TIP3    H211899   7.002   1.854   3.152
 3979TIP3   OH211900   6.147   2.523   4.944
 3979TIP3    H111901   6.208   2.544   5.015
 3979TIP3    H211902   6.188   2.449   4.899
 3980TIP3   OH211903   6.604   5.639   5.574
 3980TIP3    H111904   6.674   5.682   5.622
 3980TIP3    H211905   6.641   5.624   5.487
 3981TIP3   OH211906   6.923   6.525   0.432
 3981TIP3    H111907   6.887   6.518   0.343
 3981TIP3    H211908   6.887   6.449   0.478
 3982TIP3   OH211909   0.383   4.484   2.865
 3982TIP3    H111910   0.330   4.439   2.931
 3982TIP3    H211911   0.374   4.430   2.787
 3983TIP3   OH211912   4.686   6.752   0.106
 3983TIP3    H111913   4.732   6.826   0.065
 3983TIP3    H211914   4.684   6.774   0.199
 3984TIP3   OH211915   5.635   1.953   4.221
 3984TIP3    H111916   5.595   2.029   4.179
 3984TIP3    H211917   5.656   1.983   4.310
 3985TIP3   OH211918   6.892   4.322   5.763
 3985TIP3    H111919   6.872   4.412   5.790
 3985TIP3    H211920   6.888   4.324   5.667
 3986TIP3   OH211921   7.119   3.857   1.925
 3986TIP3    H111922   7.044   3.843   1.983
 3986TIP3    H211923   7.148   3.946   1.944
 3987TIP3   OH211924   4.288   0.899   4.978
 3987TIP3    H111925   4.280   0.903   5.074
 3987TIP3    H211926   4.249   0.982   4.948
 3988TIP3   OH211927   4.756   1.628   5.400
 3988TIP3    H111928   4.790   1.557   5.455
 3988TIP3    H211929   4.691   1.587   5.344
 3989TIP3   OH211930   4.971   0.862   0.756
 3989TIP3    H111931   4.885   0.894   0.729
 3989TIP3    H211932   4.988   0.788   0.697
 3990TIP3   OH211933   4.623   3.085   3.727
 3990TIP3    H111934   4.536   3.060   3.759
 3990TIP3    H211935   4.621   3.180   3.724
 3991TIP3   OH211936   4.084   0.173   3.114
 3991TIP3    H111937   4.134   0.093   3.102
 3991TIP3    H211938   3.997   0.144   3.140
 3992TIP3   OH211939   4.411   0.677   5.134
 3992TIP3    H111940   4.422   0.750   5.195
 3992TIP3    H211941   4.338   0.704   5.078
 3993TIP3   OH211942   5.823   4.550   4.402
 3993TIP3    H111943   5.789   4.558   4.491
 3993TIP3    H211944   5.746   4.528   4.350
 3994TIP3   OH211945   5.420   2.411   4.535
 3994TIP3    H111946   5.403   2.425   4.628
 3994TIP3    H211947   5.348   2.456   4.491
 3995TIP3   OH211948   1.967   5.894   4.799
 3995TIP3    H111949   1.942   5.802   4.800
 3995TIP3    H211950   2.020   5.906   4.878
 3996TIP3   OH211951   0.344   5.275   2.393
 3996TIP3    H111952   0.261   5.252   2.434
 3996TIP3    H211953   0.377   5.349   2.444
 3997TIP3   OH211954   2.020   4.757   5.181
 3997TIP3    H111955   2.038   4.847   5.210
 3997TIP3    H211956   2.028   4.762   5.085
 3998TIP3   OH211957   1.067   4.262   0.956
 3998TIP3    H111958   0.981   4.287   0.920
 3998TIP3    H211959   1.102   4.343   0.992
 3999TIP3   OH211960   4.016   3.060   3.447
 3999TIP3    H111961   3.956   3.011   3.392
 3999TIP3    H211962   4.086   3.088   3.388
 4000TIP3   OH211963   4.137   3.224   0.065
 4000TIP3    H111964   4.231   3.236   0.058
 4000TIP3    H211965   4.102   3.313   0.071
 4001TIP3   OH211966   6.768   5.243   4.592
 4001TIP3    H111967   6.707   5.308   4.556
 4001TIP3    H211968   6.719   5.162   4.594
 4002TIP3   OH211969   0.301   6.595   0.628
 4002TIP3    H111970   0.264   6.671   0.582
 4002TIP3    H211971   0.389   6.623   0.653
 4003TIP3   OH211972   3.953   4.822   4.075
 4003TIP3    H111973   3.935   4.894   4.136
 4003TIP3    H211974   4.024   4.855   4.020
 4004TIP3   OH211975   6.826   5.270   4.223
 4004TIP3    H111976   6.784   5.185   4.210
 4004TIP3    H211977   6.919   5.252   4.219
 4005TIP3   OH211978   2.501   1.623   1.197
 4005TIP3    H111979   2.543   1.605   1.281
 4005TIP3    H211980   2.413   1.587   1.206
 4006TIP3   OH211981   3.571   2.876   5.373
 4006TIP3    H111982   3.603   2.791   5.345
 4006TIP3    H211983   3.650   2.923   5.401
 4007TIP3   OH211984   0.579   6.450   0.256
 4007TIP3    H111985   0.567   6.538   0.293
 4007TIP3    H211986   0.570   6.463   0.161
 4008TIP3   OH211987   5.755   6.484   3.151
 4008TIP3    H111988   5.700   6.522   3.083
 4008TIP3    H211989   5.715   6.514   3.233
 4009TIP3   OH211990   3.305   3.725   0.525
 4009TIP3    H111991   3.399   3.737   0.513
 4009TIP3    H211992   3.293   3.631   0.533
 4010TIP3   OH211993   6.938   3.618   4.437
 4010TIP3    H111994   6.934   3.694   4.378
 4010TIP3    H211995   7.013   3.567   4.406
 4011TIP3   OH211996   2.046   3.287   1.662
 4011TIP3    H111997   2.068   3.374   1.631
 4011TIP3    H211998   1.951   3.279   1.647
 4012TIP3   OH211999   5.713   0.148   3.327
 4012TIP3    H112000   5.690   0.238   3.350
 4012TIP3    H212001   5.806   0.151   3.307
 4013TIP3   OH212002   6.747   5.331   3.772
 4013TIP3    H112003   6.830   5.339   3.727
 4013TIP3    H212004   6.682   5.362   3.709
 4014TIP3   OH212005   6.017   1.096   2.318
 4014TIP3    H112006   6.045   1.119   2.229
 4014TIP3    H212007   5.978   1.009   2.308
 4015TIP3   OH212008   0.652   1.781   4.182
 4015TIP3    H112009   0.627   1.844   4.250
 4015TIP3    H212010   0.724   1.731   4.221
 4016TIP3   OH212011   6.572   1.614   5.032
 4016TIP3    H112012   6.583   1.639   5.124
 4016TIP3    H212013   6.556   1.697   4.987
 4017TIP3   OH212014   5.778   3.934   0.953
 4017TIP3    H112015   5.789   3.992   0.878
 4017TIP3    H212016   5.689   3.952   0.984
 4018TIP3   OH212017   5.804   6.483   1.856
 4018TIP3    H112018   5.731   6.511   1.802
 4018TIP3    H212019   5.764   6.442   1.933
 4019TIP3   OH212020   5.417   2.680   5.059
 4019TIP3    H112021   5.391   2.596   5.096
 4019TIP3    H212022   5.335   2.723   5.036
 4020TIP3   OH212023   2.982   1.689   2.036
 4020TIP3    H112024   3.033   1.757   1.992
 4020TIP3    H212025   2.927   1.737   2.098
 4021TIP3   OH212026   5.785   2.533   1.055
 4021TIP3    H112027   5.710   2.549   0.998
 4021TIP3    H212028   5.834   2.464   1.010
 4022TIP3   OH212029   4.840   5.495   4.820
 4022TIP3    H112030   4.936   5.492   4.824
 4022TIP3    H212031   4.820   5.579   4.780
 4023TIP3   OH212032   4.388   0.902   3.321
 4023TIP3    H112033   4.353   0.888   3.409
 4023TIP3    H212034   4.465   0.957   3.335
 4024TIP3   OH212035   4.364   1.422   0.537
 4024TIP3    H112036   4.398   1.484   0.601
 4024TIP3    H212037   4.433   1.415   0.471
 4025TIP3   OH212038   2.626   6.203   3.643
 4025TIP3    H112039   2.593   6.208   3.732
 4025TIP3    H212040   2.573   6.135   3.601
 4026TIP3   OH212041   4.772   6.498   3.260
 4026TIP3    H112042   4.750   6.504   3.353
 4026TIP3    H212043   4.837   6.567   3.247
 4027TIP3   OH212044   2.068   3.377   0.641
 4027TIP3    H112045   2.015   3.455   0.628
 4027TIP3    H212046   2.114   3.393   0.723
 4028TIP3   OH212047   4.029   2.132   2.175
 4028TIP3    H112048   4.061   2.191   2.243
 4028TIP3    H212049   4.038   2.182   2.094
 4029TIP3   OH212050   6.033   0.800   5.779
 4029TIP3    H112051   5.954   0.814   5.727
 4029TIP3    H212052   6.087   0.741   5.727
 4030TIP3   OH212053   0.302   6.472   4.053
 4030TIP3    H112054   0.380   6.421   4.074
 4030TIP3    H212055   0.267   6.431   3.974
 4031TIP3   OH212056   5.635   1.638   4.153
 4031TIP3    H112057   5.622   1.545   4.167
 4031TIP3    H212058   5.659   1.647   4.061
 4032TIP3   OH212059   1.494   3.185   5.475
 4032TIP3    H112060   1.541   3.103   5.493
 4032TIP3    H212061   1.480   3.185   5.381
 4033TIP3   OH212062   1.149   1.488   1.540
 4033TIP3    H112063   1.136   1.575   1.502
 4033TIP3    H212064   1.065   1.467   1.582
 4034TIP3   OH212065   6.236   3.416   0.139
 4034TIP3    H112066   6.201   3.477   0.204
 4034TIP3    H212067   6.326   3.444   0.125
 4035TIP3   OH212068   4.915   3.297   2.234
 4035TIP3    H112069   4.929   3.302   2.140
 4035TIP3    H212070   4.996   3.330   2.272
 4036TIP3   OH212071   1.311   5.502   4.874
 4036TIP3    H112072   1.363   5.422   4.869
 4036TIP3    H212073   1.296   5.527   4.783
 4037TIP3   OH212074   1.336   6.508   3.317
 4037TIP3    H112075   1.402   6.541   3.256
 4037TIP3    H212076   1.254   6.517   3.270
 4038TIP3   OH212077   2.548   1.036   1.379
 4038TIP3    H112078   2.525   0.970   1.445
 4038TIP3    H212079   2.586   1.108   1.430
 4039TIP3   OH212080   6.798   5.710   1.985
 4039TIP3    H112081   6.814   5.626   1.941
 4039TIP3    H212082   6.853   5.707   2.063
 4040TIP3   OH212083   2.739   0.233   1.809
 4040TIP3    H112084   2.807   0.233   1.877
 4040TIP3    H212085   2.657   0.245   1.858
 4041TIP3   OH212086   6.498   3.284   2.714
 4041TIP3    H112087   6.516   3.375   2.740
 4041TIP3    H212088   6.494   3.235   2.796
 4042TIP3   OH212089   0.827   2.018   2.453
 4042TIP3    H112090   0.891   1.948   2.444
 4042TIP3    H212091   0.825   2.037   2.547
 4043TIP3   OH212092   5.645   4.776   1.721
 4043TIP3    H112093   5.656   4.730   1.638
 4043TIP3    H212094   5.635   4.868   1.696
 4044TIP3   OH212095   4.405   1.322   1.981
 4044TIP3    H112096   4.351   1.270   2.041
 4044TIP3    H212097   4.495   1.303   2.009
 4045TIP3   OH212098   5.657   3.642   2.734
 4045TIP3    H112099   5.611   3.628   2.651
 4045TIP3    H212100   5.714   3.716   2.718
 4046TIP3   OH212101   2.346   4.060   0.790
 4046TIP3    H112102   2.372   4.138   0.742
 4046TIP3    H212103   2.280   4.019   0.734
 4047TIP3   OH212104   6.473   3.167   3.721
 4047TIP3    H112105   6.438   3.081   3.743
 4047TIP3    H212106   6.466   3.172   3.625
 4048TIP3   OH212107   3.189   3.276   4.532
 4048TIP3    H112108   3.105   3.313   4.508
 4048TIP3    H212109   3.252   3.346   4.516
 4049TIP3   OH212110   4.254   3.955   0.547
 4049TIP3    H112111   4.290   3.986   0.463
 4049TIP3    H212112   4.328   3.915   0.592
 4050TIP3   OH212113   4.165   5.837   3.682
 4050TIP3    H112114   4.191   5.894   3.609
 4050TIP3    H212115   4.229   5.766   3.681
 4051TIP3   OH212116   4.492   6.042   1.854
 4051TIP3    H112117   4.454   6.119   1.811
 4051TIP3    H212118   4.515   5.984   1.782
 4052TIP3   OH212119   0.220   5.240   1.868
 4052TIP3    H112120   0.250   5.298   1.938
 4052TIP3    H212121   0.169   5.297   1.810
 4053TIP3   OH212122   0.343   4.061   2.895
 4053TIP3    H112123   0.337   4.028   2.805
 4053TIP3    H212124   0.417   4.014   2.933
 4054TIP3   OH212125   1.943   5.966   0.442
 4054TIP3    H112126   1.926   5.938   0.352
 4054TIP3    H212127   1.867   6.020   0.465
 4055TIP3   OH212128   3.409   0.711   3.471
 4055TIP3    H112129   3.468   0.740   3.541
 4055TIP3    H212130   3.331   0.766   3.481
 4056TIP3   OH212131   5.698   3.074   2.370
 4056TIP3    H112132   5.705   3.003   2.434
 4056TIP3    H212133   5.692   3.154   2.423
 4057TIP3   OH212134   0.571   3.018   4.236
 4057TIP3    H112135   0.479   3.011   4.261
 4057TIP3    H212136   0.572   2.995   4.143
 4058TIP3   OH212137   1.868   5.197   3.037
 4058TIP3    H112138   1.877   5.292   3.050
 4058TIP3    H212139   1.918   5.179   2.958
 4059TIP3   OH212140   4.136   3.538   2.791
 4059TIP3    H112141   4.145   3.444   2.808
 4059TIP3    H212142   4.139   3.578   2.878
 4060TIP3   OH212143   6.120   4.545   3.430
 4060TIP3    H112144   6.036   4.518   3.468
 4060TIP3    H212145   6.164   4.593   3.501
 4061TIP3   OH212146   6.603   6.387   3.393
 4061TIP3    H112147   6.616   6.298   3.423
 4061TIP3    H212148   6.519   6.385   3.347
 4062TIP3   OH212149   7.010   4.587   0.418
 4062TIP3    H112150   7.066   4.586   0.341
 4062TIP3    H212151   7.068   4.561   0.490
 4063TIP3   OH212152   1.656   4.158   1.647
 4063TIP3    H112153   1.567   4.126   1.629
 4063TIP3    H212154   1.703   4.081   1.679
 4064TIP3   OH212155   2.083   0.005   2.845
 4064TIP3    H112156   2.062   0.093   2.874
 4064TIP3    H212157   2.001  -0.029   2.809
 4065TIP3   OH212158   3.681   5.261   4.691
 4065TIP3    H112159   3.609   5.303   4.643
 4065TIP3    H212160   3.641   5.233   4.773
 4066TIP3   OH212161   7.017   0.818   2.439
 4066TIP3    H112162   7.086   0.878   2.411
 4066TIP3    H212163   6.990   0.774   2.358
 4067TIP3   OH212164   1.498   5.225   4.722
 4067TIP3    H112165   1.447   5.270   4.654
 4067TIP3    H212166   1.450   5.240   4.803
 4068TIP3   OH212167   4.735   0.823   0.377
 4068TIP3    H112168   4.724   0.889   0.445
 4068TIP3    H212169   4.821   0.841   0.339
 4069TIP3   OH212170   1.828   2.482   0.789
 4069TIP3    H112171   1.912   2.437   0.799
 4069TIP3    H212172   1.841   2.540   0.714
 4070TIP3   OH212173   6.186   6.431   2.848
 4070TIP3    H112174   6.176   6.347   2.893
 4070TIP3    H212175   6.215   6.408   2.760
 4071TIP3   OH212176   0.833   2.900   1.047
 4071TIP3    H112177   0.783   2.948   1.113
 4071TIP3    H212178   0.800   2.933   0.963
 4072TIP3   OH212179   3.707   1.516   1.535
 4072TIP3    H112180   3.634   1.568   1.499
 4072TIP3    H212181   3.698   1.430   1.493
 4073TIP3   OH212182   3.223   3.283   1.843
 4073TIP3    H112183   3.140   3.317   1.877
 4073TIP3    H212184   3.275   3.361   1.826
 4074TIP3   OH212185   3.618   4.262   1.627
 4074TIP3    H112186   3.625   4.293   1.537
 4074TIP3    H212187   3.551   4.194   1.624
 4075TIP3   OH212188   6.833   1.857   2.174
 4075TIP3    H112189   6.780   1.933   2.153
 4075TIP3    H212190   6.847   1.863   2.268
 4076TIP3   OH212191   6.641   1.911   2.697
 4076TIP3    H112192   6.636   1.944   2.787
 4076TIP3    H212193   6.713   1.847   2.699
 4077TIP3   OH212194   6.020   6.690   1.175
 4077TIP3    H112195   5.984   6.745   1.245
 4077TIP3    H212196   6.102   6.734   1.151
 4078TIP3   OH212197   5.647   3.095   0.522
 4078TIP3    H112198   5.588   3.169   0.508
 4078TIP3    H212199   5.720   3.109   0.462
 4079TIP3   OH212200   0.634   5.894   4.820
 4079TIP3    H112201   0.574   5.851   4.760
 4079TIP3    H212202   0.703   5.930   4.763
 4080TIP3   OH212203   1.072   4.605   1.963
 4080TIP3    H112204   1.074   4.591   1.868
 4080TIP3    H212205   0.983   4.579   1.989
 4081TIP3   OH212206   3.461   0.008   4.885
 4081TIP3    H112207   3.478   0.054   4.967
 4081TIP3    H212208   3.393   0.059   4.842
 4082TIP3   OH212209   1.536   5.516   5.486
 4082TIP3    H112210   1.497   5.488   5.568
 4082TIP3    H212211   1.462   5.549   5.434
 4083TIP3   OH212212   3.030   3.080   2.837
 4083TIP3    H112213   3.106   3.122   2.797
 4083TIP3    H212214   3.062   2.993   2.861
 4084TIP3   OH212215   4.570   5.453   0.580
 4084TIP3    H112216   4.555   5.404   0.661
 4084TIP3    H212217   4.648   5.413   0.542
 4085TIP3   OH212218   5.924   3.476   0.713
 4085TIP3    H112219   5.913   3.538   0.785
 4085TIP3    H212220   5.839   3.475   0.669
 4086TIP3   OH212221   5.858   2.857   0.344
 4086TIP3    H112222   5.898   2.878   0.428
 4086TIP3    H212223   5.836   2.765   0.350
 4087TIP3   OH212224   6.277   0.979   2.414
 4087TIP3    H112225   6.207   1.035   2.380
 4087TIP3    H212226   6.239   0.938   2.492
 4088TIP3   OH212227   1.541   4.346   2.589
 4088TIP3    H112228   1.624   4.371   2.629
 4088TIP3    H212229   1.476   4.402   2.631
 4089TIP3   OH212230   6.086   6.018   1.475
 4089TIP3    H112231   6.087   5.950   1.408
 4089TIP3    H212232   6.159   5.997   1.532
 4090TIP3   OH212233   0.473   6.451   1.635
 4090TIP3    H112234   0.523   6.385   1.682
 4090TIP3    H212235   0.388   6.452   1.679
 4091TIP3   OH212236   0.275   1.159   1.825
 4091TIP3    H112237   0.278   1.105   1.746
 4091TIP3    H212238   0.345   1.223   1.812
 4092TIP3   OH212239   3.315   2.723   0.782
 4092TIP3    H112240   3.318   2.675   0.865
 4092TIP3    H212241   3.270   2.805   0.804
 4093TIP3   OH212242   2.541   5.143   3.541
 4093TIP3    H112243   2.507   5.063   3.502
 4093TIP3    H212244   2.521   5.211   3.477
 4094TIP3   OH212245   3.023   4.529   2.953
 4094TIP3    H112246   3.118   4.518   2.964
 4094TIP3    H212247   2.989   4.532   3.043
 4095TIP3   OH212248   2.931   3.813   0.089
 4095TIP3    H112249   2.976   3.859   0.019
 4095TIP3    H212250   2.981   3.731   0.100
 4096TIP3   OH212251   3.111   5.263   1.727
 4096TIP3    H112252   3.203   5.246   1.744
 4096TIP3    H212253   3.067   5.179   1.745
 4097TIP3   OH212254   3.349   0.550   4.125
 4097TIP3    H112255   3.360   0.631   4.075
 4097TIP3    H212256   3.383   0.571   4.212
 4098TIP3   OH212257   3.202   4.628   2.493
 4098TIP3    H112258   3.128   4.653   2.548
 4098TIP3    H212259   3.258   4.575   2.550
 4099TIP3   OH212260   4.110   6.280   0.563
 4099TIP3    H112261   4.112   6.263   0.658
 4099TIP3    H212262   4.043   6.222   0.529
 4100TIP3   OH212263   4.954   1.224   0.608
 4100TIP3    H112264   4.871   1.178   0.602
 4100TIP3    H212265   5.004   1.176   0.675
 4101TIP3   OH212266   6.226   1.076   1.180
 4101TIP3    H112267   6.304   1.132   1.178
 4101TIP3    H212268   6.205   1.068   1.273
 4102TIP3   OH212269   4.541   5.202   5.016
 4102TIP3    H112270   4.534   5.154   5.099
 4102TIP3    H212271   4.454   5.238   5.001
 4103TIP3   OH212272   4.584   3.019   0.837
 4103TIP3    H112273   4.583   3.067   0.754
 4103TIP3    H212274   4.536   3.075   0.897
 4104TIP3   OH212275   4.170   1.126   4.936
 4104TIP3    H112276   4.165   1.185   5.011
 4104TIP3    H212277   4.084   1.134   4.894
 4105TIP3   OH212278   3.415   4.030   4.254
 4105TIP3    H112279   3.485   4.005   4.315
 4105TIP3    H212280   3.335   4.029   4.307
 4106TIP3   OH212281   2.775   2.732   4.042
 4106TIP3    H112282   2.749   2.809   4.093
 4106TIP3    H212283   2.711   2.726   3.972
 4107TIP3   OH212284   2.452   3.570   1.956
 4107TIP3    H112285   2.487   3.659   1.954
 4107TIP3    H212286   2.455   3.541   1.865
 4108TIP3   OH212287   7.143   3.820   3.920
 4108TIP3    H112288   7.152   3.825   4.016
 4108TIP3    H212289   7.048   3.817   3.906
 4109TIP3   OH212290   6.879   1.262   3.509
 4109TIP3    H112291   6.939   1.295   3.443
 4109TIP3    H212292   6.795   1.303   3.487
 4110TIP3   OH212293   3.849   4.762   5.696
 4110TIP3    H112294   3.933   4.735   5.658
 4110TIP3    H212295   3.809   4.681   5.727
 4111TIP3   OH212296   5.837  -0.016   3.682
 4111TIP3    H112297   5.836   0.003   3.776
 4111TIP3    H212298   5.774   0.045   3.644
 4112TIP3   OH212299   4.039   6.290   4.816
 4112TIP3    H112300   4.027   6.380   4.788
 4112TIP3    H212301   3.950   6.257   4.830
 4113TIP3   OH212302   5.473   3.111   2.198
 4113TIP3    H112303   5.556   3.088   2.240
 4113TIP3    H212304   5.491   3.103   2.104
 4114TIP3   OH212305   3.527   1.067   0.269
 4114TIP3    H112306   3.465   1.062   0.196
 4114TIP3    H212307   3.481   1.118   0.336
 4115TIP3   OH212308   0.907   2.517   3.311
 4115TIP3    H112309   0.925   2.585   3.246
 4115TIP3    H212310   0.933   2.435   3.269
 4116TIP3   OH212311   0.459   6.484   2.314
 4116TIP3    H112312   0.441   6.502   2.222
 4116TIP3    H212313   0.554   6.472   2.318
 4117TIP3   OH212314   4.135   5.075   4.666
 4117TIP3    H112315   4.144   5.023   4.746
 4117TIP3    H212316   4.168   5.161   4.690
 4118TIP3   OH212317   6.595   1.895   3.531
 4118TIP3    H112318   6.607   1.917   3.624
 4118TIP3    H212319   6.625   1.973   3.484
 4119TIP3   OH212320   0.402   1.814   2.693
 4119TIP3    H112321   0.409   1.847   2.603
 4119TIP3    H212322   0.490   1.784   2.715
 4120TIP3   OH212323   0.679   3.102   0.121
 4120TIP3    H112324   0.655   3.193   0.103
 4120TIP3    H212325   0.756   3.086   0.066
 4121TIP3   OH212326   4.101   6.310   3.052
 4121TIP3    H112327   4.135   6.259   3.126
 4121TIP3    H212328   4.175   6.321   2.993
 4122TIP3   OH212329   3.738   0.049   5.052
 4122TIP3    H112330   3.676   0.121   5.058
 4122TIP3    H212331   3.684  -0.029   5.046
 4123TIP3   OH212332   4.841   6.039   5.036
 4123TIP3    H112333   4.820   6.029   5.129
 4123TIP3    H212334   4.896   6.117   5.033
 4124TIP3   OH212335   5.606   5.071   3.484
 4124TIP3    H112336   5.634   4.980   3.498
 4124TIP3    H212337   5.528   5.080   3.539
 4125TIP3   OH212338   4.079   6.004   2.688
 4125TIP3    H112339   4.058   6.045   2.604
 4125TIP3    H212340   4.046   6.065   2.753
 4126TIP3   OH212341   0.272   5.668   2.660
 4126TIP3    H112342   0.246   5.744   2.609
 4126TIP3    H212343   0.331   5.620   2.603
 4127TIP3   OH212344   3.355   1.993   1.450
 4127TIP3    H112345   3.393   1.986   1.538
 4127TIP3    H212346   3.430   2.016   1.394
 4128TIP3   OH212347   4.735   0.976   3.318
 4128TIP3    H112348   4.815   1.028   3.311
 4128TIP3    H212349   4.677   1.027   3.375
 4129TIP3   OH212350   4.623   4.020   5.089
 4129TIP3    H112351   4.643   4.113   5.083
 4129TIP3    H212352   4.646   3.997   5.179
 4130TIP3   OH212353   3.345   4.758   2.936
 4130TIP3    H112354   3.340   4.667   2.966
 4130TIP3    H212355   3.428   4.790   2.972
 4131TIP3   OH212356   3.567   0.911   4.940
 4131TIP3    H112357   3.611   0.994   4.958
 4131TIP3    H212358   3.590   0.892   4.849
 4132TIP3   OH212359   5.862   3.732   5.611
 4132TIP3    H112360   5.852   3.773   5.697
 4132TIP3    H212361   5.816   3.792   5.551
 4133TIP3   OH212362   4.339   6.126   5.264
 4133TIP3    H112363   4.270   6.142   5.200
 4133TIP3    H212364   4.421   6.131   5.213
 4134TIP3   OH212365   6.998   1.759   0.316
 4134TIP3    H112366   6.981   1.717   0.400
 4134TIP3    H212367   7.074   1.815   0.331
 4135TIP3   OH212368   5.564   3.586   1.533
 4135TIP3    H112369   5.630   3.653   1.549
 4135TIP3    H212370   5.591   3.513   1.588
 4136TIP3   OH212371   1.662   0.822   4.604
 4136TIP3    H112372   1.723   0.785   4.541
 4136TIP3    H212373   1.595   0.865   4.551
 4137TIP3   OH212374   5.861   5.362   3.934
 4137TIP3    H112375   5.874   5.273   3.968
 4137TIP3    H212376   5.842   5.415   4.011
 4138TIP3   OH212377   4.878   3.398   1.962
 4138TIP3    H112378   4.963   3.441   1.961
 4138TIP3    H212379   4.868   3.362   1.874
 4139TIP3   OH212380   5.346   1.832   4.060
 4139TIP3    H112381   5.254   1.857   4.071
 4139TIP3    H212382   5.349   1.789   3.974
 4140TIP3   OH212383   2.280   3.452   4.489
 4140TIP3    H112384   2.277   3.405   4.573
 4140TIP3    H212385   2.227   3.530   4.504
 4141TIP3   OH212386   2.153   1.920   2.026
 4141TIP3    H112387   2.147   1.872   2.109
 4141TIP3    H212388   2.159   2.012   2.052
 4142TIP3   OH212389   4.839   6.621   2.747
 4142TIP3    H112390   4.744   6.629   2.753
 4142TIP3    H212391   4.870   6.709   2.728
 4143TIP3   OH212392   5.391   0.560   2.833
 4143TIP3    H112393   5.350   0.630   2.783
 4143TIP3    H212394   5.350   0.480   2.802
 4144TIP3   OH212395   1.639   0.231   5.230
 4144TIP3    H112396   1.549   0.198   5.234
 4144TIP3    H212397   1.633   0.311   5.178
 4145TIP3   OH212398   4.056   0.266   5.181
 4145TIP3    H112399   3.994   0.330   5.145
 4145TIP3    H212400   4.005   0.186   5.191
 4146TIP3   OH212401   2.298   6.751   0.269
 4146TIP3    H112402   2.337   6.821   0.217
 4146TIP3    H212403   2.233   6.711   0.212
 4147TIP3   OH212404   4.539   3.487   1.765
 4147TIP3    H112405   4.457   3.532   1.785
 4147TIP3    H212406   4.594   3.554   1.723
 4148TIP3   OH212407   0.428   5.198   4.008
 4148TIP3    H112408   0.375   5.271   3.977
 4148TIP3    H212409   0.507   5.201   3.953
 4149TIP3   OH212410   5.243   4.198   1.094
 4149TIP3    H112411   5.166   4.253   1.081
 4149TIP3    H212412   5.317   4.257   1.084
 4150TIP3   OH212413   0.662   5.427   1.672
 4150TIP3    H112414   0.623   5.386   1.750
 4150TIP3    H212415   0.691   5.512   1.703
 4151TIP3   OH212416   6.434   6.104   2.241
 4151TIP3    H112417   6.521   6.093   2.202
 4151TIP3    H212418   6.373   6.073   2.174
 4152TIP3   OH212419   0.985   1.422   0.627
 4152TIP3    H112420   1.010   1.510   0.598
 4152TIP3    H212421   0.889   1.421   0.623
 4153TIP3   OH212422   4.110   3.400   2.505
 4153TIP3    H112423   4.100   3.471   2.568
 4153TIP3    H212424   4.158   3.440   2.432
 4154TIP3   OH212425   5.650   3.136   5.574
 4154TIP3    H112426   5.637   3.142   5.480
 4154TIP3    H212427   5.636   3.225   5.606
 4155TIP3   OH212428   3.514   0.768   3.232
 4155TIP3    H112429   3.591   0.819   3.257
 4155TIP3    H212430   3.484   0.729   3.314
 4156TIP3   OH212431   5.791   2.424   1.362
 4156TIP3    H112432   5.728   2.365   1.320
 4156TIP3    H212433   5.767   2.511   1.332
 4157TIP3   OH212434   6.432   3.643   5.686
 4157TIP3    H112435   6.382   3.602   5.756
 4157TIP3    H212436   6.452   3.571   5.626
 4158TIP3   OH212437   5.548  -0.021   3.467
 4158TIP3    H112438   5.459   0.003   3.440
 4158TIP3    H212439   5.602   0.053   3.440
 4159TIP3   OH212440   2.078   0.689   3.098
 4159TIP3    H112441   1.987   0.681   3.128
 4159TIP3    H212442   2.131   0.676   3.177
 4160TIP3   OH212443   0.817   0.037   0.673
 4160TIP3    H112444   0.859   0.070   0.594
 4160TIP3    H212445   0.808   0.114   0.730
 4161TIP3   OH212446   6.302   4.606   1.410
 4161TIP3    H112447   6.319   4.627   1.318
 4161TIP3    H212448   6.380   4.636   1.456
 4162TIP3   OH212449   6.834   4.449   1.635
 4162TIP3    H112450   6.896   4.517   1.662
 4162TIP3    H212451   6.884   4.392   1.577
 4163TIP3   OH212452   6.131   3.866   5.724
 4163TIP3    H112453   6.050   3.829   5.691
 4163TIP3    H212454   6.192   3.862   5.650
 4164TIP3   OH212455   7.161   3.177   3.074
 4164TIP3    H112456   7.200   3.227   3.146
 4164TIP3    H212457   7.183   3.227   2.995
 4165TIP3   OH212458   4.485   1.544   5.318
 4165TIP3    H112459   4.516   1.553   5.228
 4165TIP3    H212460   4.391   1.562   5.314
 4166TIP3   OH212461   0.897   5.566   2.915
 4166TIP3    H112462   0.946   5.585   2.996
 4166TIP3    H212463   0.960   5.583   2.845
 4167TIP3   OH212464   0.810   6.459   2.833
 4167TIP3    H112465   0.737   6.400   2.814
 4167TIP3    H212466   0.814   6.462   2.928
 4168TIP3   OH212467   3.994   5.147   3.730
 4168TIP3    H112468   4.065   5.185   3.781
 4168TIP3    H212469   4.034   5.125   3.646
 4169TIP3   OH212470   0.636   3.102   4.818
 4169TIP3    H112471   0.689   3.064   4.748
 4169TIP3    H212472   0.693   3.169   4.857
 4170TIP3   OH212473   4.976   2.887   5.437
 4170TIP3    H112474   4.909   2.893   5.369
 4170TIP3    H212475   4.936   2.929   5.513
 4171TIP3   OH212476   4.553   5.150   1.453
 4171TIP3    H112477   4.500   5.188   1.383
 4171TIP3    H212478   4.638   5.134   1.413
 4172TIP3   OH212479   1.737   1.353   2.150
 4172TIP3    H112480   1.777   1.273   2.116
 4172TIP3    H212481   1.794   1.423   2.119
 4173TIP3   OH212482   0.954   2.543   1.922
 4173TIP3    H112483   0.999   2.463   1.950
 4173TIP3    H212484   0.906   2.571   2.000
 4174TIP3   OH212485   0.572   4.051   5.350
 4174TIP3    H112486   0.516   4.040   5.427
 4174TIP3    H212487   0.656   4.079   5.386
 4175TIP3   OH212488   7.036   0.634   1.627
 4175TIP3    H112489   7.100   0.701   1.649
 4175TIP3    H212490   7.012   0.595   1.711
 4176TIP3   OH212491   1.223   3.941   3.151
 4176TIP3    H112492   1.238   3.880   3.223
 4176TIP3    H212493   1.214   4.026   3.193
 4177TIP3   OH212494   4.193   2.985   5.853
 4177TIP3    H112495   4.120   2.961   5.910
 4177TIP3    H212496   4.241   2.903   5.840
 4178TIP3   OH212497   5.410   5.753   0.324
 4178TIP3    H112498   5.410   5.848   0.311
 4178TIP3    H212499   5.411   5.742   0.419
 4179TIP3   OH212500   7.083   2.379   4.293
 4179TIP3    H112501   7.172   2.403   4.321
 4179TIP3    H212502   7.072   2.422   4.208
 4180TIP3   OH212503   0.472   4.841   5.639
 4180TIP3    H112504   0.494   4.932   5.619
 4180TIP3    H212505   0.446   4.843   5.732
 4181TIP3   OH212506   2.309   5.066   2.545
 4181TIP3    H112507   2.232   5.012   2.562
 4181TIP3    H212508   2.382   5.003   2.541
 4182TIP3   OH212509   6.404   4.409   1.798
 4182TIP3    H112510   6.428   4.390   1.707
 4182TIP3    H212511   6.466   4.475   1.826
 4183TIP3   OH212512   6.675   2.012   1.078
 4183TIP3    H112513   6.661   2.102   1.107
 4183TIP3    H212514   6.699   2.019   0.986
 4184TIP3   OH212515   4.186   2.171   2.882
 4184TIP3    H112516   4.204   2.129   2.966
 4184TIP3    H212517   4.201   2.264   2.897
 4185TIP3   OH212518   0.587   0.151   0.491
 4185TIP3    H112519   0.658   0.199   0.448
 4185TIP3    H212520   0.575   0.196   0.574
 4186TIP3   OH212521   6.734   6.705   2.600
 4186TIP3    H112522   6.715   6.656   2.520
 4186TIP3    H212523   6.653   6.700   2.651
 4187TIP3   OH212524   3.821   2.161   1.296
 4187TIP3    H112525   3.915   2.174   1.297
 4187TIP3    H212526   3.798   2.144   1.387
 4188TIP3   OH212527   6.503   6.522   3.076
 4188TIP3    H112528   6.579   6.475   3.110
 4188TIP3    H212529   6.431   6.459   3.081
 4189TIP3   OH212530   5.167   0.856   4.434
 4189TIP3    H112531   5.111   0.812   4.497
 4189TIP3    H212532   5.125   0.839   4.349
 4190TIP3   OH212533   2.715   5.853   0.582
 4190TIP3    H112534   2.764   5.783   0.626
 4190TIP3    H212535   2.706   5.921   0.648
 4191TIP3   OH212536   2.140   2.898   1.249
 4191TIP3    H112537   2.207   2.869   1.310
 4191TIP3    H212538   2.085   2.821   1.235
 4192TIP3   OH212539   0.791   4.208   1.122
 4192TIP3    H112540   0.791   4.279   1.186
 4192TIP3    H212541   0.698   4.186   1.112
 4193TIP3   OH212542   3.981   3.262   5.055
 4193TIP3    H112543   4.006   3.294   4.969
 4193TIP3    H212544   3.936   3.336   5.096
 4194TIP3   OH212545   3.780   1.633   3.427
 4194TIP3    H112546   3.793   1.544   3.461
 4194TIP3    H212547   3.822   1.633   3.341
 4195TIP3   OH212548   3.236   4.937   3.498
 4195TIP3    H112549   3.186   4.879   3.556
 4195TIP3    H212550   3.286   4.992   3.557
 4196TIP3   OH212551   2.929   0.723   0.738
 4196TIP3    H112552   2.874   0.796   0.763
 4196TIP3    H212553   2.923   0.661   0.811
 4197TIP3   OH212554   0.741   3.583   3.561
 4197TIP3    H112555   0.709   3.562   3.473
 4197TIP3    H212556   0.679   3.649   3.594
 4198TIP3   OH212557   4.366   4.022   0.313
 4198TIP3    H112558   4.362   3.951   0.249
 4198TIP3    H212559   4.438   4.077   0.283
 4199TIP3   OH212560   0.657   0.494   0.941
 4199TIP3    H112561   0.606   0.551   0.882
 4199TIP3    H212562   0.598   0.477   1.014
 4200TIP3   OH212563   4.529   5.982   2.147
 4200TIP3    H112564   4.616   5.996   2.184
 4200TIP3    H212565   4.532   6.027   2.063
 4201TIP3   OH212566   3.338   5.238   3.102
 4201TIP3    H112567   3.342   5.186   3.022
 4201TIP3    H212568   3.368   5.179   3.171
 4202TIP3   OH212569   4.711   5.036   4.383
 4202TIP3    H112570   4.761   5.017   4.462
 4202TIP3    H212571   4.745   5.121   4.353
 4203TIP3   OH212572   4.475   2.721   2.182
 4203TIP3    H112573   4.472   2.817   2.189
 4203TIP3    H212574   4.415   2.691   2.250
 4204TIP3   OH212575   5.556   6.249   5.305
 4204TIP3    H112576   5.641   6.288   5.283
 4204TIP3    H212577   5.538   6.278   5.394
 4205TIP3   OH212578   4.251   6.090   4.768
 4205TIP3    H112579   4.199   6.026   4.816
 4205TIP3    H212580   4.194   6.166   4.761
 4206TIP3   OH212581   5.215   0.138   5.135
 4206TIP3    H112582   5.257   0.189   5.066
 4206TIP3    H212583   5.157   0.200   5.179
 4207TIP3   OH212584   6.910   5.205   5.619
 4207TIP3    H112585   6.889   5.120   5.580
 4207TIP3    H212586   6.863   5.204   5.703
 4208TIP3   OH212587   5.785   3.201   0.992
 4208TIP3    H112588   5.782   3.290   1.027
 4208TIP3    H212589   5.803   3.146   1.068
 4209TIP3   OH212590   0.836   1.341   1.339
 4209TIP3    H112591   0.795   1.394   1.271
 4209TIP3    H212592   0.923   1.322   1.306
 4210TIP3   OH212593   4.368   0.796   0.087
 4210TIP3    H112594   4.321   0.716   0.064
 4210TIP3    H212595   4.385   0.839   0.003
 4211TIP3   OH212596   1.996   1.299   2.048
 4211TIP3    H112597   1.962   1.264   1.966
 4211TIP3    H212598   2.086   1.324   2.028
 4212TIP3   OH212599   0.088   6.149   4.211
 4212TIP3    H112600   0.146   6.173   4.139
 4212TIP3    H212601   0.145   6.103   4.273
 4213TIP3   OH212602   3.803   2.930   2.641
 4213TIP3    H112603   3.792   3.015   2.597
 4213TIP3    H212604   3.776   2.946   2.731
 4214TIP3   OH212605   6.411   1.450   4.233
 4214TIP3    H112606   6.462   1.381   4.191
 4214TIP3    H212607   6.441   1.531   4.191
 4215TIP3   OH212608   0.595   0.915   5.550
 4215TIP3    H112609   0.551   0.843   5.507
 4215TIP3    H212610   0.540   0.991   5.533
 4216TIP3   OH212611   6.305   6.353   3.267
 4216TIP3    H112612   6.252   6.432   3.266
 4216TIP3    H212613   6.318   6.333   3.360
 4217TIP3   OH212614   2.043   2.636   2.754
 4217TIP3    H112615   2.110   2.688   2.709
 4217TIP3    H212616   2.093   2.578   2.812
 4218TIP3   OH212617   0.208   5.686   3.646
 4218TIP3    H112618   0.138   5.751   3.647
 4218TIP3    H212619   0.165   5.603   3.669
 4219TIP3   OH212620   5.194   5.467   3.223
 4219TIP3    H112621   5.260   5.426   3.167
 4219TIP3    H212622   5.171   5.548   3.178
 4220TIP3   OH212623   7.120   6.011   5.785
 4220TIP3    H112624   7.094   6.086   5.732
 4220TIP3    H212625   7.180   5.961   5.729
 4221TIP3   OH212626   3.905   5.535   5.286
 4221TIP3    H112627   3.816   5.560   5.261
 4221TIP3    H212628   3.895   5.457   5.340
 4222TIP3   OH212629   4.442   5.334   3.591
 4222TIP3    H112630   4.524   5.312   3.547
 4222TIP3    H212631   4.447   5.288   3.675
 4223TIP3   OH212632   6.222   3.861   0.491
 4223TIP3    H112633   6.171   3.917   0.549
 4223TIP3    H212634   6.215   3.774   0.530
 4224TIP3   OH212635   3.909   2.846   5.835
 4224TIP3    H112636   3.862   2.845   5.918
 4224TIP3    H212637   3.890   2.760   5.796
 4225TIP3   OH212638   0.885   2.538   5.156
 4225TIP3    H112639   0.871   2.466   5.094
 4225TIP3    H212640   0.934   2.603   5.106
 4226TIP3   OH212641   0.966   2.971   4.855
 4226TIP3    H112642   0.938   3.055   4.891
 4226TIP3    H212643   0.941   2.975   4.762
 4227TIP3   OH212644   2.422   1.300   1.179
 4227TIP3    H112645   2.440   1.209   1.156
 4227TIP3    H212646   2.391   1.339   1.097
 4228TIP3   OH212647   4.453   2.687   3.457
 4228TIP3    H112648   4.498   2.664   3.538
 4228TIP3    H212649   4.468   2.781   3.447
 4229TIP3   OH212650   2.529   2.981   2.334
 4229TIP3    H112651   2.615   3.009   2.300
 4229TIP3    H212652   2.551   2.922   2.407
 4230TIP3   OH212653   1.750   0.449   2.658
 4230TIP3    H112654   1.793   0.462   2.742
 4230TIP3    H212655   1.821   0.425   2.598
 4231TIP3   OH212656   4.043   2.357   0.832
 4231TIP3    H112657   4.027   2.338   0.740
 4231TIP3    H212658   4.090   2.441   0.831
 4232TIP3   OH212659   3.518   1.630   0.040
 4232TIP3    H112660   3.444   1.663   0.091
 4232TIP3    H212661   3.537   1.700  -0.023
 4233TIP3   OH212662   1.804   4.926   2.787
 4233TIP3    H112663   1.793   4.938   2.692
 4233TIP3    H212664   1.804   4.831   2.798
 4234TIP3   OH212665   2.228   0.349   0.113
 4234TIP3    H112666   2.302   0.309   0.068
 4234TIP3    H212667   2.267   0.414   0.172
 4235TIP3   OH212668   4.681   5.676   5.544
 4235TIP3    H112669   4.764   5.665   5.591
 4235TIP3    H212670   4.704   5.731   5.469
 4236TIP3   OH212671   1.897   3.901   0.569
 4236TIP3    H112672   1.877   3.922   0.478
 4236TIP3    H212673   1.818   3.855   0.600
 4237TIP3   OH212674   5.020   4.798   5.199
 4237TIP3    H112675   5.077   4.828   5.270
 4237TIP3    H212676   5.067   4.726   5.159
 4238TIP3   OH212677   3.415   5.640   4.373
 4238TIP3    H112678   3.330   5.684   4.364
 4238TIP3    H212679   3.467   5.676   4.301
 4239TIP3   OH212680   1.329   5.905   5.254
 4239TIP3    H112681   1.243   5.865   5.240
 4239TIP3    H212682   1.336   5.972   5.185
 4240TIP3   OH212683   6.275   4.663   3.629
 4240TIP3    H112684   6.266   4.755   3.652
 4240TIP3    H212685   6.295   4.618   3.711
 4241TIP3   OH212686   0.156   6.687   4.500
 4241TIP3    H112687   0.176   6.642   4.418
 4241TIP3    H212688   0.101   6.627   4.548
 4242TIP3   OH212689   3.069   4.598   1.361
 4242TIP3    H112690   3.083   4.687   1.329
 4242TIP3    H212691   3.068   4.606   1.456
 4243TIP3   OH212692   3.357   1.151   5.152
 4243TIP3    H112693   3.350   1.240   5.118
 4243TIP3    H212694   3.282   1.105   5.113
 4244TIP3   OH212695   1.633   4.758   0.129
 4244TIP3    H112696   1.692   4.732   0.058
 4244TIP3    H212697   1.663   4.845   0.155
 4245TIP3   OH212698   6.397   1.288   1.159
 4245TIP3    H112699   6.366   1.329   1.240
 4245TIP3    H212700   6.375   1.351   1.091
 4246TIP3   OH212701   5.434   0.820   0.204
 4246TIP3    H112702   5.451   0.806   0.111
 4246TIP3    H212703   5.426   0.914   0.214
 4247TIP3   OH212704   6.632   3.757   5.136
 4247TIP3    H112705   6.717   3.722   5.111
 4247TIP3    H212706   6.628   3.843   5.095
 4248TIP3   OH212707   5.238   0.715   2.667
 4248TIP3    H112708   5.244   0.810   2.656
 4248TIP3    H212709   5.155   0.691   2.625
 4249TIP3   OH212710   1.224   6.600   5.137
 4249TIP3    H112711   1.166   6.563   5.072
 4249TIP3    H212712   1.167   6.625   5.210
 4250TIP3   OH212713   3.758   4.250   0.790
 4250TIP3    H112714   3.742   4.159   0.814
 4250TIP3    H212715   3.703   4.265   0.714
 4251TIP3   OH212716   2.124   2.218   4.463
 4251TIP3    H112717   2.175   2.294   4.490
 4251TIP3    H212718   2.174   2.179   4.391
 4252TIP3   OH212719   1.646   1.605   0.824
 4252TIP3    H112720   1.640   1.682   0.768
 4252TIP3    H212721   1.672   1.639   0.909
 4253TIP3   OH212722   0.319   1.671   3.670
 4253TIP3    H112723   0.393   1.715   3.711
 4253TIP3    H212724   0.324   1.581   3.702
 4254TIP3   OH212725   4.511   3.662   1.405
 4254TIP3    H112726   4.442   3.659   1.338
 4254TIP3    H212727   4.529   3.570   1.424
 4255TIP3   OH212728   3.760   6.431   5.484
 4255TIP3    H112729   3.813   6.351   5.484
 4255TIP3    H212730   3.732   6.440   5.393
 4256TIP3   OH212731   2.535   6.189   1.318
 4256TIP3    H112732   2.565   6.165   1.406
 4256TIP3    H212733   2.445   6.157   1.314
 4257TIP3   OH212734   0.686   5.643   1.829
 4257TIP3    H112735   0.756   5.625   1.892
 4257TIP3    H212736   0.607   5.654   1.882
 4258TIP3   OH212737   6.383   0.279   4.618
 4258TIP3    H112738   6.384   0.213   4.549
 4258TIP3    H212739   6.474   0.308   4.624
 4259TIP3   OH212740   2.598   1.999   0.340
 4259TIP3    H112741   2.632   2.020   0.427
 4259TIP3    H212742   2.666   2.029   0.280
 4260TIP3   OH212743   5.906   0.948   5.056
 4260TIP3    H112744   5.817   0.935   5.089
 4260TIP3    H212745   5.962   0.938   5.133
 4261TIP3   OH212746   4.954   4.883   0.248
 4261TIP3    H112747   4.900   4.934   0.310
 4261TIP3    H212748   4.989   4.949   0.188
 4262TIP3   OH212749   5.126   0.802   0.044
 4262TIP3    H112750   5.175   0.737   0.096
 4262TIP3    H212751   5.167   0.800  -0.042
 4263TIP3   OH212752   5.588   5.940   2.651
 4263TIP3    H112753   5.559   5.982   2.732
 4263TIP3    H212754   5.565   6.002   2.582
 4264TIP3   OH212755   4.336   2.976   3.526
 4264TIP3    H112756   4.322   3.059   3.572
 4264TIP3    H212757   4.309   2.993   3.436
 4265TIP3   OH212758   5.161   4.035   2.236
 4265TIP3    H112759   5.183   4.122   2.203
 4265TIP3    H212760   5.197   3.974   2.170
 4266TIP3   OH212761   6.501   6.061   0.218
 4266TIP3    H112762   6.435   5.994   0.234
 4266TIP3    H212763   6.452   6.143   0.214
 4267TIP3   OH212764   0.883   4.291   4.759
 4267TIP3    H112765   0.881   4.349   4.683
 4267TIP3    H212766   0.859   4.349   4.832
 4268TIP3   OH212767   1.992   1.602   1.127
 4268TIP3    H112768   2.008   1.686   1.085
 4268TIP3    H212769   1.964   1.624   1.216
 4269TIP3   OH212770   0.214   2.286   3.792
 4269TIP3    H112771   0.204   2.196   3.763
 4269TIP3    H212772   0.305   2.291   3.823
 4270TIP3   OH212773   5.124   3.054   2.527
 4270TIP3    H112774   5.029   3.065   2.533
 4270TIP3    H212775   5.158   3.143   2.516
 4271TIP3   OH212776   4.315   2.309   0.252
 4271TIP3    H112777   4.396   2.284   0.208
 4271TIP3    H212778   4.270   2.365   0.189
 4272TIP3   OH212779   0.255   3.728   4.086
 4272TIP3    H112780   0.193   3.799   4.097
 4272TIP3    H212781   0.340   3.771   4.076
 4273TIP3   OH212782   0.630   2.111   2.099
 4273TIP3    H112783   0.628   2.162   2.018
 4273TIP3    H212784   0.680   2.165   2.160
 4274TIP3   OH212785   0.788   3.564   4.651
 4274TIP3    H112786   0.810   3.586   4.560
 4274TIP3    H212787   0.726   3.491   4.643
 4275TIP3   OH212788   5.058   4.752   2.509
 4275TIP3    H112789   4.973   4.760   2.466
 4275TIP3    H212790   5.059   4.664   2.545
 4276TIP3   OH212791   5.258   3.383   4.292
 4276TIP3    H112792   5.295   3.376   4.380
 4276TIP3    H212793   5.235   3.293   4.269
 4277TIP3   OH212794   3.765   0.327   1.422
 4277TIP3    H112795   3.710   0.286   1.355
 4277TIP3    H212796   3.763   0.266   1.495
 4278TIP3   OH212797   5.623   2.257   5.845
 4278TIP3    H112798   5.682   2.246   5.920
 4278TIP3    H212799   5.563   2.326   5.871
 4279TIP3   OH212800   1.987   3.707   2.320
 4279TIP3    H112801   1.988   3.799   2.346
 4279TIP3    H212802   1.916   3.668   2.372
 4280TIP3   OH212803   0.746   4.172   2.259
 4280TIP3    H112804   0.767   4.085   2.224
 4280TIP3    H212805   0.652   4.181   2.245
 4281TIP3   OH212806   2.389   0.484   5.507
 4281TIP3    H112807   2.375   0.403   5.457
 4281TIP3    H212808   2.357   0.553   5.449
 4282TIP3   OH212809   3.566   1.731   3.587
 4282TIP3    H112810   3.553   1.681   3.667
 4282TIP3    H212811   3.613   1.672   3.529
 4283TIP3   OH212812   6.603   1.193   2.612
 4283TIP3    H112813   6.694   1.191   2.583
 4283TIP3    H212814   6.556   1.141   2.546
 4284TIP3   OH212815   0.645   2.611   5.282
 4284TIP3    H112816   0.602   2.532   5.249
 4284TIP3    H212817   0.730   2.612   5.237
 4285TIP3   OH212818   2.679   1.769   4.148
 4285TIP3    H112819   2.774   1.761   4.160
 4285TIP3    H212820   2.643   1.694   4.194
 4286TIP3   OH212821   5.635   3.024   1.186
 4286TIP3    H112822   5.587   3.107   1.193
 4286TIP3    H212823   5.720   3.042   1.227
 4287TIP3   OH212824   4.151   5.376   1.074
 4287TIP3    H112825   4.118   5.422   0.997
 4287TIP3    H212826   4.101   5.294   1.076
 4288TIP3   OH212827   3.239   6.736   5.643
 4288TIP3    H112828   3.237   6.667   5.709
 4288TIP3    H212829   3.250   6.689   5.560
 4289TIP3   OH212830   3.822   5.750   1.709
 4289TIP3    H112831   3.732   5.729   1.685
 4289TIP3    H212832   3.875   5.697   1.650
 4290TIP3   OH212833   2.104   3.727   4.788
 4290TIP3    H112834   2.102   3.637   4.819
 4290TIP3    H212835   2.013   3.754   4.786
 4291TIP3   OH212836   5.869   0.853   2.314
 4291TIP3    H112837   5.812   0.922   2.279
 4291TIP3    H212838   5.852   0.778   2.257
 4292TIP3   OH212839   4.139   3.384   5.645
 4292TIP3    H112840   4.048   3.414   5.649
 4292TIP3    H212841   4.158   3.381   5.551
 4293TIP3   OH212842   2.946   3.473   1.309
 4293TIP3    H112843   2.889   3.546   1.284
 4293TIP3    H212844   2.913   3.399   1.258
 4294TIP3   OH212845   4.814   1.847   3.316
 4294TIP3    H112846   4.792   1.893   3.397
 4294TIP3    H212847   4.905   1.819   3.328
 4295TIP3   OH212848   6.529   6.500   3.866
 4295TIP3    H112849   6.492   6.516   3.953
 4295TIP3    H212850   6.480   6.557   3.807
 4296TIP3   OH212851   4.743   6.419   5.058
 4296TIP3    H112852   4.754   6.362   5.134
 4296TIP3    H212853   4.740   6.359   4.983
 4297TIP3   OH212854   4.048   1.819   5.431
 4297TIP3    H112855   4.091   1.752   5.485
 4297TIP3    H212856   3.997   1.871   5.493
 4298TIP3   OH212857   4.570   4.480   1.197
 4298TIP3    H112858   4.610   4.563   1.223
 4298TIP3    H212859   4.581   4.423   1.273
 4299TIP3   OH212860   6.013   4.387   4.299
 4299TIP3    H112861   6.011   4.303   4.346
 4299TIP3    H212862   5.955   4.444   4.350
 4300TIP3   OH212863   6.936   2.360   5.190
 4300TIP3    H112864   7.001   2.425   5.161
 4300TIP3    H212865   6.852   2.399   5.168
 4301TIP3   OH212866   7.195   2.027   1.812
 4301TIP3    H112867   7.194   2.092   1.742
 4301TIP3    H212868   7.110   1.983   1.806
 4302TIP3   OH212869   0.063   5.838   3.386
 4302TIP3    H112870  -0.030   5.857   3.391
 4302TIP3    H212871   0.075   5.758   3.437
 4303TIP3   OH212872   2.026   1.698   0.073
 4303TIP3    H112873   2.106   1.647   0.091
 4303TIP3    H212874   1.977   1.694   0.155
 4304TIP3   OH212875   4.198   0.630   3.009
 4304TIP3    H112876   4.283   0.672   2.999
 4304TIP3    H212877   4.217   0.545   3.049
 4305TIP3   OH212878   6.665   5.680   1.195
 4305TIP3    H112879   6.584   5.665   1.244
 4305TIP3    H212880   6.718   5.603   1.215
 4306TIP3   OH212881   4.911   0.424   1.951
 4306TIP3    H112882   4.957   0.369   1.887
 4306TIP3    H212883   4.955   0.406   2.033
 4307TIP3   OH212884   4.070   6.667   0.243
 4307TIP3    H112885   4.137   6.722   0.285
 4307TIP3    H212886   4.000   6.661   0.307
 4308TIP3   OH212887   3.122   6.528   4.061
 4308TIP3    H112888   3.049   6.506   4.118
 4308TIP3    H212889   3.144   6.619   4.083
 4309TIP3   OH212890   5.272   0.178   4.456
 4309TIP3    H112891   5.310   0.093   4.436
 4309TIP3    H212892   5.192   0.159   4.506
 4310TIP3   OH212893   6.376   3.267   4.653
 4310TIP3    H112894   6.400   3.192   4.707
 4310TIP3    H212895   6.436   3.336   4.679
 4311TIP3   OH212896   6.901   0.961   1.918
 4311TIP3    H112897   6.965   0.997   1.979
 4311TIP3    H212898   6.943   0.968   1.832
 4312TIP3   OH212899   4.268   3.344   0.366
 4312TIP3    H112900   4.299   3.434   0.378
 4312TIP3    H212901   4.224   3.324   0.449
 4313TIP3   OH212902   1.396   1.995   4.906
 4313TIP3    H112903   1.417   2.066   4.846
 4313TIP3    H212904   1.480   1.954   4.925
 4314TIP3   OH212905   1.014   2.734   5.578
 4314TIP3    H112906   0.932   2.693   5.550
 4314TIP3    H212907   0.987   2.813   5.624
 4315TIP3   OH212908   4.481   1.944   3.528
 4315TIP3    H112909   4.438   1.993   3.458
 4315TIP3    H212910   4.420   1.871   3.545
 4316TIP3   OH212911   0.976   4.819   2.523
 4316TIP3    H112912   0.938   4.736   2.493
 4316TIP3    H212913   1.047   4.837   2.461
 4317TIP3   OH212914   0.178   4.264   1.448
 4317TIP3    H112915   0.132   4.345   1.425
 4317TIP3    H212916   0.232   4.288   1.523
 4318TIP3   OH212917   6.298   3.079   4.438
 4318TIP3    H112918   6.390   3.053   4.429
 4318TIP3    H212919   6.300   3.150   4.503
 4319TIP3   OH212920   2.423   6.491   3.820
 4319TIP3    H112921   2.375   6.408   3.815
 4319TIP3    H212922   2.454   6.496   3.910
 4320TIP3   OH212923   2.911   6.512   0.981
 4320TIP3    H112924   2.847   6.445   0.959
 4320TIP3    H212925   2.885   6.543   1.068
 4321TIP3   OH212926   2.782   2.724   1.923
 4321TIP3    H112927   2.861   2.749   1.875
 4321TIP3    H212928   2.812   2.712   2.013
 4322TIP3   OH212929   3.134   2.960   0.433
 4322TIP3    H112930   3.049   2.955   0.389
 4322TIP3    H212931   3.131   2.892   0.500
 4323TIP3   OH212932   1.659   0.739   1.976
 4323TIP3    H112933   1.719   0.732   2.050
 4323TIP3    H212934   1.620   0.651   1.969
 4324TIP3   OH212935   2.748   3.387   5.617
 4324TIP3    H112936   2.671   3.354   5.571
 4324TIP3    H212937   2.820   3.374   5.556
 4325TIP3   OH212938   4.634   4.293   2.677
 4325TIP3    H112939   4.626   4.282   2.771
 4325TIP3    H212940   4.714   4.344   2.665
 4326TIP3   OH212941   0.577   1.689   3.430
 4326TIP3    H112942   0.649   1.689   3.493
 4326TIP3    H212943   0.536   1.775   3.441
 4327TIP3   OH212944   2.803   4.795   2.069
 4327TIP3    H112945   2.818   4.742   1.991
 4327TIP3    H212946   2.708   4.793   2.082
 4328TIP3   OH212947   5.710   6.052   4.363
 4328TIP3    H112948   5.691   6.020   4.452
 4328TIP3    H212949   5.805   6.054   4.358
 4329TIP3   OH212950   4.607   6.383   2.618
 4329TIP3    H112951   4.590   6.354   2.707
 4329TIP3    H212952   4.523   6.374   2.573
 4330TIP3   OH212953   6.616   4.751   2.953
 4330TIP3    H112954   6.622   4.808   2.877
 4330TIP3    H212955   6.611   4.811   3.028
 4331TIP3   OH212956   1.548   5.826   3.914
 4331TIP3    H112957   1.554   5.885   3.839
 4331TIP3    H212958   1.575   5.879   3.989
 4332TIP3   OH212959   4.034   2.955   4.387
 4332TIP3    H112960   3.948   2.917   4.369
 4332TIP3    H212961   4.095   2.881   4.382
 4333TIP3   OH212962   4.425   3.488   3.917
 4333TIP3    H112963   4.455   3.415   3.971
 4333TIP3    H212964   4.465   3.471   3.831
 4334TIP3   OH212965   1.506   5.143   4.386
 4334TIP3    H112966   1.441   5.074   4.400
 4334TIP3    H212967   1.582   5.115   4.437
 4335TIP3   OH212968   1.243   5.048   3.896
 4335TIP3    H112969   1.158   5.043   3.940
 4335TIP3    H212970   1.307   5.050   3.967
 4336TIP3   OH212971   4.785   2.094   5.897
 4336TIP3    H112972   4.752   2.131   5.815
 4336TIP3    H212973   4.863   2.044   5.871
 4337TIP3   OH212974   4.099   2.911   5.554
 4337TIP3    H112975   4.093   2.816   5.558
 4337TIP3    H212976   4.098   2.939   5.646
 4338TIP3   OH212977   4.063   0.904   0.038
 4338TIP3    H112978   4.096   0.821   0.003
 4338TIP3    H212979   4.135   0.966   0.025
 4339TIP3   OH212980   4.306   4.058   2.709
 4339TIP3    H112981   4.363   3.984   2.731
 4339TIP3    H212982   4.223   4.039   2.752
 4340TIP3   OH212983   1.323   4.930   4.714
 4340TIP3    H112984   1.263   4.954   4.644
 4340TIP3    H212985   1.410   4.934   4.674
 4341TIP3   OH212986   2.832   1.131   2.475
 4341TIP3    H112987   2.873   1.083   2.403
 4341TIP3    H212988   2.777   1.067   2.519
 4342TIP3   OH212989   0.037   4.598   2.649
 4342TIP3    H112990   0.065   4.510   2.673
 4342TIP3    H212991   0.040   4.647   2.731
 4343TIP3   OH212992   0.446   0.772   1.677
 4343TIP3    H112993   0.488   0.715   1.741
 4343TIP3    H212994   0.498   0.762   1.597
 4344TIP3   OH212995   5.733   2.521   5.663
 4344TIP3    H112996   5.768   2.588   5.604
 4344TIP3    H212997   5.648   2.497   5.624
 4345TIP3   OH212998   5.474   3.148   3.999
 4345TIP3    H112999   5.564   3.178   4.011
 4345TIP3    H213000   5.448   3.181   3.913
 4346TIP3   OH213001   2.641   0.728   4.518
 4346TIP3    H113002   2.673   0.671   4.587
 4346TIP3    H213003   2.626   0.670   4.443
 4347TIP3   OH213004   6.229   2.021   3.197
 4347TIP3    H113005   6.248   1.950   3.136
 4347TIP3    H213006   6.151   1.991   3.244
 4348TIP3   OH213007   0.670   4.077   1.548
 4348TIP3    H113008   0.595   4.017   1.548
 4348TIP3    H213009   0.743   4.024   1.580
 4349TIP3   OH213010   6.350   2.215   2.509
 4349TIP3    H113011   6.421   2.245   2.566
 4349TIP3    H213012   6.277   2.273   2.530
 4350TIP3   OH213013   2.328   0.013   2.746
 4350TIP3    H113014   2.238   0.020   2.778
 4350TIP3    H213015   2.321   0.020   2.651
 4351TIP3   OH213016   3.280   2.445   4.401
 4351TIP3    H113017   3.287   2.474   4.309
 4351TIP3    H213018   3.212   2.502   4.438
 4352TIP3   OH213019   4.344   4.662   0.687
 4352TIP3    H113020   4.300   4.655   0.772
 4352TIP3    H213021   4.286   4.716   0.634
 4353TIP3   OH213022   5.109   0.337   4.302
 4353TIP3    H113023   5.159   0.279   4.361
 4353TIP3    H213024   5.176   0.390   4.259
 4354TIP3   OH213025   3.577   6.308   1.451
 4354TIP3    H113026   3.625   6.391   1.444
 4354TIP3    H213027   3.614   6.265   1.528
 4355TIP3   OH213028   1.968   6.521   5.616
 4355TIP3    H113029   1.893   6.581   5.618
 4355TIP3    H213030   2.022   6.553   5.543
 4356TIP3   OH213031   6.319   4.007   2.952
 4356TIP3    H113032   6.335   3.913   2.942
 4356TIP3    H213033   6.225   4.016   2.934
 4357TIP3   OH213034   6.676   4.798   0.276
 4357TIP3    H113035   6.669   4.873   0.335
 4357TIP3    H213036   6.590   4.792   0.235
 4358TIP3   OH213037   1.316   1.850   5.128
 4358TIP3    H113038   1.323   1.919   5.062
 4358TIP3    H213039   1.233   1.807   5.109
 4359TIP3   OH213040   0.437   4.215   5.118
 4359TIP3    H113041   0.503   4.273   5.080
 4359TIP3    H213042   0.481   4.175   5.193
 4360TIP3   OH213043   2.560   5.101   0.524
 4360TIP3    H113044   2.474   5.129   0.555
 4360TIP3    H213045   2.542   5.024   0.470
 4361TIP3   OH213046   2.900   2.339   1.134
 4361TIP3    H113047   2.993   2.356   1.148
 4361TIP3    H213048   2.887   2.251   1.170
 4362TIP3   OH213049   3.889   4.627   1.898
 4362TIP3    H113050   3.897   4.706   1.844
 4362TIP3    H213051   3.845   4.564   1.841
 4363TIP3   OH213052   2.815   1.887   0.623
 4363TIP3    H113053   2.761   1.861   0.698
 4363TIP3    H213054   2.903   1.898   0.659
 4364TIP3   OH213055   5.095   3.606   5.759
 4364TIP3    H113056   5.154   3.674   5.790
 4364TIP3    H213057   5.149   3.553   5.700
 4365TIP3   OH213058   0.278   5.432   4.667
 4365TIP3    H113059   0.204   5.397   4.717
 4365TIP3    H213060   0.348   5.443   4.732
 4366TIP3   OH213061   3.588   5.460   0.159
 4366TIP3    H113062   3.493   5.454   0.143
 4366TIP3    H213063   3.617   5.535   0.108
 4367TIP3   OH213064   0.599   3.338   2.391
 4367TIP3    H113065   0.535   3.383   2.446
 4367TIP3    H213066   0.555   3.258   2.363
 4368TIP3   OH213067   3.538   0.193   0.168
 4368TIP3    H113068   3.593   0.268   0.145
 4368TIP3    H213069   3.476   0.187   0.095
 4369TIP3   OH213070   1.977   5.381   0.270
 4369TIP3    H113071   1.968   5.335   0.353
 4369TIP3    H213072   2.033   5.456   0.289
 4370TIP3   OH213073   3.939   4.545   4.241
 4370TIP3    H113074   3.917   4.593   4.161
 4370TIP3    H213075   4.034   4.559   4.251
 4371TIP3   OH213076   3.140   0.127   1.474
 4371TIP3    H113077   3.079   0.147   1.404
 4371TIP3    H213078   3.139   0.032   1.482
 4372TIP3   OH213079   5.873   1.985   3.761
 4372TIP3    H113080   5.833   1.930   3.829
 4372TIP3    H213081   5.967   1.976   3.775
 4373TIP3   OH213082   0.705   0.897   4.477
 4373TIP3    H113083   0.763   0.971   4.458
 4373TIP3    H213084   0.624   0.937   4.509
 4374TIP3   OH213085   5.310   2.247   3.136
 4374TIP3    H113086   5.297   2.155   3.111
 4374TIP3    H213087   5.404   2.254   3.153
 4375TIP3   OH213088   0.896   4.256   4.244
 4375TIP3    H113089   0.814   4.303   4.231
 4375TIP3    H213090   0.893   4.227   4.335
 4376TIP3   OH213091   5.867   0.981   1.508
 4376TIP3    H113092   5.877   0.939   1.423
 4376TIP3    H213093   5.829   1.067   1.489
 4377TIP3   OH213094   1.406   4.614   4.102
 4377TIP3    H113095   1.354   4.553   4.050
 4377TIP3    H213096   1.489   4.622   4.054
 4378TIP3   OH213097   4.192   2.754   3.374
 4378TIP3    H113098   4.194   2.844   3.342
 4378TIP3    H213099   4.279   2.740   3.411
 4379TIP3   OH213100   1.006   6.007   0.615
 4379TIP3    H113101   0.945   6.061   0.665
 4379TIP3    H213102   0.950   5.955   0.557
 4380TIP3   OH213103   5.592   2.644   2.017
 4380TIP3    H113104   5.632   2.669   2.100
 4380TIP3    H213105   5.651   2.678   1.950
 4381TIP3   OH213106   3.999   2.623   3.484
 4381TIP3    H113107   3.991   2.667   3.569
 4381TIP3    H213108   4.058   2.678   3.433
 4382TIP3   OH213109   0.010   5.577   4.044
 4382TIP3    H113110  -0.002   5.633   4.121
 4382TIP3    H213111   0.076   5.513   4.071
 4383TIP3   OH213112   3.171   3.973   1.662
 4383TIP3    H113113   3.219   3.921   1.727
 4383TIP3    H213114   3.208   3.945   1.578
 4384TIP3   OH213115   5.697   2.417   3.179
 4384TIP3    H113116   5.779   2.459   3.155
 4384TIP3    H213117   5.666   2.465   3.256
 4385TIP3   OH213118   2.412   2.969   5.170
 4385TIP3    H113119   2.427   3.063   5.161
 4385TIP3    H213120   2.318   2.960   5.181
 4386TIP3   OH213121   6.817   5.107   0.034
 4386TIP3    H113122   6.746   5.169   0.012
 4386TIP3    H213123   6.784   5.022   0.005
 4387TIP3   OH213124   1.152   5.333   2.654
 4387TIP3    H113125   1.118   5.264   2.711
 4387TIP3    H213126   1.173   5.405   2.714
 4388TIP3   OH213127   6.194   4.677   4.653
 4388TIP3    H113128   6.211   4.584   4.668
 4388TIP3    H213129   6.260   4.702   4.589
 4389TIP3   OH213130   1.943   6.115   5.291
 4389TIP3    H113131   1.867   6.110   5.232
 4389TIP3    H213132   1.938   6.036   5.344
 4390TIP3   OH213133   5.065   3.003   0.526
 4390TIP3    H113134   4.972   3.005   0.549
 4390TIP3    H213135   5.089   2.911   0.530
 4391TIP3   OH213136   4.086   6.702   4.054
 4391TIP3    H113137   4.057   6.634   4.115
 4391TIP3    H213138   4.056   6.672   3.968
 4392TIP3   OH213139   6.149   6.328   0.751
 4392TIP3    H113140   6.151   6.243   0.795
 4392TIP3    H213141   6.117   6.388   0.818
 4393TIP3   OH213142   6.170   5.142   1.500
 4393TIP3    H113143   6.155   5.236   1.509
 4393TIP3    H213144   6.158   5.124   1.407
 4394TIP3   OH213145   5.736   3.897   5.425
 4394TIP3    H113146   5.667   3.952   5.462
 4394TIP3    H213147   5.773   3.949   5.355
 4395TIP3   OH213148   0.780   4.811   3.508
 4395TIP3    H113149   0.732   4.854   3.579
 4395TIP3    H213150   0.820   4.883   3.459
 4396TIP3   OH213151   2.176   4.077   1.196
 4396TIP3    H113152   2.270   4.066   1.211
 4396TIP3    H213153   2.148   4.141   1.261
 4397TIP3   OH213154   2.273   4.706   1.248
 4397TIP3    H113155   2.363   4.678   1.234
 4397TIP3    H213156   2.224   4.669   1.174
 4398TIP3   OH213157   1.983   4.373   5.139
 4398TIP3    H113158   2.011   4.332   5.221
 4398TIP3    H213159   2.005   4.466   5.151
 4399TIP3   OH213160   6.475   2.088   3.320
 4399TIP3    H113161   6.397   2.065   3.270
 4399TIP3    H213162   6.533   2.130   3.256
 4400TIP3   OH213163   3.436   2.770   4.291
 4400TIP3    H113164   3.447   2.833   4.220
 4400TIP3    H213165   3.345   2.780   4.318
 4401TIP3   OH213166   4.984   5.313   3.215
 4401TIP3    H113167   5.061   5.368   3.206
 4401TIP3    H213168   4.969   5.277   3.127
 4402TIP3   OH213169   1.670   6.049   2.480
 4402TIP3    H113170   1.739   6.076   2.540
 4402TIP3    H213171   1.608   6.122   2.480
 4403TIP3   OH213172   1.482   4.084   4.952
 4403TIP3    H113173   1.413   4.092   4.886
 4403TIP3    H213174   1.445   4.124   5.031
 4404TIP3   OH213175   4.754   0.709   5.193
 4404TIP3    H113176   4.809   0.683   5.119
 4404TIP3    H213177   4.751   0.804   5.189
 4405TIP3   OH213178   0.121   0.558   5.773
 4405TIP3    H113179   0.081   0.639   5.805
 4405TIP3    H213180   0.069   0.488   5.812
 4406TIP3   OH213181   2.545   0.404   0.939
 4406TIP3    H113182   2.587   0.391   0.854
 4406TIP3    H213183   2.615   0.439   0.995
 4407TIP3   OH213184   7.144   1.697   1.637
 4407TIP3    H113185   7.075   1.631   1.638
 4407TIP3    H213186   7.100   1.778   1.612
 4408TIP3   OH213187   4.568   3.692   4.354
 4408TIP3    H113188   4.590   3.755   4.286
 4408TIP3    H213189   4.615   3.612   4.330
 4409TIP3   OH213190   6.574   4.386   4.566
 4409TIP3    H113191   6.584   4.481   4.565
 4409TIP3    H213192   6.544   4.365   4.654
 4410TIP3   OH213193   0.785   2.513   4.125
 4410TIP3    H113194   0.747   2.533   4.211
 4410TIP3    H213195   0.760   2.588   4.070
 4411TIP3   OH213196   3.634   1.240   1.103
 4411TIP3    H113197   3.609   1.237   1.011
 4411TIP3    H213198   3.598   1.323   1.135
 4412TIP3   OH213199   0.687   4.438   4.887
 4412TIP3    H113200   0.701   4.491   4.966
 4412TIP3    H213201   0.636   4.363   4.917
 4413TIP3   OH213202   4.105   5.551   2.616
 4413TIP3    H113203   4.105   5.479   2.552
 4413TIP3    H213204   4.107   5.630   2.563
 4414TIP3   OH213205   0.124   4.789   0.686
 4414TIP3    H113206   0.145   4.841   0.609
 4414TIP3    H213207   0.073   4.848   0.742
 4415TIP3   OH213208   3.381   4.206   3.214
 4415TIP3    H113209   3.384   4.295   3.250
 4415TIP3    H213210   3.370   4.219   3.119
 4416TIP3   OH213211   5.314   0.019   0.571
 4416TIP3    H113212   5.387   0.041   0.512
 4416TIP3    H213213   5.354  -0.038   0.637
 4417TIP3   OH213214   6.149   3.008   4.032
 4417TIP3    H113215   6.164   2.918   4.002
 4417TIP3    H213216   6.202   3.062   3.974
 4418TIP3   OH213217   1.713   4.847   3.631
 4418TIP3    H113218   1.781   4.824   3.694
 4418TIP3    H213219   1.738   4.935   3.600
 4419TIP3   OH213220   1.335   5.432   3.556
 4419TIP3    H113221   1.361   5.347   3.593
 4419TIP3    H213222   1.417   5.480   3.548
 4420TIP3   OH213223   3.535   4.942   0.977
 4420TIP3    H113224   3.549   4.913   1.067
 4420TIP3    H213225   3.441   4.957   0.971
 4421TIP3   OH213226   0.137   3.633   4.342
 4421TIP3    H113227   0.188   3.672   4.272
 4421TIP3    H213228   0.181   3.663   4.422
 4422TIP3   OH213229   3.635   2.311   1.796
 4422TIP3    H113230   3.631   2.232   1.850
 4422TIP3    H213231   3.651   2.279   1.708
 4423TIP3   OH213232   6.673   4.143   2.859
 4423TIP3    H113233   6.654   4.196   2.937
 4423TIP3    H213234   6.657   4.053   2.886
 4424TIP3   OH213235   5.235   1.340   0.461
 4424TIP3    H113236   5.176   1.374   0.527
 4424TIP3    H213237   5.289   1.276   0.508
 4425TIP3   OH213238   3.031   1.503   2.659
 4425TIP3    H113239   3.002   1.414   2.645
 4425TIP3    H213240   3.113   1.510   2.611
 4426TIP3   OH213241   0.380   2.655   2.502
 4426TIP3    H113242   0.376   2.668   2.597
 4426TIP3    H213243   0.393   2.743   2.467
 4427TIP3   OH213244   2.100   3.539   1.571
 4427TIP3    H113245   2.107   3.614   1.630
 4427TIP3    H213246   2.015   3.551   1.527
 4428TIP3   OH213247   3.817   6.663   2.308
 4428TIP3    H113248   3.865   6.624   2.234
 4428TIP3    H213249   3.804   6.590   2.369
 4429TIP3   OH213250   2.794   3.131   4.443
 4429TIP3    H113251   2.839   3.046   4.445
 4429TIP3    H213252   2.792   3.158   4.535
 4430TIP3   OH213253   7.121   2.316   3.333
 4430TIP3    H113254   7.037   2.279   3.305
 4430TIP3    H213255   7.098   2.381   3.399
 4431TIP3   OH213256   4.738   6.017   5.289
 4431TIP3    H113257   4.802   6.008   5.359
 4431TIP3    H213258   4.720   5.927   5.260
 4432TIP3   OH213259   1.796   1.020   2.923
 4432TIP3    H113260   1.822   0.961   2.853
 4432TIP3    H213261   1.739   0.967   2.980
 4433TIP3   OH213262   2.060   5.443   4.607
 4433TIP3    H113263   2.057   5.512   4.541
 4433TIP3    H213264   2.153   5.422   4.616
 4434TIP3   OH213265   7.049   2.021   4.884
 4434TIP3    H113266   6.961   2.015   4.845
 4434TIP3    H213267   7.073   2.113   4.873
 4435TIP3   OH213268   0.438   5.722   3.464
 4435TIP3    H113269   0.425   5.755   3.375
 4435TIP3    H213270   0.354   5.734   3.507
 4436TIP3   OH213271   4.209   0.248   2.093
 4436TIP3    H113272   4.122   0.286   2.101
 4436TIP3    H213273   4.265   0.307   2.144
 4437TIP3   OH213274   3.126   0.823   4.439
 4437TIP3    H113275   3.094   0.752   4.382
 4437TIP3    H213276   3.176   0.779   4.507
 4438TIP3   OH213277   3.488   6.647   3.260
 4438TIP3    H113278   3.469   6.651   3.166
 4438TIP3    H213279   3.531   6.730   3.279
 4439TIP3   OH213280   0.733   2.242   1.734
 4439TIP3    H113281   0.710   2.298   1.809
 4439TIP3    H213282   0.819   2.273   1.707
 4440TIP3   OH213283   4.970   5.949   5.444
 4440TIP3    H113284   5.010   5.863   5.434
 4440TIP3    H213285   4.983   5.971   5.536
 4441TIP3   OH213286   5.891   5.402   0.657
 4441TIP3    H113287   5.818   5.442   0.705
 4441TIP3    H213288   5.868   5.309   0.653
 4442TIP3   OH213289   0.359   0.905   2.782
 4442TIP3    H113290   0.443   0.951   2.779
 4442TIP3    H213291   0.343   0.893   2.876
 4443TIP3   OH213292   6.288   0.106   2.509
 4443TIP3    H113293   6.239   0.040   2.460
 4443TIP3    H213294   6.253   0.190   2.479
 4444TIP3   OH213295   5.797   3.657   4.320
 4444TIP3    H113296   5.828   3.571   4.290
 4444TIP3    H213297   5.702   3.646   4.329
 4445TIP3   OH213298   2.306   6.670   2.341
 4445TIP3    H113299   2.290   6.639   2.252
 4445TIP3    H213300   2.324   6.590   2.391
 4446TIP3   OH213301   4.552   4.831   1.690
 4446TIP3    H113302   4.513   4.917   1.681
 4446TIP3    H213303   4.536   4.807   1.782
 4447TIP3   OH213304   6.965   1.720   2.901
 4447TIP3    H113305   7.034   1.659   2.873
 4447TIP3    H213306   6.998   1.756   2.983
 4448TIP3   OH213307   2.500   4.254   3.152
 4448TIP3    H113308   2.469   4.258   3.243
 4448TIP3    H213309   2.576   4.198   3.155
 4449TIP3   OH213310   5.819   2.281   4.245
 4449TIP3    H113311   5.810   2.247   4.156
 4449TIP3    H213312   5.729   2.281   4.279
 4450TIP3   OH213313   1.143   6.163   2.194
 4450TIP3    H113314   1.061   6.141   2.150
 4450TIP3    H213315   1.163   6.087   2.248
 4451TIP3   OH213316   5.157   2.106   2.712
 4451TIP3    H113317   5.192   2.195   2.703
 4451TIP3    H213318   5.062   2.118   2.717
 4452TIP3   OH213319   7.073   2.812   0.492
 4452TIP3    H113320   7.073   2.907   0.507
 4452TIP3    H213321   7.164   2.786   0.504
 4453TIP3   OH213322   0.729   6.091   5.706
 4453TIP3    H113323   0.769   6.170   5.742
 4453TIP3    H213324   0.658   6.071   5.767
 4454TIP3   OH213325   4.769   2.054   4.585
 4454TIP3    H113326   4.783   2.030   4.677
 4454TIP3    H213327   4.794   1.975   4.536
 4455TIP3   OH213328   0.906   5.849   3.158
 4455TIP3    H113329   0.811   5.857   3.170
 4455TIP3    H213330   0.943   5.891   3.236
 4456TIP3   OH213331   4.108   4.870   5.862
 4456TIP3    H113332   4.196   4.848   5.892
 4456TIP3    H213333   4.122   4.921   5.782
 4457TIP3   OH213334   5.722   6.450   2.731
 4457TIP3    H113335   5.762   6.391   2.795
 4457TIP3    H213336   5.751   6.537   2.757
 4458TIP3   OH213337   6.699   3.355   2.326
 4458TIP3    H113338   6.692   3.260   2.334
 4458TIP3    H213339   6.793   3.373   2.331
 4459TIP3   OH213340   1.295   4.736   5.570
 4459TIP3    H113341   1.324   4.646   5.556
 4459TIP3    H213342   1.341   4.786   5.503
 4460TIP3   OH213343   4.216   0.968   0.461
 4460TIP3    H113344   4.243   0.891   0.411
 4460TIP3    H213345   4.158   0.934   0.529
 4461TIP3   OH213346   4.186   5.467   5.234
 4461TIP3    H113347   4.219   5.414   5.307
 4461TIP3    H213348   4.093   5.481   5.255
 4462TIP3   OH213349   2.423   1.078   1.741
 4462TIP3    H113350   2.491   1.141   1.764
 4462TIP3    H213351   2.471   1.000   1.713
 4463TIP3   OH213352   0.263   4.454   0.523
 4463TIP3    H113353   0.355   4.472   0.504
 4463TIP3    H213354   0.215   4.522   0.475
 4464TIP3   OH213355   5.610   1.917   3.121
 4464TIP3    H113356   5.642   1.876   3.201
 4464TIP3    H213357   5.586   2.006   3.146
 4465TIP3   OH213358   2.438   5.045   3.095
 4465TIP3    H113359   2.527   5.072   3.071
 4465TIP3    H213360   2.396   5.023   3.012
 4466TIP3   OH213361   1.260   6.314   5.232
 4466TIP3    H113362   1.207   6.392   5.211
 4466TIP3    H213363   1.243   6.254   5.159
 4467TIP3   OH213364   1.399   1.371   3.291
 4467TIP3    H113365   1.464   1.311   3.254
 4467TIP3    H213366   1.343   1.394   3.217
 4468TIP3   OH213367   2.799   4.791   2.677
 4468TIP3    H113368   2.781   4.884   2.689
 4468TIP3    H213369   2.878   4.775   2.729
 4469TIP3   OH213370   3.289   0.976   4.239
 4469TIP3    H113371   3.340   1.032   4.298
 4469TIP3    H213372   3.219   0.940   4.294
 4470TIP3   OH213373   1.838   2.659   5.353
 4470TIP3    H113374   1.853   2.718   5.279
 4470TIP3    H213375   1.893   2.584   5.336
 4471TIP3   OH213376   1.375   2.556   2.913
 4471TIP3    H113377   1.349   2.487   2.974
 4471TIP3    H213378   1.470   2.566   2.926
 4472TIP3   OH213379   7.037   1.353   0.491
 4472TIP3    H113380   7.047   1.261   0.517
 4472TIP3    H213381   6.960   1.383   0.539
 4473TIP3   OH213382   4.954   0.626   0.563
 4473TIP3    H113383   4.970   0.636   0.469
 4473TIP3    H213384   4.947   0.532   0.576
 4474TIP3   OH213385   5.535   6.659   4.914
 4474TIP3    H113386   5.557   6.635   4.824
 4474TIP3    H213387   5.558   6.581   4.965
 4475TIP3   OH213388   0.278   5.383   2.111
 4475TIP3    H113389   0.310   5.342   2.191
 4475TIP3    H213390   0.278   5.476   2.130
 4476TIP3   OH213391   4.044   6.308   0.834
 4476TIP3    H113392   3.998   6.255   0.899
 4476TIP3    H213393   4.137   6.285   0.847
 4477TIP3   OH213394   4.040   6.347   5.301
 4477TIP3    H113395   4.047   6.441   5.318
 4477TIP3    H213396   4.107   6.330   5.235
 4478TIP3   OH213397   4.728   4.581   3.927
 4478TIP3    H113398   4.740   4.592   3.833
 4478TIP3    H213399   4.647   4.627   3.947
 4479TIP3   OH213400   5.337   5.318   4.727
 4479TIP3    H113401   5.410   5.261   4.705
 4479TIP3    H213402   5.276   5.308   4.655
 4480TIP3   OH213403   5.107   1.522   4.730
 4480TIP3    H113404   5.174   1.530   4.662
 4480TIP3    H213405   5.055   1.602   4.722
 4481TIP3   OH213406   1.335   5.769   1.679
 4481TIP3    H113407   1.350   5.677   1.660
 4481TIP3    H213408   1.268   5.769   1.748
 4482TIP3   OH213409   6.547   1.765   1.026
 4482TIP3    H113410   6.609   1.818   1.077
 4482TIP3    H213411   6.469   1.819   1.020
 4483TIP3   OH213412   6.876   2.485   4.893
 4483TIP3    H113413   6.841   2.500   4.981
 4483TIP3    H213414   6.798   2.479   4.838
 4484TIP3   OH213415   0.050   3.490   1.561
 4484TIP3    H113416   0.007   3.570   1.589
 4484TIP3    H213417   0.104   3.516   1.486
 4485TIP3   OH213418   4.263   2.102   5.597
 4485TIP3    H113419   4.249   2.187   5.639
 4485TIP3    H213420   4.217   2.109   5.513
 4486TIP3   OH213421   2.324   2.326   2.175
 4486TIP3    H113422   2.336   2.320   2.270
 4486TIP3    H213423   2.253   2.389   2.163
 4487TIP3   OH213424   2.391   0.786   2.735
 4487TIP3    H113425   2.313   0.730   2.744
 4487TIP3    H213426   2.458   0.742   2.788
 4488TIP3   OH213427   3.437   6.160   0.382
 4488TIP3    H113428   3.409   6.199   0.465
 4488TIP3    H213429   3.382   6.082   0.372
 4489TIP3   OH213430   3.295   4.200   0.079
 4489TIP3    H113431   3.285   4.188  -0.015
 4489TIP3    H213432   3.388   4.186   0.095
 4490TIP3   OH213433   6.251   2.754   2.462
 4490TIP3    H113434   6.342   2.780   2.445
 4490TIP3    H213435   6.199   2.812   2.406
 4491TIP3   OH213436   3.426   3.647   3.957
 4491TIP3    H113437   3.344   3.631   4.003
 4491TIP3    H213438   3.492   3.599   4.008
 4492TIP3   OH213439   4.697   0.286   3.081
 4492TIP3    H113440   4.636   0.274   3.008
 4492TIP3    H213441   4.726   0.198   3.103
 4493TIP3   OH213442   3.712   3.184   3.164
 4493TIP3    H113443   3.621   3.214   3.170
 4493TIP3    H213444   3.750   3.236   3.093
 4494TIP3   OH213445   3.152   3.581   4.647
 4494TIP3    H113446   3.098   3.630   4.709
 4494TIP3    H213447   3.093   3.514   4.612
 4495TIP3   OH213448   3.933   6.650   3.839
 4495TIP3    H113449   3.863   6.685   3.894
 4495TIP3    H213450   3.896   6.649   3.751
 4496TIP3   OH213451   6.235   0.076   1.921
 4496TIP3    H113452   6.251   0.035   1.836
 4496TIP3    H213453   6.301   0.144   1.929
 4497TIP3   OH213454   5.771   4.579   5.405
 4497TIP3    H113455   5.799   4.534   5.326
 4497TIP3    H213456   5.704   4.640   5.375
 4498TIP3   OH213457   0.336   2.473   0.408
 4498TIP3    H113458   0.365   2.556   0.371
 4498TIP3    H213459   0.295   2.427   0.335
 4499TIP3   OH213460   3.677   1.833   0.929
 4499TIP3    H113461   3.690   1.841   0.834
 4499TIP3    H213462   3.758   1.790   0.960
 4500TIP3   OH213463   0.974   5.311   5.700
 4500TIP3    H113464   1.041   5.286   5.764
 4500TIP3    H213465   0.989   5.253   5.626
 4501TIP3   OH213466   3.522   5.537   2.161
 4501TIP3    H113467   3.533   5.457   2.110
 4501TIP3    H213468   3.530   5.607   2.097
 4502TIP3   OH213469   3.612   3.886   2.387
 4502TIP3    H113470   3.585   3.794   2.380
 4502TIP3    H213471   3.556   3.922   2.455
 4503TIP3   OH213472   0.200   2.156   1.059
 4503TIP3    H113473   0.109   2.171   1.083
 4503TIP3    H213474   0.204   2.172   0.965
 4504TIP3   OH213475   6.893   6.194   1.928
 4504TIP3    H113476   6.805   6.203   1.891
 4504TIP3    H213477   6.894   6.255   2.002
 4505TIP3   OH213478   4.124   3.030   5.096
 4505TIP3    H113479   4.085   3.115   5.073
 4505TIP3    H213480   4.116   3.026   5.192
 4506TIP3   OH213481   4.256   3.964   1.242
 4506TIP3    H113482   4.257   3.875   1.206
 4506TIP3    H213483   4.344   3.997   1.226
 4507TIP3   OH213484   3.109   6.743   3.727
 4507TIP3    H113485   3.112   6.748   3.631
 4507TIP3    H213486   3.180   6.683   3.750
 4508TIP3   OH213487   6.737   2.437   2.143
 4508TIP3    H113488   6.741   2.392   2.227
 4508TIP3    H213489   6.779   2.522   2.158
 4509TIP3   OH213490   3.406   6.328   0.153
 4509TIP3    H113491   3.422   6.275   0.231
 4509TIP3    H213492   3.394   6.417   0.186
 4510TIP3   OH213493   0.797   0.699   1.519
 4510TIP3    H113494   0.818   0.606   1.512
 4510TIP3    H213495   0.824   0.736   1.435
 4511TIP3   OH213496   4.651   2.099   2.959
 4511TIP3    H113497   4.558   2.091   2.938
 4511TIP3    H213498   4.692   2.118   2.875
 4512TIP3   OH213499   1.622   3.699   1.426
 4512TIP3    H113500   1.555   3.764   1.404
 4512TIP3    H213501   1.704   3.740   1.401
 4513TIP3   OH213502   4.488   6.487   1.247
 4513TIP3    H113503   4.481   6.517   1.156
 4513TIP3    H213504   4.398   6.469   1.273
 4514TIP3   OH213505   0.231   4.929   2.450
 4514TIP3    H113506   0.171   4.869   2.405
 4514TIP3    H213507   0.267   4.984   2.381
 4515TIP3   OH213508   5.003   6.158   2.929
 4515TIP3    H113509   4.992   6.235   2.985
 4515TIP3    H213510   5.015   6.085   2.990
 4516TIP3   OH213511   2.195   2.965   0.793
 4516TIP3    H113512   2.189   3.005   0.880
 4516TIP3    H213513   2.161   3.031   0.733
 4517TIP3   OH213514   2.264   6.259   4.550
 4517TIP3    H113515   2.273   6.327   4.484
 4517TIP3    H213516   2.334   6.196   4.530
 4518TIP3   OH213517   2.700   1.109   2.961
 4518TIP3    H113518   2.651   1.188   2.984
 4518TIP3    H213519   2.785   1.142   2.931
 4519TIP3   OH213520   2.436   5.034   5.728
 4519TIP3    H113521   2.508   4.977   5.753
 4519TIP3    H213522   2.390   5.053   5.809
 4520TIP3   OH213523   1.055   2.559   5.789
 4520TIP3    H113524   1.051   2.517   5.703
 4520TIP3    H213525   0.975   2.610   5.796
 4521TIP3   OH213526   1.769   3.304   1.673
 4521TIP3    H113527   1.720   3.257   1.740
 4521TIP3    H213528   1.708   3.369   1.638
 4522TIP3   OH213529   5.751   0.601   5.820
 4522TIP3    H113530   5.810   0.544   5.772
 4522TIP3    H213531   5.808   0.654   5.875
 4523TIP3   OH213532   0.470   3.376   4.195
 4523TIP3    H113533   0.484   3.371   4.101
 4523TIP3    H213534   0.376   3.365   4.206
 4524TIP3   OH213535   5.858   3.639   5.114
 4524TIP3    H113536   5.864   3.651   5.019
 4524TIP3    H213537   5.937   3.589   5.136
 4525TIP3   OH213538   2.664   5.281   1.463
 4525TIP3    H113539   2.731   5.260   1.398
 4525TIP3    H213540   2.587   5.305   1.412
 4526TIP3   OH213541   0.501   4.569   0.512
 4526TIP3    H113542   0.544   4.503   0.566
 4526TIP3    H213543   0.571   4.607   0.459
 4527TIP3   OH213544   6.229   0.852   3.781
 4527TIP3    H113545   6.169   0.925   3.769
 4527TIP3    H213546   6.194   0.783   3.724
 4528TIP3   OH213547   5.249   0.504   2.011
 4528TIP3    H113548   5.173   0.529   2.064
 4528TIP3    H213549   5.229   0.536   1.924
 4529TIP3   OH213550   2.687   6.089   3.970
 4529TIP3    H113551   2.660   6.026   3.903
 4529TIP3    H213552   2.773   6.057   3.998
 4530TIP3   OH213553   6.051   6.501   5.098
 4530TIP3    H113554   6.135   6.522   5.057
 4530TIP3    H213555   5.989   6.495   5.025
 4531TIP3   OH213556   0.800   0.605   5.535
 4531TIP3    H113557   0.712   0.601   5.496
 4531TIP3    H213558   0.812   0.519   5.574
 4532TIP3   OH213559   3.348   1.720   1.321
 4532TIP3    H113560   3.296   1.750   1.247
 4532TIP3    H213561   3.356   1.797   1.377
 4533TIP3   OH213562   2.383   0.353   2.511
 4533TIP3    H113563   2.318   0.346   2.581
 4533TIP3    H213564   2.467   0.342   2.557
 4534TIP3   OH213565   1.468   2.825   3.563
 4534TIP3    H113566   1.509   2.758   3.617
 4534TIP3    H213567   1.528   2.835   3.489
 4535TIP3   OH213568   6.914   4.514   3.389
 4535TIP3    H113569   6.832   4.503   3.340
 4535TIP3    H213570   6.896   4.587   3.448
 4536TIP3   OH213571   1.834   0.485   1.630
 4536TIP3    H113572   1.875   0.541   1.564
 4536TIP3    H213573   1.903   0.424   1.656
 4537TIP3   OH213574   5.586   1.933   5.421
 4537TIP3    H113575   5.550   1.970   5.502
 4537TIP3    H213576   5.639   2.004   5.384
 4538TIP3   OH213577   4.708   3.408   3.483
 4538TIP3    H113578   4.803   3.397   3.486
 4538TIP3    H213579   4.676   3.324   3.450
 4539TIP3   OH213580   6.896   5.284   3.395
 4539TIP3    H113581   6.854   5.332   3.324
 4539TIP3    H213582   6.825   5.266   3.457
 4540TIP3   OH213583   3.696   1.176   4.562
 4540TIP3    H113584   3.774   1.223   4.531
 4540TIP3    H213585   3.730   1.095   4.600
 4541TIP3   OH213586   5.507   4.673   5.133
 4541TIP3    H113587   5.588   4.722   5.150
 4541TIP3    H213588   5.456   4.731   5.077
 4542TIP3   OH213589   5.455   4.567   1.135
 4542TIP3    H113590   5.504   4.631   1.084
 4542TIP3    H213591   5.388   4.534   1.075
 4543TIP3   OH213592   1.087   2.109   0.568
 4543TIP3    H113593   1.128   2.071   0.646
 4543TIP3    H213594   1.138   2.074   0.495
 4544TIP3   OH213595   2.558   1.470   1.423
 4544TIP3    H113596   2.526   1.447   1.511
 4544TIP3    H213597   2.496   1.427   1.363
 4545TIP3   OH213598   2.019   0.232   1.218
 4545TIP3    H113599   2.084   0.301   1.210
 4545TIP3    H213600   2.020   0.188   1.133
 4546TIP3   OH213601   4.284   5.284   0.587
 4546TIP3    H113602   4.345   5.340   0.635
 4546TIP3    H213603   4.295   5.309   0.496
 4547TIP3   OH213604   3.625   1.924   1.347
 4547TIP3    H113605   3.676   1.852   1.309
 4547TIP3    H213606   3.646   1.920   1.441
 4548TIP3   OH213607   2.120   0.839   3.804
 4548TIP3    H113608   2.056   0.799   3.863
 4548TIP3    H213609   2.069   0.902   3.753
 4549TIP3   OH213610   0.348   1.065   5.038
 4549TIP3    H113611   0.264   1.101   5.010
 4549TIP3    H213612   0.409   1.139   5.032
 4550TIP3   OH213613   4.406   5.219   1.152
 4550TIP3    H113614   4.365   5.280   1.090
 4550TIP3    H213615   4.500   5.236   1.143
 4551TIP3   OH213616   5.950   5.930   2.895
 4551TIP3    H113617   5.897   5.877   2.956
 4551TIP3    H213618   5.950   5.879   2.814
 4552TIP3   OH213619   1.562   0.460   1.934
 4552TIP3    H113620   1.557   0.473   1.839
 4552TIP3    H213621   1.588   0.368   1.944
 4553TIP3   OH213622   6.891   2.150   3.255
 4553TIP3    H113623   6.910   2.058   3.237
 4553TIP3    H213624   6.812   2.168   3.203
 4554TIP3   OH213625   1.217   2.142   3.885
 4554TIP3    H113626   1.256   2.074   3.939
 4554TIP3    H213627   1.263   2.136   3.801
 4555TIP3   OH213628   1.877   4.910   5.430
 4555TIP3    H113629   1.823   4.916   5.351
 4555TIP3    H213630   1.957   4.958   5.408
 4556TIP3   OH213631   5.859   4.122   0.764
 4556TIP3    H113632   5.850   4.164   0.679
 4556TIP3    H213633   5.872   4.195   0.825
 4557TIP3   OH213634   0.417   6.220   4.358
 4557TIP3    H113635   0.456   6.175   4.283
 4557TIP3    H213636   0.449   6.310   4.351
 4558TIP3   OH213637   0.650   4.356   3.387
 4558TIP3    H113638   0.613   4.444   3.377
 4558TIP3    H213639   0.702   4.360   3.466
 4559TIP3   OH213640   1.290   0.732   3.220
 4559TIP3    H113641   1.226   0.749   3.290
 4559TIP3    H213642   1.300   0.637   3.221
 4560TIP3   OH213643   1.918   1.088   4.530
 4560TIP3    H113644   1.983   1.108   4.597
 4560TIP3    H213645   1.927   0.994   4.515
 4561TIP3   OH213646   0.094   4.983   1.822
 4561TIP3    H113647   0.144   5.065   1.823
 4561TIP3    H213648   0.160   4.915   1.811
 4562TIP3   OH213649   4.684   0.430   3.338
 4562TIP3    H113650   4.697   0.391   3.252
 4562TIP3    H213651   4.773   0.438   3.374
 4563TIP3   OH213652   1.615   5.086   2.929
 4563TIP3    H113653   1.641   5.076   3.020
 4563TIP3    H213654   1.686   5.046   2.879
 4564TIP3   OH213655   0.724   6.135   2.470
 4564TIP3    H113656   0.742   6.219   2.427
 4564TIP3    H213657   0.794   6.126   2.535
 4565TIP3   OH213658   3.997   5.523   2.887
 4565TIP3    H113659   4.073   5.522   2.945
 4565TIP3    H213660   4.032   5.548   2.802
 4566TIP3   OH213661   6.904   0.027   5.285
 4566TIP3    H113662   6.891   0.085   5.360
 4566TIP3    H213663   6.963  -0.041   5.317
 4567TIP3   OH213664   1.877   2.605   0.223
 4567TIP3    H113665   1.816   2.568   0.286
 4567TIP3    H213666   1.919   2.529   0.183
 4568TIP3   OH213667   4.858   6.291   0.135
 4568TIP3    H113668   4.890   6.378   0.110
 4568TIP3    H213669   4.866   6.289   0.230
 4569TIP3   OH213670   6.720   2.490   5.439
 4569TIP3    H113671   6.745   2.399   5.454
 4569TIP3    H213672   6.732   2.532   5.525
 4570TIP3   OH213673   3.795   4.048   4.141
 4570TIP3    H113674   3.784   4.141   4.161
 4570TIP3    H213675   3.883   4.027   4.171
 4571TIP3   OH213676   0.209   0.971   1.360
 4571TIP3    H113677   0.211   1.026   1.282
 4571TIP3    H213678   0.223   0.882   1.327
 4572TIP3   OH213679   6.496   3.176   0.475
 4572TIP3    H113680   6.443   3.098   0.457
 4572TIP3    H213681   6.573   3.165   0.419
 4573TIP3   OH213682   6.549   0.934   2.429
 4573TIP3    H113683   6.574   0.913   2.339
 4573TIP3    H213684   6.458   0.961   2.423
 4574TIP3   OH213685   3.623   5.976   4.468
 4574TIP3    H113686   3.689   6.019   4.522
 4574TIP3    H213687   3.656   5.986   4.379
 4575TIP3   OH213688   3.963   5.252   5.280
 4575TIP3    H113689   3.909   5.209   5.346
 4575TIP3    H213690   4.036   5.192   5.264
 4576TIP3   OH213691   7.152   2.055   2.977
 4576TIP3    H113692   7.157   2.075   3.070
 4576TIP3    H213693   7.238   2.078   2.942
 4577TIP3   OH213694   5.446   6.173   5.659
 4577TIP3    H113695   5.511   6.244   5.654
 4577TIP3    H213696   5.378   6.207   5.718
 4578TIP3   OH213697   6.182   5.502   2.827
 4578TIP3    H113698   6.274   5.504   2.799
 4578TIP3    H213699   6.153   5.413   2.809
 4579TIP3   OH213700   2.894   6.215   4.414
 4579TIP3    H113701   2.870   6.273   4.486
 4579TIP3    H213702   2.955   6.153   4.454
 4580TIP3   OH213703   5.824   3.182   2.164
 4580TIP3    H113704   5.798   3.160   2.253
 4580TIP3    H213705   5.838   3.098   2.121
 4581TIP3   OH213706   2.012   0.631   2.114
 4581TIP3    H113707   2.061   0.712   2.128
 4581TIP3    H213708   1.928   0.646   2.158
 4582TIP3   OH213709   5.179   4.527   0.801
 4582TIP3    H113710   5.137   4.613   0.813
 4582TIP3    H213711   5.110   4.472   0.763
 4583TIP3   OH213712   5.465   5.412   0.610
 4583TIP3    H113713   5.456   5.317   0.608
 4583TIP3    H213714   5.508   5.431   0.693
 4584TIP3   OH213715   4.147   3.142   1.791
 4584TIP3    H113716   4.064   3.155   1.746
 4584TIP3    H213717   4.203   3.214   1.762
 4585TIP3   OH213718   1.106   1.625   0.871
 4585TIP3    H113719   1.063   1.543   0.895
 4585TIP3    H213720   1.044   1.669   0.814
 4586TIP3   OH213721   1.762   1.588   3.110
 4586TIP3    H113722   1.744   1.677   3.141
 4586TIP3    H213723   1.855   1.590   3.086
 4587TIP3   OH213724   5.002   4.374   1.050
 4587TIP3    H113725   5.028   4.375   1.142
 4587TIP3    H213726   4.927   4.434   1.046
 4588TIP3   OH213727   4.877   3.306   4.952
 4588TIP3    H113728   4.969   3.282   4.960
 4588TIP3    H213729   4.853   3.278   4.863
 4589TIP3   OH213730   1.682   2.595   2.875
 4589TIP3    H113731   1.656   2.607   2.784
 4589TIP3    H213732   1.712   2.504   2.880
 4590TIP3   OH213733   3.041   1.095   5.574
 4590TIP3    H113734   3.123   1.072   5.530
 4590TIP3    H213735   2.998   1.157   5.515
 4591TIP3   OH213736   4.139   0.743   0.292
 4591TIP3    H113737   4.190   0.794   0.229
 4591TIP3    H213738   4.121   0.660   0.248
 4592TIP3   OH213739   5.094   0.330   1.734
 4592TIP3    H113740   5.097   0.424   1.714
 4592TIP3    H213741   5.183   0.308   1.761
 4593TIP3   OH213742   6.055   1.932   4.158
 4593TIP3    H113743   6.128   1.943   4.098
 4593TIP3    H213744   6.064   1.843   4.192
 4594TIP3   OH213745   0.450   6.563   5.160
 4594TIP3    H113746   0.363   6.527   5.142
 4594TIP3    H213747   0.490   6.500   5.220
 4595TIP3   OH213748   1.816   1.311   3.841
 4595TIP3    H113749   1.802   1.268   3.756
 4595TIP3    H213750   1.835   1.402   3.819
 4596TIP3   OH213751   5.594   6.469   4.693
 4596TIP3    H113752   5.503   6.459   4.719
 4596TIP3    H213753   5.602   6.420   4.611
 4597TIP3   OH213754   6.944   6.532   0.155
 4597TIP3    H113755   6.907   6.444   0.164
 4597TIP3    H213756   6.972   6.536   0.064
 4598TIP3   OH213757   1.862   3.100   5.692
 4598TIP3    H113758   1.836   3.190   5.675
 4598TIP3    H213759   1.780   3.053   5.703
 4599TIP3   OH213760   5.360   2.269   0.978
 4599TIP3    H113761   5.320   2.264   1.065
 4599TIP3    H213762   5.398   2.357   0.974
 4600TIP3   OH213763   2.500   4.438   4.808
 4600TIP3    H113764   2.490   4.356   4.857
 4600TIP3    H213765   2.517   4.504   4.875
 4601TIP3   OH213766   0.416   3.330   0.233
 4601TIP3    H113767   0.462   3.326   0.149
 4601TIP3    H213768   0.324   3.342   0.209
 4602TIP3   OH213769   2.374   1.802   1.890
 4602TIP3    H113770   2.295   1.750   1.880
 4602TIP3    H213771   2.356   1.858   1.966
 4603TIP3   OH213772   0.838   2.569   2.178
 4603TIP3    H113773   0.933   2.560   2.188
 4603TIP3    H213774   0.801   2.529   2.257
 4604TIP3   OH213775   3.806   4.143   5.700
 4604TIP3    H113776   3.719   4.112   5.722
 4604TIP3    H213777   3.864   4.099   5.761
 4605TIP3   OH213778   5.180   5.441   0.769
 4605TIP3    H113779   5.119   5.451   0.695
 4605TIP3    H213780   5.246   5.379   0.737
 4606TIP3   OH213781   5.347   2.238   2.217
 4606TIP3    H113782   5.361   2.209   2.307
 4606TIP3    H213783   5.433   2.267   2.187
 4607TIP3   OH213784   6.215   0.688   2.316
 4607TIP3    H113785   6.139   0.704   2.372
 4607TIP3    H213786   6.289   0.722   2.367
 4608TIP3   OH213787   5.482   3.703   5.713
 4608TIP3    H113788   5.415   3.673   5.775
 4608TIP3    H213789   5.530   3.770   5.761
 4609TIP3   OH213790   6.468   3.440   5.489
 4609TIP3    H113791   6.513   3.357   5.477
 4609TIP3    H213792   6.523   3.504   5.443
 4610TIP3   OH213793   3.430   3.364   5.040
 4610TIP3    H113794   3.416   3.270   5.041
 4610TIP3    H213795   3.347   3.401   5.009
 4611TIP3   OH213796   4.278   2.448   3.566
 4611TIP3    H113797   4.284   2.497   3.484
 4611TIP3    H213798   4.222   2.502   3.622
 4612TIP3   OH213799   0.090   1.422   4.727
 4612TIP3    H113800   0.010   1.439   4.677
 4612TIP3    H213801   0.099   1.498   4.784
 4613TIP3   OH213802   3.258   4.216   0.343
 4613TIP3    H113803   3.282   4.137   0.391
 4613TIP3    H213804   3.253   4.188   0.252
 4614TIP3   OH213805   6.843   0.113   5.037
 4614TIP3    H113806   6.876   0.072   5.117
 4614TIP3    H213807   6.751   0.132   5.057
 4615TIP3   OH213808   4.931   0.917   3.749
 4615TIP3    H113809   4.966   0.939   3.663
 4615TIP3    H213810   4.841   0.947   3.748
 4616TIP3   OH213811   5.450   3.393   2.853
 4616TIP3    H113812   5.396   3.472   2.841
 4616TIP3    H213813   5.517   3.400   2.785
 4617TIP3   OH213814   0.484   5.376   4.298
 4617TIP3    H113815   0.463   5.318   4.225
 4617TIP3    H213816   0.557   5.429   4.266
 4618TIP3   OH213817   3.200   3.639   0.147
 4618TIP3    H113818   3.287   3.618   0.112
 4618TIP3    H213819   3.139   3.601   0.084
 4619TIP3   OH213820   6.296   4.325   4.097
 4619TIP3    H113821   6.367   4.295   4.154
 4619TIP3    H213822   6.240   4.377   4.154
 4620TIP3   OH213823   0.649   3.238   3.851
 4620TIP3    H113824   0.554   3.236   3.856
 4620TIP3    H213825   0.672   3.328   3.872
 4621TIP3   OH213826   0.067   6.071   0.761
 4621TIP3    H113827  -0.013   6.032   0.726
 4621TIP3    H213828   0.039   6.115   0.841
 4622TIP3   OH213829   1.773   6.728   3.054
 4622TIP3    H113830   1.840   6.694   3.112
 4622TIP3    H213831   1.793   6.689   2.968
 4623TIP3   OH213832   6.321   5.495   4.070
 4623TIP3    H113833   6.265   5.448   4.132
 4623TIP3    H213834   6.402   5.510   4.118
 4624TIP3   OH213835   5.246   1.325   5.728
 4624TIP3    H113836   5.241   1.229   5.727
 4624TIP3    H213837   5.337   1.344   5.747
 4625TIP3   OH213838   2.908   6.506   5.706
 4625TIP3    H113839   2.910   6.483   5.613
 4625TIP3    H213840   2.914   6.421   5.751
 4626TIP3   OH213841   0.685   5.995   1.167
 4626TIP3    H113842   0.592   5.980   1.186
 4626TIP3    H213843   0.721   5.907   1.155
 4627TIP3   OH213844   0.169   5.811   4.705
 4627TIP3    H113845   0.230   5.882   4.724
 4627TIP3    H213846   0.206   5.767   4.628
 4628TIP3   OH213847   0.640   2.852   5.635
 4628TIP3    H113848   0.582   2.849   5.711
 4628TIP3    H213849   0.581   2.844   5.560
 4629TIP3   OH213850   2.519   0.941   3.851
 4629TIP3    H113851   2.456   0.901   3.791
 4629TIP3    H213852   2.530   1.030   3.819
 4630TIP3   OH213853   1.869   4.643   1.832
 4630TIP3    H113854   1.913   4.693   1.763
 4630TIP3    H213855   1.783   4.685   1.840
 4631TIP3   OH213856   6.142   2.231   2.835
 4631TIP3    H113857   6.116   2.148   2.796
 4631TIP3    H213858   6.108   2.298   2.775
 4632TIP3   OH213859   4.163   2.637   5.548
 4632TIP3    H113860   4.086   2.628   5.493
 4632TIP3    H213861   4.232   2.589   5.501
 4633TIP3   OH213862   1.303   1.772   4.198
 4633TIP3    H113863   1.375   1.708   4.197
 4633TIP3    H213864   1.263   1.763   4.284
 4634TIP3   OH213865   2.074   3.145   1.357
 4634TIP3    H113866   2.140   3.188   1.411
 4634TIP3    H213867   2.118   3.067   1.323
 4635TIP3   OH213868   5.928   1.857   4.493
 4635TIP3    H113869   5.883   1.775   4.515
 4635TIP3    H213870   5.863   1.909   4.447
 4636TIP3   OH213871   1.938   1.188   5.454
 4636TIP3    H113872   1.893   1.191   5.370
 4636TIP3    H213873   2.006   1.122   5.442
 4637TIP3   OH213874   0.267   3.232   3.144
 4637TIP3    H113875   0.206   3.260   3.211
 4637TIP3    H213876   0.311   3.313   3.117
 4638TIP3   OH213877   0.871   2.317   5.567
 4638TIP3    H113878   0.803   2.363   5.615
 4638TIP3    H213879   0.839   2.227   5.560
 4639TIP3   OH213880   3.153   3.916   5.618
 4639TIP3    H113881   3.202   3.914   5.699
 4639TIP3    H213882   3.106   3.833   5.616
 4640TIP3   OH213883   5.100   4.181   2.647
 4640TIP3    H113884   5.015   4.148   2.675
 4640TIP3    H213885   5.118   4.253   2.707
 4641TIP3   OH213886   1.772   1.947   4.060
 4641TIP3    H113887   1.697   1.890   4.043
 4641TIP3    H213888   1.759   1.978   4.150
 4642TIP3   OH213889   4.184   1.264   5.441
 4642TIP3    H113890   4.176   1.180   5.484
 4642TIP3    H213891   4.254   1.309   5.488
 4643TIP3   OH213892   3.354   0.433   4.680
 4643TIP3    H113893   3.268   0.407   4.714
 4643TIP3    H213894   3.358   0.394   4.593
 4644TIP3   OH213895   2.834   4.106   4.554
 4644TIP3    H113896   2.747   4.091   4.591
 4644TIP3    H213897   2.846   4.034   4.491
 4645TIP3   OH213898   2.410   5.997   4.282
 4645TIP3    H113899   2.382   6.018   4.193
 4645TIP3    H213900   2.497   5.960   4.272
 4646TIP3   OH213901   0.597   1.972   1.491
 4646TIP3    H113902   0.558   1.905   1.547
 4646TIP3    H213903   0.692   1.959   1.501
 4647TIP3   OH213904   2.319   0.545   0.980
 4647TIP3    H113905   2.367   0.626   0.997
 4647TIP3    H213906   2.384   0.487   0.939
 4648TIP3   OH213907   0.625   4.985   3.735
 4648TIP3    H113908   0.608   4.895   3.765
 4648TIP3    H213909   0.541   5.029   3.743
 4649TIP3   OH213910   6.814   0.836   4.759
 4649TIP3    H113911   6.858   0.912   4.720
 4649TIP3    H213912   6.885   0.781   4.792
 4650TIP3   OH213913   2.775   0.813   5.700
 4650TIP3    H113914   2.760   0.907   5.691
 4650TIP3    H213915   2.696   0.773   5.664
 4651TIP3   OH213916   5.100   4.938   2.875
 4651TIP3    H113917   5.162   4.914   2.805
 4651TIP3    H213918   5.155   4.951   2.952
 4652TIP3   OH213919   2.804   4.056   1.222
 4652TIP3    H113920   2.881   4.028   1.272
 4652TIP3    H213921   2.758   4.117   1.280
 4653TIP3   OH213922   1.329   4.722   4.333
 4653TIP3    H113923   1.286   4.648   4.375
 4653TIP3    H213924   1.356   4.690   4.247
 4654TIP3   OH213925   4.898   4.275   0.257
 4654TIP3    H113926   4.947   4.356   0.273
 4654TIP3    H213927   4.961   4.216   0.216
 4655TIP3   OH213928   1.799   4.848   3.353
 4655TIP3    H113929   1.850   4.836   3.434
 4655TIP3    H213930   1.864   4.841   3.283
 4656TIP3   OH213931   2.130   3.522   0.027
 4656TIP3    H113932   2.126   3.594   0.090
 4656TIP3    H213933   2.223   3.503   0.018
 4657TIP3   OH213934   2.966   5.110   4.276
 4657TIP3    H113935   3.008   5.185   4.234
 4657TIP3    H213936   2.879   5.106   4.236
 4658TIP3   OH213937   4.933   2.033   0.424
 4658TIP3    H113938   4.908   1.986   0.344
 4658TIP3    H213939   5.000   1.978   0.464
 4659TIP3   OH213940   0.246   5.324   0.422
 4659TIP3    H113941   0.203   5.406   0.400
 4659TIP3    H213942   0.309   5.347   0.490
 4660TIP3   OH213943   5.619   0.937   4.875
 4660TIP3    H113944   5.647   0.872   4.941
 4660TIP3    H213945   5.698   0.957   4.827
 4661TIP3   OH213946   6.304   0.198   2.768
 4661TIP3    H113947   6.317   0.181   2.675
 4661TIP3    H213948   6.209   0.195   2.780
 4662TIP3   OH213949   5.185   5.426   2.589
 4662TIP3    H113950   5.248   5.464   2.650
 4662TIP3    H213951   5.234   5.416   2.507
 4663TIP3   OH213952   2.420   3.940   4.989
 4663TIP3    H113953   2.326   3.923   4.994
 4663TIP3    H213954   2.459   3.853   4.977
 4664TIP3   OH213955   4.044   5.624   0.321
 4664TIP3    H113956   4.045   5.545   0.376
 4664TIP3    H213957   3.959   5.664   0.338
 4665TIP3   OH213958   5.143   5.546   2.868
 4665TIP3    H113959   5.225   5.548   2.818
 4665TIP3    H213960   5.083   5.602   2.819
 4666TIP3   OH213961   7.115   6.487   1.884
 4666TIP3    H113962   7.065   6.427   1.939
 4666TIP3    H213963   7.125   6.440   1.801
 4667TIP3   OH213964   2.513   6.444   1.208
 4667TIP3    H113965   2.541   6.362   1.250
 4667TIP3    H213966   2.468   6.492   1.277
 4668TIP3   OH213967   6.395   0.832   4.406
 4668TIP3    H113968   6.409   0.900   4.341
 4668TIP3    H213969   6.458   0.851   4.475
 4669TIP3   OH213970   0.759   5.709   5.623
 4669TIP3    H113971   0.691   5.737   5.684
 4669TIP3    H213972   0.831   5.770   5.638
 4670TIP3   OH213973   5.434   1.135   3.164
 4670TIP3    H113974   5.524   1.127   3.197
 4670TIP3    H213975   5.431   1.222   3.124
 4671TIP3   OH213976   4.003   6.115   5.166
 4671TIP3    H113977   4.025   6.203   5.198
 4671TIP3    H213978   3.908   6.109   5.177
 4672TIP3   OH213979   0.719   3.699   1.301
 4672TIP3    H113980   0.692   3.720   1.211
 4672TIP3    H213981   0.659   3.749   1.356
 4673TIP3   OH213982   6.860   3.329   3.843
 4673TIP3    H113983   6.805   3.365   3.913
 4673TIP3    H213984   6.919   3.401   3.819
 4674TIP3   OH213985   6.981   2.220   3.929
 4674TIP3    H113986   6.945   2.138   3.894
 4674TIP3    H213987   7.052   2.192   3.986
 4675TIP3   OH213988   3.960   5.585   1.952
 4675TIP3    H113989   3.959   5.541   1.866
 4675TIP3    H213990   3.918   5.669   1.936
 4676TIP3   OH213991   1.221   0.358   5.104
 4676TIP3    H113992   1.135   0.397   5.122
 4676TIP3    H213993   1.264   0.356   5.190
 4677TIP3   OH213994   4.028   0.743   3.861
 4677TIP3    H113995   3.974   0.744   3.940
 4677TIP3    H213996   4.095   0.809   3.877
 4678TIP3   OH213997   4.129   0.733   1.342
 4678TIP3    H113998   4.203   0.763   1.396
 4678TIP3    H213999   4.108   0.808   1.286
 4679TIP3   OH214000   3.511   0.745   1.393
 4679TIP3    H114001   3.494   0.831   1.356
 4679TIP3    H214002   3.531   0.689   1.318
 4680TIP3   OH214003   6.582   4.298   3.098
 4680TIP3    H114004   6.570   4.352   3.020
 4680TIP3    H214005   6.633   4.354   3.158
 4681TIP3   OH214006   3.600   6.003   5.424
 4681TIP3    H114007   3.677   5.949   5.439
 4681TIP3    H214008   3.613   6.079   5.480
 4682TIP3   OH214009   7.226   2.976   4.822
 4682TIP3    H114010   7.196   3.034   4.893
 4682TIP3    H214011   7.192   3.017   4.742
 4683TIP3   OH214012   1.917   6.574   0.105
 4683TIP3    H114013   1.889   6.491   0.065
 4683TIP3    H214014   2.006   6.587   0.073
 4684TIP3   OH214015   6.543   1.218   4.792
 4684TIP3    H114016   6.621   1.215   4.738
 4684TIP3    H214017   6.539   1.133   4.835
 4685TIP3   OH214018   4.108   5.476   5.830
 4685TIP3    H114019   4.095   5.559   5.784
 4685TIP3    H214020   4.198   5.452   5.812
 4686TIP3   OH214021   3.731   4.225   3.424
 4686TIP3    H114022   3.743   4.131   3.417
 4686TIP3    H214023   3.643   4.236   3.461
 4687TIP3   OH214024   4.296   3.938   3.991
 4687TIP3    H114025   4.324   4.029   4.000
 4687TIP3    H214026   4.375   3.887   4.008
 4688TIP3   OH214027   5.962   0.684   0.921
 4688TIP3    H114028   5.887   0.625   0.922
 4688TIP3    H214029   5.926   0.769   0.899
 4689TIP3   OH214030   0.997   4.411   2.721
 4689TIP3    H114031   0.923   4.464   2.750
 4689TIP3    H214032   0.966   4.368   2.641
 4690TIP3   OH214033   2.219   2.274   5.431
 4690TIP3    H114034   2.179   2.302   5.348
 4690TIP3    H214035   2.304   2.237   5.405
 4691TIP3   OH214036   6.933   5.465   1.915
 4691TIP3    H114037   6.989   5.424   1.980
 4691TIP3    H214038   6.846   5.428   1.930
 4692TIP3   OH214039   6.094   3.302   1.170
 4692TIP3    H114040   6.146   3.379   1.192
 4692TIP3    H214041   6.097   3.247   1.249
 4693TIP3   OH214042   3.017   2.295   5.481
 4693TIP3    H114043   3.023   2.382   5.441
 4693TIP3    H214044   2.926   2.289   5.511
 4694TIP3   OH214045   4.552   3.054   1.899
 4694TIP3    H114046   4.509   3.126   1.945
 4694TIP3    H214047   4.642   3.054   1.932
 4695TIP3   OH214048   2.270   5.270   3.166
 4695TIP3    H114049   2.333   5.340   3.183
 4695TIP3    H214050   2.323   5.191   3.156
 4696TIP3   OH214051   1.064   2.557   1.355
 4696TIP3    H114052   0.973   2.585   1.353
 4696TIP3    H214053   1.081   2.525   1.266
 4697TIP3   OH214054   2.600   5.730   5.452
 4697TIP3    H114055   2.692   5.754   5.440
 4697TIP3    H214056   2.602   5.635   5.468
 4698TIP3   OH214057   6.335   4.442   4.851
 4698TIP3    H114058   6.389   4.512   4.813
 4698TIP3    H214059   6.265   4.429   4.786
 4699TIP3   OH214060   1.758   1.450   4.848
 4699TIP3    H114061   1.726   1.457   4.938
 4699TIP3    H214062   1.689   1.488   4.795
 4700TIP3   OH214063   1.370   4.889   0.993
 4700TIP3    H114064   1.373   4.940   1.074
 4700TIP3    H214065   1.316   4.942   0.934
 4701TIP3   OH214066   7.063   3.964   5.505
 4701TIP3    H114067   6.981   3.942   5.462
 4701TIP3    H214068   7.046   4.046   5.551
 4702TIP3   OH214069   0.397   0.575   4.622
 4702TIP3    H114070   0.492   0.587   4.617
 4702TIP3    H214071   0.367   0.640   4.685
 4703TIP3   OH214072   2.861   0.663   1.006
 4703TIP3    H114073   2.945   0.682   1.047
 4703TIP3    H214074   2.832   0.582   1.047
 4704TIP3   OH214075   3.895   4.783   0.780
 4704TIP3    H114076   3.805   4.766   0.809
 4704TIP3    H214077   3.921   4.702   0.736
 4705TIP3   OH214078   6.428   6.162   4.906
 4705TIP3    H114079   6.390   6.126   4.826
 4705TIP3    H214080   6.442   6.255   4.885
 4706TIP3   OH214081   7.184   4.101   0.155
 4706TIP3    H114082   7.090   4.122   0.160
 4706TIP3    H214083   7.227   4.186   0.146
 4707TIP3   OH214084   3.486   1.501   1.230
 4707TIP3    H114085   3.428   1.561   1.276
 4707TIP3    H214086   3.448   1.495   1.142
 4708TIP3   OH214087   3.623   3.632   5.339
 4708TIP3    H114088   3.642   3.604   5.249
 4708TIP3    H214089   3.630   3.552   5.391
 4709TIP3   OH214090   6.014   0.958   4.487
 4709TIP3    H114091   6.096   0.965   4.535
 4709TIP3    H214092   6.017   1.030   4.423
 4710TIP3   OH214093   2.382   4.284   0.632
 4710TIP3    H114094   2.302   4.329   0.658
 4710TIP3    H214095   2.435   4.351   0.589
 4711TIP3   OH214096   7.106   2.555   1.485
 4711TIP3    H114097   7.196   2.527   1.501
 4711TIP3    H214098   7.057   2.523   1.561
 4712TIP3   OH214099   3.495   0.292   4.218
 4712TIP3    H114100   3.419   0.256   4.172
 4712TIP3    H214101   3.469   0.295   4.310
 4713TIP3   OH214102   1.075   5.142   2.107
 4713TIP3    H114103   1.143   5.129   2.173
 4713TIP3    H214104   1.094   5.076   2.040
 4714TIP3   OH214105   2.986   1.808   4.646
 4714TIP3    H114106   3.055   1.746   4.671
 4714TIP3    H214107   3.024   1.856   4.572
 4715TIP3   OH214108   3.167   6.549   2.528
 4715TIP3    H114109   3.222   6.530   2.604
 4715TIP3    H214110   3.077   6.541   2.560
 4716TIP3   OH214111   0.453   4.637   0.184
 4716TIP3    H114112   0.514   4.563   0.189
 4716TIP3    H214113   0.402   4.631   0.264
 4717TIP3   OH214114   3.454   5.972   5.032
 4717TIP3    H114115   3.492   5.923   5.105
 4717TIP3    H214116   3.456   5.912   4.959
 4718TIP3   OH214117   1.255   6.287   1.858
 4718TIP3    H114118   1.289   6.297   1.947
 4718TIP3    H214119   1.258   6.375   1.820
 4719TIP3   OH214120   2.334   5.794   1.935
 4719TIP3    H114121   2.255   5.808   1.883
 4719TIP3    H214122   2.401   5.771   1.871
 4720TIP3   OH214123   2.220   0.950   1.876
 4720TIP3    H114124   2.297   0.990   1.837
 4720TIP3    H214125   2.226   0.858   1.850
 4721TIP3   OH214126   2.514   5.727   3.186
 4721TIP3    H114127   2.553   5.735   3.273
 4721TIP3    H214128   2.501   5.817   3.157
 4722TIP3   OH214129   1.672   6.566   1.382
 4722TIP3    H114130   1.683   6.519   1.300
 4722TIP3    H214131   1.670   6.658   1.357
 4723TIP3   OH214132   0.343   2.955   0.637
 4723TIP3    H114133   0.263   3.001   0.662
 4723TIP3    H214134   0.398   3.022   0.597
 4724TIP3   OH214135   0.274   6.144   0.037
 4724TIP3    H114136   0.191   6.188   0.054
 4724TIP3    H214137   0.252   6.050   0.040
 4725TIP3   OH214138   3.065   4.943   2.220
 4725TIP3    H114139   3.050   4.887   2.144
 4725TIP3    H214140   3.145   4.909   2.260
 4726TIP3   OH214141   2.531   6.218   0.558
 4726TIP3    H114142   2.557   6.190   0.470
 4726TIP3    H214143   2.576   6.301   0.571
 4727TIP3   OH214144   5.410   0.530   3.733
 4727TIP3    H114145   5.425   0.562   3.645
 4727TIP3    H214146   5.488   0.555   3.782
 4728TIP3   OH214147   0.218   0.272   4.169
 4728TIP3    H114148   0.200   0.275   4.263
 4728TIP3    H214149   0.238   0.180   4.151
 4729TIP3   OH214150   4.076   0.149   2.678
 4729TIP3    H114151   4.114   0.110   2.599
 4729TIP3    H214152   4.016   0.216   2.644
 4730TIP3   OH214153   5.679   4.575   2.081
 4730TIP3    H114154   5.732   4.556   2.159
 4730TIP3    H214155   5.728   4.537   2.009
 4731TIP3   OH214156   5.812   4.111   1.303
 4731TIP3    H114157   5.877   4.064   1.250
 4731TIP3    H214158   5.827   4.079   1.392
 4732TIP3   OH214159   2.546   1.276   3.304
 4732TIP3    H114160   2.610   1.206   3.320
 4732TIP3    H214161   2.532   1.274   3.210
 4733TIP3   OH214162   6.495   5.281   4.462
 4733TIP3    H114163   6.424   5.330   4.421
 4733TIP3    H214164   6.462   5.192   4.470
 4734TIP3   OH214165   5.662   5.496   1.941
 4734TIP3    H114166   5.674   5.521   1.850
 4734TIP3    H214167   5.650   5.579   1.988
 4735TIP3   OH214168   6.071   2.848   1.064
 4735TIP3    H114169   6.129   2.920   1.089
 4735TIP3    H214170   5.986   2.889   1.052
 4736TIP3   OH214171   0.478   1.448   3.469
 4736TIP3    H114172   0.523   1.414   3.546
 4736TIP3    H214173   0.512   1.536   3.458
 4737TIP3   OH214174   0.804   3.468   4.903
 4737TIP3    H114175   0.724   3.496   4.949
 4737TIP3    H214176   0.800   3.514   4.819
 4738TIP3   OH214177   6.746   2.708   0.166
 4738TIP3    H114178   6.767   2.764   0.241
 4738TIP3    H214179   6.741   2.768   0.092
 4739TIP3   OH214180   5.649   5.929   3.040
 4739TIP3    H114181   5.692   5.970   3.115
 4739TIP3    H214182   5.640   5.999   2.976
 4740TIP3   OH214183   1.659   5.926   1.641
 4740TIP3    H114184   1.706   5.947   1.722
 4740TIP3    H214185   1.723   5.876   1.589
 4741TIP3   OH214186   6.581   0.339   1.768
 4741TIP3    H114187   6.608   0.418   1.814
 4741TIP3    H214188   6.554   0.279   1.837
 4742TIP3   OH214189   4.822   2.904   5.688
 4742TIP3    H114190   4.753   2.968   5.706
 4742TIP3    H214191   4.845   2.868   5.774
 4743TIP3   OH214192   6.777   1.476   4.488
 4743TIP3    H114193   6.748   1.450   4.400
 4743TIP3    H214194   6.805   1.567   4.478
 4744TIP3   OH214195   6.023   0.715   2.914
 4744TIP3    H114196   6.049   0.629   2.882
 4744TIP3    H214197   5.927   0.712   2.916
 4745TIP3   OH214198   3.579   4.749   3.070
 4745TIP3    H114199   3.675   4.751   3.068
 4745TIP3    H214200   3.557   4.775   3.160
 4746TIP3   OH214201   6.148   2.846   3.402
 4746TIP3    H114202   6.176   2.912   3.339
 4746TIP3    H214203   6.143   2.893   3.485
 4747TIP3   OH214204   0.303   2.399   5.501
 4747TIP3    H114205   0.227   2.439   5.461
 4747TIP3    H214206   0.334   2.335   5.436
 4748TIP3   OH214207   0.142   6.773   2.914
 4748TIP3    H114208   0.204   6.708   2.882
 4748TIP3    H214209   0.059   6.750   2.872
 4749TIP3   OH214210   5.648   3.508   0.625
 4749TIP3    H114211   5.588   3.455   0.572
 4749TIP3    H214212   5.640   3.471   0.713
 4750TIP3   OH214213   0.118   1.521   1.790
 4750TIP3    H114214   0.084   1.562   1.711
 4750TIP3    H214215   0.210   1.503   1.769
 4751TIP3   OH214216   5.373   1.683   4.957
 4751TIP3    H114217   5.363   1.592   4.930
 4751TIP3    H214218   5.320   1.733   4.895
 4752TIP3   OH214219   2.959   4.182   1.009
 4752TIP3    H114220   2.885   4.126   1.030
 4752TIP3    H214221   2.946   4.260   1.063
 4753TIP3   OH214222   6.988   6.347   5.192
 4753TIP3    H114223   6.920   6.296   5.147
 4753TIP3    H214224   7.037   6.282   5.243
 4754TIP3   OH214225   2.789   0.503   3.899
 4754TIP3    H114226   2.875   0.540   3.875
 4754TIP3    H214227   2.727   0.573   3.879
 4755TIP3   OH214228   0.681   1.292   5.448
 4755TIP3    H114229   0.626   1.277   5.525
 4755TIP3    H214230   0.770   1.297   5.483
 4756TIP3   OH214231   1.574   6.035   2.981
 4756TIP3    H114232   1.646   5.991   2.937
 4756TIP3    H214233   1.559   5.983   3.060
 4757TIP3   OH214234   0.535   5.204   2.160
 4757TIP3    H114235   0.497   5.211   2.248
 4757TIP3    H214236   0.629   5.193   2.175
 4758TIP3   OH214237   1.562   2.705   1.076
 4758TIP3    H114238   1.631   2.642   1.098
 4758TIP3    H214239   1.536   2.742   1.161
 4759TIP3   OH214240   3.991   1.784   2.189
 4759TIP3    H114241   3.955   1.699   2.216
 4759TIP3    H214242   4.056   1.761   2.122
 4760TIP3   OH214243   1.942   1.517   5.392
 4760TIP3    H114244   1.987   1.530   5.309
 4760TIP3    H214245   2.012   1.501   5.455
 4761TIP3   OH214246   5.402   0.156   4.889
 4761TIP3    H114247   5.396   0.061   4.878
 4761TIP3    H214248   5.475   0.182   4.832
 4762TIP3   OH214249   6.149   3.344   2.605
 4762TIP3    H114250   6.172   3.356   2.513
 4762TIP3    H214251   6.073   3.286   2.604
 4763TIP3   OH214252   5.460   4.767   0.284
 4763TIP3    H114253   5.391   4.833   0.290
 4763TIP3    H214254   5.432   4.698   0.344
 4764TIP3   OH214255   5.770   5.526   3.436
 4764TIP3    H114256   5.684   5.500   3.403
 4764TIP3    H214257   5.767   5.506   3.529
 4765TIP3   OH214258   6.323   0.306   5.113
 4765TIP3    H114259   6.261   0.236   5.134
 4765TIP3    H214260   6.351   0.339   5.198
 4766TIP3   OH214261   2.013   1.667   5.811
 4766TIP3    H114262   2.061   1.616   5.746
 4766TIP3    H214263   1.975   1.739   5.760
 4767TIP3   OH214264   2.573   4.147   0.143
 4767TIP3    H114265   2.521   4.182   0.071
 4767TIP3    H214266   2.519   4.160   0.221
 4768TIP3   OH214267   6.785   0.720   1.894
 4768TIP3    H114268   6.814   0.810   1.912
 4768TIP3    H214269   6.866   0.671   1.882
 4769TIP3   OH214270   6.746   6.664   4.471
 4769TIP3    H114271   6.803   6.713   4.411
 4769TIP3    H214272   6.731   6.581   4.427
 4770TIP3   OH214273   2.992   1.783   0.206
 4770TIP3    H114274   2.974   1.708   0.264
 4770TIP3    H214275   2.960   1.755   0.121
 4771TIP3   OH214276   5.857   2.379   4.983
 4771TIP3    H114277   5.903   2.427   5.052
 4771TIP3    H214278   5.799   2.445   4.943
 4772TIP3   OH214279   3.038   4.999   4.511
 4772TIP3    H114280   3.028   5.008   4.417
 4772TIP3    H214281   2.994   4.918   4.533
 4773TIP3   OH214282   2.189   1.261   0.311
 4773TIP3    H114283   2.280   1.290   0.317
 4773TIP3    H214284   2.188   1.177   0.356
 4774TIP3   OH214285   5.476   3.505   1.301
 4774TIP3    H114286   5.390   3.547   1.309
 4774TIP3    H214287   5.521   3.525   1.382
 4775TIP3   OH214288   0.952   1.943   1.177
 4775TIP3    H114289   1.042   1.915   1.194
 4775TIP3    H214290   0.915   1.960   1.264
 4776TIP3   OH214291   6.650   1.885   1.579
 4776TIP3    H114292   6.608   1.920   1.500
 4776TIP3    H214293   6.584   1.827   1.617
 4777TIP3   OH214294   2.138   3.061   3.486
 4777TIP3    H114295   2.045   3.038   3.486
 4777TIP3    H214296   2.173   3.016   3.564
 4778TIP3   OH214297   0.953   3.783   5.258
 4778TIP3    H114298   1.018   3.714   5.269
 4778TIP3    H214299   0.880   3.740   5.212
 4779TIP3   OH214300   0.306   6.095   4.023
 4779TIP3    H114301   0.299   6.061   3.933
 4779TIP3    H214302   0.371   6.040   4.065
 4780TIP3   OH214303   0.750   0.510   3.622
 4780TIP3    H114304   0.821   0.506   3.557
 4780TIP3    H214305   0.671   0.523   3.570
 4781TIP3   OH214306   5.837   0.927   0.896
 4781TIP3    H114307   5.845   0.987   0.821
 4781TIP3    H214308   5.881   0.973   0.968
 4782TIP3   OH214309   1.885   0.830   3.984
 4782TIP3    H114310   1.899   0.882   4.064
 4782TIP3    H214311   1.863   0.743   4.016
 4783TIP3   OH214312   5.374   4.231   1.629
 4783TIP3    H114313   5.330   4.311   1.658
 4783TIP3    H214314   5.318   4.160   1.659
 4784TIP3   OH214315   0.367   5.022   2.001
 4784TIP3    H114316   0.407   5.084   2.062
 4784TIP3    H214317   0.334   5.076   1.930
 4785TIP3   OH214318   6.805   0.045   1.123
 4785TIP3    H114319   6.808   0.040   1.218
 4785TIP3    H214320   6.738   0.111   1.104
 4786TIP3   OH214321   5.125   0.542   0.812
 4786TIP3    H114322   5.064   0.553   0.740
 4786TIP3    H214323   5.206   0.511   0.771
 4787TIP3   OH214324   2.800   6.245   5.806
 4787TIP3    H114325   2.841   6.219   5.889
 4787TIP3    H214326   2.708   6.224   5.817
 4788TIP3   OH214327   0.204   3.812   0.856
 4788TIP3    H114328   0.179   3.856   0.937
 4788TIP3    H214329   0.284   3.765   0.879
 4789TIP3   OH214330   1.358   6.032   3.460
 4789TIP3    H114331   1.384   6.068   3.375
 4789TIP3    H214332   1.339   6.108   3.513
 4790TIP3   OH214333   0.496   5.276   0.199
 4790TIP3    H114334   0.553   5.198   0.193
 4790TIP3    H214335   0.407   5.240   0.200
 4791TIP3   OH214336   4.851   1.852   5.520
 4791TIP3    H114337   4.841   1.911   5.445
 4791TIP3    H214338   4.809   1.770   5.491
 4792TIP3   OH214339   6.098   2.001   2.600
 4792TIP3    H114340   6.174   1.962   2.643
 4792TIP3    H214341   6.127   2.016   2.510
 4793TIP3   OH214342   5.251   2.499   2.223
 4793TIP3    H114343   5.288   2.585   2.201
 4793TIP3    H214344   5.267   2.445   2.146
 4794TIP3   OH214345   2.915   5.938   2.866
 4794TIP3    H114346   2.863   5.871   2.821
 4794TIP3    H214347   2.873   6.021   2.843
 4795TIP3   OH214348   0.815   1.047   0.644
 4795TIP3    H114349   0.900   1.090   0.639
 4795TIP3    H214350   0.755   1.107   0.600
 4796TIP3   OH214351   6.085   0.494   1.924
 4796TIP3    H114352   5.992   0.479   1.941
 4796TIP3    H214353   6.101   0.455   1.838
 4797TIP3   OH214354   4.391   1.141   2.963
 4797TIP3    H114355   4.466   1.085   2.981
 4797TIP3    H214356   4.380   1.138   2.868
 4798TIP3   OH214357   1.001   0.672   0.819
 4798TIP3    H114358   1.094   0.690   0.829
 4798TIP3    H214359   0.993   0.577   0.819
 4799TIP3   OH214360   0.269   1.989   4.124
 4799TIP3    H114361   0.235   1.940   4.049
 4799TIP3    H214362   0.357   1.953   4.138
 4800TIP3   OH214363   0.232   1.046   5.810
 4800TIP3    H114364   0.235   1.141   5.801
 4800TIP3    H214365   0.139   1.024   5.813
 4801TIP3   OH214366   3.547   5.772   4.177
 4801TIP3    H114367   3.495   5.720   4.115
 4801TIP3    H214368   3.573   5.849   4.128
 4802TIP3   OH214369   3.717   0.673   4.441
 4802TIP3    H114370   3.783   0.610   4.471
 4802TIP3    H214371   3.722   0.745   4.503
 4803TIP3   OH214372   6.246   3.453   1.512
 4803TIP3    H114373   6.262   3.420   1.601
 4803TIP3    H214374   6.301   3.531   1.505
 4804TIP3   OH214375   5.218   6.313   3.247
 4804TIP3    H114376   5.214   6.243   3.312
 4804TIP3    H214377   5.295   6.292   3.193
 4805TIP3   OH214378   6.772   0.304   5.650
 4805TIP3    H114379   6.742   0.395   5.655
 4805TIP3    H214380   6.732   0.261   5.725
 4806TIP3   OH214381   6.784   6.521   2.396
 4806TIP3    H114382   6.761   6.530   2.303
 4806TIP3    H214383   6.856   6.458   2.396
 4807TIP3   OH214384   3.771   2.724   3.179
 4807TIP3    H114385   3.754   2.679   3.262
 4807TIP3    H214386   3.860   2.699   3.155
 4808TIP3   OH214387   6.713   4.523   1.305
 4808TIP3    H114388   6.690   4.602   1.354
 4808TIP3    H214389   6.730   4.554   1.216
 4809TIP3   OH214390   4.181   1.666   3.728
 4809TIP3    H114391   4.215   1.602   3.666
 4809TIP3    H214392   4.247   1.669   3.798
 4810TIP3   OH214393   5.978   0.293   4.079
 4810TIP3    H114394   6.029   0.357   4.029
 4810TIP3    H214395   5.961   0.337   4.163
 4811TIP3   OH214396   4.252   1.822   0.675
 4811TIP3    H114397   4.280   1.806   0.765
 4811TIP3    H214398   4.307   1.764   0.622
 4812TIP3   OH214399   6.587   1.294   5.513
 4812TIP3    H114400   6.675   1.306   5.476
 4812TIP3    H214401   6.532   1.356   5.465
 4813TIP3   OH214402   5.589   4.216   1.171
 4813TIP3    H114403   5.630   4.282   1.115
 4813TIP3    H214404   5.657   4.190   1.233
 4814TIP3   OH214405   6.843   5.987   2.406
 4814TIP3    H114406   6.856   5.978   2.501
 4814TIP3    H214407   6.748   5.986   2.395
 4815TIP3   OH214408   4.389   6.273   4.286
 4815TIP3    H114409   4.336   6.262   4.207
 4815TIP3    H214410   4.325   6.275   4.357
 4816TIP3   OH214411   0.338   4.488   5.314
 4816TIP3    H114412   0.312   4.552   5.248
 4816TIP3    H214413   0.425   4.516   5.343
 4817TIP3   OH214414   2.524   2.605   0.142
 4817TIP3    H114415   2.519   2.682   0.199
 4817TIP3    H214416   2.536   2.532   0.202
 4818TIP3   OH214417   6.392   5.397   2.183
 4818TIP3    H114418   6.464   5.351   2.226
 4818TIP3    H214419   6.412   5.391   2.090
 4819TIP3   OH214420   0.414   6.086   4.906
 4819TIP3    H114421   0.480   6.016   4.905
 4819TIP3    H214422   0.395   6.100   4.999
 4820TIP3   OH214423   5.371   4.247   4.409
 4820TIP3    H114424   5.356   4.339   4.386
 4820TIP3    H214425   5.329   4.198   4.338
 4821TIP3   OH214426   2.261   1.558   1.675
 4821TIP3    H114427   2.234   1.469   1.699
 4821TIP3    H214428   2.217   1.614   1.739
 4822TIP3   OH214429   2.229   3.779   2.177
 4822TIP3    H114430   2.211   3.724   2.101
 4822TIP3    H214431   2.148   3.775   2.228
 4823TIP3   OH214432   3.273   6.474   5.798
 4823TIP3    H114433   3.334   6.459   5.726
 4823TIP3    H214434   3.204   6.409   5.786
 4824TIP3   OH214435   5.540   6.100   1.681
 4824TIP3    H114436   5.602   6.033   1.709
 4824TIP3    H214437   5.488   6.119   1.759
 4825TIP3   OH214438   1.089   6.439   2.879
 4825TIP3    H114439   1.010   6.491   2.863
 4825TIP3    H214440   1.061   6.349   2.867
 4826TIP3   OH214441   3.105   1.943   1.364
 4826TIP3    H114442   3.200   1.945   1.361
 4826TIP3    H214443   3.079   2.035   1.369
 4827TIP3   OH214444   5.591   1.233   0.111
 4827TIP3    H114445   5.631   1.296   0.170
 4827TIP3    H214446   5.497   1.250   0.118
 4828TIP3   OH214447   4.751   5.584   2.429
 4828TIP3    H114448   4.765   5.519   2.498
 4828TIP3    H214449   4.838   5.620   2.412
 4829TIP3   OH214450   5.246   3.041   5.697
 4829TIP3    H114451   5.240   2.982   5.622
 4829TIP3    H214452   5.270   2.985   5.770
 4830TIP3   OH214453   1.090   2.752   4.413
 4830TIP3    H114454   1.094   2.709   4.328
 4830TIP3    H214455   1.035   2.829   4.399
 4831TIP3   OH214456   6.800   5.504   3.984
 4831TIP3    H114457   6.726   5.462   4.029
 4831TIP3    H214458   6.794   5.472   3.894
 4832TIP3   OH214459   0.542   5.234   5.347
 4832TIP3    H114460   0.521   5.273   5.431
 4832TIP3    H214461   0.550   5.308   5.287
 4833TIP3   OH214462   3.158   1.490   4.703
 4833TIP3    H114463   3.203   1.426   4.648
 4833TIP3    H214464   3.080   1.444   4.734
 4834TIP3   OH214465   6.954   2.069   5.784
 4834TIP3    H114466   6.865   2.090   5.810
 4834TIP3    H214467   7.006   2.081   5.864
 4835TIP3   OH214468   2.384   4.853   4.583
 4835TIP3    H114469   2.387   4.897   4.498
 4835TIP3    H214470   2.369   4.924   4.646
 4836TIP3   OH214471   1.304   3.065   5.074
 4836TIP3    H114472   1.261   3.142   5.038
 4836TIP3    H214473   1.368   3.039   5.008
 4837TIP3   OH214474   1.054   5.355   4.357
 4837TIP3    H114475   1.052   5.446   4.327
 4837TIP3    H214476   0.988   5.310   4.303
 4838TIP3   OH214477   2.458   0.089   2.098
 4838TIP3    H114478   2.542   0.112   2.137
 4838TIP3    H214479   2.400   0.162   2.119
 4839TIP3   OH214480   5.495   4.274   5.292
 4839TIP3    H114481   5.435   4.333   5.247
 4839TIP3    H214482   5.490   4.192   5.243
 4840TIP3   OH214483   7.019   2.510   5.452
 4840TIP3    H114484   6.972   2.429   5.432
 4840TIP3    H214485   6.975   2.545   5.530
 4841TIP3   OH214486   0.588   4.120   5.799
 4841TIP3    H114487   0.649   4.046   5.796
 4841TIP3    H214488   0.611   4.174   5.723
 4842TIP3   OH214489   0.412   4.760   4.068
 4842TIP3    H114490   0.444   4.850   4.066
 4842TIP3    H214491   0.395   4.738   3.976
 4843TIP3   OH214492   4.035   5.714   1.118
 4843TIP3    H114493   3.966   5.780   1.106
 4843TIP3    H214494   4.069   5.731   1.205
 4844TIP3   OH214495   1.761   4.320   3.232
 4844TIP3    H114496   1.762   4.242   3.176
 4844TIP3    H214497   1.688   4.306   3.292
 4845TIP3   OH214498   0.546   4.682   0.755
 4845TIP3    H114499   0.460   4.646   0.773
 4845TIP3    H214500   0.557   4.673   0.661
 4846TIP3   OH214501   4.618   2.717   1.206
 4846TIP3    H114502   4.650   2.790   1.153
 4846TIP3    H214503   4.617   2.643   1.146
 4847TIP3   OH214504   4.680   0.804   2.121
 4847TIP3    H114505   4.678   0.727   2.064
 4847TIP3    H214506   4.595   0.803   2.165
 4848TIP3   OH214507   2.616   5.501   0.473
 4848TIP3    H114508   2.582   5.591   0.464
 4848TIP3    H214509   2.598   5.461   0.388
 4849TIP3   OH214510   1.716   2.998   5.177
 4849TIP3    H114511   1.777   2.996   5.251
 4849TIP3    H214512   1.695   3.091   5.166
 4850TIP3   OH214513   0.030   0.816   3.668
 4850TIP3    H114514   0.100   0.805   3.604
 4850TIP3    H214515  -0.013   0.897   3.642
 4851TIP3   OH214516   0.573   0.468   2.948
 4851TIP3    H114517   0.614   0.553   2.937
 4851TIP3    H214518   0.525   0.453   2.867
 4852TIP3   OH214519   2.245   3.504   1.337
 4852TIP3    H114520   2.290   3.570   1.389
 4852TIP3    H214521   2.165   3.486   1.385
 4853TIP3   OH214522   6.364   6.744   0.474
 4853TIP3    H114523   6.309   6.770   0.400
 4853TIP3    H214524   6.451   6.779   0.454
 4854TIP3   OH214525   6.463   5.069   3.733
 4854TIP3    H114526   6.434   5.160   3.733
 4854TIP3    H214527   6.500   5.055   3.821
 4855TIP3   OH214528   4.591   3.129   5.733
 4855TIP3    H114529   4.644   3.208   5.722
 4855TIP3    H214530   4.501   3.158   5.716
 4856TIP3   OH214531   3.595   4.385   2.194
 4856TIP3    H114532   3.671   4.426   2.235
 4856TIP3    H214533   3.546   4.347   2.266
 4857TIP3   OH214534   2.085   3.065   3.815
 4857TIP3    H114535   2.106   3.014   3.893
 4857TIP3    H214536   2.170   3.083   3.775
 4858TIP3   OH214537   6.743   2.349   0.786
 4858TIP3    H114538   6.717   2.273   0.839
 4858TIP3    H214539   6.839   2.343   0.781
 4859TIP3   OH214540   6.976   4.935   1.812
 4859TIP3    H114541   7.070   4.914   1.813
 4859TIP3    H214542   6.935   4.860   1.856
 4860TIP3   OH214543   2.849   4.708   1.809
 4860TIP3    H114544   2.757   4.697   1.786
 4860TIP3    H214545   2.878   4.619   1.833
 4861TIP3   OH214546   5.501   2.156   2.583
 4861TIP3    H114547   5.534   2.242   2.557
 4861TIP3    H214548   5.469   2.168   2.672
 4862TIP3   OH214549   5.875   1.151   2.551
 4862TIP3    H114550   5.915   1.128   2.467
 4862TIP3    H214551   5.798   1.202   2.527
 4863TIP3   OH214552   1.879   1.244   0.571
 4863TIP3    H114553   1.798   1.288   0.595
 4863TIP3    H214554   1.938   1.260   0.645
 4864TIP3   OH214555   4.513   2.773   5.164
 4864TIP3    H114556   4.605   2.788   5.190
 4864TIP3    H214557   4.462   2.808   5.237
 4865TIP3   OH214558   7.015   5.614   4.875
 4865TIP3    H114559   7.076   5.581   4.809
 4865TIP3    H214560   6.947   5.546   4.881
 4866TIP3   OH214561   0.083   2.735   3.913
 4866TIP3    H114562   0.044   2.792   3.846
 4866TIP3    H214563   0.077   2.787   3.994
 4867TIP3   OH214564   3.199   5.866   3.228
 4867TIP3    H114565   3.205   5.957   3.257
 4867TIP3    H214566   3.189   5.872   3.133
 4868TIP3   OH214567   4.713   5.791   4.908
 4868TIP3    H114568   4.753   5.741   4.979
 4868TIP3    H214569   4.778   5.858   4.887
 4869TIP3   OH214570   2.461   5.925   0.505
 4869TIP3    H114571   2.555   5.909   0.514
 4869TIP3    H214572   2.420   5.865   0.567
 4870TIP3   OH214573   4.614   0.351   0.066
 4870TIP3    H114574   4.683   0.381   0.006
 4870TIP3    H214575   4.609   0.257   0.050
 4871TIP3   OH214576   6.804   6.394   4.343
 4871TIP3    H114577   6.846   6.424   4.262
 4871TIP3    H214578   6.749   6.320   4.315
 4872TIP3   OH214579   1.209   1.395   2.735
 4872TIP3    H114580   1.292   1.357   2.705
 4872TIP3    H214581   1.183   1.453   2.664
 4873TIP3   OH214582   5.218   5.412   5.392
 4873TIP3    H114583   5.307   5.438   5.370
 4873TIP3    H214584   5.212   5.427   5.487
 4874TIP3   OH214585   0.216   0.659   1.353
 4874TIP3    H114586   0.258   0.633   1.435
 4874TIP3    H214587   0.174   0.579   1.320
 4875TIP3   OH214588   3.319   1.992   5.138
 4875TIP3    H114589   3.312   1.946   5.222
 4875TIP3    H214590   3.285   2.079   5.156
 4876TIP3   OH214591   2.760   2.678   0.584
 4876TIP3    H114592   2.802   2.623   0.517
 4876TIP3    H214593   2.749   2.763   0.541
 4877TIP3   OH214594   3.450   4.160   3.473
 4877TIP3    H114595   3.411   4.165   3.386
 4877TIP3    H214596   3.391   4.211   3.529
 4878TIP3   OH214597   0.584   1.580   0.079
 4878TIP3    H114598   0.645   1.652   0.064
 4878TIP3    H214599   0.631   1.502   0.050
 4879TIP3   OH214600   6.776   4.779   3.226
 4879TIP3    H114601   6.692   4.813   3.196
 4879TIP3    H214602   6.770   4.778   3.321
 4880TIP3   OH214603   0.881   1.335   5.102
 4880TIP3    H114604   0.959   1.311   5.151
 4880TIP3    H214605   0.880   1.274   5.028
 4881TIP3   OH214606   5.393   1.014   3.780
 4881TIP3    H114607   5.306   1.006   3.818
 4881TIP3    H214608   5.440   0.936   3.810
 4882TIP3   OH214609   2.692   1.998   4.314
 4882TIP3    H114610   2.734   1.936   4.373
 4882TIP3    H214611   2.682   1.950   4.232
 4883TIP3   OH214612   6.608   6.401   2.726
 4883TIP3    H114613   6.583   6.482   2.769
 4883TIP3    H214614   6.551   6.396   2.648
 4884TIP3   OH214615   2.695   1.357   5.663
 4884TIP3    H114616   2.615   1.403   5.690
 4884TIP3    H214617   2.664   1.289   5.603
 4885TIP3   OH214618   5.904   4.911   0.417
 4885TIP3    H114619   5.816   4.891   0.448
 4885TIP3    H214620   5.939   4.971   0.482
 4886TIP3   OH214621   2.634   1.694   3.610
 4886TIP3    H114622   2.638   1.780   3.567
 4886TIP3    H214623   2.566   1.646   3.563
 4887TIP3   OH214624   3.614   2.578   2.861
 4887TIP3    H114625   3.535   2.539   2.824
 4887TIP3    H214626   3.652   2.509   2.915
 4888TIP3   OH214627   4.549   5.998   0.344
 4888TIP3    H114628   4.619   6.030   0.401
 4888TIP3    H214629   4.469   6.030   0.386
 4889TIP3   OH214630   1.597   6.703   5.699
 4889TIP3    H114631   1.597   6.798   5.687
 4889TIP3    H214632   1.521   6.672   5.648
 4890TIP3   OH214633   1.652   4.701   4.016
 4890TIP3    H114634   1.717   4.766   3.990
 4890TIP3    H214635   1.701   4.619   4.020
 4891TIP3   OH214636   3.750   2.129   5.671
 4891TIP3    H114637   3.836   2.134   5.629
 4891TIP3    H214638   3.739   2.214   5.713
 4892TIP3   OH214639   1.998   5.568   5.641
 4892TIP3    H114640   2.003   5.477   5.612
 4892TIP3    H214641   2.086   5.586   5.674
 4893TIP3   OH214642   2.738   4.195   5.364
 4893TIP3    H114643   2.740   4.147   5.282
 4893TIP3    H214644   2.809   4.157   5.416
 4894TIP3   OH214645   5.761   1.157   4.558
 4894TIP3    H114646   5.840   1.203   4.586
 4894TIP3    H214647   5.761   1.075   4.609
 4895TIP3   OH214648   4.790   6.751   0.625
 4895TIP3    H114649   4.822   6.680   0.571
 4895TIP3    H214650   4.701   6.725   0.649
 4896TIP3   OH214651   3.317   5.601   0.104
 4896TIP3    H114652   3.301   5.507   0.105
 4896TIP3    H214653   3.234   5.640   0.129
 4897TIP3   OH214654   6.714   4.586   5.235
 4897TIP3    H114655   6.618   4.580   5.239
 4897TIP3    H214656   6.739   4.521   5.170
 4898TIP3   OH214657   3.097   5.947   2.340
 4898TIP3    H114658   3.190   5.957   2.361
 4898TIP3    H214659   3.053   5.944   2.425
 4899TIP3   OH214660   0.332   5.353   1.330
 4899TIP3    H114661   0.315   5.284   1.266
 4899TIP3    H214662   0.427   5.367   1.327
 4900TIP3   OH214663   6.264   1.834   5.671
 4900TIP3    H114664   6.305   1.921   5.663
 4900TIP3    H214665   6.171   1.850   5.653
 4901TIP3   OH214666   4.199   1.805   4.149
 4901TIP3    H114667   4.265   1.834   4.212
 4901TIP3    H214668   4.120   1.855   4.171
 4902TIP3   OH214669   5.035   4.593   4.139
 4902TIP3    H114670   5.040   4.635   4.054
 4902TIP3    H214671   4.968   4.643   4.186
 4903TIP3   OH214672   4.366   2.939   5.323
 4903TIP3    H114673   4.392   3.031   5.328
 4903TIP3    H214674   4.274   2.938   5.348
 4904TIP3   OH214675   6.886   3.768   2.061
 4904TIP3    H114676   6.803   3.814   2.049
 4904TIP3    H214677   6.870   3.681   2.024
 4905TIP3   OH214678   0.402   6.535   2.054
 4905TIP3    H114679   0.307   6.533   2.064
 4905TIP3    H214680   0.423   6.459   2.000
 4906TIP3   OH214681   0.503   2.755   3.492
 4906TIP3    H114682   0.596   2.733   3.500
 4906TIP3    H214683   0.478   2.720   3.406
 4907TIP3   OH214684   6.708   2.116   4.345
 4907TIP3    H114685   6.792   2.122   4.300
 4907TIP3    H214686   6.683   2.207   4.360
 4908TIP3   OH214687   4.039   4.233   4.062
 4908TIP3    H114688   4.105   4.263   4.125
 4908TIP3    H214689   3.957   4.234   4.111
 4909TIP3   OH214690   3.992   5.136   1.344
 4909TIP3    H114691   4.078   5.115   1.307
 4909TIP3    H214692   3.930   5.118   1.274
 4910TIP3   OH214693   1.582   1.008   0.933
 4910TIP3    H114694   1.490   1.016   0.910
 4910TIP3    H214695   1.582   0.996   1.028
 4911TIP3   OH214696   6.616   2.779   2.220
 4911TIP3    H114697   6.593   2.765   2.128
 4911TIP3    H214698   6.709   2.757   2.225
 4912TIP3   OH214699   1.657   3.552   3.910
 4912TIP3    H114700   1.617   3.496   3.976
 4912TIP3    H214701   1.726   3.599   3.957
 4913TIP3   OH214702   0.729   5.543   5.141
 4913TIP3    H114703   0.761   5.609   5.081
 4913TIP3    H214704   0.809   5.504   5.178
 4914TIP3   OH214705   2.407   4.265   2.247
 4914TIP3    H114706   2.433   4.341   2.299
 4914TIP3    H214707   2.372   4.203   2.311
 4915TIP3   OH214708   5.557   1.219   3.744
 4915TIP3    H114709   5.490   1.153   3.763
 4915TIP3    H214710   5.566   1.268   3.825
 4916TIP3   OH214711   6.062   6.171   2.941
 4916TIP3    H114712   6.148   6.167   2.983
 4916TIP3    H214713   6.036   6.079   2.931
 4917TIP3   OH214714   2.928   5.046   2.844
 4917TIP3    H114715   3.001   5.108   2.843
 4917TIP3    H214716   2.882   5.063   2.762
 4918TIP3   OH214717   3.869   0.467   5.117
 4918TIP3    H114718   3.923   0.546   5.116
 4918TIP3    H214719   3.791   0.493   5.167
 4919TIP3   OH214720   7.073   1.141   1.039
 4919TIP3    H114721   7.094   1.150   1.132
 4919TIP3    H214722   7.133   1.074   1.007
 4920TIP3   OH214723   1.436   3.508   0.947
 4920TIP3    H114724   1.475   3.571   1.007
 4920TIP3    H214725   1.462   3.423   0.981
 4921TIP3   OH214726   2.092   6.712   3.377
 4921TIP3    H114727   2.021   6.773   3.396
 4921TIP3    H214728   2.066   6.670   3.295
 4922TIP3   OH214729   2.066   4.460   1.651
 4922TIP3    H114730   2.084   4.553   1.644
 4922TIP3    H214731   1.977   4.450   1.617
 4923TIP3   OH214732   5.097   1.735   1.742
 4923TIP3    H114733   5.047   1.765   1.666
 4923TIP3    H214734   5.173   1.793   1.745
 4924TIP3   OH214735   4.447   4.601   2.703
 4924TIP3    H114736   4.536   4.621   2.733
 4924TIP3    H214737   4.435   4.509   2.725
 4925TIP3   OH214738   4.762   1.882   0.930
 4925TIP3    H114739   4.857   1.870   0.931
 4925TIP3    H214740   4.730   1.823   0.998
 4926TIP3   OH214741   1.472   1.569   4.181
 4926TIP3    H114742   1.520   1.526   4.252
 4926TIP3    H214743   1.505   1.527   4.101
 4927TIP3   OH214744   5.911   6.056   2.415
 4927TIP3    H114745   5.898   6.132   2.470
 4927TIP3    H214746   5.956   6.089   2.337
 4928TIP3   OH214747   7.132   2.512   5.097
 4928TIP3    H114748   7.209   2.462   5.069
 4928TIP3    H214749   7.134   2.592   5.046
 4929TIP3   OH214750   5.197   6.659   3.678
 4929TIP3    H114751   5.123   6.628   3.729
 4929TIP3    H214752   5.240   6.724   3.733
 4930TIP3   OH214753   0.267   4.741   3.082
 4930TIP3    H114754   0.359   4.715   3.079
 4930TIP3    H214755   0.241   4.727   3.173
 4931TIP3   OH214756   1.856   4.484   3.058
 4931TIP3    H114757   1.798   4.451   3.126
 4931TIP3    H214758   1.944   4.467   3.091
 4932TIP3   OH214759   3.064   0.412   3.083
 4932TIP3    H114760   3.069   0.353   3.158
 4932TIP3    H214761   2.973   0.441   3.081
 4933TIP3   OH214762   0.948   1.579   4.708
 4933TIP3    H114763   1.013   1.549   4.644
 4933TIP3    H214764   0.998   1.594   4.788
 4934TIP3   OH214765   0.127   6.273   2.118
 4934TIP3    H114766   0.197   6.237   2.063
 4934TIP3    H214767   0.047   6.253   2.070
 4935TIP3   OH214768   4.914   3.708   3.232
 4935TIP3    H114769   4.836   3.655   3.213
 4935TIP3    H214770   4.960   3.713   3.148
 4936TIP3   OH214771   3.931   0.526   4.544
 4936TIP3    H114772   4.004   0.531   4.606
 4936TIP3    H214773   3.919   0.432   4.529
 4937TIP3   OH214774   3.707   2.370   3.238
 4937TIP3    H114775   3.659   2.288   3.247
 4937TIP3    H214776   3.739   2.370   3.148
 4938TIP3   OH214777   4.939   1.663   5.065
 4938TIP3    H114778   4.994   1.584   5.064
 4938TIP3    H214779   4.850   1.630   5.060
 4939TIP3   OH214780   0.945   6.740   1.159
 4939TIP3    H114781   0.951   6.677   1.088
 4939TIP3    H214782   1.010   6.710   1.223
 4940TIP3   OH214783   7.155   0.257   4.709
 4940TIP3    H114784   7.119   0.279   4.795
 4940TIP3    H214785   7.201   0.174   4.723
 4941TIP3   OH214786   0.839   6.122   2.063
 4941TIP3    H114787   0.758   6.087   2.024
 4941TIP3    H214788   0.833   6.216   2.048
 4942TIP3   OH214789   1.283   3.863   5.853
 4942TIP3    H114790   1.330   3.793   5.809
 4942TIP3    H214791   1.288   3.937   5.792
 4943TIP3   OH214792   3.218   5.525   3.481
 4943TIP3    H114793   3.179   5.612   3.478
 4943TIP3    H214794   3.146   5.465   3.461
 4944TIP3   OH214795   2.203   6.599   0.062
 4944TIP3    H114796   2.201   6.598  -0.034
 4944TIP3    H214797   2.219   6.508   0.087
 4945TIP3   OH214798   1.123   3.271   3.063
 4945TIP3    H114799   1.128   3.274   3.158
 4945TIP3    H214800   1.215   3.269   3.034
 4946TIP3   OH214801   0.847   5.062   2.607
 4946TIP3    H114802   0.770   5.006   2.612
 4946TIP3    H214803   0.918   5.002   2.584
 4947TIP3   OH214804   5.802   5.731   3.647
 4947TIP3    H114805   5.784   5.776   3.564
 4947TIP3    H214806   5.834   5.801   3.705
 4948TIP3   OH214807   3.795   1.382   5.277
 4948TIP3    H114808   3.760   1.317   5.338
 4948TIP3    H214809   3.760   1.465   5.308
 4949TIP3   OH214810   2.954   1.903   2.845
 4949TIP3    H114811   2.925   1.815   2.822
 4949TIP3    H214812   2.938   1.909   2.939
 4950TIP3   OH214813   5.021   2.376   1.921
 4950TIP3    H114814   4.940   2.384   1.972
 4950TIP3    H214815   5.064   2.298   1.957
 4951TIP3   OH214816   0.705   3.556   5.534
 4951TIP3    H114817   0.658   3.488   5.486
 4951TIP3    H214818   0.658   3.637   5.514
 4952TIP3   OH214819   5.296   3.103   0.571
 4952TIP3    H114820   5.209   3.076   0.542
 4952TIP3    H214821   5.352   3.026   0.559
 4953TIP3   OH214822   2.799  -0.008   0.097
 4953TIP3    H114823   2.782  -0.056   0.016
 4953TIP3    H214824   2.713   0.024   0.123
 4954TIP3   OH214825   5.143   0.659   5.821
 4954TIP3    H114826   5.101   0.713   5.753
 4954TIP3    H214827   5.069   0.620   5.868
 4955TIP3   OH214828   0.576   1.322   1.068
 4955TIP3    H114829   0.644   1.257   1.087
 4955TIP3    H214830   0.620   1.407   1.081
 4956TIP3   OH214831   1.492   1.112   2.938
 4956TIP3    H114832   1.442   1.039   2.975
 4956TIP3    H214833   1.441   1.139   2.861
 4957TIP3   OH214834   0.827   0.940   1.346
 4957TIP3    H114835   0.909   0.989   1.338
 4957TIP3    H214836   0.809   0.908   1.258
 4958TIP3   OH214837   2.261   5.816   5.146
 4958TIP3    H114838   2.227   5.733   5.112
 4958TIP3    H214839   2.356   5.801   5.154
 4959TIP3   OH214840   6.154   6.658   0.722
 4959TIP3    H114841   6.107   6.658   0.638
 4959TIP3    H214842   6.244   6.677   0.697
 4960TIP3   OH214843   3.881   3.082   5.721
 4960TIP3    H114844   3.931   3.152   5.762
 4960TIP3    H214845   3.888   3.008   5.782
 4961TIP3   OH214846   7.158   3.690   5.561
 4961TIP3    H114847   7.158   3.678   5.466
 4961TIP3    H214848   7.139   3.783   5.574
 4962TIP3   OH214849   3.452   4.838   3.948
 4962TIP3    H114850   3.399   4.899   3.999
 4962TIP3    H214851   3.392   4.769   3.921
 4963TIP3   OH214852   7.114   6.299   0.648
 4963TIP3    H114853   7.116   6.394   0.641
 4963TIP3    H214854   7.142   6.280   0.738
 4964TIP3   OH214855   5.025   5.403   0.545
 4964TIP3    H114856   4.970   5.327   0.566
 4964TIP3    H214857   4.966   5.478   0.551
 4965TIP3   OH214858   3.556   1.308   1.409
 4965TIP3    H114859   3.527   1.366   1.338
 4965TIP3    H214860   3.496   1.234   1.406
 4966TIP3   OH214861   1.893   0.361   5.251
 4966TIP3    H114862   1.850   0.434   5.295
 4966TIP3    H214863   1.833   0.287   5.262
 4967TIP3   OH214864   4.679   2.674   2.589
 4967TIP3    H114865   4.718   2.595   2.552
 4967TIP3    H214866   4.720   2.684   2.675
 4968TIP3   OH214867   1.212   6.408   2.101
 4968TIP3    H114868   1.189   6.322   2.135
 4968TIP3    H214869   1.281   6.439   2.160
 4969TIP3   OH214870   4.009   5.068   0.398
 4969TIP3    H114871   3.983   5.068   0.490
 4969TIP3    H214872   3.960   4.996   0.359
 4970TIP3   OH214873   0.573   3.688   2.311
 4970TIP3    H114874   0.610   3.727   2.232
 4970TIP3    H214875   0.478   3.696   2.299
 4971TIP3   OH214876   0.142   4.351   1.958
 4971TIP3    H114877   0.217   4.410   1.965
 4971TIP3    H214878   0.082   4.379   2.027
 4972TIP3   OH214879   2.448   3.795   4.367
 4972TIP3    H114880   2.373   3.819   4.312
 4972TIP3    H214881   2.417   3.722   4.420
 4973TIP3   OH214882   3.575   2.868   4.944
 4973TIP3    H114883   3.657   2.911   4.921
 4973TIP3    H214884   3.588   2.838   5.034
 4974TIP3   OH214885   5.592   0.864   2.606
 4974TIP3    H114886   5.551   0.873   2.692
 4974TIP3    H214887   5.546   0.927   2.551
 4975TIP3   OH214888   3.890   3.334   0.743
 4975TIP3    H114889   3.802   3.336   0.782
 4975TIP3    H214890   3.883   3.271   0.672
 4976TIP3   OH214891   5.561   2.245   4.349
 4976TIP3    H114892   5.522   2.311   4.406
 4976TIP3    H214893   5.487   2.192   4.320
 4977TIP3   OH214894   5.036   2.125   3.742
 4977TIP3    H114895   5.023   2.217   3.762
 4977TIP3    H214896   5.125   2.120   3.708
 4978TIP3   OH214897   2.843   2.989   1.789
 4978TIP3    H114898   2.901   2.937   1.844
 4978TIP3    H214899   2.789   3.038   1.851
 4979TIP3   OH214900   1.124   2.963   3.226
 4979TIP3    H114901   1.179   3.001   3.294
 4979TIP3    H214902   1.179   2.963   3.148
 4980TIP3   OH214903   6.956   5.917   5.554
 4980TIP3    H114904   7.009   5.869   5.490
 4980TIP3    H214905   6.988   6.007   5.548
 4981TIP3   OH214906   3.132   0.479   4.441
 4981TIP3    H114907   3.221   0.490   4.407
 4981TIP3    H214908   3.078   0.537   4.388
 4982TIP3   OH214909   4.913   0.478   3.146
 4982TIP3    H114910   4.896   0.562   3.190
 4982TIP3    H214911   4.826   0.446   3.121
 4983TIP3   OH214912   0.088   0.328   0.487
 4983TIP3    H114913   0.145   0.343   0.412
 4983TIP3    H214914   0.000   0.323   0.449
 4984TIP3   OH214915   6.547   3.891   3.722
 4984TIP3    H114916   6.521   3.848   3.804
 4984TIP3    H214917   6.492   3.968   3.717
 4985TIP3   OH214918   1.327   0.919   5.443
 4985TIP3    H114919   1.241   0.948   5.472
 4985TIP3    H214920   1.328   0.825   5.462
 4986TIP3   OH214921   7.039   3.354   4.994
 4986TIP3    H114922   7.116   3.365   5.050
 4986TIP3    H214923   6.996   3.439   4.996
 4987TIP3   OH214924   1.016   5.668   0.141
 4987TIP3    H114925   1.105   5.639   0.159
 4987TIP3    H214926   1.009   5.752   0.187
 4988TIP3   OH214927   2.528   1.242   4.525
 4988TIP3    H114928   2.610   1.281   4.557
 4988TIP3    H214929   2.525   1.156   4.567
 4989TIP3   OH214930   6.627   5.217   1.246
 4989TIP3    H114931   6.720   5.222   1.266
 4989TIP3    H214932   6.606   5.123   1.249
 4990TIP3   OH214933   3.632   5.970   3.660
 4990TIP3    H114934   3.659   5.884   3.693
 4990TIP3    H214935   3.616   6.022   3.739
 4991TIP3   OH214936   0.827   6.249   0.635
 4991TIP3    H114937   0.845   6.233   0.542
 4991TIP3    H214938   0.747   6.302   0.635
 4992TIP3   OH214939   6.956   4.126   3.688
 4992TIP3    H114940   7.044   4.090   3.701
 4992TIP3    H214941   6.940   4.115   3.594
 4993TIP3   OH214942   2.643   2.652   1.515
 4993TIP3    H114943   2.651   2.600   1.595
 4993TIP3    H214944   2.732   2.682   1.496
 4994TIP3   OH214945   5.981   5.245   4.596
 4994TIP3    H114946   5.984   5.155   4.629
 4994TIP3    H214947   6.070   5.278   4.609
 4995TIP3   OH214948   0.985   2.315   5.291
 4995TIP3    H114949   0.954   2.395   5.249
 4995TIP3    H214950   0.968   2.329   5.384
 4996TIP3   OH214951   3.635   6.409   5.249
 4996TIP3    H114952   3.659   6.484   5.194
 4996TIP3    H214953   3.602   6.343   5.188
 4997TIP3   OH214954   0.703   3.455   2.166
 4997TIP3    H114955   0.661   3.402   2.234
 4997TIP3    H214956   0.795   3.432   2.170
 4998TIP3   OH214957   5.348   1.573   3.937
 4998TIP3    H114958   5.356   1.581   4.032
 4998TIP3    H214959   5.254   1.563   3.922
 4999TIP3   OH214960   1.610   2.701   2.593
 4999TIP3    H114961   1.692   2.747   2.581
 4999TIP3    H214962   1.633   2.608   2.588
 5000TIP3   OH214963   0.246   3.596   5.090
 5000TIP3    H114964   0.301   3.619   5.164
 5000TIP3    H214965   0.200   3.517   5.118
 5001TIP3   OH214966   5.584   0.775   5.269
 5001TIP3    H114967   5.574   0.786   5.364
 5001TIP3    H214968   5.598   0.863   5.236
 5002TIP3   OH214969   4.608   1.578   0.187
 5002TIP3    H114970   4.637   1.654   0.137
 5002TIP3    H214971   4.521   1.558   0.153
 5003TIP3   OH214972   5.473   4.098   3.454
 5003TIP3    H114973   5.507   4.062   3.372
 5003TIP3    H214974   5.384   4.065   3.461
 5004TIP3   OH214975   1.925   6.469   3.477
 5004TIP3    H114976   1.897   6.560   3.488
 5004TIP3    H214977   1.885   6.441   3.395
 5005TIP3   OH214978   1.447   2.770   2.397
 5005TIP3    H114979   1.526   2.744   2.444
 5005TIP3    H214980   1.380   2.709   2.427
 5006TIP3   OH214981   3.745   5.915   3.101
 5006TIP3    H114982   3.764   5.915   3.007
 5006TIP3    H214983   3.684   5.988   3.113
 5007TIP3   OH214984   0.440   4.781   5.383
 5007TIP3    H114985   0.408   4.862   5.343
 5007TIP3    H214986   0.434   4.798   5.478
 5008TIP3   OH214987   5.921   5.619   3.022
 5008TIP3    H114988   5.965   5.576   3.095
 5008TIP3    H214989   5.828   5.595   3.034
 5009TIP3   OH214990   1.548   1.477   2.946
 5009TIP3    H114991   1.616   1.524   2.995
 5009TIP3    H214992   1.467   1.495   2.994
 5010TIP3   OH214993   3.375   0.233   4.465
 5010TIP3    H114994   3.314   0.163   4.487
 5010TIP3    H214995   3.446   0.224   4.528
 5011TIP3   OH214996   1.363   5.471   2.222
 5011TIP3    H114997   1.402   5.427   2.298
 5011TIP3    H214998   1.270   5.476   2.243
 5012TIP3   OH214999   3.431   5.074   0.115
 5012TIP3    H115000   3.342   5.052   0.089
 5012TIP3    H215001   3.460   5.000   0.169
 5013TIP3   OH215002   0.127   4.061   3.421
 5013TIP3    H115003   0.214   4.035   3.391
 5013TIP3    H215004   0.068   3.999   3.379
 5014TIP3   OH215005   1.222   3.670   5.213
 5014TIP3    H115006   1.280   3.733   5.257
 5014TIP3    H215007   1.228   3.694   5.120
 5015TIP3   OH215008   0.167   2.367   2.234
 5015TIP3    H115009   0.120   2.284   2.235
 5015TIP3    H215010   0.251   2.347   2.194
 5016TIP3   OH215011   2.788   6.744   5.388
 5016TIP3    H115012   2.833   6.672   5.432
 5016TIP3    H215013   2.859   6.802   5.360
 5017TIP3   OH215014   0.303   3.679   2.630
 5017TIP3    H115015   0.238   3.695   2.561
 5017TIP3    H215016   0.374   3.740   2.610
 5018TIP3   OH215017   6.512   5.606   4.314
 5018TIP3    H115018   6.557   5.535   4.268
 5018TIP3    H215019   6.551   5.686   4.280
 5019TIP3   OH215020   1.858   2.660   1.012
 5019TIP3    H115021   1.847   2.598   0.940
 5019TIP3    H215022   1.829   2.744   0.976
 5020TIP3   OH215023   7.186   3.320   2.849
 5020TIP3    H115024   7.101   3.319   2.806
 5020TIP3    H215025   7.242   3.264   2.794
 5021TIP3   OH215026   2.270   3.459   5.021
 5021TIP3    H115027   2.304   3.535   5.067
 5021TIP3    H215028   2.179   3.481   5.000
 5022TIP3   OH215029   4.996   2.744   1.017
 5022TIP3    H115030   4.929   2.794   0.971
 5022TIP3    H215031   4.946   2.684   1.074
 5023TIP3   OH215032   2.070   5.073   0.734
 5023TIP3    H115033   2.030   5.134   0.672
 5023TIP3    H215034   2.161   5.102   0.741
 5024TIP3   OH215035   5.420   1.882   2.272
 5024TIP3    H115036   5.346   1.912   2.325
 5024TIP3    H215037   5.472   1.961   2.257
 5025TIP3   OH215038   0.092   5.616   5.007
 5025TIP3    H115039   0.010   5.585   5.044
 5025TIP3    H215040   0.148   5.538   5.004
 5026TIP3   OH215041   4.709   6.572   2.414
 5026TIP3    H115042   4.670   6.529   2.490
 5026TIP3    H215043   4.788   6.614   2.448
 5027TIP3   OH215044   4.707   6.504   5.555
 5027TIP3    H115045   4.707   6.410   5.569
 5027TIP3    H215046   4.665   6.539   5.634
 5028TIP3   OH215047   1.734   6.730   4.222
 5028TIP3    H115048   1.776   6.693   4.299
 5028TIP3    H215049   1.806   6.746   4.160
 5029TIP3   OH215050   2.250   2.529   2.899
 5029TIP3    H115051   2.258   2.614   2.941
 5029TIP3    H215052   2.334   2.515   2.856
 5030TIP3   OH215053   6.103   0.285   0.744
 5030TIP3    H115054   6.023   0.307   0.696
 5030TIP3    H215055   6.080   0.205   0.792
 5031TIP3   OH215056   2.081   3.897   4.308
 5031TIP3    H115057   2.110   3.988   4.317
 5031TIP3    H215058   2.145   3.857   4.250
 5032TIP3   OH215059   4.854   5.178   1.678
 5032TIP3    H115060   4.809   5.099   1.651
 5032TIP3    H215061   4.840   5.240   1.606
 5033TIP3   OH215062   3.460   5.758   5.581
 5033TIP3    H115063   3.524   5.826   5.602
 5033TIP3    H215064   3.393   5.766   5.649
 5034TIP3   OH215065   2.467   6.770   0.702
 5034TIP3    H115066   2.504   6.737   0.620
 5034TIP3    H215067   2.389   6.818   0.675
 5035TIP3   OH215068   5.012   0.210   1.382
 5035TIP3    H115069   5.011   0.239   1.291
 5035TIP3    H215070   5.104   0.185   1.398
 5036TIP3   OH215071   3.887   1.206   5.795
 5036TIP3    H115072   3.873   1.164   5.880
 5036TIP3    H215073   3.800   1.211   5.756
 5037TIP3   OH215074   5.630   0.604   0.297
 5037TIP3    H115075   5.610   0.696   0.280
 5037TIP3    H215076   5.725   0.602   0.310
 5038TIP3   OH215077   0.982   4.984   1.195
 5038TIP3    H115078   0.938   5.069   1.199
 5038TIP3    H215079   1.073   5.004   1.220
 5039TIP3   OH215080   6.141   5.263   2.204
 5039TIP3    H115081   6.074   5.320   2.166
 5039TIP3    H215082   6.222   5.312   2.195
 5040TIP3   OH215083   2.541   5.912   0.134
 5040TIP3    H115084   2.628   5.937   0.104
 5040TIP3    H215085   2.493   5.893   0.053
 5041TIP3   OH215086   7.205   6.284   5.742
 5041TIP3    H115087   7.282   6.293   5.687
 5041TIP3    H215088   7.151   6.360   5.722
 5042TIP3   OH215089   2.754   2.874   4.728
 5042TIP3    H115090   2.689   2.805   4.718
 5042TIP3    H215091   2.821   2.853   4.663
 5043TIP3   OH215092   4.061   6.385   3.618
 5043TIP3    H115093   4.088   6.414   3.705
 5043TIP3    H215094   4.095   6.296   3.611
 5044TIP3   OH215095   1.432   6.364   5.838
 5044TIP3    H115096   1.422   6.459   5.844
 5044TIP3    H215097   1.342   6.332   5.827
 5045TIP3   OH215098   5.105   5.689   2.466
 5045TIP3    H115099   5.191   5.725   2.443
 5045TIP3    H215100   5.124   5.603   2.502
 5046TIP3   OH215101   1.384   0.603   1.400
 5046TIP3    H115102   1.451   0.547   1.441
 5046TIP3    H215103   1.428   0.641   1.324
 5047TIP3   OH215104   4.331   1.296   1.614
 5047TIP3    H115105   4.325   1.201   1.626
 5047TIP3    H215106   4.423   1.311   1.591
 5048TIP3   OH215107   5.640   4.468   0.541
 5048TIP3    H115108   5.567   4.498   0.486
 5048TIP3    H215109   5.599   4.409   0.605
 5049TIP3   OH215110   1.610   4.768   1.844
 5049TIP3    H115111   1.622   4.842   1.784
 5049TIP3    H215112   1.516   4.752   1.844
 5050TIP3   OH215113   3.410   0.404   2.792
 5050TIP3    H115114   3.399   0.493   2.828
 5050TIP3    H215115   3.503   0.399   2.770
 5051TIP3   OH215116   4.406   2.184   1.322
 5051TIP3    H115117   4.352   2.127   1.377
 5051TIP3    H215118   4.452   2.124   1.263
 5052TIP3   OH215119   1.996   3.462   4.868
 5052TIP3    H115120   1.920   3.446   4.924
 5052TIP3    H215121   1.961   3.506   4.791
 5053TIP3   OH215122   2.812   1.120   0.000
 5053TIP3    H115123   2.889   1.072  -0.030
 5053TIP3    H215124   2.838   1.212  -0.002
 5054TIP3   OH215125   1.680   4.526   2.337
 5054TIP3    H115126   1.603   4.494   2.290
 5054TIP3    H215127   1.653   4.528   2.429
 5055TIP3   OH215128   6.691   1.470   4.766
 5055TIP3    H115129   6.654   1.438   4.683
 5055TIP3    H215130   6.777   1.503   4.742
 5056TIP3   OH215131   0.798   6.632   0.914
 5056TIP3    H115132   0.869   6.575   0.941
 5056TIP3    H215133   0.788   6.694   0.986
 5057TIP3   OH215134   3.611   3.050   2.242
 5057TIP3    H115135   3.588   3.113   2.311
 5057TIP3    H215136   3.527   3.010   2.218
 5058TIP3   OH215137   1.535   5.852   2.655
 5058TIP3    H115138   1.610   5.816   2.702
 5058TIP3    H215139   1.570   5.928   2.608
 5059TIP3   OH215140   3.486   3.185   4.731
 5059TIP3    H115141   3.420   3.151   4.671
 5059TIP3    H215142   3.465   3.146   4.815
 5060TIP3   OH215143   6.021   6.620   4.429
 5060TIP3    H115144   6.056   6.544   4.475
 5060TIP3    H215145   6.072   6.694   4.463
 5061TIP3   OH215146   5.663   5.269   0.889
 5061TIP3    H115147   5.617   5.281   0.972
 5061TIP3    H215148   5.666   5.356   0.850
 5062TIP3   OH215149   6.874   2.987   1.257
 5062TIP3    H115150   6.823   3.063   1.231
 5062TIP3    H215151   6.953   2.990   1.202
 5063TIP3   OH215152   0.499   0.029   4.889
 5063TIP3    H115153   0.574  -0.026   4.908
 5063TIP3    H215154   0.429  -0.033   4.865
 5064TIP3   OH215155   1.470   6.186   3.239
 5064TIP3    H115156   1.548   6.238   3.222
 5064TIP3    H215157   1.406   6.216   3.174
 5065TIP3   OH215158   4.155   3.642   5.288
 5065TIP3    H115159   4.213   3.636   5.212
 5065TIP3    H215160   4.154   3.554   5.325
 5066TIP3   OH215161   3.914   6.312   1.646
 5066TIP3    H115162   3.860   6.276   1.576
 5066TIP3    H215163   3.951   6.235   1.690
 5067TIP3   OH215164   1.272   6.705   0.674
 5067TIP3    H115165   1.198   6.644   0.682
 5067TIP3    H215166   1.231   6.790   0.657
 5068TIP3   OH215167   3.570   3.261   4.492
 5068TIP3    H115168   3.564   3.357   4.484
 5068TIP3    H215169   3.563   3.245   4.586
 5069TIP3   OH215170   4.728   1.770   4.479
 5069TIP3    H115171   4.765   1.688   4.447
 5069TIP3    H215172   4.695   1.749   4.566
 5070TIP3   OH215173   0.732   0.342   1.253
 5070TIP3    H115174   0.646   0.317   1.219
 5070TIP3    H215175   0.794   0.285   1.207
 5071TIP3   OH215176   6.564   0.175   1.054
 5071TIP3    H115177   6.572   0.262   1.093
 5071TIP3    H215178   6.553   0.116   1.129
 5072TIP3   OH215179   4.797   0.739   2.816
 5072TIP3    H115180   4.807   0.831   2.837
 5072TIP3    H215181   4.864   0.694   2.868
 5073TIP3   OH215182   6.066   6.226   0.445
 5073TIP3    H115183   6.037   6.304   0.396
 5073TIP3    H215184   6.032   6.240   0.533
 5074TIP3   OH215185   1.323   4.272   1.835
 5074TIP3    H115186   1.249   4.295   1.891
 5074TIP3    H215187   1.390   4.336   1.856
 5075TIP3   OH215188   0.040   1.887   2.169
 5075TIP3    H115189  -0.043   1.845   2.191
 5075TIP3    H215190   0.038   1.897   2.074
 5076TIP3   OH215191   4.807   4.597   5.265
 5076TIP3    H115192   4.838   4.612   5.354
 5076TIP3    H215193   4.875   4.635   5.209
 5077TIP3   OH215194   3.412   5.702   3.200
 5077TIP3    H115195   3.356   5.624   3.196
 5077TIP3    H215196   3.354   5.772   3.229
 5078TIP3   OH215197   6.919   1.650   3.326
 5078TIP3    H115198   6.989   1.584   3.331
 5078TIP3    H215199   6.851   1.617   3.384
 5079TIP3   OH215200   1.704   4.174   4.635
 5079TIP3    H115201   1.678   4.107   4.572
 5079TIP3    H215202   1.650   4.250   4.613
 5080TIP3   OH215203   6.223   5.602   4.850
 5080TIP3    H115204   6.223   5.696   4.868
 5080TIP3    H215205   6.181   5.595   4.764
 5081TIP3   OH215206   6.504   1.108   0.063
 5081TIP3    H115207   6.555   1.131  -0.015
 5081TIP3    H215208   6.469   1.021   0.045
 5082TIP3   OH215209   3.481   1.406   4.266
 5082TIP3    H115210   3.560   1.448   4.233
 5082TIP3    H215211   3.449   1.465   4.333
 5083TIP3   OH215212   6.333   5.361   5.919
 5083TIP3    H115213   6.376   5.276   5.920
 5083TIP3    H215214   6.370   5.406   5.843
 5084TIP3   OH215215   7.023   0.490   1.382
 5084TIP3    H115216   7.001   0.536   1.464
 5084TIP3    H215217   7.102   0.533   1.351
 5085TIP3   OH215218   6.389   3.599   5.112
 5085TIP3    H115219   6.375   3.589   5.018
 5085TIP3    H215220   6.482   3.623   5.120
 5086TIP3   OH215221   3.421   0.936   1.189
 5086TIP3    H115222   3.405   0.882   1.112
 5086TIP3    H215223   3.467   1.013   1.156
 5087TIP3   OH215224   1.269   5.147   1.806
 5087TIP3    H115225   1.316   5.211   1.858
 5087TIP3    H215226   1.333   5.119   1.740
 5088TIP3   OH215227   0.006   5.352   0.838
 5088TIP3    H115228   0.087   5.313   0.805
 5088TIP3    H215229  -0.007   5.313   0.924
 5089TIP3   OH215230   1.991   6.037   3.705
 5089TIP3    H115231   1.942   6.031   3.622
 5089TIP3    H215232   1.935   6.091   3.761
 5090TIP3   OH215233   7.127   3.485   4.307
 5090TIP3    H115234   7.151   3.397   4.276
 5090TIP3    H215235   7.211   3.525   4.331
 5091TIP3   OH215236   5.121   5.072   0.145
 5091TIP3    H115237   5.154   5.127   0.074
 5091TIP3    H215238   5.143   5.119   0.225
 5092TIP3   OH215239   1.168   4.203   0.446
 5092TIP3    H115240   1.093   4.246   0.488
 5092TIP3    H215241   1.204   4.270   0.387
 5093TIP3   OH215242   5.776   2.195   4.739
 5093TIP3    H115243   5.865   2.227   4.754
 5093TIP3    H215244   5.720   2.271   4.756
 5094TIP3   OH215245   3.460   4.027   0.908
 5094TIP3    H115246   3.435   4.003   0.819
 5094TIP3    H215247   3.378   4.026   0.957
 5095TIP3   OH215248   4.568   2.230   5.698
 5095TIP3    H115249   4.505   2.190   5.757
 5095TIP3    H215250   4.585   2.163   5.632
 5096TIP3   OH215251   6.358   4.926   1.023
 5096TIP3    H115252   6.318   4.875   0.953
 5096TIP3    H215253   6.325   5.015   1.011
 5097TIP3   OH215254   0.084   1.719   2.514
 5097TIP3    H115255   0.173   1.737   2.484
 5097TIP3    H215256   0.063   1.793   2.570
 5098TIP3   OH215257   1.252   4.516   3.026
 5098TIP3    H115258   1.165   4.547   3.052
 5098TIP3    H215259   1.274   4.568   2.949
 5099TIP3   OH215260   5.123   0.766   1.147
 5099TIP3    H115261   5.028   0.776   1.134
 5099TIP3    H215262   5.139   0.672   1.135
 5100TIP3   OH215263   3.143   6.072   4.121
 5100TIP3    H115264   3.192   6.018   4.182
 5100TIP3    H215265   3.209   6.127   4.078
 5101TIP3   OH215266   4.314   5.108   3.331
 5101TIP3    H115267   4.386   5.044   3.341
 5101TIP3    H215268   4.303   5.117   3.237
 5102TIP3   OH215269   4.274   2.292   4.932
 5102TIP3    H115270   4.184   2.308   4.961
 5102TIP3    H215271   4.324   2.365   4.968
 5103TIP3   OH215272   0.019   5.529   2.129
 5103TIP3    H115273   0.050   5.599   2.072
 5103TIP3    H215274   0.097   5.478   2.151
 5104TIP3   OH215275   2.083   0.651   5.313
 5104TIP3    H115276   2.113   0.565   5.344
 5104TIP3    H215277   2.017   0.631   5.247
 5105TIP3   OH215278   2.419   2.247   0.029
 5105TIP3    H115279   2.382   2.335   0.025
 5105TIP3    H215280   2.379   2.208   0.106
 5106TIP3   OH215281   3.237   0.136   0.115
 5106TIP3    H115282   3.147   0.147   0.086
 5106TIP3    H215283   3.239   0.172   0.203
 5107TIP3   OH215284   4.187   0.331   4.201
 5107TIP3    H115285   4.238   0.412   4.211
 5107TIP3    H215286   4.203   0.303   4.111
 5108TIP3   OH215287   6.249   4.968   2.126
 5108TIP3    H115288   6.217   5.058   2.128
 5108TIP3    H215289   6.171   4.914   2.139
 5109TIP3   OH215290   4.986   5.778   0.973
 5109TIP3    H115291   5.026   5.811   0.893
 5109TIP3    H215292   5.057   5.733   1.019
 5110TIP3   OH215293   2.560   0.615   1.382
 5110TIP3    H115294   2.557   0.577   1.469
 5110TIP3    H215295   2.646   0.655   1.375
 5111TIP3   OH215296   3.174   3.452   4.934
 5111TIP3    H115297   3.133   3.539   4.940
 5111TIP3    H215298   3.222   3.455   4.851
 5112TIP3   OH215299   5.185   5.023   0.628
 5112TIP3    H115300   5.253   4.982   0.575
 5112TIP3    H215301   5.107   4.970   0.612
 5113TIP3   OH215302   3.511   2.928   3.781
 5113TIP3    H115303   3.486   3.008   3.828
 5113TIP3    H215304   3.503   2.950   3.689
 5114TIP3   OH215305   6.854   2.027   4.556
 5114TIP3    H115306   6.781   2.054   4.501
 5114TIP3    H215307   6.921   2.095   4.544
 5115TIP3   OH215308   0.645   5.756   0.909
 5115TIP3    H115309   0.637   5.726   1.000
 5115TIP3    H215310   0.594   5.837   0.906
 5116TIP3   OH215311   1.170   5.698   0.595
 5116TIP3    H115312   1.161   5.715   0.689
 5116TIP3    H215313   1.081   5.707   0.561
 5117TIP3   OH215314  -0.024   0.973   4.495
 5117TIP3    H115315   0.030   0.978   4.416
 5117TIP3    H215316   0.035   0.944   4.564
 5118TIP3   OH215317   2.251   0.522   2.229
 5118TIP3    H115318   2.165   0.549   2.197
 5118TIP3    H215319   2.280   0.595   2.283
 5119TIP3   OH215320   6.111   3.897   2.694
 5119TIP3    H115321   6.054   3.843   2.639
 5119TIP3    H215322   6.200   3.872   2.668
 5120TIP3   OH215323   5.835   4.237   4.039
 5120TIP3    H115324   5.799   4.164   4.090
 5120TIP3    H215325   5.924   4.210   4.018
 5121TIP3   OH215326   3.844   3.779   0.023
 5121TIP3    H115327   3.825   3.847   0.088
 5121TIP3    H215328   3.939   3.769   0.025
 5122TIP3   OH215329   0.061   3.316   3.309
 5122TIP3    H115330   0.065   3.328   3.404
 5122TIP3    H215331  -0.007   3.377   3.280
 5123TIP3   OH215332   2.604   6.492   2.636
 5123TIP3    H115333   2.662   6.558   2.600
 5123TIP3    H215334   2.624   6.491   2.730
 5124TIP3   OH215335   6.120   5.630   3.927
 5124TIP3    H115336   6.208   5.595   3.920
 5124TIP3    H215337   6.072   5.589   3.854
 5125TIP3   OH215338   2.513   0.489   4.866
 5125TIP3    H115339   2.545   0.443   4.944
 5125TIP3    H215340   2.442   0.434   4.834
 5126TIP3   OH215341   5.268   0.695   5.475
 5126TIP3    H115342   5.338   0.640   5.439
 5126TIP3    H215343   5.265   0.671   5.568
 5127TIP3   OH215344   0.109   3.472   5.499
 5127TIP3    H115345   0.082   3.556   5.536
 5127TIP3    H215346   0.031   3.417   5.506
 5128TIP3   OH215347   1.816   6.792   5.076
 5128TIP3    H115348   1.727   6.803   5.043
 5128TIP3    H215349   1.812   6.712   5.129
 5129TIP3   OH215350   0.116   6.764   1.230
 5129TIP3    H115351   0.210   6.784   1.234
 5129TIP3    H215352   0.110   6.670   1.244
 5130TIP3   OH215353   5.457   2.536   0.525
 5130TIP3    H115354   5.546   2.557   0.498
 5130TIP3    H215355   5.446   2.578   0.610
 5131TIP3   OH215356   3.234   6.177   1.049
 5131TIP3    H115357   3.270   6.190   1.137
 5131TIP3    H215358   3.272   6.095   1.019
 5132TIP3   OH215359   4.877   3.594   3.712
 5132TIP3    H115360   4.967   3.561   3.711
 5132TIP3    H215361   4.877   3.664   3.646
 5133TIP3   OH215362   0.826   5.178   2.257
 5133TIP3    H115363   0.881   5.150   2.183
 5133TIP3    H215364   0.804   5.096   2.302
 5134TIP3   OH215365   4.487   1.634   2.014
 5134TIP3    H115366   4.509   1.613   2.105
 5134TIP3    H215367   4.450   1.554   1.978
 5135TIP3   OH215368   4.485   5.648   3.716
 5135TIP3    H115369   4.556   5.628   3.655
 5135TIP3    H215370   4.421   5.578   3.704
 5136TIP3   OH215371   1.665   6.186   5.322
 5136TIP3    H115372   1.729   6.243   5.366
 5136TIP3    H215373   1.612   6.246   5.271
 5137TIP3   OH215374   3.587   2.435   5.539
 5137TIP3    H115375   3.495   2.429   5.512
 5137TIP3    H215376   3.634   2.381   5.475
 5138TIP3   OH215377   1.892   1.485   0.858
 5138TIP3    H115378   1.805   1.523   0.848
 5138TIP3    H215379   1.913   1.495   0.951
 5139TIP3   OH215380   5.542   4.357   0.227
 5139TIP3    H115381   5.506   4.271   0.206
 5139TIP3    H215382   5.634   4.352   0.201
 5140TIP3   OH215383   5.006   4.041   1.393
 5140TIP3    H115384   4.987   4.015   1.303
 5140TIP3    H215385   5.044   4.129   1.386
 5141TIP3   OH215386   0.063   6.058   5.364
 5141TIP3    H115387  -0.031   6.076   5.370
 5141TIP3    H215388   0.105   6.143   5.374
 5142TIP3   OH215389   1.393   6.148   3.802
 5142TIP3    H115390   1.427   6.208   3.869
 5142TIP3    H215391   1.325   6.198   3.758
 5143TIP3   OH215392   3.222   1.701   4.848
 5143TIP3    H115393   3.188   1.639   4.783
 5143TIP3    H215394   3.317   1.697   4.838
 5144TIP3   OH215395   0.167   1.042   4.141
 5144TIP3    H115396   0.127   0.989   4.071
 5144TIP3    H215397   0.245   1.079   4.100
 5145TIP3   OH215398   2.949   5.385   1.510
 5145TIP3    H115399   2.966   5.397   1.603
 5145TIP3    H215400   2.859   5.354   1.506
 5146TIP3   OH215401   2.674   1.214   4.309
 5146TIP3    H115402   2.713   1.129   4.329
 5146TIP3    H215403   2.608   1.227   4.377
 5147TIP3   OH215404   1.296   2.149   1.324
 5147TIP3    H115405   1.324   2.061   1.298
 5147TIP3    H215406   1.306   2.202   1.245
 5148TIP3   OH215407   1.192   4.902   3.048
 5148TIP3    H115408   1.223   4.842   3.115
 5148TIP3    H215409   1.128   4.957   3.093
 5149TIP3   OH215410   6.704   4.056   1.374
 5149TIP3    H115411   6.708   4.040   1.468
 5149TIP3    H215412   6.778   4.008   1.338
 5150TIP3   OH215413   7.122   3.011   1.712
 5150TIP3    H115414   7.053   2.984   1.651
 5150TIP3    H215415   7.092   2.980   1.797
 5151TIP3   OH215416   4.964   0.720   5.372
 5151TIP3    H115417   4.909   0.690   5.300
 5151TIP3    H215418   4.976   0.642   5.427
 5152TIP3   OH215419   5.284   4.515   0.155
 5152TIP3    H115420   5.295   4.559   0.071
 5152TIP3    H215421   5.350   4.446   0.156
 5153TIP3   OH215422   2.648   0.391   5.665
 5153TIP3    H115423   2.669   0.345   5.746
 5153TIP3    H215424   2.720   0.454   5.654
 5154TIP3   OH215425   2.763   4.196   2.975
 5154TIP3    H115426   2.706   4.204   2.899
 5154TIP3    H215427   2.840   4.148   2.943
 5155TIP3   OH215428   6.281   4.254   1.218
 5155TIP3    H115429   6.293   4.166   1.183
 5155TIP3    H215430   6.269   4.310   1.141
 5156TIP3   OH215431   2.023   5.795   1.666
 5156TIP3    H115432   2.033   5.836   1.752
 5156TIP3    H215433   2.104   5.746   1.653
 5157TIP3   OH215434   0.666   2.512   4.862
 5157TIP3    H115435   0.756   2.488   4.884
 5157TIP3    H215436   0.618   2.506   4.945
 5158TIP3   OH215437   0.401   0.903   3.913
 5158TIP3    H115438   0.363   0.849   3.843
 5158TIP3    H215439   0.482   0.858   3.936
 5159TIP3   OH215440   3.597   3.285   3.567
 5159TIP3    H115441   3.677   3.302   3.517
 5159TIP3    H215442   3.558   3.371   3.581
 5160TIP3   OH215443   5.462   1.068   2.441
 5160TIP3    H115444   5.416   1.137   2.394
 5160TIP3    H215445   5.555   1.086   2.427
 5161TIP3   OH215446   0.634   0.659   0.689
 5161TIP3    H115447   0.686   0.716   0.746
 5161TIP3    H215448   0.667   0.676   0.601
 5162TIP3   OH215449   5.095   5.971   1.627
 5162TIP3    H115450   5.110   5.902   1.562
 5162TIP3    H215451   5.073   5.924   1.707
 5163TIP3   OH215452   0.403   5.037   3.196
 5163TIP3    H115453   0.358   4.955   3.218
 5163TIP3    H215454   0.493   5.009   3.176
 5164TIP3   OH215455   3.743   2.439   1.480
 5164TIP3    H115456   3.742   2.478   1.567
 5164TIP3    H215457   3.835   2.416   1.465
 5165TIP3   OH215458   1.742   0.889   4.861
 5165TIP3    H115459   1.716   0.872   4.770
 5165TIP3    H215460   1.832   0.921   4.855
 5166TIP3   OH215461   1.125   3.078   0.933
 5166TIP3    H115462   1.136   3.173   0.935
 5166TIP3    H215463   1.187   3.045   0.998
 5167TIP3   OH215464   4.194   3.014   0.732
 5167TIP3    H115465   4.176   3.107   0.718
 5167TIP3    H215466   4.270   3.012   0.790
 5168TIP3   OH215467   6.676   5.885   1.421
 5168TIP3    H115468   6.669   5.819   1.490
 5168TIP3    H215469   6.678   5.836   1.340
 5169TIP3   OH215470   4.574   0.195   0.851
 5169TIP3    H115471   4.599   0.180   0.760
 5169TIP3    H215472   4.568   0.107   0.889
 5170TIP3   OH215473   6.109   4.088   5.252
 5170TIP3    H115474   6.187   4.061   5.300
 5170TIP3    H215475   6.141   4.106   5.163
 5171TIP3   OH215476   6.021   4.739   0.196
 5171TIP3    H115477   5.955   4.754   0.264
 5171TIP3    H215478   6.024   4.821   0.147
 5172TIP3   OH215479   2.302   1.167   5.742
 5172TIP3    H115480   2.222   1.189   5.788
 5172TIP3    H215481   2.372   1.211   5.791
 5173TIP3   OH215482   6.698   4.135   0.712
 5173TIP3    H115483   6.639   4.107   0.782
 5173TIP3    H215484   6.771   4.177   0.757
 5174TIP3   OH215485   1.570   5.457   0.510
 5174TIP3    H115486   1.580   5.399   0.435
 5174TIP3    H215487   1.482   5.494   0.501
 5175TIP3   OH215488   1.790   5.094   1.393
 5175TIP3    H115489   1.701   5.120   1.369
 5175TIP3    H215490   1.786   4.999   1.400
 5176TIP3   OH215491   4.312   0.376   3.120
 5176TIP3    H115492   4.237   0.333   3.162
 5176TIP3    H215493   4.387   0.322   3.144
 5177TIP3   OH215494   3.057   5.403   5.079
 5177TIP3    H115495   2.996   5.343   5.037
 5177TIP3    H215496   3.114   5.347   5.132
 5178TIP3   OH215497  -0.013   3.523   0.446
 5178TIP3    H115498   0.056   3.574   0.405
 5178TIP3    H215499   0.002   3.533   0.540
 5179TIP3   OH215500   6.767   3.042   3.002
 5179TIP3    H115501   6.755   3.132   2.970
 5179TIP3    H215502   6.779   3.052   3.096
 5180TIP3   OH215503   6.252   5.489   3.168
 5180TIP3    H115504   6.159   5.493   3.188
 5180TIP3    H215505   6.266   5.559   3.104
 5181TIP3   OH215506   0.143   4.540   4.617
 5181TIP3    H115507   0.208   4.589   4.567
 5181TIP3    H215508   0.139   4.454   4.576
 5182TIP3   OH215509   2.637   0.939   2.594
 5182TIP3    H115510   2.555   0.897   2.622
 5182TIP3    H215511   2.704   0.873   2.610
 5183TIP3   OH215512   2.050   4.522   4.483
 5183TIP3    H115513   2.087   4.491   4.566
 5183TIP3    H215514   1.959   4.542   4.504
 5184TIP3   OH215515   6.705   2.909   5.347
 5184TIP3    H115516   6.790   2.865   5.352
 5184TIP3    H215517   6.714   2.983   5.408
 5185TIP3   OH215518   1.374   1.873   2.476
 5185TIP3    H115519   1.462   1.837   2.486
 5185TIP3    H215520   1.318   1.815   2.527
 5186TIP3   OH215521   3.824   2.416   3.013
 5186TIP3    H115522   3.865   2.420   2.927
 5186TIP3    H215523   3.873   2.479   3.066
 5187TIP3   OH215524   0.699   5.724   4.498
 5187TIP3    H115525   0.716   5.651   4.557
 5187TIP3    H215526   0.647   5.686   4.427
 5188TIP3   OH215527   0.578   4.324   0.642
 5188TIP3    H115528   0.660   4.327   0.691
 5188TIP3    H215529   0.573   4.234   0.609
 5189TIP3   OH215530   3.612   5.757   5.131
 5189TIP3    H115531   3.691   5.797   5.168
 5189TIP3    H215532   3.643   5.709   5.055
 5190TIP3   OH215533   2.784   4.737   0.957
 5190TIP3    H115534   2.692   4.732   0.932
 5190TIP3    H215535   2.826   4.780   0.883
 5191TIP3   OH215536   2.743   1.308   0.729
 5191TIP3    H115537   2.726   1.219   0.761
 5191TIP3    H215538   2.791   1.350   0.800
 5192TIP3   OH215539   2.131   3.732   0.218
 5192TIP3    H115540   2.086   3.808   0.256
 5192TIP3    H215541   2.198   3.709   0.282
 5193TIP3   OH215542   2.281   5.556   2.084
 5193TIP3    H115543   2.332   5.571   2.164
 5193TIP3    H215544   2.285   5.640   2.038
 5194TIP3   OH215545   0.472   4.226   2.210
 5194TIP3    H115546   0.391   4.181   2.233
 5194TIP3    H215547   0.457   4.317   2.238
 5195TIP3   OH215548   2.771   6.774   2.313
 5195TIP3    H115549   2.821   6.720   2.252
 5195TIP3    H215550   2.679   6.757   2.290
 5196TIP3   OH215551   7.128   6.193   0.957
 5196TIP3    H115552   7.074   6.126   0.998
 5196TIP3    H215553   7.085   6.276   0.978
 5197TIP3   OH215554   6.635   3.524   1.362
 5197TIP3    H115555   6.621   3.548   1.454
 5197TIP3    H215556   6.707   3.580   1.334
 5198TIP3   OH215557   6.887   2.032   3.764
 5198TIP3    H115558   6.956   1.966   3.754
 5198TIP3    H215559   6.818   2.004   3.704
 5199TIP3   OH215560   6.762   2.162   4.833
 5199TIP3    H115561   6.717   2.133   4.753
 5199TIP3    H215562   6.806   2.243   4.807
 5200TIP3   OH215563   6.005   3.083   4.993
 5200TIP3    H115564   5.976   3.001   5.034
 5200TIP3    H215565   6.031   3.139   5.066
 5201TIP3   OH215566   5.938   5.514   3.739
 5201TIP3    H115567   5.887   5.453   3.793
 5201TIP3    H215568   5.876   5.585   3.719
 5202TIP3   OH215569   5.427   3.041   0.275
 5202TIP3    H115570   5.420   3.133   0.248
 5202TIP3    H215571   5.521   3.022   0.271
 5203TIP3   OH215572   4.694   0.736   4.664
 5203TIP3    H115573   4.666   0.805   4.724
 5203TIP3    H215574   4.613   0.708   4.620
 5204TIP3   OH215575   3.284   4.504   3.022
 5204TIP3    H115576   3.359   4.444   3.023
 5204TIP3    H215577   3.248   4.498   3.111
 5205TIP3   OH215578   3.560   3.113   1.581
 5205TIP3    H115579   3.608   3.195   1.590
 5205TIP3    H215580   3.530   3.113   1.490
 5206TIP3   OH215581   7.157   4.931   0.928
 5206TIP3    H115582   7.067   4.929   0.895
 5206TIP3    H215583   7.167   4.848   0.974
 5207TIP3   OH215584   0.787   0.703   5.228
 5207TIP3    H115585   0.821   0.705   5.138
 5207TIP3    H215586   0.748   0.616   5.237
 5208TIP3   OH215587   2.461   2.638   3.654
 5208TIP3    H115588   2.552   2.641   3.685
 5208TIP3    H215589   2.431   2.551   3.678
 5209TIP3   OH215590   4.296   1.077   1.078
 5209TIP3    H115591   4.263   1.011   1.017
 5209TIP3    H215592   4.387   1.054   1.092
 5210TIP3   OH215593   6.311   4.854   5.016
 5210TIP3    H115594   6.232   4.806   5.041
 5210TIP3    H215595   6.279   4.937   4.981
 5211TIP3   OH215596   3.510   2.076   0.720
 5211TIP3    H115597   3.528   2.003   0.660
 5211TIP3    H215598   3.597   2.110   0.741
 5212TIP3   OH215599   1.934   6.641   1.576
 5212TIP3    H115600   1.847   6.654   1.614
 5212TIP3    H215601   1.955   6.725   1.534
 5213TIP3   OH215602   1.021   0.370   0.458
 5213TIP3    H115603   1.027   0.282   0.495
 5213TIP3    H215604   1.105   0.383   0.413
 5214TIP3   OH215605   0.722   1.581   3.208
 5214TIP3    H115606   0.679   1.622   3.133
 5214TIP3    H215607   0.675   1.615   3.284
 5215TIP3   OH215608   3.321   0.732   4.604
 5215TIP3    H115609   3.348   0.653   4.651
 5215TIP3    H215610   3.324   0.801   4.671
 5216TIP3   OH215611   4.133   5.904   4.996
 5216TIP3    H115612   4.067   5.835   4.995
 5216TIP3    H215613   4.092   5.976   5.043
 5217TIP3   OH215614   3.175   2.735   2.109
 5217TIP3    H115615   3.195   2.658   2.056
 5217TIP3    H215616   3.086   2.760   2.082
 5218TIP3   OH215617   2.685   4.978   4.619
 5218TIP3    H115618   2.621   4.951   4.553
 5218TIP3    H215619   2.761   4.921   4.604
 5219TIP3   OH215620   6.254   3.016   2.979
 5219TIP3    H115621   6.213   3.095   2.945
 5219TIP3    H215622   6.344   3.019   2.947
 5220TIP3   OH215623   4.604   0.280   2.150
 5220TIP3    H115624   4.595   0.300   2.057
 5220TIP3    H215625   4.586   0.186   2.156
 5221TIP3   OH215626   3.593   2.968   5.769
 5221TIP3    H115627   3.608   2.898   5.832
 5221TIP3    H215628   3.680   3.000   5.747
 5222TIP3   OH215629   5.195   2.901   1.761
 5222TIP3    H115630   5.185   2.951   1.842
 5222TIP3    H215631   5.174   2.811   1.785
 5223TIP3   OH215632   1.695   3.328   1.358
 5223TIP3    H115633   1.660   3.246   1.325
 5223TIP3    H215634   1.625   3.364   1.413
 5224TIP3   OH215635   6.758   0.378   4.237
 5224TIP3    H115636   6.738   0.381   4.144
 5224TIP3    H215637   6.686   0.426   4.279
 5225TIP3   OH215638   3.646   3.639   2.711
 5225TIP3    H115639   3.723   3.658   2.766
 5225TIP3    H215640   3.613   3.556   2.744
 5226TIP3   OH215641   4.137   3.998   3.568
 5226TIP3    H115642   4.082   4.039   3.634
 5226TIP3    H215643   4.085   3.924   3.535
 5227TIP3   OH215644   5.782   6.575   4.321
 5227TIP3    H115645   5.770   6.490   4.364
 5227TIP3    H215646   5.864   6.608   4.358
 5228TIP3   OH215647   4.207   4.156   5.199
 5228TIP3    H115648   4.123   4.112   5.193
 5228TIP3    H215649   4.254   4.129   5.120
 5229TIP3   OH215650   2.892   3.135   0.342
 5229TIP3    H115651   2.832   3.198   0.301
 5229TIP3    H215652   2.978   3.160   0.309
 5230TIP3   OH215653   4.802   3.525   3.013
 5230TIP3    H115654   4.783   3.523   2.919
 5230TIP3    H215655   4.827   3.435   3.034
 5231TIP3   OH215656   0.013   4.699   1.960
 5231TIP3    H115657  -0.008   4.625   2.017
 5231TIP3    H215658   0.072   4.662   1.894
 5232TIP3   OH215659   0.840   1.706   0.212
 5232TIP3    H115660   0.889   1.628   0.188
 5232TIP3    H215661   0.830   1.755   0.130
 5233TIP3   OH215662   4.900   5.827   3.583
 5233TIP3    H115663   4.917   5.742   3.542
 5233TIP3    H215664   4.818   5.856   3.545
 5234TIP3   OH215665   1.944   2.143   2.045
 5234TIP3    H115666   1.889   2.221   2.059
 5234TIP3    H215667   1.947   2.133   1.950
 5235TIP3   OH215668   6.733   0.699   2.692
 5235TIP3    H115669   6.796   0.767   2.712
 5235TIP3    H215670   6.728   0.646   2.771
 5236TIP3   OH215671   5.858   4.902   4.966
 5236TIP3    H115672   5.776   4.921   4.920
 5236TIP3    H215673   5.903   4.840   4.909
 5237TIP3   OH215674   5.590   0.831   4.571
 5237TIP3    H115675   5.680   0.815   4.542
 5237TIP3    H215676   5.598   0.847   4.665
 5238TIP3   OH215677   1.604   0.157   4.694
 5238TIP3    H115678   1.549   0.079   4.686
 5238TIP3    H215679   1.557   0.214   4.755
 5239TIP3   OH215680   3.038   0.907   0.479
 5239TIP3    H115681   2.977   0.834   0.475
 5239TIP3    H215682   3.108   0.878   0.537
 5240TIP3   OH215683   6.799   1.263   4.949
 5240TIP3    H115684   6.855   1.331   4.988
 5240TIP3    H215685   6.833   1.252   4.860
 5241TIP3   OH215686   6.887   3.504   3.039
 5241TIP3    H115687   6.892   3.600   3.030
 5241TIP3    H215688   6.977   3.474   3.029
 5242TIP3   OH215689   5.459   3.624   3.209
 5242TIP3    H115690   5.470   3.590   3.298
 5242TIP3    H215691   5.532   3.584   3.160
 5243TIP3   OH215692   6.933   4.988   0.355
 5243TIP3    H115693   6.971   4.912   0.311
 5243TIP3    H215694   7.005   5.025   0.406
 5244TIP3   OH215695   0.519   1.279   4.908
 5244TIP3    H115696   0.466   1.330   4.969
 5244TIP3    H215697   0.500   1.317   4.822
 5245TIP3   OH215698   4.423   1.096   2.668
 5245TIP3    H115699   4.386   1.147   2.596
 5245TIP3    H215700   4.441   1.010   2.631
 5246TIP3   OH215701   0.738   6.375   3.087
 5246TIP3    H115702   0.643   6.385   3.092
 5246TIP3    H215703   0.759   6.308   3.152
 5247TIP3   OH215704   4.349   1.349   5.113
 5247TIP3    H115705   4.294   1.390   5.180
 5247TIP3    H215706   4.311   1.376   5.030
 5248TIP3   OH215707   0.757   1.146   3.941
 5248TIP3    H115708   0.767   1.068   3.995
 5248TIP3    H215709   0.770   1.115   3.852
 5249TIP3   OH215710   5.533   6.554   5.853
 5249TIP3    H115711   5.611   6.507   5.882
 5249TIP3    H215712   5.566   6.617   5.789
 5250TIP3   OH215713   0.063   1.226   3.800
 5250TIP3    H115714   0.144   1.212   3.751
 5250TIP3    H215715  -0.005   1.185   3.746
 5251TIP3   OH215716   4.289   5.349   0.299
 5251TIP3    H115717   4.353   5.414   0.269
 5251TIP3    H215718   4.306   5.272   0.244
 5252TIP3   OH215719   4.260   2.957   0.108
 5252TIP3    H115720   4.293   3.041   0.138
 5252TIP3    H215721   4.325   2.927   0.045
 5253TIP3   OH215722   6.849   5.733   3.249
 5253TIP3    H115723   6.825   5.640   3.246
 5253TIP3    H215724   6.930   5.735   3.300
 5254TIP3   OH215725   5.235   0.708   5.205
 5254TIP3    H115726   5.281   0.784   5.172
 5254TIP3    H215727   5.221   0.727   5.298
 5255TIP3   OH215728   1.842   5.741   5.149
 5255TIP3    H115729   1.826   5.703   5.235
 5255TIP3    H215730   1.932   5.716   5.128
 5256TIP3   OH215731   0.087   4.837   3.807
 5256TIP3    H115732   0.048   4.853   3.721
 5256TIP3    H215733   0.039   4.761   3.841
 5257TIP3   OH215734   1.933   5.520   3.403
 5257TIP3    H115735   1.981   5.439   3.387
 5257TIP3    H215736   1.993   5.573   3.456
 5258TIP3   OH215737   6.268   1.001   0.264
 5258TIP3    H115738   6.255   0.999   0.359
 5258TIP3    H215739   6.273   1.094   0.242
 5259TIP3   OH215740   4.211   6.308   5.079
 5259TIP3    H115741   4.282   6.363   5.046
 5259TIP3    H215742   4.162   6.281   5.001
 5260TIP3   OH215743   6.127   1.550   3.369
 5260TIP3    H115744   6.063   1.490   3.331
 5260TIP3    H215745   6.207   1.535   3.317
 5261TIP3   OH215746   6.843   3.786   1.317
 5261TIP3    H115747   6.896   3.827   1.386
 5261TIP3    H215748   6.908   3.751   1.256
 5262TIP3   OH215749   5.507   6.727   0.327
 5262TIP3    H115750   5.468   6.780   0.257
 5262TIP3    H215751   5.464   6.757   0.407
 5263TIP3   OH215752   5.466   4.019   3.928
 5263TIP3    H115753   5.521   4.088   3.891
 5263TIP3    H215754   5.505   3.937   3.897
 5264TIP3   OH215755   3.613   6.153   2.208
 5264TIP3    H115756   3.573   6.110   2.283
 5264TIP3    H215757   3.542   6.161   2.144
 5265TIP3   OH215758   5.490   3.388   5.380
 5265TIP3    H115759   5.559   3.434   5.428
 5265TIP3    H215760   5.530   3.306   5.353
 5266TIP3   OH215761   0.672   3.489   5.141
 5266TIP3    H115762   0.767   3.478   5.152
 5266TIP3    H215763   0.635   3.457   5.224
 5267TIP3   OH215764   4.632   2.481   5.318
 5267TIP3    H115765   4.636   2.539   5.241
 5267TIP3    H215766   4.662   2.535   5.390
 5268TIP3   OH215767   3.919   1.523   3.206
 5268TIP3    H115768   3.899   1.445   3.156
 5268TIP3    H215769   4.008   1.547   3.179
 5269TIP3   OH215770   4.299   0.087   4.600
 5269TIP3    H115771   4.351   0.068   4.677
 5269TIP3    H215772   4.213   0.049   4.619
 5270TIP3   OH215773   5.049   3.946   0.747
 5270TIP3    H115774   4.972   3.997   0.774
 5270TIP3    H215775   5.104   3.942   0.825
 5271TIP3   OH215776   5.450   5.757   0.926
 5271TIP3    H115777   5.507   5.688   0.962
 5271TIP3    H215778   5.511   5.821   0.889
 5272TIP3   OH215779   4.003   3.665   4.267
 5272TIP3    H115780   4.072   3.606   4.236
 5272TIP3    H215781   4.000   3.735   4.202
 5273TIP3   OH215782   7.119   6.088   3.253
 5273TIP3    H115783   7.214   6.080   3.260
 5273TIP3    H215784   7.103   6.094   3.158
 5274TIP3   OH215785   0.077   1.915   0.086
 5274TIP3    H115786   0.070   1.842   0.148
 5274TIP3    H215787   0.118   1.877   0.009
 5275TIP3   OH215788   4.412   0.707   2.045
 5275TIP3    H115789   4.439   0.700   1.953
 5275TIP3    H215790   4.368   0.623   2.063
 5276TIP3   OH215791   0.735   2.348   2.975
 5276TIP3    H115792   0.726   2.443   2.978
 5276TIP3    H215793   0.810   2.329   3.031
 5277TIP3   OH215794   3.338   6.061   5.321
 5277TIP3    H115795   3.412   6.026   5.370
 5277TIP3    H215796   3.372   6.077   5.233
 5278TIP3   OH215797   3.717   6.650   0.765
 5278TIP3    H115798   3.684   6.737   0.789
 5278TIP3    H215799   3.653   6.589   0.801
 5279TIP3   OH215800   5.625   6.767   2.123
 5279TIP3    H115801   5.577   6.683   2.122
 5279TIP3    H215802   5.567   6.828   2.077
 5280TIP3   OH215803   2.473   5.665   4.885
 5280TIP3    H115804   2.454   5.756   4.862
 5280TIP3    H215805   2.567   5.657   4.874
 5281TIP3   OH215806   4.740   0.542   0.217
 5281TIP3    H115807   4.691   0.624   0.218
 5281TIP3    H215808   4.683   0.481   0.169
 5282TIP3   OH215809   6.058   3.911   4.003
 5282TIP3    H115810   6.079   3.999   3.972
 5282TIP3    H215811   6.113   3.901   4.081
 5283TIP3   OH215812   3.502   4.792   1.261
 5283TIP3    H115813   3.470   4.880   1.279
 5283TIP3    H215814   3.556   4.769   1.337
 5284TIP3   OH215815   6.500   5.190   5.267
 5284TIP3    H115816   6.423   5.167   5.320
 5284TIP3    H215817   6.532   5.106   5.233
 5285TIP3   OH215818   2.552   6.771   2.531
 5285TIP3    H115819   2.606   6.799   2.458
 5285TIP3    H215820   2.477   6.727   2.490
 5286TIP3   OH215821   4.842   4.799   4.265
 5286TIP3    H115822   4.845   4.871   4.328
 5286TIP3    H215823   4.851   4.841   4.180
 5287TIP3   OH215824   3.730   0.100   4.175
 5287TIP3    H115825   3.663   0.169   4.168
 5287TIP3    H215826   3.786   0.113   4.099
 5288TIP3   OH215827   5.752   1.405   0.271
 5288TIP3    H115828   5.694   1.435   0.342
 5288TIP3    H215829   5.812   1.343   0.314
 5289TIP3   OH215830   2.085   3.659   0.519
 5289TIP3    H115831   2.176   3.658   0.491
 5289TIP3    H215832   2.082   3.721   0.591
 5290TIP3   OH215833   2.611   1.823   4.894
 5290TIP3    H115834   2.688   1.876   4.916
 5290TIP3    H215835   2.602   1.834   4.799
 5291TIP3   OH215836   3.038   2.719   5.043
 5291TIP3    H115837   3.123   2.681   5.068
 5291TIP3    H215838   2.974   2.673   5.098
 5292TIP3   OH215839   3.744   4.119   3.717
 5292TIP3    H115840   3.680   4.185   3.742
 5292TIP3    H215841   3.692   4.047   3.681
 5293TIP3   OH215842   3.152   4.326   1.446
 5293TIP3    H115843   3.112   4.301   1.529
 5293TIP3    H215844   3.162   4.421   1.451
 5294TIP3   OH215845   5.216   1.063   5.686
 5294TIP3    H115846   5.151   0.994   5.680
 5294TIP3    H215847   5.264   1.058   5.604
 5295TIP3   OH215848   6.548   0.541   2.432
 5295TIP3    H115849   6.535   0.523   2.525
 5295TIP3    H215850   6.605   0.618   2.430
 5296TIP3   OH215851   4.140   0.823   2.380
 5296TIP3    H115852   4.059   0.830   2.431
 5296TIP3    H215853   4.110   0.821   2.289
 5297TIP3   OH215854   2.899   0.485   2.706
 5297TIP3    H115855   2.918   0.396   2.736
 5297TIP3    H215856   2.932   0.488   2.616
 5298TIP3   OH215857   1.295   1.723   2.683
 5298TIP3    H115858   1.224   1.667   2.649
 5298TIP3    H215859   1.258   1.763   2.761
 5299TIP3   OH215860   5.604   2.381   5.378
 5299TIP3    H115861   5.653   2.455   5.342
 5299TIP3    H215862   5.666   2.308   5.377
 5300TIP3   OH215863   3.513   2.027   5.526
 5300TIP3    H115864   3.579   2.079   5.573
 5300TIP3    H215865   3.563   1.958   5.483
 5301TIP3   OH215866   7.075   4.434   5.536
 5301TIP3    H115867   7.110   4.523   5.525
 5301TIP3    H215868   7.092   4.412   5.627
 5302TIP3   OH215869   1.498   3.173   3.195
 5302TIP3    H115870   1.527   3.257   3.230
 5302TIP3    H215871   1.425   3.148   3.252
 5303TIP3   OH215872   3.869   0.601   0.841
 5303TIP3    H115873   3.944   0.645   0.800
 5303TIP3    H215874   3.852   0.526   0.783
 5304TIP3   OH215875   0.801   6.066   3.531
 5304TIP3    H115876   0.849   6.055   3.613
 5304TIP3    H215877   0.802   5.980   3.490
 5305TIP3   OH215878   2.380   6.264   5.503
 5305TIP3    H115879   2.308   6.291   5.447
 5305TIP3    H215880   2.339   6.241   5.587
 5306TIP3   OH215881   7.097   1.851   3.811
 5306TIP3    H115882   7.084   1.771   3.863
 5306TIP3    H215883   7.191   1.864   3.810
 5307TIP3   OH215884   6.847   3.869   5.348
 5307TIP3    H115885   6.890   3.790   5.316
 5307TIP3    H215886   6.854   3.931   5.276
 5308TIP3   OH215887   0.521   4.645   2.010
 5308TIP3    H115888   0.553   4.724   1.967
 5308TIP3    H215889   0.599   4.604   2.046
 5309TIP3   OH215890   1.466   4.752   3.774
 5309TIP3    H115891   1.524   4.756   3.698
 5309TIP3    H215892   1.514   4.701   3.839
 5310TIP3   OH215893   3.952   5.948   3.517
 5310TIP3    H115894   3.918   5.941   3.606
 5310TIP3    H215895   3.958   5.858   3.486
 5311TIP3   OH215896   0.574   3.295   3.089
 5311TIP3    H115897   0.542   3.321   3.176
 5311TIP3    H215898   0.599   3.203   3.100
 5312TIP3   OH215899   1.101   5.587   3.130
 5312TIP3    H115900   1.122   5.681   3.127
 5312TIP3    H215901   1.095   5.567   3.223
 5313TIP3   OH215902   1.618   1.820   0.647
 5313TIP3    H115903   1.631   1.882   0.719
 5313TIP3    H215904   1.636   1.871   0.568
 5314TIP3   OH215905   0.199   1.145   3.416
 5314TIP3    H115906   0.292   1.120   3.408
 5314TIP3    H215907   0.157   1.103   3.341
 5315TIP3   OH215908   0.145   5.469   1.577
 5315TIP3    H115909   0.141   5.478   1.481
 5315TIP3    H215910   0.232   5.502   1.600
 5316TIP3   OH215911   6.104   4.702   2.751
 5316TIP3    H115912   6.135   4.686   2.840
 5316TIP3    H215913   6.100   4.797   2.744
 5317TIP3   OH215914   0.247   1.700   1.328
 5317TIP3    H115915   0.282   1.643   1.260
 5317TIP3    H215916   0.241   1.786   1.287
 5318TIP3   OH215917   6.766   6.348   1.502
 5318TIP3    H115918   6.797   6.433   1.470
 5318TIP3    H215919   6.838   6.316   1.557
 5319TIP3   OH215920   2.602   4.612   4.380
 5319TIP3    H115921   2.626   4.673   4.450
 5319TIP3    H215922   2.535   4.659   4.330
 5320TIP3   OH215923   6.568   4.007   5.048
 5320TIP3    H115924   6.663   4.017   5.056
 5320TIP3    H215925   6.538   4.094   5.019
 5321TIP3   OH215926   7.088   0.067   3.399
 5321TIP3    H115927   7.155   0.123   3.360
 5321TIP3    H215928   7.010   0.080   3.344
 5322TIP3   OH215929   1.965   2.240   3.990
 5322TIP3    H115930   1.991   2.185   4.065
 5322TIP3    H215931   1.942   2.177   3.922
 5323TIP3   OH215932   6.379   5.222   3.388
 5323TIP3    H115933   6.401   5.307   3.351
 5323TIP3    H215934   6.305   5.239   3.445
 5324TIP3   OH215935   4.573   2.095   1.950
 5324TIP3    H115936   4.582   2.186   1.978
 5324TIP3    H215937   4.555   2.046   2.030
 5325TIP3   OH215938   2.863   5.424   1.783
 5325TIP3    H115939   2.885   5.413   1.875
 5325TIP3    H215940   2.772   5.394   1.776
 5326TIP3   OH215941   0.708   0.227   0.838
 5326TIP3    H115942   0.622   0.187   0.825
 5326TIP3    H215943   0.694   0.290   0.909
 5327TIP3   OH215944   3.363   6.365   3.012
 5327TIP3    H115945   3.423   6.378   3.086
 5327TIP3    H215946   3.347   6.453   2.979
 5328TIP3   OH215947   7.179   5.131   3.786
 5328TIP3    H115948   7.263   5.111   3.744
 5328TIP3    H215949   7.141   5.046   3.806
 5329TIP3   OH215950   1.380   0.177   0.535
 5329TIP3    H115951   1.459   0.126   0.554
 5329TIP3    H215952   1.406   0.268   0.551
 5330TIP3   OH215953   2.864   3.078   1.316
 5330TIP3    H115954   2.908   3.042   1.393
 5330TIP3    H215955   2.812   3.005   1.282
 5331TIP3   OH215956   5.799   6.565   0.759
 5331TIP3    H115957   5.878   6.595   0.714
 5331TIP3    H215958   5.747   6.522   0.691
 5332TIP3   OH215959   0.779   1.150   4.902
 5332TIP3    H115960   0.752   1.076   4.956
 5332TIP3    H215961   0.704   1.210   4.903
 5333TIP3   OH215962   6.342   0.471   3.081
 5333TIP3    H115963   6.253   0.438   3.073
 5333TIP3    H215964   6.395   0.394   3.097
 5334TIP3   OH215965   1.688   2.865   2.961
 5334TIP3    H115966   1.745   2.910   2.899
 5334TIP3    H215967   1.681   2.776   2.926
 5335TIP3   OH215968   1.296   2.582   0.296
 5335TIP3    H115969   1.332   2.529   0.368
 5335TIP3    H215970   1.229   2.636   0.337
 5336TIP3   OH215971   6.375   1.970   0.561
 5336TIP3    H115972   6.392   2.040   0.623
 5336TIP3    H215973   6.434   1.987   0.488
 5337TIP3   OH215974   1.751   3.658   1.969
 5337TIP3    H115975   1.726   3.734   1.917
 5337TIP3    H215976   1.706   3.670   2.053
 5338TIP3   OH215977   0.675   2.326   0.212
 5338TIP3    H115978   0.692   2.415   0.243
 5338TIP3    H215979   0.731   2.271   0.266
 5339TIP3   OH215980   0.002   4.047   3.767
 5339TIP3    H115981  -0.023   3.979   3.829
 5339TIP3    H215982   0.073   4.007   3.716
 5340TIP3   OH215983   0.374   3.156   1.540
 5340TIP3    H115984   0.387   3.246   1.568
 5340TIP3    H215985   0.280   3.150   1.524
 5341TIP3   OH215986   5.274   3.445   2.025
 5341TIP3    H115987   5.231   3.531   2.028
 5341TIP3    H215988   5.231   3.400   1.952
 5342TIP3   OH215989   0.845   3.264   1.250
 5342TIP3    H115990   0.828   3.247   1.158
 5342TIP3    H215991   0.894   3.346   1.251
 5343TIP3   OH215992   0.112   6.715   2.374
 5343TIP3    H115993   0.142   6.799   2.338
 5343TIP3    H215994   0.026   6.735   2.412
 5344TIP3   OH215995   5.700   0.573   4.685
 5344TIP3    H115996   5.731   0.597   4.772
 5344TIP3    H215997   5.761   0.615   4.625
 5345TIP3   OH215998   7.207   6.017   4.814
 5345TIP3    H115999   7.222   5.938   4.762
 5345TIP3    H216000   7.159   5.986   4.891
 5346TIP3   OH216001   2.686   5.425   2.751
 5346TIP3    H116002   2.614   5.431   2.688
 5346TIP3    H216003   2.766   5.431   2.697
 5347TIP3   OH216004   6.107   5.804   1.293
 5347TIP3    H116005   6.199   5.796   1.269
 5347TIP3    H216006   6.083   5.716   1.321
 5348TIP3   OH216007   2.798   5.745   5.109
 5348TIP3    H116008   2.742   5.821   5.093
 5348TIP3    H216009   2.802   5.701   5.024
 5349TIP3   OH216010   2.432   5.584   2.340
 5349TIP3    H116011   2.527   5.598   2.344
 5349TIP3    H216012   2.422   5.490   2.321
 5350TIP3   OH216013   0.919   1.043   4.386
 5350TIP3    H116014   0.941   1.114   4.325
 5350TIP3    H216015   0.937   1.080   4.473
 5351TIP3   OH216016   4.026   1.853   2.606
 5351TIP3    H116017   4.011   1.872   2.698
 5351TIP3    H216018   4.049   1.937   2.567
 5352TIP3   OH216019   6.456   6.665   2.538
 5352TIP3    H116020   6.436   6.742   2.485
 5352TIP3    H216021   6.375   6.647   2.586
 5353TIP3   OH216022   6.286   5.225   4.205
 5353TIP3    H116023   6.211   5.232   4.263
 5353TIP3    H216024   6.311   5.133   4.209
 5354TIP3   OH216025   6.559   1.878   4.942
 5354TIP3    H116026   6.581   1.924   5.023
 5354TIP3    H216027   6.474   1.914   4.916
 5355TIP3   OH216028   6.913   3.510   0.464
 5355TIP3    H116029   6.874   3.597   0.452
 5355TIP3    H216030   7.006   3.523   0.446
 5356TIP3   OH216031   5.955   2.970   3.005
 5356TIP3    H116032   5.907   2.930   3.077
 5356TIP3    H216033   6.047   2.958   3.028
 5357TIP3   OH216034   5.121   0.516   3.515
 5357TIP3    H116035   5.078   0.431   3.506
 5357TIP3    H216036   5.132   0.546   3.425
 5358TIP3   OH216037   0.172   1.708   3.960
 5358TIP3    H116038   0.180   1.741   3.871
 5358TIP3    H216039   0.262   1.682   3.984
 5359TIP3   OH216040   5.667   2.362   0.785
 5359TIP3    H116041   5.574   2.375   0.765
 5359TIP3    H216042   5.708   2.445   0.760
 5360TIP3   OH216043   6.459   3.278   0.753
 5360TIP3    H116044   6.454   3.248   0.663
 5360TIP3    H216045   6.428   3.369   0.750
 5361TIP3   OH216046   5.608   5.548   2.458
 5361TIP3    H116047   5.618   5.596   2.540
 5361TIP3    H216048   5.698   5.527   2.431
 5362TIP3   OH216049   2.731   5.059   3.054
 5362TIP3    H116050   2.774   5.047   3.138
 5362TIP3    H216051   2.802   5.050   2.990
 5363TIP3   OH216052   4.312   1.752   4.469
 5363TIP3    H116053   4.275   1.831   4.430
 5363TIP3    H216054   4.297   1.762   4.563
 5364TIP3   OH216055   3.024   3.949   3.914
 5364TIP3    H116056   3.116   3.943   3.890
 5364TIP3    H216057   3.016   3.894   3.992
 5365TIP3   OH216058   5.585   6.526   1.458
 5365TIP3    H116059   5.605   6.441   1.496
 5365TIP3    H216060   5.657   6.544   1.397
 5366TIP3   OH216061   3.605   0.217   2.014
 5366TIP3    H116062   3.684   0.179   2.053
 5366TIP3    H216063   3.550   0.240   2.088
 5367TIP3   OH216064   6.995   2.279   0.870
 5367TIP3    H116065   7.031   2.286   0.959
 5367TIP3    H216066   7.058   2.224   0.823
 5368TIP3   OH216067   4.850   6.441   3.822
 5368TIP3    H116068   4.893   6.404   3.745
 5368TIP3    H216069   4.919   6.491   3.867
 5369TIP3   OH216070   5.817   1.606   4.549
 5369TIP3    H116071   5.737   1.568   4.585
 5369TIP3    H216072   5.885   1.586   4.614
 5370TIP3   OH216073   2.118   1.654   1.908
 5370TIP3    H116074   2.095   1.743   1.934
 5370TIP3    H216075   2.038   1.619   1.868
 5371TIP3   OH216076   1.755   1.933   0.393
 5371TIP3    H116077   1.782   1.852   0.349
 5371TIP3    H216078   1.665   1.947   0.364
 5372TIP3   OH216079   3.227   4.903   2.483
 5372TIP3    H116080   3.214   4.814   2.449
 5372TIP3    H216081   3.301   4.895   2.543
 5373TIP3   OH216082   3.750   2.548   3.426
 5373TIP3    H116083   3.749   2.482   3.356
 5373TIP3    H216084   3.843   2.568   3.438
 5374TIP3   OH216085   4.496   3.953   1.641
 5374TIP3    H116086   4.471   3.894   1.570
 5374TIP3    H216087   4.416   4.001   1.662
 5375TIP3   OH216088   6.860   3.986   2.686
 5375TIP3    H116089   6.841   4.079   2.677
 5375TIP3    H216090   6.955   3.981   2.691
 5376TIP3   OH216091   0.307   5.060   0.327
 5376TIP3    H116092   0.291   5.146   0.364
 5376TIP3    H216093   0.252   5.056   0.249
 5377TIP3   OH216094   5.624   1.007   5.155
 5377TIP3    H116095   5.554   1.014   5.091
 5377TIP3    H216096   5.656   1.097   5.165
 5378TIP3   OH216097   5.770   4.162   2.529
 5378TIP3    H116098   5.680   4.148   2.499
 5378TIP3    H216099   5.824   4.143   2.452
 5379TIP3   OH216100   2.605   1.289   1.806
 5379TIP3    H116101   2.565   1.267   1.890
 5379TIP3    H216102   2.576   1.378   1.788
 5380TIP3   OH216103   1.144   1.089   3.775
 5380TIP3    H116104   1.198   1.029   3.826
 5380TIP3    H216105   1.147   1.055   3.686
 5381TIP3   OH216106   2.347   0.636   4.630
 5381TIP3    H116107   2.354   0.569   4.698
 5381TIP3    H216108   2.366   0.590   4.549
 5382TIP3   OH216109   0.530   3.843   2.602
 5382TIP3    H116110   0.539   3.809   2.691
 5382TIP3    H216111   0.619   3.861   2.574
 5383TIP3   OH216112   7.082   2.473   0.338
 5383TIP3    H116113   7.138   2.538   0.296
 5383TIP3    H216114   6.994   2.492   0.306
 5384TIP3   OH216115   6.064   2.594   0.432
 5384TIP3    H116116   6.076   2.675   0.480
 5384TIP3    H216117   6.066   2.620   0.340
 5385TIP3   OH216118   0.245   1.572   2.727
 5385TIP3    H116119   0.151   1.587   2.723
 5385TIP3    H216120   0.282   1.629   2.659
 5386TIP3   OH216121   6.059   4.890   2.411
 5386TIP3    H116122   6.143   4.928   2.435
 5386TIP3    H216123   5.998   4.964   2.411
 5387TIP3   OH216124   6.655   2.008   5.805
 5387TIP3    H116125   6.611   2.023   5.889
 5387TIP3    H216126   6.692   1.920   5.812
 5388TIP3   OH216127   1.154   2.404   3.878
 5388TIP3    H116128   1.247   2.411   3.855
 5388TIP3    H216129   1.139   2.309   3.887
 5389TIP3   OH216130   1.909   6.020   3.380
 5389TIP3    H116131   1.817   6.004   3.362
 5389TIP3    H216132   1.948   5.933   3.389
 5390TIP3   OH216133   2.798   2.971   5.246
 5390TIP3    H116134   2.793   3.039   5.178
 5390TIP3    H216135   2.724   2.913   5.227
 5391TIP3   OH216136   0.591   4.998   2.400
 5391TIP3    H116137   0.515   5.003   2.457
 5391TIP3    H216138   0.642   4.925   2.434
 5392TIP3   OH216139   3.717   0.801   2.055
 5392TIP3    H116140   3.652   0.866   2.082
 5392TIP3    H216141   3.694   0.723   2.105
 5393TIP3   OH216142   4.038   5.977   5.681
 5393TIP3    H116143   4.066   6.038   5.749
 5393TIP3    H216144   4.097   5.994   5.608
 5394TIP3   OH216145   0.842   6.324   0.352
 5394TIP3    H116146   0.837   6.413   0.317
 5394TIP3    H216147   0.897   6.276   0.289
 5395TIP3   OH216148   1.606   2.982   5.765
 5395TIP3    H116149   1.554   3.063   5.771
 5395TIP3    H216150   1.559   2.929   5.701
 5396TIP3   OH216151   2.007   4.949   3.178
 5396TIP3    H116152   1.967   5.035   3.179
 5396TIP3    H216153   2.044   4.940   3.090
 5397TIP3   OH216154   4.567   2.354   3.731
 5397TIP3    H116155   4.608   2.300   3.664
 5397TIP3    H216156   4.478   2.369   3.699
 5398TIP3   OH216157   4.474   4.869   2.326
 5398TIP3    H116158   4.519   4.802   2.378
 5398TIP3    H216159   4.532   4.945   2.330
 5399TIP3   OH216160   4.782   3.291   1.704
 5399TIP3    H116161   4.687   3.285   1.718
 5399TIP3    H216162   4.791   3.314   1.611
 5400TIP3   OH216163   0.336   0.498   3.927
 5400TIP3    H116164   0.244   0.474   3.929
 5400TIP3    H216165   0.374   0.457   4.005
 5401TIP3   OH216166   0.910   3.361   0.799
 5401TIP3    H116167   0.968   3.348   0.874
 5401TIP3    H216168   0.823   3.369   0.838
 5402TIP3   OH216169   5.005   2.041   5.705
 5402TIP3    H116170   4.950   1.996   5.640
 5402TIP3    H216171   5.079   1.982   5.719
 5403TIP3   OH216172   4.752   2.452   3.382
 5403TIP3    H116173   4.772   2.546   3.387
 5403TIP3    H216174   4.833   2.409   3.410
 5404TIP3   OH216175   7.078   5.858   5.010
 5404TIP3    H116176   7.036   5.846   5.095
 5404TIP3    H216177   7.065   5.774   4.965
 5405TIP3   OH216178   6.436   2.801   0.374
 5405TIP3    H116179   6.500   2.805   0.445
 5405TIP3    H216180   6.361   2.755   0.412
 5406TIP3   OH216181   4.408   2.114   3.854
 5406TIP3    H116182   4.372   2.103   3.943
 5406TIP3    H216183   4.501   2.130   3.868
 5407TIP3   OH216184   0.876   6.749   2.897
 5407TIP3    H116185   0.806   6.702   2.851
 5407TIP3    H216186   0.912   6.808   2.831
 5408TIP3   OH216187   4.463   5.685   4.358
 5408TIP3    H116188   4.391   5.748   4.355
 5408TIP3    H216189   4.518   5.715   4.430
 5409TIP3   OH216190   0.431   1.805   5.166
 5409TIP3    H116191   0.385   1.761   5.237
 5409TIP3    H216192   0.380   1.884   5.149
 5410TIP3   OH216193   3.227   0.042   2.511
 5410TIP3    H116194   3.286   0.095   2.564
 5410TIP3    H216195   3.167   0.105   2.471
 5411TIP3   OH216196   4.364   2.939   1.199
 5411TIP3    H116197   4.402   2.878   1.137
 5411TIP3    H216198   4.284   2.897   1.229
 5412TIP3   OH216199   1.509   0.959   4.421
 5412TIP3    H116200   1.601   0.981   4.405
 5412TIP3    H216201   1.460   1.034   4.389
 5413TIP3   OH216202   1.443   0.769   2.195
 5413TIP3    H116203   1.437   0.830   2.268
 5413TIP3    H216204   1.457   0.824   2.118
 5414TIP3   OH216205   5.263   0.970   1.848
 5414TIP3    H116206   5.345   1.010   1.876
 5414TIP3    H216207   5.233   0.919   1.923
 5415TIP3   OH216208   1.980   5.207   0.507
 5415TIP3    H116209   1.942   5.133   0.461
 5415TIP3    H216210   1.906   5.254   0.545
 5416TIP3   OH216211   7.010   5.896   1.941
 5416TIP3    H116212   6.942   5.835   1.970
 5416TIP3    H216213   6.975   5.983   1.961
 5417TIP3   OH216214   4.006   4.035   0.631
 5417TIP3    H116215   3.985   4.021   0.723
 5417TIP3    H216216   4.099   4.014   0.624
 5418TIP3   OH216217   5.335   2.067   3.714
 5418TIP3    H116218   5.364   2.045   3.626
 5418TIP3    H216219   5.323   1.983   3.757
 5419TIP3   OH216220   0.058   4.984   3.145
 5419TIP3    H116221   0.121   4.918   3.176
 5419TIP3    H216222   0.102   5.068   3.158
 5420TIP3   OH216223   5.536   4.990   2.732
 5420TIP3    H116224   5.592   5.065   2.714
 5420TIP3    H216225   5.596   4.915   2.734
 5421TIP3   OH216226   3.659   3.499   5.021
 5421TIP3    H116227   3.572   3.461   5.011
 5421TIP3    H216228   3.658   3.577   4.966
 5422TIP3   OH216229   7.132   3.566   2.667
 5422TIP3    H116230   7.191   3.492   2.678
 5422TIP3    H216231   7.068   3.536   2.603
 5423TIP3   OH216232   1.531   0.083   4.075
 5423TIP3    H116233   1.547   0.030   4.152
 5423TIP3    H216234   1.584   0.161   4.088
 5424TIP3   OH216235   3.776   1.666   1.943
 5424TIP3    H116236   3.709   1.654   2.010
 5424TIP3    H216237   3.815   1.579   1.932
 5425TIP3   OH216238   2.785   3.447   4.848
 5425TIP3    H116239   2.786   3.388   4.773
 5425TIP3    H216240   2.860   3.504   4.835
 5426TIP3   OH216241   5.923   3.158   5.611
 5426TIP3    H116242   5.830   3.152   5.588
 5426TIP3    H216243   5.949   3.068   5.629
 5427TIP3   OH216244   0.245   6.380   0.762
 5427TIP3    H116245   0.269   6.320   0.691
 5427TIP3    H216246   0.252   6.467   0.723
 5428TIP3   OH216247   5.498   4.340   3.136
 5428TIP3    H116248   5.419   4.392   3.122
 5428TIP3    H216249   5.490   4.266   3.076
 5429TIP3   OH216250   0.339   3.520   0.574
 5429TIP3    H116251   0.272   3.494   0.511
 5429TIP3    H216252   0.370   3.605   0.543
 5430TIP3   OH216253   5.070   3.100   4.506
 5430TIP3    H116254   5.112   3.114   4.421
 5430TIP3    H216255   5.112   3.164   4.564
 5431TIP3   OH216256   4.325   2.591   3.063
 5431TIP3    H116257   4.333   2.549   3.149
 5431TIP3    H216258   4.393   2.658   3.062
 5432TIP3   OH216259   4.730   1.992   5.288
 5432TIP3    H116260   4.655   1.957   5.337
 5432TIP3    H216261   4.747   2.078   5.328
 5433TIP3   OH216262   5.124   0.778   1.433
 5433TIP3    H116263   5.131   0.770   1.338
 5433TIP3    H216264   5.121   0.688   1.465
 5434TIP3   OH216265   4.475   5.916   3.691
 5434TIP3    H116266   4.497   5.918   3.598
 5434TIP3    H216267   4.471   5.823   3.713
 5435TIP3   OH216268   4.866   5.567   0.005
 5435TIP3    H116269   4.866   5.642  -0.054
 5435TIP3    H216270   4.783   5.574   0.053
 5436TIP3   OH216271   5.584   4.875   1.375
 5436TIP3    H116272   5.604   4.781   1.379
 5436TIP3    H216273   5.629   4.905   1.296
 5437TIP3   OH216274   4.970   6.371   1.424
 5437TIP3    H116275   4.884   6.409   1.406
 5437TIP3    H216276   5.032   6.440   1.402
 5438TIP3   OH216277   4.208   6.767   4.846
 5438TIP3    H116278   4.248   6.816   4.775
 5438TIP3    H216279   4.270   6.696   4.864
 5439TIP3   OH216280   5.132   0.337   3.105
 5439TIP3    H116281   5.141   0.332   3.010
 5439TIP3    H216282   5.056   0.393   3.120
 5440TIP3   OH216283   4.666   4.581   1.570
 5440TIP3    H116284   4.634   4.510   1.625
 5440TIP3    H216285   4.617   4.658   1.599
 5441TIP3   OH216286   1.953   1.311   2.648
 5441TIP3    H116287   1.956   1.219   2.673
 5441TIP3    H216288   1.888   1.314   2.577
 5442TIP3   OH216289   6.430   3.965   5.285
 5442TIP3    H116290   6.496   3.974   5.216
 5442TIP3    H216291   6.421   4.053   5.322
 5443TIP3   OH216292   2.615   1.761   2.700
 5443TIP3    H116293   2.687   1.751   2.638
 5443TIP3    H216294   2.610   1.677   2.746
 5444TIP3   OH216295   3.440   3.965   4.831
 5444TIP3    H116296   3.372   4.000   4.888
 5444TIP3    H216297   3.463   4.037   4.773
 5445TIP3   OH216298   3.789   5.001   2.810
 5445TIP3    H116299   3.756   4.964   2.728
 5445TIP3    H216300   3.836   5.080   2.783
 5446TIP3   OH216301   6.377   5.342   1.205
 5446TIP3    H116302   6.357   5.351   1.299
 5446TIP3    H216303   6.465   5.305   1.203
 5447TIP3   OH216304   1.862   1.934   5.746
 5447TIP3    H116305   1.778   1.922   5.701
 5447TIP3    H216306   1.878   2.029   5.742
 5448TIP3   OH216307   4.455   3.728   2.148
 5448TIP3    H116308   4.549   3.737   2.128
 5448TIP3    H216309   4.411   3.753   2.068
 5449TIP3   OH216310   0.462   4.529   4.242
 5449TIP3    H116311   0.458   4.536   4.337
 5449TIP3    H216312   0.425   4.612   4.211
 5450TIP3   OH216313   6.910   4.703   5.007
 5450TIP3    H116314   6.871   4.751   5.081
 5450TIP3    H216315   6.955   4.629   5.048
 5451TIP3   OH216316   0.080   2.327   3.053
 5451TIP3    H116317   0.136   2.286   2.987
 5451TIP3    H216318   0.127   2.315   3.135
 5452TIP3   OH216319   1.897   2.486   5.612
 5452TIP3    H116320   1.827   2.549   5.594
 5452TIP3    H216321   1.906   2.487   5.707
 5453TIP3   OH216322   2.660   0.162   2.258
 5453TIP3    H116323   2.685   0.228   2.322
 5453TIP3    H216324   2.738   0.107   2.248
 5454TIP3   OH216325   4.496   0.866   5.571
 5454TIP3    H116326   4.493   0.796   5.506
 5454TIP3    H216327   4.518   0.821   5.653
 5455TIP3   OH216328   0.614   0.735   3.925
 5455TIP3    H116329   0.605   0.720   4.019
 5455TIP3    H216330   0.657   0.657   3.892
 5456TIP3   OH216331   3.679   5.695   3.356
 5456TIP3    H116332   3.623   5.619   3.339
 5456TIP3    H216333   3.623   5.771   3.339
 5457TIP3   OH216334   5.043   6.654   0.860
 5457TIP3    H116335   5.122   6.644   0.912
 5457TIP3    H216336   4.994   6.725   0.902
 5458TIP3   OH216337   1.860   3.484   4.102
 5458TIP3    H116338   1.883   3.399   4.065
 5458TIP3    H216339   1.916   3.492   4.180
 5459TIP3   OH216340   6.524   3.034   5.825
 5459TIP3    H116341   6.535   3.059   5.733
 5459TIP3    H216342   6.433   3.004   5.831
 5460TIP3   OH216343   7.159   2.936   5.663
 5460TIP3    H116344   7.199   2.900   5.583
 5460TIP3    H216345   7.233   2.972   5.712
 5461TIP3   OH216346   6.355   3.733   2.944
 5461TIP3    H116347   6.284   3.671   2.960
 5461TIP3    H216348   6.413   3.723   3.020
 5462TIP3   OH216349   5.100   1.758   1.279
 5462TIP3    H116350   5.151   1.819   1.331
 5462TIP3    H216351   5.165   1.705   1.233
 5463TIP3   OH216352   6.791   2.773   2.941
 5463TIP3    H116353   6.787   2.862   2.975
 5463TIP3    H216354   6.845   2.779   2.862
 5464TIP3   OH216355   6.351   6.310   3.534
 5464TIP3    H116356   6.378   6.401   3.546
 5464TIP3    H216357   6.378   6.266   3.614
 5465TIP3   OH216358   3.524   0.940   5.556
 5465TIP3    H116359   3.548   0.940   5.463
 5465TIP3    H216360   3.595   0.892   5.599
 5466TIP3   OH216361   6.007   6.543   4.142
 5466TIP3    H116362   5.917   6.528   4.170
 5466TIP3    H216363   6.047   6.591   4.214
 5467TIP3   OH216364   0.693   0.959   4.142
 5467TIP3    H116365   0.738   0.990   4.221
 5467TIP3    H216366   0.650   0.878   4.169
 5468TIP3   OH216367   4.308   6.705   0.906
 5468TIP3    H116368   4.347   6.725   0.991
 5468TIP3    H216369   4.365   6.750   0.843
 5469TIP3   OH216370   4.031   2.354   3.436
 5469TIP3    H116371   4.117   2.385   3.408
 5469TIP3    H216372   4.000   2.421   3.498
 5470TIP3   OH216373   2.745   0.288   1.363
 5470TIP3    H116374   2.747   0.327   1.450
 5470TIP3    H216375   2.837   0.288   1.335
 5471TIP3   OH216376   6.195   0.948   0.543
 5471TIP3    H116377   6.249   0.993   0.608
 5471TIP3    H216378   6.114   0.999   0.540
 5472TIP3   OH216379   5.411   4.967   3.296
 5472TIP3    H116380   5.499   4.959   3.333
 5472TIP3    H216381   5.376   5.049   3.333
 5473TIP3   OH216382   2.686   5.019   3.945
 5473TIP3    H116383   2.595   4.990   3.937
 5473TIP3    H216384   2.692   5.094   3.886
 5474TIP3   OH216385   1.798   1.095   2.078
 5474TIP3    H116386   1.848   1.062   2.003
 5474TIP3    H216387   1.813   1.031   2.147
 5475TIP3   OH216388   1.467   0.913   3.326
 5475TIP3    H116389   1.407   0.840   3.310
 5475TIP3    H216390   1.429   0.986   3.278
 5476TIP3   OH216391   5.099   2.363   2.978
 5476TIP3    H116392   5.184   2.331   3.009
 5476TIP3    H216393   5.101   2.348   2.884
 5477TIP3   OH216394   6.531   2.159   3.851
 5477TIP3    H116395   6.500   2.207   3.774
 5477TIP3    H216396   6.553   2.228   3.914
 5478TIP3   OH216397   2.837   5.160   1.269
 5478TIP3    H116398   2.899   5.141   1.339
 5478TIP3    H216399   2.829   5.078   1.220
 5479TIP3   OH216400   0.751   5.741   3.999
 5479TIP3    H116401   0.836   5.770   4.032
 5479TIP3    H216402   0.760   5.742   3.904
 5480TIP3   OH216403   5.688   2.792   3.599
 5480TIP3    H116404   5.734   2.713   3.626
 5480TIP3    H216405   5.596   2.774   3.619
 5481TIP3   OH216406   0.665   1.194   2.169
 5481TIP3    H116407   0.757   1.216   2.153
 5481TIP3    H216408   0.669   1.112   2.218
 5482TIP3   OH216409   2.961   3.757   4.108
 5482TIP3    H116410   3.036   3.744   4.165
 5482TIP3    H216411   2.948   3.672   4.067
 5483TIP3   OH216412   3.337   1.431   4.983
 5483TIP3    H116413   3.379   1.358   4.939
 5483TIP3    H216414   3.304   1.486   4.912
 5484TIP3   OH216415   5.729   1.305   3.014
 5484TIP3    H116416   5.672   1.252   2.959
 5484TIP3    H216417   5.749   1.250   3.090
 5485TIP3   OH216418   5.814   4.388   5.194
 5485TIP3    H116419   5.910   4.385   5.197
 5485TIP3    H216420   5.794   4.398   5.101
 5486TIP3   OH216421   6.341   1.401   4.972
 5486TIP3    H116422   6.309   1.440   5.053
 5486TIP3    H216423   6.313   1.310   4.977
 5487TIP3   OH216424   5.330   5.587   4.682
 5487TIP3    H116425   5.342   5.494   4.702
 5487TIP3    H216426   5.328   5.591   4.586
 5488TIP3   OH216427   1.116   5.120   3.548
 5488TIP3    H116428   1.041   5.092   3.601
 5488TIP3    H216429   1.077   5.145   3.464
 5489TIP3   OH216430   6.318   1.509   0.039
 5489TIP3    H116431   6.361   1.587   0.074
 5489TIP3    H216432   6.233   1.540   0.009
 5490TIP3   OH216433   4.411   2.048   5.871
 5490TIP3    H116434   4.330   1.999   5.858
 5490TIP3    H216435   4.476   2.002   5.818
 5491TIP3   OH216436   2.986   0.414   0.702
 5491TIP3    H116437   3.011   0.428   0.611
 5491TIP3    H216438   3.069   0.391   0.745
 5492TIP3   OH216439   2.641   3.169   0.651
 5492TIP3    H116440   2.588   3.176   0.731
 5492TIP3    H216441   2.578   3.164   0.580
 5493TIP3   OH216442   6.272   2.867   4.932
 5493TIP3    H116443   6.256   2.888   5.024
 5493TIP3    H216444   6.187   2.879   4.890
 5494TIP3   OH216445   3.182   1.218   4.629
 5494TIP3    H116446   3.099   1.171   4.635
 5494TIP3    H216447   3.247   1.155   4.663
 5495TIP3   OH216448   5.098   4.703   1.382
 5495TIP3    H116449   5.090   4.712   1.287
 5495TIP3    H216450   5.120   4.611   1.396
 5496TIP3   OH216451   6.646   4.507   3.322
 5496TIP3    H116452   6.565   4.554   3.300
 5496TIP3    H216453   6.626   4.462   3.403
 5497TIP3   OH216454   6.274   5.075   5.367
 5497TIP3    H116455   6.202   5.038   5.316
 5497TIP3    H216456   6.320   4.999   5.402
 5498TIP3   OH216457   1.074   1.658   1.761
 5498TIP3    H116458   1.165   1.631   1.775
 5498TIP3    H216459   1.025   1.613   1.829
 5499TIP3   OH216460   0.144   0.073   1.015
 5499TIP3    H116461   0.058   0.115   1.021
 5499TIP3    H216462   0.153   0.026   1.098
 5500TIP3   OH216463   6.085   6.304   5.352
 5500TIP3    H116464   6.082   6.349   5.437
 5500TIP3    H216465   6.063   6.372   5.288
 5501TIP3   OH216466   6.775   6.080   5.357
 5501TIP3    H116467   6.708   6.043   5.414
 5501TIP3    H216468   6.736   6.160   5.321
 5502TIP3   OH216469   0.144   6.362   1.049
 5502TIP3    H116470   0.168   6.363   0.957
 5502TIP3    H216471   0.108   6.275   1.064
 5503TIP3   OH216472   3.132   1.550   0.372
 5503TIP3    H116473   3.165   1.637   0.392
 5503TIP3    H216474   3.187   1.520   0.299
 5504TIP3   OH216475   0.370   5.707   5.493
 5504TIP3    H116476   0.377   5.798   5.521
 5504TIP3    H216477   0.437   5.698   5.425
 5505TIP3   OH216478   3.927   2.648   0.346
 5505TIP3    H116479   4.005   2.666   0.294
 5505TIP3    H216480   3.941   2.696   0.428
 5506TIP3   OH216481   1.542   0.619   2.609
 5506TIP3    H116482   1.490   0.581   2.539
 5506TIP3    H216483   1.614   0.557   2.622
 5507TIP3   OH216484   5.637   6.290   3.551
 5507TIP3    H116485   5.545   6.270   3.565
 5507TIP3    H216486   5.684   6.215   3.587
 5508TIP3   OH216487   7.186   2.861   3.701
 5508TIP3    H116488   7.189   2.951   3.669
 5508TIP3    H216489   7.156   2.810   3.625
 5509TIP3   OH216490   5.246   2.013   2.451
 5509TIP3    H116491   5.294   2.047   2.526
 5509TIP3    H216492   5.163   1.980   2.487
 5510TIP3   OH216493   1.533   2.559   5.707
 5510TIP3    H116494   1.467   2.627   5.694
 5510TIP3    H216495   1.586   2.561   5.627
 5511TIP3   OH216496   4.702   1.630   2.965
 5511TIP3    H116497   4.611   1.656   2.977
 5511TIP3    H216498   4.752   1.710   2.984
 5512TIP3   OH216499   5.287   1.399   3.222
 5512TIP3    H116500   5.317   1.428   3.136
 5512TIP3    H216501   5.307   1.472   3.281
 5513TIP3   OH216502   2.880   6.316   2.507
 5513TIP3    H116503   2.935   6.259   2.561
 5513TIP3    H216504   2.793   6.277   2.511
 5514TIP3   OH216505   0.847   0.127   4.131
 5514TIP3    H116506   0.857   0.151   4.039
 5514TIP3    H216507   0.827   0.033   4.128
 5515TIP3   OH216508   1.033   3.369   5.706
 5515TIP3    H116509   1.006   3.333   5.791
 5515TIP3    H216510   1.067   3.294   5.658
 5516TIP3   OH216511   0.808   2.248   2.265
 5516TIP3    H116512   0.839   2.331   2.300
 5516TIP3    H216513   0.817   2.186   2.337
 5517TIP3   OH216514   3.063   4.279   5.683
 5517TIP3    H116515   3.118   4.319   5.615
 5517TIP3    H216516   2.974   4.305   5.660
 5518TIP3   OH216517   1.525   0.416   0.625
 5518TIP3    H116518   1.599   0.394   0.681
 5518TIP3    H216519   1.564   0.465   0.552
 5519TIP3   OH216520   2.730   4.045   1.899
 5519TIP3    H116521   2.793   4.081   1.837
 5519TIP3    H216522   2.674   4.119   1.922
 5520TIP3   OH216523   0.660   2.040   4.633
 5520TIP3    H116524   0.674   2.126   4.594
 5520TIP3    H216525   0.623   2.059   4.719
 5521TIP3   OH216526   0.224   6.056   4.439
 5521TIP3    H116527   0.159   6.106   4.489
 5521TIP3    H216528   0.291   6.120   4.417
 5522TIP3   OH216529   6.336   6.208   3.015
 5522TIP3    H116530   6.428   6.209   2.987
 5522TIP3    H216531   6.337   6.249   3.101
 5523TIP3   OH216532   2.796   2.036   4.859
 5523TIP3    H116533   2.879   2.047   4.905
 5523TIP3    H216534   2.754   2.122   4.864
 5524TIP3   OH216535   3.843   5.012   3.322
 5524TIP3    H116536   3.777   5.006   3.392
 5524TIP3    H216537   3.811   5.082   3.265
 5525TIP3   OH216538   1.825   1.122   4.078
 5525TIP3    H116539   1.816   1.172   3.997
 5525TIP3    H216540   1.920   1.117   4.093
 5526TIP3   OH216541   2.073   6.391   5.066
 5526TIP3    H116542   2.151   6.427   5.023
 5526TIP3    H216543   2.039   6.327   5.003
 5527TIP3   OH216544   3.563   2.329   0.968
 5527TIP3    H116545   3.573   2.255   1.029
 5527TIP3    H216546   3.484   2.309   0.919
 5528TIP3   OH216547   6.514   6.258   0.938
 5528TIP3    H116548   6.559   6.204   1.004
 5528TIP3    H216549   6.550   6.228   0.855
 5529TIP3   OH216550   1.572   3.475   1.598
 5529TIP3    H116551   1.478   3.467   1.612
 5529TIP3    H216552   1.584   3.562   1.560
 5530TIP3   OH216553   4.677   5.477   1.300
 5530TIP3    H116554   4.707   5.415   1.368
 5530TIP3    H216555   4.694   5.563   1.338
 5531TIP3   OH216556   1.995   6.093   4.397
 5531TIP3    H116557   1.959   6.126   4.479
 5531TIP3    H216558   2.001   6.170   4.340
 5532TIP3   OH216559   4.486   5.571   2.937
 5532TIP3    H116560   4.520   5.519   3.009
 5532TIP3    H216561   4.564   5.603   2.892
 5533TIP3   OH216562   6.630   0.565   2.910
 5533TIP3    H116563   6.597   0.629   2.973
 5533TIP3    H216564   6.630   0.482   2.959
 5534TIP3   OH216565   5.035   2.241   1.427
 5534TIP3    H116566   4.993   2.209   1.507
 5534TIP3    H216567   4.967   2.293   1.384
 5535TIP3   OH216568   4.515   1.882   1.358
 5535TIP3    H116569   4.593   1.932   1.381
 5535TIP3    H216570   4.473   1.863   1.442
 5536TIP3   OH216571   0.848   4.051   3.247
 5536TIP3    H116572   0.936   4.084   3.230
 5536TIP3    H216573   0.826   4.084   3.334
 5537TIP3   OH216574   7.061   0.319   3.810
 5537TIP3    H116575   7.020   0.279   3.734
 5537TIP3    H216576   7.000   0.388   3.837
 5538TIP3   OH216577   5.185   6.486   1.141
 5538TIP3    H116578   5.219   6.451   1.223
 5538TIP3    H216579   5.255   6.469   1.077
 5539TIP3   OH216580   4.279   6.258   0.089
 5539TIP3    H116581   4.335   6.181   0.093
 5539TIP3    H216582   4.264   6.282   0.181
 5540TIP3   OH216583   4.816   0.203   5.099
 5540TIP3    H116584   4.744   0.249   5.144
 5540TIP3    H216585   4.892   0.260   5.110
 5541TIP3   OH216586   2.333   4.607   3.888
 5541TIP3    H116587   2.381   4.564   3.817
 5541TIP3    H216588   2.369   4.570   3.968
 5542TIP3   OH216589   1.240   5.215   4.186
 5542TIP3    H116590   1.157   5.195   4.144
 5542TIP3    H216591   1.216   5.269   4.261
 5543TIP3   OH216592   5.800   4.072   1.788
 5543TIP3    H116593   5.825   4.164   1.777
 5543TIP3    H216594   5.769   4.066   1.878
 5544TIP3   OH216595   6.529   3.251   3.324
 5544TIP3    H116596   6.489   3.264   3.237
 5544TIP3    H216597   6.472   3.188   3.368
 5545TIP3   OH216598   5.902   6.402   4.660
 5545TIP3    H116599   5.832   6.415   4.596
 5545TIP3    H216600   5.882   6.319   4.701
 5546TIP3   OH216601   3.928   3.601   0.640
 5546TIP3    H116602   4.001   3.575   0.584
 5546TIP3    H216603   3.905   3.522   0.689
 5547TIP3   OH216604   0.257   5.902   2.517
 5547TIP3    H116605   0.344   5.937   2.499
 5547TIP3    H216606   0.221   5.959   2.585
 5548TIP3   OH216607   4.275   2.922   4.798
 5548TIP3    H116608   4.192   2.969   4.789
 5548TIP3    H216609   4.325   2.974   4.861
 5549TIP3   OH216610   2.780   5.076   2.605
 5549TIP3    H116611   2.810   5.052   2.517
 5549TIP3    H216612   2.744   5.164   2.595
 5550TIP3   OH216613   0.658   0.463   5.254
 5550TIP3    H116614   0.580   0.456   5.199
 5550TIP3    H216615   0.646   0.396   5.321
 5551TIP3   OH216616   2.830   1.232   4.097
 5551TIP3    H116617   2.925   1.229   4.110
 5551TIP3    H216618   2.796   1.258   4.183
 5552TIP3   OH216619   2.230   5.991   3.580
 5552TIP3    H116620   2.210   6.069   3.528
 5552TIP3    H216621   2.163   5.990   3.648
 5553TIP3   OH216622   6.218   4.812   0.824
 5553TIP3    H116623   6.202   4.798   0.730
 5553TIP3    H216624   6.285   4.749   0.847
 5554TIP3   OH216625   3.233   6.588   3.292
 5554TIP3    H116626   3.181   6.633   3.358
 5554TIP3    H216627   3.312   6.641   3.283
 5555TIP3   OH216628   1.197   6.311   5.486
 5555TIP3    H116629   1.217   6.225   5.523
 5555TIP3    H216630   1.232   6.309   5.398
 5556TIP3   OH216631   5.566   0.520  -0.005
 5556TIP3    H116632   5.650   0.515   0.040
 5556TIP3    H216633   5.504   0.480   0.056
 5557TIP3   OH216634   3.931   4.555   2.863
 5557TIP3    H116635   3.987   4.510   2.927
 5557TIP3    H216636   3.867   4.602   2.917
 5558TIP3   OH216637   4.732   6.082   0.023
 5558TIP3    H116638   4.798   6.037  -0.031
 5558TIP3    H216639   4.776   6.161   0.054
 5559TIP3   OH216640   4.787   2.985   0.557
 5559TIP3    H116641   4.722   3.047   0.589
 5559TIP3    H216642   4.736   2.916   0.515
 5560TIP3   OH216643   2.269   6.532   4.931
 5560TIP3    H116644   2.312   6.594   4.989
 5560TIP3    H216645   2.241   6.585   4.856
 5561TIP3   OH216646   4.083   1.593   5.622
 5561TIP3    H116647   3.997   1.549   5.626
 5561TIP3    H216648   4.130   1.560   5.698
 5562TIP3   OH216649   6.622   1.617   2.373
 5562TIP3    H116650   6.532   1.589   2.390
 5562TIP3    H216651   6.634   1.606   2.278
 5563TIP3   OH216652   5.616   6.059   0.335
 5563TIP3    H116653   5.533   6.063   0.287
 5563TIP3    H216654   5.594   6.092   0.422
 5564TIP3   OH216655   3.108   6.254   2.309
 5564TIP3    H116656   3.082   6.314   2.379
 5564TIP3    H216657   3.060   6.174   2.326
 5565TIP3   OH216658   6.092   6.123   4.927
 5565TIP3    H116659   6.051   6.207   4.907
 5565TIP3    H216660   6.085   6.073   4.845
 5566TIP3   OH216661   6.594   0.659   4.519
 5566TIP3    H116662   6.546   0.700   4.592
 5566TIP3    H216663   6.527   0.640   4.454
 5567TIP3   OH216664   0.742   4.607   2.767
 5567TIP3    H116665   0.757   4.670   2.837
 5567TIP3    H216666   0.746   4.659   2.686
 5568TIP3   OH216667   6.134   5.521   0.779
 5568TIP3    H116668   6.077   5.483   0.711
 5568TIP3    H216669   6.216   5.541   0.733
 5569TIP3   OH216670   3.996   1.248   2.748
 5569TIP3    H116671   3.974   1.155   2.756
 5569TIP3    H216672   4.012   1.277   2.837
 5570TIP3   OH216673   2.008   1.145   2.276
 5570TIP3    H116674   2.013   1.180   2.187
 5570TIP3    H216675   1.932   1.189   2.315
 5571TIP3   OH216676   3.026   2.802   1.868
 5571TIP3    H116677   3.086   2.875   1.851
 5571TIP3    H216678   3.076   2.724   1.845
 5572TIP3   OH216679   2.109   5.023   5.332
 5572TIP3    H116680   2.188   4.968   5.340
 5572TIP3    H216681   2.136   5.108   5.369
 5573TIP3   OH216682   3.946   6.508   2.095
 5573TIP3    H116683   4.004   6.518   2.020
 5573TIP3    H216684   3.908   6.421   2.083
 5574TIP3   OH216685   5.860   5.171   0.250
 5574TIP3    H116686   5.819   5.116   0.184
 5574TIP3    H216687   5.897   5.110   0.314
 5575TIP3   OH216688   2.314   5.513   5.031
 5575TIP3    H116689   2.378   5.462   5.081
 5575TIP3    H216690   2.367   5.565   4.970
 5576TIP3   OH216691   3.074   3.077   5.621
 5576TIP3    H116692   3.055   3.058   5.712
 5576TIP3    H216693   3.165   3.050   5.608
 5577TIP3   OH216694   6.811   4.882   5.190
 5577TIP3    H116695   6.814   4.966   5.143
 5577TIP3    H216696   6.718   4.862   5.197
 5578TIP3   OH216697   6.424   0.298   5.569
 5578TIP3    H116698   6.464   0.211   5.559
 5578TIP3    H216699   6.495   0.352   5.604
 5579TIP3   OH216700   2.263   2.329   2.424
 5579TIP3    H116701   2.211   2.408   2.437
 5579TIP3    H216702   2.248   2.277   2.503
 5580TIP3   OH216703   1.589   1.444   3.927
 5580TIP3    H116704   1.604   1.512   3.861
 5580TIP3    H216705   1.654   1.377   3.908
 5581TIP3   OH216706   2.364   1.555   2.149
 5581TIP3    H116707   2.434   1.500   2.185
 5581TIP3    H216708   2.328   1.504   2.076
 5582TIP3   OH216709   5.999   4.068   1.979
 5582TIP3    H116710   5.920   4.122   1.977
 5582TIP3    H216711   6.056   4.111   2.043
 5583TIP3   OH216712   2.680   2.001   2.173
 5583TIP3    H116713   2.705   1.980   2.083
 5583TIP3    H216714   2.584   2.001   2.172
 5584TIP3   OH216715   4.890   2.044   4.207
 5584TIP3    H116716   4.844   2.125   4.229
 5584TIP3    H216717   4.821   1.979   4.195
 5585TIP3   OH216718   6.639   6.253   5.192
 5585TIP3    H116719   6.581   6.182   5.163
 5585TIP3    H216720   6.714   6.248   5.133
 5586TIP3   OH216721   5.843   1.478   0.003
 5586TIP3    H116722   5.810   1.454   0.089
 5586TIP3    H216723   5.898   1.405  -0.023
 5587TIP3   OH216724   1.983   1.026   4.868
 5587TIP3    H116725   2.017   1.094   4.810
 5587TIP3    H216726   1.993   1.063   4.956
 5588TIP3   OH216727   2.713   0.008   5.199
 5588TIP3    H116728   2.779   0.066   5.163
 5588TIP3    H216729   2.751  -0.079   5.194
 5589TIP3   OH216730   2.630   5.337   2.996
 5589TIP3    H116731   2.641   5.378   2.910
 5589TIP3    H216732   2.673   5.252   2.989
 5590TIP3   OH216733   5.779   0.173   4.546
 5590TIP3    H116734   5.715   0.228   4.592
 5590TIP3    H216735   5.762   0.188   4.453
 5591TIP3   OH216736   1.065   4.082   4.843
 5591TIP3    H116737   1.008   4.147   4.804
 5591TIP3    H216738   1.025   4.062   4.928
 5592TIP3   OH216739   3.640   4.929   2.236
 5592TIP3    H116740   3.677   4.912   2.323
 5592TIP3    H216741   3.615   4.843   2.203
 5593TIP3   OH216742   6.973   5.780   0.686
 5593TIP3    H116743   7.006   5.755   0.600
 5593TIP3    H216744   6.883   5.747   0.688
 5594TIP3   OH216745   6.731   0.393   5.180
 5594TIP3    H116746   6.689   0.311   5.154
 5594TIP3    H216747   6.710   0.454   5.109
 5595TIP3   OH216748   1.705   1.787   5.244
 5595TIP3    H116749   1.633   1.841   5.275
 5595TIP3    H216750   1.778   1.808   5.303
 5596TIP3   OH216751   1.894   5.189   1.136
 5596TIP3    H116752   1.910   5.267   1.083
 5596TIP3    H216753   1.900   5.220   1.226
 5597TIP3   OH216754   2.654   3.953   4.383
 5597TIP3    H116755   2.563   3.929   4.366
 5597TIP3    H216756   2.676   3.907   4.464
 5598TIP3   OH216757   6.457   2.349   5.048
 5598TIP3    H116758   6.439   2.410   5.119
 5598TIP3    H216759   6.501   2.401   4.981
 5599TIP3   OH216760   3.227   6.110   1.842
 5599TIP3    H116761   3.267   6.073   1.921
 5599TIP3    H216762   3.187   6.192   1.872
 5600TIP3   OH216763   2.893   2.788   0.331
 5600TIP3    H116764   2.913   2.696   0.348
 5600TIP3    H216765   2.849   2.788   0.246
 5601TIP3   OH216766   5.985   1.317   3.225
 5601TIP3    H116767   5.893   1.295   3.236
 5601TIP3    H216768   5.997   1.327   3.131
 5602TIP3   OH216769   3.453   0.702   1.672
 5602TIP3    H116770   3.535   0.723   1.717
 5602TIP3    H216771   3.468   0.725   1.581
 5603TIP3   OH216772   4.934   4.678   5.521
 5603TIP3    H116773   4.935   4.764   5.564
 5603TIP3    H216774   5.026   4.658   5.504
 5604TIP3   OH216775   1.278   5.112   1.147
 5604TIP3    H116776   1.216   5.170   1.103
 5604TIP3    H216777   1.233   5.085   1.227
 5605TIP3   OH216778   5.272   1.835   0.182
 5605TIP3    H116779   5.324   1.775   0.129
 5605TIP3    H216780   5.330   1.908   0.201
 5606TIP3   OH216781   7.056   5.185   5.200
 5606TIP3    H116782   7.137   5.144   5.230
 5606TIP3    H216783   7.067   5.194   5.105
 5607TIP3   OH216784   5.457   4.244   2.719
 5607TIP3    H116785   5.400   4.320   2.734
 5607TIP3    H216786   5.412   4.195   2.650
 5608TIP3   OH216787   3.144   6.241   5.732
 5608TIP3    H116788   3.199   6.255   5.655
 5608TIP3    H216789   3.154   6.148   5.753
 5609TIP3   OH216790   6.013   4.785   1.376
 5609TIP3    H116791   6.108   4.774   1.389
 5609TIP3    H216792   5.998   4.758   1.286
 5610TIP3   OH216793   2.593   0.878   4.103
 5610TIP3    H116794   2.557   0.906   4.018
 5610TIP3    H216795   2.520   0.887   4.164
 5611TIP3   OH216796   4.950   6.335   5.823
 5611TIP3    H116797   4.954   6.330   5.918
 5611TIP3    H216798   4.893   6.410   5.804
 5612TIP3   OH216799   2.228   0.331   4.177
 5612TIP3    H116800   2.134   0.336   4.191
 5612TIP3    H216801   2.246   0.393   4.107
 5613TIP3   OH216802   3.595   0.602   0.169
 5613TIP3    H116803   3.617   0.695   0.166
 5613TIP3    H216804   3.510   0.599   0.212
 5614TIP3   OH216805   1.403   1.076   1.365
 5614TIP3    H116806   1.400   1.155   1.417
 5614TIP3    H216807   1.404   1.106   1.274
 5615TIP3   OH216808   4.256   2.908   0.469
 5615TIP3    H116809   4.218   2.922   0.556
 5615TIP3    H216810   4.183   2.921   0.409
 5616TIP3   OH216811   2.468   0.971   4.569
 5616TIP3    H116812   2.507   0.884   4.574
 5616TIP3    H216813   2.416   0.979   4.649
 5617TIP3   OH216814   6.593   1.025   0.985
 5617TIP3    H116815   6.554   1.061   1.065
 5617TIP3    H216816   6.659   1.088   0.960
 5618TIP3   OH216817   5.694   2.862   0.709
 5618TIP3    H116818   5.697   2.940   0.652
 5618TIP3    H216819   5.601   2.842   0.717
 5619TIP3   OH216820   1.918   4.289   2.564
 5619TIP3    H116821   1.881   4.241   2.490
 5619TIP3    H216822   1.979   4.351   2.524
 5620TIP3   OH216823   3.337   0.565   0.379
 5620TIP3    H116824   3.333   0.491   0.440
 5620TIP3    H216825   3.389   0.631   0.425
 5621TIP3   OH216826   1.576   0.481   5.101
 5621TIP3    H116827   1.503   0.511   5.156
 5621TIP3    H216828   1.596   0.555   5.044
 5622TIP3   OH216829   6.871   3.833   1.747
 5622TIP3    H116830   6.923   3.790   1.679
 5622TIP3    H216831   6.933   3.848   1.818
 5623TIP3   OH216832   1.307   3.421   1.572
 5623TIP3    H116833   1.307   3.343   1.516
 5623TIP3    H216834   1.247   3.482   1.530
 5624TIP3   OH216835   2.699   1.176   1.569
 5624TIP3    H116836   2.690   1.186   1.663
 5624TIP3    H216837   2.791   1.152   1.556
 5625TIP3   OH216838   3.937   0.406   3.201
 5625TIP3    H116839   4.003   0.355   3.155
 5625TIP3    H216840   3.958   0.396   3.294
 5626TIP3   OH216841   4.980   6.356   3.114
 5626TIP3    H116842   4.907   6.366   3.175
 5626TIP3    H216843   5.048   6.311   3.165
 5627TIP3   OH216844   5.384   5.335   3.081
 5627TIP3    H116845   5.364   5.279   3.006
 5627TIP3    H216846   5.425   5.275   3.144
 5628TIP3   OH216847   5.263   5.245   1.146
 5628TIP3    H116848   5.211   5.264   1.224
 5628TIP3    H216849   5.265   5.149   1.141
 5629TIP3   OH216850   4.956   2.088   3.076
 5629TIP3    H116851   4.972   2.170   3.030
 5629TIP3    H216852   5.014   2.092   3.153
 5630TIP3   OH216853   4.167   4.237   0.378
 5630TIP3    H116854   4.076   4.211   0.363
 5630TIP3    H216855   4.168   4.268   0.469
 5631TIP3   OH216856   7.150   3.228   4.207
 5631TIP3    H116857   7.107   3.189   4.131
 5631TIP3    H216858   7.114   3.181   4.282
 5632TIP3   OH216859   3.905   5.463   3.857
 5632TIP3    H116860   3.963   5.390   3.877
 5632TIP3    H216861   3.907   5.517   3.936
 5633TIP3   OH216862   5.421   2.474   3.453
 5633TIP3    H116863   5.350   2.452   3.393
 5633TIP3    H216864   5.415   2.407   3.522
 5634TIP3   OH216865   1.062   5.599   3.846
 5634TIP3    H116866   1.136   5.558   3.890
 5634TIP3    H216867   1.099   5.639   3.767
 5635TIP3   OH216868   6.838   0.427   3.147
 5635TIP3    H116869   6.892   0.431   3.226
 5635TIP3    H216870   6.781   0.504   3.153
 5636TIP3   OH216871   4.613   4.221   0.292
 5636TIP3    H116872   4.698   4.259   0.269
 5636TIP3    H216873   4.549   4.278   0.248
 5637TIP3   OH216874   1.258   6.446   1.154
 5637TIP3    H116875   1.295   6.358   1.163
 5637TIP3    H216876   1.165   6.430   1.136
 5638TIP3   OH216877   5.778   2.595   0.156
 5638TIP3    H116878   5.731   2.673   0.127
 5638TIP3    H216879   5.743   2.577   0.244
 5639TIP3   OH216880   2.647   2.659   2.768
 5639TIP3    H116881   2.725   2.713   2.779
 5639TIP3    H216882   2.621   2.635   2.857
 5640TIP3   OH216883   0.781   6.559   4.621
 5640TIP3    H116884   0.817   6.475   4.591
 5640TIP3    H216885   0.775   6.550   4.716
 5641TIP3   OH216886   0.227   0.200   2.529
 5641TIP3    H116887   0.229   0.293   2.554
 5641TIP3    H216888   0.293   0.194   2.459
 5642TIP3   OH216889   0.219   0.035   3.467
 5642TIP3    H116890   0.268  -0.030   3.516
 5642TIP3    H216891   0.149   0.062   3.526
 5643TIP3   OH216892   0.544   1.992   0.435
 5643TIP3    H116893   0.490   2.023   0.507
 5643TIP3    H216894   0.483   1.982   0.362
 5644TIP3   OH216895   0.463   2.178   0.632
 5644TIP3    H116896   0.518   2.125   0.690
 5644TIP3    H216897   0.522   2.248   0.602
 5645TIP3   OH216898   3.174   0.396   2.630
 5645TIP3    H116899   3.237   0.419   2.699
 5645TIP3    H216900   3.121   0.327   2.670
 5646TIP3   OH216901  -0.008   5.136   2.273
 5646TIP3    H116902  -0.061   5.100   2.344
 5646TIP3    H216903   0.031   5.060   2.231
 5647TIP3   OH216904   3.592   5.351   4.221
 5647TIP3    H116905   3.631   5.276   4.177
 5647TIP3    H216906   3.647   5.425   4.196
 5648TIP3   OH216907   3.317   6.711   4.641
 5648TIP3    H116908   3.356   6.778   4.584
 5648TIP3    H216909   3.387   6.647   4.652
 5649TIP3   OH216910   1.036   2.988   5.723
 5649TIP3    H116911   1.092   2.951   5.791
 5649TIP3    H216912   0.956   3.013   5.768
 5650TIP3   OH216913   6.492   4.480   0.221
 5650TIP3    H116914   6.399   4.501   0.213
 5650TIP3    H216915   6.537   4.554   0.181
 5651TIP3   OH216916   4.253   5.763   1.612
 5651TIP3    H116917   4.336   5.760   1.565
 5651TIP3    H216918   4.191   5.802   1.550
 5652TIP3   OH216919   2.520   0.121   3.198
 5652TIP3    H116920   2.517   0.092   3.107
 5652TIP3    H216921   2.475   0.052   3.247
 5653TIP3   OH216922   6.104   5.583   1.682
 5653TIP3    H116923   6.041   5.512   1.691
 5653TIP3    H216924   6.162   5.574   1.758
 5654TIP3   OH216925   1.386   2.651   4.049
 5654TIP3    H116926   1.401   2.587   4.118
 5654TIP3    H216927   1.304   2.694   4.073
 5655TIP3   OH216928   6.682   2.034   2.436
 5655TIP3    H116929   6.653   1.997   2.520
 5655TIP3    H216930   6.751   2.095   2.460
 5656TIP3   OH216931   3.347   2.922   5.643
 5656TIP3    H116932   3.399   2.957   5.716
 5656TIP3    H216933   3.412   2.883   5.585
 5657TIP3   OH216934   1.486   2.910   0.248
 5657TIP3    H116935   1.425   2.867   0.307
 5657TIP3    H216936   1.544   2.839   0.218
 5658TIP3   OH216937   2.604   1.078   2.307
 5658TIP3    H116938   2.642   1.048   2.225
 5658TIP3    H216939   2.618   1.005   2.368
 5659TIP3   OH216940   6.487   2.981   4.835
 5659TIP3    H116941   6.526   3.010   4.918
 5659TIP3    H216942   6.402   2.944   4.860
 5660TIP3   OH216943   1.196   3.144   0.169
 5660TIP3    H116944   1.257   3.205   0.210
 5660TIP3    H216945   1.247   3.064   0.155
 5661TIP3   OH216946   0.883   1.431   3.411
 5661TIP3    H116947   0.893   1.485   3.333
 5661TIP3    H216948   0.914   1.487   3.483
 5662TIP3   OH216949   5.006   2.161   1.703
 5662TIP3    H116950   5.021   2.229   1.769
 5662TIP3    H216951   4.916   2.131   1.720
 5663TIP3   OH216952   7.217   6.233   0.105
 5663TIP3    H116953   7.195   6.325   0.118
 5663TIP3    H216954   7.247   6.203   0.191
 5664TIP3   OH216955   6.842   2.919   4.883
 5664TIP3    H116956   6.866   2.986   4.948
 5664TIP3    H216957   6.924   2.875   4.862
 5665TIP3   OH216958   6.596   2.472   1.420
 5665TIP3    H116959   6.605   2.489   1.514
 5665TIP3    H216960   6.685   2.456   1.389
 5666TIP3   OH216961   0.570   3.495   4.430
 5666TIP3    H116962   0.529   3.455   4.353
 5666TIP3    H216963   0.522   3.458   4.504
 5667TIP3   OH216964   4.036   2.356   5.001
 5667TIP3    H116965   4.036   2.410   5.080
 5667TIP3    H216966   4.007   2.414   4.931
 5668TIP3   OH216967   2.986   2.382   3.419
 5668TIP3    H116968   2.986   2.334   3.336
 5668TIP3    H216969   3.079   2.394   3.441
 5669TIP3   OH216970   0.835   0.598   4.273
 5669TIP3    H116971   0.753   0.646   4.284
 5669TIP3    H216972   0.903   0.663   4.294
 5670TIP3   OH216973   6.431   1.653   3.587
 5670TIP3    H116974   6.495   1.712   3.547
 5670TIP3    H216975   6.360   1.711   3.616
 5671TIP3   OH216976   2.280   1.631   3.843
 5671TIP3    H116977   2.278   1.550   3.792
 5671TIP3    H216978   2.372   1.660   3.837
 5672TIP3   OH216979   0.806   4.611   1.429
 5672TIP3    H116980   0.810   4.516   1.416
 5672TIP3    H216981   0.887   4.632   1.475
 5673TIP3   OH216982   4.350   3.304   1.656
 5673TIP3    H116983   4.399   3.368   1.708
 5673TIP3    H216984   4.390   3.307   1.570
 5674TIP3   OH216985   6.474   5.548   3.837
 5674TIP3    H116986   6.482   5.468   3.785
 5674TIP3    H216987   6.414   5.524   3.908
 5675TIP3   OH216988   6.321   4.447   2.395
 5675TIP3    H116989   6.338   4.354   2.382
 5675TIP3    H216990   6.267   4.451   2.475
 5676TIP3   OH216991   5.320   1.587   3.464
 5676TIP3    H116992   5.240   1.620   3.505
 5676TIP3    H216993   5.365   1.539   3.533
 5677TIP3   OH216994   5.354   5.327   3.929
 5677TIP3    H116995   5.394   5.252   3.974
 5677TIP3    H216996   5.260   5.317   3.945
 5678TIP3   OH216997   3.528   0.238   0.748
 5678TIP3    H116998   3.525   0.195   0.833
 5678TIP3    H216999   3.618   0.272   0.742
 5679TIP3   OH217000   2.843   2.118   5.218
 5679TIP3    H117001   2.905   2.094   5.149
 5679TIP3    H217002   2.872   2.070   5.295
 5680TIP3   OH217003   5.198   3.365   0.414
 5680TIP3    H117004   5.173   3.455   0.435
 5680TIP3    H217005   5.115   3.317   0.413
 5681TIP3   OH217006   6.547   1.474   0.621
 5681TIP3    H117007   6.495   1.546   0.656
 5681TIP3    H217008   6.492   1.436   0.552
 5682TIP3   OH217009   3.178   5.433   5.594
 5682TIP3    H117010   3.091   5.473   5.594
 5682TIP3    H217011   3.175   5.370   5.522
 5683TIP3   OH217012   3.762   1.179   1.833
 5683TIP3    H117013   3.770   1.178   1.738
 5683TIP3    H217014   3.756   1.087   1.858
 5684TIP3   OH217015   2.735   0.553   2.232
 5684TIP3    H117016   2.686   0.585   2.308
 5684TIP3    H217017   2.674   0.494   2.188
 5685TIP3   OH217018   2.440   2.400   5.698
 5685TIP3    H117019   2.517   2.367   5.652
 5685TIP3    H217020   2.428   2.489   5.665
 5686TIP3   OH217021   6.004   5.023   4.279
 5686TIP3    H117022   5.925   5.027   4.333
 5686TIP3    H217023   6.045   4.940   4.304
 5687TIP3   OH217024   3.425   6.104   4.642
 5687TIP3    H117025   3.493   6.064   4.589
 5687TIP3    H217026   3.393   6.034   4.699
 5688TIP3   OH217027   5.078   1.208   2.707
 5688TIP3    H117028   5.025   1.254   2.642
 5688TIP3    H217029   5.048   1.242   2.791
 5689TIP3   OH217030   5.838   1.960   3.331
 5689TIP3    H117031   5.907   2.024   3.350
 5689TIP3    H217032   5.799   1.940   3.417
 5690TIP3   OH217033   1.836   1.861   4.783
 5690TIP3    H117034   1.852   1.942   4.733
 5690TIP3    H217035   1.813   1.797   4.716
 5691TIP3   OH217036   0.059   3.785   4.957
 5691TIP3    H117037   0.145   3.825   4.958
 5691TIP3    H217038   0.072   3.699   4.998
 5692TIP3   OH217039   1.749   0.117   4.351
 5692TIP3    H117040   1.833   0.099   4.309
 5692TIP3    H217041   1.735   0.211   4.337
 5693TIP3   OH217042   1.595   2.031   1.141
 5693TIP3    H117043   1.654   2.103   1.163
 5693TIP3    H217044   1.543   2.064   1.067
 5694TIP3   OH217045   1.015   2.494   0.487
 5694TIP3    H117046   1.020   2.547   0.566
 5694TIP3    H217047   1.101   2.452   0.480
 5695TIP3   OH217048   6.694   3.024   4.646
 5695TIP3    H117049   6.619   3.004   4.703
 5695TIP3    H217050   6.770   2.991   4.694
 5696TIP3   OH217051   1.061   5.626   4.661
 5696TIP3    H117052   1.009   5.563   4.611
 5696TIP3    H217053   1.094   5.687   4.595
 5697TIP3   OH217054   5.245   4.760   3.440
 5697TIP3    H117055   5.302   4.738   3.514
 5697TIP3    H217056   5.283   4.840   3.403
 5698TIP3   OH217057   3.549   6.265   5.574
 5698TIP3    H117058   3.468   6.311   5.550
 5698TIP3    H217059   3.619   6.324   5.548
 5699TIP3   OH217060   6.198   0.127   2.217
 5699TIP3    H117061   6.205   0.112   2.122
 5699TIP3    H217062   6.216   0.042   2.256
 5700TIP3   OH217063   5.711   0.281   0.214
 5700TIP3    H117064   5.734   0.192   0.244
 5700TIP3    H217065   5.760   0.291   0.132
 5701TIP3   OH217066   2.685   6.363   0.950
 5701TIP3    H117067   2.623   6.436   0.955
 5701TIP3    H217068   2.639   6.296   0.900
 5702TIP3   OH217069   1.751   1.777   1.035
 5702TIP3    H117070   1.718   1.853   0.988
 5702TIP3    H217071   1.828   1.808   1.080
 5703TIP3   OH217072   4.083   4.993   1.782
 5703TIP3    H117073   4.097   5.071   1.837
 5703TIP3    H217074   4.149   4.931   1.812
 5704TIP3   OH217075   3.627   0.680   5.606
 5704TIP3    H117076   3.714   0.648   5.582
 5704TIP3    H217077   3.622   0.670   5.701
 5705TIP3   OH217078   6.646   5.665   3.652
 5705TIP3    H117079   6.584   5.637   3.719
 5705TIP3    H217080   6.592   5.693   3.578
 5706TIP3   OH217081   0.149   1.416   4.010
 5706TIP3    H117082   0.189   1.336   3.974
 5706TIP3    H217083   0.206   1.486   3.980
 5707TIP3   OH217084   0.957   5.012   1.535
 5707TIP3    H117085   0.865   5.031   1.523
 5707TIP3    H217086   0.986   5.072   1.603
 5708TIP3   OH217087   5.865   6.526   3.477
 5708TIP3    H117088   5.914   6.569   3.548
 5708TIP3    H217089   5.883   6.432   3.490
 5709TIP3   OH217090   0.334   1.425   3.788
 5709TIP3    H117091   0.420   1.431   3.830
 5709TIP3    H217092   0.320   1.331   3.777
 5710TIP3   OH217093   5.531   4.620   2.942
 5710TIP3    H117094   5.596   4.606   3.010
 5710TIP3    H217095   5.503   4.711   2.954
 5711TIP3   OH217096   2.410   5.861   1.590
 5711TIP3    H117097   2.368   5.792   1.641
 5711TIP3    H217098   2.372   5.852   1.502
 5712TIP3   OH217099   5.618   6.190   0.563
 5712TIP3    H117100   5.555   6.262   0.559
 5712TIP3    H217101   5.703   6.233   0.578
 5713TIP3   OH217102   4.368   5.520   1.436
 5713TIP3    H117103   4.402   5.597   1.391
 5713TIP3    H217104   4.407   5.525   1.524
 5714TIP3   OH217105   0.287   5.133   1.173
 5714TIP3    H117106   0.356   5.082   1.216
 5714TIP3    H217107   0.295   5.110   1.081
 5715TIP3   OH217108   5.288   5.161   1.908
 5715TIP3    H117109   5.350   5.188   1.976
 5715TIP3    H217110   5.288   5.066   1.912
 5716TIP3   OH217111   4.224   0.749   1.731
 5716TIP3    H117112   4.160   0.678   1.722
 5716TIP3    H217113   4.308   0.707   1.715
 5717TIP3   OH217114   4.089   4.852   5.145
 5717TIP3    H117115   4.067   4.883   5.233
 5717TIP3    H217116   4.145   4.776   5.160
 5718TIP3   OH217117   0.300   3.193   5.338
 5718TIP3    H117118   0.261   3.279   5.348
 5718TIP3    H217119   0.320   3.164   5.427
 5719TIP3   OH217120   4.483   3.904   0.703
 5719TIP3    H117121   4.496   3.968   0.773
 5719TIP3    H217122   4.547   3.928   0.636
 5720TIP3   OH217123   3.820   4.036   0.161
 5720TIP3    H117124   3.738   4.024   0.210
 5720TIP3    H217125   3.882   4.070   0.226
 5721TIP3   OH217126   7.173   1.065   1.446
 5721TIP3    H117127   7.247   1.014   1.414
 5721TIP3    H217128   7.101   1.043   1.386
 5722TIP3   OH217129   2.258   1.360   1.986
 5722TIP3    H117130   2.244   1.316   1.902
 5722TIP3    H217131   2.345   1.331   2.013
 5723TIP3   OH217132   3.062   4.121   2.403
 5723TIP3    H117133   3.006   4.112   2.479
 5723TIP3    H217134   3.126   4.050   2.412
 5724TIP3   OH217135   5.721   1.716   5.327
 5724TIP3    H117136   5.692   1.723   5.237
 5724TIP3    H217137   5.659   1.769   5.377
 5725TIP3   OH217138   3.550   1.412   4.626
 5725TIP3    H117139   3.605   1.362   4.565
 5725TIP3    H217140   3.547   1.358   4.705
 5726TIP3   OH217141   2.320   3.384   2.105
 5726TIP3    H117142   2.326   3.332   2.024
 5726TIP3    H217143   2.364   3.467   2.083
 5727TIP3   OH217144   3.056   6.532   0.301
 5727TIP3    H117145   3.121   6.601   0.291
 5727TIP3    H217146   3.044   6.523   0.395
 5728TIP3   OH217147   5.235   4.278   3.330
 5728TIP3    H117148   5.190   4.360   3.313
 5728TIP3    H217149   5.236   4.233   3.246
 5729TIP3   OH217150   1.354   0.965   2.023
 5729TIP3    H117151   1.394   0.897   1.969
 5729TIP3    H217152   1.425   1.028   2.038
 5730TIP3   OH217153   3.554   5.734   1.635
 5730TIP3    H117154   3.503   5.678   1.576
 5730TIP3    H217155   3.537   5.699   1.722
 5731TIP3   OH217156   4.618   6.299   2.882
 5731TIP3    H117157   4.668   6.370   2.925
 5731TIP3    H217158   4.566   6.261   2.953
 5732TIP3   OH217159   6.939   1.266   2.836
 5732TIP3    H117160   6.970   1.310   2.757
 5732TIP3    H217161   6.997   1.190   2.846
 5733TIP3   OH217162   7.118   4.036   4.949
 5733TIP3    H117163   7.132   3.945   4.973
 5733TIP3    H217164   7.206   4.071   4.934
 5734TIP3   OH217165   1.910   3.331   3.403
 5734TIP3    H117166   1.917   3.270   3.477
 5734TIP3    H217167   1.998   3.368   3.394
 5735TIP3   OH217168   5.797   6.548   1.293
 5735TIP3    H117169   5.792   6.454   1.273
 5735TIP3    H217170   5.886   6.573   1.269
 5736TIP3   OH217171   2.043   4.407   4.134
 5736TIP3    H117172   1.999   4.347   4.194
 5736TIP3    H217173   2.069   4.353   4.060
 5737TIP3   OH217174   5.380   0.083   1.125
 5737TIP3    H117175   5.380   0.179   1.134
 5737TIP3    H217176   5.289   0.061   1.106
 5738TIP3   OH217177   5.789   6.405   5.246
 5738TIP3    H117178   5.727   6.476   5.261
 5738TIP3    H217179   5.863   6.447   5.202
 5739TIP3   OH217180   2.758   6.782   1.722
 5739TIP3    H117181   2.793   6.781   1.633
 5739TIP3    H217182   2.663   6.783   1.710
 5740TIP3   OH217183   5.226   1.001   2.971
 5740TIP3    H117184   5.287   0.930   2.989
 5740TIP3    H217185   5.258   1.040   2.889
 5741TIP3   OH217186   5.032   2.632   3.494
 5741TIP3    H117187   5.065   2.560   3.439
 5741TIP3    H217188   5.069   2.711   3.454
 5742TIP3   OH217189   1.805   0.430   4.958
 5742TIP3    H117190   1.769   0.436   5.046
 5742TIP3    H217191   1.803   0.336   4.938
 5743TIP3   OH217192   3.785   1.434   4.406
 5743TIP3    H117193   3.729   1.420   4.329
 5743TIP3    H217194   3.840   1.356   4.410
 5744TIP3   OH217195   5.290   3.645   2.931
 5744TIP3    H117196   5.293   3.584   3.005
 5744TIP3    H217197   5.200   3.676   2.929
 5745TIP3   OH217198   4.988   0.201   0.190
 5745TIP3    H117199   5.019   0.289   0.211
 5745TIP3    H217200   5.036   0.144   0.250
 5746TIP3   OH217201   4.484   0.429   1.548
 5746TIP3    H117202   4.496   0.479   1.467
 5746TIP3    H217203   4.513   0.340   1.526
 5747TIP3   OH217204   6.536   1.104   3.578
 5747TIP3    H117205   6.521   1.198   3.569
 5747TIP3    H217206   6.547   1.073   3.488
 5748TIP3   OH217207   5.849   1.450   0.867
 5748TIP3    H117208   5.920   1.399   0.906
 5748TIP3    H217209   5.773   1.392   0.869
 5749TIP3   OH217210   5.998   3.089   1.679
 5749TIP3    H117211   5.930   3.124   1.736
 5749TIP3    H217212   6.076   3.085   1.734
 5750TIP3   OH217213   1.272   0.096   0.926
 5750TIP3    H117214   1.351   0.062   0.969
 5750TIP3    H217215   1.266   0.187   0.956
 5751TIP3   OH217216   0.897   0.804   5.688
 5751TIP3    H117217   0.866   0.744   5.620
 5751TIP3    H217218   0.916   0.885   5.641
 5752TIP3   OH217219   0.244   0.003   0.236
 5752TIP3    H117220   0.322   0.055   0.255
 5752TIP3    H217221   0.172   0.051   0.278
 5753TIP3   OH217222   4.771   4.007   1.857
 5753TIP3    H117223   4.700   3.980   1.914
 5753TIP3    H217224   4.730   4.066   1.793
 5754TIP3   OH217225   3.458   1.340   0.843
 5754TIP3    H117226   3.517   1.390   0.786
 5754TIP3    H217227   3.386   1.315   0.786
 5755TIP3   OH217228   1.557   3.469   2.503
 5755TIP3    H117229   1.544   3.540   2.566
 5755TIP3    H217230   1.499   3.491   2.430
 5756TIP3   OH217231   5.192   3.296   4.667
 5756TIP3    H117232   5.158   3.375   4.626
 5756TIP3    H217233   5.285   3.314   4.680
 5757TIP3   OH217234   1.147   4.489   2.310
 5757TIP3    H117235   1.053   4.508   2.308
 5757TIP3    H217236   1.188   4.574   2.324
 5758TIP3   OH217237   4.514   0.593   4.454
 5758TIP3    H117238   4.459   0.519   4.479
 5758TIP3    H217239   4.552   0.569   4.370
 5759TIP3   OH217240   3.626   2.691   0.140
 5759TIP3    H117241   3.577   2.642   0.074
 5759TIP3    H217242   3.559   2.741   0.187
 5760TIP3   OH217243   5.097   5.686   0.329
 5760TIP3    H117244   5.137   5.634   0.399
 5760TIP3    H217245   5.031   5.740   0.373
 5761TIP3   OH217246   6.492   4.087   4.066
 5761TIP3    H117247   6.486   4.159   4.128
 5761TIP3    H217248   6.498   4.129   3.980
 5762TIP3   OH217249   5.238   5.756   1.131
 5762TIP3    H117250   5.246   5.660   1.127
 5762TIP3    H217251   5.308   5.789   1.075
 5763TIP3   OH217252   6.320   3.845   1.835
 5763TIP3    H117253   6.373   3.912   1.792
 5763TIP3    H217254   6.230   3.876   1.825
 5764TIP3   OH217255   3.096   5.572   4.375
 5764TIP3    H117256   3.078   5.639   4.441
 5764TIP3    H217257   3.018   5.516   4.376
 5765TIP3   OH217258   5.148   2.071   4.341
 5765TIP3    H117259   5.084   2.045   4.274
 5765TIP3    H217260   5.100   2.132   4.397
 5766TIP3   OH217261   2.100   2.584   5.478
 5766TIP3    H117262   2.076   2.557   5.566
 5766TIP3    H217263   2.087   2.506   5.424
 5767TIP3   OH217264   4.141   1.001   4.506
 5767TIP3    H117265   4.139   0.942   4.431
 5767TIP3    H217266   4.224   1.048   4.499
 5768TIP3   OH217267  -0.008   6.464   4.537
 5768TIP3    H117268  -0.097   6.453   4.504
 5768TIP3    H217269   0.029   6.376   4.537
 5769TIP3   OH217270   3.166   2.867   4.343
 5769TIP3    H117271   3.215   2.944   4.314
 5769TIP3    H217272   3.138   2.825   4.262
 5770TIP3   OH217273   6.119   3.301   0.887
 5770TIP3    H117274   6.126   3.324   0.979
 5770TIP3    H217275   6.069   3.374   0.849
 5771TIP3   OH217276   3.090   1.087   5.090
 5771TIP3    H117277   3.041   1.151   5.142
 5771TIP3    H217278   3.061   1.002   5.123
 5772TIP3   OH217279   1.772   3.321   2.140
 5772TIP3    H117280   1.838   3.334   2.208
 5772TIP3    H217281   1.803   3.373   2.066
 5773TIP3   OH217282   1.276   2.681   5.655
 5773TIP3    H117283   1.266   2.596   5.611
 5773TIP3    H217284   1.187   2.706   5.679
 5774TIP3   OH217285   2.405   1.986   2.242
 5774TIP3    H117286   2.341   2.054   2.218
 5774TIP3    H217287   2.353   1.906   2.249
 5775TIP3   OH217288   4.332   1.416   0.993
 5775TIP3    H117289   4.325   1.503   0.954
 5775TIP3    H217290   4.324   1.355   0.919
 5776TIP3   OH217291   6.696   6.351   0.514
 5776TIP3    H117292   6.651   6.385   0.437
 5776TIP3    H217293   6.632   6.294   0.556
 5777TIP3   OH217294   0.030   3.764   2.824
 5777TIP3    H117295  -0.013   3.699   2.769
 5777TIP3    H217296   0.050   3.718   2.906
 5778TIP3   OH217297   1.395   3.971   3.991
 5778TIP3    H117298   1.427   4.016   3.912
 5778TIP3    H217299   1.420   3.880   3.978
 5779TIP3   OH217300   3.481   4.835   3.343
 5779TIP3    H117301   3.534   4.824   3.422
 5779TIP3    H217302   3.393   4.807   3.368
 5780TIP3   OH217303   3.274   1.431   1.060
 5780TIP3    H117304   3.185   1.461   1.079
 5780TIP3    H217305   3.281   1.434   0.965
 5781TIP3   OH217306   7.089   5.085   2.580
 5781TIP3    H117307   7.066   4.993   2.569
 5781TIP3    H217308   7.042   5.113   2.657
 5782TIP3   OH217309   2.284   4.105   2.421
 5782TIP3    H117310   2.283   4.134   2.512
 5782TIP3    H217311   2.193   4.110   2.393
 5783TIP3   OH217312   0.361   0.484   0.913
 5783TIP3    H117313   0.331   0.506   0.825
 5783TIP3    H217314   0.336   0.559   0.967
 5784TIP3   OH217315   6.401   0.068   0.848
 5784TIP3    H117316   6.478   0.104   0.893
 5784TIP3    H217317   6.359   0.012   0.914
 5785TIP3   OH217318   1.271   0.857   1.149
 5785TIP3    H117319   1.309   0.922   1.207
 5785TIP3    H217320   1.184   0.892   1.127
 5786TIP3   OH217321   6.149   3.757   3.576
 5786TIP3    H117322   6.183   3.677   3.536
 5786TIP3    H217323   6.133   3.815   3.502
 5787TIP3   OH217324   5.545   2.830   4.286
 5787TIP3    H117325   5.569   2.827   4.193
 5787TIP3    H217326   5.486   2.756   4.297
 5788TIP3   OH217327   0.423   1.482   2.891
 5788TIP3    H117328   0.359   1.510   2.826
 5788TIP3    H217329   0.457   1.564   2.927
 5789TIP3   OH217330   0.063   1.299   1.208
 5789TIP3    H117331   0.145   1.274   1.165
 5789TIP3    H217332   0.055   1.393   1.191
 5790TIP3   OH217333   5.009   5.825   4.923
 5790TIP3    H117334   5.035   5.866   4.841
 5790TIP3    H217335   4.959   5.892   4.969
 5791TIP3   OH217336   1.409   5.510   1.453
 5791TIP3    H117337   1.478   5.456   1.492
 5791TIP3    H217338   1.446   5.598   1.451
 5792TIP3   OH217339   1.517   4.473   3.869
 5792TIP3    H117340   1.471   4.399   3.910
 5792TIP3    H217341   1.609   4.457   3.888
 5793TIP3   OH217342   1.079   6.765   4.105
 5793TIP3    H117343   1.159   6.796   4.146
 5793TIP3    H217344   1.108   6.697   4.043
 5794TIP3   OH217345   5.032   0.357   5.185
 5794TIP3    H117346   5.030   0.400   5.270
 5794TIP3    H217347   5.048   0.427   5.122
 5795TIP3   OH217348   2.136   4.784   3.357
 5795TIP3    H117349   2.111   4.831   3.277
 5795TIP3    H217350   2.210   4.729   3.330
 5796TIP3   OH217351   0.248   5.802   0.942
 5796TIP3    H117352   0.184   5.756   0.888
 5796TIP3    H217353   0.333   5.781   0.902
 5797TIP3   OH217354   2.173   2.882   5.729
 5797TIP3    H117355   2.198   2.811   5.788
 5797TIP3    H217356   2.125   2.839   5.658
 5798TIP3   OH217357   4.149   5.779   2.795
 5798TIP3    H117358   4.131   5.737   2.711
 5798TIP3    H217359   4.141   5.873   2.778
 5799TIP3   OH217360   6.038   2.831   5.401
 5799TIP3    H117361   6.024   2.852   5.494
 5799TIP3    H217362   5.962   2.868   5.357
 5800TIP3   OH217363   5.166   3.566   0.190
 5800TIP3    H117364   5.096   3.541   0.130
 5800TIP3    H217365   5.246   3.534   0.148
 5801TIP3   OH217366   2.438   5.948   4.826
 5801TIP3    H117367   2.407   6.029   4.866
 5801TIP3    H217368   2.435   5.965   4.732
 5802TIP3   OH217369   4.979   5.554   4.488
 5802TIP3    H117370   4.922   5.590   4.556
 5802TIP3    H217371   4.924   5.553   4.410
 5803TIP3   OH217372   4.127   0.315   0.714
 5803TIP3    H117373   4.189   0.340   0.645
 5803TIP3    H217374   4.181   0.281   0.785
 5804TIP3   OH217375   1.961   0.376   2.518
 5804TIP3    H117376   2.051   0.399   2.544
 5804TIP3    H217377   1.967   0.285   2.488
 5805TIP3   OH217378   1.198   5.616   4.239
 5805TIP3    H117379   1.274   5.577   4.283
 5805TIP3    H217380   1.235   5.662   4.164
 5806TIP3   OH217381   3.354   2.464   2.765
 5806TIP3    H117382   3.305   2.531   2.718
 5806TIP3    H217383   3.292   2.432   2.831
 5807TIP3   OH217384   0.022   5.773   4.262
 5807TIP3    H117385  -0.034   5.826   4.204
 5807TIP3    H217386  -0.008   5.795   4.350
 5808TIP3   OH217387   3.339   1.866   2.882
 5808TIP3    H117388   3.299   1.839   2.965
 5808TIP3    H217389   3.363   1.957   2.897
 5809TIP3   OH217390   0.180   5.163   0.685
 5809TIP3    H117391   0.249   5.230   0.687
 5809TIP3    H217392   0.152   5.161   0.593
 5810TIP3   OH217393   6.281   1.851   1.611
 5810TIP3    H117394   6.349   1.804   1.659
 5810TIP3    H217395   6.216   1.784   1.590
 5811TIP3   OH217396   1.966   4.161   3.054
 5811TIP3    H117397   2.057   4.190   3.047
 5811TIP3    H217398   1.967   4.098   3.127
 5812TIP3   OH217399   5.458   6.368   2.764
 5812TIP3    H117400   5.394   6.439   2.761
 5812TIP3    H217401   5.540   6.408   2.734
 5813TIP3   OH217402   2.159   2.105   2.242
 5813TIP3    H117403   2.091   2.150   2.192
 5813TIP3    H217404   2.195   2.173   2.299
 5814TIP3   OH217405   4.557   6.762   2.264
 5814TIP3    H117406   4.620   6.694   2.288
 5814TIP3    H217407   4.480   6.744   2.318
 5815TIP3   OH217408   6.395   5.435   0.674
 5815TIP3    H117409   6.345   5.357   0.647
 5815TIP3    H217410   6.430   5.470   0.592
 5816TIP3   OH217411   7.108   1.507   5.532
 5816TIP3    H117412   7.128   1.568   5.603
 5816TIP3    H217413   7.022   1.535   5.499
 5817TIP3   OH217414   0.901   1.891   3.464
 5817TIP3    H117415   0.885   1.892   3.370
 5817TIP3    H217416   0.837   1.952   3.500
 5818TIP3   OH217417   5.716   3.574   5.398
 5818TIP3    H117418   5.763   3.591   5.317
 5818TIP3    H217419   5.698   3.661   5.434
 5819TIP3   OH217420   4.557   3.103   0.372
 5819TIP3    H117421   4.531   3.012   0.385
 5819TIP3    H217422   4.581   3.134   0.459
 5820TIP3   OH217423   5.207   5.801   3.451
 5820TIP3    H117424   5.160   5.719   3.467
 5820TIP3    H217425   5.144   5.857   3.407
 5821TIP3   OH217426   3.559   1.019   5.293
 5821TIP3    H117427   3.567   0.940   5.240
 5821TIP3    H217428   3.499   1.075   5.243
 5822TIP3   OH217429   1.251   6.080   0.562
 5822TIP3    H117430   1.158   6.063   0.577
 5822TIP3    H217431   1.259   6.175   0.565
 5823TIP3   OH217432   3.986   6.456   4.581
 5823TIP3    H117433   3.892   6.454   4.565
 5823TIP3    H217434   4.023   6.503   4.506
 5824TIP3   OH217435   6.846   3.791   3.075
 5824TIP3    H117436   6.767   3.843   3.057
 5824TIP3    H217437   6.845   3.780   3.170
 5825TIP3   OH217438   4.218   5.157   0.106
 5825TIP3    H117439   4.263   5.212   0.041
 5825TIP3    H217440   4.182   5.084   0.056
 5826TIP3   OH217441   5.981   3.845   2.966
 5826TIP3    H117442   6.008   3.862   2.875
 5826TIP3    H217443   6.030   3.767   2.991
 5827TIP3   OH217444   5.792   6.132   2.130
 5827TIP3    H117445   5.725   6.133   2.199
 5827TIP3    H217446   5.846   6.209   2.148
 5828TIP3   OH217447   1.560   0.527   2.303
 5828TIP3    H117448   1.517   0.593   2.249
 5828TIP3    H217449   1.528   0.444   2.269
 5829TIP3   OH217450   6.069   3.726   4.311
 5829TIP3    H117451   6.119   3.654   4.350
 5829TIP3    H217452   5.981   3.691   4.299
 5830TIP3   OH217453   6.996   3.477   5.844
 5830TIP3    H117454   6.932   3.468   5.915
 5830TIP3    H217455   6.944   3.475   5.764
 5831TIP3   OH217456   5.844   4.504   0.729
 5831TIP3    H117457   5.774   4.462   0.680
 5831TIP3    H217458   5.913   4.520   0.664
 5832TIP3   OH217459   5.621   4.348   1.544
 5832TIP3    H117460   5.555   4.283   1.519
 5832TIP3    H217461   5.675   4.358   1.466
 5833TIP3   OH217462   3.743   2.943   4.345
 5833TIP3    H117463   3.687   2.902   4.410
 5833TIP3    H217464   3.779   2.870   4.295
 5834TIP3   OH217465   3.401   5.214   1.822
 5834TIP3    H117466   3.393   5.148   1.890
 5834TIP3    H217467   3.460   5.176   1.758
 5835TIP3   OH217468   1.507   1.912   0.309
 5835TIP3    H117469   1.502   1.850   0.236
 5835TIP3    H217470   1.416   1.922   0.337
 5836TIP3   OH217471   1.346   3.331   0.277
 5836TIP3    H117472   1.305   3.418   0.279
 5836TIP3    H217473   1.415   3.336   0.344
 5837TIP3   OH217474   6.061   4.476   0.544
 5837TIP3    H117475   6.123   4.439   0.607
 5837TIP3    H217476   6.084   4.569   0.539
 5838TIP3   OH217477   4.545   6.428   5.304
 5838TIP3    H117478   4.517   6.382   5.384
 5838TIP3    H217479   4.547   6.360   5.237
 5839TIP3   OH217480   4.179   6.156   5.858
 5839TIP3    H117481   4.257   6.102   5.849
 5839TIP3    H217482   4.131   6.117   5.932
 5840TIP3   OH217483   5.805   1.033   5.849
 5840TIP3    H117484   5.889   1.063   5.883
 5840TIP3    H217485   5.759   0.998   5.925
 5841TIP3   OH217486   2.682   0.716   3.795
 5841TIP3    H117487   2.634   0.793   3.825
 5841TIP3    H217488   2.673   0.718   3.699
 5842TIP3   OH217489   4.283   0.938   3.583
 5842TIP3    H117490   4.305   1.002   3.651
 5842TIP3    H217491   4.190   0.954   3.565
 5843TIP3   OH217492   5.803   1.477   2.521
 5843TIP3    H117493   5.802   1.572   2.505
 5843TIP3    H217494   5.834   1.469   2.612
 5844TIP3   OH217495   4.977   1.003   1.346
 5844TIP3    H117496   5.035   0.933   1.374
 5844TIP3    H217497   5.034   1.063   1.298
 5845TIP3   OH217498   6.662  -0.022   3.273
 5845TIP3    H117499   6.736   0.037   3.283
 5845TIP3    H217500   6.619  -0.020   3.358
 5846TIP3   OH217501   4.242   3.058   1.517
 5846TIP3    H117502   4.330   3.060   1.554
 5846TIP3    H217503   4.197   2.989   1.565
 5847TIP3   OH217504   1.703   2.947   3.219
 5847TIP3    H117505   1.621   2.996   3.219
 5847TIP3    H217506   1.713   2.918   3.128
 5848TIP3   OH217507   6.430   2.681   3.984
 5848TIP3    H117508   6.516   2.701   3.948
 5848TIP3    H217509   6.444   2.678   4.079
 5849TIP3   OH217510   1.658   4.004   2.082
 5849TIP3    H117511   1.614   3.981   2.164
 5849TIP3    H217512   1.664   4.099   2.084
 5850TIP3   OH217513   2.104   3.666   4.504
 5850TIP3    H117514   2.083   3.751   4.467
 5850TIP3    H217515   2.033   3.648   4.566
 5851TIP3   OH217516   3.830   3.286   3.425
 5851TIP3    H117517   3.806   3.274   3.333
 5851TIP3    H217518   3.894   3.217   3.442
 5852TIP3   OH217519   1.613   1.730   2.509
 5852TIP3    H117520   1.653   1.732   2.596
 5852TIP3    H217521   1.667   1.790   2.457
 5853TIP3   OH217522   5.694   5.918   0.828
 5853TIP3    H117523   5.789   5.925   0.825
 5853TIP3    H217524   5.663   6.009   0.824
 5854TIP3   OH217525   2.263   1.591   0.171
 5854TIP3    H117526   2.281   1.684   0.165
 5854TIP3    H217527   2.309   1.562   0.250
 5855TIP3   OH217528   2.611   0.559   4.264
 5855TIP3    H117529   2.597   0.538   4.172
 5855TIP3    H217530   2.540   0.513   4.310
 5856TIP3   OH217531   3.903   6.677   4.356
 5856TIP3    H117532   3.831   6.617   4.337
 5856TIP3    H217533   3.882   6.756   4.306
 5857TIP3   OH217534   1.217   1.996   2.269
 5857TIP3    H117535   1.258   1.950   2.342
 5857TIP3    H217536   1.183   2.077   2.308
 5858TIP3   OH217537   3.714   2.282   2.673
 5858TIP3    H117538   3.760   2.359   2.706
 5858TIP3    H217539   3.651   2.317   2.609
 5859TIP3   OH217540   2.372   3.626   5.602
 5859TIP3    H117541   2.286   3.608   5.639
 5859TIP3    H217542   2.390   3.551   5.546
 5860TIP3   OH217543   3.083   1.925   5.468
 5860TIP3    H117544   2.996   1.965   5.468
 5860TIP3    H217545   3.074   1.849   5.410
 5861TIP3   OH217546   4.295   1.984   2.271
 5861TIP3    H117547   4.320   2.065   2.316
 5861TIP3    H217548   4.224   2.010   2.212
 5862TIP3   OH217549   2.137   1.524   4.058
 5862TIP3    H117550   2.081   1.601   4.047
 5862TIP3    H217551   2.208   1.537   3.994
 5863TIP3   OH217552   5.048   6.353   3.621
 5863TIP3    H117553   5.123   6.303   3.655
 5863TIP3    H217554   5.086   6.411   3.555
 5864TIP3   OH217555   3.972   0.599   4.268
 5864TIP3    H117556   3.978   0.508   4.236
 5864TIP3    H217557   3.980   0.592   4.363
 5865TIP3   OH217558   4.565   0.947   4.919
 5865TIP3    H117559   4.474   0.923   4.939
 5865TIP3    H217560   4.611   0.937   5.002
 5866TIP3   OH217561   2.016   4.741   0.069
 5866TIP3    H117562   1.970   4.679   0.125
 5866TIP3    H217563   2.059   4.801   0.129
 5867TIP3   OH217564   4.647   2.498   4.263
 5867TIP3    H117565   4.652   2.593   4.262
 5867TIP3    H217566   4.582   2.476   4.196
 5868TIP3   OH217567   3.682   0.374   2.693
 5868TIP3    H117568   3.689   0.307   2.760
 5868TIP3    H217569   3.715   0.333   2.613
 5869TIP3   OH217570   6.183   6.404   1.282
 5869TIP3    H117571   6.143   6.386   1.367
 5869TIP3    H217572   6.273   6.373   1.290
 5870TIP3   OH217573   5.562   4.292   3.886
 5870TIP3    H117574   5.522   4.377   3.906
 5870TIP3    H217575   5.601   4.263   3.968
 5871TIP3   OH217576   6.196   6.714   2.149
 5871TIP3    H117577   6.104   6.692   2.159
 5871TIP3    H217578   6.210   6.717   2.054
 5872TIP3   OH217579   0.288   4.218   1.027
 5872TIP3    H117580   0.347   4.182   1.092
 5872TIP3    H217581   0.314   4.310   1.018
 5873TIP3   OH217582   1.050   4.378   1.272
 5873TIP3    H117583   1.116   4.334   1.325
 5873TIP3    H217584   1.023   4.313   1.207
 5874TIP3   OH217585   6.246   5.428   1.466
 5874TIP3    H117586   6.336   5.426   1.497
 5874TIP3    H217587   6.200   5.483   1.529
 5875TIP3   OH217588   2.428   2.035   4.463
 5875TIP3    H117589   2.366   1.967   4.437
 5875TIP3    H217590   2.511   1.989   4.477
 5876TIP3   OH217591   2.733   6.590   3.458
 5876TIP3    H117592   2.686   6.550   3.385
 5876TIP3    H217593   2.784   6.518   3.497
 5877TIP3   OH217594   0.103   4.467   1.298
 5877TIP3    H117595   0.030   4.528   1.304
 5877TIP3    H217596   0.085   4.415   1.220
 5878TIP3   OH217597   6.227   1.076   1.753
 5878TIP3    H117598   6.221   1.171   1.738
 5878TIP3    H217599   6.239   1.039   1.666
 5879TIP3   OH217600   3.733   6.532   1.486
 5879TIP3    H117601   3.702   6.607   1.436
 5879TIP3    H217602   3.781   6.569   1.560
 5880TIP3   OH217603   4.864   2.424   2.545
 5880TIP3    H117604   4.924   2.470   2.603
 5880TIP3    H217605   4.920   2.368   2.491
 5881TIP3   OH217606   1.586   2.271   0.887
 5881TIP3    H117607   1.673   2.308   0.898
 5881TIP3    H217608   1.529   2.347   0.871
 5882TIP3   OH217609   6.220   3.330   0.526
 5882TIP3    H117610   6.190   3.253   0.574
 5882TIP3    H217611   6.290   3.297   0.469
 5883TIP3   OH217612   4.207   6.288   4.518
 5883TIP3    H117613   4.193   6.198   4.489
 5883TIP3    H217614   4.121   6.318   4.547
 5884TIP3   OH217615   4.012   3.255   1.452
 5884TIP3    H117616   4.079   3.202   1.495
 5884TIP3    H217617   3.953   3.192   1.413
 5885TIP3   OH217618   6.028   0.074   0.904
 5885TIP3    H117619   6.064   0.059   0.992
 5885TIP3    H217620   5.938   0.101   0.919
 5886TIP3   OH217621   2.810   1.521   3.095
 5886TIP3    H117622   2.870   1.447   3.084
 5886TIP3    H217623   2.817   1.570   3.013
 5887TIP3   OH217624   0.485   5.882   4.056
 5887TIP3    H117625   0.466   5.859   3.965
 5887TIP3    H217626   0.580   5.885   4.061
 5888TIP3   OH217627   3.837   6.281   2.028
 5888TIP3    H117628   3.763   6.241   2.074
 5888TIP3    H217629   3.853   6.223   1.954
 5889TIP3   OH217630   5.821   2.825   3.886
 5889TIP3    H117631   5.794   2.842   3.796
 5889TIP3    H217632   5.829   2.730   3.892
 5890TIP3   OH217633   4.073   3.805   0.314
 5890TIP3    H117634   4.000   3.845   0.361
 5890TIP3    H217635   4.088   3.864   0.240
 5891TIP3   OH217636   0.033   1.920   0.399
 5891TIP3    H117637   0.127   1.936   0.411
 5891TIP3    H217638  -0.007   2.006   0.406
 5892TIP3   OH217639   1.161   1.138   1.565
 5892TIP3    H117640   1.145   1.191   1.644
 5892TIP3    H217641   1.237   1.085   1.587
 5893TIP3   OH217642   0.899   1.902   3.142
 5893TIP3    H117643   0.981   1.951   3.134
 5893TIP3    H217644   0.897   1.845   3.065
 5894TIP3   OH217645   1.031   0.180   2.013
 5894TIP3    H117646   0.994   0.109   2.065
 5894TIP3    H217647   0.987   0.173   1.928
 5895TIP3   OH217648   5.148   3.364   2.322
 5895TIP3    H117649   5.168   3.450   2.285
 5895TIP3    H217650   5.181   3.368   2.411
 5896TIP3   OH217651   6.933   0.207   3.596
 5896TIP3    H117652   6.966   0.154   3.523
 5896TIP3    H217653   6.868   0.151   3.639
 5897TIP3   OH217654   5.174   2.766   4.994
 5897TIP3    H117655   5.104   2.773   4.929
 5897TIP3    H217656   5.138   2.710   5.062
 5898TIP3   OH217657   6.614   5.997   2.941
 5898TIP3    H117658   6.541   6.024   2.885
 5898TIP3    H217659   6.581   5.920   2.988
 5899TIP3   OH217660   6.637   1.221   1.859
 5899TIP3    H117661   6.646   1.128   1.878
 5899TIP3    H217662   6.542   1.236   1.856
 5900TIP3   OH217663   1.480   0.281   2.961
 5900TIP3    H117664   1.433   0.220   3.017
 5900TIP3    H217665   1.412   0.323   2.908
 5901TIP3   OH217666   2.986   3.464   5.155
 5901TIP3    H117667   2.929   3.391   5.130
 5901TIP3    H217668   3.069   3.447   5.111
 5902TIP3   OH217669   0.573   2.091   0.071
 5902TIP3    H117670   0.569   2.139  -0.012
 5902TIP3    H217671   0.599   2.157   0.135
 5903TIP3   OH217672   1.623   2.547   1.881
 5903TIP3    H117673   1.691   2.480   1.894
 5903TIP3    H217674   1.595   2.569   1.970
 5904TIP3   OH217675   5.099   5.618   5.080
 5904TIP3    H117676   5.078   5.684   5.013
 5904TIP3    H217677   5.195   5.617   5.083
 5905TIP3   OH217678   5.144   5.136   1.423
 5905TIP3    H117679   5.075   5.069   1.419
 5905TIP3    H217680   5.158   5.150   1.516
 5906TIP3   OH217681   3.631   5.304   2.460
 5906TIP3    H117682   3.547   5.259   2.454
 5906TIP3    H217683   3.609   5.396   2.467
 5907TIP3   OH217684   4.118   3.876   2.880
 5907TIP3    H117685   4.100   3.793   2.923
 5907TIP3    H217686   4.208   3.896   2.904
 5908TIP3   OH217687   1.356   4.751   1.530
 5908TIP3    H117688   1.298   4.724   1.459
 5908TIP3    H217689   1.419   4.810   1.488
 5909TIP3   OH217690   1.359   5.187   3.671
 5909TIP3    H117691   1.282   5.177   3.615
 5909TIP3    H217692   1.340   5.131   3.747
 5910TIP3   OH217693   6.342   5.862   3.729
 5910TIP3    H117694   6.262   5.884   3.777
 5910TIP3    H217695   6.413   5.892   3.786
 5911TIP3   OH217696   6.447   6.004   0.527
 5911TIP3    H117697   6.486   5.991   0.441
 5911TIP3    H217698   6.520   5.994   0.589
 5912TIP3   OH217699   6.439   5.665   1.377
 5912TIP3    H117700   6.378   5.628   1.312
 5912TIP3    H217701   6.411   5.757   1.385
 5913TIP3   OH217702   5.451   3.227   4.456
 5913TIP3    H117703   5.502   3.190   4.384
 5913TIP3    H217704   5.516   3.269   4.513
 5914TIP3   OH217705   5.966   1.672   0.300
 5914TIP3    H117706   5.921   1.637   0.376
 5914TIP3    H217707   5.901   1.670   0.230
 5915TIP3   OH217708   0.641   1.843   2.103
 5915TIP3    H117709   0.559   1.799   2.080
 5915TIP3    H217710   0.633   1.931   2.065
 5916TIP3   OH217711   6.489   3.439   2.497
 5916TIP3    H117712   6.491   3.387   2.577
 5916TIP3    H217713   6.562   3.406   2.445
 5917TIP3   OH217714   5.793   2.330   2.860
 5917TIP3    H117715   5.797   2.390   2.786
 5917TIP3    H217716   5.723   2.268   2.838
 5918TIP3   OH217717   3.975   2.121   3.734
 5918TIP3    H117718   4.068   2.104   3.716
 5918TIP3    H217719   3.928   2.053   3.687
 5919TIP3   OH217720   0.571   1.226   4.343
 5919TIP3    H117721   0.666   1.233   4.336
 5919TIP3    H217722   0.556   1.181   4.426
 5920TIP3   OH217723   1.459   5.908   0.056
 5920TIP3    H117724   1.463   5.813   0.044
 5920TIP3    H217725   1.544   5.939   0.024
 5921TIP3   OH217726   4.582   1.318   1.488
 5921TIP3    H117727   4.633   1.399   1.482
 5921TIP3    H217728   4.645   1.252   1.517
 5922TIP3   OH217729   3.906   2.327   1.064
 5922TIP3    H117730   3.952   2.287   1.138
 5922TIP3    H217731   3.970   2.327   0.993
 5923TIP3   OH217732   1.075   5.454   1.950
 5923TIP3    H117733   1.057   5.435   1.858
 5923TIP3    H217734   1.149   5.398   1.972
 5924TIP3   OH217735   2.058   1.380   0.093
 5924TIP3    H117736   2.086   1.325   0.166
 5924TIP3    H217737   2.126   1.448   0.087
 5925TIP3   OH217738   0.191   3.558   2.005
 5925TIP3    H117739   0.186   3.462   2.012
 5925TIP3    H217740   0.224   3.574   1.917
 5926TIP3   OH217741   5.890   6.239   1.477
 5926TIP3    H117742   5.916   6.148   1.493
 5926TIP3    H217743   5.797   6.234   1.456
 5927TIP3   OH217744   0.197   0.731   0.334
 5927TIP3    H117745   0.273   0.788   0.347
 5927TIP3    H217746   0.131   0.788   0.294
 5928TIP3   OH217747   5.790   3.215   1.818
 5928TIP3    H117748   5.821   3.296   1.857
 5928TIP3    H217749   5.748   3.243   1.736
 5929TIP3   OH217750   4.130   3.490   3.708
 5929TIP3    H117751   4.040   3.507   3.681
 5929TIP3    H217752   4.180   3.565   3.675
 5930TIP3   OH217753   1.938   2.001   2.688
 5930TIP3    H117754   1.885   1.927   2.717
 5930TIP3    H217755   1.936   1.996   2.592
 5931TIP3   OH217756   4.509   4.873   0.667
 5931TIP3    H117757   4.469   4.786   0.661
 5931TIP3    H217758   4.456   4.918   0.732
 5932TIP3   OH217759   5.750   6.324   4.426
 5932TIP3    H117760   5.785   6.242   4.390
 5932TIP3    H217761   5.662   6.301   4.456
 5933TIP3   OH217762   5.462   2.870   0.507
 5933TIP3    H117763   5.540   2.923   0.492
 5933TIP3    H217764   5.415   2.873   0.424
 5934TIP3   OH217765   7.147   0.624   0.304
 5934TIP3    H117766   7.166   0.571   0.227
 5934TIP3    H217767   7.173   0.713   0.280
 5935TIP3   OH217768   1.348   0.415   4.001
 5935TIP3    H117769   1.319   0.472   4.072
 5935TIP3    H217770   1.339   0.469   3.922
 5936TIP3   OH217771   1.019   3.650   3.486
 5936TIP3    H117772   1.015   3.704   3.408
 5936TIP3    H217773   0.928   3.642   3.514
 5937TIP3   OH217774   5.968   1.904   1.987
 5937TIP3    H117775   5.899   1.873   2.047
 5937TIP3    H217776   5.920   1.944   1.915
 5938TIP3   OH217777   6.524   3.790   2.215
 5938TIP3    H117778   6.548   3.798   2.307
 5938TIP3    H217779   6.456   3.856   2.202
 5939TIP3   OH217780   0.095   4.001   1.598
 5939TIP3    H117781   0.067   4.035   1.513
 5939TIP3    H217782   0.086   4.076   1.658
 5940TIP3   OH217783   4.513   2.471   2.400
 5940TIP3    H117784   4.444   2.537   2.393
 5940TIP3    H217785   4.594   2.521   2.400
 5941TIP3   OH217786   6.140   2.410   3.462
 5941TIP3    H117787   6.219   2.362   3.488
 5941TIP3    H217788   6.169   2.501   3.455
 5942TIP3   OH217789   3.705   2.196   2.210
 5942TIP3    H117790   3.611   2.181   2.201
 5942TIP3    H217791   3.720   2.284   2.176
 5943TIP3   OH217792   6.177   2.254   5.757
 5943TIP3    H117793   6.152   2.196   5.830
 5943TIP3    H217794   6.107   2.319   5.753
 5944TIP3   OH217795   6.077   6.664   0.083
 5944TIP3    H117796   6.077   6.721   0.160
 5944TIP3    H217797   5.985   6.656   0.059
 5945TIP3   OH217798   4.800   3.944   3.763
 5945TIP3    H117799   4.722   3.994   3.740
 5945TIP3    H217800   4.821   3.895   3.683
 5946TIP3   OH217801   1.530   6.269   0.428
 5946TIP3    H117802   1.577   6.311   0.356
 5946TIP3    H217803   1.473   6.205   0.384
 5947TIP3   OH217804   7.133   2.192   1.085
 5947TIP3    H117805   7.133   2.239   1.168
 5947TIP3    H217806   7.087   2.110   1.103
 5948TIP3   OH217807   3.251   3.656   0.980
 5948TIP3    H117808   3.232   3.563   0.984
 5948TIP3    H217809   3.211   3.685   0.898
 5949TIP3   OH217810   2.582   5.740   3.473
 5949TIP3    H117811   2.649   5.808   3.466
 5949TIP3    H217812   2.501   5.788   3.491
 5950TIP3   OH217813   0.960   4.149   4.520
 5950TIP3    H117814   1.049   4.180   4.504
 5950TIP3    H217815   0.934   4.189   4.603
 5951TIP3   OH217816   2.495   3.902   1.924
 5951TIP3    H117817   2.582   3.942   1.914
 5951TIP3    H217818   2.450   3.958   1.986
 5952TIP3   OH217819   4.646   3.478   4.217
 5952TIP3    H117820   4.697   3.513   4.145
 5952TIP3    H217821   4.628   3.387   4.193
 5953TIP3   OH217822   2.933   2.527   2.948
 5953TIP3    H117823   3.010   2.470   2.957
 5953TIP3    H217824   2.884   2.489   2.874
 5954TIP3   OH217825   5.145   2.601   1.757
 5954TIP3    H117826   5.106   2.562   1.835
 5954TIP3    H217827   5.101   2.557   1.684
 5955TIP3   OH217828   6.074   1.302   0.949
 5955TIP3    H117829   6.112   1.307   0.861
 5955TIP3    H217830   6.108   1.220   0.985
 5956TIP3   OH217831   0.481   5.825   2.845
 5956TIP3    H117832   0.547   5.760   2.822
 5956TIP3    H217833   0.402   5.795   2.800
 5957TIP3   OH217834   4.717   0.723   2.431
 5957TIP3    H117835   4.772   0.720   2.353
 5957TIP3    H217836   4.628   0.710   2.399
 5958TIP3   OH217837   2.272   1.431   4.826
 5958TIP3    H117838   2.282   1.508   4.770
 5958TIP3    H217839   2.361   1.411   4.855
 5959TIP3   OH217840   6.381   0.934   2.158
 5959TIP3    H117841   6.350   0.916   2.247
 5959TIP3    H217842   6.336   0.870   2.104
 5960TIP3   OH217843   2.309   4.959   1.408
 5960TIP3    H117844   2.259   5.027   1.363
 5960TIP3    H217845   2.289   4.879   1.359
 5961TIP3   OH217846   2.232   4.471   4.696
 5961TIP3    H117847   2.233   4.386   4.741
 5961TIP3    H217848   2.323   4.501   4.700
 5962TIP3   OH217849   1.983   4.717   3.559
 5962TIP3    H117850   2.004   4.634   3.603
 5962TIP3    H217851   2.046   4.723   3.488
 5963TIP3   OH217852   5.938   1.983   3.051
 5963TIP3    H117853   5.986   2.063   3.072
 5963TIP3    H217854   5.847   2.003   3.073
 5964TIP3   OH217855   5.991   3.948   1.134
 5964TIP3    H117856   5.996   3.862   1.175
 5964TIP3    H217857   5.910   3.945   1.083
 5965TIP3   OH217858   2.786   3.504   2.943
 5965TIP3    H117859   2.815   3.502   2.851
 5965TIP3    H217860   2.797   3.414   2.973
 5966TIP3   OH217861   0.771   5.440   2.346
 5966TIP3    H117862   0.813   5.365   2.305
 5966TIP3    H217863   0.754   5.412   2.436
 5967TIP3   OH217864   2.951   2.953   1.554
 5967TIP3    H117865   2.904   2.960   1.637
 5967TIP3    H217866   3.020   3.019   1.560
 5968TIP3   OH217867   6.097   4.178   3.985
 5968TIP3    H117868   6.163   4.229   4.031
 5968TIP3    H217869   6.070   4.234   3.911
 5969TIP3   OH217870   3.956   5.298   4.995
 5969TIP3    H117871   3.942   5.284   5.089
 5969TIP3    H217872   3.952   5.210   4.958
 5970TIP3   OH217873   6.699   4.224   0.017
 5970TIP3    H117874   6.643   4.297  -0.008
 5970TIP3    H217875   6.715   4.237   0.110
 5971TIP3   OH217876   2.967   2.651   1.031
 5971TIP3    H117877   2.917   2.664   1.111
 5971TIP3    H217878   2.901   2.644   0.962
 5972TIP3   OH217879   0.227   2.218   0.754
 5972TIP3    H117880   0.206   2.125   0.760
 5972TIP3    H217881   0.316   2.221   0.719
 5973TIP3   OH217882   0.493   4.377   3.649
 5973TIP3    H117883   0.549   4.452   3.667
 5973TIP3    H217884   0.552   4.302   3.647
 5974TIP3   OH217885   5.397   2.632   1.724
 5974TIP3    H117886   5.302   2.632   1.731
 5974TIP3    H217887   5.414   2.678   1.641
 5975TIP3   OH217888   0.924   0.563   3.347
 5975TIP3    H117889   0.985   0.636   3.345
 5975TIP3    H217890   0.854   0.588   3.287
 5976TIP3   OH217891   2.829   3.773   5.472
 5976TIP3    H117892   2.899   3.739   5.415
 5976TIP3    H217893   2.753   3.718   5.451
 5977TIP3   OH217894   2.525   4.750   3.047
 5977TIP3    H117895   2.611   4.761   3.088
 5977TIP3    H217896   2.506   4.835   3.008
 5978TIP3   OH217897   6.939   3.492   2.180
 5978TIP3    H117898   6.947   3.422   2.114
 5978TIP3    H217899   6.976   3.454   2.259
 5979TIP3   OH217900   6.127   0.272   2.998
 5979TIP3    H117901   6.042   0.243   2.965
 5979TIP3    H217902   6.167   0.192   3.033
 5980TIP3   OH217903   1.619   5.847   5.673
 5980TIP3    H117904   1.538   5.809   5.709
 5980TIP3    H217905   1.590   5.893   5.594
 5981TIP3   OH217906   0.890   0.126   1.520
 5981TIP3    H117907   0.849   0.046   1.487
 5981TIP3    H217908   0.867   0.128   1.613
 5982TIP3   OH217909   2.908   5.923   2.549
 5982TIP3    H117910   2.882   5.883   2.466
 5982TIP3    H217911   2.933   5.849   2.604
 5983TIP3   OH217912   0.551   3.257   5.814
 5983TIP3    H117913   0.635   3.216   5.836
 5983TIP3    H217914   0.500   3.251   5.894
 5984TIP3   OH217915   4.377   4.481   4.663
 5984TIP3    H117916   4.382   4.572   4.692
 5984TIP3    H217917   4.326   4.485   4.582
 5985TIP3   OH217918   7.127   1.608   3.954
 5985TIP3    H117919   7.146   1.517   3.934
 5985TIP3    H217920   7.213   1.648   3.966
 5986TIP3   OH217921   2.150   5.304   5.077
 5986TIP3    H117922   2.210   5.366   5.036
 5986TIP3    H217923   2.107   5.355   5.146
 5987TIP3   OH217924   5.701   0.343   1.630
 5987TIP3    H117925   5.733   0.259   1.664
 5987TIP3    H217926   5.764   0.366   1.562
 5988TIP3   OH217927   4.852   3.599   0.335
 5988TIP3    H117928   4.944   3.573   0.337
 5988TIP3    H217929   4.842   3.649   0.254
 5989TIP3   OH217930   2.236   6.359   0.759
 5989TIP3    H117931   2.276   6.352   0.846
 5989TIP3    H217932   2.248   6.272   0.720
 5990TIP3   OH217933   3.806   5.452   3.601
 5990TIP3    H117934   3.832   5.450   3.693
 5990TIP3    H217935   3.711   5.457   3.604
 5991TIP3   OH217936   4.022   5.617   4.329
 5991TIP3    H117937   4.039   5.523   4.322
 5991TIP3    H217938   4.015   5.633   4.424
 5992TIP3   OH217939   1.003   0.648   0.358
 5992TIP3    H117940   1.003   0.554   0.377
 5992TIP3    H217941   1.092   0.676   0.379
 5993TIP3   OH217942   6.394   3.094   2.525
 5993TIP3    H117943   6.463   3.029   2.545
 5993TIP3    H217944   6.418   3.170   2.578
 5994TIP3   OH217945   4.624   0.532   5.596
 5994TIP3    H117946   4.694   0.581   5.639
 5994TIP3    H217947   4.639   0.441   5.622
 5995TIP3   OH217948   4.389   1.496   4.407
 5995TIP3    H117949   4.375   1.585   4.438
 5995TIP3    H217950   4.309   1.474   4.359
 5996TIP3   OH217951   6.637   3.774   4.442
 5996TIP3    H117952   6.650   3.763   4.348
 5996TIP3    H217953   6.702   3.839   4.468
 5997TIP3   OH217954   3.114   5.709   5.441
 5997TIP3    H117955   3.127   5.800   5.467
 5997TIP3    H217956   3.198   5.681   5.405
 5998TIP3   OH217957   6.278   5.639   1.163
 5998TIP3    H117958   6.237   5.683   1.089
 5998TIP3    H217959   6.275   5.546   1.140
 5999TIP3   OH217960   1.516   1.292   5.317
 5999TIP3    H117961   1.576   1.354   5.359
 5999TIP3    H217962   1.537   1.299   5.223
 6000TIP3   OH217963   3.321   4.496   4.283
 6000TIP3    H117964   3.282   4.447   4.211
 6000TIP3    H217965   3.408   4.520   4.252
 6001TIP3   OH217966   5.953   2.568   3.139
 6001TIP3    H117967   5.931   2.654   3.105
 6001TIP3    H217968   5.995   2.523   3.065
 6002TIP3   OH217969   6.722   0.411   2.235
 6002TIP3    H117970   6.661   0.444   2.301
 6002TIP3    H217971   6.694   0.454   2.154
 6003TIP3   OH217972   3.950   4.259   0.094
 6003TIP3    H117973   3.893   4.182   0.083
 6003TIP3    H217974   3.938   4.308   0.013
 6004TIP3   OH217975   5.170   0.828   2.063
 6004TIP3    H117976   5.150   0.884   2.138
 6004TIP3    H217977   5.266   0.820   2.064
 6005TIP3   OH217978   0.560   1.494   5.134
 6005TIP3    H117979   0.481   1.507   5.082
 6005TIP3    H217980   0.553   1.404   5.166
 6006TIP3   OH217981   4.905   2.686   1.270
 6006TIP3    H117982   4.821   2.730   1.259
 6006TIP3    H217983   4.963   2.753   1.308
 6007TIP3   OH217984   1.929   5.083   5.058
 6007TIP3    H117985   1.984   5.091   5.136
 6007TIP3    H217986   1.988   5.102   4.985
 6008TIP3   OH217987   6.603   6.619   0.186
 6008TIP3    H117988   6.543   6.569   0.241
 6008TIP3    H217989   6.592   6.582   0.098
 6009TIP3   OH217990   1.193   2.902   3.579
 6009TIP3    H117991   1.285   2.886   3.556
 6009TIP3    H217992   1.145   2.830   3.537
 6010TIP3   OH217993   4.704   5.364   1.568
 6010TIP3    H117994   4.639   5.299   1.543
 6010TIP3    H217995   4.656   5.426   1.623
 6011TIP3   OH217996   2.616   3.987   3.213
 6011TIP3    H117997   2.622   3.941   3.129
 6011TIP3    H217998   2.591   3.919   3.275
 6012TIP3   OH217999   7.062   5.456   5.760
 6012TIP3    H118000   7.130   5.484   5.699
 6012TIP3    H218001   6.983   5.500   5.730
 6013TIP3   OH218002   0.416   5.517   1.554
 6013TIP3    H118003   0.407   5.423   1.535
 6013TIP3    H218004   0.506   5.527   1.585
 6014TIP3   OH218005   6.784   0.136   4.662
 6014TIP3    H118006   6.752   0.226   4.656
 6014TIP3    H218007   6.793   0.108   4.570
 6015TIP3   OH218008   6.572   4.256   3.838
 6015TIP3    H118009   6.489   4.282   3.797
 6015TIP3    H218010   6.636   4.261   3.767
 6016TIP3   OH218011   3.548   1.382   1.784
 6016TIP3    H118012   3.536   1.366   1.691
 6016TIP3    H218013   3.626   1.331   1.807
 6017TIP3   OH218014   5.752   3.914   2.685
 6017TIP3    H118015   5.738   3.969   2.763
 6017TIP3    H218016   5.755   3.977   2.612
 6018TIP3   OH218017   5.470   0.133   5.751
 6018TIP3    H118018   5.520   0.080   5.688
 6018TIP3    H218019   5.488   0.223   5.726
 6019TIP3   OH218020   4.083   2.890   2.658
 6019TIP3    H118021   3.994   2.924   2.667
 6019TIP3    H218022   4.117   2.889   2.747
 6020TIP3   OH218023   4.292   5.621   1.837
 6020TIP3    H118024   4.288   5.529   1.812
 6020TIP3    H218025   4.260   5.668   1.761
 6021TIP3   OH218026   3.455   3.590   0.810
 6021TIP3    H118027   3.418   3.611   0.724
 6021TIP3    H218028   3.382   3.602   0.870
 6022TIP3   OH218029   3.528   6.474   4.167
 6022TIP3    H118030   3.567   6.456   4.253
 6022TIP3    H218031   3.592   6.441   4.105
 6023TIP3   OH218032   4.071   1.307   3.002
 6023TIP3    H118033   4.026   1.261   3.073
 6023TIP3    H218034   4.158   1.326   3.037
 6024TIP3   OH218035   1.130   1.552   3.790
 6024TIP3    H118036   1.130   1.617   3.860
 6024TIP3    H218037   1.042   1.557   3.753
 6025TIP3   OH218038   2.815   1.950   5.466
 6025TIP3    H118039   2.734   1.994   5.493
 6025TIP3    H218040   2.796   1.857   5.473
 6026TIP3   OH218041   0.532   3.821   1.494
 6026TIP3    H118042   0.552   3.743   1.546
 6026TIP3    H218043   0.473   3.872   1.550
 6027TIP3   OH218044   3.788   6.086   2.484
 6027TIP3    H118045   3.771   6.060   2.394
 6027TIP3    H218046   3.882   6.105   2.487
 6028TIP3   OH218047   6.012   2.322   0.517
 6028TIP3    H118048   6.026   2.329   0.612
 6028TIP3    H218049   6.058   2.398   0.481
 6029TIP3   OH218050   4.809   5.895   2.084
 6029TIP3    H118051   4.881   5.839   2.113
 6029TIP3    H218052   4.750   5.836   2.038
 6030TIP3   OH218053   6.326   2.457   3.834
 6030TIP3    H118054   6.386   2.458   3.759
 6030TIP3    H218055   6.363   2.519   3.896
 6031TIP3   OH218056   5.165   3.137   2.992
 6031TIP3    H118057   5.101   3.099   3.053
 6031TIP3    H218058   5.159   3.082   2.915
 6032TIP3   OH218059   5.144   5.435   1.966
 6032TIP3    H118060   5.127   5.420   2.059
 6032TIP3    H218061   5.176   5.351   1.933
 6033TIP3   OH218062   4.554   1.134   5.500
 6033TIP3    H118063   4.551   1.039   5.504
 6033TIP3    H218064   4.534   1.154   5.408
 6034TIP3   OH218065   0.835   2.904   3.492
 6034TIP3    H118066   0.799   2.815   3.500
 6034TIP3    H218067   0.876   2.905   3.406
 6035TIP3   OH218068   6.551   0.230   3.689
 6035TIP3    H118069   6.583   0.198   3.774
 6035TIP3    H218070   6.601   0.309   3.672
 6036TIP3   OH218071   1.000   2.930   0.137
 6036TIP3    H118072   1.016   3.023   0.120
 6036TIP3    H218073   1.069   2.885   0.088
 6037TIP3   OH218074   6.255   2.906   1.647
 6037TIP3    H118075   6.231   2.910   1.554
 6037TIP3    H218076   6.310   2.983   1.661
 6038TIP3   OH218077   4.600   2.721   3.694
 6038TIP3    H118078   4.661   2.687   3.760
 6038TIP3    H218079   4.654   2.769   3.632
 6039TIP3   OH218080   2.449   2.885   3.895
 6039TIP3    H118081   2.463   2.918   3.984
 6039TIP3    H218082   2.459   2.790   3.902
 6040TIP3   OH218083   6.042   6.437   1.001
 6040TIP3    H118084   6.014   6.525   1.026
 6040TIP3    H218085   6.120   6.421   1.054
 6041TIP3   OH218086   4.650   5.987   1.382
 6041TIP3    H118087   4.724   6.045   1.398
 6041TIP3    H218088   4.589   6.039   1.329
 6042TIP3   OH218089   0.127   4.760   4.133
 6042TIP3    H118090   0.196   4.694   4.128
 6042TIP3    H218091   0.163   4.828   4.190
 6043TIP3   OH218092   3.261   1.832   4.444
 6043TIP3    H118093   3.215   1.900   4.393
 6043TIP3    H218094   3.313   1.881   4.507
 6044TIP3   OH218095   0.034   5.170   1.064
 6044TIP3    H118096   0.105   5.148   1.124
 6044TIP3    H218097   0.012   5.088   1.020
 6045TIP3   OH218098   1.522   6.563   4.123
 6045TIP3    H118099   1.459   6.581   4.192
 6045TIP3    H218100   1.596   6.621   4.143
 6046TIP3   OH218101   3.405   2.200   0.505
 6046TIP3    H118102   3.492   2.236   0.489
 6046TIP3    H218103   3.410   2.162   0.593
 6047TIP3   OH218104   6.524   6.133   2.726
 6047TIP3    H118105   6.535   6.094   2.640
 6047TIP3    H218106   6.548   6.225   2.714
 6048TIP3   OH218107   4.796   2.602   4.700
 6048TIP3    H118108   4.794   2.516   4.658
 6048TIP3    H218109   4.812   2.663   4.628
 6049TIP3   OH218110   3.761   3.141   3.753
 6049TIP3    H118111   3.697   3.204   3.722
 6049TIP3    H218112   3.755   3.146   3.848
 6050TIP3   OH218113   6.554   2.739   5.227
 6050TIP3    H118114   6.618   2.790   5.276
 6050TIP3    H218115   6.581   2.747   5.135
 6051TIP3   OH218116   3.991   1.949   4.279
 6051TIP3    H118117   3.922   1.897   4.319
 6051TIP3    H218118   3.946   2.001   4.212
 6052TIP3   OH218119   2.814   1.345   4.631
 6052TIP3    H118120   2.827   1.254   4.608
 6052TIP3    H218121   2.870   1.359   4.708
 6053TIP3   OH218122   4.262   5.038   2.384
 6053TIP3    H118123   4.338   4.980   2.386
 6053TIP3    H218124   4.297   5.124   2.407
 6054TIP3   OH218125   5.212   1.549   1.562
 6054TIP3    H118126   5.170   1.462   1.565
 6054TIP3    H218127   5.150   1.606   1.607
 6055TIP3   OH218128   1.292   0.368   0.786
 6055TIP3    H118129   1.294   0.274   0.768
 6055TIP3    H218130   1.364   0.404   0.735
 6056TIP3   OH218131   2.679   3.760   5.764
 6056TIP3    H118132   2.661   3.721   5.678
 6056TIP3    H218133   2.693   3.685   5.822
 6057TIP3   OH218134   5.061   6.711   1.247
 6057TIP3    H118135   5.094   6.628   1.214
 6057TIP3    H218136   5.092   6.714   1.338
 6058TIP3   OH218137   5.086   3.423   1.809
 6058TIP3    H118138   5.140   3.422   1.730
 6058TIP3    H218139   5.042   3.508   1.808
 6059TIP3   OH218140   5.563   3.543   1.879
 6059TIP3    H118141   5.543   3.472   1.818
 6059TIP3    H218142   5.609   3.500   1.951
 6060TIP3   OH218143   5.309   3.317   0.716
 6060TIP3    H118144   5.340   3.372   0.645
 6060TIP3    H218145   5.296   3.230   0.677
 6061TIP3   OH218146   5.433   4.912   1.613
 6061TIP3    H118147   5.491   4.902   1.538
 6061TIP3    H218148   5.439   5.005   1.636
 6062TIP3   OH218149   3.140   3.002   5.223
 6062TIP3    H118150   3.173   3.088   5.246
 6062TIP3    H218151   3.080   3.018   5.150
 6063TIP3   OH218152   2.964   3.486   0.970
 6063TIP3    H118153   2.949   3.405   1.019
 6063TIP3    H218154   2.956   3.555   1.035
 6064TIP3   OH218155   4.859   6.098   0.835
 6064TIP3    H118156   4.844   6.173   0.778
 6064TIP3    H218157   4.929   6.127   0.894
 6065TIP3   OH218158   5.376   4.509   4.694
 6065TIP3    H118159   5.443   4.577   4.698
 6065TIP3    H218160   5.401   4.448   4.764
 6066TIP3   OH218161   5.211   4.949   4.806
 6066TIP3    H118162   5.129   4.903   4.822
 6066TIP3    H218163   5.208   5.025   4.864
 6067TIP3   OH218164   7.096   0.152   4.160
 6067TIP3    H118165   7.167   0.095   4.190
 6067TIP3    H218166   7.030   0.091   4.126
 6068TIP3   OH218167   1.939   2.608   4.259
 6068TIP3    H118168   1.889   2.689   4.270
 6068TIP3    H218169   1.905   2.570   4.178
 6069TIP3   OH218170   3.401   0.142   3.759
 6069TIP3    H118171   3.346   0.087   3.703
 6069TIP3    H218172   3.490   0.110   3.745
 6070TIP3   OH218173   6.416   2.261   0.999
 6070TIP3    H118174   6.353   2.306   1.055
 6070TIP3    H218175   6.500   2.268   1.046
 6071TIP3   OH218176   5.647   5.342   4.909
 6071TIP3    H118177   5.642   5.364   4.816
 6071TIP3    H218178   5.727   5.290   4.917
 6072TIP3   OH218179   0.573   2.988   3.973
 6072TIP3    H118180   0.630   3.059   3.945
 6072TIP3    H218181   0.486   3.013   3.941
 6073TIP3   OH218182   4.612   6.020   2.930
 6073TIP3    H118183   4.662   6.091   2.890
 6073TIP3    H218184   4.521   6.049   2.924
 6074TIP3   OH218185   0.751   5.135   1.870
 6074TIP3    H118186   0.813   5.066   1.890
 6074TIP3    H218187   0.805   5.207   1.838
 6075TIP3   OH218188   4.154   2.592   3.757
 6075TIP3    H118189   4.223   2.659   3.768
 6075TIP3    H218190   4.074   2.643   3.742
 6076TIP3   OH218191   5.041   6.187   2.326
 6076TIP3    H118192   5.088   6.210   2.407
 6076TIP3    H218193   4.954   6.160   2.356
 6077TIP3   OH218194   5.365   2.747   4.792
 6077TIP3    H118195   5.271   2.766   4.792
 6077TIP3    H218196   5.370   2.652   4.805
 6078TIP3   OH218197   4.049   2.927   1.162
 6078TIP3    H118198   4.061   2.980   1.084
 6078TIP3    H218199   3.977   2.970   1.210
 6079TIP3   OH218200   1.776   1.240   3.587
 6079TIP3    H118201   1.715   1.167   3.578
 6079TIP3    H218202   1.762   1.292   3.509
 6080TIP3   OH218203   6.021   4.947   3.312
 6080TIP3    H118204   6.049   4.987   3.230
 6080TIP3    H218205   5.945   4.893   3.288
 6081TIP3   OH218206   5.400   2.082   4.645
 6081TIP3    H118207   5.411   2.023   4.719
 6081TIP3    H218208   5.404   2.170   4.683
 6082TIP3   OH218209   7.009   0.342   0.432
 6082TIP3    H118210   7.040   0.389   0.355
 6082TIP3    H218211   6.977   0.411   0.491
 6083TIP3   OH218212   2.540   0.037   0.754
 6083TIP3    H118213   2.535   0.010   0.663
 6083TIP3    H218214   2.615  -0.011   0.789
 6084TIP3   OH218215   6.253   0.243   3.378
 6084TIP3    H118216   6.284   0.153   3.381
 6084TIP3    H218217   6.319   0.294   3.424
 6085TIP3   OH218218   1.938   1.424   0.338
 6085TIP3    H118219   1.955   1.343   0.386
 6085TIP3    H218220   1.982   1.412   0.254
 6086TIP3   OH218221   3.369   0.539   5.236
 6086TIP3    H118222   3.275   0.543   5.220
 6086TIP3    H218223   3.406   0.609   5.184
 6087TIP3   OH218224   3.567   5.972   1.516
 6087TIP3    H118225   3.534   6.041   1.574
 6087TIP3    H218226   3.581   5.898   1.574
 6088TIP3   OH218227   4.614   1.392   0.411
 6088TIP3    H118228   4.641   1.450   0.340
 6088TIP3    H218229   4.683   1.325   0.415
 6089TIP3   OH218230   5.280   5.635   1.657
 6089TIP3    H118231   5.331   5.676   1.727
 6089TIP3    H218232   5.214   5.583   1.702
 6090TIP3   OH218233   2.434   6.666   3.297
 6090TIP3    H118234   2.502   6.617   3.250
 6090TIP3    H218235   2.424   6.620   3.380
 6091TIP3   OH218236   6.373   2.664   0.098
 6091TIP3    H118237   6.413   2.705   0.021
 6091TIP3    H218238   6.399   2.720   0.171
 6092TIP3   OH218239   1.553   1.582   4.708
 6092TIP3    H118240   1.494   1.608   4.779
 6092TIP3    H218241   1.539   1.648   4.640
 6093TIP3   OH218242   5.811   4.428   0.191
 6093TIP3    H118243   5.813   4.444   0.096
 6093TIP3    H218244   5.903   4.434   0.218
 6094TIP3   OH218245   2.275   4.371   4.387
 6094TIP3    H118246   2.229   4.455   4.387
 6094TIP3    H218247   2.341   4.380   4.456
 6095TIP3   OH218248   6.649   0.737   0.515
 6095TIP3    H118249   6.557   0.757   0.531
 6095TIP3    H218250   6.697   0.787   0.581
 6096TIP3   OH218251   0.597   0.371   1.681
 6096TIP3    H118252   0.622   0.418   1.602
 6096TIP3    H218253   0.672   0.381   1.739
 6097TIP3   OH218254   1.203   5.871   3.182
 6097TIP3    H118255   1.190   5.854   3.275
 6097TIP3    H218256   1.294   5.846   3.166
 6098TIP3   OH218257   4.010   2.139   2.661
 6098TIP3    H118258   4.074   2.145   2.732
 6098TIP3    H218259   3.931   2.178   2.698
 6099TIP3   OH218260   5.919   1.351   5.573
 6099TIP3    H118261   5.897   1.365   5.666
 6099TIP3    H218262   5.838   1.375   5.527
 6100TIP3   OH218263   3.588   0.014   2.508
 6100TIP3    H118264   3.647  -0.029   2.570
 6100TIP3    H218265   3.615   0.106   2.509
 6101TIP3   OH218266   3.671   2.475   0.354
 6101TIP3    H118267   3.606   2.517   0.411
 6101TIP3    H218268   3.737   2.543   0.339
 6102TIP3   OH218269   3.910   4.989   4.305
 6102TIP3    H118270   3.830   4.937   4.314
 6102TIP3    H218271   3.898   5.063   4.365
 6103TIP3   OH218272   1.060   3.521   2.457
 6103TIP3    H118273   1.080   3.444   2.405
 6103TIP3    H218274   0.965   3.519   2.468
 6104TIP3   OH218275   5.121   0.328   2.834
 6104TIP3    H118276   5.064   0.274   2.779
 6104TIP3    H218277   5.203   0.334   2.785
 6105TIP3   OH218278   4.856   0.091   4.421
 6105TIP3    H118279   4.801   0.012   4.413
 6105TIP3    H218280   4.928   0.064   4.478
 6106TIP3   OH218281   1.441   3.526   3.438
 6106TIP3    H118282   1.477   3.614   3.434
 6106TIP3    H218283   1.516   3.469   3.456
 6107TIP3   OH218284   5.181   4.293   3.970
 6107TIP3    H118285   5.101   4.299   4.022
 6107TIP3    H218286   5.246   4.258   4.030
 6108TIP3   OH218287   4.018   5.959   4.553
 6108TIP3    H118288   3.947   5.897   4.537
 6108TIP3    H218289   3.976   6.045   4.550
 6109TIP3   OH218290   0.916   3.517   1.214
 6109TIP3    H118291   0.857   3.547   1.283
 6109TIP3    H218292   0.924   3.592   1.155
 6110TIP3   OH218293   3.037   5.206   3.572
 6110TIP3    H118294   2.957   5.159   3.596
 6110TIP3    H218295   3.026   5.225   3.479
 6111TIP3   OH218296   4.875   0.369   0.642
 6111TIP3    H118297   4.820   0.335   0.571
 6111TIP3    H218298   4.860   0.309   0.715
 6112TIP3   OH218299   2.810   1.628   4.843
 6112TIP3    H118300   2.860   1.704   4.813
 6112TIP3    H218301   2.792   1.646   4.936
 6113TIP3   OH218302   7.032   5.689   0.418
 6113TIP3    H118303   6.984   5.623   0.368
 6113TIP3    H218304   7.119   5.692   0.376
 6114TIP3   OH218305   1.223   4.011   0.898
 6114TIP3    H118306   1.217   4.096   0.941
 6114TIP3    H218307   1.137   3.971   0.912
 6115TIP3   OH218308   5.158   5.157   5.352
 6115TIP3    H118309   5.170   5.245   5.388
 6115TIP3    H218310   5.084   5.166   5.291
 6116TIP3   OH218311   5.878   3.323   4.722
 6116TIP3    H118312   5.874   3.228   4.737
 6116TIP3    H218313   5.965   3.338   4.685
 6117TIP3   OH218314   2.354   1.213   0.016
 6117TIP3    H118315   2.344   1.170   0.101
 6117TIP3    H218316   2.432   1.173  -0.023
 6118TIP3   OH218317   1.154   2.132   3.517
 6118TIP3    H118318   1.222   2.153   3.581
 6118TIP3    H218319   1.074   2.126   3.569
 6119TIP3   OH218320   1.836   2.554   2.324
 6119TIP3    H118321   1.779   2.494   2.371
 6119TIP3    H218322   1.906   2.575   2.386
 6120TIP3   OH218323   5.777   3.923   4.006
 6120TIP3    H118324   5.863   3.887   4.030
 6120TIP3    H218325   5.752   3.875   3.927
 6121TIP3   OH218326   6.216   1.782   5.131
 6121TIP3    H118327   6.128   1.794   5.095
 6121TIP3    H218328   6.264   1.860   5.104
 6122TIP3   OH218329   4.281   3.169   4.640
 6122TIP3    H118330   4.323   3.206   4.718
 6122TIP3    H218331   4.239   3.088   4.671
 6123TIP3   OH218332   2.790   1.408   0.991
 6123TIP3    H118333   2.826   1.340   1.048
 6123TIP3    H218334   2.698   1.386   0.982
 6124TIP3   OH218335   1.813   4.921   1.989
 6124TIP3    H118336   1.812   4.870   2.070
 6124TIP3    H218337   1.751   4.877   1.931
 6125TIP3   OH218338   1.782   1.267   2.399
 6125TIP3    H118339   1.719   1.297   2.464
 6125TIP3    H218340   1.753   1.308   2.317
 6126TIP3   OH218341   0.860   6.213   5.088
 6126TIP3    H118342   0.783   6.267   5.106
 6126TIP3    H218343   0.897   6.194   5.174
 6127TIP3   OH218344   2.759   0.975   2.087
 6127TIP3    H118345   2.767   1.042   2.019
 6127TIP3    H218346   2.849   0.958   2.115
 6128TIP3   OH218347   5.341   1.719   5.216
 6128TIP3    H118348   5.327   1.732   5.122
 6128TIP3    H218349   5.258   1.683   5.248
 6129TIP3   OH218350   4.594   5.824   3.160
 6129TIP3    H118351   4.530   5.754   3.169
 6129TIP3    H218352   4.567   5.872   3.082
 6130TIP3   OH218353   5.547   2.180   3.957
 6130TIP3    H118354   5.484   2.248   3.980
 6130TIP3    H218355   5.499   2.121   3.899
 6131TIP3   OH218356   6.605   1.302   5.181
 6131TIP3    H118357   6.535   1.355   5.220
 6131TIP3    H218358   6.634   1.245   5.252
 6132TIP3   OH218359   3.512   5.947   3.404
 6132TIP3    H118360   3.424   5.943   3.441
 6132TIP3    H218361   3.570   5.951   3.480
 6133TIP3   OH218362   5.675   2.184   5.078
 6133TIP3    H118363   5.739   2.250   5.051
 6133TIP3    H218364   5.685   2.179   5.173
 6134TIP3   OH218365   1.759   1.368   3.300
 6134TIP3    H118366   1.776   1.448   3.249
 6134TIP3    H218367   1.718   1.308   3.237
 6135TIP3   OH218368   0.034   1.554   1.326
 6135TIP3    H118369  -0.013   1.622   1.278
 6135TIP3    H218370   0.125   1.584   1.330
 6136TIP3   OH218371   6.246   4.898   3.783
 6136TIP3    H118372   6.189   4.956   3.732
 6136TIP3    H218373   6.331   4.941   3.782
 6137TIP3   OH218374   6.912   1.551   1.605
 6137TIP3    H118375   6.846   1.571   1.539
 6137TIP3    H218376   6.863   1.527   1.683
 6138TIP3   OH218377   1.059   2.718   3.157
 6138TIP3    H118378   1.106   2.711   3.074
 6138TIP3    H218379   1.086   2.802   3.194
 6139TIP3   OH218380   5.817   0.345   4.818
 6139TIP3    H118381   5.887   0.329   4.755
 6139TIP3    H218382   5.767   0.418   4.781
 6140TIP3   OH218383   4.528   3.108   1.360
 6140TIP3    H118384   4.514   3.042   1.429
 6140TIP3    H218385   4.520   3.058   1.278
 6141TIP3   OH218386   2.517   5.396   0.201
 6141TIP3    H118387   2.497   5.465   0.137
 6141TIP3    H218388   2.477   5.318   0.164
 6142TIP3   OH218389   3.590   4.847   5.526
 6142TIP3    H118390   3.596   4.873   5.618
 6142TIP3    H218391   3.652   4.905   5.481
 6143TIP3   OH218392   3.950   3.654   1.688
 6143TIP3    H118393   3.905   3.738   1.682
 6143TIP3    H218394   3.954   3.622   1.598
 6144TIP3   OH218395   6.545   0.984   4.946
 6144TIP3    H118396   6.589   0.927   5.009
 6144TIP3    H218397   6.470   1.020   4.993
 6145TIP3   OH218398   2.051   0.261   3.913
 6145TIP3    H118399   1.987   0.250   3.983
 6145TIP3    H218400   1.999   0.284   3.836
 6146TIP3   OH218401   6.274   6.629   4.952
 6146TIP3    H118402   6.227   6.602   4.872
 6146TIP3    H218403   6.238   6.715   4.973
 6147TIP3   OH218404   4.659   0.995   3.768
 6147TIP3    H118405   4.612   1.070   3.733
 6147TIP3    H218406   4.612   0.919   3.733
 6148TIP3   OH218407   2.205   4.120   0.165
 6148TIP3    H118408   2.114   4.102   0.144
 6148TIP3    H218409   2.245   4.143   0.082
 6149TIP3   OH218410   3.245   5.246   1.486
 6149TIP3    H118411   3.219   5.160   1.453
 6149TIP3    H218412   3.167   5.278   1.531
 6150TIP3   OH218413   5.368   3.710   4.554
 6150TIP3    H118414   5.419   3.791   4.556
 6150TIP3    H218415   5.423   3.648   4.504
 6151TIP3   OH218416   6.948   4.340   4.928
 6151TIP3    H118417   6.981   4.401   4.994
 6151TIP3    H218418   7.007   4.264   4.934
 6152TIP3   OH218419   1.688   1.369   1.236
 6152TIP3    H118420   1.714   1.353   1.327
 6152TIP3    H218421   1.767   1.350   1.185
 6153TIP3   OH218422   3.144   0.827   3.595
 6153TIP3    H118423   3.206   0.807   3.665
 6153TIP3    H218424   3.095   0.903   3.628
 6154TIP3   OH218425   1.169   1.088   3.488
 6154TIP3    H118426   1.194   1.027   3.418
 6154TIP3    H218427   1.142   1.167   3.443
 6155TIP3   OH218428   5.446   0.521   5.377
 6155TIP3    H118429   5.533   0.487   5.361
 6155TIP3    H218430   5.424   0.571   5.298
 6156TIP3   OH218431   4.390   3.098   4.974
 6156TIP3    H118432   4.410   3.192   4.978
 6156TIP3    H218433   4.314   3.088   5.030
 6157TIP3   OH218434   6.624   5.820   4.208
 6157TIP3    H118435   6.691   5.864   4.261
 6157TIP3    H218436   6.664   5.810   4.122
 6158TIP3   OH218437   3.476   5.140   2.184
 6158TIP3    H118438   3.538   5.071   2.208
 6158TIP3    H218439   3.525   5.197   2.125
 6159TIP3   OH218440   2.735   3.814   3.744
 6159TIP3    H118441   2.791   3.882   3.781
 6159TIP3    H218442   2.745   3.740   3.804
 6160TIP3   OH218443   5.423   6.110   5.017
 6160TIP3    H118444   5.496   6.137   4.961
 6160TIP3    H218445   5.464   6.060   5.087
 6161TIP3   OH218446   6.266   0.014   3.037
 6161TIP3    H118447   6.305  -0.068   3.066
 6161TIP3    H218448   6.210  -0.010   2.963
 6162TIP3   OH218449   0.378   4.379   1.631
 6162TIP3    H118450   0.402   4.307   1.689
 6162TIP3    H218451   0.460   4.427   1.618
 6163TIP3   OH218452   2.307   4.301   5.687
 6163TIP3    H118453   2.281   4.239   5.619
 6163TIP3    H218454   2.389   4.338   5.655
 6164TIP3   OH218455   6.225   0.855   5.454
 6164TIP3    H118456   6.256   0.917   5.519
 6164TIP3    H218457   6.211   0.774   5.502
 6165TIP3   OH218458   1.606   3.907   4.541
 6165TIP3    H118459   1.567   3.941   4.622
 6165TIP3    H218460   1.695   3.882   4.566
 6166TIP3   OH218461   7.192   5.560   1.795
 6166TIP3    H118462   7.147   5.476   1.808
 6166TIP3    H218463   7.253   5.544   1.723
 6167TIP3   OH218464   5.745   4.024   0.332
 6167TIP3    H118465   5.755   4.082   0.407
 6167TIP3    H218466   5.654   4.036   0.304
 6168TIP3   OH218467   4.249   3.595   1.853
 6168TIP3    H118468   4.163   3.554   1.861
 6168TIP3    H218469   4.246   3.669   1.914
 6169TIP3   OH218470   5.541   4.779   0.968
 6169TIP3    H118471   5.503   4.752   0.884
 6169TIP3    H218472   5.523   4.873   0.973
 6170TIP3   OH218473   4.489   0.684   0.298
 6170TIP3    H118474   4.544   0.753   0.335
 6170TIP3    H218475   4.449   0.725   0.221
 6171TIP3   OH218476   0.071   5.544   3.228
 6171TIP3    H118477   0.032   5.539   3.316
 6171TIP3    H218478   0.032   5.622   3.189
 6172TIP3   OH218479   0.839   0.442   1.498
 6172TIP3    H118480   0.849   0.398   1.414
 6172TIP3    H218481   0.895   0.392   1.558
 6173TIP3   OH218482   0.981   2.995   3.736
 6173TIP3    H118483   0.908   2.964   3.684
 6173TIP3    H218484   1.059   2.976   3.683
 6174TIP3   OH218485   3.503   6.152   3.807
 6174TIP3    H118486   3.447   6.103   3.866
 6174TIP3    H218487   3.469   6.242   3.810
 6175TIP3   OH218488   1.752   6.146   2.748
 6175TIP3    H118489   1.672   6.197   2.762
 6175TIP3    H218490   1.784   6.127   2.836
 6176TIP3   OH218491   2.834   0.758   2.676
 6176TIP3    H118492   2.894   0.753   2.602
 6176TIP3    H218493   2.806   0.668   2.692
 6177TIP3   OH218494   7.119   4.916   4.343
 6177TIP3    H118495   7.088   4.977   4.277
 6177TIP3    H218496   7.207   4.946   4.364
 6178TIP3   OH218497   3.952   3.307   5.877
 6178TIP3    H118498   3.939   3.381   5.817
 6178TIP3    H218499   3.865   3.290   5.914
 6179TIP3   OH218500   2.727   2.089   5.843
 6179TIP3    H118501   2.641   2.120   5.869
 6179TIP3    H218502   2.788   2.139   5.896
 6180TIP3   OH218503   3.992   2.229   5.611
 6180TIP3    H118504   4.073   2.275   5.629
 6180TIP3    H218505   3.961   2.267   5.528
 6181TIP3   OH218506   6.869   0.902   5.284
 6181TIP3    H118507   6.865   0.930   5.192
 6181TIP3    H218508   6.963   0.890   5.300
 6182TIP3   OH218509   4.909   1.454   5.526
 6182TIP3    H118510   4.834   1.458   5.585
 6182TIP3    H218511   4.981   1.493   5.575
 6183TIP3   OH218512   3.578   1.777   3.204
 6183TIP3    H118513   3.566   1.820   3.288
 6183TIP3    H218514   3.529   1.695   3.211
 6184TIP3   OH218515   3.820   3.434   4.261
 6184TIP3    H118516   3.828   3.349   4.305
 6184TIP3    H218517   3.897   3.483   4.289
 6185TIP3   OH218518   1.979   5.222   1.529
 6185TIP3    H118519   1.937   5.209   1.614
 6185TIP3    H218520   1.936   5.159   1.471
 6186TIP3   OH218521   6.618   3.079   5.082
 6186TIP3    H118522   6.712   3.060   5.087
 6186TIP3    H218523   6.581   3.029   5.155
 6187TIP3   OH218524   3.627   5.854   2.021
 6187TIP3    H118525   3.551   5.850   2.080
 6187TIP3    H218526   3.609   5.787   1.955
 6188TIP3   OH218527   6.710   6.012   3.234
 6188TIP3    H118528   6.788   5.982   3.186
 6188TIP3    H218529   6.667   6.072   3.173
 6189TIP3   OH218530   5.738   4.842   2.853
 6189TIP3    H118531   5.780   4.765   2.890
 6189TIP3    H218532   5.671   4.866   2.916
 6190TIP3   OH218533   4.669   4.119   1.136
 6190TIP3    H118534   4.703   4.146   1.221
 6190TIP3    H218535   4.676   4.197   1.081
 6191TIP3   OH218536   1.965   0.541   4.483
 6191TIP3    H118537   1.995   0.451   4.469
 6191TIP3    H218538   1.991   0.561   4.573
 6192TIP3   OH218539   6.685   4.958   4.613
 6192TIP3    H118540   6.778   4.935   4.604
 6192TIP3    H218541   6.670   4.960   4.707
 6193TIP3   OH218542   6.529   5.109   2.014
 6193TIP3    H118543   6.441   5.126   1.980
 6193TIP3    H218544   6.514   5.071   2.101
 6194TIP3   OH218545   5.973   6.689   0.485
 6194TIP3    H118546   5.913   6.747   0.439
 6194TIP3    H218547   5.961   6.604   0.443
 6195TIP3   OH218548   2.396   6.193   3.254
 6195TIP3    H118549   2.302   6.198   3.236
 6195TIP3    H218550   2.425   6.284   3.255
 6196TIP3   OH218551   4.110   5.859   2.153
 6196TIP3    H118552   4.134   5.892   2.066
 6196TIP3    H218553   4.082   5.769   2.137
 6197TIP3   OH218554   2.912   3.803   2.910
 6197TIP3    H118555   2.954   3.889   2.907
 6197TIP3    H218556   2.973   3.745   2.865
 6198TIP3   OH218557   3.980   2.831   0.546
 6198TIP3    H118558   3.934   2.915   0.538
 6198TIP3    H218559   4.030   2.838   0.627
 6199TIP3   OH218560   1.204   5.297   0.258
 6199TIP3    H118561   1.212   5.363   0.327
 6199TIP3    H218562   1.129   5.327   0.205
 6200TIP3   OH218563   5.319   1.844   1.434
 6200TIP3    H118564   5.378   1.776   1.468
 6200TIP3    H218565   5.286   1.887   1.513
 6201TIP3   OH218566   5.693   3.300   2.507
 6201TIP3    H118567   5.687   3.388   2.472
 6201TIP3    H218568   5.717   3.312   2.599
 6202TIP3   OH218569   2.898   5.425   0.793
 6202TIP3    H118570   2.925   5.381   0.874
 6202TIP3    H218571   2.849   5.358   0.744
 6203TIP3   OH218572   5.867   1.067   1.117
 6203TIP3    H118573   5.794   1.084   1.176
 6203TIP3    H218574   5.917   0.997   1.160
 6204TIP3   OH218575   4.739   5.556   4.029
 6204TIP3    H118576   4.644   5.552   4.024
 6204TIP3    H218577   4.761   5.645   4.002
 6205TIP3   OH218578   3.211   2.573   3.141
 6205TIP3    H118579   3.201   2.629   3.218
 6205TIP3    H218580   3.288   2.520   3.161
 6206TIP3   OH218581   0.600   5.373   1.240
 6206TIP3    H118582   0.558   5.361   1.155
 6206TIP3    H218583   0.605   5.468   1.252
 6207TIP3   OH218584   2.639   3.112   4.864
 6207TIP3    H118585   2.664   3.029   4.825
 6207TIP3    H218586   2.544   3.106   4.875
 6208TIP3   OH218587   0.426   4.576   4.528
 6208TIP3    H118588   0.466   4.617   4.605
 6208TIP3    H218589   0.405   4.487   4.557
 6209TIP3   OH218590   7.115   4.640   4.435
 6209TIP3    H118591   7.187   4.633   4.499
 6209TIP3    H218592   7.114   4.733   4.412
 6210TIP3   OH218593   0.778   3.514   3.296
 6210TIP3    H118594   0.784   3.467   3.213
 6210TIP3    H218595   0.842   3.585   3.288
 6211TIP3   OH218596   6.697   0.501   4.917
 6211TIP3    H118597   6.629   0.565   4.898
 6211TIP3    H218598   6.751   0.498   4.838
 6212TIP3   OH218599   4.156   0.020   1.716
 6212TIP3    H118600   4.167   0.113   1.695
 6212TIP3    H218601   4.131   0.018   1.808
 6213TIP3   OH218602   3.674   1.252   0.571
 6213TIP3    H118603   3.692   1.345   0.561
 6213TIP3    H218604   3.579   1.244   0.562
 6214TIP3   OH218605   1.452   3.230   1.041
 6214TIP3    H118606   1.400   3.173   1.098
 6214TIP3    H218607   1.535   3.184   1.030
 6215TIP3   OH218608   2.580   2.506   2.324
 6215TIP3    H118609   2.661   2.464   2.356
 6215TIP3    H218610   2.525   2.514   2.401
 6216TIP3   OH218611   1.367   5.669   2.011
 6216TIP3    H118612   1.299   5.727   2.044
 6216TIP3    H218613   1.380   5.605   2.081
 6217TIP3   OH218614   2.727   1.672   1.061
 6217TIP3    H118615   2.759   1.586   1.033
 6217TIP3    H218616   2.633   1.660   1.074
 6218TIP3   OH218617   3.119   0.629   0.240
 6218TIP3    H118618   3.054   0.673   0.295
 6218TIP3    H218619   3.192   0.611   0.299
 6219TIP3   OH218620   6.919   5.857   5.273
 6219TIP3    H118621   6.868   5.778   5.293
 6219TIP3    H218622   6.863   5.929   5.300
 6220TIP3   OH218623   4.388   6.101   3.398
 6220TIP3    H118624   4.473   6.142   3.387
 6220TIP3    H218625   4.363   6.071   3.311
 6221TIP3   OH218626   6.842   6.307   2.817
 6221TIP3    H118627   6.890   6.379   2.776
 6221TIP3    H218628   6.751   6.320   2.788
 6222TIP3   OH218629   2.575   1.245   3.622
 6222TIP3    H118630   2.632   1.204   3.687
 6222TIP3    H218631   2.617   1.226   3.538
 6223TIP3   OH218632   1.453   1.995  -0.007
 6223TIP3    H118633   1.447   1.900  -0.016
 6223TIP3    H218634   1.545   2.014  -0.022
 6224TIP3   OH218635   0.447   1.871   3.105
 6224TIP3    H118636   0.378   1.863   3.171
 6224TIP3    H218637   0.478   1.961   3.114
 6225TIP3   OH218638   5.698   5.969   1.889
 6225TIP3    H118639   5.715   6.023   1.966
 6225TIP3    H218640   5.783   5.961   1.846
 6226TIP3   OH218641   5.846   4.238   5.794
 6226TIP3    H118642   5.787   4.202   5.859
 6226TIP3    H218643   5.887   4.313   5.838
 6227TIP3   OH218644   2.957   0.636   3.577
 6227TIP3    H118645   2.977   0.613   3.668
 6227TIP3    H218646   3.019   0.705   3.555
 6228TIP3   OH218647   3.346   1.289   3.072
 6228TIP3    H118648   3.413   1.222   3.086
 6228TIP3    H218649   3.288   1.252   3.006
 6229TIP3   OH218650   7.069   1.128   2.057
 6229TIP3    H118651   7.144   1.108   2.113
 6229TIP3    H218652   7.101   1.195   1.997
 6230TIP3   OH218653   0.993   5.315   0.108
 6230TIP3    H118654   0.916   5.353   0.151
 6230TIP3    H218655   0.991   5.223   0.132
 6231TIP3   OH218656   1.619   4.279   4.263
 6231TIP3    H118657   1.576   4.360   4.290
 6231TIP3    H218658   1.562   4.209   4.295
 6232TIP3   OH218659   4.977   3.947   1.678
 6232TIP3    H118660   4.912   3.992   1.732
 6232TIP3    H218661   4.954   3.970   1.589
 6233TIP3   OH218662   0.956   3.470   5.174
 6233TIP3    H118663   0.988   3.389   5.214
 6233TIP3    H218664   1.022   3.491   5.108
 6234TIP3   OH218665   0.522   4.890   0.099
 6234TIP3    H118666   0.505   4.899   0.006
 6234TIP3    H218667   0.468   4.815   0.126
 6235TIP3   OH218668   0.850   1.655   4.352
 6235TIP3    H118669   0.858   1.742   4.392
 6235TIP3    H218670   0.790   1.608   4.410
 6236TIP3   OH218671   3.484   2.949   2.534
 6236TIP3    H118672   3.490   3.042   2.511
 6236TIP3    H218673   3.432   2.948   2.614
 6237TIP3   OH218674   5.550   1.153   5.474
 6237TIP3    H118675   5.486   1.084   5.494
 6237TIP3    H218676   5.526   1.183   5.386
 6238TIP3   OH218677   3.023   1.650   5.382
 6238TIP3    H118678   2.981   1.598   5.313
 6238TIP3    H218679   2.982   1.622   5.463
 6239TIP3   OH218680   1.581   4.661   3.473
 6239TIP3    H118681   1.641   4.626   3.407
 6239TIP3    H218682   1.630   4.732   3.515
 6240TIP3   OH218683   3.190   0.775   1.383
 6240TIP3    H118684   3.150   0.796   1.298
 6240TIP3    H218685   3.283   0.760   1.362
 6241TIP3   OH218686   1.275   5.583   0.184
 6241TIP3    H118687   1.363   5.601   0.150
 6241TIP3    H218688   1.290   5.550   0.273
 6242TIP3   OH218689   4.984   3.894   3.963
 6242TIP3    H118690   5.062   3.920   3.915
 6242TIP3    H218691   4.911   3.916   3.905
 6243TIP3   OH218692   5.222   3.344   1.130
 6243TIP3    H118693   5.195   3.435   1.132
 6243TIP3    H218694   5.173   3.302   1.202
 6244TIP3   OH218695   3.720   2.064   4.643
 6244TIP3    H118696   3.735   2.122   4.568
 6244TIP3    H218697   3.739   2.118   4.720
 6245TIP3   OH218698   3.003   4.566   4.434
 6245TIP3    H118699   3.000   4.533   4.344
 6245TIP3    H218700   2.983   4.660   4.426
 6246TIP3   OH218701   2.494   3.780   3.348
 6246TIP3    H118702   2.498   3.819   3.436
 6246TIP3    H218703   2.532   3.693   3.359
 6247TIP3   OH218704   2.380   3.364   0.173
 6247TIP3    H118705   2.323   3.365   0.249
 6247TIP3    H218706   2.398   3.456   0.155
 6248TIP3   OH218707   2.874   0.225   5.116
 6248TIP3    H118708   2.909   0.284   5.183
 6248TIP3    H218709   2.951   0.194   5.068
 6249TIP3   OH218710   5.202   4.503   5.575
 6249TIP3    H118711   5.270   4.547   5.524
 6249TIP3    H218712   5.241   4.489   5.661
 6250TIP3   OH218713   0.323   3.657   5.390
 6250TIP3    H118714   0.305   3.581   5.445
 6250TIP3    H218715   0.270   3.727   5.428
 6251TIP3   OH218716   0.329   3.207   1.209
 6251TIP3    H118717   0.380   3.280   1.174
 6251TIP3    H218718   0.250   3.205   1.155
 6252TIP3   OH218719   5.376   6.327   3.911
 6252TIP3    H118720   5.392   6.265   3.982
 6252TIP3    H218721   5.286   6.308   3.883
 6253TIP3   OH218722   1.631   5.683   1.855
 6253TIP3    H118723   1.536   5.693   1.851
 6253TIP3    H218724   1.662   5.762   1.899
 6254TIP3   OH218725   4.531   2.155   4.491
 6254TIP3    H118726   4.612   2.123   4.530
 6254TIP3    H218727   4.475   2.177   4.565
 6255TIP3   OH218728   6.167   3.946   0.223
 6255TIP3    H118729   6.083   3.918   0.259
 6255TIP3    H218730   6.216   3.980   0.298
 6256TIP3   OH218731   3.702   5.136   4.100
 6256TIP3    H118732   3.724   5.052   4.140
 6256TIP3    H218733   3.709   5.120   4.006
 6257TIP3   OH218734   0.259   0.338   0.271
 6257TIP3    H118735   0.325   0.279   0.234
 6257TIP3    H218736   0.288   0.426   0.248
 6258TIP3   OH218737   4.741   6.033   0.554
 6258TIP3    H118738   4.791   6.110   0.531
 6258TIP3    H218739   4.720   6.044   0.646
 6259TIP3   OH218740   4.971   0.384   4.804
 6259TIP3    H118741   5.004   0.420   4.721
 6259TIP3    H218742   5.046   0.335   4.840
 6260TIP3   OH218743   1.342   3.180   4.216
 6260TIP3    H118744   1.292   3.217   4.143
 6260TIP3    H218745   1.277   3.145   4.276
 6261TIP3   OH218746   3.115   1.560   0.841
 6261TIP3    H118747   3.054   1.548   0.768
 6261TIP3    H218748   3.064   1.535   0.918
 6262TIP3   OH218749   5.189   5.814   4.686
 6262TIP3    H118750   5.228   5.859   4.611
 6262TIP3    H218751   5.247   5.740   4.702
 6263TIP3   OH218752   5.452   0.594   1.514
 6263TIP3    H118753   5.544   0.597   1.542
 6263TIP3    H218754   5.450   0.643   1.432
 6264TIP3   OH218755   0.976   1.655   3.564
 6264TIP3    H118756   1.056   1.662   3.513
 6264TIP3    H218757   0.929   1.736   3.548
 6265TIP3   OH218758   1.298   6.344   0.578
 6265TIP3    H118759   1.248   6.398   0.516
 6265TIP3    H218760   1.385   6.337   0.538
 6266TIP3   OH218761   4.878   1.294   5.778
 6266TIP3    H118762   4.824   1.354   5.727
 6266TIP3    H218763   4.885   1.216   5.724
 6267TIP3   OH218764   1.934   2.359   0.063
 6267TIP3    H118765   1.874   2.335  -0.007
 6267TIP3    H218766   1.908   2.304   0.137
 6268TIP3   OH218767   1.053   5.797   1.683
 6268TIP3    H118768   1.003   5.757   1.612
 6268TIP3    H218769   0.990   5.805   1.755
 6269TIP3   OH218770   1.215   0.530   2.731
 6269TIP3    H118771   1.155   0.500   2.799
 6269TIP3    H218772   1.160   0.537   2.652
 6270TIP3   OH218773   4.046   0.654   5.141
 6270TIP3    H118774   4.021   0.745   5.154
 6270TIP3    H218775   4.083   0.627   5.225
 6271TIP3   OH218776   3.538   1.787   0.327
 6271TIP3    H118777   3.557   1.866   0.275
 6271TIP3    H218778   3.624   1.752   0.350
 6272TIP3   OH218779   2.964   0.296   5.374
 6272TIP3    H118780   2.985   0.207   5.347
 6272TIP3    H218781   3.047   0.343   5.371
 6273TIP3   OH218782   0.411   0.356   4.446
 6273TIP3    H118783   0.434   0.427   4.506
 6273TIP3    H218784   0.317   0.369   4.430
 6274TIP3   OH218785   2.883   2.515   2.125
 6274TIP3    H118786   2.902   2.450   2.057
 6274TIP3    H218787   2.809   2.480   2.173
 6275TIP3   OH218788   5.680   3.012   3.280
 6275TIP3    H118789   5.760   2.963   3.266
 6275TIP3    H218790   5.703   3.078   3.345
 6276TIP3   OH218791   6.745   1.733   0.222
 6276TIP3    H118792   6.835   1.739   0.254
 6276TIP3    H218793   6.753   1.745   0.127
 6277TIP3   OH218794   1.626   0.992   5.725
 6277TIP3    H118795   1.608   1.041   5.645
 6277TIP3    H218796   1.685   1.048   5.775
 6278TIP3   OH218797   4.343   1.889   3.165
 6278TIP3    H118798   4.436   1.899   3.186
 6278TIP3    H218799   4.308   1.979   3.167
 6279TIP3   OH218800   2.483   5.664   4.192
 6279TIP3    H118801   2.549   5.734   4.188
 6279TIP3    H218802   2.518   5.594   4.138
 6280TIP3   OH218803   3.735   4.602   3.658
 6280TIP3    H118804   3.736   4.673   3.722
 6280TIP3    H218805   3.645   4.571   3.657
 6281TIP3   OH218806   6.033   0.239   2.697
 6281TIP3    H118807   5.950   0.192   2.694
 6281TIP3    H218808   6.065   0.238   2.607
 6282TIP3   OH218809   0.261   5.977   1.585
 6282TIP3    H118810   0.192   5.926   1.540
 6282TIP3    H218811   0.298   6.032   1.517
 6283TIP3   OH218812   2.180   2.662   0.132
 6283TIP3    H118813   2.231   2.683   0.210
 6283TIP3    H218814   2.090   2.651   0.163
 6284TIP3   OH218815   5.996   1.990   5.574
 6284TIP3    H118816   5.962   1.900   5.578
 6284TIP3    H218817   5.950   2.036   5.645
 6285TIP3   OH218818   4.914   0.710   4.490
 6285TIP3    H118819   4.878   0.782   4.439
 6285TIP3    H218820   4.848   0.692   4.557
 6286TIP3   OH218821   5.401   4.417   0.909
 6286TIP3    H118822   5.418   4.335   0.863
 6286TIP3    H218823   5.321   4.450   0.869
 6287TIP3   OH218824   0.606   1.121   0.287
 6287TIP3    H118825   0.568   1.180   0.222
 6287TIP3    H218826   0.597   1.169   0.370
 6288TIP3   OH218827   2.275   0.377   4.756
 6288TIP3    H118828   2.253   0.318   4.684
 6288TIP3    H218829   2.247   0.332   4.835
 6289TIP3   OH218830   0.442   5.383   5.582
 6289TIP3    H118831   0.507   5.443   5.546
 6289TIP3    H218832   0.364   5.437   5.595
 6290TIP3   OH218833   3.775   2.623   5.687
 6290TIP3    H118834   3.789   2.538   5.729
 6290TIP3    H218835   3.733   2.603   5.604
 6291TIP3   OH218836   5.404   4.848   4.973
 6291TIP3    H118837   5.357   4.906   5.033
 6291TIP3    H218838   5.354   4.853   4.891
 6292TIP3   OH218839   5.456   5.444   3.415
 6292TIP3    H118840   5.395   5.396   3.472
 6292TIP3    H218841   5.483   5.379   3.350
 6293TIP3   OH218842   1.723   0.286   1.142
 6293TIP3    H118843   1.810   0.284   1.102
 6293TIP3    H218844   1.685   0.200   1.123
 6294TIP3   OH218845   2.981   4.069   2.845
 6294TIP3    H118846   3.054   4.129   2.835
 6294TIP3    H218847   2.957   4.044   2.756
 6295TIP3   OH218848   6.068   1.397   5.041
 6295TIP3    H118849   5.983   1.433   5.016
 6295TIP3    H218850   6.072   1.311   4.999
 6296TIP3   OH218851   6.835   6.429   3.100
 6296TIP3    H118852   6.850   6.366   3.030
 6296TIP3    H218853   6.904   6.494   3.089
 6297TIP3   OH218854   4.764   3.556   2.288
 6297TIP3    H118855   4.762   3.599   2.203
 6297TIP3    H218856   4.827   3.485   2.279
 6298TIP3   OH218857   5.167   3.324   2.589
 6298TIP3    H118858   5.145   3.390   2.655
 6298TIP3    H218859   5.256   3.297   2.610
 6299TIP3   OH218860   0.726   0.204   2.009
 6299TIP3    H118861   0.706   0.237   2.096
 6299TIP3    H218862   0.782   0.271   1.970
 6300TIP3   OH218863   3.511   1.248   2.090
 6300TIP3    H118864   3.524   1.242   2.184
 6300TIP3    H218865   3.575   1.313   2.061
 6301TIP3   OH218866   5.993   5.480   3.247
 6301TIP3    H118867   5.990   5.385   3.259
 6301TIP3    H218868   5.911   5.512   3.285
 6302TIP3   OH218869   4.989   5.483   5.284
 6302TIP3    H118870   5.061   5.459   5.342
 6302TIP3    H218871   5.031   5.502   5.200
 6303TIP3   OH218872   2.305   0.812   1.496
 6303TIP3    H118873   2.271   0.819   1.407
 6303TIP3    H218874   2.252   0.743   1.537
 6304TIP3   OH218875   2.585   1.187   4.963
 6304TIP3    H118876   2.583   1.278   4.935
 6304TIP3    H218877   2.539   1.187   5.047
 6305TIP3   OH218878   2.070   0.411   5.755
 6305TIP3    H118879   2.090   0.369   5.671
 6305TIP3    H218880   2.111   0.498   5.748
 6306TIP3   OH218881   2.923   4.243   0.748
 6306TIP3    H118882   2.929   4.256   0.843
 6306TIP3    H218883   2.853   4.179   0.737
 6307TIP3   OH218884   0.725   5.855   3.384
 6307TIP3    H118885   0.640   5.883   3.350
 6307TIP3    H218886   0.717   5.760   3.393
 6308TIP3   OH218887   3.482   0.417   1.877
 6308TIP3    H118888   3.535   0.355   1.927
 6308TIP3    H218889   3.403   0.430   1.930
 6309TIP3   OH218890   3.761   1.097   4.952
 6309TIP3    H118891   3.783   1.188   4.970
 6309TIP3    H218892   3.829   1.067   4.891
 6310TIP3   OH218893   6.747   5.630   5.335
 6310TIP3    H118894   6.797   5.579   5.399
 6310TIP3    H218895   6.684   5.568   5.298
 6311TIP3   OH218896   5.485   5.129   4.123
 6311TIP3    H118897   5.456   5.052   4.074
 6311TIP3    H218898   5.573   5.147   4.091
 6312TIP3   OH218899   6.091   6.677   2.895
 6312TIP3    H118900   6.126   6.589   2.883
 6312TIP3    H218901   6.160   6.735   2.862
 6313TIP3   OH218902   2.801   1.745   3.835
 6313TIP3    H118903   2.769   1.712   3.751
 6313TIP3    H218904   2.840   1.669   3.878
 6314TIP3   OH218905   0.518   0.735   3.461
 6314TIP3    H118906   0.509   0.642   3.482
 6314TIP3    H218907   0.575   0.770   3.529
 6315TIP3   OH218908   4.598   0.967   3.057
 6315TIP3    H118909   4.635   0.979   2.969
 6315TIP3    H218910   4.649   1.025   3.113
 6316TIP3   OH218911   4.078   4.555   2.093
 6316TIP3    H118912   4.118   4.641   2.108
 6316TIP3    H218913   4.008   4.572   2.030
 6317TIP3   OH218914   0.934   0.893   1.650
 6317TIP3    H118915   0.949   0.949   1.574
 6317TIP3    H218916   0.888   0.817   1.615
 6318TIP3   OH218917   1.704   2.318   2.865
 6318TIP3    H118918   1.799   2.308   2.877
 6318TIP3    H218919   1.671   2.228   2.859
 6319TIP3   OH218920   6.738   4.365   3.610
 6319TIP3    H118921   6.823   4.349   3.650
 6319TIP3    H218922   6.722   4.458   3.625
 6320TIP3   OH218923   4.991   6.019   2.698
 6320TIP3    H118924   4.929   6.077   2.653
 6320TIP3    H218925   5.014   6.067   2.778
 6321TIP3   OH218926   4.315   3.294   3.357
 6321TIP3    H118927   4.396   3.243   3.368
 6321TIP3    H218928   4.272   3.254   3.282
 6322TIP3   OH218929   2.424   0.899   5.050
 6322TIP3    H118930   2.358   0.927   5.113
 6322TIP3    H218931   2.440   0.977   4.996
 6323TIP3   OH218932   1.694   3.121   1.023
 6323TIP3    H118933   1.763   3.182   0.997
 6323TIP3    H218934   1.728   3.077   1.101
 6324TIP3   OH218935   6.093   4.676   1.658
 6324TIP3    H118936   6.134   4.593   1.636
 6324TIP3    H218937   6.031   4.692   1.587
 6325TIP3   OH218938   5.632   1.935   2.510
 6325TIP3    H118939   5.581   2.004   2.551
 6325TIP3    H218940   5.631   1.956   2.416
 6326TIP3   OH218941   2.902   1.962   1.996
 6326TIP3    H118942   2.904   2.055   2.022
 6326TIP3    H218943   2.829   1.956   1.935
 6327TIP3   OH218944   6.070   5.614   4.636
 6327TIP3    H118945   5.990   5.600   4.585
 6327TIP3    H218946   6.086   5.708   4.629
 6328TIP3   OH218947   3.990   0.179   5.699
 6328TIP3    H118948   3.902   0.216   5.705
 6328TIP3    H218949   4.032   0.228   5.628
 6329TIP3   OH218950   7.081   4.229   2.873
 6329TIP3    H118951   7.015   4.298   2.877
 6329TIP3    H218952   7.048   4.160   2.929
 6330TIP3   OH218953   5.845   5.615   4.466
 6330TIP3    H118954   5.884   5.610   4.379
 6330TIP3    H218955   5.758   5.575   4.456
 6331TIP3   OH218956   3.774   5.813   2.528
 6331TIP3    H118957   3.780   5.908   2.516
 6331TIP3    H218958   3.805   5.776   2.445
 6332TIP3   OH218959   3.179   4.259   2.764
 6332TIP3    H118960   3.213   4.322   2.828
 6332TIP3    H218961   3.225   4.279   2.683
 6333TIP3   OH218962   1.447   0.107   3.624
 6333TIP3    H118963   1.456   0.043   3.553
 6333TIP3    H218964   1.472   0.059   3.703
 6334TIP3   OH218965   5.968   2.245   3.048
 6334TIP3    H118966   5.903   2.282   2.989
 6334TIP3    H218967   6.052   2.264   3.006
 6335TIP3   OH218968   1.667   1.104   0.372
 6335TIP3    H118969   1.758   1.081   0.389
 6335TIP3    H218970   1.668   1.199   0.361
 6336TIP3   OH218971   7.003   0.836   0.995
 6336TIP3    H118972   6.957   0.753   1.006
 6336TIP3    H218973   7.064   0.821   0.923
 6337TIP3   OH218974   2.864   4.426   0.104
 6337TIP3    H118975   2.946   4.394   0.066
 6337TIP3    H218976   2.800   4.419   0.033
 6338TIP3   OH218977   5.589   1.667   2.173
 6338TIP3    H118978   5.626   1.719   2.102
 6338TIP3    H218979   5.525   1.725   2.213
 6339TIP3   OH218980   6.910   1.132   0.238
 6339TIP3    H118981   6.902   1.046   0.197
 6339TIP3    H218982   6.824   1.148   0.276
 6340TIP3   OH218983   2.897   3.220   0.784
 6340TIP3    H118984   2.923   3.131   0.761
 6340TIP3    H218985   2.814   3.233   0.739
 6341TIP3   OH218986   2.009   6.662   0.693
 6341TIP3    H118987   2.060   6.631   0.618
 6341TIP3    H218988   1.923   6.682   0.657
 6342TIP3   OH218989   4.623   3.868   4.565
 6342TIP3    H118990   4.620   3.811   4.489
 6342TIP3    H218991   4.676   3.821   4.629
 6343TIP3   OH218992   6.590   3.414   4.784
 6343TIP3    H118993   6.614   3.381   4.870
 6343TIP3    H218994   6.662   3.472   4.759
 6344TIP3   OH218995   7.000   4.025   3.028
 6344TIP3    H118996   6.943   3.951   3.006
 6344TIP3    H218997   7.082   3.984   3.056
 6345TIP3   OH218998   6.007   2.169   3.322
 6345TIP3    H118999   6.085   2.208   3.361
 6345TIP3    H219000   6.003   2.206   3.234
 6346TIP3   OH219001   2.903   2.717   2.464
 6346TIP3    H119002   2.879   2.643   2.520
 6346TIP3    H219003   2.949   2.777   2.522
 6347TIP3   OH219004   5.954   2.473   1.908
 6347TIP3    H119005   5.982   2.540   1.845
 6347TIP3    H219006   5.981   2.390   1.869
 6348TIP3   OH219007   1.609   6.475   0.597
 6348TIP3    H119008   1.577   6.463   0.686
 6348TIP3    H219009   1.557   6.414   0.544
 6349TIP3   OH219010   4.939  -0.022   2.944
 6349TIP3    H119011   4.913   0.039   2.874
 6349TIP3    H219012   5.008  -0.076   2.905
 6350TIP3   OH219013   5.445   1.689   2.552
 6350TIP3    H119014   5.465   1.766   2.498
 6350TIP3    H219015   5.487   1.707   2.636
 6351TIP3   OH219016   2.804   0.739   1.420
 6351TIP3    H119017   2.855   0.659   1.435
 6351TIP3    H219018   2.847   0.805   1.474
 6352TIP3   OH219019   4.453   0.829   1.122
 6352TIP3    H119020   4.512   0.843   1.048
 6352TIP3    H219021   4.485   0.888   1.190
 6353TIP3   OH219022   2.036   4.078   2.323
 6353TIP3    H119023   1.974   4.022   2.278
 6353TIP3    H219024   2.006   4.167   2.305
 6354TIP3   OH219025   4.866   1.369   0.941
 6354TIP3    H119026   4.784   1.355   0.893
 6354TIP3    H219027   4.841   1.421   1.017
 6355TIP3   OH219028   7.058   3.708   0.237
 6355TIP3    H119029   7.138   3.694   0.286
 6355TIP3    H219030   7.022   3.790   0.271
 6356TIP3   OH219031   5.864   1.538   4.946
 6356TIP3    H119032   5.785   1.505   4.903
 6356TIP3    H219033   5.831   1.582   5.025
 6357TIP3   OH219034   5.222   1.898   5.803
 6357TIP3    H119035   5.262   1.924   5.886
 6357TIP3    H219036   5.263   1.815   5.781
 6358TIP3   OH219037   3.903   6.093   3.825
 6358TIP3    H119038   3.902   6.001   3.796
 6358TIP3    H219039   3.839   6.096   3.896
 6359TIP3   OH219040   5.104   1.553   2.240
 6359TIP3    H119041   5.146   1.610   2.175
 6359TIP3    H219042   5.130   1.590   2.324
 6360TIP3   OH219043   5.689   0.153   2.245
 6360TIP3    H119044   5.766   0.173   2.191
 6360TIP3    H219045   5.629   0.108   2.186
 6361TIP3   OH219046   2.566   3.910   3.571
 6361TIP3    H119047   2.624   3.885   3.642
 6361TIP3    H219048   2.479   3.916   3.612
 6362TIP3   OH219049   4.411   6.060   5.726
 6362TIP3    H119050   4.425   5.989   5.663
 6362TIP3    H219051   4.498   6.077   5.762
 6363TIP3   OH219052   3.176   0.058   4.555
 6363TIP3    H119053   3.175   0.066   4.650
 6363TIP3    H219054   3.188  -0.036   4.539
 6364TIP3   OH219055   2.202   3.338   3.557
 6364TIP3    H119056   2.130   3.277   3.573
 6364TIP3    H219057   2.264   3.321   3.628
 6365TIP3   OH219058   6.699   2.692   3.939
 6365TIP3    H119059   6.755   2.732   3.873
 6365TIP3    H219060   6.704   2.598   3.921
 6366TIP3   OH219061   1.588   4.979   4.655
 6366TIP3    H119062   1.566   5.070   4.676
 6366TIP3    H219063   1.630   4.946   4.735
 6367TIP3   OH219064   7.026   0.357   4.487
 6367TIP3    H119065   6.948   0.408   4.512
 6367TIP3    H219066   7.068   0.336   4.570
 6368TIP3   OH219067   0.595   0.219   4.703
 6368TIP3    H119068   0.543   0.277   4.757
 6368TIP3    H219069   0.573   0.131   4.734
 6369TIP3   OH219070   0.317   2.870   4.195
 6369TIP3    H119071   0.305   2.861   4.290
 6369TIP3    H219072   0.231   2.894   4.162
 6370TIP3   OH219073   2.537   0.802   2.040
 6370TIP3    H119074   2.559   0.716   2.077
 6370TIP3    H219075   2.618   0.853   2.049
 6371TIP3   OH219076   2.488   6.128   0.307
 6371TIP3    H119077   2.439   6.081   0.374
 6371TIP3    H219078   2.506   6.062   0.240
 6372TIP3   OH219079   5.709   2.065   4.483
 6372TIP3    H119080   5.742   2.111   4.560
 6372TIP3    H219081   5.666   2.133   4.431
 6373TIP3   OH219082   3.359   5.938   0.983
 6373TIP3    H119083   3.419   5.896   1.045
 6373TIP3    H219084   3.416   5.970   0.913
 6374TIP3   OH219085   1.946   1.003   1.874
 6374TIP3    H119086   1.927   0.925   1.822
 6374TIP3    H219087   2.036   1.027   1.849
 6375TIP3   OH219088   3.039   4.951   0.427
 6375TIP3    H119089   3.098   4.911   0.492
 6375TIP3    H219090   2.961   4.896   0.430
 6376TIP3   OH219091   1.975   5.244   2.795
 6376TIP3    H119092   1.973   5.214   2.705
 6376TIP3    H219093   1.928   5.327   2.794
 6377TIP3   OH219094   4.047   0.486   3.719
 6377TIP3    H119095   3.961   0.469   3.758
 6377TIP3    H219096   4.042   0.576   3.689
 6378TIP3   OH219097   5.157   1.307   3.659
 6378TIP3    H119098   5.172   1.254   3.581
 6378TIP3    H219099   5.242   1.348   3.676
 6379TIP3   OH219100   2.673   5.858   2.732
 6379TIP3    H119101   2.658   5.796   2.803
 6379TIP3    H219102   2.602   5.842   2.671
 6380TIP3   OH219103   4.868   0.602   4.972
 6380TIP3    H119104   4.920   0.528   4.941
 6380TIP3    H219105   4.778   0.579   4.951
 6381TIP3   OH219106   4.298   6.022   3.140
 6381TIP3    H119107   4.326   5.944   3.092
 6381TIP3    H219108   4.203   6.024   3.130
 6382TIP3   OH219109   6.767   5.346   5.078
 6382TIP3    H119110   6.693   5.406   5.095
 6382TIP3    H219111   6.811   5.384   5.002
 6383TIP3   OH219112   5.371   3.273   1.539
 6383TIP3    H119113   5.432   3.203   1.515
 6383TIP3    H219114   5.332   3.243   1.621
 6384TIP3   OH219115   1.636   0.542   0.402
 6384TIP3    H119116   1.616   0.634   0.420
 6384TIP3    H219117   1.729   0.541   0.383
 6385TIP3   OH219118   6.108   0.150   4.799
 6385TIP3    H119119   6.141   0.239   4.808
 6385TIP3    H219120   6.187   0.097   4.787
 6386TIP3   OH219121   0.875   2.690   3.772
 6386TIP3    H119122   0.866   2.654   3.683
 6386TIP3    H219123   0.966   2.721   3.776
 6387TIP3   OH219124   5.167   1.068   0.781
 6387TIP3    H119125   5.105   0.995   0.777
 6387TIP3    H219126   5.152   1.109   0.866
 6388TIP3   OH219127   5.515   0.293   4.593
 6388TIP3    H119128   5.425   0.316   4.616
 6388TIP3    H219129   5.519   0.303   4.498
 6389TIP3   OH219130   4.012   4.138   3.791
 6389TIP3    H119131   3.917   4.130   3.779
 6389TIP3    H219132   4.022   4.195   3.867
 6390TIP3   OH219133   6.744   3.084   3.847
 6390TIP3    H119134   6.800   3.162   3.842
 6390TIP3    H219135   6.655   3.119   3.840
 6391TIP3   OH219136   0.249   2.156   4.343
 6391TIP3    H119137   0.304   2.234   4.349
 6391TIP3    H219138   0.293   2.100   4.279
 6392TIP3   OH219139   1.623   4.998   1.676
 6392TIP3    H119140   1.618   5.092   1.692
 6392TIP3    H219141   1.563   4.983   1.603
 6393TIP3   OH219142   5.022   4.702   1.683
 6393TIP3    H119143   5.085   4.732   1.747
 6393TIP3    H219144   5.063   4.719   1.598
 6394TIP3   OH219145   3.898   4.474   4.511
 6394TIP3    H119146   3.925   4.513   4.427
 6394TIP3    H219147   3.806   4.500   4.521
 6395TIP3   OH219148   7.082   5.301   3.969
 6395TIP3    H119149   7.066   5.374   3.909
 6395TIP3    H219150   7.111   5.229   3.912
 6396TIP3   OH219151   3.122   2.189   3.223
 6396TIP3    H119152   3.207   2.232   3.213
 6396TIP3    H219153   3.143   2.097   3.239
 6397TIP3   OH219154   2.125   0.210   0.330
 6397TIP3    H119155   2.052   0.164   0.288
 6397TIP3    H219156   2.188   0.224   0.259
 6398TIP3   OH219157   0.174   0.109   1.745
 6398TIP3    H119158   0.141   0.188   1.702
 6398TIP3    H219159   0.269   0.122   1.750
 6399TIP3   OH219160   4.059   6.576   0.992
 6399TIP3    H119161   4.029   6.510   0.929
 6399TIP3    H219162   4.144   6.605   0.957
 6400TIP3   OH219163   6.319   6.475   5.882
 6400TIP3    H119164   6.368   6.536   5.937
 6400TIP3    H219165   6.384   6.435   5.825
 6401TIP3   OH219166   6.140   4.221   2.169
 6401TIP3    H119167   6.178   4.268   2.244
 6401TIP3    H219168   6.206   4.230   2.100
 6402TIP3   OH219169   6.881   5.148   3.141
 6402TIP3    H119170   6.889   5.124   3.233
 6402TIP3    H219171   6.929   5.080   3.094
 6403TIP3   OH219172   2.362   4.561   5.203
 6403TIP3    H119173   2.349   4.631   5.139
 6403TIP3    H219174   2.405   4.491   5.154
 6404TIP3   OH219175   3.203   5.230   5.382
 6404TIP3    H119176   3.227   5.189   5.299
 6404TIP3    H219177   3.284   5.228   5.433
 6405TIP3   OH219178   6.160   4.142   4.987
 6405TIP3    H119179   6.200   4.071   4.937
 6405TIP3    H219180   6.110   4.191   4.922
 6406TIP3   OH219181   5.168   1.681   2.455
 6406TIP3    H119182   5.132   1.760   2.495
 6406TIP3    H219183   5.259   1.679   2.484
 6407TIP3   OH219184   3.329   6.279   2.086
 6407TIP3    H119185   3.312   6.373   2.091
 6407TIP3    H219186   3.257   6.240   2.136
 6408TIP3   OH219187   2.734   1.172   3.840
 6408TIP3    H119188   2.806   1.109   3.841
 6408TIP3    H219189   2.746   1.223   3.921
 6409TIP3   OH219190   5.582   4.863   5.829
 6409TIP3    H119191   5.612   4.914   5.904
 6409TIP3    H219192   5.586   4.772   5.859
 6410TIP3   OH219193   2.731   0.029   3.726
 6410TIP3    H119194   2.698   0.006   3.813
 6410TIP3    H219195   2.803   0.089   3.743
 6411TIP3   OH219196   6.991   4.973   1.296
 6411TIP3    H119197   7.048   5.024   1.353
 6411TIP3    H219198   7.014   4.882   1.315
 6412TIP3   OH219199   3.519   2.977   0.247
 6412TIP3    H119200   3.479   3.064   0.260
 6412TIP3    H219201   3.609   2.996   0.223
 6413TIP3   OH219202   2.090   0.121   2.250
 6413TIP3    H119203   2.089   0.108   2.344
 6413TIP3    H219204   2.173   0.165   2.232
 6414TIP3   OH219205   3.807   2.771   1.258
 6414TIP3    H119206   3.891   2.756   1.302
 6414TIP3    H219207   3.804   2.707   1.188
 6415TIP3   OH219208   0.374   5.591   3.196
 6415TIP3    H119209   0.399   5.501   3.174
 6415TIP3    H219210   0.293   5.582   3.246
 6416TIP3   OH219211   4.974   4.926   1.921
 6416TIP3    H119212   4.967   4.995   1.988
 6416TIP3    H219213   5.065   4.932   1.892
 6417TIP3   OH219214   4.537   0.363   4.263
 6417TIP3    H119215   4.528   0.291   4.326
 6417TIP3    H219216   4.454   0.410   4.267
 6418TIP3   OH219217   3.225   2.696   3.403
 6418TIP3    H119218   3.316   2.726   3.414
 6418TIP3    H219219   3.223   2.610   3.445
 6419TIP3   OH219220   6.898   0.261   1.806
 6419TIP3    H119221   6.908   0.204   1.882
 6419TIP3    H219222   6.804   0.260   1.787
 6420TIP3   OH219223   3.229   2.542   5.840
 6420TIP3    H119224   3.322   2.550   5.860
 6420TIP3    H219225   3.225   2.477   5.769
 6421TIP3   OH219226   3.817   3.122   0.558
 6421TIP3    H119227   3.736   3.169   0.536
 6421TIP3    H219228   3.850   3.091   0.474
 6422TIP3   OH219229   0.758   2.569   0.324
 6422TIP3    H119230   0.854   2.563   0.319
 6422TIP3    H219231   0.736   2.646   0.273
 6423TIP3   OH219232   0.837   6.650   5.179
 6423TIP3    H119233   0.791   6.647   5.095
 6423TIP3    H219234   0.820   6.738   5.212
 6424TIP3   OH219235   1.534   1.154   2.121
 6424TIP3    H119236   1.513   1.213   2.194
 6424TIP3    H219237   1.629   1.163   2.109
 6425TIP3   OH219238   6.962   4.261   1.456
 6425TIP3    H119239   6.993   4.172   1.475
 6425TIP3    H219240   6.964   4.267   1.360
 6426TIP3   OH219241   2.722   0.147   2.784
 6426TIP3    H119242   2.652   0.099   2.829
 6426TIP3    H219243   2.741   0.093   2.707
 6427TIP3   OH219244   3.597   1.365   0.212
 6427TIP3    H119245   3.621   1.278   0.242
 6427TIP3    H219246   3.624   1.367   0.120
 6428TIP3   OH219247   0.947   5.605   5.329
 6428TIP3    H119248   0.980   5.517   5.346
 6428TIP3    H219249   0.960   5.651   5.412
 6429TIP3   OH219250   6.274   5.850   2.530
 6429TIP3    H119251   6.244   5.821   2.444
 6429TIP3    H219252   6.321   5.774   2.565
 6430TIP3   OH219253   6.595   1.776   0.592
 6430TIP3    H119254   6.510   1.819   0.601
 6430TIP3    H219255   6.630   1.808   0.509
 6431TIP3   OH219256   1.218   1.677   0.264
 6431TIP3    H119257   1.141   1.620   0.264
 6431TIP3    H219258   1.219   1.715   0.177
 6432TIP3   OH219259   6.397   5.838   5.480
 6432TIP3    H119260   6.312   5.803   5.509
 6432TIP3    H219261   6.462   5.779   5.517
 6433TIP3   OH219262   1.905   4.091   0.061
 6433TIP3    H119263   1.882   4.183   0.066
 6433TIP3    H219264   1.848   4.055  -0.007
 6434TIP3   OH219265   0.135   2.906   0.853
 6434TIP3    H119266   0.061   2.846   0.845
 6434TIP3    H219267   0.211   2.855   0.826
 6435TIP3   OH219268   3.615   3.994   0.362
 6435TIP3    H119269   3.672   3.934   0.409
 6435TIP3    H219270   3.618   4.075   0.413
 6436TIP3   OH219271   2.609   4.743   0.630
 6436TIP3    H119272   2.553   4.772   0.702
 6436TIP3    H219273   2.548   4.717   0.561
 6437TIP3   OH219274   3.456   2.544   3.308
 6437TIP3    H119275   3.547   2.518   3.290
 6437TIP3    H219276   3.443   2.622   3.255
 6438TIP3   OH219277   1.405   5.995   4.623
 6438TIP3    H119278   1.383   6.086   4.601
 6438TIP3    H219279   1.476   6.003   4.687
 6439TIP3   OH219280   3.545   0.369   3.295
 6439TIP3    H119281   3.465   0.418   3.276
 6439TIP3    H219282   3.595   0.426   3.355
 6440TIP3   OH219283   0.028   0.433   1.914
 6440TIP3    H119284   0.119   0.437   1.945
 6440TIP3    H219285   0.028   0.363   1.849
 6441TIP3   OH219286   2.745   2.346   3.593
 6441TIP3    H119287   2.792   2.267   3.621
 6441TIP3    H219288   2.790   2.373   3.512
 6442TIP3   OH219289   5.373   5.391   2.370
 6442TIP3    H119290   5.376   5.355   2.281
 6442TIP3    H219291   5.461   5.427   2.384
 6443TIP3   OH219292   3.299   0.904   2.337
 6443TIP3    H119293   3.235   0.863   2.278
 6443TIP3    H219294   3.376   0.848   2.332
 6444TIP3   OH219295   2.226   0.907   0.866
 6444TIP3    H119296   2.170   0.984   0.859
 6444TIP3    H219297   2.177   0.846   0.921
 6445TIP3   OH219298   2.653   5.709   2.956
 6445TIP3    H119299   2.673   5.616   2.958
 6445TIP3    H219300   2.595   5.723   3.031
 6446TIP3   OH219301   5.497   6.144   0.869
 6446TIP3    H119302   5.500   6.185   0.783
 6446TIP3    H219303   5.412   6.099   0.871
 6447TIP3   OH219304   5.627   5.739   4.300
 6447TIP3    H119305   5.642   5.834   4.300
 6447TIP3    H219306   5.550   5.727   4.356
 6448TIP3   OH219307   6.973   1.269   4.268
 6448TIP3    H119308   6.961   1.174   4.273
 6448TIP3    H219309   6.884   1.305   4.264
 6449TIP3   OH219310   0.081   2.488   5.370
 6449TIP3    H119311  -0.006   2.499   5.407
 6449TIP3    H219312   0.065   2.468   5.278
 6450TIP3   OH219313   5.223   3.833   3.593
 6450TIP3    H119314   5.226   3.905   3.531
 6450TIP3    H219315   5.207   3.875   3.678
 6451TIP3   OH219316   6.040   2.544   5.484
 6451TIP3    H119317   6.041   2.634   5.453
 6451TIP3    H219318   6.131   2.514   5.474
 6452TIP3   OH219319   3.219   1.212   0.037
 6452TIP3    H119320   3.190   1.158   0.111
 6452TIP3    H219321   3.263   1.150  -0.021
 6453TIP3   OH219322   1.746   0.222   0.597
 6453TIP3    H119323   1.752   0.175   0.514
 6453TIP3    H219324   1.736   0.153   0.663
 6454TIP3   OH219325   6.145   1.201   5.685
 6454TIP3    H119326   6.135   1.254   5.764
 6454TIP3    H219327   6.075   1.230   5.627
 6455TIP3   OH219328   2.851   3.258   1.091
 6455TIP3    H119329   2.813   3.192   1.033
 6455TIP3    H219330   2.871   3.210   1.171
 6456TIP3   OH219331   6.281   5.466   4.450
 6456TIP3    H119332   6.340   5.526   4.405
 6456TIP3    H219333   6.246   5.517   4.524
 6457TIP3   OH219334   2.720   3.446   0.637
 6457TIP3    H119335   2.807   3.453   0.597
 6457TIP3    H219336   2.679   3.372   0.591
 6458TIP3   OH219337   6.296   4.786   0.317
 6458TIP3    H119338   6.215   4.812   0.274
 6458TIP3    H219339   6.358   4.773   0.245
 6459TIP3   OH219340   4.672   3.536   0.517
 6459TIP3    H119341   4.732   3.561   0.447
 6459TIP3    H219342   4.588   3.575   0.491
 6460TIP3   OH219343   5.577   3.164   5.289
 6460TIP3    H119344   5.562   3.069   5.284
 6460TIP3    H219345   5.547   3.197   5.204
 6461TIP3   OH219346   6.065   0.488   2.779
 6461TIP3    H119347   6.038   0.396   2.780
 6461TIP3    H219348   6.158   0.486   2.756
 6462TIP3   OH219349   0.809   4.295   0.824
 6462TIP3    H119350   0.809   4.391   0.820
 6462TIP3    H219351   0.768   4.274   0.908
 6463TIP3   OH219352   0.324   2.149   2.106
 6463TIP3    H119353   0.303   2.147   2.013
 6463TIP3    H219354   0.420   2.145   2.110
 6464TIP3   OH219355   3.407   1.875   0.927
 6464TIP3    H119356   3.498   1.847   0.930
 6464TIP3    H219357   3.405   1.945   0.862
 6465TIP3   OH219358   7.120   5.373   3.058
 6465TIP3    H119359   7.169   5.408   3.132
 6465TIP3    H219360   7.172   5.298   3.029
 6466TIP3   OH219361   4.542   5.743   1.947
 6466TIP3    H119362   4.526   5.829   1.908
 6466TIP3    H219363   4.461   5.694   1.931
 6467TIP3   OH219364   2.790   5.030   3.605
 6467TIP3    H119365   2.703   5.070   3.612
 6467TIP3    H219366   2.787   4.957   3.667
 6468TIP3   OH219367   3.241   0.182   0.379
 6468TIP3    H119368   3.183   0.128   0.432
 6468TIP3    H219369   3.273   0.249   0.439
 6469TIP3   OH219370   3.226   5.629   0.395
 6469TIP3    H119371   3.256   5.539   0.391
 6469TIP3    H219372   3.138   5.627   0.357
 6470TIP3   OH219373   2.466   0.037   5.330
 6470TIP3    H119374   2.441  -0.047   5.291
 6470TIP3    H219375   2.540   0.067   5.277
 6471TIP3   OH219376   4.451   1.364   2.425
 6471TIP3    H119377   4.378   1.416   2.458
 6471TIP3    H219378   4.410   1.289   2.381
 6472TIP3   OH219379   4.180   5.950   1.905
 6472TIP3    H119380   4.276   5.959   1.904
 6472TIP3    H219381   4.152   5.979   1.818
 6473TIP3   OH219382   7.116   4.763   3.189
 6473TIP3    H119383   7.184   4.696   3.197
 6473TIP3    H219384   7.164   4.845   3.188
 6474TIP3   OH219385   3.672   3.179   0.064
 6474TIP3    H119386   3.623   3.176  -0.018
 6474TIP3    H219387   3.760   3.150   0.040
 6475TIP3   OH219388   1.017   4.705   4.296
 6475TIP3    H119389   1.045   4.614   4.303
 6475TIP3    H219390   0.995   4.730   4.386
 6476TIP3   OH219391   4.845   2.152   0.692
 6476TIP3    H119392   4.901   2.075   0.698
 6476TIP3    H219393   4.792   2.137   0.614
 6477TIP3   OH219394   6.447   4.173   2.649
 6477TIP3    H119395   6.536   4.171   2.685
 6477TIP3    H219396   6.403   4.098   2.690
 6478TIP3   OH219397   0.764   5.394   0.512
 6478TIP3    H119398   0.746   5.309   0.552
 6478TIP3    H219399   0.778   5.374   0.419
 6479TIP3   OH219400   4.428   5.789   0.216
 6479TIP3    H119401   4.457   5.849   0.285
 6479TIP3    H219402   4.460   5.703   0.244
 6480TIP3   OH219403   5.913   3.090   4.448
 6480TIP3    H119404   5.973   3.122   4.381
 6480TIP3    H219405   5.940   3.135   4.528
 6481TIP3   OH219406   3.187   0.153   1.097
 6481TIP3    H119407   3.260   0.105   1.136
 6481TIP3    H219408   3.218   0.180   1.011
 6482TIP3   OH219409   0.493   6.696   0.327
 6482TIP3    H119410   0.412   6.645   0.335
 6482TIP3    H219411   0.486   6.738   0.241
 6483TIP3   OH219412   4.722   5.394   5.030
 6483TIP3    H119413   4.649   5.333   5.015
 6483TIP3    H219414   4.754   5.414   4.942
 6484TIP3   OH219415   4.934   1.718   4.194
 6484TIP3    H119416   4.880   1.678   4.125
 6484TIP3    H219417   4.982   1.787   4.149
 6485TIP3   OH219418   2.123   5.910   1.313
 6485TIP3    H119419   2.164   5.996   1.305
 6485TIP3    H219420   2.064   5.918   1.388
 6486TIP3   OH219421   5.618   2.622   3.344
 6486TIP3    H119422   5.564   2.701   3.341
 6486TIP3    H219423   5.559   2.554   3.377
 6487TIP3   OH219424   0.751   6.267   4.583
 6487TIP3    H119425   0.712   6.190   4.542
 6487TIP3    H219426   0.777   6.237   4.670
 6488TIP3   OH219427   1.796   3.303   5.237
 6488TIP3    H119428   1.808   3.281   5.144
 6488TIP3    H219429   1.867   3.257   5.281
 6489TIP3   OH219430   1.199   1.300   2.157
 6489TIP3    H119431   1.208   1.394   2.141
 6489TIP3    H219432   1.108   1.280   2.133
 6490TIP3   OH219433   3.326   3.400   0.310
 6490TIP3    H119434   3.331   3.443   0.395
 6490TIP3    H219435   3.414   3.407   0.274
 6491TIP3   OH219436   4.276   3.616   0.369
 6491TIP3    H119437   4.327   3.629   0.449
 6491TIP3    H219438   4.209   3.685   0.372
 6492TIP3   OH219439   4.603   1.670   3.620
 6492TIP3    H119440   4.586   1.717   3.701
 6492TIP3    H219441   4.682   1.711   3.584
 6493TIP3   OH219442   6.724   0.004   4.168
 6493TIP3    H119443   6.747   0.037   4.082
 6493TIP3    H219444   6.634  -0.028   4.158
 6494TIP3   OH219445   1.548   6.287   4.922
 6494TIP3    H119446   1.571   6.378   4.905
 6494TIP3    H219447   1.507   6.288   5.009
 6495TIP3   OH219448   7.020   0.324   4.947
 6495TIP3    H119449   7.018   0.409   4.991
 6495TIP3    H219450   6.952   0.273   4.990
 6496TIP3   OH219451   4.206   6.601   5.242
 6496TIP3    H119452   4.254   6.543   5.183
 6496TIP3    H219453   4.270   6.664   5.272
 6497TIP3   OH219454   3.678   2.844   2.888
 6497TIP3    H119455   3.604   2.897   2.859
 6497TIP3    H219456   3.651   2.754   2.870
 6498TIP3   OH219457   6.520   2.308   4.101
 6498TIP3    H119458   6.495   2.368   4.171
 6498TIP3    H219459   6.481   2.224   4.125
 6499TIP3   OH219460   1.710   0.108   5.681
 6499TIP3    H119461   1.713   0.073   5.592
 6499TIP3    H219462   1.744   0.197   5.673
 6500TIP3   OH219463   5.758   5.366   4.219
 6500TIP3    H119464   5.683   5.340   4.272
 6500TIP3    H219465   5.822   5.297   4.231
 6501TIP3   OH219466   2.686   3.687   2.638
 6501TIP3    H119467   2.604   3.671   2.590
 6501TIP3    H219468   2.684   3.780   2.659
 6502TIP3   OH219469   1.089   5.295   1.067
 6502TIP3    H119470   1.019   5.280   1.131
 6502TIP3    H219471   1.100   5.390   1.066
 6503TIP3   OH219472   3.678   2.666   4.086
 6503TIP3    H119473   3.595   2.698   4.122
 6503TIP3    H219474   3.744   2.697   4.148
 6504TIP3   OH219475   5.831   4.078   5.249
 6504TIP3    H119476   5.925   4.072   5.267
 6504TIP3    H219477   5.826   4.099   5.156
 6505TIP3   OH219478   3.637   5.940   3.975
 6505TIP3    H119479   3.638   5.863   3.919
 6505TIP3    H219480   3.560   5.990   3.947
 6506TIP3   OH219481   2.026   2.397   1.676
 6506TIP3    H119482   1.995   2.448   1.751
 6506TIP3    H219483   2.057   2.314   1.714
 6507TIP3   OH219484   5.485   0.768   1.303
 6507TIP3    H119485   5.491   0.818   1.384
 6507TIP3    H219486   5.417   0.812   1.252
 6508TIP3   OH219487   4.380   5.434   4.195
 6508TIP3    H119488   4.401   5.517   4.237
 6508TIP3    H219489   4.380   5.454   4.101
 6509TIP3   OH219490   2.499   5.985   3.122
 6509TIP3    H119491   2.498   6.031   3.037
 6509TIP3    H219492   2.475   6.052   3.186
 6510TIP3   OH219493   3.868   2.137   0.237
 6510TIP3    H119494   3.898   2.079   0.167
 6510TIP3    H219495   3.813   2.202   0.193
 6511TIP3   OH219496   5.891   4.641   2.994
 6511TIP3    H119497   5.911   4.662   3.085
 6511TIP3    H219498   5.911   4.548   2.986
 6512TIP3   OH219499   6.671   5.994   4.926
 6512TIP3    H119500   6.645   5.910   4.963
 6512TIP3    H219501   6.593   6.027   4.882
 6513TIP3   OH219502   2.037   1.446   4.976
 6513TIP3    H119503   2.103   1.432   4.908
 6513TIP3    H219504   1.956   1.462   4.927
 6514TIP3   OH219505   1.178   6.686   5.417
 6514TIP3    H119506   1.269   6.679   5.444
 6514TIP3    H219507   1.130   6.702   5.498
 6515TIP3   OH219508   2.749   5.909   4.555
 6515TIP3    H119509   2.659   5.877   4.548
 6515TIP3    H219510   2.755   5.948   4.642
 6516TIP3   OH219511   2.633   2.332   1.551
 6516TIP3    H119512   2.643   2.398   1.620
 6516TIP3    H219513   2.605   2.253   1.598
 6517TIP3   OH219514   3.805   6.597   1.117
 6517TIP3    H119515   3.891   6.589   1.074
 6517TIP3    H219516   3.767   6.509   1.108
 6518TIP3   OH219517   1.366   3.368   0.584
 6518TIP3    H119518   1.345   3.440   0.643
 6518TIP3    H219519   1.421   3.407   0.517
 6519TIP3   OH219520   2.146   5.864   2.369
 6519TIP3    H119521   2.087   5.833   2.300
 6519TIP3    H219522   2.226   5.889   2.323
 6520TIP3   OH219523   5.058   6.620   3.925
 6520TIP3    H119524   5.021   6.699   3.965
 6520TIP3    H219525   5.133   6.597   3.980
 6521TIP3   OH219526   3.813   1.227   4.162
 6521TIP3    H119527   3.909   1.221   4.172
 6521TIP3    H219528   3.783   1.137   4.169
 6522TIP3   OH219529   3.987   1.781   1.618
 6522TIP3    H119530   3.991   1.685   1.610
 6522TIP3    H219531   4.012   1.813   1.532
 6523TIP3   OH219532   5.552   1.983   4.906
 6523TIP3    H119533   5.498   1.966   4.983
 6523TIP3    H219534   5.602   2.062   4.929
 6524TIP3   OH219535   4.502   5.492   2.457
 6524TIP3    H119536   4.466   5.538   2.532
 6524TIP3    H219537   4.584   5.538   2.438
 6525TIP3   OH219538   7.007   4.072   4.022
 6525TIP3    H119539   6.929   4.122   3.997
 6525TIP3    H219540   7.055   4.131   4.080
 6526TIP3   OH219541   2.222   6.157   1.399
 6526TIP3    H119542   2.203   6.213   1.474
 6526TIP3    H219543   2.178   6.200   1.326
 6527TIP3   OH219544   4.028   5.593   5.036
 6527TIP3    H119545   4.078   5.623   5.111
 6527TIP3    H219546   3.990   5.510   5.064
 6528TIP3   OH219547   0.716   3.646   4.156
 6528TIP3    H119548   0.805   3.679   4.153
 6528TIP3    H219549   0.697   3.638   4.250
 6529TIP3   OH219550   0.430   4.247   3.889
 6529TIP3    H119551   0.382   4.263   3.808
 6529TIP3    H219552   0.454   4.334   3.921
 6530TIP3   OH219553   3.871   3.191   4.382
 6530TIP3    H119554   3.804   3.124   4.395
 6530TIP3    H219555   3.928   3.155   4.314
 6531TIP3   OH219556   6.349   0.327   1.988
 6531TIP3    H119557   6.369   0.351   2.078
 6531TIP3    H219558   6.266   0.371   1.969
 6532TIP3   OH219559   4.517   2.489   5.683
 6532TIP3    H119560   4.553   2.506   5.770
 6532TIP3    H219561   4.528   2.395   5.671
 6533TIP3   OH219562   2.884   2.273   4.546
 6533TIP3    H119563   2.803   2.284   4.497
 6533TIP3    H219564   2.907   2.181   4.535
 6534TIP3   OH219565   4.919   1.451   1.533
 6534TIP3    H119566   4.840   1.506   1.536
 6534TIP3    H219567   4.890   1.366   1.565
 6535TIP3   OH219568   0.916   5.395   3.522
 6535TIP3    H119569   0.936   5.367   3.612
 6535TIP3    H219570   0.879   5.483   3.533
 6536TIP3   OH219571   6.092   2.020   1.762
 6536TIP3    H119572   6.008   1.980   1.742
 6536TIP3    H219573   6.151   1.990   1.693
 6537TIP3   OH219574   5.213   3.425   3.944
 6537TIP3    H119575   5.237   3.503   3.895
 6537TIP3    H219576   5.272   3.357   3.911
 6538TIP3   OH219577   0.102   2.216   4.590
 6538TIP3    H119578   0.141   2.208   4.503
 6538TIP3    H219579   0.154   2.283   4.633
 6539TIP3   OH219580   3.094   0.003   2.024
 6539TIP3    H119581   3.101  -0.083   1.982
 6539TIP3    H219582   3.165   0.003   2.089
 6540TIP3   OH219583   3.812   2.873   2.369
 6540TIP3    H119584   3.736   2.922   2.339
 6540TIP3    H219585   3.800   2.864   2.463
 6541TIP3   OH219586   6.779   2.701   3.256
 6541TIP3    H119587   6.807   2.695   3.165
 6541TIP3    H219588   6.844   2.756   3.298
 6542TIP3   OH219589   2.435   1.265   3.871
 6542TIP3    H119590   2.487   1.302   3.800
 6542TIP3    H219591   2.430   1.335   3.936
 6543TIP3   OH219592   6.838   4.766   2.740
 6543TIP3    H119593   6.928   4.778   2.709
 6543TIP3    H219594   6.847   4.714   2.820
 6544TIP3   OH219595   3.713   2.403   4.052
 6544TIP3    H119596   3.704   2.497   4.065
 6544TIP3    H219597   3.716   2.392   3.957
 6545TIP3   OH219598  -0.049   2.494   1.098
 6545TIP3    H119599   0.028   2.538   1.133
 6545TIP3    H219600  -0.016   2.437   1.029
 6546TIP3   OH219601   6.253   2.623   4.438
 6546TIP3    H119602   6.215   2.704   4.472
 6546TIP3    H219603   6.181   2.561   4.438
 6547TIP3   OH219604   0.769   4.999   4.928
 6547TIP3    H119605   0.838   4.992   4.994
 6547TIP3    H219606   0.701   5.051   4.971
 6548TIP3   OH219607   4.860   0.755   3.956
 6548TIP3    H119608   4.873   0.806   3.876
 6548TIP3    H219609   4.908   0.674   3.940
 6549TIP3   OH219610   3.653   4.472   0.020
 6549TIP3    H119611   3.642   4.495   0.113
 6549TIP3    H219612   3.642   4.377   0.017
 6550TIP3   OH219613   6.049   4.091   0.000
 6550TIP3    H119614   6.095   4.033   0.061
 6550TIP3    H219615   5.963   4.105   0.039
 6551TIP3   OH219616   6.712   2.109   2.042
 6551TIP3    H119617   6.674   2.195   2.058
 6551TIP3    H219618   6.636   2.051   2.029
 6552TIP3   OH219619   7.124   0.811   3.385
 6552TIP3    H119620   7.113   0.734   3.441
 6552TIP3    H219621   7.054   0.871   3.412
 6553TIP3   OH219622   1.600   4.666   2.582
 6553TIP3    H119623   1.642   4.644   2.665
 6553TIP3    H219624   1.642   4.747   2.554
 6554TIP3   OH219625   4.717   3.661   5.521
 6554TIP3    H119626   4.767   3.726   5.570
 6554TIP3    H219627   4.772   3.583   5.521
 6555TIP3   OH219628   0.314   5.709   1.367
 6555TIP3    H119629   0.342   5.635   1.420
 6555TIP3    H219630   0.389   5.727   1.310
 6556TIP3   OH219631   3.501   3.240   1.277
 6556TIP3    H119632   3.435   3.175   1.254
 6556TIP3    H219633   3.568   3.232   1.208
 6557TIP3   OH219634   1.477   3.215   3.601
 6557TIP3    H119635   1.509   3.299   3.634
 6557TIP3    H219636   1.414   3.185   3.667
 6558TIP3   OH219637   1.566   1.650   0.440
 6558TIP3    H119638   1.479   1.688   0.427
 6558TIP3    H219639   1.591   1.678   0.528
 6559TIP3   OH219640   6.176   3.652   4.000
 6559TIP3    H119641   6.160   3.685   4.088
 6559TIP3    H219642   6.207   3.729   3.951
 6560TIP3   OH219643   0.430   2.132   1.324
 6560TIP3    H119644   0.490   2.087   1.383
 6560TIP3    H219645   0.394   2.063   1.268
 6561TIP3   OH219646   0.993   3.669   0.766
 6561TIP3    H119647   0.921   3.729   0.749
 6561TIP3    H219648   0.980   3.642   0.858
 6562TIP3   OH219649   6.391   1.764   3.305
 6562TIP3    H119650   6.300   1.763   3.336
 6562TIP3    H219651   6.422   1.853   3.325
 6563TIP3   OH219652   7.182   3.009   4.383
 6563TIP3    H119653   7.198   3.096   4.421
 6563TIP3    H219654   7.103   2.978   4.428
 6564TIP3   OH219655   1.115   4.532   0.976
 6564TIP3    H119656   1.061   4.605   1.006
 6564TIP3    H219657   1.200   4.547   1.018
 6565TIP3   OH219658   3.342   1.661   3.415
 6565TIP3    H119659   3.290   1.614   3.480
 6565TIP3    H219660   3.356   1.748   3.454
 6566TIP3   OH219661   4.317   6.113   0.410
 6566TIP3    H119662   4.314   6.209   0.414
 6566TIP3    H219663   4.229   6.087   0.382
 6567TIP3   OH219664   1.028   5.056   3.227
 6567TIP3    H119665   0.941   5.054   3.187
 6567TIP3    H219666   1.046   5.149   3.241
 6568TIP3   OH219667   0.519   4.202   3.202
 6568TIP3    H119668   0.561   4.127   3.161
 6568TIP3    H219669   0.590   4.248   3.247
 6569TIP3   OH219670   5.896   6.289   1.211
 6569TIP3    H119671   5.942   6.273   1.293
 6569TIP3    H219672   5.963   6.327   1.153
 6570TIP3   OH219673   3.573   3.896   5.372
 6570TIP3    H119674   3.571   3.933   5.283
 6570TIP3    H219675   3.641   3.829   5.369
 6571TIP3   OH219676   0.369   5.357   0.687
 6571TIP3    H119677   0.464   5.346   0.689
 6571TIP3    H219678   0.355   5.450   0.707
 6572TIP3   OH219679   4.502   2.895   5.566
 6572TIP3    H119680   4.473   2.948   5.491
 6572TIP3    H219681   4.524   2.960   5.633
 6573TIP3   OH219682   1.731   4.016   3.244
 6573TIP3    H119683   1.698   3.945   3.189
 6573TIP3    H219684   1.662   4.029   3.310
 6574TIP3   OH219685   3.717   4.825   4.812
 6574TIP3    H119686   3.666   4.760   4.764
 6574TIP3    H219687   3.661   4.903   4.813
 6575TIP3   OH219688   5.688   4.998   0.070
 6575TIP3    H119689   5.597   5.011   0.045
 6575TIP3    H219690   5.717   4.924   0.017
 6576TIP3   OH219691   2.444   0.267   1.317
 6576TIP3    H119692   2.537   0.284   1.334
 6576TIP3    H219693   2.442   0.176   1.286
 6577TIP3   OH219694   2.062   1.878   5.094
 6577TIP3    H119695   2.092   1.883   5.003
 6577TIP3    H219696   2.137   1.908   5.146
 6578TIP3   OH219697   3.221   4.481   1.175
 6578TIP3    H119698   3.161   4.451   1.106
 6578TIP3    H219699   3.164   4.509   1.246
 6579TIP3   OH219700   3.156   2.408   2.401
 6579TIP3    H119701   3.189   2.476   2.460
 6579TIP3    H219702   3.085   2.366   2.450
 6580TIP3   OH219703   3.041   0.348   1.300
 6580TIP3    H119704   3.124   0.333   1.255
 6580TIP3    H219705   3.061   0.415   1.366
 6581TIP3   OH219706   1.999   6.596   3.132
 6581TIP3    H119707   1.951   6.521   3.169
 6581TIP3    H219708   1.990   6.586   3.038
 6582TIP3   OH219709   5.226   3.746   3.918
 6582TIP3    H119710   5.133   3.759   3.939
 6582TIP3    H219711   5.256   3.831   3.887
 6583TIP3   OH219712   2.951   2.553   5.853
 6583TIP3    H119713   3.046   2.567   5.854
 6583TIP3    H219714   2.920   2.602   5.778
 6584TIP3   OH219715   4.231   2.453   2.821
 6584TIP3    H119716   4.262   2.501   2.744
 6584TIP3    H219717   4.263   2.503   2.895
 6585TIP3   OH219718   3.201   5.181   3.821
 6585TIP3    H119719   3.128   5.133   3.859
 6585TIP3    H219720   3.183   5.183   3.727
 6586TIP3   OH219721   0.465   2.248   2.537
 6586TIP3    H119722   0.386   2.198   2.558
 6586TIP3    H219723   0.538   2.191   2.562
 6587TIP3   OH219724   0.768   3.831   4.703
 6587TIP3    H119725   0.788   3.740   4.679
 6587TIP3    H219726   0.841   3.881   4.667
 6588TIP3   OH219727   0.669   2.866   4.445
 6588TIP3    H119728   0.746   2.838   4.394
 6588TIP3    H219729   0.611   2.907   4.381
 6589TIP3   OH219730   1.707   4.552   0.953
 6589TIP3    H119731   1.742   4.463   0.950
 6589TIP3    H219732   1.750   4.592   1.029
 6590TIP3   OH219733   0.975   6.285   1.887
 6590TIP3    H119734   1.070   6.288   1.888
 6590TIP3    H219735   0.954   6.203   1.842
 6591TIP3   OH219736   2.046   3.459   2.724
 6591TIP3    H119737   2.123   3.460   2.781
 6591TIP3    H219738   2.064   3.526   2.659
 6592TIP3   OH219739   1.684   4.968   5.232
 6592TIP3    H119740   1.697   5.028   5.159
 6592TIP3    H219741   1.632   5.018   5.295
 6593TIP3   OH219742   0.590   3.303   1.372
 6593TIP3    H119743   0.685   3.287   1.372
 6593TIP3    H219744   0.575   3.355   1.294
 6594TIP3   OH219745   0.491   2.143   3.181
 6594TIP3    H119746   0.528   2.203   3.245
 6594TIP3    H219747   0.460   2.200   3.110
 6595TIP3   OH219748   5.567   1.305   3.413
 6595TIP3    H119749   5.606   1.350   3.338
 6595TIP3    H219750   5.620   1.332   3.488
 6596TIP3   OH219751   6.410   5.115   0.724
 6596TIP3    H119752   6.378   5.162   0.800
 6596TIP3    H219753   6.344   5.131   0.656
 6597TIP3   OH219754   6.091   3.627   0.261
 6597TIP3    H119755   6.048   3.698   0.310
 6597TIP3    H219756   6.022   3.590   0.207
 6598TIP3   OH219757   4.668   4.075   5.398
 6598TIP3    H119758   4.616   4.147   5.361
 6598TIP3    H219759   4.749   4.117   5.427
 6599TIP3   OH219760   2.716   1.619   1.978
 6599TIP3    H119761   2.695   1.537   2.024
 6599TIP3    H219762   2.802   1.602   1.939
 6600TIP3   OH219763   5.876   5.560   2.393
 6600TIP3    H119764   5.960   5.537   2.433
 6600TIP3    H219765   5.864   5.652   2.415
 6601TIP3   OH219766   3.126   5.942   2.068
 6601TIP3    H119767   3.106   5.953   2.161
 6601TIP3    H219768   3.156   5.852   2.060
 6602TIP3   OH219769   4.102   5.469   1.340
 6602TIP3    H119770   4.189   5.486   1.377
 6602TIP3    H219771   4.119   5.428   1.256
 6603TIP3   OH219772   5.050   6.496   2.880
 6603TIP3    H119773   4.976   6.550   2.853
 6603TIP3    H219774   5.019   6.447   2.957
 6604TIP3   OH219775   7.157   4.013   2.692
 6604TIP3    H119776   7.198   3.926   2.693
 6604TIP3    H219777   7.161   4.042   2.783
 6605TIP3   OH219778   0.445   4.692   1.269
 6605TIP3    H119779   0.514   4.638   1.230
 6605TIP3    H219780   0.485   4.778   1.281
 6606TIP3   OH219781   2.559   3.853   4.052
 6606TIP3    H119782   2.616   3.917   4.095
 6606TIP3    H219783   2.619   3.785   4.020
 6607TIP3   OH219784   3.803   2.145   4.918
 6607TIP3    H119785   3.728   2.103   4.960
 6607TIP3    H219786   3.832   2.211   4.981
 6608TIP3   OH219787   5.191   2.843   4.538
 6608TIP3    H119788   5.256   2.897   4.582
 6608TIP3    H219789   5.126   2.906   4.506
 6609TIP3   OH219790   1.472   1.425   0.148
 6609TIP3    H119791   1.512   1.424   0.235
 6609TIP3    H219792   1.547   1.420   0.087
 6610TIP3   OH219793   0.965   3.589   1.753
 6610TIP3    H119794   0.968   3.584   1.657
 6610TIP3    H219795   0.962   3.497   1.781
 6611TIP3   OH219796   2.977   1.517   0.616
 6611TIP3    H119797   2.886   1.503   0.590
 6611TIP3    H219798   3.022   1.542   0.536
 6612TIP3   OH219799   4.110   3.349   4.829
 6612TIP3    H119800   4.071   3.345   4.742
 6612TIP3    H219801   4.202   3.371   4.814
 6613TIP3   OH219802   6.273   2.373   4.718
 6613TIP3    H119803   6.369   2.381   4.719
 6613TIP3    H219804   6.255   2.317   4.642
 6614TIP3   OH219805   3.473   1.156   4.388
 6614TIP3    H119806   3.454   1.242   4.350
 6614TIP3    H219807   3.566   1.158   4.408
 6615TIP3   OH219808   3.838   5.256   0.859
 6615TIP3    H119809   3.799   5.275   0.774
 6615TIP3    H219810   3.852   5.341   0.899
 6616TIP3   OH219811   6.775   2.976   0.938
 6616TIP3    H119812   6.690   2.947   0.972
 6616TIP3    H219813   6.754   3.051   0.883
 6617TIP3   OH219814   2.163   4.451   0.551
 6617TIP3    H119815   2.135   4.360   0.565
 6617TIP3    H219816   2.122   4.500   0.623
 6618TIP3   OH219817   6.638   3.347   5.068
 6618TIP3    H119818   6.685   3.407   5.126
 6618TIP3    H219819   6.655   3.260   5.104
 6619TIP3   OH219820   2.281   0.975   4.791
 6619TIP3    H119821   2.202   1.027   4.807
 6619TIP3    H219822   2.302   0.935   4.875
 6620TIP3   OH219823   0.150   2.770   0.509
 6620TIP3    H119824   0.218   2.837   0.497
 6620TIP3    H219825   0.190   2.706   0.568
 6621TIP3   OH219826   6.293   5.863   3.275
 6621TIP3    H119827   6.237   5.939   3.261
 6621TIP3    H219828   6.258   5.796   3.216
 6622TIP3   OH219829   4.968   2.228   4.504
 6622TIP3    H119830   4.936   2.270   4.424
 6622TIP3    H219831   4.904   2.160   4.523
 6623TIP3   OH219832   1.759   4.827   1.353
 6623TIP3    H119833   1.777   4.740   1.316
 6623TIP3    H219834   1.666   4.842   1.335
 6624TIP3   OH219835   0.742   3.219   5.467
 6624TIP3    H119836   0.759   3.125   5.457
 6624TIP3    H219837   0.806   3.248   5.532
 6625TIP3   OH219838   5.318   6.668   0.049
 6625TIP3    H119839   5.359   6.585   0.076
 6625TIP3    H219840   5.386   6.711  -0.003
 6626TIP3   OH219841   1.665   2.341   5.250
 6626TIP3    H119842   1.599   2.315   5.186
 6626TIP3    H219843   1.672   2.266   5.309
 6627TIP3   OH219844   0.491   4.584   3.357
 6627TIP3    H119845   0.537   4.608   3.276
 6627TIP3    H219846   0.412   4.637   3.356
 6628TIP3   OH219847   5.043   4.982   4.342
 6628TIP3    H119848   5.078   5.004   4.256
 6628TIP3    H219849   5.062   5.058   4.397
 6629TIP3   OH219850   2.778   3.924   4.795
 6629TIP3    H119851   2.703   3.984   4.793
 6629TIP3    H219852   2.773   3.876   4.712
 6630TIP3   OH219853   1.688   5.914   4.634
 6630TIP3    H119854   1.720   5.836   4.680
 6630TIP3    H219855   1.646   5.966   4.702
 6631TIP3   OH219856   0.290   6.520   0.351
 6631TIP3    H119857   0.285   6.424   0.350
 6631TIP3    H219858   0.260   6.545   0.438
 6632TIP3   OH219859   6.960   2.542   0.653
 6632TIP3    H119860   7.044   2.506   0.682
 6632TIP3    H219861   6.971   2.556   0.558
 6633TIP3   OH219862   3.877   4.194   0.425
 6633TIP3    H119863   3.793   4.217   0.465
 6633TIP3    H219864   3.915   4.130   0.485
 6634TIP3   OH219865   5.261   3.761   1.861
 6634TIP3    H119866   5.186   3.723   1.906
 6634TIP3    H219867   5.300   3.688   1.813
 6635TIP3   OH219868   6.170   0.764   0.101
 6635TIP3    H119869   6.173   0.726   0.189
 6635TIP3    H219870   6.100   0.716   0.056
 6636TIP3   OH219871   0.860   0.222   2.583
 6636TIP3    H119872   0.930   0.211   2.648
 6636TIP3    H219873   0.842   0.316   2.582
 6637TIP3   OH219874   6.093   4.197   1.567
 6637TIP3    H119875   6.083   4.278   1.517
 6637TIP3    H219876   6.187   4.179   1.565
 6638TIP3   OH219877   2.796   5.942   0.072
 6638TIP3    H119878   2.815   5.935  -0.021
 6638TIP3    H219879   2.882   5.957   0.113
 6639TIP3   OH219880   6.125   6.510   3.902
 6639TIP3    H119881   6.096   6.528   3.991
 6639TIP3    H219882   6.133   6.414   3.898
 6640TIP3   OH219883   4.692   6.520   4.473
 6640TIP3    H119884   4.682   6.615   4.476
 6640TIP3    H219885   4.615   6.487   4.520
 6641TIP3   OH219886   5.691   5.049   5.628
 6641TIP3    H119887   5.647   4.992   5.690
 6641TIP3    H219888   5.629   5.121   5.613
 6642TIP3   OH219889   4.225   0.244   3.948
 6642TIP3    H119890   4.284   0.169   3.953
 6642TIP3    H219891   4.144   0.208   3.911
 6643TIP3   OH219892   5.415   4.690   0.738
 6643TIP3    H119893   5.420   4.687   0.643
 6643TIP3    H219894   5.371   4.608   0.762
 6644TIP3   OH219895   6.121   4.986   3.546
 6644TIP3    H119896   6.093   4.962   3.457
 6644TIP3    H219897   6.151   5.076   3.538
 6645TIP3   OH219898   2.903   4.559   3.204
 6645TIP3    H119899   2.835   4.495   3.225
 6645TIP3    H219900   2.855   4.638   3.179
 6646TIP3   OH219901   3.336   2.803   1.208
 6646TIP3    H119902   3.365   2.766   1.124
 6646TIP3    H219903   3.263   2.748   1.235
 6647TIP3   OH219904   4.257   1.503   0.240
 6647TIP3    H119905   4.265   1.445   0.316
 6647TIP3    H219906   4.179   1.555   0.259
 6648TIP3   OH219907   5.718   5.319   4.624
 6648TIP3    H119908   5.695   5.390   4.564
 6648TIP3    H219909   5.813   5.312   4.618
 6649TIP3   OH219910   4.361   0.071   4.131
 6649TIP3    H119911   4.392   0.091   4.219
 6649TIP3    H219912   4.441   0.059   4.080
 6650TIP3   OH219913   0.692   0.901   4.785
 6650TIP3    H119914   0.746   0.980   4.787
 6650TIP3    H219915   0.718   0.857   4.704
 6651TIP3   OH219916   7.122   2.736   0.912
 6651TIP3    H119917   7.054   2.689   0.863
 6651TIP3    H219918   7.161   2.670   0.969
 6652TIP3   OH219919   4.698   2.985   3.088
 6652TIP3    H119920   4.786   2.961   3.118
 6652TIP3    H219921   4.645   2.990   3.168
 6653TIP3   OH219922   0.126   3.152   0.320
 6653TIP3    H119923   0.059   3.205   0.277
 6653TIP3    H219924   0.129   3.071   0.270
 6654TIP3   OH219925   3.877   1.194   2.457
 6654TIP3    H119926   3.918   1.230   2.536
 6654TIP3    H219927   3.949   1.175   2.398
 6655TIP3   OH219928   1.513   0.668   1.149
 6655TIP3    H119929   1.492   0.674   1.056
 6655TIP3    H219930   1.606   0.642   1.151
 6656TIP3   OH219931   2.707   2.559   5.097
 6656TIP3    H119932   2.678   2.646   5.124
 6656TIP3    H219933   2.739   2.571   5.008
 6657TIP3   OH219934   2.083   2.465   2.110
 6657TIP3    H119935   2.037   2.481   2.028
 6657TIP3    H219936   2.016   2.479   2.178
 6658TIP3   OH219937   3.261   1.426   1.851
 6658TIP3    H119938   3.220   1.512   1.859
 6658TIP3    H219939   3.355   1.443   1.847
 6659TIP3   OH219940   4.807   2.742   3.218
 6659TIP3    H119941   4.855   2.825   3.210
 6659TIP3    H219942   4.860   2.678   3.171
 6660TIP3   OH219943   6.637   6.320   2.156
 6660TIP3    H119944   6.561   6.377   2.149
 6660TIP3    H219945   6.637   6.268   2.076
 6661TIP3   OH219946   0.982   3.273   0.058
 6661TIP3    H119947   0.941   3.203   0.007
 6661TIP3    H219948   1.064   3.235   0.088
 6662TIP3   OH219949   6.520   2.404   3.615
 6662TIP3    H119950   6.598   2.459   3.608
 6662TIP3    H219951   6.476   2.414   3.530
 6663TIP3   OH219952   7.051   2.300   4.565
 6663TIP3    H119953   7.048   2.368   4.498
 6663TIP3    H219954   7.143   2.273   4.568
 6664TIP3   OH219955   1.562   2.239   1.633
 6664TIP3    H119956   1.560   2.318   1.580
 6664TIP3    H219957   1.645   2.244   1.681
 6665TIP3   OH219958   0.209   1.861   1.848
 6665TIP3    H119959   0.207   1.804   1.770
 6665TIP3    H219960   0.126   1.909   1.843
 6666TIP3   OH219961   6.899   5.359   2.367
 6666TIP3    H119962   6.964   5.407   2.317
 6666TIP3    H219963   6.913   5.267   2.343
 6667TIP3   OH219964   1.834   2.110   3.772
 6667TIP3    H119965   1.896   2.119   3.700
 6667TIP3    H219966   1.751   2.088   3.728
 6668TIP3   OH219967   7.000   1.298   1.313
 6668TIP3    H119968   6.924   1.243   1.330
 6668TIP3    H219969   6.975   1.352   1.238
 6669TIP3   OH219970   3.599   3.547   5.811
 6669TIP3    H119971   3.673   3.602   5.786
 6669TIP3    H219972   3.639   3.463   5.834
 6670TIP3   OH219973   0.145   2.537   2.829
 6670TIP3    H119974   0.178   2.582   2.752
 6670TIP3    H219975   0.190   2.452   2.828
 6671TIP3   OH219976   4.982   5.604   3.467
 6671TIP3    H119977   5.007   5.531   3.524
 6671TIP3    H219978   4.974   5.565   3.381
 6672TIP3   OH219979   5.383   5.159   2.906
 6672TIP3    H119980   5.443   5.117   2.843
 6672TIP3    H219981   5.300   5.167   2.858
 6673TIP3   OH219982   1.631   4.835   0.977
 6673TIP3    H119983   1.614   4.756   1.028
 6673TIP3    H219984   1.545   4.865   0.950
 6674TIP3   OH219985   1.944   0.797   0.727
 6674TIP3    H119986   2.005   0.733   0.690
 6674TIP3    H219987   1.998   0.875   0.742
 6675TIP3   OH219988   2.577   3.078   2.639
 6675TIP3    H119989   2.618   2.993   2.620
 6675TIP3    H219990   2.646   3.142   2.622
 6676TIP3   OH219991   4.876   3.070   4.768
 6676TIP3    H119992   4.958   3.022   4.777
 6676TIP3    H219993   4.814   3.022   4.823
 6677TIP3   OH219994   5.277   5.507   4.187
 6677TIP3    H119995   5.278   5.573   4.117
 6677TIP3    H219996   5.247   5.427   4.144
 6678TIP3   OH219997   3.333   6.217   1.554
 6678TIP3    H119998   3.386   6.296   1.567
 6678TIP3    H219999   3.299   6.196   1.641
 6679TIP3   OH220000   0.658   4.764   2.523
 6679TIP3    H120001   0.566   4.740   2.512
 6679TIP3    H220002   0.705   4.711   2.459
 6680TIP3   OH220003   3.063   2.043   4.490
 6680TIP3    H120004   3.132   2.097   4.528
 6680TIP3    H220005   3.053   2.077   4.400
 6681TIP3   OH220006   0.089   1.655   4.260
 6681TIP3    H120007   0.154   1.627   4.196
 6681TIP3    H220008   0.025   1.584   4.264
 6682TIP3   OH220009   3.681   6.673   5.628
 6682TIP3    H120010   3.725   6.595   5.594
 6682TIP3    H220011   3.752   6.727   5.664
 6683TIP3   OH220012   0.753   5.402   4.841
 6683TIP3    H120013   0.709   5.323   4.874
 6683TIP3    H220014   0.839   5.400   4.883
 6684TIP3   OH220015   1.007   5.945   4.267
 6684TIP3    H120016   0.994   5.920   4.176
 6684TIP3    H220017   1.085   6.000   4.266
 6685TIP3   OH220018   0.366   2.922   4.452
 6685TIP3    H120019   0.310   2.903   4.527
 6685TIP3    H220020   0.435   2.978   4.487
 6686TIP3   OH220021   1.807   1.298   5.139
 6686TIP3    H120022   1.731   1.261   5.094
 6686TIP3    H220023   1.777   1.384   5.170
 6687TIP3   OH220024   2.008   4.658   2.751
 6687TIP3    H120025   2.057   4.579   2.774
 6687TIP3    H220026   1.955   4.677   2.828
 6688TIP3   OH220027   5.171   1.858   2.882
 6688TIP3    H120028   5.086   1.823   2.908
 6688TIP3    H220029   5.151   1.922   2.814
 6689TIP3   OH220030   2.774   2.725   0.849
 6689TIP3    H120031   2.762   2.715   0.754
 6689TIP3    H220032   2.685   2.718   0.885
 6690TIP3   OH220033   4.258   6.715   0.492
 6690TIP3    H120034   4.321   6.786   0.508
 6690TIP3    H220035   4.287   6.645   0.550
 6691TIP3   OH220036   3.165   2.364   5.053
 6691TIP3    H120037   3.141   2.378   4.961
 6691TIP3    H220038   3.230   2.432   5.071
 6692TIP3   OH220039   3.678   1.862   2.329
 6692TIP3    H120040   3.612   1.920   2.368
 6692TIP3    H220041   3.704   1.804   2.400
 6693TIP3   OH220042   3.870   0.247   1.740
 6693TIP3    H120043   3.833   0.332   1.717
 6693TIP3    H220044   3.817   0.184   1.692
 6694TIP3   OH220045   2.843   1.670   2.569
 6694TIP3    H120046   2.844   1.579   2.540
 6694TIP3    H220047   2.918   1.678   2.627
 6695TIP3   OH220048   6.154   3.019   2.388
 6695TIP3    H120049   6.240   3.045   2.420
 6695TIP3    H220050   6.093   3.053   2.454
 6696TIP3   OH220051   4.628   6.244   1.026
 6696TIP3    H120052   4.593   6.275   1.109
 6696TIP3    H220053   4.644   6.151   1.039
 6697TIP3   OH220054   0.090   0.044   3.948
 6697TIP3    H120055   0.069   0.134   3.975
 6697TIP3    H220056   0.030   0.027   3.875
 6698TIP3   OH220057   3.391   1.593   4.425
 6698TIP3    H120058   3.365   1.684   4.441
 6698TIP3    H220059   3.450   1.572   4.498
 6699TIP3   OH220060   1.871   3.033   2.111
 6699TIP3    H120061   1.798   3.086   2.145
 6699TIP3    H220062   1.837   2.944   2.111
 6700TIP3   OH220063   0.556   3.357   5.351
 6700TIP3    H120064   0.622   3.294   5.379
 6700TIP3    H220065   0.493   3.358   5.423
 6701TIP3   OH220066   2.483   0.761   0.752
 6701TIP3    H120067   2.406   0.805   0.788
 6701TIP3    H220068   2.546   0.761   0.824
 6702TIP3   OH220069   3.176   6.020   0.386
 6702TIP3    H120070   3.239   5.952   0.410
 6702TIP3    H220071   3.170   6.076   0.463
 6703TIP3   OH220072   4.342   2.802   3.775
 6703TIP3    H120073   4.423   2.781   3.730
 6703TIP3    H220074   4.314   2.885   3.737
 6704TIP3   OH220075   3.571   0.105   1.340
 6704TIP3    H120076   3.535   0.023   1.373
 6704TIP3    H220077   3.498   0.167   1.342
 6705TIP3   OH220078   0.060   6.696   3.926
 6705TIP3    H120079   0.118   6.702   4.002
 6705TIP3    H220080   0.024   6.784   3.917
 6706TIP3   OH220081   5.504   1.729   3.650
 6706TIP3    H120082   5.570   1.731   3.719
 6706TIP3    H220083   5.458   1.646   3.664
 6707TIP3   OH220084   4.142   2.643   0.798
 6707TIP3    H120085   4.236   2.654   0.780
 6707TIP3    H220086   4.134   2.658   0.893
 6708TIP3   OH220087   6.943   6.534   2.708
 6708TIP3    H120088   7.006   6.598   2.740
 6708TIP3    H220089   6.862   6.585   2.695
 6709TIP3   OH220090   5.555   3.767   2.954
 6709TIP3    H120091   5.562   3.729   2.866
 6709TIP3    H220092   5.463   3.756   2.978
 6710TIP3   OH220093   1.465   3.846   2.660
 6710TIP3    H120094   1.414   3.928   2.658
 6710TIP3    H220095   1.477   3.828   2.754
 6711TIP3   OH220096   1.451   3.906   1.302
 6711TIP3    H120097   1.478   3.900   1.210
 6711TIP3    H220098   1.509   3.973   1.339
 6712TIP3   OH220099   6.492   2.703   4.249
 6712TIP3    H120100   6.443   2.704   4.332
 6712TIP3    H220101   6.568   2.648   4.268
 6713TIP3   OH220102   1.109   5.754   2.083
 6713TIP3    H120103   1.105   5.671   2.035
 6713TIP3    H220104   1.039   5.748   2.148
 6714TIP3   OH220105   3.491   3.385   2.121
 6714TIP3    H120106   3.419   3.382   2.058
 6714TIP3    H220107   3.557   3.326   2.084
 6715TIP3   OH220108   4.964   2.857   2.157
 6715TIP3    H120109   5.031   2.853   2.225
 6715TIP3    H220110   4.913   2.777   2.170
 6716TIP3   OH220111   0.140   3.889   0.097
 6716TIP3    H120112   0.183   3.873   0.181
 6716TIP3    H220113   0.066   3.947   0.119
 6717TIP3   OH220114   4.299   4.568   3.574
 6717TIP3    H120115   4.299   4.534   3.663
 6717TIP3    H220116   4.241   4.508   3.526
 6718TIP3   OH220117   6.845   0.793   3.131
 6718TIP3    H120118   6.824   0.792   3.224
 6718TIP3    H220119   6.764   0.820   3.088
 6719TIP3   OH220120   5.016   3.861   0.264
 6719TIP3    H120121   5.095   3.909   0.286
 6719TIP3    H220122   5.042   3.769   0.265
 6720TIP3   OH220123   6.190   4.513   0.146
 6720TIP3    H120124   6.144   4.446   0.196
 6720TIP3    H220125   6.138   4.592   0.159
 6721TIP3   OH220126   0.229   0.659   3.221
 6721TIP3    H120127   0.295   0.591   3.206
 6721TIP3    H220128   0.206   0.689   3.133
 6722TIP3   OH220129   2.034   3.214   5.039
 6722TIP3    H120130   2.102   3.193   4.976
 6722TIP3    H220131   1.955   3.225   4.986
 6723TIP3   OH220132   1.273   5.305   5.533
 6723TIP3    H120133   1.276   5.210   5.548
 6723TIP3    H220134   1.227   5.314   5.450
 6724TIP3   OH220135   4.361   1.807   1.602
 6724TIP3    H120136   4.311   1.728   1.579
 6724TIP3    H220137   4.322   1.837   1.684
 6725TIP3   OH220138   1.526   1.683   1.184
 6725TIP3    H120139   1.564   1.677   1.272
 6725TIP3    H220140   1.598   1.714   1.129
 6726TIP3   OH220141   0.633   1.802   4.989
 6726TIP3    H120142   0.561   1.793   5.052
 6726TIP3    H220143   0.681   1.720   4.995
 6727TIP3   OH220144   5.129   4.366   5.340
 6727TIP3    H120145   5.153   4.422   5.414
 6727TIP3    H220146   5.100   4.426   5.272
 6728TIP3   OH220147   4.406   6.578   4.850
 6728TIP3    H120148   4.400   6.536   4.764
 6728TIP3    H220149   4.488   6.628   4.846
 6729TIP3   OH220150   6.002   1.511   3.727
 6729TIP3    H120151   6.034   1.425   3.754
 6729TIP3    H220152   6.077   1.553   3.685
 6730TIP3   OH220153   0.282   2.092   0.445
 6730TIP3    H120154   0.329   2.168   0.480
 6730TIP3    H220155   0.283   2.105   0.350
 6731TIP3   OH220156   1.884   0.448   0.633
 6731TIP3    H120157   1.843   0.362   0.629
 6731TIP3    H220158   1.853   0.494   0.555
 6732TIP3   OH220159   3.807   6.144   4.593
 6732TIP3    H120160   3.788   6.150   4.687
 6732TIP3    H220161   3.797   6.233   4.560
 6733TIP3   OH220162   1.225   2.592   1.591
 6733TIP3    H120163   1.141   2.572   1.550
 6733TIP3    H220164   1.278   2.629   1.520
 6734TIP3   OH220165   0.926   2.405   2.727
 6734TIP3    H120166   1.007   2.426   2.774
 6734TIP3    H220167   0.873   2.358   2.792
 6735TIP3   OH220168   6.728   0.216   0.801
 6735TIP3    H120169   6.685   0.165   0.870
 6735TIP3    H220170   6.807   0.166   0.780
 6736TIP3   OH220171   1.071   6.426   4.187
 6736TIP3    H120172   1.096   6.398   4.274
 6736TIP3    H220173   1.018   6.505   4.201
 6737TIP3   OH220174   1.541   6.603   3.158
 6737TIP3    H120175   1.595   6.664   3.107
 6737TIP3    H220176   1.595   6.524   3.166
 6738TIP3   OH220177   2.781   5.639   4.831
 6738TIP3    H120178   2.849   5.699   4.801
 6738TIP3    H220179   2.810   5.553   4.799
 6739TIP3   OH220180   5.069   3.453   2.809
 6739TIP3    H120181   5.023   3.521   2.859
 6739TIP3    H220182   5.102   3.393   2.876
 6740TIP3   OH220183   4.149   1.734   2.870
 6740TIP3    H120184   4.082   1.792   2.906
 6740TIP3    H220185   4.101   1.676   2.812
 6741TIP3   OH220186   1.399   6.054   1.723
 6741TIP3    H120187   1.408   5.959   1.719
 6741TIP3    H220188   1.304   6.070   1.724
 6742TIP3   OH220189   1.266   1.509   3.006
 6742TIP3    H120190   1.251   1.601   2.985
 6742TIP3    H220191   1.227   1.460   2.934
 6743TIP3   OH220192   4.936   3.866   4.230
 6743TIP3    H120193   4.943   3.774   4.253
 6743TIP3    H220194   4.946   3.867   4.134
 6744TIP3   OH220195   2.125   0.800   1.243
 6744TIP3    H120196   2.098   0.773   1.155
 6744TIP3    H220197   2.053   0.773   1.300
 6745TIP3   OH220198   1.071   1.931   5.728
 6745TIP3    H120199   1.063   2.024   5.704
 6745TIP3    H220200   1.009   1.920   5.799
 6746TIP3   OH220201   4.712   2.617   5.535
 6746TIP3    H120202   4.653   2.578   5.599
 6746TIP3    H220203   4.694   2.711   5.540
 6747TIP3   OH220204   6.641   1.905   3.818
 6747TIP3    H120205   6.721   1.905   3.871
 6747TIP3    H220206   6.608   1.995   3.825
 6748TIP3   OH220207   6.065   5.776   5.170
 6748TIP3    H120208   6.134   5.778   5.104
 6748TIP3    H220209   6.062   5.866   5.204
 6749TIP3   OH220210   1.327   2.494   4.258
 6749TIP3    H120211   1.232   2.499   4.247
 6749TIP3    H220212   1.350   2.408   4.223
 6750TIP3   OH220213   6.381   0.150   1.410
 6750TIP3    H120214   6.457   0.093   1.397
 6750TIP3    H220215   6.363   0.145   1.504
 6751TIP3   OH220216   4.765   4.901   4.623
 6751TIP3    H120217   4.792   4.861   4.706
 6751TIP3    H220218   4.670   4.893   4.622
 6752TIP3   OH220219   0.355   6.814   4.618
 6752TIP3    H120220   0.395   6.743   4.568
 6752TIP3    H220221   0.261   6.798   4.613
 6753TIP3   OH220222   6.680   4.477   1.877
 6753TIP3    H120223   6.738   4.500   1.804
 6753TIP3    H220224   6.706   4.389   1.902
 6754TIP3   OH220225   5.036   4.648   3.277
 6754TIP3    H120226   5.009   4.563   3.310
 6754TIP3    H220227   5.103   4.678   3.339
 6755TIP3   OH220228   0.424   0.473   3.169
 6755TIP3    H120229   0.394   0.384   3.190
 6755TIP3    H220230   0.477   0.462   3.091
 6756TIP3   OH220231   4.726   3.835   5.302
 6756TIP3    H120232   4.739   3.917   5.351
 6756TIP3    H220233   4.730   3.766   5.369
 6757TIP3   OH220234   4.286   3.028   2.014
 6757TIP3    H120235   4.248   3.083   1.946
 6757TIP3    H220236   4.318   2.951   1.968
 6758TIP3   OH220237   1.265   4.195   1.336
 6758TIP3    H120238   1.283   4.138   1.261
 6758TIP3    H220239   1.204   4.146   1.390
 6759TIP3   OH220240   6.270   6.470   4.445
 6759TIP3    H120241   6.298   6.556   4.412
 6759TIP3    H220242   6.274   6.412   4.369
 6760TIP3   OH220243   0.669   5.978   4.533
 6760TIP3    H120244   0.578   5.980   4.562
 6760TIP3    H220245   0.689   5.885   4.523
 6761TIP3   OH220246   2.521   0.725   5.600
 6761TIP3    H120247   2.542   0.705   5.509
 6761TIP3    H220248   2.442   0.777   5.595
 6762TIP3   OH220249   4.763   2.919   1.106
 6762TIP3    H120250   4.765   2.942   1.013
 6762TIP3    H220251   4.813   2.988   1.149
 6763TIP3   OH220252   7.009   2.619   2.503
 6763TIP3    H120253   6.996   2.626   2.598
 6763TIP3    H220254   7.102   2.638   2.490
 6764TIP3   OH220255   5.660   2.557   4.417
 6764TIP3    H120256   5.663   2.630   4.478
 6764TIP3    H220257   5.571   2.522   4.424
 6765TIP3   OH220258   5.487   0.994   1.482
 6765TIP3    H120259   5.537   1.041   1.548
 6765TIP3    H220260   5.397   1.023   1.493
 6766TIP3   OH220261   6.636   6.113   3.489
 6766TIP3    H120262   6.702   6.067   3.438
 6766TIP3    H220263   6.562   6.052   3.494
 6767TIP3   OH220264   0.723   0.171   0.083
 6767TIP3    H120265   0.814   0.194   0.102
 6767TIP3    H220266   0.724   0.141  -0.008
 6768TIP3   OH220267   3.523   3.810   3.294
 6768TIP3    H120268   3.531   3.869   3.369
 6768TIP3    H220269   3.433   3.823   3.263
 6769TIP3   OH220270   4.080   1.261   3.814
 6769TIP3    H120271   4.166   1.271   3.854
 6769TIP3    H220272   4.024   1.321   3.863
 6770TIP3   OH220273   5.122   3.356   1.392
 6770TIP3    H120274   5.062   3.299   1.439
 6770TIP3    H220275   5.209   3.327   1.418
 6771TIP3   OH220276   3.314   2.157   2.110
 6771TIP3    H120277   3.365   2.229   2.148
 6771TIP3    H220278   3.225   2.171   2.143
 6772TIP3   OH220279   1.728   4.212   0.602
 6772TIP3    H120280   1.823   4.204   0.606
 6772TIP3    H220281   1.708   4.289   0.656
 6773TIP3   OH220282   2.495   2.128   3.772
 6773TIP3    H120283   2.477   2.115   3.865
 6773TIP3    H220284   2.437   2.066   3.728
 6774TIP3   OH220285   0.681   5.710   0.317
 6774TIP3    H120286   0.672   5.776   0.248
 6774TIP3    H220287   0.625   5.638   0.288
 6775TIP3   OH220288   6.839   1.274   1.670
 6775TIP3    H120289   6.907   1.328   1.710
 6775TIP3    H220290   6.783   1.246   1.743
 6776TIP3   OH220291   0.840   4.275   0.148
 6776TIP3    H120292   0.922   4.238   0.116
 6776TIP3    H220293   0.774   4.208   0.129
 6777TIP3   OH220294   2.272   4.508   0.311
 6777TIP3    H120295   2.344   4.446   0.323
 6777TIP3    H220296   2.233   4.517   0.399
 6778TIP3   OH220297   0.843   3.023   0.332
 6778TIP3    H120298   0.772   3.040   0.270
 6778TIP3    H220299   0.904   2.967   0.284
 6779TIP3   OH220300   4.017   4.645   5.325
 6779TIP3    H120301   3.980   4.731   5.306
 6779TIP3    H220302   4.068   4.623   5.246
 6780TIP3   OH220303   1.252   1.313   3.870
 6780TIP3    H120304   1.219   1.398   3.842
 6780TIP3    H220305   1.180   1.253   3.853
 6781TIP3   OH220306   5.936   2.453   4.627
 6781TIP3    H120307   5.995   2.485   4.696
 6781TIP3    H220308   5.848   2.465   4.664
 6782TIP3   OH220309   3.896   4.422   1.470
 6782TIP3    H120310   3.954   4.492   1.443
 6782TIP3    H220311   3.826   4.422   1.404
 6783TIP3   OH220312   1.509   5.302   2.437
 6783TIP3    H120313   1.546   5.264   2.516
 6783TIP3    H220314   1.430   5.250   2.420
 6784TIP3   OH220315   5.883   2.939   4.133
 6784TIP3    H120316   5.972   2.972   4.148
 6784TIP3    H220317   5.883   2.912   4.041
 6785TIP3   OH220318   4.515   3.881   1.898
 6785TIP3    H120319   4.497   3.899   1.806
 6785TIP3    H220320   4.502   3.966   1.942
 6786TIP3   OH220321   1.975   3.488   1.992
 6786TIP3    H120322   2.041   3.548   1.958
 6786TIP3    H220323   1.892   3.534   1.978
 6787TIP3   OH220324   5.968   3.444   4.189
 6787TIP3    H120325   5.997   3.496   4.114
 6787TIP3    H220326   6.008   3.359   4.177
 6788TIP3   OH220327   0.055   4.638   5.292
 6788TIP3    H120328   0.133   4.668   5.246
 6788TIP3    H220329   0.061   4.678   5.379
 6789TIP3   OH220330   3.667   4.167   1.281
 6789TIP3    H120331   3.573   4.149   1.286
 6789TIP3    H220332   3.708   4.091   1.322
 6790TIP3   OH220333   4.879   0.348   4.515
 6790TIP3    H120334   4.816   0.351   4.587
 6790TIP3    H220335   4.865   0.263   4.474
 6791TIP3   OH220336   6.004   1.324   4.616
 6791TIP3    H120337   6.031   1.411   4.645
 6791TIP3    H220338   6.000   1.330   4.520
 6792TIP3   OH220339   5.988   4.373   3.049
 6792TIP3    H120340   5.910   4.355   3.103
 6792TIP3    H220341   6.006   4.290   3.004
 6793TIP3   OH220342   3.521   5.650   0.834
 6793TIP3    H120343   3.582   5.662   0.907
 6793TIP3    H220344   3.506   5.556   0.830
 6794TIP3   OH220345   0.155   4.330   0.748
 6794TIP3    H120346   0.208   4.364   0.676
 6794TIP3    H220347   0.104   4.259   0.709
 6795TIP3   OH220348   1.982   5.743   3.731
 6795TIP3    H120349   1.996   5.835   3.752
 6795TIP3    H220350   1.920   5.745   3.658
 6796TIP3   OH220351   6.315   1.260   0.196
 6796TIP3    H120352   6.394   1.218   0.161
 6796TIP3    H220353   6.320   1.350   0.165
 6797TIP3   OH220354   5.788   1.052   0.646
 6797TIP3    H120355   5.734   1.107   0.702
 6797TIP3    H220356   5.833   1.113   0.588
 6798TIP3   OH220357   5.706   3.406   2.073
 6798TIP3    H120358   5.636   3.418   2.137
 6798TIP3    H220359   5.738   3.317   2.089
 6799TIP3   OH220360   1.227   2.744   5.381
 6799TIP3    H120361   1.188   2.717   5.464
 6799TIP3    H220362   1.244   2.662   5.334
 6800TIP3   OH220363   4.660   5.112   5.710
 6800TIP3    H120364   4.748   5.075   5.720
 6800TIP3    H220365   4.650   5.124   5.615
 6801TIP3   OH220366   5.723   0.655   1.256
 6801TIP3    H120367   5.672   0.579   1.285
 6801TIP3    H220368   5.659   0.726   1.249
 6802TIP3   OH220369   1.598   5.388   5.119
 6802TIP3    H120370   1.635   5.389   5.208
 6802TIP3    H220371   1.530   5.320   5.123
 6803TIP3   OH220372   2.807   4.822   0.461
 6803TIP3    H120373   2.827   4.733   0.433
 6803TIP3    H220374   2.726   4.813   0.512
 6804TIP3   OH220375   3.472   2.633   1.820
 6804TIP3    H120376   3.422   2.668   1.746
 6804TIP3    H220377   3.546   2.589   1.780
 6805TIP3   OH220378   4.156   4.442   1.318
 6805TIP3    H120379   4.220   4.472   1.254
 6805TIP3    H220380   4.176   4.491   1.398
 6806TIP3   OH220381   1.450   3.808   2.955
 6806TIP3    H120382   1.520   3.809   3.020
 6806TIP3    H220383   1.413   3.720   2.960
 6807TIP3   OH220384   4.485   3.011   1.618
 6807TIP3    H120385   4.488   3.017   1.714
 6807TIP3    H220386   4.544   2.938   1.597
 6808TIP3   OH220387   2.932   2.956   0.736
 6808TIP3    H120388   2.957   2.892   0.670
 6808TIP3    H220389   2.878   2.907   0.798
 6809TIP3   OH220390   0.696   4.791   5.310
 6809TIP3    H120391   0.739   4.708   5.328
 6809TIP3    H220392   0.604   4.775   5.332
 6810TIP3   OH220393   4.700   2.802   1.625
 6810TIP3    H120394   4.704   2.745   1.702
 6810TIP3    H220395   4.786   2.843   1.621
 6811TIP3   OH220396   5.074   6.453   2.289
 6811TIP3    H120397   5.047   6.363   2.308
 6811TIP3    H220398   5.137   6.475   2.358
 6812TIP3   OH220399   6.089   2.039   4.604
 6812TIP3    H120400   6.083   2.077   4.517
 6812TIP3    H220401   6.040   1.957   4.599
 6813TIP3   OH220402   0.858   0.914   5.420
 6813TIP3    H120403   0.844   0.839   5.361
 6813TIP3    H220404   0.773   0.926   5.463
 6814TIP3   OH220405   1.960   0.027   5.761
 6814TIP3    H120406   1.867   0.029   5.738
 6814TIP3    H220407   1.993   0.112   5.734
 6815TIP3   OH220408   1.924   3.232   4.000
 6815TIP3    H120409   1.991   3.209   3.935
 6815TIP3    H220410   1.873   3.152   4.011
 6816TIP3   OH220411   4.067   1.289   3.532
 6816TIP3    H120412   3.985   1.321   3.494
 6816TIP3    H220413   4.057   1.302   3.627
 6817TIP3   OH220414   1.161   2.678   3.809
 6817TIP3    H120415   1.212   2.701   3.731
 6817TIP3    H220416   1.179   2.585   3.822
 6818TIP3   OH220417   2.653   1.410   0.490
 6818TIP3    H120418   2.686   1.499   0.479
 6818TIP3    H220419   2.701   1.376   0.566
 6819TIP3   OH220420   5.448   0.152   5.419
 6819TIP3    H120421   5.469   0.141   5.326
 6819TIP3    H220422   5.533   0.152   5.463
 6820TIP3   OH220423   1.013   4.286   5.441
 6820TIP3    H120424   0.944   4.246   5.494
 6820TIP3    H220425   1.086   4.297   5.501
 6821TIP3   OH220426   0.520   6.248   4.066
 6821TIP3    H120427   0.583   6.182   4.036
 6821TIP3    H220428   0.435   6.211   4.044
 6822TIP3   OH220429   0.199   4.808   1.198
 6822TIP3    H120430   0.197   4.855   1.281
 6822TIP3    H220431   0.279   4.755   1.201
 6823TIP3   OH220432   7.064   1.638   0.053
 6823TIP3    H120433   6.987   1.694   0.060
 6823TIP3    H220434   7.050   1.569   0.119
 6824TIP3   OH220435   6.845   6.250   0.230
 6824TIP3    H120436   6.841   6.194   0.308
 6824TIP3    H220437   6.838   6.190   0.157
 6825TIP3   OH220438   3.965   1.490   1.632
 6825TIP3    H120439   3.952   1.452   1.719
 6825TIP3    H220440   3.876   1.498   1.597
 6826TIP3   OH220441   5.036   5.234   2.352
 6826TIP3    H120442   5.084   5.170   2.405
 6826TIP3    H220443   4.944   5.216   2.369
 6827TIP3   OH220444   4.973   4.504   5.795
 6827TIP3    H120445   4.994   4.528   5.704
 6827TIP3    H220446   5.055   4.517   5.842
 6828TIP3   OH220447   3.826   6.188   1.403
 6828TIP3    H120448   3.736   6.180   1.370
 6828TIP3    H220449   3.870   6.109   1.373
 6829TIP3   OH220450   3.407   3.706   5.514
 6829TIP3    H120451   3.460   3.723   5.436
 6829TIP3    H220452   3.381   3.793   5.544
 6830TIP3   OH220453   3.478   4.525   3.674
 6830TIP3    H120454   3.419   4.549   3.602
 6830TIP3    H220455   3.439   4.567   3.751
 6831TIP3   OH220456   1.923   0.356   3.258
 6831TIP3    H120457   1.999   0.346   3.201
 6831TIP3    H220458   1.909   0.451   3.263
 6832TIP3   OH220459   2.165   0.041   1.345
 6832TIP3    H120460   2.127   0.119   1.304
 6832TIP3    H220461   2.243   0.073   1.390
 6833TIP3   OH220462   5.963   0.833   1.234
 6833TIP3    H120463   6.026   0.763   1.214
 6833TIP3    H220464   5.879   0.789   1.237
 6834TIP3   OH220465   1.577   4.299   5.490
 6834TIP3    H120466   1.639   4.343   5.432
 6834TIP3    H220467   1.579   4.207   5.462
 6835TIP3   OH220468   7.005   4.415   3.765
 6835TIP3    H120469   7.001   4.320   3.774
 6835TIP3    H220470   6.927   4.446   3.811
 6836TIP3   OH220471   3.242   3.852   4.628
 6836TIP3    H120472   3.311   3.878   4.689
 6836TIP3    H220473   3.232   3.758   4.641
 6837TIP3   OH220474   2.109   1.263   1.386
 6837TIP3    H120475   2.154   1.345   1.369
 6837TIP3    H220476   2.128   1.209   1.309
 6838TIP3   OH220477   6.797   6.727   3.180
 6838TIP3    H120478   6.806   6.645   3.228
 6838TIP3    H220479   6.860   6.719   3.108
 6839TIP3   OH220480   1.340   5.647   5.327
 6839TIP3    H120481   1.344   5.739   5.303
 6839TIP3    H220482   1.272   5.610   5.271
 6840TIP3   OH220483   2.669   5.169   1.989
 6840TIP3    H120484   2.656   5.205   1.901
 6840TIP3    H220485   2.635   5.080   1.984
 6841TIP3   OH220486   6.970   1.896   2.413
 6841TIP3    H120487   7.020   1.976   2.425
 6841TIP3    H220488   6.938   1.875   2.501
 6842TIP3   OH220489   6.537   1.943   4.226
 6842TIP3    H120490   6.528   1.881   4.299
 6842TIP3    H220491   6.615   1.994   4.247
 6843TIP3   OH220492   3.927   0.700   4.813
 6843TIP3    H120493   3.878   0.699   4.895
 6843TIP3    H220494   3.862   0.720   4.746
 6844TIP3   OH220495   5.363   6.064   3.276
 6844TIP3    H120496   5.441   6.109   3.243
 6844TIP3    H220497   5.354   5.986   3.220
 6845TIP3   OH220498   5.921   3.467   3.876
 6845TIP3    H120499   5.911   3.537   3.812
 6845TIP3    H220500   5.832   3.444   3.902
 6846TIP3   OH220501   5.408   6.535   2.123
 6846TIP3    H120502   5.479   6.481   2.087
 6846TIP3    H220503   5.370   6.577   2.046
 6847TIP3   OH220504   0.544   5.011   0.484
 6847TIP3    H120505   0.480   5.047   0.421
 6847TIP3    H220506   0.492   4.991   0.562
 6848TIP3   OH220507   5.495   3.939   2.514
 6848TIP3    H120508   5.566   3.930   2.577
 6848TIP3    H220509   5.537   3.968   2.433
 6849TIP3   OH220510   6.503   3.047   2.885
 6849TIP3    H120511   6.588   3.056   2.930
 6849TIP3    H220512   6.523   2.996   2.807
 6850TIP3   OH220513   5.911   6.310   2.525
 6850TIP3    H120514   5.956   6.390   2.497
 6850TIP3    H220515   5.887   6.327   2.617
 6851TIP3   OH220516   7.150   4.614   3.887
 6851TIP3    H120517   7.094   4.549   3.844
 6851TIP3    H220518   7.106   4.634   3.969
 6852TIP3   OH220519   3.905   2.842   4.887
 6852TIP3    H120520   3.980   2.881   4.841
 6852TIP3    H220521   3.910   2.878   4.975
 6853TIP3   OH220522   5.649   1.850   4.673
 6853TIP3    H120523   5.662   1.922   4.611
 6853TIP3    H220524   5.603   1.890   4.747
 6854TIP3   OH220525   3.917   1.912   2.884
 6854TIP3    H120526   3.849   1.955   2.833
 6854TIP3    H220527   3.872   1.840   2.928
 6855TIP3   OH220528   4.318   0.245   0.895
 6855TIP3    H120529   4.410   0.245   0.870
 6855TIP3    H220530   4.298   0.153   0.915
 6856TIP3   OH220531   0.306   5.103   4.827
 6856TIP3    H120532   0.219   5.130   4.854
 6856TIP3    H220533   0.295   5.015   4.791
 6857TIP3   OH220534   5.563   0.829   3.894
 6857TIP3    H120535   5.599   0.799   3.978
 6857TIP3    H220536   5.621   0.790   3.828
 6858TIP3   OH220537   3.137   2.882   2.512
 6858TIP3    H120538   3.153   2.935   2.434
 6858TIP3    H220539   3.088   2.941   2.571
 6859TIP3   OH220540   4.764   4.615   3.651
 6859TIP3    H120541   4.748   4.532   3.606
 6859TIP3    H220542   4.843   4.650   3.610
 6860TIP3   OH220543   0.116   5.152   5.764
 6860TIP3    H120544   0.087   5.166   5.674
 6860TIP3    H220545   0.210   5.132   5.756
 6861TIP3   OH220546   2.974   6.272   3.254
 6861TIP3    H120547   2.897   6.284   3.310
 6861TIP3    H220548   2.993   6.359   3.221
 6862TIP3   OH220549   1.848   5.065   3.548
 6862TIP3    H120550   1.823   5.114   3.469
 6862TIP3    H220551   1.932   5.025   3.525
 6863TIP3   OH220552   2.538   6.133   4.570
 6863TIP3    H120553   2.625   6.093   4.573
 6863TIP3    H220554   2.537   6.193   4.645
 6864TIP3   OH220555   2.938   0.353   2.210
 6864TIP3    H120556   2.851   0.385   2.234
 6864TIP3    H220557   2.932   0.338   2.115
 6865TIP3   OH220558   1.019   5.594   1.090
 6865TIP3    H120559   1.088   5.588   1.156
 6865TIP3    H220560   1.058   5.644   1.019
 6866TIP3   OH220561   4.123   5.724   5.723
 6866TIP3    H120562   4.111   5.819   5.724
 6866TIP3    H220563   4.106   5.698   5.633
 6867TIP3   OH220564   0.942   2.863   2.365
 6867TIP3    H120565   1.033   2.891   2.363
 6867TIP3    H220566   0.929   2.816   2.283
 6868TIP3   OH220567   3.687   0.011   0.287
 6868TIP3    H120568   3.669   0.070   0.360
 6868TIP3    H220569   3.622   0.035   0.220
 6869TIP3   OH220570   0.611   5.823   1.566
 6869TIP3    H120571   0.603   5.773   1.484
 6869TIP3    H220572   0.606   5.757   1.635
 6870TIP3   OH220573   2.298   5.758   0.244
 6870TIP3    H120574   2.363   5.808   0.294
 6870TIP3    H220575   2.307   5.791   0.155
 6871TIP3   OH220576   0.397   4.066   0.758
 6871TIP3    H120577   0.337   3.995   0.779
 6871TIP3    H220578   0.357   4.144   0.796
 6872TIP3   OH220579   4.718   3.491   1.198
 6872TIP3    H120580   4.682   3.415   1.153
 6872TIP3    H220581   4.730   3.462   1.288
 6873TIP3   OH220582   0.955   6.720   0.323
 6873TIP3    H120583   0.968   6.696   0.231
 6873TIP3    H220584   0.916   6.807   0.319
 6874TIP3   OH220585   3.266   2.491   1.988
 6874TIP3    H120586   3.357   2.521   1.989
 6874TIP3    H220587   3.261   2.432   1.913
 6875TIP3   OH220588   6.769   2.016   0.536
 6875TIP3    H120589   6.716   2.088   0.500
 6875TIP3    H220590   6.841   2.006   0.474
 6876TIP3   OH220591   4.619   3.361   2.025
 6876TIP3    H120592   4.583   3.397   1.944
 6876TIP3    H220593   4.713   3.374   2.018
 6877TIP3   OH220594   3.194   4.005   0.966
 6877TIP3    H120595   3.120   4.061   0.992
 6877TIP3    H220596   3.159   3.951   0.896
 6878TIP3   OH220597   2.128   2.989   2.226
 6878TIP3    H120598   2.157   2.907   2.186
 6878TIP3    H220599   2.048   3.012   2.179
 6879TIP3   OH220600   3.190   5.301   1.199
 6879TIP3    H120601   3.252   5.369   1.225
 6879TIP3    H220602   3.142   5.280   1.279
 6880TIP3   OH220603   3.170   3.716   4.292
 6880TIP3    H120604   3.250   3.760   4.321
 6880TIP3    H220605   3.202   3.648   4.233
 6881TIP3   OH220606   2.162   4.618   4.253
 6881TIP3    H120607   2.120   4.597   4.336
 6881TIP3    H220608   2.122   4.559   4.189
 6882TIP3   OH220609   2.444   5.240   4.539
 6882TIP3    H120610   2.446   5.187   4.618
 6882TIP3    H220611   2.429   5.329   4.570
 6883TIP3   OH220612   2.745   2.273   2.922
 6883TIP3    H120613   2.658   2.238   2.939
 6883TIP3    H220614   2.797   2.247   2.998
 6884TIP3   OH220615   5.559   3.567   2.464
 6884TIP3    H120616   5.521   3.523   2.388
 6884TIP3    H220617   5.489   3.568   2.530
 6885TIP3   OH220618   0.694   5.087   0.167
 6885TIP3    H120619   0.764   5.050   0.221
 6885TIP3    H220620   0.630   5.016   0.157
 6886TIP3   OH220621   3.617   6.713   2.537
 6886TIP3    H120622   3.545   6.752   2.587
 6886TIP3    H220623   3.581   6.696   2.450
 6887TIP3   OH220624   2.871   0.972   3.974
 6887TIP3    H120625   2.858   1.033   4.047
 6887TIP3    H220626   2.875   0.886   4.016
 6888TIP3   OH220627   3.638   0.834   4.184
 6888TIP3    H120628   3.627   0.781   4.263
 6888TIP3    H220629   3.694   0.907   4.212
 6889TIP3   OH220630   3.948   3.996   1.238
 6889TIP3    H120631   4.012   3.979   1.168
 6889TIP3    H220632   3.970   3.932   1.306
 6890TIP3   OH220633   4.555   2.370   2.682
 6890TIP3    H120634   4.641   2.364   2.724
 6890TIP3    H220635   4.574   2.385   2.590
 6891TIP3   OH220636   0.378   6.804   4.895
 6891TIP3    H120637   0.328   6.729   4.928
 6891TIP3    H220638   0.386   6.787   4.801
 6892TIP3   OH220639   1.511   6.621   0.377
 6892TIP3    H120640   1.527   6.604   0.470
 6892TIP3    H220641   1.444   6.689   0.376
 6893TIP3   OH220642   0.096   2.457   4.747
 6893TIP3    H120643   0.024   2.400   4.774
 6893TIP3    H220644   0.136   2.487   4.829
 6894TIP3   OH220645   6.129   5.196   3.845
 6894TIP3    H120646   6.041   5.161   3.858
 6894TIP3    H220647   6.167   5.201   3.933
 6895TIP3   OH220648   5.026   6.279   1.736
 6895TIP3    H120649   5.042   6.229   1.816
 6895TIP3    H220650   5.076   6.234   1.668
 6896TIP3   OH220651   4.162   4.856   4.516
 6896TIP3    H120652   4.125   4.942   4.537
 6896TIP3    H220653   4.190   4.865   4.425
 6897TIP3   OH220654   6.539   3.735   0.082
 6897TIP3    H120655   6.625   3.702   0.110
 6897TIP3    H220656   6.480   3.713   0.154
 6898TIP3   OH220657   3.679   6.444   2.385
 6898TIP3    H120658   3.590   6.416   2.365
 6898TIP3    H220659   3.689   6.426   2.478
 6899TIP3   OH220660   2.063   6.119   2.516
 6899TIP3    H120661   2.149   6.145   2.484
 6899TIP3    H220662   2.040   6.043   2.463
 6900TIP3   OH220663   4.702   3.161   5.357
 6900TIP3    H120664   4.619   3.159   5.404
 6900TIP3    H220665   4.732   3.251   5.363
 6901TIP3   OH220666   7.106   6.761   5.545
 6901TIP3    H120667   7.152   6.786   5.465
 6901TIP3    H220668   7.015   6.752   5.518
 6902TIP3   OH220669   6.187   4.860   4.044
 6902TIP3    H120670   6.097   4.892   4.049
 6902TIP3    H220671   6.208   4.860   3.951
 6903TIP3   OH220672   4.953   3.952   0.015
 6903TIP3    H120673   4.999   4.031   0.044
 6903TIP3    H220674   4.930   3.906   0.097
 6904TIP3   OH220675   5.642   5.598   1.022
 6904TIP3    H120676   5.614   5.546   1.097
 6904TIP3    H220677   5.699   5.665   1.059
 6905TIP3   OH220678   1.215   6.059   5.569
 6905TIP3    H120679   1.258   6.083   5.651
 6905TIP3    H220680   1.224   5.964   5.564
 6906TIP3   OH220681   0.508   5.361   2.826
 6906TIP3    H120682   0.467   5.361   2.913
 6906TIP3    H220683   0.456   5.298   2.775
 6907TIP3   OH220684   5.664   2.456   3.664
 6907TIP3    H120685   5.735   2.395   3.648
 6907TIP3    H220686   5.587   2.401   3.677
 6908TIP3   OH220687   5.883   3.450   3.566
 6908TIP3    H120688   5.890   3.511   3.492
 6908TIP3    H220689   5.836   3.500   3.632
 6909TIP3   OH220690   1.793   5.772   2.396
 6909TIP3    H120691   1.747   5.701   2.352
 6909TIP3    H220692   1.769   5.850   2.347
 6910TIP3   OH220693   5.769   5.465   5.418
 6910TIP3    H120694   5.763   5.393   5.356
 6910TIP3    H220695   5.798   5.540   5.366
 6911TIP3   OH220696   0.758   1.108   1.019
 6911TIP3    H120697   0.808   1.031   1.044
 6911TIP3    H220698   0.824   1.173   0.994
 6912TIP3   OH220699   4.373   3.656   0.620
 6912TIP3    H120700   4.311   3.628   0.687
 6912TIP3    H220701   4.391   3.748   0.640
 6913TIP3   OH220702   4.209   4.486   1.773
 6913TIP3    H120703   4.123   4.463   1.809
 6913TIP3    H220704   4.271   4.434   1.824
 6914TIP3   OH220705   5.608   1.651   5.807
 6914TIP3    H120706   5.524   1.636   5.763
 6914TIP3    H220707   5.583   1.687   5.892
 6915TIP3   OH220708   5.525   6.462   0.383
 6915TIP3    H120709   5.431   6.447   0.390
 6915TIP3    H220710   5.533   6.549   0.344
 6916TIP3   OH220711   1.723   5.391   1.058
 6916TIP3    H120712   1.628   5.388   1.069
 6916TIP3    H220713   1.740   5.340   0.979
 6917TIP3   OH220714   5.197   2.480   5.769
 6917TIP3    H120715   5.249   2.550   5.808
 6917TIP3    H220716   5.192   2.503   5.676
 6918TIP3   OH220717   0.918   3.478   0.210
 6918TIP3    H120718   0.935   3.404   0.152
 6918TIP3    H220719   0.947   3.448   0.296
 6919TIP3   OH220720   6.564   3.521   0.345
 6919TIP3    H120721   6.612   3.586   0.396
 6919TIP3    H220722   6.475   3.557   0.339
 6920TIP3   OH220723   3.065   2.938   3.196
 6920TIP3    H120724   3.160   2.930   3.205
 6920TIP3    H220725   3.029   2.871   3.254
 6921TIP3   OH220726   5.904   1.892   4.788
 6921TIP3    H120727   5.918   1.817   4.730
 6921TIP3    H220728   5.810   1.910   4.782
 6922TIP3   OH220729   2.963   2.166   3.814
 6922TIP3    H120730   3.027   2.106   3.851
 6922TIP3    H220731   2.970   2.155   3.719
 6923TIP3   OH220732   5.610   0.850   1.791
 6923TIP3    H120733   5.648   0.891   1.713
 6923TIP3    H220734   5.603   0.757   1.768
 6924TIP3   OH220735   6.920   1.443   1.098
 6924TIP3    H120736   6.991   1.503   1.077
 6924TIP3    H220737   6.842   1.484   1.059
 6925TIP3   OH220738   6.025   1.631   1.952
 6925TIP3    H120739   5.977   1.714   1.953
 6925TIP3    H220740   6.018   1.598   2.042
 6926TIP3   OH220741   3.524   1.007   0.716
 6926TIP3    H120742   3.441   1.009   0.762
 6926TIP3    H220743   3.586   1.051   0.775
 6927TIP3   OH220744   3.252   4.766   4.221
 6927TIP3    H120745   3.267   4.688   4.274
 6927TIP3    H220746   3.277   4.839   4.277
 6928TIP3   OH220747   0.527   4.089   0.471
 6928TIP3    H120748   0.452   4.127   0.424
 6928TIP3    H220749   0.492   4.008   0.510
 6929TIP3   OH220750   1.641   1.595   3.417
 6929TIP3    H120751   1.616   1.633   3.332
 6929TIP3    H220752   1.641   1.501   3.402
 6930TIP3   OH220753   1.866   5.795   0.787
 6930TIP3    H120754   1.871   5.888   0.765
 6930TIP3    H220755   1.773   5.773   0.781
 6931TIP3   OH220756   5.315   1.961   3.109
 6931TIP3    H120757   5.405   1.932   3.126
 6931TIP3    H220758   5.291   1.917   3.027
 6932TIP3   OH220759   5.668   4.852   4.434
 6932TIP3    H120760   5.581   4.830   4.399
 6932TIP3    H220761   5.683   4.786   4.502
 6933TIP3   OH220762   0.613   6.680   4.983
 6933TIP3    H120763   0.554   6.664   5.056
 6933TIP3    H220764   0.554   6.702   4.910
 6934TIP3   OH220765   3.751   5.320   3.370
 6934TIP3    H120766   3.667   5.287   3.401
 6934TIP3    H220767   3.790   5.363   3.446
 6935TIP3   OH220768   0.806   0.505   2.600
 6935TIP3    H120769   0.825   0.510   2.506
 6935TIP3    H220770   0.771   0.592   2.622
 6936TIP3   OH220771   6.058   5.745   0.931
 6936TIP3    H120772   6.056   5.817   0.868
 6936TIP3    H220773   6.092   5.671   0.881
 6937TIP3   OH220774   6.551   3.050   4.422
 6937TIP3    H120775   6.600   3.028   4.343
 6937TIP3    H220776   6.616   3.046   4.493
 6938TIP3   OH220777   1.682   3.750   0.113
 6938TIP3    H120778   1.730   3.697   0.049
 6938TIP3    H220779   1.590   3.735   0.092
 6939TIP3   OH220780   0.426   3.468   1.529
 6939TIP3    H120781   0.491   3.430   1.470
 6939TIP3    H220782   0.352   3.490   1.472
 6940TIP3   OH220783   0.363   4.048   2.569
 6940TIP3    H120784   0.433   3.984   2.577
 6940TIP3    H220785   0.365   4.075   2.477
 6941TIP3   OH220786   2.714   0.424   3.197
 6941TIP3    H120787   2.649   0.354   3.207
 6941TIP3    H220788   2.668   0.503   3.224
 6942TIP3   OH220789   1.184   1.273   4.681
 6942TIP3    H120790   1.265   1.234   4.649
 6942TIP3    H220791   1.186   1.257   4.776
 6943TIP3   OH220792   5.253   3.265   5.290
 6943TIP3    H120793   5.257   3.187   5.235
 6943TIP3    H220794   5.344   3.292   5.299
 6944TIP3   OH220795   4.273   6.561   5.623
 6944TIP3    H120796   4.309   6.486   5.576
 6944TIP3    H220797   4.228   6.523   5.698
 6945TIP3   OH220798   3.415   4.278   2.940
 6945TIP3    H120799   3.509   4.294   2.934
 6945TIP3    H220800   3.402   4.193   2.896
 6946TIP3   OH220801   1.447   1.425   2.003
 6946TIP3    H120802   1.501   1.350   2.029
 6946TIP3    H220803   1.478   1.496   2.058
 6947TIP3   OH220804   3.874   2.075   2.430
 6947TIP3    H120805   3.936   2.095   2.501
 6947TIP3    H220806   3.830   2.158   2.414
 6948TIP3   OH220807   0.277   0.298   5.664
 6948TIP3    H120808   0.188   0.302   5.630
 6948TIP3    H220809   0.280   0.365   5.733
 6949TIP3   OH220810   5.564   2.401   1.661
 6949TIP3    H120811   5.491   2.463   1.664
 6949TIP3    H220812   5.542   2.343   1.587
 6950TIP3   OH220813   4.305   2.242   4.337
 6950TIP3    H120814   4.270   2.313   4.391
 6950TIP3    H220815   4.385   2.215   4.381
 6951TIP3   OH220816   6.257   5.357   5.468
 6951TIP3    H120817   6.203   5.330   5.394
 6951TIP3    H220818   6.275   5.276   5.516
 6952TIP3   OH220819   0.143   5.962   5.631
 6952TIP3    H120820   0.162   5.868   5.629
 6952TIP3    H220821   0.102   5.980   5.546
 6953TIP3   OH220822   0.849   5.229   1.205
 6953TIP3    H120823   0.818   5.214   1.295
 6953TIP3    H220824   0.793   5.299   1.172
 6954TIP3   OH220825   2.610   5.355   1.747
 6954TIP3    H120826   2.516   5.365   1.756
 6954TIP3    H220827   2.624   5.325   1.657
 6955TIP3   OH220828   0.158   2.543   3.606
 6955TIP3    H120829   0.213   2.493   3.545
 6955TIP3    H220830   0.186   2.633   3.595
 6956TIP3   OH220831   5.077   4.762   1.095
 6956TIP3    H120832   5.071   4.741   1.002
 6956TIP3    H220833   5.128   4.844   1.097
 6957TIP3   OH220834   6.367   0.474   1.647
 6957TIP3    H120835   6.439   0.428   1.690
 6957TIP3    H220836   6.288   0.428   1.677
 6958TIP3   OH220837   4.517   4.616   5.267
 6958TIP3    H120838   4.612   4.622   5.275
 6958TIP3    H220839   4.483   4.676   5.333
 6959TIP3   OH220840   6.424   1.052   4.243
 6959TIP3    H120841   6.509   1.076   4.280
 6959TIP3    H220842   6.428   1.080   4.151
 6960TIP3   OH220843   1.340   3.433   4.309
 6960TIP3    H120844   1.369   3.509   4.259
 6960TIP3    H220845   1.361   3.358   4.254
 6961TIP3   OH220846   4.025   2.279   4.628
 6961TIP3    H120847   4.006   2.352   4.686
 6961TIP3    H220848   3.941   2.255   4.589
 6962TIP3   OH220849   3.011   4.072   1.410
 6962TIP3    H120850   2.973   4.108   1.490
 6962TIP3    H220851   3.071   4.141   1.379
 6963TIP3   OH220852   6.850   0.098   2.993
 6963TIP3    H120853   6.837   0.008   2.962
 6963TIP3    H220854   6.933   0.125   2.953
 6964TIP3   OH220855   4.830   2.305   4.257
 6964TIP3    H120856   4.746   2.351   4.257
 6964TIP3    H220857   4.891   2.367   4.216
 6965TIP3   OH220858   6.992   0.058   1.368
 6965TIP3    H120859   7.055   0.130   1.369
 6965TIP3    H220860   7.046  -0.020   1.379
 6966TIP3   OH220861   7.051   2.750   1.257
 6966TIP3    H120862   6.998   2.691   1.205
 6966TIP3    H220863   7.091   2.695   1.325
 6967TIP3   OH220864   2.905   2.958   4.958
 6967TIP3    H120865   2.962   2.884   4.978
 6967TIP3    H220866   2.846   2.926   4.890
 6968TIP3   OH220867   6.276   3.530   3.504
 6968TIP3    H120868   6.364   3.555   3.476
 6968TIP3    H220869   6.287   3.506   3.596
 6969TIP3   OH220870   4.996   0.481   0.305
 6969TIP3    H120871   5.053   0.533   0.249
 6969TIP3    H220872   4.907   0.508   0.280
 6970TIP3   OH220873   1.212   4.846   2.362
 6970TIP3    H120874   1.194   4.795   2.283
 6970TIP3    H220875   1.307   4.856   2.363
 6971TIP3   OH220876   4.221   6.428   1.259
 6971TIP3    H120877   4.144   6.469   1.298
 6971TIP3    H220878   4.188   6.346   1.222
 6972TIP3   OH220879   1.582   6.329   3.486
 6972TIP3    H120880   1.621   6.353   3.401
 6972TIP3    H220881   1.495   6.298   3.464
 6973TIP3   OH220882   4.198   0.438   4.857
 6973TIP3    H120883   4.123   0.430   4.916
 6973TIP3    H220884   4.207   0.531   4.840
 6974TIP3   OH220885   1.740   2.441   5.864
 6974TIP3    H120886   1.670   2.492   5.824
 6974TIP3    H220887   1.759   2.487   5.946
 6975TIP3   OH220888   6.327   3.308   3.131
 6975TIP3    H120889   6.269   3.302   3.055
 6975TIP3    H220890   6.298   3.386   3.178
 6976TIP3   OH220891   2.150   2.589   2.450
 6976TIP3    H120892   2.140   2.666   2.505
 6976TIP3    H220893   2.166   2.623   2.362
 6977TIP3   OH220894   5.505   6.106   1.176
 6977TIP3    H120895   5.409   6.106   1.176
 6977TIP3    H220896   5.529   6.100   1.083
 6978TIP3   OH220897   0.589   5.070   0.911
 6978TIP3    H120898   0.644   4.993   0.901
 6978TIP3    H220899   0.520   5.059   0.845
 6979TIP3   OH220900   2.357   3.300   1.171
 6979TIP3    H120901   2.432   3.351   1.140
 6979TIP3    H220902   2.298   3.366   1.208
 6980TIP3   OH220903   2.577   5.650   0.881
 6980TIP3    H120904   2.643   5.638   0.812
 6980TIP3    H220905   2.577   5.568   0.929
 6981TIP3   OH220906   5.210   5.899   5.135
 6981TIP3    H120907   5.221   5.806   5.117
 6981TIP3    H220908   5.216   5.940   5.048
 6982TIP3   OH220909   5.310   1.304   0.927
 6982TIP3    H120910   5.283   1.327   0.838
 6982TIP3    H220911   5.231   1.267   0.967
 6983TIP3   OH220912   2.404   4.880   3.903
 6983TIP3    H120913   2.394   4.794   3.944
 6983TIP3    H220914   2.319   4.922   3.916
 6984TIP3   OH220915   5.758   1.246   5.208
 6984TIP3    H120916   5.851   1.232   5.224
 6984TIP3    H220917   5.727   1.295   5.284
 6985TIP3   OH220918   6.932   4.685   3.007
 6985TIP3    H120919   6.866   4.722   3.067
 6985TIP3    H220920   7.009   4.672   3.063
 6986TIP3   OH220921   2.656   2.838   3.109
 6986TIP3    H120922   2.597   2.783   3.162
 6986TIP3    H220923   2.600   2.908   3.076
 6987TIP3   OH220924   2.379   2.236   4.266
 6987TIP3    H120925   2.431   2.202   4.193
 6987TIP3    H220926   2.404   2.183   4.341
 6988TIP3   OH220927   1.232   2.373   1.754
 6988TIP3    H120928   1.293   2.300   1.750
 6988TIP3    H220929   1.266   2.438   1.693
 6989TIP3   OH220930   4.658   1.658   1.067
 6989TIP3    H120931   4.700   1.615   1.142
 6989TIP3    H220932   4.569   1.622   1.066
 6990TIP3   OH220933   3.642   3.265   5.657
 6990TIP3    H120934   3.704   3.209   5.703
 6990TIP3    H220935   3.568   3.273   5.717
 6991TIP3   OH220936   4.426   6.051   0.657
 6991TIP3    H120937   4.383   6.039   0.573
 6991TIP3    H220938   4.448   5.962   0.686
 6992TIP3   OH220939   1.755   4.359   5.286
 6992TIP3    H120940   1.718   4.273   5.265
 6992TIP3    H220941   1.826   4.371   5.223
 6993TIP3   OH220942   2.561   6.548   0.191
 6993TIP3    H120943   2.519   6.622   0.147
 6993TIP3    H220944   2.493   6.513   0.249
 6994TIP3   OH220945   4.906   0.014   2.184
 6994TIP3    H120946   4.930  -0.042   2.111
 6994TIP3    H220947   4.811   0.027   2.174
 6995TIP3   OH220948   1.909   4.863   1.640
 6995TIP3    H120949   1.870   4.950   1.643
 6995TIP3    H220950   1.865   4.820   1.567
 6996TIP3   OH220951   5.481   1.106   0.944
 6996TIP3    H120952   5.427   1.047   0.997
 6996TIP3    H220953   5.421   1.175   0.916
 6997TIP3   OH220954   3.716   3.553   3.766
 6997TIP3    H120955   3.676   3.639   3.756
 6997TIP3    H220956   3.772   3.544   3.688
 6998TIP3   OH220957   2.552   3.652   0.963
 6998TIP3    H120958   2.459   3.649   0.984
 6998TIP3    H220959   2.592   3.694   1.039
 6999TIP3   OH220960   1.998   5.559   2.448
 6999TIP3    H120961   1.932   5.626   2.433
 6999TIP3    H220962   2.047   5.554   2.365
 7000TIP3   OH220963   1.256   4.718   2.776
 7000TIP3    H120964   1.234   4.687   2.688
 7000TIP3    H220965   1.310   4.796   2.761
 7001TIP3   OH220966   7.044   4.292   2.555
 7001TIP3    H120967   6.951   4.278   2.573
 7001TIP3    H220968   7.088   4.272   2.637
 7002TIP3   OH220969   3.975   6.435   1.394
 7002TIP3    H120970   3.978   6.339   1.388
 7002TIP3    H220971   3.887   6.454   1.425
 7003TIP3   OH220972   0.682   2.122   4.230
 7003TIP3    H120973   0.705   2.137   4.321
 7003TIP3    H220974   0.618   2.051   4.233
 7004TIP3   OH220975   4.048   0.799   0.643
 7004TIP3    H120976   3.987   0.779   0.572
 7004TIP3    H220977   4.005   0.869   0.693
 7005TIP3   OH220978   6.419   0.263   0.068
 7005TIP3    H120979   6.370   0.327   0.119
 7005TIP3    H220980   6.510   0.293   0.074
 7006TIP3   OH220981   6.587   5.987   3.836
 7006TIP3    H120982   6.614   5.983   3.928
 7006TIP3    H220983   6.641   5.923   3.792
 7007TIP3   OH220984   0.020   3.184   2.114
 7007TIP3    H120985  -0.067   3.167   2.152
 7007TIP3    H220986   0.072   3.108   2.140
 7008TIP3   OH220987   6.080   0.492   3.883
 7008TIP3    H120988   6.149   0.529   3.828
 7008TIP3    H220989   6.099   0.524   3.971
 7009TIP3   OH220990   4.323   0.581   4.196
 7009TIP3    H120991   4.352   0.672   4.193
 7009TIP3    H220992   4.302   0.560   4.105
 7010TIP3   OH220993   6.548   4.873   0.707
 7010TIP3    H120994   6.490   4.947   0.726
 7010TIP3    H220995   6.605   4.904   0.637
 7011TIP3   OH220996   2.704   4.358   4.305
 7011TIP3    H120997   2.654   4.436   4.327
 7011TIP3    H220998   2.672   4.291   4.366
 7012TIP3   OH220999   6.043   2.716   3.643
 7012TIP3    H121000   6.082   2.798   3.615
 7012TIP3    H221001   5.998   2.683   3.566
 7013TIP3   OH221002   5.424   2.750   2.435
 7013TIP3    H121003   5.440   2.756   2.341
 7013TIP3    H221004   5.500   2.704   2.470
 7014TIP3   OH221005   5.470   2.794   2.980
 7014TIP3    H121006   5.457   2.869   2.921
 7014TIP3    H221007   5.383   2.759   2.994
 7015TIP3   OH221008   2.342   5.424   1.834
 7015TIP3    H121009   2.267   5.364   1.840
 7015TIP3    H221010   2.350   5.460   1.922
 7016TIP3   OH221011   5.527   2.897   5.650
 7016TIP3    H121012   5.445   2.907   5.603
 7016TIP3    H221013   5.569   2.983   5.644
 7017TIP3   OH221014   2.471   0.535   0.571
 7017TIP3    H121015   2.461   0.613   0.625
 7017TIP3    H221016   2.420   0.468   0.616
 7018TIP3   OH221017   0.882   5.954   2.256
 7018TIP3    H121018   0.807   5.895   2.262
 7018TIP3    H221019   0.850   6.028   2.205
 7019TIP3   OH221020   5.107   1.715   3.150
 7019TIP3    H121021   5.057   1.709   3.231
 7019TIP3    H221022   5.194   1.743   3.177
 7020TIP3   OH221023   1.137   0.541   2.469
 7020TIP3    H121024   1.051   0.517   2.435
 7020TIP3    H221025   1.191   0.462   2.458
 7021TIP3   OH221026   4.784   0.681   0.849
 7021TIP3    H121027   4.808   0.677   0.757
 7021TIP3    H221028   4.859   0.642   0.895
 7022TIP3   OH221029   5.141   3.958   1.014
 7022TIP3    H121030   5.189   4.034   1.046
 7022TIP3    H221031   5.057   3.961   1.059
 7023TIP3   OH221032   1.726   1.063   4.326
 7023TIP3    H121033   1.736   1.098   4.238
 7023TIP3    H221034   1.812   1.071   4.366
 7024TIP3   OH221035   6.565   2.669   2.467
 7024TIP3    H121036   6.615   2.588   2.476
 7024TIP3    H221037   6.580   2.697   2.377
 7025TIP3   OH221038   2.884   1.171   1.097
 7025TIP3    H121039   2.829   1.103   1.135
 7025TIP3    H221040   2.973   1.147   1.122
 7026TIP3   OH221041   0.962   0.538   1.131
 7026TIP3    H121042   0.969   0.474   1.061
 7026TIP3    H221043   1.034   0.517   1.190
 7027TIP3   OH221044   1.902   6.063   4.065
 7027TIP3    H121045   1.857   6.143   4.039
 7027TIP3    H221046   1.832   6.002   4.089
 7028TIP3   OH221047   0.921   5.073   0.329
 7028TIP3    H121048   0.880   5.098   0.412
 7028TIP3    H221049   0.978   4.999   0.351
 7029TIP3   OH221050   1.269   0.768   0.375
 7029TIP3    H121051   1.304   0.704   0.313
 7029TIP3    H221052   1.251   0.845   0.322
 7030TIP3   OH221053   6.940   6.079   2.674
 7030TIP3    H121054   6.894   6.159   2.698
 7030TIP3    H221055   6.883   6.008   2.705
 7031TIP3   OH221056   3.760   0.688   3.695
 7031TIP3    H121057   3.798   0.672   3.782
 7031TIP3    H221058   3.830   0.729   3.646
 7032TIP3   OH221059   6.779   3.917   0.587
 7032TIP3    H121060   6.768   4.005   0.623
 7032TIP3    H221061   6.729   3.861   0.646
 7033TIP3   OH221062   2.284   6.247   3.756
 7033TIP3    H121063   2.241   6.196   3.824
 7033TIP3    H221064   2.237   6.224   3.676
 7034TIP3   OH221065   3.476   6.485   0.870
 7034TIP3    H121066   3.388   6.452   0.886
 7034TIP3    H221067   3.533   6.433   0.927
 7035TIP3   OH221068   6.436   4.781   0.078
 7035TIP3    H121069   6.400   4.868   0.061
 7035TIP3    H221070   6.410   4.729   0.002
 7036TIP3   OH221071   4.978   5.043   5.061
 7036TIP3    H121072   5.022   4.968   5.102
 7036TIP3    H221073   4.893   5.009   5.035
 7037TIP3   OH221074   1.552   1.337   5.017
 7037TIP3    H121075   1.460   1.358   5.003
 7037TIP3    H221076   1.563   1.250   4.979
 7038TIP3   OH221077   3.857   0.279   0.992
 7038TIP3    H121078   3.887   0.324   1.071
 7038TIP3    H221079   3.774   0.239   1.017
 7039TIP3   OH221080   3.131   4.605   0.348
 7039TIP3    H121081   3.223   4.600   0.373
 7039TIP3    H221082   3.126   4.679   0.288
 7040TIP3   OH221083   1.250   4.707   5.844
 7040TIP3    H121084   1.277   4.730   5.756
 7040TIP3    H221085   1.277   4.616   5.856
 7041TIP3   OH221086   0.516   6.526   2.587
 7041TIP3    H121087   0.505   6.522   2.492
 7041TIP3    H221088   0.529   6.435   2.614
 7042TIP3   OH221089   3.452   3.854   0.159
 7042TIP3    H121090   3.366   3.820   0.181
 7042TIP3    H221091   3.485   3.892   0.241
 7043TIP3   OH221092   0.580   1.354   3.899
 7043TIP3    H121093   0.627   1.271   3.889
 7043TIP3    H221094   0.649   1.420   3.908
 7044TIP3   OH221095   5.286   4.496   1.354
 7044TIP3    H121096   5.325   4.520   1.438
 7044TIP3    H221097   5.352   4.520   1.289
 7045TIP3   OH221098   0.093   5.196   2.939
 7045TIP3    H121099   0.185   5.222   2.939
 7045TIP3    H221100   0.090   5.120   2.880
 7046TIP3   OH221101   5.527   5.762   3.703
 7046TIP3    H121102   5.558   5.698   3.767
 7046TIP3    H221103   5.589   5.756   3.630
 7047TIP3   OH221104   3.765   3.305   2.928
 7047TIP3    H121105   3.826   3.299   2.854
 7047TIP3    H221106   3.688   3.350   2.891
 7048TIP3   OH221107   3.636   1.854   4.382
 7048TIP3    H121108   3.574   1.864   4.453
 7048TIP3    H221109   3.719   1.833   4.424
 7049TIP3   OH221110   5.234   4.016   1.723
 7049TIP3    H121111   5.250   3.923   1.741
 7049TIP3    H221112   5.148   4.017   1.681
 7050TIP3   OH221113   4.515   2.627   1.458
 7050TIP3    H121114   4.573   2.679   1.514
 7050TIP3    H221115   4.537   2.655   1.369
 7051TIP3   OH221116   6.475   6.403   1.598
 7051TIP3    H121117   6.570   6.415   1.592
 7051TIP3    H221118   6.443   6.419   1.509
 7052TIP3   OH221119   0.668   3.812   3.309
 7052TIP3    H121120   0.718   3.871   3.366
 7052TIP3    H221121   0.734   3.750   3.276
 7053TIP3   OH221122   1.432   2.230   4.168
 7053TIP3    H121123   1.494   2.217   4.096
 7053TIP3    H221124   1.487   2.249   4.244
 7054TIP3   OH221125   6.984   5.292   3.668
 7054TIP3    H121126   7.067   5.261   3.704
 7054TIP3    H221127   6.999   5.300   3.574
 7055TIP3   OH221128   5.774   0.261   3.634
 7055TIP3    H121129   5.751   0.311   3.556
 7055TIP3    H221130   5.869   0.250   3.628
 7056TIP3   OH221131   0.374   6.282   3.322
 7056TIP3    H121132   0.457   6.328   3.336
 7056TIP3    H221133   0.308   6.340   3.360
 7057TIP3   OH221134   3.451   0.385   2.427
 7057TIP3    H121135   3.423   0.363   2.516
 7057TIP3    H221136   3.544   0.360   2.425
 7058TIP3   OH221137   4.796   4.035   4.394
 7058TIP3    H121138   4.841   3.968   4.343
 7058TIP3    H221139   4.767   3.989   4.473
 7059TIP3   OH221140   4.143   4.907   2.161
 7059TIP3    H121141   4.205   4.849   2.118
 7059TIP3    H221142   4.193   4.947   2.232
 7060TIP3   OH221143   4.551   5.383   1.896
 7060TIP3    H121144   4.497   5.388   1.975
 7060TIP3    H221145   4.498   5.424   1.828
 7061TIP3   OH221146   6.562   6.013   2.468
 7061TIP3    H121147   6.479   5.968   2.454
 7061TIP3    H221148   6.550   6.099   2.428
 7062TIP3   OH221149   0.118   1.461   0.714
 7062TIP3    H121150   0.122   1.511   0.632
 7062TIP3    H221151   0.031   1.480   0.749
 7063TIP3   OH221152   2.834   3.077   3.217
 7063TIP3    H121153   2.908   3.021   3.194
 7063TIP3    H221154   2.759   3.018   3.217
 7064TIP3   OH221155   3.883   3.655   5.427
 7064TIP3    H121156   3.800   3.654   5.380
 7064TIP3    H221157   3.947   3.623   5.364
 7065TIP3   OH221158   2.966   0.721   2.192
 7065TIP3    H121159   3.019   0.701   2.116
 7065TIP3    H221160   2.886   0.670   2.180
 7066TIP3   OH221161   4.693   6.103   3.713
 7066TIP3    H121162   4.726   6.121   3.801
 7066TIP3    H221163   4.619   6.044   3.726
 7067TIP3   OH221164   5.101   0.068   3.176
 7067TIP3    H121165   5.008   0.065   3.154
 7067TIP3    H221166   5.125   0.161   3.171
 7068TIP3   OH221167   7.174   4.504   0.643
 7068TIP3    H121168   7.195   4.418   0.605
 7068TIP3    H221169   7.260   4.544   0.657
 7069TIP3   OH221170   0.985   3.258   2.342
 7069TIP3    H121171   0.909   3.220   2.385
 7069TIP3    H221172   1.042   3.183   2.325
 7070TIP3   OH221173   2.080   0.933   5.753
 7070TIP3    H121174   2.039   1.006   5.707
 7070TIP3    H221175   2.095   0.966   5.842
 7071TIP3   OH221176   0.229   0.765   3.499
 7071TIP3    H121177   0.235   0.755   3.404
 7071TIP3    H221178   0.319   0.780   3.527
 7072TIP3   OH221179   2.677   5.929   4.970
 7072TIP3    H121180   2.591   5.935   4.929
 7072TIP3    H221181   2.733   5.984   4.915
 7073TIP3   OH221182   5.060   5.483   1.714
 7073TIP3    H121183   5.074   5.464   1.806
 7073TIP3    H221184   5.040   5.398   1.674
 7074TIP3   OH221185   3.645   2.352   5.164
 7074TIP3    H121186   3.566   2.321   5.209
 7074TIP3    H221187   3.616   2.372   5.075
 7075TIP3   OH221188   6.424   2.837   0.828
 7075TIP3    H121189   6.486   2.847   0.900
 7075TIP3    H221190   6.374   2.919   0.828
 7076TIP3   OH221191   5.381   5.677   0.060
 7076TIP3    H121192   5.344   5.755   0.020
 7076TIP3    H221193   5.370   5.691   0.154
 7077TIP3   OH221194   1.552   5.141   5.428
 7077TIP3    H121195   1.605   5.220   5.417
 7077TIP3    H221196   1.517   5.148   5.516
 7078TIP3   OH221197   3.881   5.175   4.533
 7078TIP3    H121198   3.807   5.217   4.576
 7078TIP3    H221199   3.932   5.137   4.605
 7079TIP3   OH221200   6.127   6.399   5.590
 7079TIP3    H121201   6.212   6.438   5.613
 7079TIP3    H221202   6.106   6.342   5.664
 7080TIP3   OH221203   6.943   6.602   5.802
 7080TIP3    H121204   6.907   6.586   5.889
 7080TIP3    H221205   6.944   6.698   5.793
 7081TIP3   OH221206   6.944   0.235   2.575
 7081TIP3    H121207   6.957   0.239   2.481
 7081TIP3    H221208   7.020   0.186   2.607
 7082TIP3   OH221209   2.070   1.313   0.767
 7082TIP3    H121210   2.000   1.366   0.804
 7082TIP3    H221211   2.145   1.328   0.825
 7083TIP3   OH221212   2.571   2.259   1.287
 7083TIP3    H121213   2.581   2.274   1.381
 7083TIP3    H221214   2.647   2.206   1.263
 7084TIP3   OH221215   2.577   2.795   3.455
 7084TIP3    H121216   2.532   2.731   3.510
 7084TIP3    H221217   2.644   2.744   3.409
 7085TIP3   OH221218   0.201   5.365   5.054
 7085TIP3    H121219   0.146   5.287   5.056
 7085TIP3    H221220   0.289   5.332   5.036
 7086TIP3   OH221221   6.428   6.307   1.304
 7086TIP3    H121222   6.496   6.321   1.238
 7086TIP3    H221223   6.462   6.235   1.359
 7087TIP3   OH221224   0.566   3.764   2.851
 7087TIP3    H121225   0.581   3.839   2.909
 7087TIP3    H221226   0.562   3.689   2.910
 7088TIP3   OH221227   0.692   5.573   3.430
 7088TIP3    H121228   0.688   5.499   3.489
 7088TIP3    H221229   0.604   5.610   3.431
 7089TIP3   OH221230   6.996   1.563   2.097
 7089TIP3    H121231   7.040   1.638   2.057
 7089TIP3    H221232   7.014   1.572   2.191
 7090TIP3   OH221233   5.211   6.390   4.334
 7090TIP3    H121234   5.174   6.383   4.422
 7090TIP3    H221235   5.176   6.473   4.301
 7091TIP3   OH221236   1.212   1.801   2.920
 7091TIP3    H121237   1.126   1.768   2.894
 7091TIP3    H221238   1.197   1.892   2.944
 7092TIP3   OH221239   2.838   6.634   0.178
 7092TIP3    H121240   2.882   6.574   0.238
 7092TIP3    H221241   2.750   6.598   0.169
 7093TIP3   OH221242   6.192   2.077   1.999
 7093TIP3    H121243   6.145   2.082   1.915
 7093TIP3    H221244   6.134   2.025   2.056
 7094TIP3   OH221245   1.694   0.587   4.415
 7094TIP3    H121246   1.683   0.566   4.508
 7094TIP3    H221247   1.782   0.625   4.410
 7095TIP3   OH221248   4.098   5.776   5.266
 7095TIP3    H121249   4.144   5.847   5.310
 7095TIP3    H221250   4.081   5.712   5.336
 7096TIP3   OH221251   3.086   5.782   3.459
 7096TIP3    H121252   3.122   5.796   3.371
 7096TIP3    H221253   3.148   5.826   3.517
 7097TIP3   OH221254   1.293   5.512   0.460
 7097TIP3    H121255   1.228   5.565   0.506
 7097TIP3    H221256   1.295   5.429   0.509
 7098TIP3   OH221257   1.256   1.408   4.273
 7098TIP3    H121258   1.328   1.462   4.241
 7098TIP3    H221259   1.178   1.444   4.231
 7099TIP3   OH221260   6.420   0.645   4.887
 7099TIP3    H121261   6.418   0.571   4.948
 7099TIP3    H221262   6.373   0.715   4.932
 7100TIP3   OH221263   1.036   5.278   1.695
 7100TIP3    H121264   1.064   5.310   1.609
 7100TIP3    H221265   1.117   5.245   1.735
 7101TIP3   OH221266   4.134   3.886   4.615
 7101TIP3    H121267   4.168   3.798   4.600
 7101TIP3    H221268   4.091   3.910   4.533
 7102TIP3   OH221269   6.169   0.656   0.356
 7102TIP3    H121270   6.103   0.671   0.425
 7102TIP3    H221271   6.252   0.679   0.397
 7103TIP3   OH221272   3.607   4.587   4.051
 7103TIP3    H121273   3.590   4.681   4.044
 7103TIP3    H221274   3.636   4.575   4.142
 7104TIP3   OH221275   4.466   3.995   0.969
 7104TIP3    H121276   4.529   4.040   1.025
 7104TIP3    H221277   4.488   3.903   0.976
 7105TIP3   OH221278   5.603   2.305   2.145
 7105TIP3    H121279   5.622   2.322   2.053
 7105TIP3    H221280   5.675   2.347   2.193
 7106TIP3   OH221281   4.005   3.964   5.880
 7106TIP3    H121282   4.013   3.906   5.805
 7106TIP3    H221283   4.089   4.010   5.885
 7107TIP3   OH221284   1.649   1.833   5.582
 7107TIP3    H121285   1.718   1.779   5.544
 7107TIP3    H221286   1.570   1.808   5.534
 7108TIP3   OH221287   6.297   0.248   3.976
 7108TIP3    H121288   6.297   0.191   4.053
 7108TIP3    H221289   6.230   0.209   3.919
 7109TIP3   OH221290   6.665   2.760   1.955
 7109TIP3    H121291   6.685   2.844   1.914
 7109TIP3    H221292   6.699   2.695   1.893
 7110TIP3   OH221293   7.068   6.098   2.261
 7110TIP3    H121294   7.119   6.033   2.309
 7110TIP3    H221295   6.982   6.096   2.301
 7111TIP3   OH221296   1.819   5.676   5.837
 7111TIP3    H121297   1.864   5.629   5.766
 7111TIP3    H221298   1.777   5.750   5.794
 7112TIP3   OH221299   6.073   0.061   4.212
 7112TIP3    H121300   6.036   0.137   4.168
 7112TIP3    H221301   6.062   0.080   4.305
 7113TIP3   OH221302   1.379   2.930   1.520
 7113TIP3    H121303   1.387   2.884   1.437
 7113TIP3    H221304   1.447   2.892   1.576
 7114TIP3   OH221305   7.079   4.150   5.719
 7114TIP3    H121306   7.003   4.201   5.745
 7114TIP3    H221307   7.154   4.206   5.739
 7115TIP3   OH221308   2.061   0.992   4.251
 7115TIP3    H121309   2.133   0.953   4.201
 7115TIP3    H221310   2.067   1.086   4.231
 7116TIP3   OH221311   6.347   3.571   0.724
 7116TIP3    H121312   6.294   3.559   0.803
 7116TIP3    H221313   6.285   3.561   0.652
 7117TIP3   OH221314   5.296   1.223   3.441
 7117TIP3    H121315   5.379   1.271   3.443
 7117TIP3    H221316   5.245   1.268   3.374
 7118TIP3   OH221317   2.647   2.914   5.680
 7118TIP3    H121318   2.662   2.972   5.605
 7118TIP3    H221319   2.684   2.961   5.754
 7119TIP3   OH221320   6.703   5.502   3.288
 7119TIP3    H121321   6.641   5.527   3.356
 7119TIP3    H221322   6.649   5.465   3.218
 7120TIP3   OH221323   4.431   5.786   1.378
 7120TIP3    H121324   4.508   5.844   1.381
 7120TIP3    H221325   4.398   5.795   1.289
 7121TIP3   OH221326   5.499   4.721   2.271
 7121TIP3    H121327   5.525   4.718   2.179
 7121TIP3    H221328   5.431   4.788   2.275
 7122TIP3   OH221329   3.983   4.102   2.646
 7122TIP3    H121330   3.918   4.136   2.707
 7122TIP3    H221331   3.932   4.058   2.578
 7123TIP3   OH221332   1.175   5.068   1.391
 7123TIP3    H121333   1.108   5.021   1.441
 7123TIP3    H221334   1.157   5.161   1.409
 7124TIP3   OH221335   2.220   3.837   5.472
 7124TIP3    H121336   2.241   3.931   5.468
 7124TIP3    H221337   2.278   3.803   5.540
 7125TIP3   OH221338   6.857   3.979   4.447
 7125TIP3    H121339   6.903   3.951   4.368
 7125TIP3    H221340   6.923   4.024   4.499
 7126TIP3   OH221341   2.263   5.679   5.853
 7126TIP3    H121342   2.327   5.741   5.888
 7126TIP3    H221343   2.187   5.688   5.911
 7127TIP3   OH221344   3.874   5.256   2.636
 7127TIP3    H121345   3.961   5.224   2.610
 7127TIP3    H221346   3.821   5.249   2.557
 7128TIP3   OH221347   6.788   1.933   2.954
 7128TIP3    H121348   6.786   1.962   3.045
 7128TIP3    H221349   6.815   1.842   2.959
 7129TIP3   OH221350   2.568   4.505   2.008
 7129TIP3    H121351   2.534   4.590   2.038
 7129TIP3    H221352   2.563   4.449   2.086
 7130TIP3   OH221353   4.559   2.771   4.374
 7130TIP3    H121354   4.636   2.829   4.372
 7130TIP3    H221355   4.531   2.773   4.466
 7131TIP3   OH221356   3.436   4.061   2.277
 7131TIP3    H121357   3.510   4.002   2.264
 7131TIP3    H221358   3.378   4.014   2.337
 7132TIP3   OH221359   2.871   5.398   4.335
 7132TIP3    H121360   2.778   5.394   4.354
 7132TIP3    H221361   2.876   5.395   4.239
 7133TIP3   OH221362   0.503   3.768   4.791
 7133TIP3    H121363   0.576   3.750   4.731
 7133TIP3    H221364   0.482   3.860   4.776
 7134TIP3   OH221365   5.654   2.597   4.974
 7134TIP3    H121366   5.567   2.634   4.986
 7134TIP3    H221367   5.685   2.578   5.062
 7135TIP3   OH221368   0.407   5.902   4.610
 7135TIP3    H121369   0.418   5.814   4.573
 7135TIP3    H221370   0.334   5.940   4.562
 7136TIP3   OH221371   3.781   4.500   2.400
 7136TIP3    H121372   3.850   4.436   2.418
 7136TIP3    H221373   3.826   4.570   2.352
 7137TIP3   OH221374   1.151   6.442   0.022
 7137TIP3    H121375   1.061   6.476   0.027
 7137TIP3    H221376   1.205   6.516   0.051
 7138TIP3   OH221377   6.139   5.461   2.483
 7138TIP3    H121378   6.227   5.489   2.507
 7138TIP3    H221379   6.143   5.447   2.389
 7139TIP3   OH221380   7.203   5.510   4.395
 7139TIP3    H121381   7.148   5.439   4.361
 7139TIP3    H221382   7.216   5.568   4.320
 7140TIP3   OH221383   1.739   0.416   5.908
 7140TIP3    H121384   1.774   0.438   5.822
 7140TIP3    H221385   1.750   0.496   5.959
 7141TIP3   OH221386   5.326   2.466   4.787
 7141TIP3    H121387   5.351   2.398   4.850
 7141TIP3    H221388   5.233   2.452   4.772
 7142TIP3   OH221389   3.638   4.213   1.993
 7142TIP3    H121390   3.730   4.231   1.974
 7142TIP3    H221391   3.614   4.278   2.059
 7143TIP3   OH221392   4.239   6.264   4.038
 7143TIP3    H121393   4.191   6.188   4.006
 7143TIP3    H221394   4.308   6.278   3.974
 7144TIP3   OH221395   5.899   6.000   0.326
 7144TIP3    H121396   5.807   5.979   0.310
 7144TIP3    H221397   5.897   6.076   0.384
 7145TIP3   OH221398   6.538   3.207   1.424
 7145TIP3    H121399   6.624   3.179   1.456
 7145TIP3    H221400   6.551   3.300   1.402
 7146TIP3   OH221401   4.589   0.521   4.961
 7146TIP3    H121402   4.595   0.465   5.038
 7146TIP3    H221403   4.561   0.606   4.994
 7147TIP3   OH221404   2.557   4.301   1.618
 7147TIP3    H121405   2.527   4.213   1.597
 7147TIP3    H221406   2.479   4.346   1.651
 7148TIP3   OH221407   3.768   6.418   0.262
 7148TIP3    H121408   3.729   6.345   0.310
 7148TIP3    H221409   3.782   6.486   0.328
 7149TIP3   OH221410   3.262   4.310   4.616
 7149TIP3    H121411   3.203   4.379   4.646
 7149TIP3    H221412   3.209   4.258   4.555
 7150TIP3   OH221413   6.258   5.861   4.908
 7150TIP3    H121414   6.329   5.887   4.850
 7150TIP3    H221415   6.243   5.938   4.964
 7151TIP3   OH221416   1.664   6.535   5.415
 7151TIP3    H121417   1.734   6.475   5.392
 7151TIP3    H221418   1.696   6.621   5.387
 7152TIP3   OH221419   1.639   5.776   0.365
 7152TIP3    H121420   1.562   5.832   0.377
 7152TIP3    H221421   1.713   5.836   0.369
 7153TIP3   OH221422   3.449   2.574   0.513
 7153TIP3    H121423   3.435   2.660   0.554
 7153TIP3    H221424   3.391   2.515   0.560
 7154TIP3   OH221425   6.196   1.296   2.961
 7154TIP3    H121426   6.233   1.268   2.877
 7154TIP3    H221427   6.182   1.214   3.009
 7155TIP3   OH221428   7.025   1.401   0.247
 7155TIP3    H121429   7.023   1.397   0.343
 7155TIP3    H221430   6.968   1.329   0.219
 7156TIP3   OH221431   1.834   3.590   2.509
 7156TIP3    H121432   1.806   3.645   2.582
 7156TIP3    H221433   1.757   3.540   2.485
 7157TIP3   OH221434   0.455   3.910   1.018
 7157TIP3    H121435   0.476   3.998   1.050
 7157TIP3    H221436   0.439   3.859   1.097
 7158TIP3   OH221437   6.287   5.608   3.575
 7158TIP3    H121438   6.200   5.624   3.540
 7158TIP3    H221439   6.305   5.683   3.632
 7159TIP3   OH221440   0.342   0.348   4.792
 7159TIP3    H121441   0.335   0.425   4.736
 7159TIP3    H221442   0.328   0.274   4.733
 7160TIP3   OH221443   6.383   0.764   0.528
 7160TIP3    H121444   6.406   0.745   0.619
 7160TIP3    H221445   6.308   0.824   0.534
 7161TIP3   OH221446   2.799   5.527   0.195
 7161TIP3    H121447   2.765   5.601   0.244
 7161TIP3    H221448   2.777   5.451   0.249
 7162TIP3   OH221449   0.743   1.405   4.494
 7162TIP3    H121450   0.786   1.326   4.526
 7162TIP3    H221451   0.660   1.374   4.456
 7163TIP3   OH221452   1.335   3.630   4.506
 7163TIP3    H121453   1.355   3.590   4.421
 7163TIP3    H221454   1.296   3.559   4.557
 7164TIP3   OH221455   1.433   0.806   4.107
 7164TIP3    H121456   1.458   0.897   4.123
 7164TIP3    H221457   1.401   0.805   4.017
 7165TIP3   OH221458   4.155   6.591   2.273
 7165TIP3    H121459   4.080   6.573   2.215
 7165TIP3    H221460   4.224   6.622   2.214
 7166TIP3   OH221461   5.882   5.546   0.412
 7166TIP3    H121462   5.798   5.524   0.372
 7166TIP3    H221463   5.878   5.506   0.499
 7167TIP3   OH221464   3.447   1.613   5.146
 7167TIP3    H121465   3.410   1.549   5.085
 7167TIP3    H221466   3.371   1.650   5.191
 7168TIP3   OH221467   1.621   1.191   3.181
 7168TIP3    H121468   1.626   1.125   3.250
 7168TIP3    H221469   1.589   1.143   3.105
 7169TIP3   OH221470   1.215   0.559   3.541
 7169TIP3    H121471   1.302   0.522   3.556
 7169TIP3    H221472   1.160   0.520   3.608
 7170TIP3   OH221473   1.384   0.849   2.978
 7170TIP3    H121474   1.415   0.763   2.950
 7170TIP3    H221475   1.357   0.836   3.069
 7171TIP3   OH221476   0.278   2.147   1.815
 7171TIP3    H121477   0.289   2.236   1.780
 7171TIP3    H221478   0.254   2.094   1.739
 7172TIP3   OH221479   6.476   0.232   3.142
 7172TIP3    H121480   6.567   0.206   3.158
 7172TIP3    H221481   6.431   0.212   3.224
 7173TIP3   OH221482   3.981   0.411   2.484
 7173TIP3    H121483   3.903   0.356   2.473
 7173TIP3    H221484   3.948   0.493   2.520
 7174TIP3   OH221485   5.167   2.784   3.280
 7174TIP3    H121486   5.096   2.830   3.236
 7174TIP3    H221487   5.234   2.850   3.295
 7175TIP3   OH221488   0.692   4.345   5.130
 7175TIP3    H121489   0.788   4.352   5.124
 7175TIP3    H221490   0.674   4.349   5.224
 7176TIP3   OH221491   1.784   1.711   4.535
 7176TIP3    H121492   1.751   1.622   4.546
 7176TIP3    H221493   1.850   1.704   4.466
 7177TIP3   OH221494   4.119   6.723   5.854
 7177TIP3    H121495   4.129   6.654   5.920
 7177TIP3    H221496   4.096   6.676   5.774
 7178TIP3   OH221497   3.486   4.401   1.832
 7178TIP3    H121498   3.521   4.321   1.873
 7178TIP3    H221499   3.477   4.378   1.740
 7179TIP3   OH221500   5.804   2.947   2.786
 7179TIP3    H121501   5.746   2.996   2.844
 7179TIP3    H221502   5.883   2.931   2.838
 7180TIP3   OH221503   0.507   0.765   1.416
 7180TIP3    H121504   0.537   0.695   1.358
 7180TIP3    H221505   0.542   0.845   1.376
 7181TIP3   OH221506   6.913   5.462   5.454
 7181TIP3    H121507   7.001   5.497   5.471
 7181TIP3    H221508   6.899   5.398   5.525
 7182TIP3   OH221509   6.879   3.214   5.354
 7182TIP3    H121510   6.804   3.212   5.414
 7182TIP3    H221511   6.871   3.299   5.310
 7183TIP3   OH221512   5.538   4.235   5.569
 7183TIP3    H121513   5.502   4.226   5.481
 7183TIP3    H221514   5.530   4.148   5.608
 7184TIP3   OH221515   4.050   3.695   1.319
 7184TIP3    H121516   4.086   3.665   1.235
 7184TIP3    H221517   3.982   3.631   1.340
 7185TIP3   OH221518   6.611   1.737   5.297
 7185TIP3    H121519   6.689   1.777   5.257
 7185TIP3    H221520   6.557   1.812   5.323
 7186TIP3   OH221521   2.722   4.326   3.353
 7186TIP3    H121522   2.783   4.265   3.310
 7186TIP3    H221523   2.702   4.285   3.437
 7187TIP3   OH221524   1.122   6.660   4.444
 7187TIP3    H121525   1.050   6.658   4.381
 7187TIP3    H221526   1.117   6.748   4.483
 7188TIP3   OH221527   1.937   3.051   5.337
 7188TIP3    H121528   2.022   3.009   5.321
 7188TIP3    H221529   1.928   3.052   5.432
 7189TIP3   OH221530   1.985   6.313   4.229
 7189TIP3    H121531   2.061   6.320   4.171
 7189TIP3    H221532   1.910   6.311   4.170
 7190TIP3   OH221533   5.889   5.030   2.087
 7190TIP3    H121534   5.920   4.943   2.063
 7190TIP3    H221535   5.816   5.015   2.147
 7191TIP3   OH221536   0.803   5.764   4.991
 7191TIP3    H121537   0.742   5.767   4.918
 7191TIP3    H221538   0.781   5.840   5.044
 7192TIP3   OH221539   3.929   3.428   1.122
 7192TIP3    H121540   3.862   3.496   1.128
 7192TIP3    H221541   3.883   3.347   1.145
 7193TIP3   OH221542   5.046   0.971   5.358
 7193TIP3    H121543   5.029   0.878   5.343
 7193TIP3    H221544   4.987   0.995   5.429
 7194TIP3   OH221545   0.146   2.458   4.346
 7194TIP3    H121546   0.119   2.544   4.380
 7194TIP3    H221547   0.226   2.438   4.395
 7195TIP3   OH221548   7.139   3.170   3.727
 7195TIP3    H121549   7.093   3.133   3.652
 7195TIP3    H221550   7.159   3.260   3.702
 7196TIP3   OH221551   7.158   0.277   1.685
 7196TIP3    H121552   7.069   0.243   1.696
 7196TIP3    H221553   7.149   0.344   1.618
 7197TIP3   OH221554   4.526   2.873   0.516
 7197TIP3    H121555   4.438   2.909   0.503
 7197TIP3    H221556   4.525   2.790   0.469
 7198TIP3   OH221557   0.200   0.841   4.620
 7198TIP3    H121558   0.258   0.860   4.694
 7198TIP3    H221559   0.225   0.904   4.553
 7199TIP3   OH221560   6.506   4.644   4.755
 7199TIP3    H121561   6.601   4.653   4.746
 7199TIP3    H221562   6.475   4.733   4.774
 7200TIP3   OH221563   0.293   2.837   3.721
 7200TIP3    H121564   0.228   2.896   3.682
 7200TIP3    H221565   0.351   2.815   3.648
 7201TIP3   OH221566   6.722   4.230   4.789
 7201TIP3    H121567   6.780   4.281   4.845
 7201TIP3    H221568   6.760   4.143   4.786
 7202TIP3   OH221569   2.552   6.136   0.845
 7202TIP3    H121570   2.526   6.149   0.754
 7202TIP3    H221571   2.630   6.081   0.841
 7203TIP3   OH221572   1.841   4.326   0.933
 7203TIP3    H121573   1.906   4.294   0.869
 7203TIP3    H221574   1.832   4.254   0.995
 7204TIP3   OH221575   4.046   0.270   4.422
 7204TIP3    H121576   4.105   0.290   4.349
 7204TIP3    H221577   3.995   0.195   4.391
 7205TIP3   OH221578   3.146   5.271   0.713
 7205TIP3    H121579   3.061   5.289   0.673
 7205TIP3    H221580   3.124   5.230   0.797
 7206TIP3   OH221581   3.478   2.373   2.224
 7206TIP3    H121582   3.525   2.452   2.194
 7206TIP3    H221583   3.498   2.367   2.317
 7207TIP3   OH221584   0.627   2.107   0.823
 7207TIP3    H121585   0.634   2.148   0.910
 7207TIP3    H221586   0.692   2.154   0.770
 7208TIP3   OH221587   2.242   4.101   2.701
 7208TIP3    H121588   2.239   4.121   2.794
 7208TIP3    H221589   2.279   4.013   2.696
 7209TIP3   OH221590   0.112   0.345   3.918
 7209TIP3    H121591   0.112   0.316   4.010
 7209TIP3    H221592   0.019   0.347   3.894
 7210TIP3   OH221593   6.998   2.611   2.014
 7210TIP3    H121594   7.083   2.621   2.056
 7210TIP3    H221595   7.010   2.538   1.952
 7211TIP3   OH221596   2.771   6.420   4.552
 7211TIP3    H121597   2.678   6.411   4.531
 7211TIP3    H221598   2.776   6.497   4.609
 7212TIP3   OH221599   5.287   0.000   3.393
 7212TIP3    H121600   5.240  -0.068   3.442
 7212TIP3    H221601   5.239   0.008   3.311
 7213TIP3   OH221602  -0.042   1.888   1.079
 7213TIP3    H121603   0.045   1.870   1.044
 7213TIP3    H221604  -0.050   1.830   1.155
 7214TIP3   OH221605   5.817   6.646   2.886
 7214TIP3    H121606   5.907   6.615   2.874
 7214TIP3    H221607   5.825   6.723   2.942
 7215TIP3   OH221608   7.155   1.701   1.923
 7215TIP3    H121609   7.234   1.647   1.926
 7215TIP3    H221610   7.127   1.697   1.831
 7216TIP3   OH221611   5.657   1.827   0.382
 7216TIP3    H121612   5.674   1.764   0.312
 7216TIP3    H221613   5.744   1.860   0.405
 7217TIP3   OH221614   1.802   1.190   0.889
 7217TIP3    H121615   1.862   1.213   0.960
 7217TIP3    H221616   1.726   1.153   0.934
 7218TIP3   OH221617   7.102   1.798   1.318
 7218TIP3    H121618   7.009   1.813   1.304
 7218TIP3    H221619   7.119   1.833   1.406
 7219TIP3   OH221620   2.471   0.355   0.366
 7219TIP3    H121621   2.451   0.399   0.449
 7219TIP3    H221622   2.554   0.394   0.338
 7220TIP3   OH221623   5.912   5.552   0.047
 7220TIP3    H121624   5.902   5.477   0.106
 7220TIP3    H221625   5.948   5.621   0.102
 7221TIP3   OH221626   1.851   3.551   4.643
 7221TIP3    H121627   1.774   3.597   4.675
 7221TIP3    H221628   1.831   3.531   4.551
 7222TIP3   OH221629   0.866   6.550   2.563
 7222TIP3    H121630   0.851   6.643   2.545
 7222TIP3    H221631   0.823   6.534   2.646
 7223TIP3   OH221632   5.455   2.875   3.255
 7223TIP3    H121633   5.448   2.855   3.162
 7223TIP3    H221634   5.536   2.925   3.263
 7224TIP3   OH221635   6.426   0.701   1.898
 7224TIP3    H121636   6.408   0.698   1.804
 7224TIP3    H221637   6.339   0.699   1.939
 7225TIP3   OH221638   5.663   1.521   3.278
 7225TIP3    H121639   5.746   1.542   3.235
 7225TIP3    H221640   5.601   1.511   3.205
 7226TIP3   OH221641   0.737   4.669   4.379
 7226TIP3    H121642   0.663   4.721   4.412
 7226TIP3    H221643   0.730   4.674   4.284
 7227TIP3   OH221644   4.928   4.547   4.430
 7227TIP3    H121645   4.865   4.581   4.367
 7227TIP3    H221646   4.991   4.618   4.443
 7228TIP3   OH221647   4.789   1.499   4.363
 7228TIP3    H121648   4.825   1.430   4.419
 7228TIP3    H221649   4.863   1.529   4.311
 7229TIP3   OH221650   0.279   1.064   0.020
 7229TIP3    H121651   0.232   1.147   0.007
 7229TIP3    H221652   0.360   1.074  -0.030
 7230TIP3   OH221653   4.297   6.749   2.047
 7230TIP3    H121654   4.375   6.752   2.102
 7230TIP3    H221655   4.238   6.814   2.086
 7231TIP3   OH221656   1.349   0.686   0.926
 7231TIP3    H121657   1.343   0.778   0.948
 7231TIP3    H221658   1.352   0.685   0.830
 7232TIP3   OH221659   6.871   4.824   3.844
 7232TIP3    H121660   6.863   4.917   3.865
 7232TIP3    H221661   6.905   4.784   3.924
 7233TIP3   OH221662   2.955   4.085   3.706
 7233TIP3    H121663   2.980   4.004   3.662
 7233TIP3    H221664   2.965   4.067   3.799
 7234TIP3   OH221665   1.627   0.643   4.885
 7234TIP3    H121666   1.692   0.710   4.866
 7234TIP3    H221667   1.673   0.560   4.869
 7235TIP3   OH221668   6.646   6.525   5.256
 7235TIP3    H121669   6.615   6.436   5.239
 7235TIP3    H221670   6.687   6.552   5.174
 7236TIP3   OH221671   2.710   4.587   1.528
 7236TIP3    H121672   2.626   4.574   1.572
 7236TIP3    H221673   2.764   4.513   1.555
 7237TIP3   OH221674   0.988   4.732   4.589
 7237TIP3    H121675   0.942   4.798   4.537
 7237TIP3    H221676   0.968   4.754   4.680
 7238TIP3   OH221677   2.577   2.800   2.545
 7238TIP3    H121678   2.499   2.749   2.520
 7238TIP3    H221679   2.620   2.747   2.611
 7239TIP3   OH221680   4.013   1.324   0.228
 7239TIP3    H121681   4.076   1.277   0.282
 7239TIP3    H221682   4.064   1.353   0.152
 7240TIP3   OH221683   3.262   1.062   3.251
 7240TIP3    H121684   3.332   1.045   3.314
 7240TIP3    H221685   3.256   1.157   3.245
 7241TIP3   OH221686   5.168   5.706   3.094
 7241TIP3    H121687   5.260   5.731   3.099
 7241TIP3    H221688   5.158   5.672   3.005
 7242TIP3   OH221689   6.000   4.209   1.006
 7242TIP3    H121690   6.080   4.238   0.962
 7242TIP3    H221691   6.026   4.132   1.056
 7243TIP3   OH221692   4.217   5.145   5.254
 7243TIP3    H121693   4.289   5.085   5.272
 7243TIP3    H221694   4.236   5.180   5.167
 7244TIP3   OH221695   3.110   0.715   1.107
 7244TIP3    H121696   3.154   0.634   1.131
 7244TIP3    H221697   3.141   0.734   1.018
 7245TIP3   OH221698   4.687   5.168   3.233
 7245TIP3    H121699   4.705   5.231   3.303
 7245TIP3    H221700   4.635   5.100   3.275
 7246TIP3   OH221701   6.523   0.674   3.136
 7246TIP3    H121702   6.451   0.612   3.126
 7246TIP3    H221703   6.541   0.676   3.230
 7247TIP3   OH221704   0.127   3.691   2.421
 7247TIP3    H121705   0.112   3.613   2.368
 7247TIP3    H221706   0.039   3.723   2.441
 7248TIP3   OH221707   2.232   6.642   1.810
 7248TIP3    H121708   2.274   6.594   1.739
 7248TIP3    H221709   2.219   6.730   1.775
 7249TIP3   OH221710   4.711   2.040   1.498
 7249TIP3    H121711   4.678   2.128   1.477
 7249TIP3    H221712   4.746   2.049   1.587
 7250TIP3   OH221713   1.688   2.373   2.467
 7250TIP3    H121714   1.741   2.409   2.538
 7250TIP3    H221715   1.614   2.332   2.511
 7251TIP3   OH221716   1.317   6.511   2.738
 7251TIP3    H121717   1.334   6.453   2.664
 7251TIP3    H221718   1.225   6.497   2.759
 7252TIP3   OH221719   5.517   2.889   5.274
 7252TIP3    H121720   5.512   2.877   5.179
 7252TIP3    H221721   5.431   2.863   5.306
 7253TIP3   OH221722   6.545   5.078   3.984
 7253TIP3    H121723   6.632   5.076   4.024
 7253TIP3    H221724   6.486   5.052   4.055
 7254TIP3   OH221725   0.005   6.645   0.957
 7254TIP3    H121726   0.030   6.697   0.881
 7254TIP3    H221727   0.088   6.611   0.991
 7255TIP3   OH221728   7.037   6.374   3.271
 7255TIP3    H121729   7.018   6.288   3.234
 7255TIP3    H221730   6.959   6.426   3.253
 7256TIP3   OH221731   4.589   1.114   3.489
 7256TIP3    H121732   4.511   1.080   3.535
 7256TIP3    H221733   4.577   1.209   3.490
 7257TIP3   OH221734   1.204   0.168   3.339
 7257TIP3    H121735   1.124   0.209   3.307
 7257TIP3    H221736   1.186   0.147   3.431
 7258TIP3   OH221737   1.284   0.916   4.723
 7258TIP3    H121738   1.324   0.842   4.678
 7258TIP3    H221739   1.345   0.988   4.709
 7259TIP3   OH221740   5.457   5.035   0.977
 7259TIP3    H121741   5.427   5.011   1.064
 7259TIP3    H221742   5.547   5.064   0.989
 7260TIP3   OH221743   5.092   1.900   4.042
 7260TIP3    H121744   5.123   1.888   3.952
 7260TIP3    H221745   5.076   1.994   4.049
 7261TIP3   OH221746   5.285   0.983   1.089
 7261TIP3    H121747   5.240   1.028   1.161
 7261TIP3    H221748   5.235   0.903   1.076
 7262TIP3   OH221749   2.336   2.717   5.386
 7262TIP3    H121750   2.369   2.649   5.327
 7262TIP3    H221751   2.243   2.697   5.395
 7263TIP3   OH221752   5.238   2.205   5.805
 7263TIP3    H121753   5.166   2.172   5.752
 7263TIP3    H221754   5.247   2.297   5.779
 7264TIP3   OH221755   1.069   4.414   4.032
 7264TIP3    H121756   1.045   4.498   3.993
 7264TIP3    H221757   0.984   4.372   4.052
 7265TIP3   OH221758   7.128   3.263   5.502
 7265TIP3    H121759   7.081   3.243   5.421
 7265TIP3    H221760   7.071   3.231   5.572
 7266TIP3   OH221761   4.248   1.554   1.536
 7266TIP3    H121762   4.153   1.547   1.534
 7266TIP3    H221763   4.279   1.467   1.562
 7267TIP3   OH221764   5.402   5.337   4.393
 7267TIP3    H121765   5.397   5.351   4.298
 7267TIP3    H221766   5.317   5.298   4.415
 7268TIP3   OH221767   5.054   4.533   0.284
 7268TIP3    H121768   5.135   4.517   0.236
 7268TIP3    H221769   4.999   4.583   0.224
 7269TIP3   OH221770   2.203   4.311   0.975
 7269TIP3    H121771   2.179   4.236   1.029
 7269TIP3    H221772   2.170   4.291   0.888
 7270TIP3   OH221773   5.057   2.261   4.005
 7270TIP3    H121774   5.024   2.205   4.075
 7270TIP3    H221775   4.978   2.297   3.964
 7271TIP3   OH221776   4.089   0.991   1.233
 7271TIP3    H121777   4.154   1.034   1.178
 7271TIP3    H221778   4.055   1.061   1.288
 7272TIP3   OH221779   6.899   3.350   0.931
 7272TIP3    H121780   6.894   3.286   0.860
 7272TIP3    H221781   6.976   3.323   0.982
 7273TIP3   OH221782   4.843   3.330   5.840
 7273TIP3    H121783   4.857   3.401   5.903
 7273TIP3    H221784   4.769   3.360   5.787
 7274TIP3   OH221785   0.189   0.916   1.949
 7274TIP3    H121786   0.162   0.984   2.011
 7274TIP3    H221787   0.268   0.952   1.908
 7275TIP3   OH221788   6.541   6.272   4.544
 7275TIP3    H121789   6.621   6.222   4.558
 7275TIP3    H221790   6.539   6.335   4.616
 7276TIP3   OH221791   2.222   5.298   0.475
 7276TIP3    H121792   2.139   5.252   0.467
 7276TIP3    H221793   2.198   5.391   0.478
 7277TIP3   OH221794   6.754   5.062   4.993
 7277TIP3    H121795   6.671   5.061   4.946
 7277TIP3    H221796   6.768   5.155   5.014
 7278TIP3   OH221797   5.419   3.644   0.498
 7278TIP3    H121798   5.503   3.637   0.543
 7278TIP3    H221799   5.440   3.628   0.406
 7279TIP3   OH221800   1.764   0.029   3.618
 7279TIP3    H121801   1.702  -0.041   3.599
 7279TIP3    H221802   1.794   0.058   3.532
 7280TIP3   OH221803   5.211   6.232   2.700
 7280TIP3    H121804   5.204   6.327   2.692
 7280TIP3    H221805   5.142   6.208   2.763
 7281TIP3   OH221806   3.160   0.981   2.717
 7281TIP3    H121807   3.146   0.887   2.705
 7281TIP3    H221808   3.074   1.015   2.742
 7282TIP3   OH221809   2.295   2.059   5.664
 7282TIP3    H121810   2.238   2.057   5.741
 7282TIP3    H221811   2.344   2.140   5.672
 7283TIP3   OH221812   7.019   2.730   2.769
 7283TIP3    H121813   7.086   2.787   2.732
 7283TIP3    H221814   7.060   2.692   2.847
 7284TIP3   OH221815   6.011   0.411   5.370
 7284TIP3    H121816   5.974   0.345   5.312
 7284TIP3    H221817   6.073   0.363   5.425
 7285TIP3   OH221818   6.650   3.854   2.515
 7285TIP3    H121819   6.683   3.782   2.570
 7285TIP3    H221820   6.683   3.933   2.557
 7286TIP3   OH221821   5.333   5.346   1.407
 7286TIP3    H121822   5.263   5.281   1.398
 7286TIP3    H221823   5.390   5.309   1.475
 7287TIP3   OH221824   0.252   6.075   3.719
 7287TIP3    H121825   0.273   6.047   3.630
 7287TIP3    H221826   0.176   6.022   3.743
 7288TIP3   OH221827   3.786   6.597   3.582
 7288TIP3    H121828   3.809   6.510   3.613
 7288TIP3    H221829   3.691   6.595   3.571
 7289TIP3   OH221830   6.926   1.617   4.763
 7289TIP3    H121831   6.986   1.612   4.688
 7289TIP3    H221832   6.885   1.703   4.754
 7290TIP3   OH221833   5.290   4.564   2.532
 7290TIP3    H121834   5.384   4.580   2.532
 7290TIP3    H221835   5.278   4.490   2.472
 7291TIP3   OH221836   5.849   0.255   5.083
 7291TIP3    H121837   5.763   0.215   5.097
 7291TIP3    H221838   5.845   0.288   4.993
 7292TIP3   OH221839   6.881   4.280   0.908
 7292TIP3    H121840   6.808   4.309   0.964
 7292TIP3    H221841   6.910   4.360   0.864
 7293TIP3   OH221842   4.443   2.955   2.850
 7293TIP3    H121843   4.492   3.030   2.818
 7293TIP3    H221844   4.351   2.980   2.837
 7294TIP3   OH221845   1.020   0.653   2.165
 7294TIP3    H121846   1.034   0.747   2.180
 7294TIP3    H221847   1.102   0.622   2.128
 7295TIP3   OH221848   4.657   6.189   4.461
 7295TIP3    H121849   4.620   6.246   4.394
 7295TIP3    H221850   4.583   6.136   4.491
 7296TIP3   OH221851   4.813   4.917   1.642
 7296TIP3    H121852   4.870   4.856   1.690
 7296TIP3    H221853   4.724   4.890   1.665
 7297TIP3   OH221854   3.607   2.679   1.445
 7297TIP3    H121855   3.625   2.585   1.437
 7297TIP3    H221856   3.680   2.721   1.399
 7298TIP3   OH221857   5.658   6.370   3.835
 7298TIP3    H121858   5.564   6.361   3.849
 7298TIP3    H221859   5.666   6.427   3.759
 7299TIP3   OH221860   0.887   3.675   0.431
 7299TIP3    H121861   0.933   3.598   0.399
 7299TIP3    H221862   0.811   3.641   0.478
 7300TIP3   OH221863   2.796   1.102   0.289
 7300TIP3    H121864   2.713   1.086   0.334
 7300TIP3    H221865   2.789   1.050   0.208
 7301TIP3   OH221866   0.553   4.015   3.847
 7301TIP3    H121867   0.500   4.087   3.880
 7301TIP3    H221868   0.643   4.042   3.863
 7302TIP3   OH221869   1.130   0.198   1.185
 7302TIP3    H121870   1.049   0.208   1.136
 7302TIP3    H221871   1.151   0.287   1.216
 7303TIP3   OH221872   6.462   5.398   1.804
 7303TIP3    H121873   6.545   5.381   1.850
 7303TIP3    H221874   6.440   5.314   1.764
 7304TIP3   OH221875   6.088   1.598   1.581
 7304TIP3    H121876   6.148   1.526   1.598
 7304TIP3    H221877   6.019   1.560   1.527
 7305TIP3   OH221878   3.115   4.474   0.692
 7305TIP3    H121879   3.198   4.520   0.691
 7305TIP3    H221880   3.128   4.400   0.752
 7306TIP3   OH221881   5.270   2.906   4.269
 7306TIP3    H121882   5.357   2.901   4.230
 7306TIP3    H221883   5.269   2.836   4.335
 7307TIP3   OH221884   5.932   1.849   2.804
 7307TIP3    H121885   5.955   1.911   2.735
 7307TIP3    H221886   5.955   1.895   2.885
 7308TIP3   OH221887   5.578   5.687   4.792
 7308TIP3    H121888   5.505   5.647   4.744
 7308TIP3    H221889   5.551   5.684   4.884
 7309TIP3   OH221890   4.288   1.494   5.793
 7309TIP3    H121891   4.318   1.430   5.857
 7309TIP3    H221892   4.346   1.481   5.718
 7310TIP3   OH221893   1.114   5.843   0.946
 7310TIP3    H121894   1.030   5.880   0.922
 7310TIP3    H221895   1.160   5.914   0.991
 7311TIP3   OH221896   6.746   3.196   1.164
 7311TIP3    H121897   6.779   3.285   1.157
 7311TIP3    H221898   6.662   3.197   1.119
 7312TIP3   OH221899   6.411   6.530   4.102
 7312TIP3    H121900   6.354   6.453   4.093
 7312TIP3    H221901   6.469   6.508   4.174
 7313TIP3   OH221902   2.784   0.952   1.220
 7313TIP3    H121903   2.708   0.996   1.259
 7313TIP3    H221904   2.805   0.883   1.282
 7314TIP3   OH221905   4.028   3.066   0.282
 7314TIP3    H121906   4.092   3.045   0.214
 7314TIP3    H221907   4.069   3.135   0.334
 7315TIP3   OH221908   1.829   4.321   3.774
 7315TIP3    H121909   1.762   4.254   3.778
 7315TIP3    H221910   1.827   4.363   3.860
 7316TIP3   OH221911   4.127   0.840   3.153
 7316TIP3    H121912   4.205   0.842   3.209
 7316TIP3    H221913   4.143   0.768   3.092
 7317TIP3   OH221914   3.172   1.911   1.906
 7317TIP3    H121915   3.095   1.945   1.951
 7317TIP3    H221916   3.200   1.982   1.848
 7318TIP3   OH221917   4.671   6.260   5.645
 7318TIP3    H121918   4.719   6.181   5.667
 7318TIP3    H221919   4.620   6.237   5.567
 7319TIP3   OH221920   7.163   6.568   5.190
 7319TIP3    H121921   7.117   6.638   5.143
 7319TIP3    H221922   7.099   6.497   5.195
 7320TIP3   OH221923   2.510   6.509   4.085
 7320TIP3    H121924   2.441   6.528   4.148
 7320TIP3    H221925   2.554   6.431   4.120
 7321TIP3   OH221926   3.978   1.566   2.735
 7321TIP3    H121927   3.936   1.556   2.650
 7321TIP3    H221928   3.961   1.484   2.781
 7322TIP3   OH221929   2.264   1.283   3.270
 7322TIP3    H121930   2.257   1.322   3.183
 7322TIP3    H221931   2.346   1.317   3.306
 7323TIP3   OH221932   0.110   4.371   3.212
 7323TIP3    H121933   0.058   4.415   3.145
 7323TIP3    H221934   0.189   4.342   3.166
 7324TIP3   OH221935   3.208   1.961   3.403
 7324TIP3    H121936   3.252   1.992   3.482
 7324TIP3    H221937   3.124   1.927   3.434
 7325TIP3   OH221938   5.904   2.313   5.542
 7325TIP3    H121939   5.925   2.321   5.636
 7325TIP3    H221940   5.928   2.398   5.506
 7326TIP3   OH221941   0.205   4.126   2.329
 7326TIP3    H121942   0.145   4.195   2.357
 7326TIP3    H221943   0.161   4.045   2.352
 7327TIP3   OH221944   1.321   3.441   5.540
 7327TIP3    H121945   1.282   3.353   5.533
 7327TIP3    H221946   1.297   3.470   5.628
 7328TIP3   OH221947   2.126   2.156   4.915
 7328TIP3    H121948   2.078   2.235   4.891
 7328TIP3    H221949   2.183   2.139   4.841
 7329TIP3   OH221950   2.582   2.112   1.705
 7329TIP3    H121951   2.638   2.111   1.783
 7329TIP3    H221952   2.567   2.019   1.686
 7330TIP3   OH221953   0.404   3.614   0.817
 7330TIP3    H121954   0.398   3.550   0.888
 7330TIP3    H221955   0.405   3.561   0.737
 7331TIP3   OH221956   6.286   5.541   5.251
 7331TIP3    H121957   6.207   5.513   5.204
 7331TIP3    H221958   6.273   5.510   5.340
 7332TIP3   OH221959   4.155   2.934   2.932
 7332TIP3    H121960   4.068   2.944   2.970
 7332TIP3    H221961   4.214   2.968   2.999
 7333TIP3   OH221962   3.880   3.857   4.814
 7333TIP3    H121963   3.921   3.883   4.896
 7333TIP3    H221964   3.953   3.838   4.755
 7334TIP3   OH221965   3.966   5.644   1.494
 7334TIP3    H121966   3.973   5.735   1.467
 7334TIP3    H221967   4.003   5.594   1.421
 7335TIP3   OH221968   1.756   0.541   1.131
 7335TIP3    H121969   1.734   0.450   1.153
 7335TIP3    H221970   1.771   0.540   1.037
 7336TIP3   OH221971   2.824   5.791   2.313
 7336TIP3    H121972   2.900   5.767   2.259
 7336TIP3    H221973   2.784   5.708   2.337
 7337TIP3   OH221974   3.994   4.351   2.481
 7337TIP3    H121975   4.028   4.271   2.522
 7337TIP3    H221976   4.040   4.356   2.397
 7338TIP3   OH221977   2.281   6.802   3.109
 7338TIP3    H121978   2.343   6.759   3.050
 7338TIP3    H221979   2.293   6.757   3.193
 7339TIP3   OH221980   6.065   2.153   4.323
 7339TIP3    H121981   5.979   2.191   4.305
 7339TIP3    H221982   6.068   2.073   4.269
 7340TIP3   OH221983   0.267   6.251   5.678
 7340TIP3    H121984   0.237   6.160   5.683
 7340TIP3    H221985   0.305   6.268   5.764
 7341TIP3   OH221986   5.910   5.202   0.958
 7341TIP3    H121987   5.928   5.108   0.949
 7341TIP3    H221988   5.818   5.211   0.934
 7342TIP3   OH221989   0.377   2.141   5.371
 7342TIP3    H121990   0.355   2.074   5.306
 7342TIP3    H221991   0.459   2.111   5.410
 7343TIP3   OH221992   3.570   1.724   5.696
 7343TIP3    H121993   3.516   1.803   5.688
 7343TIP3    H221994   3.508   1.652   5.701
 7344TIP3   OH221995   0.790   4.562   0.831
 7344TIP3    H121996   0.851   4.634   0.845
 7344TIP3    H221997   0.713   4.603   0.792
 7345TIP3   OH221998   6.560   0.671   3.427
 7345TIP3    H121999   6.505   0.708   3.496
 7345TIP3    H222000   6.544   0.577   3.431
 7346TIP3   OH222001   2.252   4.790   5.660
 7346TIP3    H122002   2.308   4.860   5.695
 7346TIP3    H222003   2.231   4.736   5.736
 7347TIP3   OH222004   0.037   5.161   4.931
 7347TIP3    H122005   0.009   5.237   4.880
 7347TIP3    H222006  -0.015   5.088   4.896
 7348TIP3   OH222007   1.791   3.992   3.971
 7348TIP3    H122008   1.877   4.015   4.004
 7348TIP3    H222009   1.735   3.988   4.049
 7349TIP3   OH222010   1.876   3.461   3.737
 7349TIP3    H122011   1.784   3.483   3.755
 7349TIP3    H222012   1.871   3.380   3.685
 7350TIP3   OH222013   5.767   4.797   5.214
 7350TIP3    H122014   5.802   4.827   5.130
 7350TIP3    H222015   5.807   4.855   5.279
 7351TIP3   OH222016   1.103   6.547   4.724
 7351TIP3    H122017   1.125   6.589   4.641
 7351TIP3    H222018   1.074   6.618   4.780
 7352TIP3   OH222019   1.216   2.431   2.687
 7352TIP3    H122020   1.201   2.337   2.700
 7352TIP3    H222021   1.259   2.459   2.768
 7353TIP3   OH222022   0.747   0.997   5.166
 7353TIP3    H122023   0.784   0.914   5.135
 7353TIP3    H222024   0.796   1.016   5.246
 7354TIP3   OH222025   4.367   4.480   1.558
 7354TIP3    H122026   4.356   4.546   1.491
 7354TIP3    H222027   4.294   4.495   1.619
 7355TIP3   OH222028   1.757   3.276   0.693
 7355TIP3    H122029   1.731   3.186   0.710
 7355TIP3    H222030   1.844   3.284   0.733
 7356TIP3   OH222031   6.946   3.290   1.990
 7356TIP3    H122032   6.974   3.203   2.019
 7356TIP3    H222033   6.880   3.272   1.923
 7357TIP3   OH222034   2.859   5.704   3.915
 7357TIP3    H122035   2.916   5.725   3.989
 7357TIP3    H222036   2.847   5.788   3.870
 7358TIP3   OH222037   5.806   4.608   2.701
 7358TIP3    H122038   5.892   4.599   2.742
 7358TIP3    H222039   5.782   4.699   2.715
 7359TIP3   OH222040   3.537   2.669   2.452
 7359TIP3    H122041   3.478   2.663   2.377
 7359TIP3    H222042   3.529   2.760   2.481
 7360TIP3   OH222043   3.558   5.270   0.978
 7360TIP3    H122044   3.569   5.203   1.045
 7360TIP3    H222045   3.645   5.282   0.941
 7361TIP3   OH222046   6.848   4.478   2.134
 7361TIP3    H122047   6.766   4.512   2.100
 7361TIP3    H222048   6.823   4.400   2.184
 7362TIP3   OH222049   1.747   6.722   0.633
 7362TIP3    H122050   1.718   6.771   0.556
 7362TIP3    H222051   1.721   6.632   0.615
 7363TIP3   OH222052   2.428   2.533   2.553
 7363TIP3    H122053   2.457   2.447   2.585
 7363TIP3    H222054   2.334   2.523   2.540
 7364TIP3   OH222055   2.245   1.020   5.202
 7364TIP3    H122056   2.175   1.067   5.157
 7364TIP3    H222057   2.218   1.018   5.293
 7365TIP3   OH222058   6.144   2.246   3.870
 7365TIP3    H122059   6.205   2.319   3.861
 7365TIP3    H222060   6.174   2.199   3.948
 7366TIP3   OH222061   4.009   4.919   5.393
 7366TIP3    H122062   4.066   4.952   5.463
 7366TIP3    H222063   3.925   4.960   5.410
 7367TIP3   OH222064   2.040   3.104   0.617
 7367TIP3    H122065   2.060   3.195   0.638
 7367TIP3    H222066   1.976   3.110   0.545
 7368TIP3   OH222067   5.802   6.162   0.966
 7368TIP3    H122068   5.821   6.206   1.049
 7368TIP3    H222069   5.711   6.183   0.947
 7369TIP3   OH222070   3.153   4.415   5.179
 7369TIP3    H122071   3.115   4.373   5.102
 7369TIP3    H222072   3.212   4.481   5.144
 7370TIP3   OH222073   4.072   5.999   4.181
 7370TIP3    H122074   4.151   6.015   4.233
 7370TIP3    H222075   4.102   6.000   4.090
 7371TIP3   OH222076   1.641   1.037   5.075
 7371TIP3    H122077   1.555   1.010   5.105
 7371TIP3    H222078   1.668   0.969   5.013
 7372TIP3   OH222079   2.216   6.333   4.096
 7372TIP3    H122080   2.217   6.411   4.040
 7372TIP3    H222081   2.197   6.261   4.036
 7373TIP3   OH222082   3.376   5.603   1.441
 7373TIP3    H122083   3.305   5.570   1.497
 7373TIP3    H222084   3.379   5.541   1.368
 7374TIP3   OH222085   4.959   0.865   1.894
 7374TIP3    H122086   4.908   0.920   1.954
 7374TIP3    H222087   5.030   0.831   1.949
 7375TIP3   OH222088   5.247   3.881   2.480
 7375TIP3    H122089   5.342   3.889   2.480
 7375TIP3    H222090   5.218   3.939   2.410
 7376TIP3   OH222091   6.663   2.177   3.107
 7376TIP3    H122092   6.599   2.123   3.061
 7376TIP3    H222093   6.635   2.267   3.088
 7377TIP3   OH222094   1.786   5.602   5.413
 7377TIP3    H122095   1.693   5.620   5.426
 7377TIP3    H222096   1.818   5.571   5.498
 7378TIP3   OH222097   1.519   6.366   5.193
 7378TIP3    H122098   1.531   6.460   5.189
 7378TIP3    H222099   1.430   6.354   5.228
 7379TIP3   OH222100   0.576   4.608   1.549
 7379TIP3    H122101   0.652   4.609   1.491
 7379TIP3    H222102   0.612   4.593   1.636
 7380TIP3   OH222103   4.459   0.185   5.712
 7380TIP3    H122104   4.550   0.155   5.720
 7380TIP3    H222105   4.419   0.160   5.795
 7381TIP3   OH222106   4.763   4.222   1.398
 7381TIP3    H122107   4.804   4.138   1.421
 7381TIP3    H222108   4.671   4.212   1.425
 7382TIP3   OH222109   7.020   1.732   0.617
 7382TIP3    H122110   6.949   1.701   0.673
 7382TIP3    H222111   7.081   1.775   0.677
 7383TIP3   OH222112   3.155   6.111   3.406
 7383TIP3    H122113   3.095   6.071   3.469
 7383TIP3    H222114   3.099   6.160   3.347
 7384TIP3   OH222115   2.372   1.380   2.508
 7384TIP3    H122116   2.452   1.347   2.550
 7384TIP3    H222117   2.348   1.311   2.445
 7385TIP3   OH222118   2.772   0.450   1.613
 7385TIP3    H122119   2.778   0.387   1.685
 7385TIP3    H222120   2.769   0.536   1.657
 7386TIP3   OH222121   6.160   3.567   1.273
 7386TIP3    H122122   6.179   3.538   1.362
 7386TIP3    H222123   6.175   3.662   1.275
 7387TIP3   OH222124   4.708   4.297   2.921
 7387TIP3    H122125   4.693   4.364   2.988
 7387TIP3    H222126   4.777   4.242   2.957
 7388TIP3   OH222127   3.214   0.844   4.841
 7388TIP3    H122128   3.206   0.917   4.903
 7388TIP3    H222129   3.196   0.766   4.893
 7389TIP3   OH222130   1.084   1.270   5.278
 7389TIP3    H122131   1.147   1.322   5.327
 7389TIP3    H222132   1.096   1.181   5.310
 7390TIP3   OH222133   3.963   6.733   5.377
 7390TIP3    H122134   4.042   6.766   5.422
 7390TIP3    H222135   3.994   6.706   5.291
 7391TIP3   OH222136   0.607   0.764   2.978
 7391TIP3    H122137   0.611   0.837   3.040
 7391TIP3    H222138   0.514   0.754   2.959
 7392TIP3   OH222139   4.023   3.226   3.100
 7392TIP3    H122140   4.061   3.174   3.172
 7392TIP3    H222141   3.984   3.161   3.042
 7393TIP3   OH222142   1.561   3.823   0.374
 7393TIP3    H122143   1.528   3.908   0.344
 7393TIP3    H222144   1.588   3.778   0.294
 7394TIP3   OH222145   1.124   0.791   3.415
 7394TIP3    H122146   1.065   0.857   3.452
 7394TIP3    H222147   1.132   0.726   3.485
 7395TIP3   OH222148   4.176   6.293   2.239
 7395TIP3    H122149   4.251   6.349   2.221
 7395TIP3    H222150   4.210   6.204   2.230
 7396TIP3   OH222151   3.762   4.864   0.114
 7396TIP3    H122152   3.732   4.785   0.069
 7396TIP3    H222153   3.729   4.936   0.060
 7397TIP3   OH222154   1.330   4.073   4.699
 7397TIP3    H122155   1.256   4.076   4.760
 7397TIP3    H222156   1.307   4.004   4.637
 7398TIP3   OH222157   4.581   5.675   2.223
 7398TIP3    H122158   4.665   5.632   2.241
 7398TIP3    H222159   4.582   5.691   2.129
 7399TIP3   OH222160   2.003   3.196   4.286
 7399TIP3    H122161   1.983   3.222   4.196
 7399TIP3    H222162   2.061   3.120   4.276
 7400TIP3   OH222163   1.402   0.379   3.600
 7400TIP3    H122164   1.457   0.388   3.522
 7400TIP3    H222165   1.406   0.286   3.622
 7401TIP3   OH222166   2.366   0.995   2.130
 7401TIP3    H122167   2.432   0.930   2.107
 7401TIP3    H222168   2.297   0.983   2.065
 7402TIP3   OH222169   3.080   4.788   5.125
 7402TIP3    H122170   3.173   4.803   5.112
 7402TIP3    H222171   3.045   4.775   5.036
 7403TIP3   OH222172   2.757   6.189   5.112
 7403TIP3    H122173   2.751   6.100   5.076
 7403TIP3    H222174   2.670   6.206   5.147
 7404TIP3   OH222175   3.046   6.091   1.383
 7404TIP3    H122176   2.994   6.078   1.463
 7404TIP3    H222177   2.988   6.138   1.324
 7405TIP3   OH222178   2.797   1.443   3.619
 7405TIP3    H122179   2.702   1.427   3.613
 7405TIP3    H222180   2.810   1.525   3.571
 7406TIP3   OH222181   1.685   4.268   2.167
 7406TIP3    H122182   1.741   4.345   2.176
 7406TIP3    H222183   1.602   4.293   2.207
 7407TIP3   OH222184   4.974   0.330   5.749
 7407TIP3    H122185   5.037   0.259   5.759
 7407TIP3    H222186   4.973   0.373   5.834
 7408TIP3   OH222187   0.935   0.054   3.120
 7408TIP3    H122188   0.939   0.069   3.214
 7408TIP3    H222189   0.931   0.142   3.082
 7409TIP3   OH222190   2.977   1.881   3.136
 7409TIP3    H122191   2.899   1.933   3.154
 7409TIP3    H222192   2.961   1.798   3.181
 7410TIP3   OH222193   6.484   4.749   5.851
 7410TIP3    H122194   6.537   4.675   5.823
 7410TIP3    H222195   6.510   4.820   5.792
 7411TIP3   OH222196   5.293   0.191   1.437
 7411TIP3    H122197   5.340   0.249   1.497
 7411TIP3    H222198   5.281   0.110   1.487
 7412TIP3   OH222199   2.448   3.909   2.286
 7412TIP3    H122200   2.377   3.846   2.283
 7412TIP3    H222201   2.406   3.993   2.301
 7413TIP3   OH222202   0.945   5.912   5.672
 7413TIP3    H122203   0.876   5.973   5.697
 7413TIP3    H222204   0.999   5.961   5.610
 7414TIP3   OH222205   1.942   4.742   4.890
 7414TIP3    H122206   1.914   4.651   4.882
 7414TIP3    H222207   2.007   4.753   4.821
 7415TIP3   OH222208   3.288   3.543   5.260
 7415TIP3    H122209   3.325   3.566   5.174
 7415TIP3    H222210   3.346   3.584   5.323
 7416TIP3   OH222211   3.509   2.335   3.532
 7416TIP3    H122212   3.467   2.374   3.608
 7416TIP3    H222213   3.597   2.373   3.531
 7417TIP3   OH222214   7.236   6.165   1.851
 7417TIP3    H122215   7.239   6.094   1.787
 7417TIP3    H222216   7.146   6.162   1.885
 7418TIP3   OH222217   1.018   3.968   1.729
 7418TIP3    H122218   1.096   3.995   1.779
 7418TIP3    H222219   0.967   3.916   1.790
 7419TIP3   OH222220   1.772   2.738   5.754
 7419TIP3    H122221   1.809   2.779   5.832
 7419TIP3    H222222   1.684   2.773   5.747
 7420TIP3   OH222223   3.869   0.744   0.459
 7420TIP3    H122224   3.787   0.744   0.410
 7420TIP3    H222225   3.933   0.708   0.398
 7421TIP3   OH222226   2.823   4.322   1.748
 7421TIP3    H122227   2.730   4.322   1.727
 7421TIP3    H222228   2.854   4.235   1.721
 7422TIP3   OH222229   4.844   1.676   2.270
 7422TIP3    H122230   4.851   1.727   2.189
 7422TIP3    H222231   4.921   1.619   2.269
 7423TIP3   OH222232   2.560   1.718   0.264
 7423TIP3    H122233   2.494   1.700   0.331
 7423TIP3    H222234   2.550   1.811   0.245
 7424TIP3   OH222235   0.262   5.421   4.081
 7424TIP3    H122236   0.298   5.481   4.147
 7424TIP3    H222237   0.300   5.450   3.999
 7425TIP3   OH222238   4.355   1.849   5.150
 7425TIP3    H122239   4.268   1.888   5.154
 7425TIP3    H222240   4.346   1.767   5.199
 7426TIP3   OH222241   0.569   3.113   2.255
 7426TIP3    H122242   0.661   3.106   2.231
 7426TIP3    H222243   0.522   3.102   2.173
 7427TIP3   OH222244   1.567   6.553   3.651
 7427TIP3    H122245   1.488   6.531   3.701
 7427TIP3    H222246   1.579   6.479   3.591
 7428TIP3   OH222247   3.535   3.985   3.995
 7428TIP3    H122248   3.503   3.976   4.084
 7428TIP3    H222249   3.622   4.024   4.004
 7429TIP3   OH222250   7.054   0.936   1.666
 7429TIP3    H122251   7.131   0.925   1.611
 7429TIP3    H222252   6.997   0.995   1.616
 7430TIP3   OH222253   6.855   6.505   4.090
 7430TIP3    H122254   6.830   6.596   4.104
 7430TIP3    H222255   6.826   6.485   4.001
 7431TIP3   OH222256   5.084   6.081   1.921
 7431TIP3    H122257   5.068   5.991   1.894
 7431TIP3    H222258   5.002   6.109   1.961
 7432TIP3   OH222259   3.672   0.608   1.811
 7432TIP3    H122260   3.687   0.657   1.892
 7432TIP3    H222261   3.601   0.548   1.833
 7433TIP3   OH222262   6.406   5.506   5.699
 7433TIP3    H122263   6.484   5.560   5.685
 7433TIP3    H222264   6.401   5.451   5.621
 7434TIP3   OH222265   3.861   3.208   2.369
 7434TIP3    H122266   3.904   3.292   2.381
 7434TIP3    H222267   3.813   3.194   2.450
 7435TIP3   OH222268   6.896   5.935   0.258
 7435TIP3    H122269   6.890   6.008   0.320
 7435TIP3    H222270   6.941   5.866   0.307
 7436TIP3   OH222271   4.839   4.134   0.803
 7436TIP3    H122272   4.788   4.174   0.873
 7436TIP3    H222273   4.776   4.120   0.732
 7437TIP3   OH222274   5.522   4.086   0.931
 7437TIP3    H122275   5.450   4.022   0.931
 7437TIP3    H222276   5.523   4.122   1.020
 7438TIP3   OH222277   2.640   1.540   5.358
 7438TIP3    H122278   2.661   1.578   5.444
 7438TIP3    H222279   2.646   1.445   5.373
 7439TIP3   OH222280   2.507   5.293   5.183
 7439TIP3    H122281   2.583   5.312   5.129
 7439TIP3    H222282   2.490   5.200   5.169
 7440TIP3   OH222283   6.528   6.110   1.510
 7440TIP3    H122284   6.590   6.039   1.491
 7440TIP3    H222285   6.535   6.123   1.604
 7441TIP3   OH222286   3.634   4.308   4.065
 7441TIP3    H122287   3.661   4.400   4.056
 7441TIP3    H222288   3.675   4.264   3.991
 7442TIP3   OH222289   0.318   1.811   2.372
 7442TIP3    H122290   0.332   1.835   2.280
 7442TIP3    H222291   0.398   1.766   2.397
 7443TIP3   OH222292   4.304   4.699   0.307
 7443TIP3    H122293   4.292   4.604   0.302
 7443TIP3    H222294   4.280   4.730   0.220
 7444TIP3   OH222295   6.887   5.468   2.949
 7444TIP3    H122296   6.970   5.449   2.992
 7444TIP3    H222297   6.884   5.563   2.941
 7445TIP3   OH222298   1.706   2.374   3.763
 7445TIP3    H122299   1.747   2.305   3.816
 7445TIP3    H222300   1.767   2.447   3.768
 7446TIP3   OH222301   6.236   2.556   0.727
 7446TIP3    H122302   6.237   2.523   0.637
 7446TIP3    H222303   6.328   2.568   0.750
 7447TIP3   OH222304   1.145   5.560   3.400
 7447TIP3    H122305   1.205   5.512   3.457
 7447TIP3    H222306   1.075   5.591   3.458
 7448TIP3   OH222307   6.847   0.186   3.308
 7448TIP3    H122308   6.842   0.280   3.330
 7448TIP3    H222309   6.853   0.184   3.213
 7449TIP3   OH222310   2.013   2.041   4.201
 7449TIP3    H122311   2.014   1.966   4.141
 7449TIP3    H222312   1.941   2.023   4.261
 7450TIP3   OH222313   5.702   5.876   3.423
 7450TIP3    H122314   5.734   5.801   3.374
 7450TIP3    H222315   5.615   5.894   3.387
 7451TIP3   OH222316   5.836   3.720   0.579
 7451TIP3    H122317   5.788   3.637   0.579
 7451TIP3    H222318   5.846   3.742   0.486
 7452TIP3   OH222319   5.119   1.994   4.744
 7452TIP3    H122320   5.040   1.949   4.713
 7452TIP3    H222321   5.131   2.067   4.684
 7453TIP3   OH222322   4.353   1.212   4.536
 7453TIP3    H122323   4.383   1.176   4.619
 7453TIP3    H222324   4.352   1.307   4.550
 7454TIP3   OH222325   2.173   0.089   3.588
 7454TIP3    H122326   2.238   0.144   3.633
 7454TIP3    H222327   2.191   0.102   3.495
 7455TIP3   OH222328   6.113   1.622   5.814
 7455TIP3    H122329   6.175   1.693   5.798
 7455TIP3    H222330   6.079   1.600   5.727
 7456TIP3   OH222331   4.660   0.030   4.043
 7456TIP3    H122332   4.651   0.086   3.966
 7456TIP3    H222333   4.751   0.041   4.070
 7457TIP3   OH222334   3.195   3.533   4.091
 7457TIP3    H122335   3.101   3.526   4.078
 7457TIP3    H222336   3.229   3.446   4.069
 7458TIP3   OH222337   5.962   1.653   4.244
 7458TIP3    H122338   5.874   1.615   4.248
 7458TIP3    H222339   5.989   1.660   4.336
 7459TIP3   OH222340   2.263   1.416   3.644
 7459TIP3    H122341   2.179   1.422   3.599
 7459TIP3    H222342   2.262   1.329   3.684
 7460TIP3   OH222343   6.258   2.740   2.961
 7460TIP3    H122344   6.352   2.727   2.946
 7460TIP3    H222345   6.247   2.835   2.965
 7461TIP3   OH222346   4.208   4.355   0.645
 7461TIP3    H122347   4.144   4.423   0.623
 7461TIP3    H222348   4.169   4.307   0.718
 7462TIP3   OH222349   5.111   6.487   0.002
 7462TIP3    H122350   5.173   6.559   0.010
 7462TIP3    H222351   5.028   6.524   0.032
 7463TIP3   OH222352   1.635   4.118   5.241
 7463TIP3    H122353   1.599   4.038   5.279
 7463TIP3    H222354   1.564   4.156   5.190
 7464TIP3   OH222355   5.498   2.531   0.960
 7464TIP3    H122356   5.489   2.584   1.039
 7464TIP3    H222357   5.504   2.594   0.889
 7465TIP3   OH222358   0.248   3.932   0.335
 7465TIP3    H122359   0.165   3.951   0.380
 7465TIP3    H222360   0.304   3.894   0.403
 7466TIP3   OH222361   7.002   5.707   1.410
 7466TIP3    H122362   6.936   5.646   1.377
 7466TIP3    H222363   7.003   5.693   1.505
 7467TIP3   OH222364   1.888   1.631   1.717
 7467TIP3    H122365   1.800   1.668   1.711
 7467TIP3    H222366   1.875   1.541   1.747
 7468TIP3   OH222367  -0.029   3.505   3.078
 7468TIP3    H122368   0.038   3.573   3.082
 7468TIP3    H222369  -0.028   3.476   2.987
 7469TIP3   OH222370   0.156   6.271   1.408
 7469TIP3    H122371   0.243   6.231   1.412
 7469TIP3    H222372   0.102   6.207   1.363
 7470TIP3   OH222373   6.174   0.616   3.628
 7470TIP3    H122374   6.124   0.630   3.548
 7470TIP3    H222375   6.200   0.524   3.625
 7471TIP3   OH222376   1.859   4.534   2.085
 7471TIP3    H122377   1.849   4.625   2.113
 7471TIP3    H222378   1.825   4.533   1.995
 7472TIP3   OH222379   4.237   0.287   1.436
 7472TIP3    H122380   4.244   0.365   1.381
 7472TIP3    H222381   4.146   0.260   1.429
 7473TIP3   OH222382   3.384   4.553   5.560
 7473TIP3    H122383   3.476   4.566   5.539
 7473TIP3    H222384   3.382   4.473   5.613
 7474TIP3   OH222385   1.899   3.201   3.649
 7474TIP3    H122386   1.825   3.141   3.639
 7474TIP3    H222387   1.968   3.147   3.688
 7475TIP3   OH222388   4.445   0.162   3.181
 7475TIP3    H122389   4.440   0.164   3.276
 7475TIP3    H222390   4.523   0.109   3.162
 7476TIP3   OH222391   1.437   4.064   0.278
 7476TIP3    H122392   1.399   4.054   0.365
 7476TIP3    H222393   1.512   4.121   0.291
 7477TIP3   OH222394   6.053   2.567   2.869
 7477TIP3    H122395   6.126   2.620   2.901
 7477TIP3    H222396   6.089   2.519   2.795
 7478TIP3   OH222397   0.627   6.297   1.822
 7478TIP3    H122398   0.700   6.235   1.830
 7478TIP3    H222399   0.577   6.285   1.903
 7479TIP3   OH222400   0.578   5.044   2.750
 7479TIP3    H122401   0.489   5.071   2.728
 7479TIP3    H222402   0.567   4.970   2.810
 7480TIP3   OH222403   5.443   6.649   0.773
 7480TIP3    H122404   5.514   6.705   0.742
 7480TIP3    H222405   5.372   6.710   0.793
 7481TIP3   OH222406   4.304   6.038   1.467
 7481TIP3    H122407   4.224   6.006   1.425
 7481TIP3    H222408   4.373   5.981   1.435
 7482TIP3   OH222409   0.697   2.730   2.538
 7482TIP3    H122410   0.606   2.737   2.511
 7482TIP3    H222411   0.745   2.785   2.476
 7483TIP3   OH222412   4.081   3.098   2.179
 7483TIP3    H122413   4.157   3.058   2.135
 7483TIP3    H222414   4.088   3.068   2.270
 7484TIP3   OH222415   1.455   2.090   3.116
 7484TIP3    H122416   1.365   2.115   3.094
 7484TIP3    H222417   1.450   1.995   3.132
 7485TIP3   OH222418   0.234   6.579   5.827
 7485TIP3    H122419   0.220   6.576   5.733
 7485TIP3    H222420   0.149   6.600   5.864
 7486TIP3   OH222421   5.697   4.421   1.025
 7486TIP3    H122422   5.617   4.472   1.038
 7486TIP3    H222423   5.713   4.423   0.931
 7487TIP3   OH222424   5.981   2.630   2.187
 7487TIP3    H122425   5.942   2.576   2.118
 7487TIP3    H222426   6.043   2.686   2.142
 7488TIP3   OH222427   0.736   5.325   2.614
 7488TIP3    H122428   0.681   5.333   2.691
 7488TIP3    H222429   0.770   5.236   2.617
 7489TIP3   OH222430   1.125   6.222   0.228
 7489TIP3    H122431   1.124   6.277   0.149
 7489TIP3    H222432   1.213   6.183   0.228
 7490TIP3   OH222433   6.830   5.513   1.341
 7490TIP3    H122434   6.864   5.462   1.415
 7490TIP3    H222435   6.878   5.479   1.266
 7491TIP3   OH222436   2.063   5.656   5.017
 7491TIP3    H122437   2.135   5.595   5.001
 7491TIP3    H222438   2.001   5.637   4.947
 7492TIP3   OH222439   6.415   6.266   0.634
 7492TIP3    H122440   6.330   6.291   0.670
 7492TIP3    H222441   6.399   6.183   0.589
 7493TIP3   OH222442   0.195   6.465   2.409
 7493TIP3    H122443   0.183   6.560   2.407
 7493TIP3    H222444   0.281   6.450   2.371
 7494TIP3   OH222445   0.981   5.530   4.980
 7494TIP3    H122446   0.937   5.615   4.977
 7494TIP3    H222447   1.074   5.551   4.970
 7495TIP3   OH222448   2.177   1.424   0.995
 7495TIP3    H122449   2.148   1.454   1.081
 7495TIP3    H222450   2.238   1.492   0.965
 7496TIP3   OH222451   1.450   4.396   1.237
 7496TIP3    H122452   1.463   4.355   1.151
 7496TIP3    H222453   1.404   4.330   1.288
 7497TIP3   OH222454   2.869   4.809   4.327
 7497TIP3    H122455   2.831   4.894   4.306
 7497TIP3    H222456   2.812   4.746   4.284
 7498TIP3   OH222457   3.293   2.616   5.018
 7498TIP3    H122458   3.334   2.605   4.932
 7498TIP3    H222459   3.330   2.697   5.052
 7499TIP3   OH222460   1.909   0.931   3.297
 7499TIP3    H122461   1.956   1.015   3.298
 7499TIP3    H222462   1.954   0.878   3.362
 7500TIP3   OH222463   6.022   2.442   5.194
 7500TIP3    H122464   6.090   2.497   5.232
 7500TIP3    H222465   6.037   2.356   5.232
 7501TIP3   OH222466   3.904   1.800   4.486
 7501TIP3    H122467   3.953   1.874   4.521
 7501TIP3    H222468   3.924   1.728   4.546
 7502TIP3   OH222469   6.787   2.750   0.463
 7502TIP3    H122470   6.740   2.734   0.545
 7502TIP3    H222471   6.880   2.752   0.489
 7503TIP3   OH222472   3.218   3.772   2.144
 7503TIP3    H122473   3.153   3.727   2.090
 7503TIP3    H222474   3.170   3.845   2.184
 7504TIP3   OH222475   0.775   2.633   5.510
 7504TIP3    H122476   0.737   2.593   5.432
 7504TIP3    H222477   0.720   2.709   5.528
 7505TIP3   OH222478   0.288   4.197   0.336
 7505TIP3    H122479   0.265   4.107   0.316
 7505TIP3    H222480   0.274   4.245   0.254
 7506TIP3   OH222481   5.531   3.526   0.284
 7506TIP3    H122482   5.484   3.462   0.231
 7506TIP3    H222483   5.622   3.517   0.257
 7507TIP3   OH222484   5.836   6.005   5.830
 7507TIP3    H122485   5.858   5.931   5.774
 7507TIP3    H222486   5.745   5.990   5.855
 7508TIP3   OH222487   6.931   1.991   1.873
 7508TIP3    H122488   6.946   1.915   1.930
 7508TIP3    H222489   6.846   2.026   1.901
 7509TIP3   OH222490   2.150   3.832   5.892
 7509TIP3    H122491   2.136   3.759   5.832
 7509TIP3    H222492   2.137   3.910   5.838
 7510TIP3   OH222493   2.054   6.497   4.538
 7510TIP3    H122494   2.068   6.423   4.479
 7510TIP3    H222495   2.011   6.458   4.614
 7511TIP3   OH222496   1.045   2.827   2.071
 7511TIP3    H122497   1.061   2.741   2.109
 7511TIP3    H222498   0.958   2.820   2.032
 7512TIP3   OH222499   3.065   1.999   0.618
 7512TIP3    H122500   3.158   1.979   0.602
 7512TIP3    H222501   3.027   2.008   0.531
 7513TIP3   OH222502   0.349   3.379   5.551
 7513TIP3    H122503   0.259   3.408   5.543
 7513TIP3    H222504   0.368   3.384   5.645
 7514TIP3   OH222505   1.851   0.109   3.341
 7514TIP3    H122506   1.909   0.036   3.319
 7514TIP3    H222507   1.896   0.186   3.306
 7515TIP3   OH222508   6.593   1.237   5.811
 7515TIP3    H122509   6.607   1.300   5.741
 7515TIP3    H222510   6.662   1.172   5.799
 7516TIP3   OH222511   2.063   4.916   4.195
 7516TIP3    H122512   2.098   4.831   4.220
 7516TIP3    H222513   1.968   4.905   4.201
 7517TIP3   OH222514   0.604   6.265   1.238
 7517TIP3    H122515   0.594   6.359   1.256
 7517TIP3    H222516   0.693   6.257   1.202
 7518TIP3   OH222517   0.152   2.081   2.314
 7518TIP3    H122518   0.225   2.095   2.254
 7518TIP3    H222519   0.112   1.999   2.285
 7519TIP3   OH222520   0.997   5.974   0.228
 7519TIP3    H122521   0.940   5.975   0.305
 7519TIP3    H222522   1.035   6.062   0.225
 7520TIP3   OH222523   6.929   2.891   2.456
 7520TIP3    H122524   7.016   2.893   2.495
 7520TIP3    H222525   6.910   2.799   2.443
 7521TIP3   OH222526   4.885   4.630   0.081
 7521TIP3    H122527   4.838   4.705   0.119
 7521TIP3    H222528   4.940   4.669   0.013
 7522TIP3   OH222529   1.154   3.742   5.499
 7522TIP3    H122530   1.088   3.679   5.528
 7522TIP3    H222531   1.208   3.693   5.437
 7523TIP3   OH222532   1.070   1.932   0.301
 7523TIP3    H122533   1.062   1.852   0.250
 7523TIP3    H222534   1.164   1.939   0.319
 7524TIP3   OH222535   0.647   4.031   4.191
 7524TIP3    H122536   0.556   4.002   4.200
 7524TIP3    H222537   0.641   4.126   4.189
 7525TIP3   OH222538   0.098   1.025   2.203
 7525TIP3    H122539   0.187   1.060   2.196
 7525TIP3    H222540   0.109   0.943   2.251
 7526TIP3   OH222541   0.978   5.077   0.760
 7526TIP3    H122542   0.947   5.156   0.805
 7526TIP3    H222543   0.914   5.063   0.690
 7527TIP3   OH222544   1.325   2.042   0.977
 7527TIP3    H122545   1.230   2.032   0.969
 7527TIP3    H222546   1.359   2.023   0.889
 7528TIP3   OH222547   2.226   3.091   1.057
 7528TIP3    H122548   2.262   3.161   1.110
 7528TIP3    H222549   2.221   3.016   1.116
 7529TIP3   OH222550   6.029   3.256   1.458
 7529TIP3    H122551   6.019   3.215   1.544
 7529TIP3    H222552   6.105   3.314   1.468
 7530TIP3   OH222553   0.272   1.203   0.323
 7530TIP3    H122554   0.286   1.293   0.295
 7530TIP3    H222555   0.298   1.150   0.247
 7531TIP3   OH222556   2.521   3.463   2.969
 7531TIP3    H122557   2.594   3.501   2.920
 7531TIP3    H222558   2.526   3.369   2.950
 7532TIP3   OH222559   0.153   0.069   4.778
 7532TIP3    H122560   0.121  -0.004   4.831
 7532TIP3    H222561   0.161   0.142   4.839
 7533TIP3   OH222562   3.904   2.162   3.087
 7533TIP3    H122563   3.884   2.255   3.076
 7533TIP3    H222564   3.828   2.116   3.052
 7534TIP3   OH222565   3.118   0.158   3.535
 7534TIP3    H122566   3.077   0.150   3.449
 7534TIP3    H222567   3.189   0.093   3.535
 7535TIP3   OH222568   0.616   3.036   3.241
 7535TIP3    H122569   0.649   3.110   3.292
 7535TIP3    H222570   0.691   2.976   3.235
 7536TIP3   OH222571   0.684   4.478   0.252
 7536TIP3    H122572   0.749   4.512   0.313
 7536TIP3    H222573   0.716   4.391   0.228
 7537TIP3   OH222574   2.237   0.629   5.779
 7537TIP3    H122575   2.179   0.677   5.720
 7537TIP3    H222576   2.273   0.696   5.837
 7538TIP3   OH222577   4.657   4.718   1.336
 7538TIP3    H122578   4.689   4.690   1.422
 7538TIP3    H222579   4.711   4.794   1.314
 7539TIP3   OH222580   3.228   5.302   0.444
 7539TIP3    H122581   3.317   5.337   0.444
 7539TIP3    H222582   3.208   5.287   0.536
 7540TIP3   OH222583   0.096   1.814   4.485
 7540TIP3    H122584   0.118   1.771   4.403
 7540TIP3    H222585   0.037   1.753   4.529
 7541TIP3   OH222586   6.115   2.424   2.636
 7541TIP3    H122587   6.080   2.450   2.551
 7541TIP3    H222588   6.206   2.453   2.635
 7542TIP3   OH222589   3.444   4.345   1.000
 7542TIP3    H122590   3.443   4.307   1.088
 7542TIP3    H222591   3.525   4.397   0.998
 7543TIP3   OH222592   2.169   5.101   1.145
 7543TIP3    H122593   2.076   5.080   1.158
 7543TIP3    H222594   2.184   5.178   1.199
 7544TIP3   OH222595   3.921   5.122   1.613
 7544TIP3    H122596   3.990   5.068   1.653
 7544TIP3    H222597   3.954   5.141   1.525
 7545TIP3   OH222598   1.400   3.027   0.026
 7545TIP3    H122599   1.446   2.993   0.102
 7545TIP3    H222600   1.411   3.122   0.031
 7546TIP3   OH222601   2.065   1.845   1.623
 7546TIP3    H122602   2.028   1.768   1.667
 7546TIP3    H222603   2.089   1.813   1.536
 7547TIP3   OH222604   0.867   6.232   0.059
 7547TIP3    H122605   0.886   6.138   0.066
 7547TIP3    H222606   0.810   6.239  -0.018
 7548TIP3   OH222607   3.883   4.794   0.358
 7548TIP3    H122608   3.833   4.822   0.282
 7548TIP3    H222609   3.823   4.738   0.407
 7549TIP3   OH222610   0.031   2.278   1.940
 7549TIP3    H122611  -0.016   2.196   1.925
 7549TIP3    H222612   0.117   2.251   1.972
 7550TIP3   OH222613   2.123   5.178   0.170
 7550TIP3    H122614   2.062   5.221   0.230
 7550TIP3    H222615   2.070   5.111   0.126
 7551TIP3   OH222616   0.007   3.121   5.040
 7551TIP3    H122617  -0.063   3.169   5.084
 7551TIP3    H222618   0.045   3.065   5.108
 7552TIP3   OH222619   4.348   6.576   0.165
 7552TIP3    H122620   4.379   6.666   0.161
 7552TIP3    H222621   4.254   6.582   0.149
 7553TIP3   OH222622   6.584   4.727   4.260
 7553TIP3    H122623   6.604   4.696   4.172
 7553TIP3    H222624   6.662   4.705   4.312
 7554TIP3   OH222625   1.645   6.754   3.823
 7554TIP3    H122626   1.613   6.678   3.775
 7554TIP3    H222627   1.735   6.765   3.794
 7555TIP3   OH222628   5.571   6.535   3.394
 7555TIP3    H122629   5.610   6.475   3.457
 7555TIP3    H222630   5.484   6.500   3.376
 7556TIP3   OH222631   1.278   3.158   4.725
 7556TIP3    H122632   1.261   3.110   4.644
 7556TIP3    H222633   1.349   3.110   4.767
 7557TIP3   OH222634   6.065   1.857   1.305
 7557TIP3    H122635   6.126   1.812   1.247
 7557TIP3    H222636   6.118   1.922   1.351
 7558TIP3   OH222637   6.302   3.266   5.658
 7558TIP3    H122638   6.372   3.255   5.722
 7558TIP3    H222639   6.348   3.285   5.576
 7559TIP3   OH222640   3.296   5.076   5.162
 7559TIP3    H122641   3.389   5.062   5.143
 7559TIP3    H222642   3.250   5.034   5.089
 7560TIP3   OH222643   6.752   3.244   1.776
 7560TIP3    H122644   6.770   3.245   1.682
 7560TIP3    H222645   6.722   3.155   1.794
 7561TIP3   OH222646   4.917   0.855   4.886
 7561TIP3    H122647   4.910   0.764   4.914
 7561TIP3    H222648   4.965   0.851   4.803
 7562TIP3   OH222649   5.875   1.380   2.770
 7562TIP3    H122650   5.936   1.321   2.725
 7562TIP3    H222651   5.857   1.336   2.853
 7563TIP3   OH222652   4.980   1.727   0.601
 7563TIP3    H122653   4.919   1.699   0.532
 7563TIP3    H222654   5.052   1.768   0.553
 7564TIP3   OH222655   3.118   1.240   1.613
 7564TIP3    H122656   3.098   1.186   1.690
 7564TIP3    H222657   3.091   1.329   1.639
 7565TIP3   OH222658   4.968   1.857   0.201
 7565TIP3    H122659   5.063   1.870   0.192
 7565TIP3    H222660   4.943   1.807   0.123
 7566TIP3   OH222661   5.112   6.439   4.573
 7566TIP3    H122662   5.128   6.532   4.592
 7566TIP3    H222663   5.059   6.408   4.647
 7567TIP3   OH222664   5.569   5.822   1.577
 7567TIP3    H122665   5.493   5.877   1.559
 7567TIP3    H222666   5.640   5.863   1.529
 7568TIP3   OH222667   2.959   6.702   4.385
 7568TIP3    H122668   2.923   6.613   4.386
 7568TIP3    H222669   3.038   6.696   4.331
 7569TIP3   OH222670   2.576   2.755   5.235
 7569TIP3    H122671   2.509   2.821   5.217
 7569TIP3    H222672   2.545   2.711   5.315
 7570TIP3   OH222673   1.857   2.780   2.582
 7570TIP3    H122674   1.898   2.854   2.539
 7570TIP3    H222675   1.901   2.774   2.667
 7571TIP3   OH222676   5.458   5.715   3.375
 7571TIP3    H122677   5.460   5.620   3.381
 7571TIP3    H222678   5.370   5.739   3.403
 7572TIP3   OH222679   4.889   6.297   0.414
 7572TIP3    H122680   4.847   6.339   0.489
 7572TIP3    H222681   4.983   6.304   0.431
 7573TIP3   OH222682   5.748   4.710   0.251
 7573TIP3    H122683   5.656   4.729   0.271
 7573TIP3    H222684   5.757   4.617   0.271
 7574TIP3   OH222685   4.071   2.531   5.211
 7574TIP3    H122686   3.987   2.576   5.205
 7574TIP3    H222687   4.136   2.597   5.190
 7575TIP3   OH222688   3.235   1.524   2.489
 7575TIP3    H122689   3.308   1.525   2.551
 7575TIP3    H222690   3.260   1.458   2.424
 7576TIP3   OH222691   5.298   4.088   4.182
 7576TIP3    H122692   5.376   4.085   4.126
 7576TIP3    H222693   5.254   4.005   4.166
 7577TIP3   OH222694   6.808   1.334   0.665
 7577TIP3    H122695   6.814   1.304   0.756
 7577TIP3    H222696   6.741   1.402   0.666
 7578TIP3   OH222697   1.038   6.820   1.609
 7578TIP3    H122698   1.034   6.824   1.704
 7578TIP3    H222699   0.992   6.739   1.586
 7579TIP3   OH222700   2.602   2.364   0.282
 7579TIP3    H122701   2.675   2.364   0.344
 7579TIP3    H222702   2.644   2.350   0.197
 7580TIP3   OH222703   0.675   3.281   0.996
 7580TIP3    H122704   0.601   3.336   1.021
 7580TIP3    H222705   0.677   3.285   0.900
 7581TIP3   OH222706   4.400   1.558   1.299
 7581TIP3    H122707   4.332   1.532   1.362
 7581TIP3    H222708   4.354   1.563   1.215
 7582TIP3   OH222709   5.087   4.417   2.353
 7582TIP3    H122710   5.015   4.366   2.317
 7582TIP3    H222711   5.111   4.478   2.284
 7583TIP3   OH222712   5.447   4.792   4.247
 7583TIP3    H122713   5.415   4.811   4.159
 7583TIP3    H222714   5.381   4.830   4.305
 7584TIP3   OH222715   3.468   5.946   2.917
 7584TIP3    H122716   3.488   6.009   2.986
 7584TIP3    H222717   3.378   5.918   2.934
 7585TIP3   OH222718   3.733   3.218   2.613
 7585TIP3    H122719   3.801   3.258   2.666
 7585TIP3    H222720   3.651   3.235   2.660
 7586TIP3   OH222721   4.351   2.719   1.019
 7586TIP3    H122722   4.270   2.671   1.038
 7586TIP3    H222723   4.419   2.652   1.022
 7587TIP3   OH222724   4.135   4.770   0.513
 7587TIP3    H122725   4.194   4.777   0.437
 7587TIP3    H222726   4.047   4.770   0.475
 7588TIP3   OH222727   3.552   3.122   4.265
 7588TIP3    H122728   3.601   3.044   4.290
 7588TIP3    H222729   3.564   3.183   4.338
 7589TIP3   OH222730   5.426   1.901   0.528
 7589TIP3    H122731   5.508   1.894   0.480
 7589TIP3    H222732   5.435   1.981   0.579
 7590TIP3   OH222733   4.115   4.033   0.192
 7590TIP3    H122734   4.155   4.045   0.278
 7590TIP3    H222735   4.089   4.122   0.165
 7591TIP3   OH222736   4.771   4.477   2.438
 7591TIP3    H122737   4.777   4.392   2.395
 7591TIP3    H222738   4.831   4.471   2.512
 7592TIP3   OH222739   2.528   4.404   4.539
 7592TIP3    H122740   2.500   4.409   4.630
 7592TIP3    H222741   2.523   4.494   4.507
 7593TIP3   OH222742   5.598   6.550   1.053
 7593TIP3    H122743   5.618   6.599   0.974
 7593TIP3    H222744   5.680   6.550   1.103
 7594TIP3   OH222745   6.264   6.278   0.231
 7594TIP3    H122746   6.204   6.219   0.276
 7594TIP3    H222747   6.248   6.363   0.272
 7595TIP3   OH222748   5.310   4.291   3.644
 7595TIP3    H122749   5.366   4.277   3.568
 7595TIP3    H222750   5.370   4.311   3.716
 7596TIP3   OH222751   2.788   1.672   0.454
 7596TIP3    H122752   2.801   1.762   0.484
 7596TIP3    H222753   2.736   1.681   0.375
 7597TIP3   OH222754   5.902   4.579   3.806
 7597TIP3    H122755   5.922   4.672   3.796
 7597TIP3    H222756   5.927   4.559   3.896
 7598TIP3   OH222757   2.550   6.629   0.905
 7598TIP3    H122758   2.533   6.660   0.816
 7598TIP3    H222759   2.466   6.638   0.950
 7599TIP3   OH222760   6.528   4.506   2.899
 7599TIP3    H122761   6.438   4.524   2.927
 7599TIP3    H222762   6.575   4.587   2.916
 7600TIP3   OH222763   0.621   3.293   0.715
 7600TIP3    H122764   0.533   3.258   0.698
 7600TIP3    H222765   0.679   3.236   0.664
 7601TIP3   OH222766   0.650   0.544   4.518
 7601TIP3    H122767   0.738   0.580   4.532
 7601TIP3    H222768   0.634   0.554   4.425
 7602TIP3   OH222769   6.713   1.337   2.146
 7602TIP3    H122770   6.698   1.323   2.053
 7602TIP3    H222771   6.687   1.428   2.161
 7603TIP3   OH222772   1.088   2.128   1.506
 7603TIP3    H122773   1.139   2.054   1.540
 7603TIP3    H222774   1.139   2.161   1.432
 7604TIP3   OH222775   3.821   1.938   1.975
 7604TIP3    H122776   3.815   1.846   1.949
 7604TIP3    H222777   3.878   1.978   1.909
 7605TIP3   OH222778   6.641   2.424   4.437
 7605TIP3    H122779   6.556   2.449   4.399
 7605TIP3    H222780   6.705   2.473   4.387
 7606TIP3   OH222781   6.303   5.237   2.759
 7606TIP3    H122782   6.378   5.222   2.702
 7606TIP3    H222783   6.319   5.181   2.836
 7607TIP3   OH222784   4.645   5.071   2.240
 7607TIP3    H122785   4.693   5.111   2.312
 7607TIP3    H222786   4.709   5.014   2.197
 7608TIP3   OH222787   0.064   1.909   2.707
 7608TIP3    H122788   0.116   1.866   2.774
 7608TIP3    H222789  -0.019   1.931   2.751
 7609TIP3   OH222790   6.877   1.103   5.495
 7609TIP3    H122791   6.856   1.031   5.435
 7609TIP3    H222792   6.886   1.179   5.439
 7610TIP3   OH222793   6.341   1.412   4.712
 7610TIP3    H122794   6.355   1.317   4.707
 7610TIP3    H222795   6.314   1.427   4.803
 7611TIP3   OH222796   3.406   6.341   2.429
 7611TIP3    H122797   3.373   6.365   2.516
 7611TIP3    H222798   3.329   6.350   2.372
 7612TIP3   OH222799   2.541   2.095   0.781
 7612TIP3    H122800   2.556   2.118   0.690
 7612TIP3    H222801   2.618   2.042   0.805
 7613TIP3   OH222802   2.196   4.612   5.865
 7613TIP3    H122803   2.256   4.585   5.935
 7613TIP3    H222804   2.186   4.535   5.810
 7614TIP3   OH222805   0.759   6.086   2.814
 7614TIP3    H122806   0.693   6.018   2.823
 7614TIP3    H222807   0.824   6.050   2.753
 7615TIP3   OH222808   5.076   0.291   2.526
 7615TIP3    H122809   5.101   0.272   2.435
 7615TIP3    H222810   5.158   0.293   2.574
 7616TIP3   OH222811   3.156   6.199   3.029
 7616TIP3    H122812   3.092   6.236   3.089
 7616TIP3    H222813   3.229   6.261   3.032
 7617TIP3   OH222814   1.095   5.868   4.512
 7617TIP3    H122815   1.045   5.908   4.441
 7617TIP3    H222816   1.181   5.911   4.507
 7618TIP3   OH222817   1.301   6.663   3.947
 7618TIP3    H122818   1.327   6.754   3.936
 7618TIP3    H222819   1.375   6.621   3.991
 7619TIP3   OH222820   6.932   2.790   4.269
 7619TIP3    H122821   6.965   2.738   4.343
 7619TIP3    H222822   6.954   2.737   4.192
 7620TIP3   OH222823   6.733   0.103   0.205
 7620TIP3    H122824   6.766   0.101   0.295
 7620TIP3    H222825   6.688   0.188   0.198
 7621TIP3   OH222826   3.836   5.765   2.815
 7621TIP3    H122827   3.802   5.800   2.732
 7621TIP3    H222828   3.919   5.811   2.828
 7622TIP3   OH222829   0.657   0.239   5.593
 7622TIP3    H122830   0.661   0.210   5.501
 7622TIP3    H222831   0.579   0.198   5.628
 7623TIP3   OH222832   1.011   1.497   0.218
 7623TIP3    H122833   0.973   1.412   0.239
 7623TIP3    H222834   1.100   1.477   0.190
 7624TIP3   OH222835   0.433   3.337   5.102
 7624TIP3    H122836   0.473   3.334   5.188
 7624TIP3    H222837   0.470   3.415   5.061
 7625TIP3   OH222838   5.315   5.025   5.148
 7625TIP3    H122839   5.263   5.060   5.220
 7625TIP3    H222840   5.306   5.091   5.079
 7626TIP3   OH222841   0.093   1.142   2.907
 7626TIP3    H122842   0.088   1.196   2.828
 7626TIP3    H222843   0.181   1.156   2.940
 7627TIP3   OH222844   4.257   3.518   2.311
 7627TIP3    H122845   4.267   3.594   2.254
 7627TIP3    H222846   4.266   3.442   2.253
 7628TIP3   OH222847   3.598   4.238   0.532
 7628TIP3    H122848   3.537   4.175   0.569
 7628TIP3    H222849   3.565   4.324   0.560
 7629TIP3   OH222850   0.150   4.945   2.123
 7629TIP3    H122851   0.231   4.971   2.078
 7629TIP3    H222852   0.084   4.945   2.054
 7630TIP3   OH222853   3.930   5.671   0.052
 7630TIP3    H122854   3.985   5.696   0.126
 7630TIP3    H222855   3.977   5.705  -0.025
 7631TIP3   OH222856   4.365   6.227   1.696
 7631TIP3    H122857   4.305   6.188   1.633
 7631TIP3    H222858   4.345   6.321   1.693
 7632TIP3   OH222859   2.043   1.691   0.588
 7632TIP3    H122860   2.003   1.654   0.666
 7632TIP3    H222861   2.015   1.783   0.587
 7633TIP3   OH222862   2.712   1.890   4.625
 7633TIP3    H122863   2.789   1.842   4.594
 7633TIP3    H222864   2.748   1.963   4.676
 7634TIP3   OH222865   6.334   0.998   5.667
 7634TIP3    H122866   6.329   0.977   5.760
 7634TIP3    H222867   6.296   1.085   5.660
 7635TIP3   OH222868   7.105   6.010   4.375
 7635TIP3    H122869   7.049   5.978   4.304
 7635TIP3    H222870   7.190   6.023   4.335
 7636TIP3   OH222871   1.262   1.087   3.218
 7636TIP3    H122872   1.236   1.179   3.229
 7636TIP3    H222873   1.223   1.061   3.135
 7637TIP3   OH222874   3.424   5.338   3.461
 7637TIP3    H122875   3.355   5.403   3.478
 7637TIP3    H222876   3.428   5.332   3.366
 7638TIP3   OH222877   1.278   0.072   1.686
 7638TIP3    H122878   1.241   0.135   1.624
 7638TIP3    H222879   1.297  -0.006   1.635
 7639TIP3   OH222880   0.736   2.751   4.745
 7639TIP3    H122881   0.647   2.776   4.719
 7639TIP3    H222882   0.725   2.667   4.789
 7640TIP3   OH222883   5.077   0.960   3.525
 7640TIP3    H122884   5.009   1.020   3.494
 7640TIP3    H222885   5.134   0.947   3.449
 7641TIP3   OH222886   4.225   4.860   1.536
 7641TIP3    H122887   4.253   4.894   1.621
 7641TIP3    H222888   4.215   4.937   1.481
 7642TIP3   OH222889   6.435   3.755   1.009
 7642TIP3    H122890   6.397   3.760   1.097
 7642TIP3    H222891   6.392   3.679   0.969
 7643TIP3   OH222892   5.119   4.171   5.800
 7643TIP3    H122893   5.204   4.190   5.759
 7643TIP3    H222894   5.064   4.142   5.728
 7644TIP3   OH222895   0.313   1.427   5.012
 7644TIP3    H122896   0.264   1.481   4.950
 7644TIP3    H222897   0.256   1.352   5.029
 7645TIP3   OH222898   1.534   4.665   1.221
 7645TIP3    H122899   1.458   4.652   1.164
 7645TIP3    H222900   1.543   4.582   1.268
 7646TIP3   OH222901   7.095   4.273   4.658
 7646TIP3    H122902   7.103   4.314   4.572
 7646TIP3    H222903   7.024   4.320   4.701
 7647TIP3   OH222904   3.010   4.933   1.839
 7647TIP3    H122905   3.043   4.909   1.752
 7647TIP3    H222906   2.926   4.888   1.845
 7648TIP3   OH222907   6.572   4.376   0.988
 7648TIP3    H122908   6.615   4.329   1.059
 7648TIP3    H222909   6.611   4.464   0.990
 7649TIP3   OH222910   1.649   1.631   5.801
 7649TIP3    H122911   1.595   1.554   5.785
 7649TIP3    H222912   1.631   1.689   5.727
 7650TIP3   OH222913   3.012   3.940   5.181
 7650TIP3    H122914   3.001   3.998   5.256
 7650TIP3    H222915   2.924   3.928   5.147
 7651TIP3   OH222916   4.809   6.612   5.271
 7651TIP3    H122917   4.751   6.559   5.216
 7651TIP3    H222918   4.790   6.585   5.360
 7652TIP3   OH222919   0.638   2.079   5.453
 7652TIP3    H122920   0.646   2.082   5.548
 7652TIP3    H222921   0.682   1.998   5.428
 7653TIP3   OH222922   3.232   4.839   4.691
 7653TIP3    H122923   3.289   4.907   4.727
 7653TIP3    H222924   3.273   4.816   4.608
 7654TIP3   OH222925   3.024   2.203   0.837
 7654TIP3    H122926   3.049   2.120   0.797
 7654TIP3    H222927   3.022   2.185   0.931
 7655TIP3   OH222928   5.505   2.214   0.330
 7655TIP3    H122929   5.594   2.227   0.297
 7655TIP3    H222930   5.461   2.164   0.261
 7656TIP3   OH222931   1.635   5.710   4.320
 7656TIP3    H122932   1.665   5.676   4.236
 7656TIP3    H222933   1.714   5.709   4.375
 7657TIP3   OH222934   5.594   6.221   3.244
 7657TIP3    H122935   5.608   6.306   3.202
 7657TIP3    H222936   5.677   6.203   3.289
 7658TIP3   OH222937   3.389   5.097   2.798
 7658TIP3    H122938   3.332   5.135   2.731
 7658TIP3    H222939   3.401   5.006   2.771
 7659TIP3   OH222940   0.201   1.325   5.755
 7659TIP3    H122941   0.239   1.379   5.686
 7659TIP3    H222942   0.106   1.335   5.744
 7660TIP3   OH222943   2.700   5.212   5.815
 7660TIP3    H122944   2.770   5.259   5.770
 7660TIP3    H222945   2.677   5.140   5.757
 7661TIP3   OH222946   5.963   5.233   3.335
 7661TIP3    H122947   5.955   5.258   3.427
 7661TIP3    H222948   5.979   5.138   3.337
 7662TIP3   OH222949   5.889   4.802   5.781
 7662TIP3    H122950   5.801   4.802   5.742
 7662TIP3    H222951   5.898   4.890   5.818
 7663TIP3   OH222952   4.992   6.392   0.827
 7663TIP3    H122953   5.031   6.338   0.896
 7663TIP3    H222954   4.998   6.481   0.860
 7664TIP3   OH222955   0.428   3.732   1.260
 7664TIP3    H122956   0.457   3.654   1.212
 7664TIP3    H222957   0.466   3.722   1.347
 7665TIP3   OH222958   2.015   2.395   3.767
 7665TIP3    H122959   2.020   2.331   3.838
 7665TIP3    H222960   2.047   2.476   3.806
 7666TIP3   OH222961   6.000   1.084   2.782
 7666TIP3    H122962   6.087   1.051   2.757
 7666TIP3    H222963   5.954   1.095   2.700
 7667TIP3   OH222964   5.930   2.779   5.004
 7667TIP3    H122965   5.993   2.709   4.988
 7667TIP3    H222966   5.849   2.748   4.962
 7668TIP3   OH222967   3.853   2.608   0.787
 7668TIP3    H122968   3.867   2.549   0.712
 7668TIP3    H222969   3.926   2.669   0.784
 7669TIP3   OH222970   0.973   4.240   1.854
 7669TIP3    H122971   0.913   4.177   1.892
 7669TIP3    H222972   1.020   4.277   1.929
 7670TIP3   OH222973   0.600   0.069   2.609
 7670TIP3    H122974   0.677   0.126   2.617
 7670TIP3    H222975   0.592   0.053   2.515
 7671TIP3   OH222976   4.240   5.011   1.279
 7671TIP3    H122977   4.290   5.082   1.240
 7671TIP3    H222978   4.240   4.942   1.213
 7672TIP3   OH222979   6.450   4.660   3.423
 7672TIP3    H122980   6.388   4.627   3.488
 7672TIP3    H222981   6.448   4.755   3.434
 7673TIP3   OH222982   0.110   2.683   4.525
 7673TIP3    H122983   0.149   2.618   4.584
 7673TIP3    H222984   0.133   2.767   4.564
 7674TIP3   OH222985   4.747   2.087   2.509
 7674TIP3    H122986   4.706   2.002   2.492
 7674TIP3    H222987   4.731   2.137   2.429
 7675TIP3   OH222988   5.134   5.695   5.407
 7675TIP3    H122989   5.218   5.738   5.393
 7675TIP3    H222990   5.127   5.632   5.335
 7676TIP3   OH222991   0.339   2.414   1.212
 7676TIP3    H122992   0.431   2.417   1.186
 7676TIP3    H222993   0.299   2.352   1.152
 7677TIP3   OH222994   1.261   1.595   3.564
 7677TIP3    H122995   1.210   1.561   3.638
 7677TIP3    H222996   1.319   1.523   3.540
 7678TIP3   OH222997   2.720   0.420   0.724
 7678TIP3    H122998   2.686   0.468   0.649
 7678TIP3    H222999   2.813   0.406   0.703
 7679TIP3   OH223000   3.161   5.948   2.974
 7679TIP3    H123001   3.144   6.035   3.010
 7679TIP3    H223002   3.075   5.911   2.958
 7680TIP3   OH223003   4.221   1.250   0.383
 7680TIP3    H123004   4.216   1.156   0.401
 7680TIP3    H223005   4.284   1.283   0.447
 7681TIP3   OH223006   0.833   6.516   1.812
 7681TIP3    H123007   0.774   6.443   1.790
 7681TIP3    H223008   0.894   6.479   1.876
 7682TIP3   OH223009   0.373   3.325   3.864
 7682TIP3    H123010   0.285   3.361   3.879
 7682TIP3    H223011   0.358   3.231   3.855
 7683TIP3   OH223012   2.013   6.433   1.366
 7683TIP3    H123013   1.940   6.493   1.382
 7683TIP3    H223014   1.973   6.357   1.325
 7684TIP3   OH223015   4.182   3.748   2.604
 7684TIP3    H123016   4.246   3.799   2.653
 7684TIP3    H223017   4.163   3.673   2.660
 7685TIP3   OH223018   3.449   3.666   4.265
 7685TIP3    H123019   3.486   3.587   4.227
 7685TIP3    H223020   3.489   3.737   4.216
 7686TIP3   OH223021   2.238   3.467   2.989
 7686TIP3    H123022   2.257   3.554   3.024
 7686TIP3    H223023   2.323   3.431   2.964
 7687TIP3   OH223024   2.681   4.563   3.663
 7687TIP3    H123025   2.753   4.545   3.723
 7687TIP3    H223026   2.664   4.656   3.673
 7688TIP3   OH223027   2.233   1.606   1.314
 7688TIP3    H123028   2.151   1.578   1.356
 7688TIP3    H223029   2.274   1.664   1.378
 7689TIP3   OH223030   0.115   4.300   3.675
 7689TIP3    H123031   0.092   4.237   3.744
 7689TIP3    H223032   0.129   4.382   3.722
 7690TIP3   OH223033   6.263   2.972   5.869
 7690TIP3    H123034   6.204   3.032   5.916
 7690TIP3    H223035   6.204   2.920   5.814
 7691TIP3   OH223036   4.621   1.559   5.044
 7691TIP3    H123037   4.643   1.481   4.993
 7691TIP3    H223038   4.561   1.609   4.988
 7692TIP3   OH223039   4.374   3.443   5.785
 7692TIP3    H123040   4.289   3.407   5.758
 7692TIP3    H223041   4.373   3.533   5.752
 7693TIP3   OH223042   4.853   4.051   2.755
 7693TIP3    H123043   4.799   3.976   2.729
 7693TIP3    H223044   4.858   4.046   2.851
 7694TIP3   OH223045   3.816   6.589   0.517
 7694TIP3    H123046   3.754   6.628   0.581
 7694TIP3    H223047   3.891   6.648   0.519
 7695TIP3   OH223048   2.365   4.660   3.267
 7695TIP3    H123049   2.414   4.682   3.188
 7695TIP3    H223050   2.411   4.585   3.304
 7696TIP3   OH223051   5.755   0.281   2.508
 7696TIP3    H123052   5.788   0.328   2.431
 7696TIP3    H223053   5.668   0.252   2.482
 7697TIP3   OH223054   5.102   0.076   0.399
 7697TIP3    H123055   5.180   0.038   0.441
 7697TIP3    H223056   5.085   0.156   0.448
 7698TIP3   OH223057   2.410   1.647   5.074
 7698TIP3    H123058   2.388   1.690   5.157
 7698TIP3    H223059   2.367   1.700   5.007
 7699TIP3   OH223060   1.418   1.360   3.578
 7699TIP3    H123061   1.368   1.287   3.616
 7699TIP3    H223062   1.437   1.333   3.489
 7700TIP3   OH223063   3.315   0.489   1.140
 7700TIP3    H123064   3.392   0.546   1.141
 7700TIP3    H223065   3.334   0.422   1.206
 7701TIP3   OH223066   6.212   4.391   0.750
 7701TIP3    H123067   6.296   4.347   0.740
 7701TIP3    H223068   6.212   4.421   0.841
 7702TIP3   OH223069   6.385   1.630   1.204
 7702TIP3    H123070   6.446   1.669   1.141
 7702TIP3    H223071   6.298   1.660   1.175
 7703TIP3   OH223072   4.971   3.648   1.773
 7703TIP3    H123073   4.888   3.632   1.728
 7703TIP3    H223074   4.992   3.740   1.754
 7704TIP3   OH223075   2.976   5.814   0.914
 7704TIP3    H123076   3.030   5.766   0.851
 7704TIP3    H223077   3.028   5.813   0.995
 7705TIP3   OH223078   3.712   4.571   3.368
 7705TIP3    H123079   3.785   4.633   3.364
 7705TIP3    H223080   3.711   4.541   3.459
 7706TIP3   OH223081   5.176   6.560   5.440
 7706TIP3    H123082   5.111   6.615   5.483
 7706TIP3    H223083   5.178   6.480   5.491
 7707TIP3   OH223084   0.218   3.691   3.504
 7707TIP3    H123085   0.126   3.671   3.521
 7707TIP3    H223086   0.239   3.759   3.568
 7708TIP3   OH223087   6.711   3.439   5.698
 7708TIP3    H123088   6.750   3.467   5.615
 7708TIP3    H223089   6.683   3.349   5.681
 7709TIP3   OH223090   4.426   5.049   5.578
 7709TIP3    H123091   4.485   5.032   5.651
 7709TIP3    H223092   4.461   5.127   5.536
 7710TIP3   OH223093   0.812   4.975   5.776
 7710TIP3    H123094   0.902   4.943   5.787
 7710TIP3    H223095   0.822   5.055   5.725
 7711TIP3   OH223096   0.228   1.423   0.959
 7711TIP3    H123097   0.229   1.328   0.962
 7711TIP3    H223098   0.208   1.443   0.867
 7712TIP3   OH223099   2.887   2.241   0.401
 7712TIP3    H123100   2.967   2.292   0.386
 7712TIP3    H223101   2.910   2.153   0.372
 7713TIP3   OH223102   4.913   6.233   4.175
 7713TIP3    H123103   4.949   6.145   4.171
 7713TIP3    H223104   4.823   6.225   4.144
 7714TIP3   OH223105   7.145   4.496   2.133
 7714TIP3    H123106   7.050   4.505   2.122
 7714TIP3    H223107   7.155   4.450   2.216
 7715TIP3   OH223108   0.798   5.427   3.134
 7715TIP3    H123109   0.797   5.497   3.068
 7715TIP3    H223110   0.890   5.423   3.162
 7716TIP3   OH223111   0.771   4.131   5.520
 7716TIP3    H123112   0.817   4.050   5.498
 7716TIP3    H223113   0.810   4.159   5.603
 7717TIP3   OH223114   5.000   5.147   2.090
 7717TIP3    H123115   5.015   5.165   2.182
 7717TIP3    H223116   4.934   5.211   2.063
 7718TIP3   OH223117   1.146   2.264   4.642
 7718TIP3    H123118   1.070   2.215   4.674
 7718TIP3    H223119   1.111   2.317   4.571
 7719TIP3   OH223120   0.486   5.485   4.822
 7719TIP3    H123121   0.581   5.474   4.830
 7719TIP3    H223122   0.467   5.566   4.870
 7720TIP3   OH223123   4.193   5.269   3.852
 7720TIP3    H123124   4.162   5.302   3.936
 7720TIP3    H223125   4.288   5.279   3.856
 7721TIP3   OH223126   6.676   0.369   0.109
 7721TIP3    H123127   6.761   0.361   0.066
 7721TIP3    H223128   6.692   0.421   0.187
 7722TIP3   OH223129   3.049   2.534   5.355
 7722TIP3    H123130   2.976   2.503   5.302
 7722TIP3    H223131   3.030   2.627   5.369
 7723TIP3   OH223132   3.899   0.030   4.370
 7723TIP3    H123133   3.979   0.001   4.327
 7723TIP3    H223134   3.838   0.048   4.298
 7724TIP3   OH223135   7.016   4.622   1.747
 7724TIP3    H123136   7.025   4.636   1.841
 7724TIP3    H223137   7.101   4.587   1.719
 7725TIP3   OH223138   2.570   3.202   2.900
 7725TIP3    H123139   2.665   3.208   2.908
 7725TIP3    H223140   2.556   3.157   2.816
 7726TIP3   OH223141   2.371   3.805   3.743
 7726TIP3    H123142   2.417   3.761   3.814
 7726TIP3    H223143   2.324   3.735   3.697
 7727TIP3   OH223144   2.468   4.258   5.241
 7727TIP3    H123145   2.423   4.297   5.316
 7727TIP3    H223146   2.545   4.215   5.278
 7728TIP3   OH223147   0.257   4.598   3.612
 7728TIP3    H123148   0.260   4.658   3.538
 7728TIP3    H223149   0.257   4.511   3.573
 7729TIP3   OH223150   3.678   6.691   3.981
 7729TIP3    H123151   3.655   6.724   4.068
 7729TIP3    H223152   3.690   6.597   3.992
 7730TIP3   OH223153   5.337   0.093   0.177
 7730TIP3    H123154   5.336   0.104   0.082
 7730TIP3    H223155   5.292   0.010   0.192
 7731TIP3   OH223156   6.189   2.879   1.372
 7731TIP3    H123157   6.244   2.802   1.364
 7731TIP3    H223158   6.216   2.935   1.300
 7732TIP3   OH223159   1.039   1.563   3.229
 7732TIP3    H123160   1.016   1.640   3.177
 7732TIP3    H223161   1.134   1.565   3.233
 7733TIP3   OH223162   2.373   1.164   4.161
 7733TIP3    H123163   2.449   1.206   4.120
 7733TIP3    H223164   2.409   1.085   4.202
 7734TIP3   OH223165   3.271   0.483   0.854
 7734TIP3    H123166   3.331   0.556   0.838
 7734TIP3    H223167   3.266   0.478   0.950
 7735TIP3   OH223168   3.761   0.263   0.467
 7735TIP3    H123169   3.674   0.224   0.472
 7735TIP3    H223170   3.782   0.288   0.557
 7736TIP3   OH223171   6.427   5.016   4.505
 7736TIP3    H123172   6.374   4.941   4.530
 7736TIP3    H223173   6.516   4.992   4.530
 7737TIP3   OH223174   2.662   5.885   4.261
 7737TIP3    H123175   2.688   5.887   4.353
 7737TIP3    H223176   2.736   5.926   4.215
 7738TIP3   OH223177   2.625   4.731   0.181
 7738TIP3    H123178   2.699   4.751   0.125
 7738TIP3    H223179   2.552   4.716   0.121
 7739TIP3   OH223180   6.871   6.116   0.483
 7739TIP3    H123181   6.879   6.204   0.519
 7739TIP3    H223182   6.812   6.071   0.544
 7740TIP3   OH223183   2.177   4.247   1.843
 7740TIP3    H123184   2.086   4.263   1.818
 7740TIP3    H223185   2.178   4.155   1.871
 7741TIP3   OH223186   7.016   0.794   3.849
 7741TIP3    H123187   7.043   0.822   3.936
 7741TIP3    H223188   7.084   0.827   3.790
 7742TIP3   OH223189   7.137   5.269   1.824
 7742TIP3    H123190   7.205   5.202   1.825
 7742TIP3    H223191   7.096   5.262   1.911
 7743TIP3   OH223192   0.348   5.229   4.507
 7743TIP3    H123193   0.342   5.306   4.563
 7743TIP3    H223194   0.402   5.258   4.433
 7744TIP3   OH223195   2.320   6.173   2.392
 7744TIP3    H123196   2.405   6.192   2.352
 7744TIP3    H223197   2.263   6.150   2.318
 7745TIP3   OH223198   0.705   1.448   0.624
 7745TIP3    H123199   0.653   1.516   0.667
 7745TIP3    H223200   0.692   1.463   0.530
 7746TIP3   OH223201   3.703   4.639   2.108
 7746TIP3    H123202   3.738   4.660   2.021
 7746TIP3    H223203   3.635   4.574   2.092
 7747TIP3   OH223204   1.811   2.478   4.057
 7747TIP3    H123205   1.721   2.457   4.080
 7747TIP3    H223206   1.849   2.395   4.028
 7748TIP3   OH223207   6.545   4.661   3.854
 7748TIP3    H123208   6.556   4.719   3.779
 7748TIP3    H223209   6.469   4.608   3.832
 7749TIP3   OH223210   3.925   4.489   0.308
 7749TIP3    H123211   3.937   4.402   0.270
 7749TIP3    H223212   3.835   4.489   0.340
 7750TIP3   OH223213   7.125   1.385   2.648
 7750TIP3    H123214   7.220   1.387   2.639
 7750TIP3    H223215   7.092   1.388   2.558
 7751TIP3   OH223216   3.300   3.156   3.066
 7751TIP3    H123217   3.357   3.229   3.090
 7751TIP3    H223218   3.327   3.084   3.123
 7752TIP3   OH223219   1.894   0.554   0.331
 7752TIP3    H123220   1.933   0.488   0.274
 7752TIP3    H223221   1.947   0.632   0.317
 7753TIP3   OH223222   6.519   5.374   3.635
 7753TIP3    H123223   6.432   5.381   3.597
 7753TIP3    H223224   6.551   5.288   3.607
 7754TIP3   OH223225   5.322   4.678   3.692
 7754TIP3    H123226   5.339   4.589   3.722
 7754TIP3    H223227   5.345   4.734   3.766
 7755TIP3   OH223228   3.694   6.352   1.063
 7755TIP3    H123229   3.721   6.306   1.142
 7755TIP3    H223230   3.744   6.310   0.993
 7756TIP3   OH223231   2.107   3.654   5.686
 7756TIP3    H123232   2.055   3.589   5.734
 7756TIP3    H223233   2.053   3.675   5.609
 7757TIP3   OH223234   3.930   0.229   0.259
 7757TIP3    H123235   3.884   0.234   0.343
 7757TIP3    H223236   3.889   0.296   0.204
 7758TIP3   OH223237   1.917   4.986   4.541
 7758TIP3    H123238   1.944   4.962   4.452
 7758TIP3    H223239   1.823   4.966   4.543
 7759TIP3   OH223240   4.143   1.391   2.269
 7759TIP3    H123241   4.172   1.473   2.228
 7759TIP3    H223242   4.056   1.411   2.303
 7760TIP3   OH223243   5.423   3.423   0.963
 7760TIP3    H123244   5.373   3.378   0.895
 7760TIP3    H223245   5.371   3.412   1.043
 7761TIP3   OH223246   4.228   2.111   3.647
 7761TIP3    H123247   4.289   2.114   3.721
 7761TIP3    H223248   4.232   2.199   3.609
 7762TIP3   OH223249   0.800   0.319   3.014
 7762TIP3    H123250   0.762   0.324   3.101
 7762TIP3    H223251   0.726   0.329   2.955
 7763TIP3   OH223252   4.172   4.580   0.887
 7763TIP3    H123253   4.222   4.546   0.961
 7763TIP3    H223254   4.122   4.506   0.855
 7764TIP3   OH223255   4.843   2.941   3.817
 7764TIP3    H123256   4.770   2.991   3.779
 7764TIP3    H223257   4.804   2.893   3.890
 7765TIP3   OH223258   0.568   1.554   2.203
 7765TIP3    H123259   0.585   1.602   2.285
 7765TIP3    H223260   0.551   1.623   2.139
 7766TIP3   OH223261   5.839   5.976   5.298
 7766TIP3    H123262   5.923   6.013   5.272
 7766TIP3    H223263   5.824   6.010   5.386
 7767TIP3   OH223264   4.352   1.118   2.279
 7767TIP3    H123265   4.324   1.092   2.191
 7767TIP3    H223266   4.271   1.139   2.325
 7768TIP3   OH223267   7.134   2.764   3.447
 7768TIP3    H123268   7.138   2.859   3.440
 7768TIP3    H223269   7.159   2.732   3.361
 7769TIP3   OH223270   1.292   1.892   1.201
 7769TIP3    H123271   1.360   1.824   1.199
 7769TIP3    H223272   1.313   1.948   1.126
 7770TIP3   OH223273   0.463   2.438   2.143
 7770TIP3    H123274   0.476   2.529   2.118
 7770TIP3    H223275   0.519   2.425   2.219
 7771TIP3   OH223276   1.553   4.484   2.910
 7771TIP3    H123277   1.523   4.571   2.885
 7771TIP3    H223278   1.638   4.475   2.868
 7772TIP3   OH223279   0.418   3.766   0.469
 7772TIP3    H123280   0.486   3.784   0.534
 7772TIP3    H223281   0.462   3.713   0.402
 7773TIP3   OH223282   1.410   6.779   4.637
 7773TIP3    H123283   1.461   6.821   4.707
 7773TIP3    H223284   1.467   6.784   4.560
 7774TIP3   OH223285   6.543   5.809   3.142
 7774TIP3    H123286   6.629   5.830   3.178
 7774TIP3    H223287   6.481   5.842   3.207
 7775TIP3   OH223288   5.655   1.472   4.717
 7775TIP3    H123289   5.590   1.502   4.781
 7775TIP3    H223290   5.610   1.404   4.667
 7776TIP3   OH223291   1.186   3.139   0.490
 7776TIP3    H123292   1.178   3.152   0.395
 7776TIP3    H223293   1.250   3.206   0.517
 7777TIP3   OH223294   0.871   0.749   2.894
 7777TIP3    H123295   0.776   0.753   2.881
 7777TIP3    H223296   0.906   0.806   2.825
 7778TIP3   OH223297   1.681   4.501   0.685
 7778TIP3    H123298   1.590   4.509   0.713
 7778TIP3    H223299   1.732   4.524   0.762
 7779TIP3   OH223300   2.264   1.257   4.469
 7779TIP3    H123301   2.358   1.268   4.484
 7779TIP3    H223302   2.260   1.198   4.393
 7780TIP3   OH223303   2.214   6.220   1.840
 7780TIP3    H123304   2.138   6.255   1.886
 7780TIP3    H223305   2.197   6.240   1.748
 7781TIP3   OH223306   1.569   5.972   3.654
 7781TIP3    H123307   1.637   6.036   3.675
 7781TIP3    H223308   1.524   6.010   3.578
 7782TIP3   OH223309   4.925   0.353   4.016
 7782TIP3    H123310   4.897   0.317   3.932
 7782TIP3    H223311   4.955   0.278   4.066
 7783TIP3   OH223312   6.052   1.034   3.687
 7783TIP3    H123313   5.965   1.071   3.694
 7783TIP3    H223314   6.079   1.051   3.597
 7784TIP3   OH223315   4.422   2.138   1.675
 7784TIP3    H123316   4.436   2.229   1.704
 7784TIP3    H223317   4.500   2.092   1.705
 7785TIP3   OH223318   1.405   6.459   4.657
 7785TIP3    H123319   1.336   6.393   4.666
 7785TIP3    H223320   1.368   6.539   4.693
 7786TIP3   OH223321   1.178   3.249   3.747
 7786TIP3    H123322   1.127   3.169   3.765
 7786TIP3    H223323   1.144   3.280   3.664
 7787TIP3   OH223324   4.419   6.582   3.557
 7787TIP3    H123325   4.511   6.588   3.533
 7787TIP3    H223326   4.415   6.618   3.646
 7788TIP3   OH223327   3.719   3.996   3.244
 7788TIP3    H123328   3.650   3.930   3.240
 7788TIP3    H223329   3.681   4.073   3.201
 7789TIP3   OH223330   5.474   2.142   1.917
 7789TIP3    H123331   5.562   2.176   1.901
 7789TIP3    H223332   5.419   2.220   1.925
 7790TIP3   OH223333   1.799   0.390   5.642
 7790TIP3    H123334   1.778   0.409   5.550
 7790TIP3    H223335   1.894   0.396   5.647
 7791TIP3   OH223336   6.665   2.458   4.726
 7791TIP3    H123337   6.638   2.548   4.710
 7791TIP3    H223338   6.654   2.414   4.642
 7792TIP3   OH223339   2.778   5.618   0.660
 7792TIP3    H123340   2.733   5.568   0.591
 7792TIP3    H223341   2.851   5.561   0.687
 7793TIP3   OH223342   2.562   4.659   1.769
 7793TIP3    H123343   2.536   4.579   1.815
 7793TIP3    H223344   2.496   4.669   1.700
 7794TIP3   OH223345   1.207   5.463   5.158
 7794TIP3    H123346   1.264   5.427   5.091
 7794TIP3    H223347   1.119   5.458   5.121
 7795TIP3   OH223348   3.140   0.232   5.053
 7795TIP3    H123349   3.179   0.320   5.049
 7795TIP3    H223350   3.195   0.185   5.116
 7796TIP3   OH223351   5.431   6.401   0.074
 7796TIP3    H123352   5.472   6.332   0.021
 7796TIP3    H223353   5.417   6.360   0.159
 7797TIP3   OH223354   5.429   2.183   0.596
 7797TIP3    H123355   5.354   2.242   0.599
 7797TIP3    H223356   5.462   2.192   0.506
 7798TIP3   OH223357   7.052   4.720   4.113
 7798TIP3    H123358   7.126   4.706   4.173
 7798TIP3    H223359   7.032   4.814   4.121
 7799TIP3   OH223360   1.127   4.517   0.700
 7799TIP3    H123361   1.064   4.481   0.638
 7799TIP3    H223362   1.096   4.489   0.785
 7800TIP3   OH223363   3.977   5.657   4.061
 7800TIP3    H123364   4.050   5.708   4.027
 7800TIP3    H223365   3.985   5.665   4.156
 7801TIP3   OH223366   0.370   1.432   1.792
 7801TIP3    H123367   0.445   1.468   1.743
 7801TIP3    H223368   0.409   1.391   1.869
 7802TIP3   OH223369   6.626   4.527   5.802
 7802TIP3    H123370   6.710   4.569   5.823
 7802TIP3    H223371   6.625   4.521   5.706
 7803TIP3   OH223372   0.195   4.111   5.045
 7803TIP3    H123373   0.143   4.087   5.122
 7803TIP3    H223374   0.286   4.101   5.073
 7804TIP3   OH223375   4.580   1.837   5.730
 7804TIP3    H123376   4.548   1.798   5.811
 7804TIP3    H223377   4.666   1.797   5.716
 7805TIP3   OH223378   5.246   4.595   2.206
 7805TIP3    H123379   5.333   4.556   2.212
 7805TIP3    H223380   5.253   4.678   2.253
 7806TIP3   OH223381   3.432   5.847   2.221
 7806TIP3    H123382   3.371   5.794   2.272
 7806TIP3    H223383   3.451   5.922   2.278
 7807TIP3   OH223384   5.894   4.292   4.590
 7807TIP3    H123385   5.876   4.198   4.589
 7807TIP3    H223386   5.813   4.332   4.561
 7808TIP3   OH223387   5.560   5.094   5.312
 7808TIP3    H123388   5.542   5.163   5.248
 7808TIP3    H223389   5.542   5.013   5.265
 7809TIP3   OH223390   1.014   1.691   0.583
 7809TIP3    H123391   0.935   1.716   0.630
 7809TIP3    H223392   1.002   1.724   0.494
 7810TIP3   OH223393   1.960   2.361   2.878
 7810TIP3    H123394   2.051   2.332   2.880
 7810TIP3    H223395   1.961   2.446   2.922
 7811TIP3   OH223396   5.872   3.632   3.311
 7811TIP3    H123397   5.809   3.686   3.359
 7811TIP3    H223398   5.827   3.606   3.231
 7812TIP3   OH223399   2.118   5.964   1.872
 7812TIP3    H123400   2.112   5.982   1.966
 7812TIP3    H223401   2.160   6.042   1.836
 7813TIP3   OH223402   3.303   6.303   4.033
 7813TIP3    H123403   3.381   6.342   3.993
 7813TIP3    H223404   3.245   6.378   4.049
 7814TIP3   OH223405   5.649   2.013   0.986
 7814TIP3    H123406   5.577   2.015   0.924
 7814TIP3    H223407   5.700   2.092   0.967
 7815TIP3   OH223408   0.233   6.428   1.791
 7815TIP3    H123409   0.161   6.368   1.772
 7815TIP3    H223410   0.192   6.515   1.789
 7816TIP3   OH223411   0.804   6.358   1.499
 7816TIP3    H123412   0.718   6.335   1.466
 7816TIP3    H223413   0.854   6.276   1.494
 7817TIP3   OH223414   1.948   2.828   5.571
 7817TIP3    H123415   1.899   2.790   5.644
 7817TIP3    H223416   1.943   2.763   5.501
 7818TIP3   OH223417   1.807   6.309   0.944
 7818TIP3    H123418   1.876   6.244   0.936
 7818TIP3    H223419   1.849   6.392   0.922
 7819TIP3   OH223420   0.804   2.699   1.329
 7819TIP3    H123421   0.716   2.682   1.363
 7819TIP3    H223422   0.792   2.702   1.234
 7820TIP3   OH223423   6.946   5.815   2.219
 7820TIP3    H123424   6.918   5.864   2.297
 7820TIP3    H223425   7.027   5.859   2.191
 7821TIP3   OH223426   1.250   4.441   5.038
 7821TIP3    H123427   1.190   4.468   4.968
 7821TIP3    H223428   1.266   4.521   5.088
 7822TIP3   OH223429   1.894   0.297   0.942
 7822TIP3    H123430   1.861   0.243   0.870
 7822TIP3    H223431   1.873   0.387   0.917
 7823TIP3   OH223432   2.559   2.059   5.143
 7823TIP3    H123433   2.535   2.055   5.050
 7823TIP3    H223434   2.654   2.052   5.143
 7824TIP3   OH223435   1.654   1.924   3.641
 7824TIP3    H123436   1.622   1.955   3.556
 7824TIP3    H223437   1.719   1.857   3.619
 7825TIP3   OH223438   1.141   3.140   1.939
 7825TIP3    H123439   1.216   3.200   1.934
 7825TIP3    H223440   1.158   3.074   1.872
 7826TIP3   OH223441   0.572   3.375   4.695
 7826TIP3    H123442   0.531   3.400   4.777
 7826TIP3    H223443   0.556   3.281   4.687
 7827TIP3   OH223444   3.266   1.102   0.871
 7827TIP3    H123445   3.244   1.128   0.961
 7827TIP3    H223446   3.209   1.156   0.816
 7828TIP3   OH223447   3.740   5.330   0.608
 7828TIP3    H123448   3.726   5.289   0.522
 7828TIP3    H223449   3.705   5.419   0.597
 7829TIP3   OH223450   1.331   4.305   4.008
 7829TIP3    H123451   1.340   4.251   4.087
 7829TIP3    H223452   1.242   4.338   4.011
 7830TIP3   OH223453   1.964   4.093   3.374
 7830TIP3    H123454   1.969   4.072   3.468
 7830TIP3    H223455   1.899   4.032   3.340
 7831TIP3   OH223456   5.704   3.539   3.088
 7831TIP3    H123457   5.669   3.450   3.089
 7831TIP3    H223458   5.717   3.558   2.995
 7832TIP3   OH223459   5.495   1.096   4.090
 7832TIP3    H123460   5.542   1.034   4.034
 7832TIP3    H223461   5.548   1.102   4.169
 7833TIP3   OH223462   5.562   5.230   3.817
 7833TIP3    H123463   5.526   5.143   3.800
 7833TIP3    H223464   5.485   5.285   3.832
 7834TIP3   OH223465   5.242   1.828   0.903
 7834TIP3    H123466   5.302   1.900   0.883
 7834TIP3    H223467   5.299   1.752   0.917
 7835TIP3   OH223468   0.907   3.124   2.861
 7835TIP3    H123469   0.993   3.103   2.824
 7835TIP3    H223470   0.926   3.182   2.934
 7836TIP3   OH223471   1.830   0.121   4.011
 7836TIP3    H123472   1.785   0.181   3.952
 7836TIP3    H223473   1.776   0.042   4.011
 7837TIP3   OH223474   5.161   4.390   1.705
 7837TIP3    H123475   5.082   4.413   1.656
 7837TIP3    H223476   5.157   4.444   1.783
 7838TIP3   OH223477   5.271   2.001   5.532
 7838TIP3    H123478   5.351   2.028   5.577
 7838TIP3    H223479   5.236   1.930   5.587
 7839TIP3   OH223480   1.781   5.341   2.063
 7839TIP3    H123481   1.729   5.291   2.126
 7839TIP3    H223482   1.864   5.356   2.108
 7840TIP3   OH223483   6.364   5.810   5.205
 7840TIP3    H123484   6.327   5.724   5.184
 7840TIP3    H223485   6.373   5.809   5.301
 7841TIP3   OH223486   5.129   5.205   1.696
 7841TIP3    H123487   5.038   5.182   1.711
 7841TIP3    H223488   5.172   5.188   1.780
 7842TIP3   OH223489   6.850   0.861   1.219
 7842TIP3    H123490   6.876   0.887   1.130
 7842TIP3    H223491   6.931   0.837   1.262
 7843TIP3   OH223492   5.969   0.421   4.344
 7843TIP3    H123493   5.879   0.453   4.334
 7843TIP3    H223494   5.978   0.406   4.438
 7844TIP3   OH223495   1.267   3.828   2.455
 7844TIP3    H123496   1.345   3.821   2.510
 7844TIP3    H223497   1.294   3.882   2.381
 7845TIP3   OH223498   1.237   4.251   3.672
 7845TIP3    H123499   1.302   4.239   3.741
 7845TIP3    H223500   1.280   4.304   3.606
 7846TIP3   OH223501   1.524   5.776   1.440
 7846TIP3    H123502   1.597   5.793   1.381
 7846TIP3    H223503   1.549   5.819   1.522
 7847TIP3   OH223504   7.024   2.042   5.155
 7847TIP3    H123505   7.011   2.136   5.169
 7847TIP3    H223506   7.038   2.033   5.061
 7848TIP3   OH223507   2.038   5.594   1.947
 7848TIP3    H123508   2.077   5.624   1.865
 7848TIP3    H223509   2.003   5.508   1.926
 7849TIP3   OH223510   7.165   3.681   2.164
 7849TIP3    H123511   7.103   3.615   2.133
 7849TIP3    H223512   7.249   3.656   2.125
 7850TIP3   OH223513   1.824   3.806   2.879
 7850TIP3    H123514   1.807   3.774   2.968
 7850TIP3    H223515   1.762   3.757   2.824
 7851TIP3   OH223516   6.382   5.939   1.316
 7851TIP3    H123517   6.446   5.936   1.245
 7851TIP3    H223518   6.427   5.984   1.387
 7852TIP3   OH223519   6.283   0.382   1.231
 7852TIP3    H123520   6.363   0.429   1.208
 7852TIP3    H223521   6.308   0.326   1.304
 7853TIP3   OH223522   4.686   4.653   3.347
 7853TIP3    H123523   4.673   4.610   3.431
 7853TIP3    H223524   4.601   4.649   3.304
 7854TIP3   OH223525   3.243   3.043   0.191
 7854TIP3    H123526   3.226   2.987   0.266
 7854TIP3    H223527   3.193   3.123   0.208
 7855TIP3   OH223528   1.557   2.395   0.124
 7855TIP3    H123529   1.496   2.336   0.169
 7855TIP3    H223530   1.576   2.351   0.041
 7856TIP3   OH223531   2.306   3.858   4.125
 7856TIP3    H123532   2.290   3.929   4.062
 7856TIP3    H223533   2.401   3.850   4.128
 7857TIP3   OH223534   0.445   2.939   4.999
 7857TIP3    H123535   0.488   2.998   4.938
 7857TIP3    H223536   0.504   2.933   5.074
 7858TIP3   OH223537   5.714   0.730   3.676
 7858TIP3    H123538   5.714   0.798   3.609
 7858TIP3    H223539   5.778   0.666   3.645
 7859TIP3   OH223540   6.828   6.546   5.031
 7859TIP3    H123541   6.867   6.459   5.043
 7859TIP3    H223542   6.902   6.606   5.027
 7860TIP3   OH223543   3.803   2.932   2.010
 7860TIP3    H123544   3.869   2.863   2.020
 7860TIP3    H223545   3.732   2.891   1.961
 7861TIP3   OH223546   5.838   6.089   5.550
 7861TIP3    H123547   5.889   6.169   5.538
 7861TIP3    H223548   5.835   6.076   5.645
 7862TIP3   OH223549   3.249   6.140   0.039
 7862TIP3    H123550   3.172   6.182   0.078
 7862TIP3    H223551   3.323   6.174   0.090
 7863TIP3   OH223552   0.558   3.798   4.511
 7863TIP3    H123553   0.566   3.703   4.506
 7863TIP3    H223554   0.649   3.829   4.513
 7864TIP3   OH223555   3.128   5.865   1.158
 7864TIP3    H123556   3.216   5.889   1.131
 7864TIP3    H223557   3.130   5.865   1.253
 7865TIP3   OH223558   4.580   4.147   2.003
 7865TIP3    H123559   4.656   4.205   1.999
 7865TIP3    H223560   4.580   4.114   2.093
 7866TIP3   OH223561   6.679   0.646   5.307
 7866TIP3    H123562   6.761   0.692   5.290
 7866TIP3    H223563   6.696   0.556   5.281
 7867TIP3   OH223564   5.494   1.456   2.001
 7867TIP3    H123565   5.581   1.417   2.003
 7867TIP3    H223566   5.491   1.513   2.078
 7868TIP3   OH223567   5.908   0.773   0.240
 7868TIP3    H123568   6.003   0.769   0.230
 7868TIP3    H223569   5.888   0.703   0.302
 7869TIP3   OH223570   4.837   3.659   5.846
 7869TIP3    H123571   4.914   3.613   5.812
 7869TIP3    H223572   4.846   3.748   5.811
 7870TIP3   OH223573   1.783   5.338   5.823
 7870TIP3    H123574   1.708   5.283   5.799
 7870TIP3    H223575   1.744   5.418   5.859
 7871TIP3   OH223576   4.572   1.584   2.270
 7871TIP3    H123577   4.662   1.609   2.290
 7871TIP3    H223578   4.546   1.526   2.341
 7872TIP3   OH223579   5.581   4.329   2.341
 7872TIP3    H123580   5.514   4.355   2.404
 7872TIP3    H223581   5.658   4.381   2.364
 7873TIP3   OH223582   5.959   1.450   2.184
 7873TIP3    H123583   5.938   1.539   2.211
 7873TIP3    H223584   5.883   1.398   2.208
 7874TIP3   OH223585   1.823   4.361   5.651
 7874TIP3    H123586   1.813   4.455   5.657
 7874TIP3    H223587   1.740   4.329   5.615
 7875TIP3   OH223588   4.526   2.511   1.010
 7875TIP3    H123589   4.606   2.491   0.963
 7875TIP3    H223590   4.471   2.433   0.999
 7876TIP3   OH223591   1.784   0.730   2.231
 7876TIP3    H123592   1.734   0.809   2.251
 7876TIP3    H223593   1.742   0.661   2.282
 7877TIP3   OH223594   1.580   2.850   4.484
 7877TIP3    H123595   1.508   2.791   4.460
 7877TIP3    H223596   1.536   2.929   4.516
 7878TIP3   OH223597   3.816   1.872   5.768
 7878TIP3    H123598   3.793   1.965   5.759
 7878TIP3    H223599   3.740   1.825   5.733
 7879TIP3   OH223600   0.431   6.036   3.009
 7879TIP3    H123601   0.396   6.114   2.966
 7879TIP3    H223602   0.468   5.984   2.939
 7880TIP3   OH223603   6.862   1.469   5.707
 7880TIP3    H123604   6.806   1.546   5.698
 7880TIP3    H223605   6.837   1.431   5.791
 7881TIP3   OH223606   1.859   1.356   1.767
 7881TIP3    H123607   1.908   1.288   1.721
 7881TIP3    H223608   1.772   1.354   1.727
 7882TIP3   OH223609   5.157   2.580   4.483
 7882TIP3    H123610   5.177   2.667   4.519
 7882TIP3    H223611   5.121   2.532   4.558
 7883TIP3   OH223612   6.449   0.692   5.478
 7883TIP3    H123613   6.404   0.766   5.437
 7883TIP3    H223614   6.542   0.710   5.465
 7884TIP3   OH223615   4.648   2.411   4.546
 7884TIP3    H123616   4.597   2.336   4.515
 7884TIP3    H223617   4.672   2.458   4.467
 7885TIP3   OH223618   5.464   1.640   1.515
 7885TIP3    H123619   5.377   1.620   1.549
 7885TIP3    H223620   5.524   1.604   1.580
 7886TIP3   OH223621   1.033   0.895   2.423
 7886TIP3    H123622   1.059   0.983   2.450
 7886TIP3    H223623   1.109   0.841   2.440
 7887TIP3   OH223624   1.467   2.263   5.593
 7887TIP3    H123625   1.512   2.343   5.620
 7887TIP3    H223626   1.526   2.222   5.529
 7888TIP3   OH223627   1.905   5.608   4.800
 7888TIP3    H123628   1.817   5.574   4.819
 7888TIP3    H223629   1.935   5.556   4.726
 7889TIP3   OH223630   6.806   3.555   4.679
 7889TIP3    H123631   6.850   3.471   4.668
 7889TIP3    H223632   6.848   3.612   4.615
 7890TIP3   OH223633   3.417   3.102   5.002
 7890TIP3    H123634   3.454   3.015   4.987
 7890TIP3    H223635   3.337   3.086   5.051
 7891TIP3   OH223636   2.159   3.871   5.046
 7891TIP3    H123637   2.128   3.815   5.117
 7891TIP3    H223638   2.130   3.827   4.966
 7892TIP3   OH223639   0.311   2.596   0.676
 7892TIP3    H123640   0.399   2.633   0.671
 7892TIP3    H223641   0.303   2.542   0.598
 7893TIP3   OH223642   1.745   0.082   1.693
 7893TIP3    H123643   1.735   0.107   1.601
 7893TIP3    H223644   1.693   0.003   1.703
 7894TIP3   OH223645   3.833   3.338   2.077
 7894TIP3    H123646   3.767   3.373   2.017
 7894TIP3    H223647   3.844   3.406   2.143
 7895TIP3   OH223648   4.364   2.704   4.607
 7895TIP3    H123649   4.423   2.659   4.668
 7895TIP3    H223650   4.318   2.768   4.661
 7896TIP3   OH223651   0.907   1.319   5.560
 7896TIP3    H123652   0.975   1.380   5.588
 7896TIP3    H223653   0.927   1.238   5.606
 7897TIP3   OH223654   3.532   5.463   3.725
 7897TIP3    H123655   3.529   5.392   3.789
 7897TIP3    H223656   3.465   5.440   3.660
 7898TIP3   OH223657   6.105   0.066   5.374
 7898TIP3    H123658   6.127   0.094   5.285
 7898TIP3    H223659   6.173   0.002   5.396
 7899TIP3   OH223660   6.259   1.935   0.110
 7899TIP3    H123661   6.232   1.925   0.201
 7899TIP3    H223662   6.304   2.019   0.108
 7900TIP3   OH223663   6.070   4.313   0.279
 7900TIP3    H123664   5.997   4.256   0.304
 7900TIP3    H223665   6.148   4.265   0.305
 7901TIP3   OH223666   3.037   2.091   1.081
 7901TIP3    H123667   2.965   2.031   1.096
 7901TIP3    H223668   3.095   2.078   1.155
 7902TIP3   OH223669   2.608   1.974   3.523
 7902TIP3    H123670   2.611   2.030   3.601
 7902TIP3    H223671   2.521   1.989   3.486
 7903TIP3   OH223672   5.479   6.294   4.475
 7903TIP3    H123673   5.421   6.351   4.425
 7903TIP3    H223674   5.421   6.233   4.520
 7904TIP3   OH223675   4.020   3.472   1.855
 7904TIP3    H123676   3.946   3.415   1.873
 7904TIP3    H223677   3.984   3.541   1.799
 7905TIP3   OH223678   0.646   0.595   1.227
 7905TIP3    H123679   0.706   0.645   1.172
 7905TIP3    H223680   0.696   0.516   1.250
 7906TIP3   OH223681   7.016   3.562   4.034
 7906TIP3    H123682   6.959   3.569   4.110
 7906TIP3    H223683   7.093   3.515   4.067
 7907TIP3   OH223684   1.376   5.336   1.979
 7907TIP3    H123685   1.446   5.380   1.931
 7907TIP3    H223686   1.371   5.383   2.062
 7908TIP3   OH223687   0.643   5.297   0.761
 7908TIP3    H123688   0.677   5.371   0.811
 7908TIP3    H223689   0.601   5.241   0.827
 7909TIP3   OH223690   4.372   0.344   0.246
 7909TIP3    H123691   4.373   0.260   0.199
 7909TIP3    H223692   4.425   0.402   0.191
 7910TIP3   OH223693   6.826   1.862   4.786
 7910TIP3    H123694   6.755   1.875   4.849
 7910TIP3    H223695   6.821   1.937   4.728
 7911TIP3   OH223696   1.025   2.044   5.224
 7911TIP3    H123697   1.077   2.042   5.144
 7911TIP3    H223698   1.016   2.137   5.246
 7912TIP3   OH223699   5.226   3.861   0.518
 7912TIP3    H123700   5.184   3.854   0.603
 7912TIP3    H223701   5.289   3.789   0.515
 7913TIP3   OH223702   2.699   0.509   3.603
 7913TIP3    H123703   2.742   0.587   3.568
 7913TIP3    H223704   2.759   0.477   3.670
 7914TIP3   OH223705   6.677   0.288   2.614
 7914TIP3    H123706   6.641   0.223   2.554
 7914TIP3    H223707   6.770   0.294   2.591
 7915TIP3   OH223708   3.215   0.105   5.290
 7915TIP3    H123709   3.195   0.081   5.381
 7915TIP3    H223710   3.302   0.145   5.295
 7916TIP3   OH223711   0.129   0.926   1.078
 7916TIP3    H123712   0.156   0.845   1.034
 7916TIP3    H223713   0.167   0.996   1.025
 7917TIP3   OH223714  -0.011   0.133   2.633
 7917TIP3    H123715   0.050   0.192   2.677
 7917TIP3    H223716   0.012   0.139   2.541
 7918TIP3   OH223717   1.678   5.470   1.533
 7918TIP3    H123718   1.720   5.515   1.606
 7918TIP3    H223719   1.727   5.499   1.456
 7919TIP3   OH223720   1.466   6.169   1.488
 7919TIP3    H123721   1.454   6.113   1.565
 7919TIP3    H223722   1.439   6.115   1.414
 7920TIP3   OH223723   6.881   2.260   5.445
 7920TIP3    H123724   6.914   2.267   5.355
 7920TIP3    H223725   6.805   2.204   5.438
 7921TIP3   OH223726   6.691   0.640   1.298
 7921TIP3    H123727   6.688   0.672   1.388
 7921TIP3    H223728   6.739   0.707   1.250
 7922TIP3   OH223729   3.755   6.234   4.870
 7922TIP3    H123730   3.722   6.202   4.954
 7922TIP3    H223731   3.708   6.317   4.856
 7923TIP3   OH223732   7.117   1.904   0.793
 7923TIP3    H123733   7.135   1.917   0.886
 7923TIP3    H223734   7.141   1.988   0.752
 7924TIP3   OH223735   2.507   1.239   2.044
 7924TIP3    H123736   2.467   1.161   2.083
 7924TIP3    H223737   2.581   1.259   2.102
 7925TIP3   OH223738   5.447   0.582   2.175
 7925TIP3    H123739   5.378   0.554   2.116
 7925TIP3    H223740   5.410   0.571   2.262
 7926TIP3   OH223741   0.178   1.830   0.916
 7926TIP3    H123742   0.273   1.817   0.920
 7926TIP3    H223743   0.160   1.841   0.822
 7927TIP3   OH223744   4.568   3.548   4.980
 7927TIP3    H123745   4.663   3.535   4.977
 7927TIP3    H223746   4.556   3.643   4.979
 7928TIP3   OH223747   1.390   0.358   4.902
 7928TIP3    H123748   1.330   0.359   4.977
 7928TIP3    H223749   1.466   0.408   4.932
 7929TIP3   OH223750   7.054   3.824   0.697
 7929TIP3    H123751   7.070   3.867   0.781
 7929TIP3    H223752   6.969   3.782   0.707
 7930TIP3   OH223753   4.637   4.535   2.152
 7930TIP3    H123754   4.699   4.462   2.156
 7930TIP3    H223755   4.623   4.559   2.244
 7931TIP3   OH223756   5.742   3.954   2.974
 7931TIP3    H123757   5.818   3.903   3.000
 7931TIP3    H223758   5.673   3.888   2.962
 7932TIP3   OH223759   1.903   0.838   1.639
 7932TIP3    H123760   1.821   0.821   1.593
 7932TIP3    H223761   1.929   0.752   1.674
 7933TIP3   OH223762   4.783   5.757   1.265
 7933TIP3    H123763   4.860   5.705   1.243
 7933TIP3    H223764   4.818   5.830   1.317
 7934TIP3   OH223765   3.957   4.391   5.011
 7934TIP3    H123766   4.052   4.391   4.999
 7934TIP3    H223767   3.931   4.482   4.997
 7935TIP3   OH223768   6.810   6.173   3.705
 7935TIP3    H123769   6.867   6.216   3.641
 7935TIP3    H223770   6.725   6.167   3.661
 7936TIP3   OH223771   2.537   6.163   5.851
 7936TIP3    H123772   2.479   6.226   5.893
 7936TIP3    H223773   2.480   6.115   5.791
 7937TIP3   OH223774   4.513   2.391   2.013
 7937TIP3    H123775   4.429   2.411   2.054
 7937TIP3    H223776   4.572   2.459   2.046
 7938TIP3   OH223777   2.849   4.121   3.226
 7938TIP3    H123778   2.861   4.175   3.148
 7938TIP3    H223779   2.783   4.056   3.200
 7939TIP3   OH223780   2.268   5.071   5.018
 7939TIP3    H123781   2.209   5.145   5.031
 7939TIP3    H223782   2.336   5.082   5.083
 7940TIP3   OH223783   0.290   2.712   1.426
 7940TIP3    H123784   0.227   2.674   1.365
 7940TIP3    H223785   0.251   2.696   1.513
 7941TIP3   OH223786   4.327   4.418   1.079
 7941TIP3    H123787   4.415   4.454   1.090
 7941TIP3    H223788   4.340   4.338   1.028
 7942TIP3   OH223789   3.622   3.482   1.338
 7942TIP3    H123790   3.595   3.525   1.257
 7942TIP3    H223791   3.562   3.409   1.348
 7943TIP3   OH223792   2.736   2.969   0.489
 7943TIP3    H123793   2.741   3.024   0.568
 7943TIP3    H223794   2.793   3.012   0.426
 7944TIP3   OH223795   4.979   4.771   4.781
 7944TIP3    H123796   4.909   4.708   4.767
 7944TIP3    H223797   5.059   4.718   4.788
 7945TIP3   OH223798   5.751   2.601   0.703
 7945TIP3    H123799   5.836   2.592   0.745
 7945TIP3    H223800   5.732   2.695   0.707
 7946TIP3   OH223801   6.993   4.996   4.870
 7946TIP3    H123802   6.960   4.985   4.781
 7946TIP3    H223803   6.915   5.000   4.925
 7947TIP3   OH223804   0.667   1.600   4.725
 7947TIP3    H123805   0.743   1.551   4.693
 7947TIP3    H223806   0.690   1.625   4.814
 7948TIP3   OH223807   1.517   1.971   3.404
 7948TIP3    H123808   1.512   2.067   3.408
 7948TIP3    H223809   1.429   1.944   3.377
 7949TIP3   OH223810   0.143   0.884   5.147
 7949TIP3    H123811   0.210   0.953   5.144
 7949TIP3    H223812   0.113   0.877   5.056
 7950TIP3   OH223813   6.255   4.162   3.415
 7950TIP3    H123814   6.315   4.183   3.343
 7950TIP3    H223815   6.190   4.104   3.376
 7951TIP3   OH223816   3.518   0.104   3.362
 7951TIP3    H123817   3.487   0.053   3.287
 7951TIP3    H223818   3.530   0.192   3.328
 7952TIP3   OH223819   6.689   5.419   0.692
 7952TIP3    H123820   6.696   5.390   0.783
 7952TIP3    H223821   6.683   5.515   0.698
 7953TIP3   OH223822   3.645   1.519   0.756
 7953TIP3    H123823   3.704   1.547   0.685
 7953TIP3    H223824   3.672   1.572   0.831
 7954TIP3   OH223825   6.874   5.116   2.224
 7954TIP3    H123826   6.950   5.059   2.232
 7954TIP3    H223827   6.845   5.106   2.134
 7955TIP3   OH223828   5.701   0.986   2.024
 7955TIP3    H123829   5.794   0.964   2.013
 7955TIP3    H223830   5.657   0.936   1.955
 7956TIP3   OH223831   0.919   4.809   0.797
 7956TIP3    H123832   0.931   4.904   0.802
 7956TIP3    H223833   0.903   4.793   0.704
 7957TIP3   OH223834   3.354   6.599   0.255
 7957TIP3    H123835   3.448   6.599   0.240
 7957TIP3    H223836   3.325   6.685   0.227
 7958TIP3   OH223837   4.498   3.430   0.742
 7958TIP3    H123838   4.522   3.521   0.726
 7958TIP3    H223839   4.406   3.434   0.769
 7959TIP3   OH223840   3.204   1.510   1.426
 7959TIP3    H123841   3.231   1.495   1.516
 7959TIP3    H223842   3.259   1.582   1.396
 7960TIP3   OH223843   4.840   5.676   3.156
 7960TIP3    H123844   4.901   5.741   3.121
 7960TIP3    H223845   4.753   5.715   3.143
 7961TIP3   OH223846   1.887   4.247   4.330
 7961TIP3    H123847   1.804   4.281   4.297
 7961TIP3    H223848   1.893   4.280   4.419
 7962TIP3   OH223849   3.592   2.302   1.277
 7962TIP3    H123850   3.646   2.223   1.275
 7962TIP3    H223851   3.642   2.364   1.330
 7963TIP3   OH223852   2.519   0.654   5.069
 7963TIP3    H123853   2.478   0.741   5.068
 7963TIP3    H223854   2.519   0.627   4.978
 7964TIP3   OH223855   1.188   3.004   2.480
 7964TIP3    H123856   1.217   3.027   2.392
 7964TIP3    H223857   1.269   2.991   2.529
 7965TIP3   OH223858   6.951   0.517   1.855
 7965TIP3    H123859   7.030   0.484   1.899
 7965TIP3    H223860   6.909   0.439   1.820
 7966TIP3   OH223861   2.919   0.228   3.735
 7966TIP3    H123862   2.946   0.289   3.803
 7966TIP3    H223863   2.992   0.226   3.674
 7967TIP3   OH223864   0.316   3.142   2.567
 7967TIP3    H123865   0.346   3.231   2.583
 7967TIP3    H223866   0.221   3.149   2.560
 7968TIP3   OH223867   0.118   1.404   3.507
 7968TIP3    H123868   0.117   1.410   3.603
 7968TIP3    H223869   0.151   1.316   3.489
 7969TIP3   OH223870   0.882   3.276   4.478
 7969TIP3    H123871   0.835   3.272   4.394
 7969TIP3    H223872   0.901   3.368   4.491
 7970TIP3   OH223873   5.201   2.845   0.878
 7970TIP3    H123874   5.126   2.820   0.932
 7970TIP3    H223875   5.220   2.935   0.905
 7971TIP3   OH223876   0.635   4.692   4.700
 7971TIP3    H123877   0.703   4.626   4.686
 7971TIP3    H223878   0.682   4.776   4.700
 7972TIP3   OH223879   6.848   6.167   5.026
 7972TIP3    H123880   6.793   6.093   5.001
 7972TIP3    H223881   6.916   6.170   4.960
 7973TIP3   OH223882   2.423   2.958   4.897
 7973TIP3    H123883   2.430   2.877   4.847
 7973TIP3    H223884   2.432   2.930   4.988
 7974TIP3   OH223885   5.715   0.484   2.715
 7974TIP3    H123886   5.754   0.416   2.659
 7974TIP3    H223887   5.651   0.527   2.658
 7975TIP3   OH223888   3.371   3.053   4.514
 7975TIP3    H123889   3.441   3.097   4.465
 7975TIP3    H223890   3.298   3.114   4.512
 7976TIP3   OH223891   4.847   1.728   2.720
 7976TIP3    H123892   4.871   1.720   2.813
 7976TIP3    H223893   4.752   1.739   2.720
 7977TIP3   OH223894   1.532   5.793   1.065
 7977TIP3    H123895   1.583   5.793   1.146
 7977TIP3    H223896   1.579   5.852   1.006
 7978TIP3   OH223897   6.642   2.279   1.145
 7978TIP3    H123898   6.613   2.369   1.131
 7978TIP3    H223899   6.712   2.286   1.209
 7979TIP3   OH223900   6.052   0.167   4.509
 7979TIP3    H123901   5.959   0.169   4.531
 7979TIP3    H223902   6.096   0.144   4.591
 7980TIP3   OH223903   0.483   0.084   1.682
 7980TIP3    H123904   0.498   0.089   1.587
 7980TIP3    H223905   0.536   0.155   1.718
 7981TIP3   OH223906   6.960   2.915   0.225
 7981TIP3    H123907   6.900   2.986   0.201
 7981TIP3    H223908   6.966   2.920   0.320
 7982TIP3   OH223909   1.491   3.994   3.395
 7982TIP3    H123910   1.497   3.966   3.486
 7982TIP3    H223911   1.468   4.087   3.399
 7983TIP3   OH223912   5.217   2.678   1.173
 7983TIP3    H123913   5.152   2.696   1.105
 7983TIP3    H223914   5.268   2.605   1.138
 7984TIP3   OH223915   6.474   5.859   3.490
 7984TIP3    H123916   6.433   5.848   3.576
 7984TIP3    H223917   6.402   5.875   3.430
 7985TIP3   OH223918   1.284   4.412   5.873
 7985TIP3    H123919   1.313   4.341   5.929
 7985TIP3    H223920   1.361   4.435   5.821
 7986TIP3   OH223921   7.043   4.025   4.620
 7986TIP3    H123922   7.107   3.957   4.641
 7986TIP3    H223923   7.087   4.107   4.641
 7987TIP3   OH223924   2.702   0.348   0.138
 7987TIP3    H123925   2.693   0.442   0.153
 7987TIP3    H223926   2.627   0.326   0.083
 7988TIP3   OH223927   4.859   3.899   4.872
 7988TIP3    H123928   4.779   3.853   4.847
 7988TIP3    H223929   4.868   3.881   4.965
 7989TIP3   OH223930   3.277   2.170   3.894
 7989TIP3    H123931   3.269   2.076   3.911
 7989TIP3    H223932   3.262   2.211   3.980
 7990TIP3   OH223933   5.863   3.690   1.230
 7990TIP3    H123934   5.777   3.717   1.198
 7990TIP3    H223935   5.863   3.716   1.322
 7991TIP3   OH223936   3.797   0.382   3.792
 7991TIP3    H123937   3.760   0.434   3.864
 7991TIP3    H223938   3.722   0.363   3.736
 7992TIP3   OH223939   4.767   5.466   3.327
 7992TIP3    H123940   4.785   5.540   3.269
 7992TIP3    H223941   4.822   5.395   3.293
 7993TIP3   OH223942   1.172   4.227   2.930
 7993TIP3    H123943   1.227   4.304   2.944
 7993TIP3    H223944   1.090   4.262   2.895
 7994TIP3   OH223945   1.899   0.978   2.588
 7994TIP3    H123946   1.909   0.898   2.535
 7994TIP3    H223947   1.988   1.008   2.603
 7995TIP3   OH223948   0.022   1.310   3.127
 7995TIP3    H123949   0.060   1.247   3.065
 7995TIP3    H223950   0.080   1.385   3.123
 7996TIP3   OH223951   4.305   3.627   4.357
 7996TIP3    H123952   4.264   3.712   4.373
 7996TIP3    H223953   4.399   3.644   4.361
 7997TIP3   OH223954   0.296   2.432   1.749
 7997TIP3    H123955   0.333   2.520   1.762
 7997TIP3    H223956   0.202   2.445   1.757
 7998TIP3   OH223957   3.001   4.101   4.820
 7998TIP3    H123958   2.929   4.046   4.791
 7998TIP3    H223959   3.031   4.146   4.741
 7999TIP3   OH223960   5.878   4.967   5.435
 7999TIP3    H123961   5.809   4.991   5.496
 7999TIP3    H223962   5.959   4.978   5.485
 8000TIP3   OH223963   3.898   3.508   3.566
 8000TIP3    H123964   3.887   3.420   3.531
 8000TIP3    H223965   3.899   3.564   3.488
 8001TIP3   OH223966   5.832   1.776   5.727
 8001TIP3    H123967   5.764   1.712   5.751
 8001TIP3    H223968   5.839   1.833   5.804
 8002TIP3   OH223969   0.232   5.840   5.145
 8002TIP3    H123970   0.221   5.765   5.203
 8002TIP3    H223971   0.183   5.818   5.067
 8003TIP3   OH223972   1.284   3.126   3.369
 8003TIP3    H123973   1.239   3.209   3.384
 8003TIP3    H223974   1.302   3.092   3.456
 8004TIP3   OH223975   3.492   0.954   1.962
 8004TIP3    H123976   3.510   0.993   1.876
 8004TIP3    H223977   3.489   1.028   2.022
 8005TIP3   OH223978   2.204   1.496   0.480
 8005TIP3    H123979   2.157   1.433   0.425
 8005TIP3    H223980   2.136   1.556   0.511
 8006TIP3   OH223981   1.406   1.204   2.646
 8006TIP3    H123982   1.357   1.208   2.564
 8006TIP3    H223983   1.485   1.256   2.628
 8007TIP3   OH223984   0.728   0.759   2.602
 8007TIP3    H123985   0.788   0.824   2.639
 8007TIP3    H223986   0.650   0.809   2.579
 8008TIP3   OH223987   4.891   4.171   3.499
 8008TIP3    H123988   4.939   4.191   3.580
 8008TIP3    H223989   4.908   4.246   3.442
 8009TIP3   OH223990   1.624   2.507   4.765
 8009TIP3    H123991   1.541   2.552   4.747
 8009TIP3    H223992   1.654   2.479   4.679
 8010TIP3   OH223993   3.579   0.130   0.992
 8010TIP3    H123994   3.619   0.043   0.998
 8010TIP3    H223995   3.522   0.136   1.069
 8011TIP3   OH223996   3.307   0.838   0.930
 8011TIP3    H123997   3.366   0.814   0.858
 8011TIP3    H223998   3.258   0.913   0.896
 8012TIP3   OH223999   5.695   1.074   2.282
 8012TIP3    H124000   5.725   1.163   2.265
 8012TIP3    H224001   5.677   1.038   2.195
 8013TIP3   OH224002   2.322   2.509   1.515
 8013TIP3    H124003   2.282   2.441   1.569
 8013TIP3    H224004   2.400   2.536   1.564
 8014TIP3   OH224005   6.068   0.620   1.461
 8014TIP3    H124006   6.161   0.616   1.440
 8014TIP3    H224007   6.023   0.602   1.379
 8015TIP3   OH224008   6.043   2.226   1.392
 8015TIP3    H124009   5.998   2.205   1.310
 8015TIP3    H224010   6.095   2.148   1.412
 8016TIP3   OH224011   4.175   0.571   0.834
 8016TIP3    H124012   4.117   0.499   0.811
 8016TIP3    H224013   4.229   0.537   0.905
 8017TIP3   OH224014   5.440   1.368   1.440
 8017TIP3    H124015   5.388   1.448   1.452
 8017TIP3    H224016   5.444   1.356   1.345
 8018TIP3   OH224017   4.373   0.438   2.239
 8018TIP3    H124018   4.395   0.497   2.311
 8018TIP3    H224019   4.451   0.383   2.227
 8019TIP3   OH224020   5.121   2.044   3.311
 8019TIP3    H124021   5.175   2.011   3.239
 8019TIP3    H224022   5.150   1.995   3.387
 8020TIP3   OH224023   6.193   5.236   0.534
 8020TIP3    H124024   6.161   5.265   0.448
 8020TIP3    H224025   6.114   5.205   0.580
 8021TIP3   OH224026   6.143   1.521   5.563
 8021TIP3    H124027   6.111   1.436   5.531
 8021TIP3    H224028   6.098   1.586   5.509
 8022TIP3   OH224029   2.549   4.074   4.647
 8022TIP3    H124030   2.504   4.151   4.611
 8022TIP3    H224031   2.478   4.013   4.667
 8023TIP3   OH224032   5.083   1.237   3.092
 8023TIP3    H124033   5.130   1.154   3.091
 8023TIP3    H224034   5.151   1.304   3.085
 8024TIP3   OH224035   0.404   5.023   5.240
 8024TIP3    H124036   0.433   5.099   5.290
 8024TIP3    H224037   0.450   5.030   5.156
 8025TIP3   OH224038   6.257   4.698   1.145
 8025TIP3    H124039   6.293   4.786   1.132
 8025TIP3    H224040   6.162   4.711   1.145
 8026TIP3   OH224041   0.896   3.402   3.091
 8026TIP3    H124042   0.961   3.331   3.088
 8026TIP3    H224043   0.875   3.418   2.999
 8027TIP3   OH224044   2.346   4.049   3.884
 8027TIP3    H124045   2.322   4.103   3.808
 8027TIP3    H224046   2.355   3.960   3.847
 8028TIP3   OH224047   0.743   2.643   2.794
 8028TIP3    H124048   0.741   2.737   2.808
 8028TIP3    H224049   0.712   2.631   2.705
 8029TIP3   OH224050   3.846   2.376   5.784
 8029TIP3    H124051   3.908   2.334   5.724
 8029TIP3    H224052   3.877   2.352   5.871
 8030TIP3   OH224053   0.327   4.170   1.833
 8030TIP3    H124054   0.266   4.244   1.835
 8030TIP3    H224055   0.303   4.117   1.909
 8031TIP3   OH224056   0.462   2.355   4.255
 8031TIP3    H124057   0.507   2.288   4.203
 8031TIP3    H224058   0.456   2.430   4.196
 8032TIP3   OH224059   1.682   6.298   5.711
 8032TIP3    H124060   1.724   6.384   5.716
 8032TIP3    H224061   1.595   6.313   5.748
 8033TIP3   OH224062   5.520   1.689   4.492
 8033TIP3    H124063   5.437   1.679   4.540
 8033TIP3    H224064   5.580   1.727   4.556
 8034TIP3   OH224065   2.335   3.053   3.691
 8034TIP3    H124066   2.375   3.059   3.604
 8034TIP3    H224067   2.394   2.997   3.741
 8035TIP3   OH224068   1.434   3.638   5.403
 8035TIP3    H124069   1.507   3.601   5.353
 8035TIP3    H224070   1.390   3.561   5.441
 8036TIP3   OH224071   1.521   3.210   5.208
 8036TIP3    H124072   1.477   3.292   5.231
 8036TIP3    H224073   1.451   3.145   5.202
 8037TIP3   OH224074   5.028   5.100   3.878
 8037TIP3    H124075   5.069   5.054   3.805
 8037TIP3    H224076   4.952   5.048   3.900
 8038TIP3   OH224077   4.079   1.284   4.191
 8038TIP3    H124078   4.096   1.371   4.155
 8038TIP3    H224079   4.166   1.243   4.197
 8039TIP3   OH224080   4.942   2.596   3.756
 8039TIP3    H124081   4.984   2.608   3.671
 8039TIP3    H224082   4.993   2.649   3.817
 8040TIP3   OH224083   3.582   6.071   1.257
 8040TIP3    H124084   3.587   6.034   1.346
 8040TIP3    H224085   3.489   6.093   1.246
 8041TIP3   OH224086   2.546   4.506   0.873
 8041TIP3    H124087   2.494   4.586   0.879
 8041TIP3    H224088   2.518   4.454   0.949
 8042TIP3   OH224089   5.805   2.897   0.986
 8042TIP3    H124090   5.736   2.931   1.043
 8042TIP3    H224091   5.758   2.867   0.908
 8043TIP3   OH224092   6.215   6.673   1.555
 8043TIP3    H124093   6.238   6.629   1.473
 8043TIP3    H224094   6.221   6.604   1.621
 8044TIP3   OH224095   0.004   4.227   1.761
 8044TIP3    H124096  -0.034   4.302   1.716
 8044TIP3    H224097   0.059   4.265   1.829
 8045TIP3   OH224098   7.150   0.922   5.334
 8045TIP3    H124099   7.164   1.017   5.331
 8045TIP3    H224100   7.214   0.886   5.273
 8046TIP3   OH224101   6.393   3.082   5.334
 8046TIP3    H124102   6.473   3.093   5.385
 8046TIP3    H224103   6.392   3.157   5.274
 8047TIP3   OH224104   1.276   6.644   3.052
 8047TIP3    H124105   1.237   6.571   3.004
 8047TIP3    H224106   1.369   6.622   3.059
 8048TIP3   OH224107   1.960   2.371   4.875
 8048TIP3    H124108   1.911   2.427   4.935
 8048TIP3    H224109   1.909   2.289   4.872
 8049TIP3   OH224110   4.402   3.264   2.185
 8049TIP3    H124111   4.327   3.288   2.131
 8049TIP3    H224112   4.478   3.299   2.137
 8050TIP3   OH224113   6.749   2.198   1.695
 8050TIP3    H124114   6.748   2.133   1.765
 8050TIP3    H224115   6.659   2.232   1.693
 8051TIP3   OH224116   1.461   3.037   2.307
 8051TIP3    H124117   1.452   2.944   2.329
 8051TIP3    H224118   1.539   3.065   2.355
 8052TIP3   OH224119   5.226   0.777   3.680
 8052TIP3    H124120   5.308   0.793   3.634
 8052TIP3    H224121   5.165   0.842   3.643
 8053TIP3   OH224122   5.171   0.614   3.959
 8053TIP3    H124123   5.205   0.689   4.008
 8053TIP3    H224124   5.172   0.542   4.022
 8054TIP3   OH224125   2.887   5.148   2.197
 8054TIP3    H124126   2.953   5.082   2.172
 8054TIP3    H224127   2.832   5.157   2.120
 8055TIP3   OH224128   1.474   5.242   3.920
 8055TIP3    H124129   1.550   5.204   3.878
 8055TIP3    H224130   1.413   5.260   3.849
 8056TIP3   OH224131   3.373   6.255   3.520
 8056TIP3    H124132   3.383   6.351   3.525
 8056TIP3    H224133   3.294   6.242   3.467
 8057TIP3   OH224134   4.185   5.580   2.096
 8057TIP3    H124135   4.253   5.561   2.032
 8057TIP3    H224136   4.103   5.578   2.046
 8058TIP3   OH224137   1.516   2.201   4.479
 8058TIP3    H124138   1.571   2.171   4.552
 8058TIP3    H224139   1.468   2.122   4.452
 8059TIP3   OH224140   0.602   0.294   2.226
 8059TIP3    H124141   0.512   0.262   2.212
 8059TIP3    H224142   0.593   0.360   2.295
 8060TIP3   OH224143   6.167   4.402   5.415
 8060TIP3    H124144   6.132   4.491   5.409
 8060TIP3    H224145   6.178   4.388   5.510
 8061TIP3   OH224146   1.047   0.786   4.337
 8061TIP3    H124147   1.005   0.857   4.385
 8061TIP3    H224148   1.135   0.782   4.372
 8062TIP3   OH224149   3.113   0.501   5.174
 8062TIP3    H124150   3.089   0.531   5.087
 8062TIP3    H224151   3.072   0.564   5.234
 8063TIP3   OH224152   6.511   2.984   4.064
 8063TIP3    H124153   6.459   2.932   4.125
 8063TIP3    H224154   6.470   2.971   3.979
 8064TIP3   OH224155   6.367   2.542   2.643
 8064TIP3    H124156   6.387   2.534   2.550
 8064TIP3    H224157   6.418   2.617   2.673
 8065TIP3   OH224158   4.698   2.368   5.032
 8065TIP3    H124159   4.655   2.287   5.004
 8065TIP3    H224160   4.627   2.427   5.055
 8066TIP3   OH224161   3.899   5.685   2.317
 8066TIP3    H124162   3.905   5.773   2.279
 8066TIP3    H224163   3.987   5.669   2.352
 8067TIP3   OH224164   4.507   2.268   3.387
 8067TIP3    H124165   4.571   2.338   3.378
 8067TIP3    H224166   4.542   2.211   3.456
 8068TIP3   OH224167   4.042   6.094   2.414
 8068TIP3    H124168   4.060   6.181   2.379
 8068TIP3    H224169   4.061   6.034   2.341
 8069TIP3   OH224170   5.905   2.911   1.484
 8069TIP3    H124171   5.935   2.964   1.558
 8069TIP3    H224172   5.985   2.869   1.452
 8070TIP3   OH224173   5.721   0.238   5.518
 8070TIP3    H124174   5.710   0.324   5.559
 8070TIP3    H224175   5.775   0.189   5.579
 8071TIP3   OH224176   0.211   6.756   1.829
 8071TIP3    H124177   0.305   6.742   1.842
 8071TIP3    H224178   0.205   6.814   1.753
 8072TIP3   OH224179   3.244   6.304   4.567
 8072TIP3    H124180   3.226   6.255   4.487
 8072TIP3    H224181   3.331   6.275   4.594
 8073TIP3   OH224182   4.702   4.692   2.791
 8073TIP3    H124183   4.772   4.757   2.789
 8073TIP3    H224184   4.726   4.632   2.861
 8074TIP3   OH224185   5.394   1.202   2.030
 8074TIP3    H124186   5.367   1.187   2.121
 8074TIP3    H224187   5.443   1.284   2.033
 8075TIP3   OH224188   4.460   6.660   2.794
 8075TIP3    H124189   4.504   6.645   2.878
 8075TIP3    H224190   4.376   6.617   2.804
 8076TIP3   OH224191   0.689   4.584   1.143
 8076TIP3    H124192   0.784   4.572   1.133
 8076TIP3    H224193   0.651   4.511   1.094
 8077TIP3   OH224194   6.949   0.650   3.587
 8077TIP3    H124195   6.917   0.680   3.672
 8077TIP3    H224196   6.906   0.707   3.524
 8078TIP3   OH224197   0.269   2.881   4.701
 8078TIP3    H124198   0.306   2.800   4.738
 8078TIP3    H224199   0.236   2.929   4.777
 8079TIP3   OH224200   1.923   4.879   1.123
 8079TIP3    H124201   1.874   4.935   1.184
 8079TIP3    H224202   1.945   4.802   1.176
 8080TIP3   OH224203   1.909   0.372   4.177
 8080TIP3    H124204   1.814   0.386   4.175
 8080TIP3    H224205   1.931   0.375   4.270
 8081TIP3   OH224206   3.530   2.936   1.932
 8081TIP3    H124207   3.482   2.913   1.853
 8081TIP3    H224208   3.463   2.949   1.999
 8082TIP3   OH224209   4.162   6.772   1.268
 8082TIP3    H124210   4.220   6.736   1.335
 8082TIP3    H224211   4.140   6.697   1.213
 8083TIP3   OH224212   0.180   0.218   3.026
 8083TIP3    H124213   0.237   0.226   3.103
 8083TIP3    H224214   0.240   0.198   2.954
 8084TIP3   OH224215   3.704   4.922   3.548
 8084TIP3    H124216   3.627   4.974   3.571
 8084TIP3    H224217   3.714   4.861   3.621
 8085TIP3   OH224218   2.615   6.502   5.877
 8085TIP3    H124219   2.547   6.448   5.916
 8085TIP3    H224220   2.692   6.444   5.872
 8086TIP3   OH224221   5.025   3.729   5.510
 8086TIP3    H124222   4.950   3.749   5.454
 8086TIP3    H224223   5.068   3.655   5.467
 8087TIP3   OH224224   5.798   1.162   3.632
 8087TIP3    H124225   5.820   1.242   3.585
 8087TIP3    H224226   5.707   1.174   3.660
 8088TIP3   OH224227   2.455   2.542   4.221
 8088TIP3    H124228   2.363   2.568   4.216
 8088TIP3    H224229   2.453   2.447   4.226
 8089TIP3   OH224230   2.743   1.650   0.044
 8089TIP3    H124231   2.693   1.662   0.125
 8089TIP3    H224232   2.689   1.591  -0.009
 8090TIP3   OH224233   2.543   4.432   0.356
 8090TIP3    H124234   2.590   4.501   0.309
 8090TIP3    H224235   2.610   4.391   0.411
 8091TIP3   OH224236   4.949   2.381   4.926
 8091TIP3    H124237   4.856   2.373   4.947
 8091TIP3    H224238   4.994   2.355   5.006
 8092TIP3   OH224239   6.440   6.224   3.761
 8092TIP3    H124240   6.482   6.300   3.801
 8092TIP3    H224241   6.496   6.150   3.785
 8093TIP3   OH224242   4.338   5.941   1.128
 8093TIP3    H124243   4.424   5.976   1.103
 8093TIP3    H224244   4.281   6.017   1.132
 8094TIP3   OH224245   3.250   4.474   2.209
 8094TIP3    H124246   3.232   4.551   2.154
 8094TIP3    H224247   3.342   4.455   2.194
 8095TIP3   OH224248   6.042   6.545   2.473
 8095TIP3    H124249   6.121   6.595   2.489
 8095TIP3    H224250   6.000   6.588   2.399
 8096TIP3   OH224251   6.753   1.023   2.167
 8096TIP3    H124252   6.770   1.113   2.139
 8096TIP3    H224253   6.801   0.969   2.104
 8097TIP3   OH224254   4.045   0.869   4.248
 8097TIP3    H124255   4.097   0.901   4.174
 8097TIP3    H224256   4.023   0.779   4.225
 8098TIP3   OH224257   5.381   1.229   5.212
 8098TIP3    H124258   5.319   1.257   5.279
 8098TIP3    H224259   5.426   1.309   5.186
 8099TIP3   OH224260   0.539   0.142   3.044
 8099TIP3    H124261   0.495   0.172   2.964
 8099TIP3    H224262   0.559   0.050   3.027
 8100TIP3   OH224263   4.156   0.013   0.886
 8100TIP3    H124264   4.164  -0.019   0.796
 8100TIP3    H224265   4.062   0.015   0.902
 8101TIP3   OH224266   5.825   4.105   4.976
 8101TIP3    H124267   5.844   4.028   4.921
 8101TIP3    H224268   5.878   4.175   4.938
 8102TIP3   OH224269   1.177   0.061   2.398
 8102TIP3    H124270   1.192   0.047   2.305
 8102TIP3    H224271   1.086   0.034   2.412
 8103TIP3   OH224272   3.713   6.113   5.184
 8103TIP3    H124273   3.743   6.023   5.200
 8103TIP3    H224274   3.668   6.139   5.264
 8104TIP3   OH224275   5.914   2.205   1.159
 8104TIP3    H124276   5.901   2.194   1.065
 8104TIP3    H224277   5.828   2.233   1.192
 8105TIP3   OH224278   2.823   0.215   0.356
 8105TIP3    H124279   2.775   0.238   0.276
 8105TIP3    H224280   2.891   0.282   0.363
 8106TIP3   OH224281   3.665   4.559   0.349
 8106TIP3    H124282   3.598   4.500   0.384
 8106TIP3    H224283   3.618   4.641   0.333
 8107TIP3   OH224284   1.807   3.989   4.245
 8107TIP3    H124285   1.874   3.923   4.264
 8107TIP3    H224286   1.845   4.072   4.276
 8108TIP3   OH224287   2.730   1.099   3.426
 8108TIP3    H124288   2.726   1.006   3.450
 8108TIP3    H224289   2.810   1.107   3.374
 8109TIP3   OH224290   0.062   0.149   5.671
 8109TIP3    H124291   0.105   0.068   5.642
 8109TIP3    H224292   0.082   0.153   5.765
 8110TIP3   OH224293   1.277   4.499   5.386
 8110TIP3    H124294   1.363   4.522   5.350
 8110TIP3    H224295   1.234   4.452   5.314
 8111TIP3   OH224296   1.557   0.934   1.211
 8111TIP3    H124297   1.498   0.960   1.282
 8111TIP3    H224298   1.517   0.855   1.175
 8112TIP3   OH224299   1.639   5.618   2.935
 8112TIP3    H124300   1.682   5.704   2.929
 8112TIP3    H224301   1.552   5.638   2.970
 8113TIP3   OH224302   0.765   1.698   5.650
 8113TIP3    H124303   0.771   1.791   5.629
 8113TIP3    H224304   0.718   1.660   5.576
 8114TIP3   OH224305   3.094   1.070   0.249
 8114TIP3    H124306   3.075   1.016   0.325
 8114TIP3    H224307   3.023   1.134   0.247
 8115TIP3   OH224308   4.374   3.457   5.159
 8115TIP3    H124309   4.391   3.527   5.095
 8115TIP3    H224310   4.450   3.400   5.153
 8116TIP3   OH224311   7.157   0.924   2.882
 8116TIP3    H124312   7.153   0.876   2.965
 8116TIP3    H224313   7.230   0.985   2.893
 8117TIP3   OH224314   4.229   4.266   3.269
 8117TIP3    H124315   4.230   4.284   3.363
 8117TIP3    H224316   4.235   4.170   3.263
 8118TIP3   OH224317   3.045   0.230   4.395
 8118TIP3    H124318   3.080   0.167   4.458
 8118TIP3    H224319   3.102   0.306   4.403
 8119TIP3   OH224320   5.169   2.155   2.025
 8119TIP3    H124321   5.126   2.116   2.101
 8119TIP3    H224322   5.252   2.188   2.058
 8120TIP3   OH224323   4.741   5.079   5.451
 8120TIP3    H124324   4.745   5.027   5.371
 8120TIP3    H224325   4.763   5.168   5.423
 8121TIP3   OH224326   3.128   3.754   0.766
 8121TIP3    H124327   3.040   3.719   0.784
 8121TIP3    H224328   3.112   3.835   0.717
 8122TIP3   OH224329   5.148   6.326   0.592
 8122TIP3    H124330   5.109   6.353   0.676
 8122TIP3    H224331   5.178   6.237   0.607
 8123TIP3   OH224332   7.095   2.530   2.960
 8123TIP3    H124333   7.189   2.518   2.948
 8123TIP3    H224334   7.066   2.450   3.004
 8124TIP3   OH224335   4.706   5.294   4.669
 8124TIP3    H124336   4.739   5.309   4.757
 8124TIP3    H224337   4.620   5.253   4.682
 8125TIP3   OH224338   3.178   1.273   0.653
 8125TIP3    H124339   3.119   1.199   0.668
 8125TIP3    H224340   3.120   1.349   0.646
 8126TIP3   OH224341   4.153   3.288   0.646
 8126TIP3    H124342   4.206   3.367   0.659
 8126TIP3    H224343   4.074   3.303   0.698
 8127TIP3   OH224344   4.414   2.805   1.832
 8127TIP3    H124345   4.462   2.886   1.844
 8127TIP3    H224346   4.450   2.746   1.898
 8128TIP3   OH224347   5.728   0.891   0.082
 8128TIP3    H124348   5.783   0.848   0.148
 8128TIP3    H224349   5.751   0.847   0.000
 8129TIP3   OH224350   6.379   6.610   3.597
 8129TIP3    H124351   6.308   6.601   3.659
 8129TIP3    H224352   6.336   6.628   3.513
 8130TIP3   OH224353   3.127   6.388   1.607
 8130TIP3    H124354   3.059   6.407   1.542
 8130TIP3    H224355   3.174   6.313   1.571
 8131TIP3   OH224356   3.003   4.556   0.959
 8131TIP3    H124357   3.020   4.535   0.867
 8131TIP3    H224358   2.922   4.608   0.956
 8132TIP3   OH224359   2.877   2.228   3.156
 8132TIP3    H124360   2.824   2.156   3.189
 8132TIP3    H224361   2.967   2.198   3.164
 8133TIP3   OH224362   5.630   5.539   3.075
 8133TIP3    H124363   5.600   5.473   3.012
 8133TIP3    H224364   5.584   5.517   3.156
 8134TIP3   OH224365   0.636   6.690   2.777
 8134TIP3    H124366   0.565   6.704   2.840
 8134TIP3    H224367   0.602   6.624   2.716
 8135TIP3   OH224368   5.070   4.341   1.331
 8135TIP3    H124369   5.142   4.404   1.322
 8135TIP3    H224370   5.007   4.384   1.388
 8136TIP3   OH224371   3.682   1.852   5.414
 8136TIP3    H124372   3.647   1.763   5.413
 8136TIP3    H224373   3.773   1.842   5.384
 8137TIP3   OH224374   2.430   4.907   3.406
 8137TIP3    H124375   2.377   4.827   3.407
 8137TIP3    H224376   2.434   4.933   3.314
 8138TIP3   OH224377   1.666   2.510   4.501
 8138TIP3    H124378   1.744   2.456   4.490
 8138TIP3    H224379   1.610   2.486   4.426
 8139TIP3   OH224380   4.217   5.861   4.387
 8139TIP3    H124381   4.161   5.801   4.338
 8139TIP3    H224382   4.162   5.892   4.459
 8140TIP3   OH224383   6.519   6.587   5.493
 8140TIP3    H124384   6.536   6.551   5.406
 8140TIP3    H224385   6.524   6.512   5.552
 8141TIP3   OH224386   3.543   1.073   3.970
 8141TIP3    H124387   3.581   1.008   4.028
 8141TIP3    H224388   3.606   1.082   3.899
 8142TIP3   OH224389   2.665   3.757   0.178
 8142TIP3    H124390   2.726   3.807   0.123
 8142TIP3    H224391   2.655   3.810   0.257
 8143TIP3   OH224392   4.793   3.883   0.468
 8143TIP3    H124393   4.866   3.885   0.407
 8143TIP3    H224394   4.805   3.801   0.516
 8144TIP3   OH224395   7.057   2.196   1.407
 8144TIP3    H124396   7.091   2.173   1.494
 8144TIP3    H224397   6.968   2.160   1.407
 8145TIP3   OH224398   3.863   0.113   1.990
 8145TIP3    H124399   3.844   0.152   1.905
 8145TIP3    H224400   3.845   0.020   1.978
 8146TIP3   OH224401   7.056   3.045   3.499
 8146TIP3    H124402   7.039   3.042   3.405
 8146TIP3    H224403   6.998   3.113   3.532
 8147TIP3   OH224404   4.083   0.487   1.899
 8147TIP3    H124405   4.024   0.411   1.905
 8147TIP3    H224406   4.162   0.452   1.859
 8148TIP3   OH224407  -0.009   4.406   5.780
 8148TIP3    H124408  -0.055   4.432   5.860
 8148TIP3    H224409   0.072   4.456   5.782
 8149TIP3   OH224410   0.944   0.459   5.251
 8149TIP3    H124411   0.955   0.389   5.316
 8149TIP3    H224412   0.850   0.466   5.238
 8150TIP3   OH224413   4.009   2.527   1.804
 8150TIP3    H124414   4.009   2.555   1.896
 8150TIP3    H224415   4.049   2.600   1.757
 8151TIP3   OH224416   2.538   5.947   3.791
 8151TIP3    H124417   2.449   5.976   3.811
 8151TIP3    H224418   2.526   5.872   3.733
 8152TIP3   OH224419   6.002   6.444   0.282
 8152TIP3    H124420   5.940   6.390   0.233
 8152TIP3    H224421   6.034   6.508   0.219
 8153TIP3   OH224422   5.182   2.817   3.896
 8153TIP3    H124423   5.190   2.845   3.805
 8153TIP3    H224424   5.156   2.895   3.944
 8154TIP3   OH224425   4.376   4.346   5.633
 8154TIP3    H124426   4.302   4.286   5.638
 8154TIP3    H224427   4.427   4.316   5.558
 8155TIP3   OH224428   1.085   3.607   3.070
 8155TIP3    H124429   1.053   3.520   3.095
 8155TIP3    H224430   1.154   3.590   3.007
 8156TIP3   OH224431   0.442   4.654   3.785
 8156TIP3    H124432   0.369   4.644   3.724
 8156TIP3    H224433   0.517   4.673   3.728
 8157TIP3   OH224434   0.404   5.525   3.880
 8157TIP3    H124435   0.470   5.494   3.819
 8157TIP3    H224436   0.422   5.619   3.889
 8158TIP3   OH224437   7.031   2.636   4.007
 8158TIP3    H124438   7.125   2.652   4.008
 8158TIP3    H224439   7.019   2.563   3.946
 8159TIP3   OH224440   1.026   5.172   4.688
 8159TIP3    H124441   1.107   5.146   4.643
 8159TIP3    H224442   0.957   5.154   4.623
 8160TIP3   OH224443   1.867   4.790   3.881
 8160TIP3    H124444   1.938   4.729   3.860
 8160TIP3    H224445   1.909   4.875   3.888
 8161TIP3   OH224446   3.297   0.842   5.681
 8161TIP3    H124447   3.373   0.890   5.646
 8161TIP3    H224448   3.294   0.762   5.628
 8162TIP3   OH224449   6.751   6.077   4.668
 8162TIP3    H124450   6.846   6.076   4.659
 8162TIP3    H224451   6.735   6.045   4.757
 8163TIP3   OH224452   1.956   0.239   3.651
 8163TIP3    H124453   2.042   0.198   3.638
 8163TIP3    H224454   1.893   0.170   3.631
 8164TIP3   OH224455   6.625   3.912   1.995
 8164TIP3    H124456   6.583   3.861   1.925
 8164TIP3    H224457   6.594   3.871   2.076
 8165TIP3   OH224458   7.073   4.502   5.118
 8165TIP3    H124459   7.098   4.502   5.210
 8165TIP3    H224460   7.153   4.478   5.071
 8166TIP3   OH224461   3.282   4.990   1.959
 8166TIP3    H124462   3.188   5.001   1.969
 8166TIP3    H224463   3.303   4.914   2.013
 8167TIP3   OH224464   6.163   6.567   3.422
 8167TIP3    H124465   6.113   6.583   3.502
 8167TIP3    H224466   6.104   6.595   3.352
 8168TIP3   OH224467   6.333   1.691   4.734
 8168TIP3    H124468   6.379   1.700   4.817
 8168TIP3    H224469   6.364   1.608   4.697
 8169TIP3   OH224470   3.049   5.043   4.011
 8169TIP3    H124471   3.026   4.951   4.020
 8169TIP3    H224472   3.041   5.080   4.099
 8170TIP3   OH224473   4.951   2.305   5.184
 8170TIP3    H124474   4.861   2.334   5.170
 8170TIP3    H224475   4.945   2.244   5.257
 8171TIP3   OH224476   0.466   1.315   2.020
 8171TIP3    H124477   0.426   1.362   2.093
 8171TIP3    H224478   0.553   1.290   2.053
 8172TIP3   OH224479   4.272   0.394   1.711
 8172TIP3    H124480   4.344   0.365   1.655
 8172TIP3    H224481   4.207   0.430   1.650
 8173TIP3   OH224482   5.668   5.009   2.331
 8173TIP3    H124483   5.694   4.919   2.349
 8173TIP3    H224484   5.663   5.051   2.417
 8174TIP3   OH224485   0.983   2.322   1.653
 8174TIP3    H124486   1.015   2.250   1.598
 8174TIP3    H224487   1.063   2.362   1.688
 8175TIP3   OH224488   0.603   0.422   0.062
 8175TIP3    H124489   0.634   0.337   0.030
 8175TIP3    H224490   0.620   0.419   0.156
 8176TIP3   OH224491   6.058   6.296   3.532
 8176TIP3    H124492   6.081   6.283   3.624
 8176TIP3    H224493   6.139   6.328   3.492
 8177TIP3   OH224494   1.293   3.589   2.887
 8177TIP3    H124495   1.242   3.634   2.821
 8177TIP3    H224496   1.292   3.497   2.859
 8178TIP3   OH224497   2.797   6.445   3.833
 8178TIP3    H124498   2.801   6.532   3.873
 8178TIP3    H224499   2.733   6.397   3.886
 8179TIP3   OH224500   4.836   5.639   1.923
 8179TIP3    H124501   4.874   5.556   1.895
 8179TIP3    H224502   4.743   5.621   1.932
 8180TIP3   OH224503   6.349   1.234   1.988
 8180TIP3    H124504   6.267   1.192   2.014
 8180TIP3    H224505   6.411   1.208   2.056
 8181TIP3   OH224506   5.616   4.350   4.513
 8181TIP3    H124507   5.590   4.422   4.570
 8181TIP3    H224508   5.537   4.297   4.504
 8182TIP3   OH224509   6.708   5.890   2.709
 8182TIP3    H124510   6.685   5.920   2.797
 8182TIP3    H224511   6.627   5.896   2.659
 8183TIP3   OH224512   5.098   0.056   4.609
 8183TIP3    H124513   5.033   0.016   4.667
 8183TIP3    H224514   5.178   0.060   4.662
 8184TIP3   OH224515   0.648   4.296   1.935
 8184TIP3    H124516   0.711   4.226   1.916
 8184TIP3    H224517   0.577   4.251   1.981
 8185TIP3   OH224518   2.368   3.000   0.284
 8185TIP3    H124519   2.309   2.985   0.357
 8185TIP3    H224520   2.316   2.981   0.206
 8186TIP3   OH224521   1.475   2.276   3.324
 8186TIP3    H124522   1.494   2.225   3.245
 8186TIP3    H224523   1.429   2.353   3.292
 8187TIP3   OH224524   5.107   4.154   0.097
 8187TIP3    H124525   5.175   4.114   0.152
 8187TIP3    H224526   5.149   4.165   0.011
 8188TIP3   OH224527   3.954   4.438   3.563
 8188TIP3    H124528   3.901   4.359   3.563
 8188TIP3    H224529   3.904   4.500   3.618
 8189TIP3   OH224530   4.297   5.355   1.767
 8189TIP3    H124531   4.221   5.386   1.717
 8189TIP3    H224532   4.260   5.294   1.831
 8190TIP3   OH224533   5.491   1.492   3.050
 8190TIP3    H124534   5.444   1.482   2.968
 8190TIP3    H224535   5.583   1.473   3.028
 8191TIP3   OH224536   4.932   1.020   2.498
 8191TIP3    H124537   5.020   1.026   2.535
 8191TIP3    H224538   4.919   0.926   2.482
 8192TIP3   OH224539   5.416   2.733   0.737
 8192TIP3    H124540   5.412   2.791   0.661
 8192TIP3    H224541   5.334   2.747   0.783
 8193TIP3   OH224542   5.556   2.866   4.023
 8193TIP3    H124543   5.638   2.867   3.974
 8193TIP3    H224544   5.509   2.944   3.993
 8194TIP3   OH224545   3.399   1.371   5.835
 8194TIP3    H124546   3.453   1.370   5.914
 8194TIP3    H224547   3.316   1.331   5.862
 8195TIP3   OH224548   1.812   1.885   2.092
 8195TIP3    H124549   1.743   1.918   2.035
 8195TIP3    H224550   1.877   1.955   2.093
 8196TIP3   OH224551   0.935   3.756   1.464
 8196TIP3    H124552   0.859   3.740   1.408
 8196TIP3    H224553   0.949   3.851   1.458
 8197TIP3   OH224554   1.021   1.658   2.810
 8197TIP3    H124555   0.941   1.668   2.760
 8197TIP3    H224556   0.999   1.595   2.879
 8198TIP3   OH224557   2.645   3.777   3.014
 8198TIP3    H124558   2.622   3.691   3.050
 8198TIP3    H224559   2.733   3.766   2.979
 8199TIP3   OH224560   3.953   6.348   2.381
 8199TIP3    H124561   3.880   6.383   2.331
 8199TIP3    H224562   4.022   6.334   2.317
 8200TIP3   OH224563   3.831   4.463   5.688
 8200TIP3    H124564   3.914   4.512   5.685
 8200TIP3    H224565   3.858   4.372   5.699
 8201TIP3   OH224566   2.718   5.017   4.213
 8201TIP3    H124567   2.627   5.006   4.240
 8201TIP3    H224568   2.715   5.018   4.117
 8202TIP3   OH224569   0.271   0.965   4.393
 8202TIP3    H124570   0.290   0.998   4.306
 8202TIP3    H224571   0.324   0.886   4.401
 8203TIP3   OH224572   1.195   2.084   4.239
 8203TIP3    H124573   1.144   2.155   4.199
 8203TIP3    H224574   1.285   2.100   4.209
 8204TIP3   OH224575   0.930   3.356   3.640
 8204TIP3    H124576   0.849   3.334   3.686
 8204TIP3    H224577   0.903   3.423   3.576
 8205TIP3   OH224578   3.923   1.010   3.076
 8205TIP3    H124579   3.986   0.961   3.129
 8205TIP3    H224580   3.960   1.009   2.988
 8206TIP3   OH224581   1.911   6.462   2.381
 8206TIP3    H124582   1.944   6.435   2.466
 8206TIP3    H224583   1.815   6.462   2.391
 8207TIP3   OH224584   6.504   4.902   5.236
 8207TIP3    H124585   6.457   4.904   5.152
 8207TIP3    H224586   6.450   4.847   5.292
 8208TIP3   OH224587   6.562   2.417   3.093
 8208TIP3    H124588   6.500   2.383   3.029
 8208TIP3    H224589   6.570   2.510   3.073
 8209TIP3   OH224590   6.763   1.553   1.346
 8209TIP3    H124591   6.818   1.487   1.304
 8209TIP3    H224592   6.806   1.636   1.324
 8210TIP3   OH224593   4.774   5.256   2.432
 8210TIP3    H124594   4.783   5.341   2.389
 8210TIP3    H224595   4.748   5.278   2.522
 8211TIP3   OH224596   2.031   1.421   4.565
 8211TIP3    H124597   1.995   1.461   4.486
 8211TIP3    H224598   2.121   1.397   4.540
 8212TIP3   OH224599   0.488   2.809   5.360
 8212TIP3    H124600   0.546   2.740   5.327
 8212TIP3    H224601   0.509   2.886   5.307
 8213TIP3   OH224602   1.051   2.250   0.080
 8213TIP3    H124603   1.117   2.320   0.082
 8213TIP3    H224604   1.063   2.203   0.162
 8214TIP3   OH224605   4.468   5.588   3.971
 8214TIP3    H124606   4.457   5.682   3.985
 8214TIP3    H224607   4.456   5.576   3.877
 8215TIP3   OH224608   6.969   0.399   2.881
 8215TIP3    H124609   6.924   0.368   2.960
 8215TIP3    H224610   6.986   0.491   2.898
 8216TIP3   OH224611   5.562   6.649   2.991
 8216TIP3    H124612   5.593   6.726   3.040
 8216TIP3    H224613   5.609   6.653   2.908
 8217TIP3   OH224614   5.344   6.749   2.366
 8217TIP3    H124615   5.299   6.671   2.398
 8217TIP3    H224616   5.278   6.796   2.316
 8218TIP3   OH224617   3.699   6.144   0.821
 8218TIP3    H124618   3.630   6.102   0.770
 8218TIP3    H224619   3.729   6.217   0.766
 8219TIP3   OH224620   2.618   3.522   1.351
 8219TIP3    H124621   2.524   3.514   1.366
 8219TIP3    H224622   2.657   3.452   1.403
 8220TIP3   OH224623   4.725   5.603   4.365
 8220TIP3    H124624   4.682   5.631   4.283
 8220TIP3    H224625   4.701   5.671   4.428
 8221TIP3   OH224626   2.709   6.458   2.250
 8221TIP3    H124627   2.738   6.411   2.172
 8221TIP3    H224628   2.696   6.390   2.316
 8222TIP3   OH224629   6.583   1.681   4.116
 8222TIP3    H124630   6.581   1.677   4.021
 8222TIP3    H224631   6.621   1.766   4.137
 8223TIP3   OH224632   5.138   1.036   2.261
 8223TIP3    H124633   5.136   1.129   2.240
 8223TIP3    H224634   5.220   1.024   2.308
 8224TIP3   OH224635   4.229   4.103   5.629
 8224TIP3    H124636   4.288   4.042   5.586
 8224TIP3    H224637   4.163   4.124   5.563
 8225TIP3   OH224638   6.959   2.147   4.222
 8225TIP3    H124639   7.042   2.101   4.206
 8225TIP3    H224640   6.985   2.227   4.269
 8226TIP3   OH224641   6.868   4.722   0.037
 8226TIP3    H124642   6.944   4.775   0.063
 8226TIP3    H224643   6.812   4.722   0.115
 8227TIP3   OH224644   4.419   5.054   2.044
 8227TIP3    H124645   4.450   4.982   1.989
 8227TIP3    H224646   4.495   5.078   2.098
 8228TIP3   OH224647   2.351   4.443   1.739
 8228TIP3    H124648   2.343   4.510   1.806
 8228TIP3    H224649   2.273   4.388   1.750
 8229TIP3   OH224650   4.722   6.234   2.244
 8229TIP3    H124651   4.733   6.207   2.335
 8229TIP3    H224652   4.688   6.323   2.249
 8230TIP3   OH224653   3.609   3.384   0.253
 8230TIP3    H124654   3.680   3.446   0.237
 8230TIP3    H224655   3.625   3.313   0.191
 8231TIP3   OH224656   2.143   3.916   0.966
 8231TIP3    H124657   2.152   3.971   1.043
 8231TIP3    H224658   2.211   3.946   0.906
 8232TIP3   OH224659   4.809   3.408   5.329
 8232TIP3    H124660   4.865   3.427   5.404
 8232TIP3    H224661   4.863   3.427   5.252
 8233TIP3   OH224662   2.109   5.802   3.391
 8233TIP3    H124663   2.135   5.715   3.422
 8233TIP3    H224664   2.150   5.862   3.453
 8234TIP3   OH224665   4.423   6.457   4.563
 8234TIP3    H124666   4.369   6.380   4.545
 8234TIP3    H224667   4.395   6.522   4.499
 8235TIP3   OH224668   1.983   3.479   4.335
 8235TIP3    H124669   2.056   3.529   4.373
 8235TIP3    H224670   1.989   3.393   4.375
 8236TIP3   OH224671   0.037   5.527   2.696
 8236TIP3    H124672   0.008   5.486   2.778
 8236TIP3    H224673   0.129   5.547   2.711
 8237TIP3   OH224674   5.417   0.363   0.165
 8237TIP3    H124675   5.482   0.326   0.225
 8237TIP3    H224676   5.353   0.293   0.152
 8238TIP3   OH224677   2.914   0.976   3.686
 8238TIP3    H124678   2.874   0.933   3.762
 8238TIP3    H224679   2.852   0.962   3.615
 8239TIP3   OH224680   2.703   4.851   1.423
 8239TIP3    H124681   2.761   4.822   1.354
 8239TIP3    H224682   2.708   4.782   1.490
 8240TIP3   OH224683   5.384   4.563   0.441
 8240TIP3    H124684   5.292   4.550   0.460
 8240TIP3    H224685   5.400   4.514   0.361
 8241TIP3   OH224686   2.981   3.811   2.463
 8241TIP3    H124687   2.984   3.734   2.406
 8241TIP3    H224688   3.069   3.849   2.458
 8242TIP3   OH224689   1.769   3.278   4.959
 8242TIP3    H124690   1.706   3.226   4.909
 8242TIP3    H224691   1.737   3.368   4.952
 8243TIP3   OH224692   5.593   2.443   2.510
 8243TIP3    H124693   5.651   2.428   2.435
 8243TIP3    H224694   5.639   2.507   2.563
 8244TIP3   OH224695   4.793   1.158   1.535
 8244TIP3    H124696   4.868   1.130   1.587
 8244TIP3    H224697   4.790   1.097   1.462
 8245TIP3   OH224698   6.486   4.052   0.902
 8245TIP3    H124699   6.478   4.052   0.998
 8245TIP3    H224700   6.397   4.062   0.871
 8246TIP3   OH224701   6.743   2.419   3.928
 8246TIP3    H124702   6.808   2.349   3.922
 8246TIP3    H224703   6.680   2.388   3.992
 8247TIP3   OH224704   0.707   3.998   3.503
 8247TIP3    H124705   0.708   4.069   3.566
 8247TIP3    H224706   0.662   3.926   3.548
 8248TIP3   OH224707   1.569   6.303   2.958
 8248TIP3    H124708   1.646   6.334   3.005
 8248TIP3    H224709   1.567   6.209   2.971
 8249TIP3   OH224710   5.471   1.348   1.157
 8249TIP3    H124711   5.510   1.414   1.101
 8249TIP3    H224712   5.422   1.291   1.098
 8250TIP3   OH224713   3.632   2.069   1.088
 8250TIP3    H124714   3.646   1.981   1.053
 8250TIP3    H224715   3.703   2.080   1.152
 8251TIP3   OH224716   4.050   4.252   1.174
 8251TIP3    H124717   4.063   4.328   1.230
 8251TIP3    H224718   3.979   4.203   1.218
 8252TIP3   OH224719   4.711   2.334   1.168
 8252TIP3    H124720   4.633   2.382   1.139
 8252TIP3    H224721   4.733   2.277   1.094
 8253TIP3   OH224722   0.965   3.973   1.281
 8253TIP3    H124723   1.040   3.944   1.230
 8253TIP3    H224724   0.912   4.025   1.220
 8254TIP3   OH224725   2.156   4.602   1.947
 8254TIP3    H124726   2.164   4.531   2.011
 8254TIP3    H224727   2.062   4.605   1.926
 8255TIP3   OH224728   1.190   6.262   4.004
 8255TIP3    H124729   1.139   6.316   4.063
 8255TIP3    H224730   1.214   6.186   4.057
 8256TIP3   OH224731   3.712   0.608   2.835
 8256TIP3    H124732   3.729   0.531   2.781
 8256TIP3    H224733   3.782   0.607   2.900
 8257TIP3   OH224734   0.831   0.990   0.359
 8257TIP3    H124735   0.743   1.023   0.376
 8257TIP3    H224736   0.866   0.970   0.446
 8258TIP3   OH224737   6.038  -0.017   1.388
 8258TIP3    H124738   6.083   0.004   1.306
 8258TIP3    H224739   5.984   0.060   1.406
 8259TIP3   OH224740   5.493   0.200   3.110
 8259TIP3    H124741   5.439   0.265   3.156
 8259TIP3    H224742   5.560   0.176   3.174
 8260TIP3   OH224743   2.026   0.812   0.277
 8260TIP3    H124744   2.048   0.875   0.208
 8260TIP3    H224745   2.002   0.866   0.352
 8261TIP3   OH224746   2.950   1.428   1.995
 8261TIP3    H124747   2.975   1.510   2.038
 8261TIP3    H224748   2.977   1.438   1.904
 8262TIP3   OH224749   0.604   0.458   4.067
 8262TIP3    H124750   0.572   0.371   4.043
 8262TIP3    H224751   0.696   0.457   4.041
 8263TIP3   OH224752   5.271   3.579   5.038
 8263TIP3    H124753   5.282   3.658   4.987
 8263TIP3    H224754   5.360   3.556   5.066
 8264TIP3   OH224755   3.825   2.352   5.389
 8264TIP3    H124756   3.878   2.428   5.368
 8264TIP3    H224757   3.786   2.325   5.306
 8265TIP3   OH224758   6.122   1.674   1.071
 8265TIP3    H124759   6.155   1.701   0.985
 8265TIP3    H224760   6.049   1.733   1.088
 8266TIP3   OH224761   7.123   0.844   0.737
 8266TIP3    H124762   7.183   0.918   0.750
 8266TIP3    H224763   7.172   0.782   0.684
 8267TIP3   OH224764   1.654   3.900   1.830
 8267TIP3    H124765   1.565   3.864   1.828
 8267TIP3    H224766   1.662   3.940   1.917
 8268TIP3   OH224767   0.233   1.864   3.281
 8268TIP3    H124768   0.196   1.805   3.346
 8268TIP3    H224769   0.158   1.903   3.237
 8269TIP3   OH224770   2.824   0.719   4.073
 8269TIP3    H124771   2.735   0.754   4.074
 8269TIP3    H224772   2.817   0.638   4.024
 8270TIP3   OH224773   3.892   1.708   1.061
 8270TIP3    H124774   3.903   1.613   1.057
 8270TIP3    H224775   3.865   1.726   1.152
 8271TIP3   OH224776   0.936   1.783   2.366
 8271TIP3    H124777   0.907   1.769   2.276
 8271TIP3    H224778   0.919   1.700   2.410
 8272TIP3   OH224779   0.042   4.220   0.518
 8272TIP3    H124780   0.123   4.256   0.481
 8272TIP3    H224781   0.034   4.134   0.477
 8273TIP3   OH224782   5.138   4.567   4.837
 8273TIP3    H124783   5.217   4.554   4.786
 8273TIP3    H224784   5.081   4.493   4.816
 8274TIP3   OH224785   1.350   3.620   0.706
 8274TIP3    H124786   1.390   3.604   0.791
 8274TIP3    H224787   1.263   3.656   0.726
 8275TIP3   OH224788   0.454   5.514   2.549
 8275TIP3    H124789   0.542   5.544   2.525
 8275TIP3    H224790   0.468   5.458   2.625
 8276TIP3   OH224791   7.033   2.998   0.995
 8276TIP3    H124792   7.073   2.915   0.970
 8276TIP3    H224793   6.939   2.981   0.993
 8277TIP3   OH224794   5.946   4.430   1.154
 8277TIP3    H124795   5.985   4.363   1.097
 8277TIP3    H224796   5.857   4.440   1.120
 8278TIP3   OH224797   1.803   5.790   3.518
 8278TIP3    H124798   1.755   5.871   3.503
 8278TIP3    H224799   1.776   5.732   3.446
 8279TIP3   OH224800   2.374   5.484   1.509
 8279TIP3    H124801   2.336   5.402   1.540
 8279TIP3    H224802   2.421   5.460   1.429
 8280TIP3   OH224803   0.773   5.099   0.576
 8280TIP3    H124804   0.702   5.052   0.533
 8280TIP3    H224805   0.741   5.115   0.665
 8281TIP3   OH224806   4.625   1.295   0.714
 8281TIP3    H124807   4.584   1.333   0.637
 8281TIP3    H224808   4.668   1.215   0.682
 8282TIP3   OH224809   5.032   1.890   2.592
 8282TIP3    H124810   5.010   1.976   2.626
 8282TIP3    H224811   4.986   1.829   2.650
 8283TIP3   OH224812   3.360   4.737   1.542
 8283TIP3    H124813   3.445   4.747   1.584
 8283TIP3    H224814   3.358   4.646   1.512
 8284TIP3   OH224815   2.706   5.504   2.335
 8284TIP3    H124816   2.650   5.439   2.377
 8284TIP3    H224817   2.793   5.463   2.334
 8285TIP3   OH224818   6.905   5.992   0.861
 8285TIP3    H124819   6.922   5.920   0.801
 8285TIP3    H224820   6.875   5.950   0.941
 8286TIP3   OH224821   0.319   6.082   0.659
 8286TIP3    H124822   0.309   6.054   0.568
 8286TIP3    H224823   0.231   6.072   0.697
 8287TIP3   OH224824   5.053   6.028   3.774
 8287TIP3    H124825   4.985   5.979   3.726
 8287TIP3    H224826   5.135   5.985   3.750
 8288TIP3   OH224827   5.541   3.654   4.872
 8288TIP3    H124828   5.629   3.691   4.861
 8288TIP3    H224829   5.542   3.617   4.961
 8289TIP3   OH224830   7.078   1.420   3.375
 8289TIP3    H124831   7.164   1.405   3.414
 8289TIP3    H224832   7.087   1.390   3.284
 8290TIP3   OH224833   6.572   2.288   2.668
 8290TIP3    H124834   6.603   2.363   2.617
 8290TIP3    H224835   6.650   2.256   2.714
 8291TIP3   OH224836   0.423   3.680   3.299
 8291TIP3    H124837   0.500   3.737   3.299
 8291TIP3    H224838   0.394   3.679   3.390
 8292TIP3   OH224839   1.381   6.538   2.296
 8292TIP3    H124840   1.414   6.628   2.304
 8292TIP3    H224841   1.456   6.487   2.267
 8293TIP3   OH224842   3.067   2.753   0.626
 8293TIP3    H124843   3.027   2.669   0.601
 8293TIP3    H224844   3.151   2.728   0.665
 8294TIP3   OH224845   0.904   3.904   5.518
 8294TIP3    H124846   0.932   3.832   5.574
 8294TIP3    H224847   0.934   3.880   5.431
 8295TIP3   OH224848   2.106   1.204   4.699
 8295TIP3    H124849   2.061   1.282   4.667
 8295TIP3    H224850   2.191   1.204   4.653
 8296TIP3   OH224851   4.262   4.335   4.231
 8296TIP3    H124852   4.345   4.299   4.263
 8296TIP3    H224853   4.217   4.365   4.310
 8297TIP3   OH224854   1.608   3.400   1.936
 8297TIP3    H124855   1.667   3.475   1.941
 8297TIP3    H224856   1.616   3.358   2.022
 8298TIP3   OH224857   6.908   0.959   2.670
 8298TIP3    H124858   6.987   0.926   2.713
 8298TIP3    H224859   6.925   0.947   2.576
 8299TIP3   OH224860   5.418   5.208   5.824
 8299TIP3    H124861   5.420   5.300   5.850
 8299TIP3    H224862   5.451   5.207   5.734
 8300TIP3   OH224863   1.118   4.697   0.127
 8300TIP3    H124864   1.072   4.715   0.046
 8300TIP3    H224865   1.203   4.741   0.117
 8301TIP3   OH224866   4.119   0.025   5.364
 8301TIP3    H124867   4.179   0.083   5.317
 8301TIP3    H224868   4.137   0.043   5.457
 8302TIP3   OH224869   7.069   1.928   5.575
 8302TIP3    H124870   7.124   1.868   5.627
 8302TIP3    H224871   7.013   1.971   5.640
 8303TIP3   OH224872   2.959   6.707   5.882
 8303TIP3    H124873   3.007   6.774   5.835
 8303TIP3    H224874   2.933   6.644   5.815
 8304TIP3   OH224875   0.545   2.039   1.812
 8304TIP3    H124876   0.556   2.133   1.817
 8304TIP3    H224877   0.451   2.025   1.813
 8305TIP3   OH224878   3.299   1.979   4.849
 8305TIP3    H124879   3.264   1.897   4.813
 8305TIP3    H224880   3.328   1.956   4.937
 8306TIP3   OH224881   2.894   6.409   1.338
 8306TIP3    H124882   2.889   6.325   1.291
 8306TIP3    H224883   2.959   6.460   1.289
 8307TIP3   OH224884   5.998   3.111   2.627
 8307TIP3    H124885   5.911   3.076   2.647
 8307TIP3    H224886   6.056   3.035   2.629
 8308TIP3   OH224887   2.595   5.580   4.517
 8308TIP3    H124888   2.546   5.649   4.472
 8308TIP3    H224889   2.610   5.514   4.450
 8309TIP3   OH224890   6.472   2.954   0.171
 8309TIP3    H124891   6.455   2.912   0.255
 8309TIP3    H224892   6.387   2.991   0.145
 8310TIP3   OH224893   5.875   0.062   5.655
 8310TIP3    H124894   5.946   0.000   5.638
 8310TIP3    H224895   5.796   0.007   5.654
 8311TIP3   OH224896   0.539   0.415   3.450
 8311TIP3    H124897   0.522   0.436   3.358
 8311TIP3    H224898   0.584   0.331   3.447
 8312TIP3   OH224899   3.883   6.578   1.699
 8312TIP3    H124900   3.940   6.577   1.776
 8312TIP3    H224901   3.883   6.487   1.669
 8313TIP3   OH224902   6.305   6.284   4.160
 8313TIP3    H124903   6.231   6.238   4.119
 8313TIP3    H224904   6.360   6.214   4.194
 8314TIP3   OH224905   6.333   3.573   2.161
 8314TIP3    H124906   6.366   3.662   2.179
 8314TIP3    H224907   6.299   3.543   2.246
 8315TIP3   OH224908   2.222   2.701   2.176
 8315TIP3    H124909   2.314   2.727   2.181
 8315TIP3    H224910   2.213   2.661   2.089
 8316TIP3   OH224911   4.600   1.915   0.392
 8316TIP3    H124912   4.578   1.951   0.306
 8316TIP3    H224913   4.627   1.992   0.443
 8317TIP3   OH224914   6.334   2.236   4.503
 8317TIP3    H124915   6.405   2.179   4.534
 8317TIP3    H224916   6.269   2.175   4.467
 8318TIP3   OH224917   2.865   6.583   1.876
 8318TIP3    H124918   2.939   6.529   1.851
 8318TIP3    H224919   2.855   6.645   1.803
 8319TIP3   OH224920   5.760   2.116   0.609
 8319TIP3    H124921   5.667   2.113   0.633
 8319TIP3    H224922   5.764   2.066   0.527
 8320TIP3   OH224923   2.156   0.636   2.823
 8320TIP3    H124924   2.168   0.614   2.915
 8320TIP3    H224925   2.079   0.694   2.822
 8321TIP3   OH224926   2.464   3.022   3.062
 8321TIP3    H124927   2.415   3.048   3.140
 8321TIP3    H224928   2.490   3.105   3.021
 8322TIP3   OH224929   1.517   5.260   0.290
 8322TIP3    H124930   1.510   5.180   0.341
 8322TIP3    H224931   1.447   5.254   0.225
 8323TIP3   OH224932   4.781   0.903   4.326
 8323TIP3    H124933   4.759   0.996   4.338
 8323TIP3    H224934   4.712   0.869   4.270
 8324TIP3   OH224935   2.175   6.604   3.645
 8324TIP3    H124936   2.129   6.611   3.561
 8324TIP3    H224937   2.264   6.634   3.626
 8325TIP3   OH224938   3.358   4.255   4.949
 8325TIP3    H124939   3.288   4.191   4.966
 8325TIP3    H224940   3.322   4.338   4.978
 8326TIP3   OH224941   2.450   4.013   1.294
 8326TIP3    H124942   2.427   3.930   1.253
 8326TIP3    H224943   2.510   4.054   1.232
 8327TIP3   OH224944   4.183   2.569   0.503
 8327TIP3    H124945   4.197   2.610   0.418
 8327TIP3    H224946   4.184   2.642   0.565
 8328TIP3   OH224947   2.764   3.576   3.276
 8328TIP3    H124948   2.713   3.498   3.256
 8328TIP3    H224949   2.726   3.608   3.358
 8329TIP3   OH224950   2.149   4.390   2.759
 8329TIP3    H124951   2.172   4.321   2.821
 8329TIP3    H224952   2.120   4.344   2.681
 8330TIP3   OH224953   1.478   5.767   3.223
 8330TIP3    H124954   1.432   5.724   3.152
 8330TIP3    H224955   1.494   5.698   3.288
 8331TIP3   OH224956   1.575   4.018   0.755
 8331TIP3    H124957   1.559   3.927   0.729
 8331TIP3    H224958   1.642   4.049   0.694
 8332TIP3   OH224959   5.847   0.074   0.469
 8332TIP3    H124960   5.811  -0.002   0.513
 8332TIP3    H224961   5.903   0.038   0.401
 8333TIP3   OH224962   7.166   1.585   2.822
 8333TIP3    H124963   7.125   1.509   2.781
 8333TIP3    H224964   7.223   1.549   2.889
 8334TIP3   OH224965   3.915   2.980   0.899
 8334TIP3    H124966   3.992   2.961   0.844
 8334TIP3    H224967   3.842   2.942   0.851
 8335TIP3   OH224968   5.740   0.579   5.128
 8335TIP3    H124969   5.699   0.649   5.179
 8335TIP3    H224970   5.731   0.501   5.183
 8336TIP3   OH224971   4.858   0.684   5.722
 8336TIP3    H124972   4.886   0.616   5.783
 8336TIP3    H224973   4.792   0.733   5.770
 8337TIP3   OH224974   3.412   2.398   1.541
 8337TIP3    H124975   3.481   2.350   1.495
 8337TIP3    H224976   3.389   2.471   1.483
 8338TIP3   OH224977   3.109   3.268   0.239
 8338TIP3    H124978   3.077   3.310   0.159
 8338TIP3    H224979   3.188   3.318   0.262
 8339TIP3   OH224980   5.288   5.904   5.865
 8339TIP3    H124981   5.296   5.932   5.774
 8339TIP3    H224982   5.264   5.984   5.912
 8340TIP3   OH224983   3.776   6.343   3.747
 8340TIP3    H124984   3.723   6.296   3.682
 8340TIP3    H224985   3.860   6.298   3.746
 8341TIP3   OH224986   2.621   5.064   2.282
 8341TIP3    H124987   2.700   5.044   2.232
 8341TIP3    H224988   2.566   5.113   2.221
 8342TIP3   OH224989   1.505   0.924   0.183
 8342TIP3    H124990   1.548   0.989   0.238
 8342TIP3    H224991   1.412   0.944   0.189
 8343TIP3   OH224992   3.240   4.965   1.008
 8343TIP3    H124993   3.214   4.917   0.930
 8343TIP3    H224994   3.212   5.055   0.991
 8344TIP3   OH224995   5.659   3.187   0.220
 8344TIP3    H124996   5.714   3.262   0.241
 8344TIP3    H224997   5.645   3.195   0.125
 8345TIP3   OH224998   7.008   2.648   0.059
 8345TIP3    H124999   6.971   2.731   0.089
 8345TIP3    H225000   6.934   2.587   0.058
 8346TIP3   OH225001   2.280   0.370   0.682
 8346TIP3    H125002   2.323   0.338   0.762
 8346TIP3    H225003   2.206   0.310   0.670
 8347TIP3   OH225004   2.517   2.884   1.221
 8347TIP3    H125005   2.462   2.829   1.277
 8347TIP3    H225006   2.497   2.974   1.250
 8348TIP3   OH225007   6.208   3.554   1.917
 8348TIP3    H125008   6.256   3.630   1.881
 8348TIP3    H225009   6.248   3.539   2.003
 8349TIP3   OH225010   6.573   0.144   5.070
 8349TIP3    H125011   6.563   0.076   5.004
 8349TIP3    H225012   6.483   0.171   5.089
 8350TIP3   OH225013   1.609   0.123   1.402
 8350TIP3    H125014   1.702   0.126   1.378
 8350TIP3    H225015   1.574   0.207   1.372
 8351TIP3   OH225016   4.408   4.197   4.018
 8351TIP3    H125017   4.485   4.251   3.997
 8351TIP3    H225018   4.349   4.257   4.063
 8352TIP3   OH225019   1.995   0.477   0.035
 8352TIP3    H125020   2.053   0.410   0.070
 8352TIP3    H225021   2.045   0.518  -0.036
 8353TIP3   OH225022   5.956   4.343   4.878
 8353TIP3    H125023   5.919   4.417   4.926
 8353TIP3    H225024   5.925   4.355   4.788
 8354TIP3   OH225025   7.017   6.163   5.446
 8354TIP3    H125026   6.997   6.244   5.492
 8354TIP3    H225027   6.932   6.132   5.415
 8355TIP3   OH225028   0.539   4.617   3.047
 8355TIP3    H125029   0.493   4.565   2.981
 8355TIP3    H225030   0.630   4.621   3.016
 8356TIP3   OH225031   0.387   4.029   4.842
 8356TIP3    H125032   0.459   4.091   4.834
 8356TIP3    H225033   0.337   4.058   4.918
 8357TIP3   OH225034   3.539   2.961   1.347
 8357TIP3    H125035   3.465   2.918   1.304
 8357TIP3    H225036   3.581   2.891   1.397
 8358TIP3   OH225037   2.750   0.924   4.356
 8358TIP3    H125038   2.695   0.930   4.277
 8358TIP3    H225039   2.704   0.861   4.412
 8359TIP3   OH225040   5.257   0.270   0.722
 8359TIP3    H125041   5.210   0.301   0.645
 8359TIP3    H225042   5.276   0.178   0.704
 8360TIP3   OH225043   0.908  -0.002   2.422
 8360TIP3    H125044   0.825  -0.012   2.375
 8360TIP3    H225045   0.896   0.078   2.473
 8361TIP3   OH225046   6.577   0.977   5.569
 8361TIP3    H125047   6.587   1.070   5.547
 8361TIP3    H225048   6.485   0.968   5.594
 8362TIP3   OH225049   5.423   3.912   4.962
 8362TIP3    H125050   5.368   3.848   4.916
 8362TIP3    H225051   5.496   3.860   4.997
 8363TIP3   OH225052   0.033   3.821   4.642
 8363TIP3    H125053  -0.011   3.761   4.702
 8363TIP3    H225054   0.113   3.775   4.616
 8364TIP3   OH225055   4.964   6.685   3.243
 8364TIP3    H125056   4.977   6.761   3.301
 8364TIP3    H225057   5.044   6.681   3.191
 8365TIP3   OH225058   6.476   0.486   4.310
 8365TIP3    H125059   6.389   0.448   4.323
 8365TIP3    H225060   6.468   0.538   4.230
 8366TIP3   OH225061   4.813   1.167   2.287
 8366TIP3    H125062   4.831   1.102   2.355
 8366TIP3    H225063   4.899   1.203   2.264
 8367TIP3   OH225064   5.512   6.184   2.557
 8367TIP3    H125065   5.475   6.232   2.631
 8367TIP3    H225066   5.471   6.223   2.480
 8368TIP3   OH225067   0.405   6.630   3.549
 8368TIP3    H125068   0.500   6.631   3.557
 8368TIP3    H225069   0.374   6.694   3.614
 8369TIP3   OH225070   0.268   1.220   4.610
 8369TIP3    H125071   0.352   1.263   4.628
 8369TIP3    H225072   0.202   1.283   4.638
 8370TIP3   OH225073   1.010   5.006   4.405
 8370TIP3    H125074   1.001   4.961   4.321
 8370TIP3    H225075   0.948   5.078   4.401
 8371TIP3   OH225076   0.631   5.959   5.197
 8371TIP3    H125077   0.541   5.992   5.190
 8371TIP3    H225078   0.670   6.009   5.268
 8372TIP3   OH225079   3.520   4.832   4.507
 8372TIP3    H125080   3.445   4.885   4.479
 8372TIP3    H225081   3.481   4.754   4.546
 8373TIP3   OH225082   0.849   4.716   3.016
 8373TIP3    H125083   0.911   4.652   3.051
 8373TIP3    H225084   0.899   4.764   2.951
 8374TIP3   OH225085   3.117   2.655   1.340
 8374TIP3    H125086   3.105   2.563   1.318
 8374TIP3    H225087   3.028   2.690   1.347
 8375TIP3   OH225088   6.809   3.468   5.277
 8375TIP3    H125089   6.854   3.532   5.222
 8375TIP3    H225090   6.759   3.520   5.340
 8376TIP3   OH225091   5.324   6.602   2.716
 8376TIP3    H125092   5.348   6.677   2.662
 8376TIP3    H225093   5.250   6.633   2.769
 8377TIP3   OH225094   6.190   1.594   4.122
 8377TIP3    H125095   6.239   1.528   4.170
 8377TIP3    H225096   6.107   1.603   4.170
 8378TIP3   OH225097   4.507   5.718   0.703
 8378TIP3    H125098   4.535   5.636   0.664
 8378TIP3    H225099   4.588   5.767   0.717
 8379TIP3   OH225100   5.415   1.628   0.909
 8379TIP3    H125101   5.499   1.621   0.954
 8379TIP3    H225102   5.428   1.585   0.825
 8380TIP3   OH225103   6.015   0.436   4.615
 8380TIP3    H125104   6.110   0.448   4.623
 8380TIP3    H225105   5.977   0.520   4.641
 8381TIP3   OH225106   1.593   2.166   2.253
 8381TIP3    H125107   1.612   2.225   2.327
 8381TIP3    H225108   1.610   2.079   2.288
 8382TIP3   OH225109   5.516   1.262   4.606
 8382TIP3    H125110   5.601   1.224   4.583
 8382TIP3    H225111   5.482   1.204   4.674
 8383TIP3   OH225112   5.470   3.933   5.283
 8383TIP3    H125113   5.452   3.918   5.376
 8383TIP3    H225114   5.386   3.919   5.240
 8384TIP3   OH225115   1.495   4.964   0.417
 8384TIP3    H125116   1.416   4.919   0.388
 8384TIP3    H225117   1.518   4.923   0.500
 8385TIP3   OH225118   0.666   0.063   5.866
 8385TIP3    H125119   0.740   0.030   5.817
 8385TIP3    H225120   0.596  -0.001   5.851
 8386TIP3   OH225121   3.109   4.747   2.007
 8386TIP3    H125122   3.061   4.801   1.944
 8386TIP3    H225123   3.114   4.661   1.966
 8387TIP3   OH225124   4.279   3.721   4.976
 8387TIP3    H125125   4.339   3.767   5.034
 8387TIP3    H225126   4.195   3.765   4.988
 8388TIP3   OH225127   2.946   2.925   0.015
 8388TIP3    H125128   3.018   2.942   0.076
 8388TIP3    H225129   2.922   3.012  -0.018
 8389TIP3   OH225130   2.218   5.761   5.580
 8389TIP3    H125131   2.142   5.818   5.569
 8389TIP3    H225132   2.228   5.751   5.674
 8390TIP3   OH225133   4.146   5.186   5.850
 8390TIP3    H125134   4.222   5.175   5.907
 8390TIP3    H225135   4.142   5.280   5.832
 8391TIP3   OH225136   4.127   6.623   3.506
 8391TIP3    H125137   4.079   6.541   3.506
 8391TIP3    H225138   4.216   6.598   3.532
 8392TIP3   OH225139   5.584   0.861   0.835
 8392TIP3    H125140   5.540   0.945   0.848
 8392TIP3    H225141   5.675   0.877   0.861
 8393TIP3   OH225142   4.202   3.894   5.402
 8393TIP3    H125143   4.150   3.818   5.377
 8393TIP3    H225144   4.255   3.863   5.476
 8394TIP3   OH225145   7.109   0.540   0.736
 8394TIP3    H125146   7.056   0.577   0.666
 8394TIP3    H225147   7.198   0.571   0.718
 8395TIP3   OH225148   6.839   5.813   3.989
 8395TIP3    H125149   6.851   5.849   3.901
 8395TIP3    H225150   6.854   5.719   3.979
 8396TIP3   OH225151   7.025   5.959   3.464
 8396TIP3    H125152   7.060   6.002   3.386
 8396TIP3    H225153   7.052   6.016   3.537
 8397TIP3   OH225154   0.583   2.459   2.388
 8397TIP3    H125155   0.547   2.374   2.415
 8397TIP3    H225156   0.523   2.524   2.424
 8398TIP3   OH225157   3.858   2.231   4.209
 8398TIP3    H125158   3.815   2.148   4.189
 8398TIP3    H225159   3.824   2.292   4.144
 8399TIP3   OH225160   0.070   0.017   2.001
 8399TIP3    H125161   0.085   0.047   1.911
 8399TIP3    H225162   0.104  -0.072   2.003
 8400TIP3   OH225163   3.581   4.708   5.217
 8400TIP3    H125164   3.595   4.624   5.173
 8400TIP3    H225165   3.607   4.693   5.308
 8401TIP3   OH225166   2.154   6.295   5.688
 8401TIP3    H125167   2.104   6.367   5.649
 8401TIP3    H225168   2.174   6.325   5.777
 8402TIP3   OH225169   4.769   6.706   1.685
 8402TIP3    H125170   4.842   6.647   1.704
 8402TIP3    H225171   4.810   6.787   1.654
 8403TIP3   OH225172   5.863   6.672   4.776
 8403TIP3    H125173   5.868   6.739   4.707
 8403TIP3    H225174   5.910   6.597   4.738
 8404TIP3   OH225175   3.854   4.402   5.288
 8404TIP3    H125176   3.900   4.485   5.287
 8404TIP3    H225177   3.844   4.378   5.196
 8405TIP3   OH225178   1.417   1.744   1.529
 8405TIP3    H125179   1.336   1.781   1.566
 8405TIP3    H225180   1.453   1.816   1.476
 8406TIP3   OH225181   1.750   1.307   4.556
 8406TIP3    H125182   1.787   1.359   4.627
 8406TIP3    H225183   1.812   1.234   4.546
 8407TIP3   OH225184   5.631   6.530   2.484
 8407TIP3    H125185   5.697   6.594   2.458
 8407TIP3    H225186   5.672   6.483   2.557
 8408TIP3   OH225187   5.808   1.750   2.579
 8408TIP3    H125188   5.755   1.823   2.547
 8408TIP3    H225189   5.805   1.759   2.675
 8409TIP3   OH225190   1.137   4.275   2.073
 8409TIP3    H125191   1.142   4.231   2.158
 8409TIP3    H225192   1.122   4.367   2.094
 8410TIP3   OH225193   3.754   2.853   3.891
 8410TIP3    H125194   3.739   2.782   3.953
 8410TIP3    H225195   3.669   2.868   3.851
 8411TIP3   OH225196   3.889   6.176   5.438
 8411TIP3    H125197   3.954   6.130   5.490
 8411TIP3    H225198   3.940   6.233   5.380
 8412TIP3   OH225199   1.938   3.535   5.260
 8412TIP3    H125200   2.002   3.466   5.279
 8412TIP3    H225201   1.858   3.488   5.240
 8413TIP3   OH225202   1.274   2.083   5.521
 8413TIP3    H125203   1.342   2.149   5.534
 8413TIP3    H225204   1.195   2.122   5.559
 8414TIP3   OH225205   0.243   2.945   5.569
 8414TIP3    H125206   0.326   2.958   5.524
 8414TIP3    H225207   0.218   3.032   5.599
 8415TIP3   OH225208   4.233   0.970   5.528
 8415TIP3    H125209   4.310   0.915   5.542
 8415TIP3    H225210   4.188   0.971   5.612
 8416TIP3   OH225211   5.638   3.521   3.744
 8416TIP3    H125212   5.608   3.512   3.834
 8416TIP3    H225213   5.599   3.447   3.698
 8417TIP3   OH225214   1.397   1.643   5.573
 8417TIP3    H125215   1.390   1.579   5.643
 8417TIP3    H225216   1.306   1.665   5.551
 8418TIP3   OH225217   3.059   0.400   4.705
 8418TIP3    H125218   2.987   0.336   4.711
 8418TIP3    H225219   3.072   0.412   4.611
 8419TIP3   OH225220   4.489   0.059   0.433
 8419TIP3    H125221   4.546   0.020   0.367
 8419TIP3    H225222   4.412   0.003   0.434
 8420TIP3   OH225223   5.479   2.067   5.697
 8420TIP3    H125224   5.541   2.131   5.733
 8420TIP3    H225225   5.405   2.068   5.758
 8421TIP3   OH225226   2.944   0.944   1.521
 8421TIP3    H125227   3.014   0.941   1.455
 8421TIP3    H225228   2.985   0.984   1.598
 8422TIP3   OH225229   0.227   5.861   0.096
 8422TIP3    H125230   0.286   5.839   0.024
 8422TIP3    H225231   0.272   5.831   0.175
 8423TIP3   OH225232   3.923   4.148   2.221
 8423TIP3    H125233   3.991   4.212   2.202
 8423TIP3    H225234   3.861   4.155   2.148
 8424TIP3   OH225235   1.878   5.465   3.035
 8424TIP3    H125236   1.799   5.496   2.991
 8424TIP3    H225237   1.918   5.544   3.072
 8425TIP3   OH225238   4.866   0.614   1.118
 8425TIP3    H125239   4.790   0.584   1.069
 8425TIP3    H225240   4.831   0.669   1.187
 8426TIP3   OH225241   4.526   1.687   4.172
 8426TIP3    H125242   4.538   1.776   4.204
 8426TIP3    H225243   4.522   1.633   4.252
 8427TIP3   OH225244   6.814   6.552   3.381
 8427TIP3    H125245   6.830   6.572   3.473
 8427TIP3    H225246   6.739   6.492   3.382
 8428TIP3   OH225247   5.483   3.245   5.017
 8428TIP3    H125248   5.465   3.297   4.938
 8428TIP3    H225249   5.418   3.175   5.015
 8429TIP3   OH225250   3.006   6.581   4.949
 8429TIP3    H125251   3.085   6.531   4.928
 8429TIP3    H225252   2.984   6.625   4.867
 8430TIP3   OH225253   2.787   5.618   1.440
 8430TIP3    H125254   2.692   5.615   1.429
 8430TIP3    H225255   2.818   5.540   1.393
 8431TIP3   OH225256   2.412   4.069   1.558
 8431TIP3    H125257   2.415   4.050   1.464
 8431TIP3    H225258   2.319   4.081   1.577
 8432TIP3   OH225259   6.367   2.279   1.345
 8432TIP3    H125260   6.314   2.296   1.268
 8432TIP3    H225261   6.413   2.361   1.362
 8433TIP3   OH225262   1.826   6.177   1.661
 8433TIP3    H125263   1.760   6.241   1.634
 8433TIP3    H225264   1.791   6.140   1.743
 8434TIP3   OH225265   1.804   5.845   2.987
 8434TIP3    H125266   1.845   5.927   2.959
 8434TIP3    H225267   1.862   5.810   3.054
 8435TIP3   OH225268   1.281   4.359   2.675
 8435TIP3    H125269   1.188   4.380   2.683
 8435TIP3    H225270   1.290   4.275   2.720
 8436TIP3   OH225271   0.675   6.365   0.944
 8436TIP3    H125272   0.740   6.418   0.990
 8436TIP3    H225273   0.681   6.393   0.853
 8437TIP3   OH225274   5.007   0.268   3.501
 8437TIP3    H125275   5.047   0.212   3.568
 8437TIP3    H225276   4.924   0.226   3.480
 8438TIP3   OH225277   1.058   3.394   0.488
 8438TIP3    H125278   1.096   3.317   0.531
 8438TIP3    H225279   0.973   3.406   0.530
 8439TIP3   OH225280   3.557   3.624   1.566
 8439TIP3    H125281   3.583   3.581   1.485
 8439TIP3    H225282   3.640   3.644   1.610
 8440TIP3   OH225283   6.113   3.586   0.579
 8440TIP3    H125284   6.030   3.573   0.626
 8440TIP3    H225285   6.135   3.499   0.546
 8441TIP3   OH225286   1.603   3.173   0.217
 8441TIP3    H125287   1.588   3.089   0.260
 8441TIP3    H225288   1.645   3.227   0.284
 8442TIP3   OH225289   0.102   6.323   5.413
 8442TIP3    H125290   0.193   6.330   5.386
 8442TIP3    H225291   0.084   6.406   5.458
 8443TIP3   OH225292   1.791   5.738   2.688
 8443TIP3    H125293   1.877   5.775   2.706
 8443TIP3    H225294   1.783   5.741   2.592
 8444TIP3   OH225295   5.718   2.738   2.277
 8444TIP3    H125296   5.713   2.805   2.345
 8444TIP3    H225297   5.812   2.722   2.266
 8445TIP3   OH225298   2.982   3.347   2.291
 8445TIP3    H125299   3.010   3.335   2.200
 8445TIP3    H225300   3.034   3.421   2.323
 8446TIP3   OH225301   1.141   4.890   0.381
 8446TIP3    H125302   1.103   4.832   0.316
 8446TIP3    H225303   1.190   4.955   0.330
 8447TIP3   OH225304   0.711   1.542   1.177
 8447TIP3    H125305   0.794   1.583   1.150
 8447TIP3    H225306   0.673   1.605   1.238
 8448TIP3   OH225307   0.559   4.373   0.948
 8448TIP3    H125308   0.506   4.311   0.898
 8448TIP3    H225309   0.548   4.456   0.901
 8449TIP3   OH225310   1.759   3.293   0.404
 8449TIP3    H125311   1.785   3.382   0.382
 8449TIP3    H225312   1.733   3.298   0.496
 8450TIP3   OH225313   2.641   0.029   0.492
 8450TIP3    H125314   2.711   0.078   0.450
 8450TIP3    H225315   2.562   0.080   0.474
 8451TIP3   OH225316   4.679   1.467   5.698
 8451TIP3    H125317   4.591   1.459   5.662
 8451TIP3    H225318   4.670   1.527   5.772
 8452TIP3   OH225319   3.275   1.782   0.426
 8452TIP3    H125320   3.286   1.747   0.514
 8452TIP3    H225321   3.365   1.797   0.394
 8453TIP3   OH225322   6.381   2.157   3.580
 8453TIP3    H125323   6.437   2.232   3.602
 8453TIP3    H225324   6.421   2.120   3.501
 8454TIP3   OH225325   1.590   4.125   1.374
 8454TIP3    H125326   1.571   4.162   1.459
 8454TIP3    H225327   1.685   4.131   1.365
 8455TIP3   OH225328   6.086   4.414   5.128
 8455TIP3    H125329   6.166   4.416   5.182
 8455TIP3    H225330   6.112   4.366   5.049
 8456TIP3   OH225331   3.669   4.428   2.652
 8456TIP3    H125332   3.712   4.441   2.568
 8456TIP3    H225333   3.706   4.496   2.709
 8457TIP3   OH225334   6.558   2.106   4.640
 8457TIP3    H125335   6.479   2.073   4.684
 8457TIP3    H225336   6.572   2.045   4.567
 8458TIP3   OH225337   4.107   2.811   1.856
 8458TIP3    H125338   4.185   2.841   1.810
 8458TIP3    H225339   4.107   2.860   1.938
 8459TIP3   OH225340   4.556   5.494   0.016
 8459TIP3    H125341   4.525   5.502   0.107
 8459TIP3    H225342   4.493   5.546  -0.035
 8460TIP3   OH225343   3.023   5.471   1.049
 8460TIP3    H125344   3.042   5.487   1.141
 8460TIP3    H225345   3.036   5.556   1.007
 8461TIP3   OH225346   5.747   6.213   4.043
 8461TIP3    H125347   5.719   6.271   3.972
 8461TIP3    H225348   5.689   6.234   4.116
 8462TIP3   OH225349   6.593   0.750   0.991
 8462TIP3    H125350   6.582   0.844   0.999
 8462TIP3    H225351   6.672   0.740   0.937
 8463TIP3   OH225352   4.979   1.478   0.033
 8463TIP3    H125353   4.929   1.497  -0.047
 8463TIP3    H225354   4.913   1.444   0.094
 8464TIP3   OH225355   1.997   6.306   2.011
 8464TIP3    H125356   1.923   6.312   1.951
 8464TIP3    H225357   2.012   6.395   2.041
 8465TIP3   OH225358   4.471   4.814   5.467
 8465TIP3    H125359   4.445   4.905   5.483
 8465TIP3    H225360   4.514   4.787   5.548
 8466TIP3   OH225361   6.788   5.404   1.611
 8466TIP3    H125362   6.751   5.318   1.632
 8466TIP3    H225363   6.882   5.389   1.605
 8467TIP3   OH225364   6.874   0.536   2.526
 8467TIP3    H125365   6.869   0.554   2.431
 8467TIP3    H225366   6.819   0.604   2.565
 8468TIP3   OH225367   7.016   6.181   2.998
 8468TIP3    H125368   6.964   6.215   2.925
 8468TIP3    H225369   6.978   6.095   3.016
 8469TIP3   OH225370   5.057   3.583   4.255
 8469TIP3    H125371   5.119   3.515   4.283
 8469TIP3    H225372   5.014   3.546   4.178
 8470TIP3   OH225373   4.188   4.941   4.262
 8470TIP3    H125374   4.205   4.957   4.170
 8470TIP3    H225375   4.096   4.967   4.274
 8471TIP3   OH225376   1.320   3.893   0.089
 8471TIP3    H125377   1.342   3.938   0.170
 8471TIP3    H225378   1.317   3.962   0.023
 8472TIP3   OH225379   3.113   6.034   4.430
 8472TIP3    H125380   3.196   6.037   4.382
 8472TIP3    H225381   3.092   5.941   4.437
 8473TIP3   OH225382   6.787   5.262   2.594
 8473TIP3    H125383   6.827   5.276   2.680
 8473TIP3    H225384   6.825   5.329   2.538
 8474TIP3   OH225385   4.397   2.667   2.712
 8474TIP3    H125386   4.350   2.738   2.756
 8474TIP3    H225387   4.489   2.682   2.736
 8475TIP3   OH225388   2.695   6.441   0.466
 8475TIP3    H125389   2.775   6.492   0.474
 8475TIP3    H225390   2.625   6.507   0.465
 8476TIP3   OH225391   4.465   4.234   4.771
 8476TIP3    H125392   4.452   4.322   4.736
 8476TIP3    H225393   4.466   4.178   4.694
 8477TIP3   OH225394   6.683   5.031   4.239
 8477TIP3    H125395   6.717   4.956   4.289
 8477TIP3    H225396   6.588   5.024   4.248
 8478TIP3   OH225397   2.297   3.092   2.657
 8478TIP3    H125398   2.391   3.086   2.675
 8478TIP3    H225399   2.292   3.152   2.582
 8479TIP3   OH225400   2.502   6.173   5.226
 8479TIP3    H125401   2.488   6.235   5.298
 8479TIP3    H225402   2.455   6.094   5.253
 8480TIP3   OH225403   4.162   3.163   4.238
 8480TIP3    H125404   4.248   3.151   4.278
 8480TIP3    H225405   4.105   3.102   4.284
 8481TIP3   OH225406   5.499   1.486   5.223
 8481TIP3    H125407   5.452   1.570   5.217
 8481TIP3    H225408   5.526   1.467   5.133
 8482TIP3   OH225409   5.411   0.659   5.761
 8482TIP3    H125410   5.451   0.647   5.848
 8482TIP3    H225411   5.318   0.644   5.776
 8483TIP3   OH225412   0.695   2.172   1.114
 8483TIP3    H125413   0.755   2.228   1.162
 8483TIP3    H225414   0.631   2.143   1.179
 8484TIP3   OH225415   5.908   2.324   3.652
 8484TIP3    H125416   5.954   2.359   3.576
 8484TIP3    H225417   5.971   2.265   3.694
 8485TIP3   OH225418   5.381   2.041   0.843
 8485TIP3    H125419   5.393   2.106   0.912
 8485TIP3    H225420   5.401   2.089   0.762
 8486TIP3   OH225421   5.491   0.382   4.303
 8486TIP3    H125422   5.586   0.368   4.294
 8486TIP3    H225423   5.456   0.354   4.218
 8487TIP3   OH225424   6.105   1.915   0.913
 8487TIP3    H125425   6.097   1.952   0.825
 8487TIP3    H225426   6.016   1.891   0.937
 8488TIP3   OH225427   0.802   0.848   0.828
 8488TIP3    H125428   0.884   0.800   0.821
 8488TIP3    H225429   0.816   0.927   0.776
 8489TIP3   OH225430   6.069   6.452   1.962
 8489TIP3    H125431   6.114   6.535   1.942
 8489TIP3    H225432   5.977   6.470   1.941
 8490TIP3   OH225433   4.112   0.537   1.541
 8490TIP3    H125434   4.132   0.589   1.463
 8490TIP3    H225435   4.026   0.567   1.568
 8491TIP3   OH225436   6.099   3.460   3.290
 8491TIP3    H125437   6.029   3.524   3.302
 8491TIP3    H225438   6.147   3.460   3.373
 8492TIP3   OH225439   6.270   1.511   3.140
 8492TIP3    H125440   6.220   1.451   3.084
 8492TIP3    H225441   6.342   1.541   3.085
 8493TIP3   OH225442   4.293   2.811   4.300
 8493TIP3    H125443   4.291   2.783   4.208
 8493TIP3    H225444   4.383   2.793   4.329
 8494TIP3   OH225445   5.509   0.052   2.067
 8494TIP3    H125446   5.453  -0.015   2.108
 8494TIP3    H225447   5.468   0.067   1.982
 8495TIP3   OH225448   4.744   3.267   1.426
 8495TIP3    H125449   4.827   3.221   1.410
 8495TIP3    H225450   4.677   3.200   1.411
 8496TIP3   OH225451   1.753   4.649   5.425
 8496TIP3    H125452   1.746   4.653   5.520
 8496TIP3    H225453   1.808   4.724   5.402
 8497TIP3   OH225454   2.088   4.026   5.734
 8497TIP3    H125455   2.115   4.058   5.648
 8497TIP3    H225456   2.037   4.098   5.772
 8498TIP3   OH225457   3.633   3.764   4.511
 8498TIP3    H125458   3.638   3.757   4.416
 8498TIP3    H225459   3.634   3.858   4.528
 8499TIP3   OH225460   2.050   6.049   2.130
 8499TIP3    H125461   1.988   6.029   2.200
 8499TIP3    H225462   2.028   6.139   2.104
 8500TIP3   OH225463   2.550   1.455   4.915
 8500TIP3    H125464   2.505   1.517   4.973
 8500TIP3    H225465   2.634   1.498   4.895
 8501TIP3   OH225466   4.330   0.160   3.434
 8501TIP3    H125467   4.344   0.221   3.505
 8501TIP3    H225468   4.244   0.182   3.399
 8502TIP3   OH225469   5.310   6.669   1.871
 8502TIP3    H125470   5.322   6.590   1.820
 8502TIP3    H225471   5.308   6.740   1.807
 8503TIP3   OH225472   6.352   2.160   0.757
 8503TIP3    H125473   6.389   2.247   0.772
 8503TIP3    H225474   6.377   2.110   0.835
 8504TIP3   OH225475   4.942   4.933   1.412
 8504TIP3    H125476   5.000   4.858   1.408
 8504TIP3    H225477   4.888   4.918   1.489
 8505TIP3   OH225478   0.244   3.287   2.002
 8505TIP3    H125479   0.217   3.321   1.917
 8505TIP3    H225480   0.171   3.232   2.030
 8506TIP3   OH225481   6.271   3.023   0.485
 8506TIP3    H125482   6.234   3.029   0.397
 8506TIP3    H225483   6.223   2.952   0.527
 8507TIP3   OH225484   3.451   0.822   0.435
 8507TIP3    H125485   3.412   0.894   0.485
 8507TIP3    H225486   3.465   0.858   0.348
 8508TIP3   OH225487   6.783   4.278   2.320
 8508TIP3    H125488   6.761   4.282   2.413
 8508TIP3    H225489   6.806   4.186   2.305
 8509TIP3   OH225490   3.209   5.610   1.684
 8509TIP3    H125491   3.116   5.590   1.698
 8509TIP3    H225492   3.211   5.706   1.674
 8510TIP3   OH225493   1.302   6.000   2.584
 8510TIP3    H125494   1.375   5.939   2.600
 8510TIP3    H225495   1.247   5.955   2.520
 8511TIP3   OH225496   4.689   6.318   1.510
 8511TIP3    H125497   4.628   6.244   1.508
 8511TIP3    H225498   4.734   6.309   1.595
 8512TIP3   OH225499   5.570   5.297   1.142
 8512TIP3    H125500   5.593   5.367   1.203
 8512TIP3    H225501   5.479   5.317   1.118
 8513TIP3   OH225502   3.660   5.687   3.861
 8513TIP3    H125503   3.568   5.667   3.877
 8513TIP3    H225504   3.693   5.611   3.813
 8514TIP3   OH225505   3.689   0.854   0.196
 8514TIP3    H125506   3.641   0.926   0.235
 8514TIP3    H225507   3.778   0.888   0.185
 8515TIP3   OH225508   5.844   4.268   0.525
 8515TIP3    H125509   5.790   4.344   0.506
 8515TIP3    H225510   5.933   4.302   0.532
 8516TIP3   OH225511   6.635   6.268   4.185
 8516TIP3    H125512   6.696   6.252   4.113
 8516TIP3    H225513   6.559   6.214   4.165
 8517TIP3   OH225514   0.942   1.218   0.186
 8517TIP3    H125515   1.032   1.190   0.167
 8517TIP3    H225516   0.902   1.141   0.228
 8518TIP3   OH225517   2.722   6.157   2.889
 8518TIP3    H125518   2.708   6.167   2.795
 8518TIP3    H225519   2.678   6.075   2.911
 8519TIP3   OH225520   5.313   4.811   2.725
 8519TIP3    H125521   5.285   4.768   2.644
 8519TIP3    H225522   5.404   4.834   2.709
 8520TIP3   OH225523   6.964   4.131   1.891
 8520TIP3    H125524   7.021   4.125   1.967
 8520TIP3    H225525   7.021   4.166   1.822
 8521TIP3   OH225526   4.391   3.362   4.832
 8521TIP3    H125527   4.432   3.394   4.752
 8521TIP3    H225528   4.443   3.400   4.903
 8522TIP3   OH225529   5.212   4.049   3.458
 8522TIP3    H125530   5.169   4.020   3.377
 8522TIP3    H225531   5.201   4.144   3.457
 8523TIP3   OH225532   1.058   4.801   5.406
 8523TIP3    H125533   1.136   4.787   5.460
 8523TIP3    H225534   1.012   4.717   5.409
 8524TIP3   OH225535   4.946   5.133   4.587
 8524TIP3    H125536   4.876   5.172   4.640
 8524TIP3    H225537   4.927   5.039   4.588
 8525TIP3   OH225538   4.357   2.283   4.669
 8525TIP3    H125539   4.339   2.268   4.762
 8525TIP3    H225540   4.278   2.326   4.635
 8526TIP3   OH225541   4.887   2.828   0.131
 8526TIP3    H125542   4.840   2.829   0.048
 8526TIP3    H225543   4.946   2.903   0.126
 8527TIP3   OH225544   2.791   0.893   5.173
 8527TIP3    H125545   2.808   0.803   5.146
 8527TIP3    H225546   2.754   0.935   5.096
 8528TIP3   OH225547   3.251   1.723   1.665
 8528TIP3    H125548   3.189   1.791   1.691
 8528TIP3    H225549   3.331   1.770   1.642
 8529TIP3   OH225550   3.204   0.786   0.663
 8529TIP3    H125551   3.284   0.736   0.679
 8529TIP3    H225552   3.133   0.723   0.672
 8530TIP3   OH225553   5.051   6.443   2.618
 8530TIP3    H125554   5.025   6.470   2.706
 8530TIP3    H225555   5.073   6.525   2.573
 8531TIP3   OH225556   4.052   5.517   0.872
 8531TIP3    H125557   3.972   5.565   0.850
 8531TIP3    H225558   4.110   5.533   0.797
 8532TIP3   OH225559   3.549   3.985   5.126
 8532TIP3    H125560   3.527   4.068   5.169
 8532TIP3    H225561   3.516   3.995   5.037
 8533TIP3   OH225562   2.465   1.872   1.642
 8533TIP3    H125563   2.405   1.837   1.707
 8533TIP3    H225564   2.412   1.883   1.563
 8534TIP3   OH225565   0.742   5.457   4.587
 8534TIP3    H125566   0.743   5.425   4.677
 8534TIP3    H225567   0.753   5.378   4.533
 8535TIP3   OH225568   5.732   4.272   3.641
 8535TIP3    H125569   5.673   4.316   3.579
 8535TIP3    H225570   5.700   4.299   3.727
 8536TIP3   OH225571   3.263   4.315   3.603
 8536TIP3    H125572   3.266   4.411   3.594
 8536TIP3    H225573   3.210   4.286   3.529
 8537TIP3   OH225574   0.397   4.829   4.768
 8537TIP3    H125575   0.447   4.904   4.799
 8537TIP3    H225576   0.463   4.770   4.731
 8538TIP3   OH225577   5.461   4.042   0.567
 8538TIP3    H125578   5.377   4.004   0.544
 8538TIP3    H225579   5.514   3.968   0.596
 8539TIP3   OH225580   6.372   4.085   3.646
 8539TIP3    H125581   6.319   4.161   3.620
 8539TIP3    H225582   6.389   4.039   3.564
 8540TIP3   OH225583   4.814   4.693   0.518
 8540TIP3    H125584   4.778   4.609   0.548
 8540TIP3    H225585   4.763   4.713   0.439
 8541TIP3   OH225586   5.819   0.142   1.303
 8541TIP3    H125587   5.732   0.144   1.342
 8541TIP3    H225588   5.812   0.080   1.231
 8542TIP3   OH225589   5.283   1.939   1.903
 8542TIP3    H125590   5.374   1.967   1.906
 8542TIP3    H225591   5.235   2.011   1.945
 8543TIP3   OH225592   4.529   0.630   0.776
 8543TIP3    H125593   4.486   0.600   0.856
 8543TIP3    H225594   4.606   0.679   0.806
 8544TIP3   OH225595   0.359   5.632   0.713
 8544TIP3    H125596   0.312   5.613   0.632
 8544TIP3    H225597   0.445   5.662   0.685
 8545TIP3   OH225598   2.009   0.919   5.377
 8545TIP3    H125599   1.928   0.911   5.326
 8545TIP3    H225600   2.054   0.836   5.363
 8546TIP3   OH225601   4.923   3.373   0.525
 8546TIP3    H125602   4.874   3.390   0.445
 8546TIP3    H225603   4.894   3.442   0.586
 8547TIP3   OH225604   5.278   4.100   0.300
 8547TIP3    H125605   5.362   4.120   0.342
 8547TIP3    H225606   5.216   4.161   0.340
 8548TIP3   OH225607   1.144   1.577   2.168
 8548TIP3    H125608   1.148   1.672   2.181
 8548TIP3    H225609   1.057   1.552   2.199
 8549TIP3   OH225610   0.358   4.297   2.675
 8549TIP3    H125611   0.330   4.207   2.660
 8549TIP3    H225612   0.452   4.290   2.694
 8550TIP3   OH225613   1.790   2.720   2.095
 8550TIP3    H125614   1.827   2.680   2.173
 8550TIP3    H225615   1.697   2.697   2.098
 8551TIP3   OH225616   2.095   4.877   2.581
 8551TIP3    H125617   2.006   4.899   2.556
 8551TIP3    H225618   2.090   4.788   2.617
 8552TIP3   OH225619   2.225   6.401   2.803
 8552TIP3    H125620   2.135   6.429   2.789
 8552TIP3    H225621   2.265   6.402   2.716
 8553TIP3   OH225622   3.809   6.068   4.168
 8553TIP3    H125623   3.746   6.024   4.111
 8553TIP3    H225624   3.884   6.009   4.170
 8554TIP3   OH225625   1.866   2.700   0.598
 8554TIP3    H125626   1.931   2.704   0.669
 8554TIP3    H225627   1.916   2.722   0.519
 8555TIP3   OH225628   0.839   4.488   4.559
 8555TIP3    H125629   0.901   4.557   4.586
 8555TIP3    H225630   0.800   4.522   4.479
 8556TIP3   OH225631   2.752   1.626   5.107
 8556TIP3    H125632   2.729   1.587   5.192
 8556TIP3    H225633   2.668   1.652   5.069
 8557TIP3   OH225634   3.470   6.728   5.264
 8557TIP3    H125635   3.528   6.784   5.316
 8557TIP3    H225636   3.527   6.690   5.197
 8558TIP3   OH225637   2.651   6.304   4.164
 8558TIP3    H125638   2.655   6.240   4.093
 8558TIP3    H225639   2.632   6.253   4.243
 8559TIP3   OH225640   3.056   5.974   0.148
 8559TIP3    H125641   3.083   6.001   0.235
 8559TIP3    H225642   3.123   6.009   0.089
 8560TIP3   OH225643   7.044   3.655   4.794
 8560TIP3    H125644   7.046   3.691   4.882
 8560TIP3    H225645   6.958   3.615   4.785
 8561TIP3   OH225646   3.343   4.986   0.394
 8561TIP3    H125647   3.375   5.057   0.450
 8561TIP3    H225648   3.269   5.025   0.348
 8562TIP3   OH225649   3.404   3.501   4.479
 8562TIP3    H125650   3.354   3.571   4.520
 8562TIP3    H225651   3.428   3.535   4.393
 8563TIP3   OH225652   0.718   2.304   3.917
 8563TIP3    H125653   0.743   2.364   3.987
 8563TIP3    H225654   0.801   2.286   3.871
 8564TIP3   OH225655   1.686   6.735   0.133
 8564TIP3    H125656   1.610   6.701   0.180
 8564TIP3    H225657   1.744   6.660   0.124
 8565TIP3   OH225658   1.240   5.681   3.669
 8565TIP3    H125659   1.292   5.739   3.724
 8565TIP3    H225660   1.303   5.617   3.635
 8566TIP3   OH225661   5.402   2.324   3.693
 8566TIP3    H125662   5.387   2.229   3.695
 8566TIP3    H225663   5.427   2.346   3.783
 8567TIP3   OH225664   0.620   6.636   0.049
 8567TIP3    H125665   0.595   6.604  -0.038
 8567TIP3    H225666   0.553   6.700   0.071
 8568TIP3   OH225667   3.036   4.297   4.985
 8568TIP3    H125668   3.058   4.218   4.937
 8568TIP3    H225669   2.943   4.287   5.006
 8569TIP3   OH225670   0.291   3.500   5.823
 8569TIP3    H125671   0.255   3.554   5.894
 8569TIP3    H225672   0.379   3.534   5.810
 8570TIP3   OH225673   5.859   6.259   0.672
 8570TIP3    H125674   5.857   6.187   0.736
 8570TIP3    H225675   5.902   6.331   0.718
 8571TIP3   OH225676   5.906   4.318   1.754
 8571TIP3    H125677   5.982   4.350   1.803
 8571TIP3    H225678   5.944   4.281   1.674
 8572TIP3   OH225679   1.797   4.942   4.238
 8572TIP3    H125680   1.736   4.993   4.185
 8572TIP3    H225681   1.746   4.868   4.271
 8573TIP3   OH225682   5.886   4.498   4.076
 8573TIP3    H125683   5.834   4.422   4.052
 8573TIP3    H225684   5.929   4.472   4.157
 8574TIP3   OH225685   2.361   5.093   0.298
 8574TIP3    H125686   2.382   5.127   0.210
 8574TIP3    H225687   2.332   5.170   0.347
 8575TIP3   OH225688   1.322   0.275   2.724
 8575TIP3    H125689   1.407   0.253   2.685
 8575TIP3    H225690   1.280   0.331   2.659
 8576TIP3   OH225691   4.868   4.272   5.449
 8576TIP3    H125692   4.828   4.358   5.460
 8576TIP3    H225693   4.952   4.290   5.405
 8577TIP3   OH225694   3.797   5.442   1.354
 8577TIP3    H125695   3.879   5.398   1.376
 8577TIP3    H225696   3.776   5.493   1.432
 8578TIP3   OH225697   4.452   3.776   5.191
 8578TIP3    H125698   4.425   3.823   5.270
 8578TIP3    H225699   4.546   3.792   5.185
 8579TIP3   OH225700   1.518   0.017   2.879
 8579TIP3    H125701   1.570   0.003   2.958
 8579TIP3    H225702   1.501   0.111   2.877
 8580TIP3   OH225703   6.597   0.521   5.640
 8580TIP3    H125704   6.625   0.583   5.572
 8580TIP3    H225705   6.523   0.564   5.683
 8581TIP3   OH225706   1.875   5.465   2.687
 8581TIP3    H125707   1.904   5.492   2.600
 8581TIP3    H225708   1.847   5.546   2.729
 8582TIP3   OH225709   2.733   3.266   1.459
 8582TIP3    H125710   2.641   3.238   1.465
 8582TIP3    H225711   2.774   3.200   1.404
 8583TIP3   OH225712   3.571   0.111   4.626
 8583TIP3    H125713   3.555   0.089   4.718
 8583TIP3    H225714   3.656   0.071   4.606
 8584TIP3   OH225715   5.125   5.473   2.241
 8584TIP3    H125716   5.105   5.391   2.286
 8584TIP3    H225717   5.216   5.491   2.264
 8585TIP3   OH225718   5.908   0.700   4.505
 8585TIP3    H125719   5.954   0.630   4.458
 8585TIP3    H225720   5.957   0.779   4.485
 8586TIP3   OH225721   4.686   0.573   1.952
 8586TIP3    H125722   4.632   0.499   1.926
 8586TIP3    H225723   4.773   0.535   1.968
 8587TIP3   OH225724   3.045   3.280   4.216
 8587TIP3    H125725   3.107   3.279   4.143
 8587TIP3    H225726   3.061   3.197   4.262
 8588TIP3   OH225727   0.421   0.087   5.639
 8588TIP3    H125728   0.362   0.162   5.650
 8588TIP3    H225729   0.412   0.038   5.721
 8589TIP3   OH225730   7.138   1.841   3.419
 8589TIP3    H125731   7.062   1.799   3.380
 8589TIP3    H225732   7.166   1.781   3.488
 8590TIP3   OH225733   3.739   4.897   1.887
 8590TIP3    H125734   3.764   4.937   1.971
 8590TIP3    H225735   3.811   4.917   1.828
 8591TIP3   OH225736   4.429   0.104   1.466
 8591TIP3    H125737   4.353   0.161   1.455
 8591TIP3    H225738   4.466   0.096   1.378
 8592TIP3   OH225739   2.991   1.581   4.133
 8592TIP3    H125740   2.973   1.536   4.050
 8592TIP3    H225741   2.975   1.515   4.200
 8593TIP3   OH225742   4.732   5.329   5.329
 8593TIP3    H125743   4.694   5.356   5.245
 8593TIP3    H225744   4.814   5.377   5.334
 8594TIP3   OH225745   3.590   3.229   1.915
 8594TIP3    H125746   3.570   3.269   1.830
 8594TIP3    H225747   3.593   3.135   1.896
 8595TIP3   OH225748   5.543   3.985   1.593
 8595TIP3    H125749   5.620   4.005   1.647
 8595TIP3    H225750   5.490   4.065   1.597
 8596TIP3   OH225751   7.084   1.337   3.956
 8596TIP3    H125752   7.141   1.294   3.893
 8596TIP3    H225753   7.113   1.303   4.041
 8597TIP3   OH225754   0.782   0.174   3.825
 8597TIP3    H125755   0.696   0.214   3.818
 8597TIP3    H225756   0.772   0.089   3.783
 8598TIP3   OH225757   5.610   4.771   3.500
 8598TIP3    H125758   5.568   4.740   3.420
 8598TIP3    H225759   5.632   4.691   3.548
 8599TIP3   OH225760   4.491   1.866   2.713
 8599TIP3    H125761   4.442   1.818   2.646
 8599TIP3    H225762   4.463   1.957   2.702
 8600TIP3   OH225763   2.784   4.549   0.706
 8600TIP3    H125764   2.752   4.637   0.684
 8600TIP3    H225765   2.714   4.512   0.759
 8601TIP3   OH225766   5.038   2.393   0.198
 8601TIP3    H125767   5.088   2.475   0.201
 8601TIP3    H225768   5.059   2.349   0.280
 8602TIP3   OH225769   2.345   6.398   0.336
 8602TIP3    H125770   2.303   6.316   0.308
 8602TIP3    H225771   2.284   6.435   0.400
 8603TIP3   OH225772   3.229   0.159   3.092
 8603TIP3    H125773   3.257   0.078   3.051
 8603TIP3    H225774   3.199   0.214   3.020
 8604TIP3   OH225775   5.411   2.445   2.923
 8604TIP3    H125776   5.363   2.518   2.963
 8604TIP3    H225777   5.464   2.410   2.995
 8605TIP3   OH225778   2.087   1.767   3.985
 8605TIP3    H125779   2.005   1.784   3.940
 8605TIP3    H225780   2.142   1.725   3.919
 8606TIP3   OH225781   1.667   3.728   3.151
 8606TIP3    H125782   1.715   3.696   3.227
 8606TIP3    H225783   1.608   3.656   3.128
 8607TIP3   OH225784   1.112   6.071   1.705
 8607TIP3    H125785   1.017   6.064   1.690
 8607TIP3    H225786   1.142   5.980   1.711
 8608TIP3   OH225787   1.752   5.890   1.309
 8608TIP3    H125788   1.791   5.804   1.292
 8608TIP3    H225789   1.823   5.942   1.347
 8609TIP3   OH225790   5.643   0.364   5.280
 8609TIP3    H125791   5.624   0.284   5.230
 8609TIP3    H225792   5.712   0.337   5.342
 8610TIP3   OH225793   2.947   0.224   0.070
 8610TIP3    H125794   2.882   0.288   0.099
 8610TIP3    H225795   2.903   0.139   0.081
 8611TIP3   OH225796   6.976   3.579   3.765
 8611TIP3    H125797   7.052   3.590   3.707
 8611TIP3    H225798   7.005   3.613   3.849
 8612TIP3   OH225799   6.746   4.830   1.160
 8612TIP3    H125800   6.679   4.851   1.225
 8612TIP3    H225801   6.829   4.850   1.203
 8613TIP3   OH225802   3.629   2.872   0.802
 8613TIP3    H125803   3.635   2.780   0.826
 8613TIP3    H225804   3.610   2.872   0.709
 8614TIP3   OH225805   3.614   0.900   2.594
 8614TIP3    H125806   3.587   0.812   2.567
 8614TIP3    H225807   3.533   0.949   2.599
 8615TIP3   OH225808   2.185   0.835   2.529
 8615TIP3    H125809   2.166   0.916   2.576
 8615TIP3    H225810   2.249   0.790   2.583
 8616TIP3   OH225811   3.116   1.308   2.245
 8616TIP3    H125812   3.129   1.402   2.254
 8616TIP3    H225813   3.122   1.292   2.151
 8617TIP3   OH225814   7.176   1.235   1.660
 8617TIP3    H125815   7.205   1.199   1.744
 8617TIP3    H225816   7.182   1.162   1.598
 8618TIP3   OH225817   0.368   1.024   1.605
 8618TIP3    H125818   0.425   0.950   1.624
 8618TIP3    H225819   0.324   1.001   1.523
 8619TIP3   OH225820   5.831   0.925   4.706
 8619TIP3    H125821   5.891   0.935   4.631
 8619TIP3    H225822   5.852   0.839   4.741
 8620TIP3   OH225823   0.583   3.562   5.799
 8620TIP3    H125824   0.606   3.644   5.755
 8620TIP3    H225825   0.592   3.495   5.732
 8621TIP3   OH225826   1.874   6.354   5.399
 8621TIP3    H125827   1.907   6.390   5.481
 8621TIP3    H225828   1.907   6.264   5.398
 8622TIP3   OH225829   5.125   0.466   1.077
 8622TIP3    H125830   5.126   0.503   0.989
 8622TIP3    H225831   5.033   0.443   1.092
 8623TIP3   OH225832   4.288   6.619   4.383
 8623TIP3    H125833   4.283   6.699   4.331
 8623TIP3    H225834   4.248   6.551   4.329
 8624TIP3   OH225835   5.730   2.280   1.862
 8624TIP3    H125836   5.791   2.353   1.869
 8624TIP3    H225837   5.691   2.289   1.775
 8625TIP3   OH225838   1.683   2.211   3.519
 8625TIP3    H125839   1.708   2.289   3.568
 8625TIP3    H225840   1.622   2.243   3.452
 8626TIP3   OH225841   5.381   2.483   5.227
 8626TIP3    H125842   5.459   2.480   5.282
 8626TIP3    H225843   5.334   2.403   5.247
 8627TIP3   OH225844   2.011   5.182   5.847
 8627TIP3    H125845   1.940   5.246   5.839
 8627TIP3    H225846   2.091   5.234   5.833
 8628TIP3   OH225847   1.880   0.110   4.629
 8628TIP3    H125848   1.790   0.137   4.614
 8628TIP3    H225849   1.889   0.029   4.578
 8629TIP3   OH225850   6.655   2.998   1.838
 8629TIP3    H125851   6.593   3.012   1.766
 8629TIP3    H225852   6.633   3.067   1.901
 8630TIP3   OH225853   2.949   0.981   2.292
 8630TIP3    H125854   3.040   1.004   2.271
 8630TIP3    H225855   2.940   0.891   2.263
 8631TIP3   OH225856   2.032   4.143   4.043
 8631TIP3    H125857   2.088   4.149   4.120
 8631TIP3    H225858   2.090   4.112   3.974
 8632TIP3   OH225859   0.654   2.996   1.550
 8632TIP3    H125860   0.658   2.901   1.562
 8632TIP3    H225861   0.692   3.032   1.630
 8633TIP3   OH225862   5.902   4.003   1.542
 8633TIP3    H125863   5.864   3.992   1.629
 8633TIP3    H225864   5.969   4.070   1.553
 8634TIP3   OH225865   7.048   4.954   0.095
 8634TIP3    H125866   7.132   4.982   0.133
 8634TIP3    H225867   6.983   5.005   0.143
 8635TIP3   OH225868   5.597   3.079   2.852
 8635TIP3    H125869   5.555   3.125   2.925
 8635TIP3    H225870   5.547   3.104   2.775
 8636TIP3   OH225871   7.092   4.365   4.404
 8636TIP3    H125872   6.998   4.369   4.416
 8636TIP3    H225873   7.121   4.456   4.403
 8637TIP3   OH225874   4.219   1.995   4.402
 8637TIP3    H125875   4.134   1.974   4.363
 8637TIP3    H225876   4.233   2.087   4.380
 8638TIP3   OH225877   0.638   1.317   3.027
 8638TIP3    H125878   0.591   1.397   3.005
 8638TIP3    H225879   0.641   1.316   3.123
 8639TIP3   OH225880   4.817   0.424   2.268
 8639TIP3    H125881   4.736   0.392   2.228
 8639TIP3    H225882   4.877   0.349   2.264
 8640TIP3   OH225883   4.720   1.809   2.474
 8640TIP3    H125884   4.752   1.768   2.394
 8640TIP3    H225885   4.797   1.814   2.531
 8641TIP3   OH225886   4.818   2.660   2.335
 8641TIP3    H125887   4.882   2.589   2.333
 8641TIP3    H225888   4.844   2.714   2.410
 8642TIP3   OH225889   0.925   4.035   4.096
 8642TIP3    H125890   0.836   4.005   4.117
 8642TIP3    H225891   0.921   4.130   4.104
 8643TIP3   OH225892   4.529   4.480   0.805
 8643TIP3    H125893   4.443   4.473   0.763
 8643TIP3    H225894   4.590   4.487   0.732
 8644TIP3   OH225895   3.073   5.986   3.857
 8644TIP3    H125896   3.063   6.004   3.951
 8644TIP3    H225897   2.985   5.996   3.821
 8645TIP3   OH225898   0.023   2.876   5.367
 8645TIP3    H125899   0.018   2.786   5.337
 8645TIP3    H225900   0.088   2.917   5.310
 8646TIP3   OH225901   3.495   1.240   4.840
 8646TIP3    H125902   3.584   1.217   4.866
 8646TIP3    H225903   3.472   1.173   4.776
 8647TIP3   OH225904   5.710   5.192   2.665
 8647TIP3    H125905   5.799   5.197   2.630
 8647TIP3    H225906   5.711   5.250   2.741
 8648TIP3   OH225907   6.847   3.963   4.860
 8648TIP3    H125908   6.911   3.973   4.789
 8648TIP3    H225909   6.845   3.869   4.877
 8649TIP3   OH225910   0.341   5.736   0.304
 8649TIP3    H125911   0.389   5.663   0.265
 8649TIP3    H225912   0.299   5.697   0.381
 8650TIP3   OH225913   3.064   5.576   1.312
 8650TIP3    H125914   3.037   5.523   1.387
 8650TIP3    H225915   3.065   5.666   1.344
 8651TIP3   OH225916   3.708   3.830   5.736
 8651TIP3    H125917   3.687   3.904   5.679
 8651TIP3    H225918   3.800   3.812   5.721
 8652TIP3   OH225919   0.188   1.664   3.441
 8652TIP3    H125920   0.244   1.671   3.518
 8652TIP3    H225921   0.168   1.571   3.434
 8653TIP3   OH225922   4.397   0.865   4.236
 8653TIP3    H125923   4.473   0.831   4.191
 8653TIP3    H225924   4.408   0.960   4.235
 8654TIP3   OH225925   4.188   1.225   2.524
 8654TIP3    H125926   4.154   1.240   2.612
 8654TIP3    H225927   4.191   1.312   2.484
 8655TIP3   OH225928   3.717   5.250   0.309
 8655TIP3    H125929   3.661   5.310   0.260
 8655TIP3    H225930   3.768   5.204   0.242
 8656TIP3   OH225931   2.480   3.432   3.254
 8656TIP3    H125932   2.501   3.413   3.163
 8656TIP3    H225933   2.386   3.450   3.254
 8657TIP3   OH225934   3.096   1.879   5.744
 8657TIP3    H125935   3.180   1.913   5.774
 8657TIP3    H225936   3.098   1.891   5.649
 8658TIP3   OH225937   2.791   1.025   4.880
 8658TIP3    H125938   2.818   1.104   4.834
 8658TIP3    H225939   2.701   1.043   4.908
 8659TIP3   OH225940   1.786   2.837   4.315
 8659TIP3    H125941   1.830   2.899   4.372
 8659TIP3    H225942   1.696   2.834   4.349
 8660TIP3   OH225943   2.646   4.527   5.216
 8660TIP3    H125944   2.585   4.494   5.283
 8660TIP3    H225945   2.726   4.546   5.265
 8661TIP3   OH225946   3.402   1.052   4.667
 8661TIP3    H125947   3.457   0.975   4.678
 8661TIP3    H225948   3.418   1.081   4.577
 8662TIP3   OH225949   1.680   6.425   4.594
 8662TIP3    H125950   1.676   6.333   4.566
 8662TIP3    H225951   1.591   6.445   4.622
 8663TIP3   OH225952   1.139   0.483   4.817
 8663TIP3    H125953   1.084   0.428   4.874
 8663TIP3    H225954   1.218   0.498   4.868
 8664TIP3   OH225955   3.370   2.008   4.103
 8664TIP3    H125956   3.423   2.087   4.101
 8664TIP3    H225957   3.430   1.938   4.130
 8665TIP3   OH225958   7.160   1.785   3.104
 8665TIP3    H125959   7.218   1.711   3.090
 8665TIP3    H225960   7.202   1.858   3.058
 8666TIP3   OH225961   6.334   4.784   5.422
 8666TIP3    H125962   6.253   4.734   5.432
 8666TIP3    H225963   6.367   4.794   5.511
 8667TIP3   OH225964   1.651   0.098   2.390
 8667TIP3    H125965   1.577   0.146   2.352
 8667TIP3    H225966   1.715   0.093   2.319
 8668TIP3   OH225967   0.584   1.929   4.399
 8668TIP3    H125968   0.587   1.975   4.483
 8668TIP3    H225969   0.552   1.842   4.421
 8669TIP3   OH225970   5.973   5.289   3.593
 8669TIP3    H125971   5.977   5.367   3.648
 8669TIP3    H225972   5.932   5.222   3.649
 8670TIP3   OH225973   0.827   0.060   1.785
 8670TIP3    H125974   0.764   0.091   1.850
 8670TIP3    H225975   0.805  -0.032   1.771
 8671TIP3   OH225976   4.183   1.421   4.594
 8671TIP3    H125977   4.121   1.361   4.636
 8671TIP3    H225978   4.140   1.446   4.512
 8672TIP3   OH225979   1.682   5.554   4.580
 8672TIP3    H125980   1.603   5.603   4.602
 8672TIP3    H225981   1.677   5.475   4.634
 8673TIP3   OH225982   2.243   1.971   3.303
 8673TIP3    H125983   2.301   1.895   3.306
 8673TIP3    H225984   2.158   1.935   3.275
 8674TIP3   OH225985   4.014   5.999   1.667
 8674TIP3    H125986   4.049   6.003   1.578
 8674TIP3    H225987   3.958   5.921   1.668
 8675TIP3   OH225988   2.899   0.779   4.855
 8675TIP3    H125989   2.838   0.740   4.792
 8675TIP3    H225990   2.880   0.873   4.851
 8676TIP3   OH225991   0.431   0.907   0.391
 8676TIP3    H125992   0.428   0.908   0.486
 8676TIP3    H225993   0.458   0.996   0.367
 8677TIP3   OH225994   0.231   1.948   4.690
 8677TIP3    H125995   0.214   2.041   4.673
 8677TIP3    H225996   0.193   1.903   4.614
 8678TIP3   OH225997   2.180   4.003   2.015
 8678TIP3    H125998   2.097   4.016   2.060
 8678TIP3    H225999   2.225   3.935   2.065
 8679TIP3   OH226000   4.590   1.818   3.848
 8679TIP3    H126001   4.646   1.895   3.855
 8679TIP3    H226002   4.504   1.852   3.826
 8680TIP3   OH226003   4.227   5.751   0.938
 8680TIP3    H126004   4.153   5.713   0.986
 8680TIP3    H226005   4.273   5.805   1.003
 8681TIP3   OH226006   5.277   6.746   3.302
 8681TIP3    H126007   5.248   6.680   3.366
 8681TIP3    H226008   5.259   6.706   3.217
 8682TIP3   OH226009   2.732   5.470   5.505
 8682TIP3    H126010   2.795   5.431   5.567
 8682TIP3    H226011   2.785   5.502   5.433
 8683TIP3   OH226012   7.215   0.488   0.990
 8683TIP3    H126013   7.146   0.422   0.994
 8683TIP3    H226014   7.185   0.552   0.926
 8684TIP3   OH226015   1.380   2.438   0.823
 8684TIP3    H126016   1.311   2.375   0.804
 8684TIP3    H226017   1.335   2.514   0.858
 8685TIP3   OH226018   5.674   1.946   3.563
 8685TIP3    H126019   5.612   1.880   3.596
 8685TIP3    H226020   5.749   1.941   3.622
 8686TIP3   OH226021   6.685   3.419   4.045
 8686TIP3    H126022   6.713   3.435   4.135
 8686TIP3    H226023   6.601   3.374   4.054
 8687TIP3   OH226024   4.457   2.407   1.706
 8687TIP3    H126025   4.422   2.459   1.634
 8687TIP3    H226026   4.427   2.453   1.785
 8688TIP3   OH226027   1.445   0.377   4.344
 8688TIP3    H126028   1.387   0.446   4.377
 8688TIP3    H226029   1.387   0.301   4.333
 8689TIP3   OH226030   6.240   5.340   3.624
 8689TIP3    H126031   6.193   5.323   3.706
 8689TIP3    H226032   6.224   5.433   3.607
 8690TIP3   OH226033   5.013   5.751   2.726
 8690TIP3    H126034   5.070   5.745   2.649
 8690TIP3    H226035   4.966   5.834   2.713
 8691TIP3   OH226036   3.473   0.163   5.320
 8691TIP3    H126037   3.503   0.072   5.322
 8691TIP3    H226038   3.541   0.212   5.368
 8692TIP3   OH226039   4.643   3.212   0.637
 8692TIP3    H126040   4.717   3.269   0.614
 8692TIP3    H226041   4.575   3.272   0.667
 8693TIP3   OH226042   6.023   5.946   3.531
 8693TIP3    H126043   6.045   6.006   3.459
 8693TIP3    H226044   6.033   5.859   3.492
 8694TIP3   OH226045   0.628   4.918   3.110
 8694TIP3    H126046   0.696   4.985   3.106
 8694TIP3    H226047   0.674   4.838   3.134
 8695TIP3   OH226048   4.572   0.246   2.848
 8695TIP3    H126049   4.479   0.226   2.862
 8695TIP3    H226050   4.576   0.276   2.757
 8696TIP3   OH226051   5.188   0.139   2.047
 8696TIP3    H126052   5.142   0.055   2.044
 8696TIP3    H226053   5.229   0.146   1.961
 8697TIP3   OH226054   5.638   6.643   3.760
 8697TIP3    H126055   5.718   6.618   3.806
 8697TIP3    H226056   5.668   6.680   3.677
 8698TIP3   OH226057   5.298   3.320   5.695
 8698TIP3    H126058   5.283   3.380   5.622
 8698TIP3    H226059   5.308   3.235   5.654
 8699TIP3   OH226060   5.656   1.539   1.062
 8699TIP3    H126061   5.675   1.563   1.153
 8699TIP3    H226062   5.741   1.516   1.025
 8700TIP3   OH226063   2.725   5.838   1.599
 8700TIP3    H126064   2.767   5.805   1.520
 8700TIP3    H226065   2.633   5.814   1.589
 8701TIP3   OH226066   0.547   5.569   2.183
 8701TIP3    H126067   0.630   5.529   2.208
 8701TIP3    H226068   0.528   5.535   2.096
 8702TIP3   OH226069   1.023   0.390   0.815
 8702TIP3    H126070   0.994   0.330   0.746
 8702TIP3    H226071   1.118   0.392   0.807
 8703TIP3   OH226072   0.836   0.395   1.857
 8703TIP3    H126073   0.908   0.365   1.802
 8703TIP3    H226074   0.863   0.481   1.889
 8704TIP3   OH226075   4.472   0.724   3.020
 8704TIP3    H126076   4.495   0.816   3.028
 8704TIP3    H226077   4.509   0.683   3.098
 8705TIP3   OH226078   3.841   4.883   1.064
 8705TIP3    H126079   3.827   4.922   1.150
 8705TIP3    H226080   3.788   4.936   1.004
 8706TIP3   OH226081   0.935   2.284   3.194
 8706TIP3    H126082   0.929   2.194   3.164
 8706TIP3    H226083   1.022   2.291   3.233
 8707TIP3   OH226084   3.712   2.011   4.168
 8707TIP3    H126085   3.665   1.946   4.220
 8707TIP3    H226086   3.646   2.076   4.146
 8708TIP3   OH226087   1.923   5.677   4.159
 8708TIP3    H126088   1.945   5.756   4.210
 8708TIP3    H226089   1.942   5.604   4.219
 8709TIP3   OH226090   2.544   2.038   2.520
 8709TIP3    H126091   2.547   2.015   2.427
 8709TIP3    H226092   2.474   1.984   2.556
 8710TIP3   OH226093   2.040   5.718   2.184
 8710TIP3    H126094   2.099   5.694   2.113
 8710TIP3    H226095   1.958   5.673   2.164
 8711TIP3   OH226096   4.019   2.817   2.193
 8711TIP3    H126097   3.947   2.823   2.256
 8711TIP3    H226098   4.094   2.856   2.238
 8712TIP3   OH226099   6.562   5.195   5.608
 8712TIP3    H126100   6.617   5.186   5.686
 8712TIP3    H226101   6.623   5.215   5.537
 8713TIP3   OH226102   4.965   5.120   3.449
 8713TIP3    H126103   4.972   5.185   3.380
 8713TIP3    H226104   4.943   5.039   3.403
 8714TIP3   OH226105   3.106   2.905   3.548
 8714TIP3    H126106   3.159   2.980   3.521
 8714TIP3    H226107   3.133   2.835   3.489
 8715TIP3   OH226108   2.882   0.646   3.310
 8715TIP3    H126109   2.840   0.562   3.294
 8715TIP3    H226110   2.906   0.644   3.403
 8716TIP3   OH226111   4.732   2.236   5.443
 8716TIP3    H126112   4.683   2.306   5.400
 8716TIP3    H226113   4.783   2.280   5.511
 8717TIP3   OH226114   5.261   0.604   0.189
 8717TIP3    H126115   5.306   0.689   0.193
 8717TIP3    H226116   5.331   0.539   0.186
 8718TIP3   OH226117   6.121   4.806   5.634
 8718TIP3    H126118   6.129   4.902   5.641
 8718TIP3    H226119   6.037   4.787   5.675
 8719TIP3   OH226120   2.068   0.887   2.144
 8719TIP3    H126121   2.076   0.960   2.082
 8719TIP3    H226122   2.006   0.919   2.210
 8720TIP3   OH226123   3.332   6.764   4.126
 8720TIP3    H126124   3.408   6.709   4.142
 8720TIP3    H226125   3.345   6.798   4.037
 8721TIP3   OH226126   0.596   5.656   0.575
 8721TIP3    H126127   0.642   5.573   0.593
 8721TIP3    H226128   0.623   5.679   0.486
 8722TIP3   OH226129   0.304   1.927   1.199
 8722TIP3    H126130   0.245   1.982   1.147
 8722TIP3    H226131   0.368   1.894   1.136
 8723TIP3   OH226132   6.633   4.744   2.542
 8723TIP3    H126133   6.562   4.728   2.604
 8723TIP3    H226134   6.706   4.774   2.595
 8724TIP3   OH226135   5.471   0.992   0.526
 8724TIP3    H126136   5.514   0.915   0.565
 8724TIP3    H226137   5.516   1.006   0.444
 8725TIP3   OH226138   6.269   3.840   3.796
 8725TIP3    H126139   6.215   3.813   3.722
 8725TIP3    H226140   6.277   3.935   3.787
 8726TIP3   OH226141   3.529   0.122   0.489
 8726TIP3    H126142   3.478   0.091   0.563
 8726TIP3    H226143   3.473   0.107   0.413
 8727TIP3   OH226144   6.009   4.775   2.065
 8727TIP3    H126145   6.032   4.697   2.116
 8727TIP3    H226146   5.966   4.741   1.987
 8728TIP3   OH226147   6.922   3.814   4.222
 8728TIP3    H126148   6.998   3.852   4.178
 8728TIP3    H226149   6.859   3.797   4.152
 8729TIP3   OH226150   0.016   3.233   4.533
 8729TIP3    H126151   0.095   3.286   4.534
 8729TIP3    H226152  -0.018   3.238   4.622
 8730TIP3   OH226153   4.139   1.460   1.193
 8730TIP3    H126154   4.200   1.413   1.135
 8730TIP3    H226155   4.052   1.433   1.163
 8731TIP3   OH226156   0.785   4.046   1.935
 8731TIP3    H126157   0.797   3.998   2.017
 8731TIP3    H226158   0.787   3.979   1.867
 8732TIP3   OH226159   3.671   1.988   2.754
 8732TIP3    H126160   3.670   2.070   2.705
 8732TIP3    H226161   3.602   1.935   2.713
 8733TIP3   OH226162   0.203   3.824   5.578
 8733TIP3    H126163   0.108   3.817   5.590
 8733TIP3    H226164   0.238   3.833   5.667
 8734TIP3   OH226165   6.608   3.314   4.436
 8734TIP3    H126166   6.551   3.358   4.499
 8734TIP3    H226167   6.565   3.230   4.420
 8735TIP3   OH226168   6.403   0.143   4.262
 8735TIP3    H126169   6.359   0.228   4.275
 8735TIP3    H226170   6.464   0.136   4.335
 8736TIP3   OH226171   4.581   3.715   1.057
 8736TIP3    H126172   4.633   3.691   1.134
 8736TIP3    H226173   4.606   3.650   0.991
 8737TIP3   OH226174   5.957   0.768   1.669
 8737TIP3    H126175   5.997   0.727   1.593
 8737TIP3    H226176   5.913   0.846   1.634
 8738TIP3   OH226177   5.026   1.811   4.447
 8738TIP3    H126178   5.027   1.797   4.353
 8738TIP3    H226179   4.939   1.782   4.475
 8739TIP3   OH226180   6.627   4.749   1.462
 8739TIP3    H126181   6.583   4.744   1.546
 8739TIP3    H226182   6.657   4.840   1.456
 8740TIP3   OH226183   1.872   3.003   3.437
 8740TIP3    H126184   1.810   3.001   3.364
 8740TIP3    H226185   1.819   2.983   3.514
 8741TIP3   OH226186   0.599   5.654   4.258
 8741TIP3    H126187   0.652   5.694   4.188
 8741TIP3    H226188   0.514   5.698   4.251
 8742TIP3   OH226189   5.983   4.792   4.441
 8742TIP3    H126190   6.066   4.745   4.434
 8742TIP3    H226191   5.918   4.724   4.452
 8743TIP3   OH226192   0.138   6.572   2.123
 8743TIP3    H126193   0.120   6.483   2.152
 8743TIP3    H226194   0.112   6.627   2.198
 8744TIP3   OH226195   3.413   5.629   5.303
 8744TIP3    H126196   3.461   5.682   5.239
 8744TIP3    H226197   3.447   5.658   5.388
 8745TIP3   OH226198   2.629   4.757   2.326
 8745TIP3    H126199   2.577   4.837   2.312
 8745TIP3    H226200   2.720   4.786   2.320
 8746TIP3   OH226201   4.445   2.517   5.034
 8746TIP3    H126202   4.440   2.606   5.068
 8746TIP3    H226203   4.453   2.528   4.939
 8747TIP3   OH226204   1.348   0.944   1.602
 8747TIP3    H126205   1.371   0.975   1.514
 8747TIP3    H226206   1.430   0.946   1.650
 8748TIP3   OH226207   1.253   1.474   5.365
 8748TIP3    H126208   1.341   1.461   5.328
 8748TIP3    H226209   1.265   1.540   5.432
 8749TIP3   OH226210   3.390   4.469   0.417
 8749TIP3    H126211   3.315   4.410   0.413
 8749TIP3    H226212   3.401   4.488   0.510
 8750TIP3   OH226213   0.077   3.286   1.751
 8750TIP3    H126214   0.071   3.323   1.663
 8750TIP3    H226215  -0.012   3.257   1.770
 8751TIP3   OH226216   2.596   5.389   4.320
 8751TIP3    H126217   2.562   5.399   4.231
 8751TIP3    H226218   2.543   5.320   4.358
 8752TIP3   OH226219   0.018   6.255   2.420
 8752TIP3    H126220  -0.002   6.215   2.336
 8752TIP3    H226221   0.078   6.327   2.399
 8753TIP3   OH226222   0.260   0.361   1.566
 8753TIP3    H126223   0.229   0.447   1.595
 8753TIP3    H226224   0.332   0.380   1.505
 8754TIP3   OH226225   5.703   4.460   4.946
 8754TIP3    H126226   5.689   4.530   4.882
 8754TIP3    H226227   5.619   4.413   4.948
 8755TIP3   OH226228   6.751   0.795   4.341
 8755TIP3    H126229   6.721   0.763   4.256
 8755TIP3    H226230   6.685   0.766   4.403
 8756TIP3   OH226231   7.074   2.298   4.840
 8756TIP3    H126232   7.008   2.357   4.876
 8756TIP3    H226233   7.041   2.277   4.752
 8757TIP3   OH226234   2.992   0.211   2.781
 8757TIP3    H126235   3.009   0.120   2.758
 8757TIP3    H226236   2.900   0.212   2.808
 8758TIP3   OH226237   3.176   4.400   4.054
 8758TIP3    H126238   3.238   4.327   4.052
 8758TIP3    H226239   3.094   4.361   4.086
 8759TIP3   OH226240   0.970   1.360   1.736
 8759TIP3    H126241   0.956   1.270   1.762
 8759TIP3    H226242   0.930   1.413   1.805
 8760TIP3   OH226243   6.736   6.022   5.719
 8760TIP3    H126244   6.680   6.033   5.642
 8760TIP3    H226245   6.820   5.994   5.683
 8761TIP3   OH226246   0.404   2.655   1.845
 8761TIP3    H126247   0.408   2.729   1.784
 8761TIP3    H226248   0.472   2.673   1.910
 8762TIP3   OH226249   3.212   6.443   0.961
 8762TIP3    H126250   3.221   6.355   0.997
 8762TIP3    H226251   3.161   6.432   0.881
 8763TIP3   OH226252   4.263   3.188   3.669
 8763TIP3    H126253   4.172   3.173   3.696
 8763TIP3    H226254   4.285   3.273   3.706
 8764TIP3   OH226255   0.533   2.756   0.660
 8764TIP3    H126256   0.598   2.799   0.605
 8764TIP3    H226257   0.496   2.826   0.713
 8765TIP3   OH226258   7.205   4.873   0.429
 8765TIP3    H126259   7.155   4.827   0.497
 8765TIP3    H226260   7.184   4.965   0.442
 8766TIP3   OH226261   4.886   2.214   2.135
 8766TIP3    H126262   4.816   2.234   2.197
 8766TIP3    H226263   4.909   2.123   2.154
 8767TIP3   OH226264   2.545   0.869   1.640
 8767TIP3    H126265   2.601   0.792   1.642
 8767TIP3    H226266   2.466   0.842   1.594
 8768TIP3   OH226267   0.351   1.094   2.121
 8768TIP3    H126268   0.412   1.025   2.095
 8768TIP3    H226269   0.377   1.170   2.069
 8769TIP3   OH226270   6.327   1.926   1.086
 8769TIP3    H126271   6.333   2.019   1.109
 8769TIP3    H226272   6.247   1.920   1.033
 8770TIP3   OH226273   0.587   1.670   3.000
 8770TIP3    H126274   0.555   1.757   3.022
 8770TIP3    H226275   0.632   1.681   2.917
 8771TIP3   OH226276   4.175   4.306   4.509
 8771TIP3    H126277   4.099   4.328   4.562
 8771TIP3    H226278   4.219   4.237   4.559
 8772TIP3   OH226279   4.414   3.201   0.169
 8772TIP3    H126280   4.367   3.262   0.226
 8772TIP3    H226281   4.468   3.149   0.229
 8773TIP3   OH226282   5.440   2.054   0.088
 8773TIP3    H126283   5.351   2.075   0.062
 8773TIP3    H226284   5.462   1.976   0.036
 8774TIP3   OH226285   3.897   1.394   1.072
 8774TIP3    H126286   3.817   1.352   1.103
 8774TIP3    H226287   3.933   1.333   1.007
 8775TIP3   OH226288   1.055   2.688   3.509
 8775TIP3    H126289   1.110   2.666   3.434
 8775TIP3    H226290   1.017   2.604   3.536
 8776TIP3   OH226291   0.755   6.381   4.296
 8776TIP3    H126292   0.775   6.291   4.322
 8776TIP3    H226293   0.660   6.382   4.282
 8777TIP3   OH226294   0.712   2.285   5.260
 8777TIP3    H126295   0.692   2.210   5.316
 8777TIP3    H226296   0.807   2.284   5.251
 8778TIP3   OH226297   0.174   2.898   2.424
 8778TIP3    H126298   0.169   2.947   2.342
 8778TIP3    H226299   0.262   2.917   2.458
 8779TIP3   OH226300   0.963   0.019   0.331
 8779TIP3    H126301   0.879  -0.022   0.312
 8779TIP3    H226302   0.978   0.078   0.257
 8780TIP3   OH226303   2.216   2.229   5.169
 8780TIP3    H126304   2.176   2.176   5.101
 8780TIP3    H226305   2.310   2.209   5.164
 8781TIP3   OH226306   2.157   4.796   4.746
 8781TIP3    H126307   2.170   4.709   4.709
 8781TIP3    H226308   2.186   4.856   4.677
 8782TIP3   OH226309   0.106   0.797   4.887
 8782TIP3    H126310   0.091   0.837   4.801
 8782TIP3    H226311   0.121   0.705   4.868
 8783TIP3   OH226312   1.897   6.694   2.219
 8783TIP3    H126313   1.937   6.655   2.142
 8783TIP3    H226314   1.880   6.620   2.277
 8784TIP3   OH226315   1.300   3.022   1.163
 8784TIP3    H126316   1.208   3.001   1.180
 8784TIP3    H226317   1.336   2.941   1.127
 8785TIP3   OH226318   1.559   5.358   3.160
 8785TIP3    H126319   1.639   5.312   3.136
 8785TIP3    H226320   1.502   5.348   3.084
 8786TIP3   OH226321   2.283   1.527   4.316
 8786TIP3    H126322   2.273   1.439   4.352
 8786TIP3    H226323   2.250   1.520   4.226
 8787TIP3   OH226324   0.675   2.527   0.759
 8787TIP3    H126325   0.614   2.596   0.733
 8787TIP3    H226326   0.660   2.457   0.695
 8788TIP3   OH226327   7.022   2.690   4.798
 8788TIP3    H126328   7.102   2.684   4.851
 8788TIP3    H226329   6.968   2.617   4.830
 8789TIP3   OH226330   5.102   3.483   5.257
 8789TIP3    H126331   5.154   3.523   5.188
 8789TIP3    H226332   5.126   3.390   5.255
 8790TIP3   OH226333   4.803   5.358   3.812
 8790TIP3    H126334   4.769   5.271   3.834
 8790TIP3    H226335   4.807   5.404   3.895
 8791TIP3   OH226336   6.475   2.461   5.295
 8791TIP3    H126337   6.493   2.389   5.355
 8791TIP3    H226338   6.538   2.529   5.319
 8792TIP3   OH226339   6.593   5.683   1.596
 8792TIP3    H126340   6.614   5.606   1.647
 8792TIP3    H226341   6.538   5.651   1.524
 8793TIP3   OH226342   6.283   3.902   4.193
 8793TIP3    H126343   6.309   3.856   4.273
 8793TIP3    H226344   6.331   3.985   4.197
 8794TIP3   OH226345   2.043   1.154   3.390
 8794TIP3    H126346   1.977   1.210   3.348
 8794TIP3    H226347   2.118   1.157   3.330
 8795TIP3   OH226348   0.625   2.745   1.633
 8795TIP3    H126349   0.593   2.700   1.555
 8795TIP3    H226350   0.704   2.698   1.657
 8796TIP3   OH226351   1.222   3.881   4.521
 8796TIP3    H126352   1.185   3.882   4.432
 8796TIP3    H226353   1.269   3.798   4.525
 8797TIP3   OH226354   1.565   6.039   4.846
 8797TIP3    H126355   1.566   6.131   4.871
 8797TIP3    H226356   1.634   5.999   4.900
 8798TIP3   OH226357   1.783   2.173   1.782
 8798TIP3    H126358   1.752   2.109   1.845
 8798TIP3    H226359   1.869   2.140   1.754
 8799TIP3   OH226360   4.327   0.375   3.632
 8799TIP3    H126361   4.237   0.397   3.656
 8799TIP3    H226362   4.378   0.394   3.711
 8800TIP3   OH226363   0.464   3.108   5.546
 8800TIP3    H126364   0.545   3.149   5.516
 8800TIP3    H226365   0.450   3.142   5.634
 8801TIP3   OH226366   0.459   6.407   3.080
 8801TIP3    H126367   0.428   6.373   3.164
 8801TIP3    H226368   0.420   6.349   3.014
 8802TIP3   OH226369   5.526   5.327   2.120
 8802TIP3    H126370   5.560   5.386   2.052
 8802TIP3    H226371   5.591   5.332   2.190
 8803TIP3   OH226372   0.652   4.867   1.747
 8803TIP3    H126373   0.680   4.776   1.758
 8803TIP3    H226374   0.713   4.917   1.801
 8804TIP3   OH226375   0.258   2.820   2.037
 8804TIP3    H126376   0.304   2.748   1.993
 8804TIP3    H226377   0.211   2.865   1.967
 8805TIP3   OH226378   7.046   4.901   2.250
 8805TIP3    H126379   6.984   4.846   2.299
 8805TIP3    H226380   7.112   4.839   2.218
 8806TIP3   OH226381   4.201   2.491   0.062
 8806TIP3    H126382   4.110   2.506   0.036
 8806TIP3    H226383   4.253   2.530  -0.009
 8807TIP3   OH226384   6.964   0.913   0.035
 8807TIP3    H126385   6.986   0.921  -0.058
 8807TIP3    H226386   6.871   0.892   0.037
 8808TIP3   OH226387   6.060   4.624   2.302
 8808TIP3    H126388   6.068   4.717   2.323
 8808TIP3    H226389   6.123   4.580   2.359
 8809TIP3   OH226390   0.092   0.694   0.591
 8809TIP3    H126391   0.092   0.715   0.497
 8809TIP3    H226392   0.181   0.663   0.608
 8810TIP3   OH226393   0.594   2.051   3.650
 8810TIP3    H126394   0.551   1.993   3.713
 8810TIP3    H226395   0.532   2.058   3.577
 8811TIP3   OH226396   4.232   3.826   1.542
 8811TIP3    H126397   4.208   3.759   1.478
 8811TIP3    H226398   4.194   3.794   1.624
 8812TIP3   OH226399   2.359   0.197   0.883
 8812TIP3    H126400   2.429   0.145   0.844
 8812TIP3    H226401   2.405   0.261   0.938
 8813TIP3   OH226402   0.383   2.790   1.030
 8813TIP3    H126403   0.372   2.875   0.988
 8813TIP3    H226404   0.466   2.756   0.997
 8814TIP3   OH226405   0.208   0.598   2.084
 8814TIP3    H126406   0.279   0.547   2.046
 8814TIP3    H226407   0.219   0.686   2.047
 8815TIP3   OH226408   7.195   0.583   4.522
 8815TIP3    H126409   7.143   0.653   4.482
 8815TIP3    H226410   7.143   0.504   4.508
 8816TIP3   OH226411   5.203   6.732   2.111
 8816TIP3    H126412   5.212   6.719   2.016
 8816TIP3    H226413   5.207   6.643   2.147
 8817TIP3   OH226414   0.192   6.085   3.205
 8817TIP3    H126415   0.246   6.157   3.238
 8817TIP3    H226416   0.249   6.038   3.144
 8818TIP3   OH226417   7.144   1.064   3.566
 8818TIP3    H126418   7.203   1.094   3.497
 8818TIP3    H226419   7.058   1.099   3.542
 8819TIP3   OH226420   1.622   3.716   2.199
 8819TIP3    H126421   1.562   3.642   2.210
 8819TIP3    H226422   1.634   3.751   2.287
 8820TIP3   OH226423   4.717   5.099   3.928
 8820TIP3    H126424   4.707   5.124   4.020
 8820TIP3    H226425   4.705   5.004   3.928
 8821TIP3   OH226426   4.568   0.679   5.383
 8821TIP3    H126427   4.618   0.691   5.302
 8821TIP3    H226428   4.628   0.635   5.442
 8822TIP3   OH226429   6.177   5.048   4.891
 8822TIP3    H126430   6.180   5.141   4.870
 8822TIP3    H226431   6.126   5.009   4.820
 8823TIP3   OH226432   6.195   2.294   5.467
 8823TIP3    H126433   6.243   2.219   5.500
 8823TIP3    H226434   6.103   2.273   5.483
 8824TIP3   OH226435   1.540   6.287   0.856
 8824TIP3    H126436   1.489   6.283   0.936
 8824TIP3    H226437   1.631   6.282   0.886
 8825TIP3   OH226438   4.662   0.993   0.139
 8825TIP3    H126439   4.713   1.059   0.186
 8825TIP3    H226440   4.663   0.917   0.196
 8826TIP3   OH226441   0.659   0.179   5.333
 8826TIP3    H126442   0.607   0.171   5.253
 8826TIP3    H226443   0.671   0.089   5.362
 8827TIP3   OH226444   5.769   3.375   5.061
 8827TIP3    H126445   5.815   3.347   4.982
 8827TIP3    H226446   5.801   3.463   5.078
 8828TIP3   OH226447   2.953   4.278   4.220
 8828TIP3    H126448   2.950   4.183   4.237
 8828TIP3    H226449   2.867   4.309   4.247
 8829TIP3   OH226450   0.144   1.483   5.387
 8829TIP3    H126451   0.067   1.494   5.443
 8829TIP3    H226452   0.120   1.415   5.325
 8830TIP3   OH226453   5.247   2.386   0.589
 8830TIP3    H126454   5.312   2.437   0.541
 8830TIP3    H226455   5.225   2.439   0.665
 8831TIP3   OH226456   0.608   6.431   3.367
 8831TIP3    H126457   0.685   6.378   3.349
 8831TIP3    H226458   0.640   6.505   3.419
 8832TIP3   OH226459   1.211   5.955   3.801
 8832TIP3    H126460   1.268   6.029   3.820
 8832TIP3    H226461   1.204   5.954   3.705
 8833TIP3   OH226462   5.269   5.206   3.359
 8833TIP3    H126463   5.227   5.283   3.321
 8833TIP3    H226464   5.284   5.229   3.450
 8834TIP3   OH226465   6.916   4.990   0.826
 8834TIP3    H126466   6.947   5.072   0.788
 8834TIP3    H226467   6.843   5.016   0.883
 8835TIP3   OH226468   1.090   0.039   4.972
 8835TIP3    H126469   1.184   0.036   4.988
 8835TIP3    H226470   1.075  -0.027   4.904
 8836TIP3   OH226471   0.480   1.355   1.430
 8836TIP3    H126472   0.546   1.409   1.386
 8836TIP3    H226473   0.529   1.308   1.498
 8837TIP3   OH226474   2.510   5.279   4.802
 8837TIP3    H126475   2.511   5.316   4.890
 8837TIP3    H226476   2.551   5.193   4.811
 8838TIP3   OH226477   6.108   2.881   4.444
 8838TIP3    H126478   6.178   2.932   4.403
 8838TIP3    H226479   6.034   2.942   4.448
 8839TIP3   OH226480   0.949   5.602   4.326
 8839TIP3    H126481   1.027   5.634   4.281
 8839TIP3    H226482   0.911   5.680   4.366
 8840TIP3   OH226483   0.857   3.674   4.426
 8840TIP3    H126484   0.867   3.766   4.400
 8840TIP3    H226485   0.888   3.624   4.351
 8841TIP3   OH226486   2.691   3.351   5.278
 8841TIP3    H126487   2.751   3.301   5.222
 8841TIP3    H226488   2.660   3.288   5.343
 8842TIP3   OH226489   4.906   2.773   4.500
 8842TIP3    H126490   4.928   2.778   4.407
 8842TIP3    H226491   4.866   2.858   4.520
 8843TIP3   OH226492   6.989   1.485   5.000
 8843TIP3    H126493   6.970   1.519   4.912
 8843TIP3    H226494   7.033   1.556   5.045
 8844TIP3   OH226495   2.482   1.854   5.631
 8844TIP3    H126496   2.450   1.794   5.698
 8844TIP3    H226497   2.421   1.927   5.632
 8845TIP3   OH226498   3.238   2.346   5.656
 8845TIP3    H126499   3.179   2.292   5.603
 8845TIP3    H226500   3.310   2.367   5.598
 8846TIP3   OH226501   2.120   1.867   0.330
 8846TIP3    H126502   2.140   1.879   0.237
 8846TIP3    H226503   2.202   1.835   0.368
 8847TIP3   OH226504   5.469   4.419   2.124
 8847TIP3    H126505   5.549   4.462   2.092
 8847TIP3    H226506   5.500   4.361   2.194
 8848TIP3   OH226507   2.869   4.825   0.049
 8848TIP3    H126508   2.838   4.908   0.014
 8848TIP3    H226509   2.874   4.767  -0.026
 8849TIP3   OH226510   2.829   5.233   0.590
 8849TIP3    H126511   2.754   5.178   0.567
 8849TIP3    H226512   2.829   5.302   0.524
 8850TIP3   OH226513   6.497   4.273   4.287
 8850TIP3    H126514   6.580   4.227   4.287
 8850TIP3    H226515   6.485   4.300   4.378
 8851TIP3   OH226516   1.579   3.875   2.421
 8851TIP3    H126517   1.645   3.944   2.427
 8851TIP3    H226518   1.549   3.862   2.511
 8852TIP3   OH226519   4.168   5.788   2.512
 8852TIP3    H126520   4.244   5.815   2.459
 8852TIP3    H226521   4.132   5.870   2.546
 8853TIP3   OH226522   1.847   4.586   1.202
 8853TIP3    H126523   1.796   4.519   1.247
 8853TIP3    H226524   1.930   4.543   1.181
 8854TIP3   OH226525   5.619   3.761   0.072
 8854TIP3    H126526   5.656   3.673   0.078
 8854TIP3    H226527   5.540   3.757   0.126
 8855TIP3   OH226528   1.934   6.000   1.481
 8855TIP3    H126529   1.954   5.934   1.547
 8855TIP3    H226530   1.891   6.070   1.530
 8856TIP3   OH226531   1.338   1.918   3.974
 8856TIP3    H126532   1.403   1.851   3.951
 8856TIP3    H226533   1.307   1.892   4.061
 8857TIP3   OH226534   3.008   1.282   3.578
 8857TIP3    H126535   3.016   1.214   3.645
 8857TIP3    H226536   2.933   1.334   3.607
 8858TIP3   OH226537   7.114   0.838   1.260
 8858TIP3    H126538   7.176   0.766   1.275
 8858TIP3    H226539   7.119   0.854   1.166
 8859TIP3   OH226540   5.969   6.117   4.419
 8859TIP3    H126541   6.021   6.040   4.399
 8859TIP3    H226542   6.019   6.190   4.384
 8860TIP3   OH226543   2.014   4.686   5.573
 8860TIP3    H126544   2.104   4.705   5.601
 8860TIP3    H226545   1.989   4.762   5.521
 8861TIP3   OH226546   2.554   6.198   2.253
 8861TIP3    H126547   2.498   6.234   2.184
 8861TIP3    H226548   2.580   6.112   2.221
 8862TIP3   OH226549   2.121   3.768   3.417
 8862TIP3    H126550   2.179   3.844   3.429
 8862TIP3    H226551   2.110   3.732   3.505
 8863TIP3   OH226552   3.717   2.550   4.521
 8863TIP3    H126553   3.777   2.528   4.449
 8863TIP3    H226554   3.738   2.640   4.544
 8864TIP3   OH226555   4.912   4.824   0.846
 8864TIP3    H126556   4.919   4.873   0.764
 8864TIP3    H226557   4.820   4.831   0.871
 8865TIP3   OH226558   4.901   3.948   1.146
 8865TIP3    H126559   4.810   3.977   1.157
 8865TIP3    H226560   4.893   3.863   1.102
 8866TIP3   OH226561   0.410   2.410   4.756
 8866TIP3    H126562   0.505   2.403   4.770
 8866TIP3    H226563   0.371   2.384   4.840
 8867TIP3   OH226564   0.493   1.756   5.780
 8867TIP3    H126565   0.572   1.764   5.727
 8867TIP3    H226566   0.461   1.845   5.789
 8868TIP3   OH226567   6.934   4.879   4.612
 8868TIP3    H126568   6.956   4.876   4.518
 8868TIP3    H226569   6.976   4.802   4.649
 8869TIP3   OH226570   4.558   3.158   2.709
 8869TIP3    H126571   4.491   3.201   2.656
 8869TIP3    H226572   4.580   3.079   2.659
 8870TIP3   OH226573   1.052   4.800   3.347
 8870TIP3    H126574   1.145   4.781   3.360
 8870TIP3    H226575   1.051   4.886   3.305
 8871TIP3   OH226576   6.712   1.979   0.815
 8871TIP3    H126577   6.734   1.988   0.722
 8871TIP3    H226578   6.709   1.885   0.830
 8872TIP3   OH226579   6.096   2.534   1.486
 8872TIP3    H126580   6.186   2.507   1.467
 8872TIP3    H226581   6.057   2.554   1.401
 8873TIP3   OH226582   5.303  -0.011   2.995
 8873TIP3    H126583   5.232   0.005   3.057
 8873TIP3    H226584   5.374   0.046   3.025
 8874TIP3   OH226585   3.027   5.355   3.325
 8874TIP3    H126586   2.964   5.379   3.257
 8874TIP3    H226587   3.057   5.267   3.300
 8875TIP3   OH226588   3.454   2.201   4.773
 8875TIP3    H126589   3.396   2.140   4.819
 8875TIP3    H226590   3.415   2.210   4.686
 8876TIP3   OH226591   3.323   1.181   3.713
 8876TIP3    H126592   3.397   1.178   3.774
 8876TIP3    H226593   3.246   1.167   3.768
 8877TIP3   OH226594   3.368   2.945   3.233
 8877TIP3    H126595   3.409   2.868   3.194
 8877TIP3    H226596   3.416   2.960   3.314
 8878TIP3   OH226597   1.155   0.126   3.610
 8878TIP3    H126598   1.129   0.196   3.670
 8878TIP3    H226599   1.250   0.125   3.614
 8879TIP3   OH226600   5.676   5.524   0.759
 8879TIP3    H126601   5.664   5.584   0.685
 8879TIP3    H226602   5.674   5.581   0.836
 8880TIP3   OH226603   2.254   4.857   0.673
 8880TIP3    H126604   2.336   4.907   0.671
 8880TIP3    H226605   2.186   4.923   0.686
 8881TIP3   OH226606   2.678   0.913   5.420
 8881TIP3    H126607   2.638   0.829   5.394
 8881TIP3    H226608   2.746   0.928   5.355
 8882TIP3   OH226609   5.814   3.406   5.860
 8882TIP3    H126610   5.744   3.449   5.909
 8882TIP3    H226611   5.773   3.376   5.780
 8883TIP3   OH226612   0.368   4.310   0.059
 8883TIP3    H126613   0.422   4.369   0.006
 8883TIP3    H226614   0.393   4.222   0.030
 8884TIP3   OH226615   0.125   6.550   3.681
 8884TIP3    H126616   0.116   6.578   3.772
 8884TIP3    H226617   0.081   6.619   3.631
 8885TIP3   OH226618   3.186   0.109   5.575
 8885TIP3    H126619   3.248   0.041   5.601
 8885TIP3    H226620   3.223   0.190   5.609
 8886TIP3   OH226621   2.310   3.388   0.767
 8886TIP3    H126622   2.320   3.390   0.862
 8886TIP3    H226623   2.365   3.315   0.738
 8887TIP3   OH226624   4.667   1.409   3.490
 8887TIP3    H126625   4.696   1.446   3.406
 8887TIP3    H226626   4.695   1.473   3.555
 8888TIP3   OH226627   3.662   5.581   0.583
 8888TIP3    H126628   3.697   5.634   0.512
 8888TIP3    H226629   3.661   5.639   0.659
 8889TIP3   OH226630   6.233   0.103   0.362
 8889TIP3    H126631   6.207   0.194   0.344
 8889TIP3    H226632   6.286   0.109   0.441
 8890TIP3   OH226633   2.985   1.329   4.857
 8890TIP3    H126634   2.988   1.392   4.929
 8890TIP3    H226635   3.013   1.246   4.897
 8891TIP3   OH226636   1.171   3.998   3.512
 8891TIP3    H126637   1.201   3.911   3.538
 8891TIP3    H226638   1.182   4.051   3.592
 8892TIP3   OH226639   5.277   6.099   4.583
 8892TIP3    H126640   5.201   6.069   4.532
 8892TIP3    H226641   5.250   6.091   4.674
 8893TIP3   OH226642   5.640   0.343   0.669
 8893TIP3    H126643   5.583   0.398   0.723
 8893TIP3    H226644   5.612   0.361   0.579
 8894TIP3   OH226645   1.230   4.022   1.895
 8894TIP3    H126646   1.201   4.060   1.978
 8894TIP3    H226647   1.274   4.093   1.850
 8895TIP3   OH226648   3.943   4.810   1.644
 8895TIP3    H126649   3.986   4.753   1.580
 8895TIP3    H226650   4.015   4.848   1.694
 8896TIP3   OH226651   6.879   3.243   4.308
 8896TIP3    H126652   6.837   3.177   4.253
 8896TIP3    H226653   6.813   3.311   4.318
 8897TIP3   OH226654   2.953   5.635   5.711
 8897TIP3    H126655   2.963   5.655   5.617
 8897TIP3    H226656   2.876   5.685   5.737
 8898TIP3   OH226657   1.077   5.814   2.904
 8898TIP3    H126658   1.007   5.834   2.966
 8898TIP3    H226659   1.141   5.884   2.917
 8899TIP3   OH226660   7.124   6.460   4.071
 8899TIP3    H126661   7.035   6.496   4.075
 8899TIP3    H226662   7.169   6.517   4.008
 8900TIP3   OH226663   6.240   5.240   4.715
 8900TIP3    H126664   6.281   5.173   4.660
 8900TIP3    H226665   6.307   5.309   4.722
 8901TIP3   OH226666   1.763   1.805   2.752
 8901TIP3    H126667   1.790   1.713   2.746
 8901TIP3    H226668   1.733   1.816   2.842
 8902TIP3   OH226669   0.663   6.095   4.283
 8902TIP3    H126670   0.699   6.066   4.199
 8902TIP3    H226671   0.718   6.052   4.348
 8903TIP3   OH226672   2.911   3.781   1.742
 8903TIP3    H126673   2.985   3.765   1.683
 8903TIP3    H226674   2.834   3.776   1.686
 8904TIP3   OH226675   6.798   6.437   3.847
 8904TIP3    H126676   6.808   6.346   3.822
 8904TIP3    H226677   6.704   6.452   3.847
 8905TIP3   OH226678   5.882   0.419   2.295
 8905TIP3    H126679   5.837   0.480   2.237
 8905TIP3    H226680   5.929   0.475   2.357
 8906TIP3   OH226681   3.914   2.726   5.384
 8906TIP3    H126682   3.876   2.801   5.430
 8906TIP3    H226683   3.841   2.686   5.337
 8907TIP3   OH226684   5.464   3.424   2.226
 8907TIP3    H126685   5.429   3.433   2.138
 8907TIP3    H226686   5.450   3.332   2.249
 8908TIP3   OH226687   5.067   5.818   1.884
 8908TIP3    H126688   4.996   5.756   1.904
 8908TIP3    H226689   5.146   5.775   1.918
 8909TIP3   OH226690   0.870   1.495   1.957
 8909TIP3    H126691   0.859   1.449   2.040
 8909TIP3    H226692   0.875   1.588   1.981
 8910TIP3   OH226693   7.179   5.597   4.655
 8910TIP3    H126694   7.187   5.577   4.562
 8910TIP3    H226695   7.249   5.660   4.672
 8911TIP3   OH226696   4.628   3.398   5.693
 8911TIP3    H126697   4.538   3.423   5.714
 8911TIP3    H226698   4.673   3.481   5.675
 8912TIP3   OH226699   3.247   1.263   3.475
 8912TIP3    H126700   3.273   1.232   3.562
 8912TIP3    H226701   3.160   1.300   3.488
 8913TIP3   OH226702   3.177   0.695   2.629
 8913TIP3    H126703   3.225   0.723   2.551
 8913TIP3    H226704   3.106   0.640   2.595
 8914TIP3   OH226705   0.830   4.509   2.042
 8914TIP3    H126706   0.806   4.504   2.134
 8914TIP3    H226707   0.794   4.429   2.003
 8915TIP3   OH226708   6.993   3.110   2.250
 8915TIP3    H126709   6.984   3.022   2.287
 8915TIP3    H226710   6.993   3.168   2.326
 8916TIP3   OH226711   1.170   6.397   0.834
 8916TIP3    H126712   1.115   6.320   0.845
 8916TIP3    H226713   1.244   6.366   0.782
 8917TIP3   OH226714   6.560   0.089   2.473
 8917TIP3    H126715   6.565   0.047   2.387
 8917TIP3    H226716   6.468   0.085   2.498
 8918TIP3   OH226717   5.593   6.591   1.721
 8918TIP3    H126718   5.595   6.575   1.627
 8918TIP3    H226719   5.510   6.552   1.749
 8919TIP3   OH226720   4.014   3.057   3.748
 8919TIP3    H126721   4.021   3.045   3.653
 8919TIP3    H226722   3.923   3.084   3.762
 8920TIP3   OH226723   4.504   2.906   3.268
 8920TIP3    H126724   4.502   2.822   3.221
 8920TIP3    H226725   4.425   2.951   3.240
 8921TIP3   OH226726   4.940   6.590   0.457
 8921TIP3    H126727   4.957   6.555   0.369
 8921TIP3    H226728   5.010   6.652   0.472
 8922TIP3   OH226729   5.906   0.842   5.363
 8922TIP3    H126730   5.869   0.771   5.416
 8922TIP3    H226731   5.867   0.922   5.398
 8923TIP3   OH226732   6.620   6.168   1.946
 8923TIP3    H126733   6.556   6.185   1.877
 8923TIP3    H226734   6.616   6.073   1.960
 8924TIP3   OH226735   0.989   4.126   5.705
 8924TIP3    H126736   0.962   4.042   5.668
 8924TIP3    H226737   1.085   4.119   5.712
 8925TIP3   OH226738   1.815   0.428   2.292
 8925TIP3    H126739   1.843   0.426   2.384
 8925TIP3    H226740   1.725   0.461   2.295
 8926TIP3   OH226741   5.600  -0.008   0.932
 8926TIP3    H126742   5.524   0.021   0.982
 8926TIP3    H226743   5.651   0.072   0.917
 8927TIP3   OH226744   4.038   1.668   4.892
 8927TIP3    H126745   4.053   1.637   4.982
 8927TIP3    H226746   4.034   1.763   4.900
 8928TIP3   OH226747   2.142   5.905   4.267
 8928TIP3    H126748   2.222   5.926   4.315
 8928TIP3    H226749   2.086   5.981   4.279
 8929TIP3   OH226750   6.653   3.445   0.962
 8929TIP3    H126751   6.737   3.400   0.955
 8929TIP3    H226752   6.631   3.470   0.873
 8930TIP3   OH226753   5.295   5.484   1.043
 8930TIP3    H126754   5.261   5.396   1.062
 8930TIP3    H226755   5.284   5.493   0.948
 8931TIP3   OH226756   2.659   0.663   1.816
 8931TIP3    H126757   2.621   0.712   1.889
 8931TIP3    H226758   2.750   0.692   1.812
 8932TIP3   OH226759   3.600   3.636   0.508
 8932TIP3    H126760   3.625   3.555   0.463
 8932TIP3    H226761   3.666   3.700   0.481
 8933TIP3   OH226762   5.765   2.155   5.350
 8933TIP3    H126763   5.839   2.124   5.299
 8933TIP3    H226764   5.798   2.161   5.440
 8934TIP3   OH226765   1.488   0.003   5.839
 8934TIP3    H126766   1.553   0.046   5.784
 8934TIP3    H226767   1.459  -0.073   5.789
 8935TIP3   OH226768   3.035   2.643   4.758
 8935TIP3    H126769   3.078   2.708   4.702
 8935TIP3    H226770   3.078   2.653   4.843
 8936TIP3   OH226771   2.943   3.429   1.936
 8936TIP3    H126772   2.901   3.402   1.855
 8936TIP3    H226773   2.879   3.409   2.004
 8937TIP3   OH226774   4.917   5.739   4.213
 8937TIP3    H126775   4.854   5.672   4.241
 8937TIP3    H226776   4.972   5.694   4.149
 8938TIP3   OH226777   2.442   3.628   0.070
 8938TIP3    H126778   2.517   3.668   0.114
 8938TIP3    H226779   2.381   3.701   0.058
 8939TIP3   OH226780   6.261   4.177   0.416
 8939TIP3    H126781   6.281   4.240   0.485
 8939TIP3    H226782   6.345   4.135   0.396
 8940TIP3   OH226783   4.006   5.447   1.683
 8940TIP3    H126784   3.919   5.410   1.666
 8940TIP3    H226785   4.009   5.528   1.632
 8941TIP3   OH226786   2.073   1.606   5.187
 8941TIP3    H126787   2.050   1.544   5.118
 8941TIP3    H226788   2.079   1.690   5.144
 8942TIP3   OH226789   6.058   2.433   4.383
 8942TIP3    H126790   6.098   2.353   4.349
 8942TIP3    H226791   6.023   2.408   4.468
 8943TIP3   OH226792   4.776   1.016   5.755
 8943TIP3    H126793   4.814   1.058   5.678
 8943TIP3    H226794   4.681   1.025   5.743
 8944TIP3   OH226795   0.854   1.804   0.818
 8944TIP3    H126796   0.818   1.823   0.905
 8944TIP3    H226797   0.792   1.844   0.757
 8945TIP3   OH226798   3.432   4.321   5.709
 8945TIP3    H126799   3.456   4.269   5.785
 8945TIP3    H226800   3.360   4.272   5.668
 8946TIP3   OH226801   3.756   6.027   0.062
 8946TIP3    H126802   3.733   6.016  -0.030
 8946TIP3    H226803   3.809   6.107   0.064
 8947TIP3   OH226804   6.784   4.297   2.621
 8947TIP3    H126805   6.724   4.360   2.580
 8947TIP3    H226806   6.753   4.290   2.712
 8948TIP3   OH226807   5.741   1.118   3.223
 8948TIP3    H126808   5.767   1.055   3.156
 8948TIP3    H226809   5.776   1.082   3.305
 8949TIP3   OH226810   0.636   4.151   4.803
 8949TIP3    H126811   0.677   4.083   4.857
 8949TIP3    H226812   0.707   4.184   4.749
 8950TIP3   OH226813   5.866   5.022   1.339
 8950TIP3    H126814   5.824   5.071   1.410
 8950TIP3    H226815   5.919   4.956   1.383
 8951TIP3   OH226816   5.170   4.077   5.368
 8951TIP3    H126817   5.171   4.164   5.329
 8951TIP3    H226818   5.173   4.017   5.294
 8952TIP3   OH226819   4.465   5.707   4.849
 8952TIP3    H126820   4.554   5.710   4.885
 8952TIP3    H226821   4.409   5.728   4.923
 8953TIP3   OH226822   2.475   6.030   3.473
 8953TIP3    H126823   2.389   6.008   3.507
 8953TIP3    H226824   2.457   6.091   3.401
 8954TIP3   OH226825   3.706   5.440   1.743
 8954TIP3    H126826   3.711   5.378   1.815
 8954TIP3    H226827   3.642   5.402   1.683
 8955TIP3   OH226828   1.479   2.306   5.074
 8955TIP3    H126829   1.398   2.348   5.046
 8955TIP3    H226830   1.506   2.253   4.999
 8956TIP3   OH226831   2.153   0.245   3.126
 8956TIP3    H126832   2.245   0.270   3.142
 8956TIP3    H226833   2.148   0.154   3.156
 8957TIP3   OH226834   3.628   1.156   5.766
 8957TIP3    H126835   3.544   1.139   5.722
 8957TIP3    H226836   3.624   1.104   5.846
 8958TIP3   OH226837   3.928   5.664   3.463
 8958TIP3    H126838   3.909   5.598   3.531
 8958TIP3    H226839   3.843   5.699   3.439
 8959TIP3   OH226840   2.764   1.641   1.604
 8959TIP3    H126841   2.674   1.610   1.614
 8959TIP3    H226842   2.765   1.683   1.518
 8960TIP3   OH226843   1.083   6.412   4.965
 8960TIP3    H126844   1.080   6.318   4.948
 8960TIP3    H226845   1.098   6.452   4.879
 8961TIP3   OH226846   5.223   0.894   0.563
 8961TIP3    H126847   5.209   0.920   0.654
 8961TIP3    H226848   5.316   0.913   0.547
 8962TIP3   OH226849   3.075   1.167   3.858
 8962TIP3    H126850   3.074   1.206   3.945
 8962TIP3    H226851   3.011   1.096   3.862
 8963TIP3   OH226852   2.129   3.634   2.561
 8963TIP3    H126853   2.106   3.726   2.575
 8963TIP3    H226854   2.075   3.608   2.485
 8964TIP3   OH226855   1.597   4.269   5.861
 8964TIP3    H126856   1.625   4.178   5.850
 8964TIP3    H226857   1.508   4.263   5.895
 8965TIP3   OH226858   1.719   5.397   0.158
 8965TIP3    H126859   1.801   5.398   0.208
 8965TIP3    H226860   1.667   5.327   0.198
 8966TIP3   OH226861   2.183   6.567   3.944
 8966TIP3    H126862   2.218   6.583   3.857
 8966TIP3    H226863   2.204   6.647   3.993
 8967TIP3   OH226864   1.097   3.883   4.275
 8967TIP3    H126865   1.042   3.956   4.249
 8967TIP3    H226866   1.066   3.809   4.223
 8968TIP3   OH226867   3.545   4.727   1.761
 8968TIP3    H126868   3.551   4.632   1.776
 8968TIP3    H226869   3.625   4.762   1.799
 8969TIP3   OH226870   1.670   0.761   1.462
 8969TIP3    H126871   1.597   0.721   1.509
 8969TIP3    H226872   1.631   0.833   1.413
 8970TIP3   OH226873   6.658   6.606   4.836
 8970TIP3    H126874   6.666   6.700   4.821
 8970TIP3    H226875   6.716   6.588   4.910
 8971TIP3   OH226876   5.347   2.762   2.163
 8971TIP3    H126877   5.430   2.749   2.117
 8971TIP3    H226878   5.324   2.853   2.144
 8972TIP3   OH226879   4.289   4.334   2.835
 8972TIP3    H126880   4.239   4.399   2.785
 8972TIP3    H226881   4.286   4.255   2.781
 8973TIP3   OH226882   5.230   0.685   3.287
 8973TIP3    H126883   5.264   0.719   3.205
 8973TIP3    H226884   5.165   0.749   3.315
 8974TIP3   OH226885   1.292   0.757   0.655
 8974TIP3    H126886   1.250   0.740   0.570
 8974TIP3    H226887   1.381   0.782   0.632
 8975TIP3   OH226888   2.887   3.442   1.662
 8975TIP3    H126889   2.848   3.379   1.601
 8975TIP3    H226890   2.959   3.481   1.613
 8976TIP3   OH226891   5.149   4.752   4.417
 8976TIP3    H126892   5.212   4.795   4.475
 8976TIP3    H226893   5.101   4.824   4.375
 8977TIP3   OH226894   3.291   0.669   3.803
 8977TIP3    H126895   3.338   0.697   3.882
 8977TIP3    H226896   3.349   0.605   3.762
 8978TIP3   OH226897   6.064   2.102   4.918
 8978TIP3    H126898   6.010   2.056   4.854
 8978TIP3    H226899   6.039   2.194   4.911
 8979TIP3   OH226900   4.010   4.349   0.877
 8979TIP3    H126901   3.928   4.304   0.854
 8979TIP3    H226902   4.032   4.317   0.964
 8980TIP3   OH226903   3.548   2.051   1.933
 8980TIP3    H126904   3.621   2.002   1.970
 8980TIP3    H226905   3.484   2.056   2.004
 8981TIP3   OH226906   4.486   5.102   0.212
 8981TIP3    H126907   4.426   5.064   0.276
 8981TIP3    H226908   4.440   5.093   0.128
 8982TIP3   OH226909   2.434   1.394   0.651
 8982TIP3    H126910   2.508   1.394   0.590
 8982TIP3    H226911   2.357   1.406   0.595
 8983TIP3   OH226912   2.412   5.641   3.833
 8983TIP3    H126913   2.360   5.565   3.807
 8983TIP3    H226914   2.503   5.609   3.830
 8984TIP3   OH226915   4.327   1.037   1.706
 8984TIP3    H126916   4.353   0.952   1.671
 8984TIP3    H226917   4.270   1.016   1.780
 8985TIP3   OH226918   2.180   1.073   1.176
 8985TIP3    H126919   2.275   1.062   1.167
 8985TIP3    H226920   2.147   0.983   1.187
 8986TIP3   OH226921   5.028   4.212   1.904
 8986TIP3    H126922   5.097   4.234   1.967
 8986TIP3    H226923   5.061   4.244   1.820
 8987TIP3   OH226924   4.614   5.786   4.575
 8987TIP3    H126925   4.686   5.849   4.588
 8987TIP3    H226926   4.593   5.756   4.663
 8988TIP3   OH226927   6.097   3.458   5.766
 8988TIP3    H126928   6.027   3.449   5.831
 8988TIP3    H226929   6.174   3.483   5.817
 8989TIP3   OH226930   0.961   1.238   2.426
 8989TIP3    H126931   0.870   1.229   2.399
 8989TIP3    H226932   0.957   1.254   2.520
 8990TIP3   OH226933   2.027   0.597   4.070
 8990TIP3    H126934   2.099   0.573   4.011
 8990TIP3    H226935   1.992   0.513   4.100
 8991TIP3   OH226936   4.204   2.249   5.341
 8991TIP3    H126937   4.293   2.221   5.321
 8991TIP3    H226938   4.205   2.344   5.328
 8992TIP3   OH226939   4.620   3.605   3.329
 8992TIP3    H126940   4.566   3.561   3.263
 8992TIP3    H226941   4.651   3.535   3.385
 8993TIP3   OH226942   6.132   0.874   2.641
 8993TIP3    H126943   6.038   0.870   2.621
 8993TIP3    H226944   6.141   0.826   2.723
 8994TIP3   OH226945   2.546   0.088   5.664
 8994TIP3    H126946   2.462   0.053   5.635
 8994TIP3    H226947   2.569   0.154   5.598
 8995TIP3   OH226948   4.384   3.167   4.393
 8995TIP3    H126949   4.349   3.178   4.481
 8995TIP3    H226950   4.475   3.194   4.400
 8996TIP3   OH226951   6.952   1.300   3.116
 8996TIP3    H126952   6.939   1.298   3.021
 8996TIP3    H226953   7.048   1.303   3.126
 8997TIP3   OH226954   0.738   2.065   4.971
 8997TIP3    H126955   0.698   1.978   4.970
 8997TIP3    H226956   0.690   2.113   5.038
 8998TIP3   OH226957   0.512   4.120   1.169
 8998TIP3    H126958   0.517   4.205   1.213
 8998TIP3    H226959   0.479   4.060   1.236
 8999TIP3   OH226960   0.152   0.075   4.507
 8999TIP3    H126961   0.126   0.043   4.594
 8999TIP3    H226962   0.139   0.000   4.450
 9000TIP3   OH226963   0.245   3.027   2.198
 9000TIP3    H126964   0.325   3.079   2.190
 9000TIP3    H226965   0.263   2.947   2.148
 9001TIP3   OH226966   2.417   4.760   4.250
 9001TIP3    H126967   2.351   4.692   4.259
 9001TIP3    H226968   2.369   4.842   4.260
 9002TIP3   OH226969   1.980   1.952   2.425
 9002TIP3    H126970   2.033   1.999   2.360
 9002TIP3    H226971   2.008   1.861   2.416
 9003TIP3   OH226972   6.002   2.157   2.244
 9003TIP3    H126973   6.089   2.179   2.211
 9003TIP3    H226974   6.016   2.080   2.299
 9004TIP3   OH226975   1.761   6.110   2.220
 9004TIP3    H126976   1.734   6.081   2.307
 9004TIP3    H226977   1.679   6.122   2.172
 9005TIP3   OH226978   0.645   1.155   2.780
 9005TIP3    H126979   0.578   1.210   2.739
 9005TIP3    H226980   0.652   1.188   2.869
 9006TIP3   OH226981   4.087   1.782   0.256
 9006TIP3    H126982   4.157   1.844   0.233
 9006TIP3    H226983   4.055   1.813   0.340
 9007TIP3   OH226984   0.005   6.517   2.870
 9007TIP3    H126985   0.081   6.498   2.925
 9007TIP3    H226986  -0.005   6.439   2.816
 9008TIP3   OH226987   0.061   6.068   1.259
 9008TIP3    H126988   0.140   6.059   1.206
 9008TIP3    H226989  -0.007   6.023   1.210
 9009TIP3   OH226990   2.466   1.735   0.845
 9009TIP3    H126991   2.423   1.790   0.779
 9009TIP3    H226992   2.404   1.732   0.917
 9010TIP3   OH226993   2.116   4.448   3.107
 9010TIP3    H126994   2.129   4.374   3.047
 9010TIP3    H226995   2.170   4.518   3.070
 9011TIP3   OH226996   0.302   3.741   2.203
 9011TIP3    H126997   0.284   3.671   2.140
 9011TIP3    H226998   0.232   3.733   2.268
 9012TIP3   OH226999   4.812   2.246   0.088
 9012TIP3    H127000   4.856   2.177   0.037
 9012TIP3    H227001   4.882   2.309   0.107
 9013TIP3   OH227002   6.840   2.605   5.665
 9013TIP3    H127003   6.897   2.618   5.741
 9013TIP3    H227004   6.803   2.692   5.648
 9014TIP3   OH227005   1.643   0.194   1.927
 9014TIP3    H127006   1.572   0.133   1.948
 9014TIP3    H227007   1.659   0.180   1.833
 9015TIP3   OH227008   4.456   2.332   2.954
 9015TIP3    H127009   4.542   2.374   2.957
 9015TIP3    H227010   4.407   2.381   2.888
 9016TIP3   OH227011   6.509   1.999   0.313
 9016TIP3    H127012   6.593   1.960   0.290
 9016TIP3    H227013   6.479   2.039   0.231
 9017TIP3   OH227014   4.591   2.116   4.084
 9017TIP3    H127015   4.654   2.096   4.015
 9017TIP3    H227016   4.594   2.039   4.141
 9018TIP3   OH227017   4.466   4.231   5.288
 9018TIP3    H127018   4.396   4.176   5.253
 9018TIP3    H227019   4.451   4.317   5.249
 9019TIP3   OH227020   1.267   6.000   2.858
 9019TIP3    H127021   1.279   6.079   2.910
 9019TIP3    H227022   1.279   6.029   2.768
 9020TIP3   OH227023   6.326   1.868   2.702
 9020TIP3    H127024   6.414   1.905   2.693
 9020TIP3    H227025   6.341   1.778   2.731
 9021TIP3   OH227026   6.264   3.320   2.324
 9021TIP3    H127027   6.329   3.371   2.373
 9021TIP3    H227028   6.316   3.272   2.259
 9022TIP3   OH227029   1.283   6.436   3.739
 9022TIP3    H127030   1.198   6.475   3.717
 9022TIP3    H227031   1.283   6.432   3.835
 9023TIP3   OH227032   3.602   5.586   2.471
 9023TIP3    H127033   3.631   5.673   2.497
 9023TIP3    H227034   3.615   5.583   2.377
 9024TIP3   OH227035   6.211   1.334   0.425
 9024TIP3    H127036   6.235   1.285   0.346
 9024TIP3    H227037   6.272   1.408   0.425
 9025TIP3   OH227038   0.929   3.310   4.055
 9025TIP3    H127039   0.852   3.331   4.003
 9025TIP3    H227040   0.895   3.295   4.144
 9026TIP3   OH227041   0.260   4.556   5.796
 9026TIP3    H127042   0.355   4.555   5.803
 9026TIP3    H227043   0.236   4.648   5.802
 9027TIP3   OH227044   3.754   3.083   4.735
 9027TIP3    H127045   3.672   3.131   4.727
 9027TIP3    H227046   3.804   3.131   4.801
 9028TIP3   OH227047   0.384   2.342   3.015
 9028TIP3    H127048   0.388   2.431   3.049
 9028TIP3    H227049   0.410   2.350   2.923
 9029TIP3   OH227050   0.604   1.646   5.428
 9029TIP3    H127051   0.636   1.616   5.343
 9029TIP3    H227052   0.526   1.698   5.408
 9030TIP3   OH227053   5.562   3.976   3.242
 9030TIP3    H127054   5.500   3.978   3.170
 9030TIP3    H227055   5.645   4.004   3.203
 9031TIP3   OH227056   1.871   5.933   0.187
 9031TIP3    H127057   1.855   5.877   0.110
 9031TIP3    H227058   1.856   6.022   0.156
 9032TIP3   OH227059   5.827   5.190   3.094
 9032TIP3    H127060   5.894   5.194   3.162
 9032TIP3    H227061   5.866   5.236   3.020
 9033TIP3   OH227062   2.443   5.995   2.581
 9033TIP3    H127063   2.427   5.903   2.561
 9033TIP3    H227064   2.414   6.042   2.503
 9034TIP3   OH227065   4.292   3.164   5.660
 9034TIP3    H127066   4.257   3.109   5.731
 9034TIP3    H227067   4.226   3.233   5.650
 9035TIP3   OH227068   3.153   3.153   1.575
 9035TIP3    H127069   3.152   3.216   1.648
 9035TIP3    H227070   3.203   3.198   1.506
 9036TIP3   OH227071   6.067   4.639   5.424
 9036TIP3    H127072   5.995   4.665   5.366
 9036TIP3    H227073   6.051   4.685   5.506
 9037TIP3   OH227074   2.991   5.686   2.650
 9037TIP3    H127075   3.013   5.672   2.742
 9037TIP3    H227076   2.958   5.602   2.620
 9038TIP3   OH227077   2.568   0.372   3.976
 9038TIP3    H127078   2.552   0.280   3.992
 9038TIP3    H227079   2.662   0.377   3.955
 9039TIP3   OH227080   0.088   2.638   0.267
 9039TIP3    H127081   0.145   2.688   0.208
 9039TIP3    H227082   0.118   2.661   0.355
 9040TIP3   OH227083   2.173   2.200   2.662
 9040TIP3    H127084   2.177   2.215   2.757
 9040TIP3    H227085   2.136   2.112   2.654
 9041TIP3   OH227086   1.655   2.741   1.370
 9041TIP3    H127087   1.741   2.702   1.384
 9041TIP3    H227088   1.625   2.764   1.458
 9042TIP3   OH227089   2.016   3.614   1.143
 9042TIP3    H127090   1.964   3.692   1.160
 9042TIP3    H227091   1.968   3.544   1.188
 9043TIP3   OH227092   6.791   6.128   4.016
 9043TIP3    H127093   6.885   6.139   4.029
 9043TIP3    H227094   6.777   6.152   3.924
 9044TIP3   OH227095   6.033   2.821   0.593
 9044TIP3    H127096   6.017   2.915   0.600
 9044TIP3    H227097   5.977   2.783   0.660
 9045TIP3   OH227098   3.109   4.773   0.139
 9045TIP3    H127099   3.162   4.821   0.076
 9045TIP3    H227100   3.019   4.799   0.120
 9046TIP3   OH227101   0.493   5.970   0.827
 9046TIP3    H127102   0.516   6.046   0.881
 9046TIP3    H227103   0.413   5.997   0.781
 9047TIP3   OH227104   1.174   2.162   5.001
 9047TIP3    H127105   1.209   2.236   4.951
 9047TIP3    H227106   1.237   2.092   4.987
 9048TIP3   OH227107   6.833   4.822   5.656
 9048TIP3    H127108   6.899   4.889   5.636
 9048TIP3    H227109   6.801   4.794   5.571
 9049TIP3   OH227110   5.345   6.022   0.257
 9049TIP3    H127111   5.291   6.097   0.235
 9049TIP3    H227112   5.354   5.973   0.176
 9050TIP3   OH227113   2.748   6.297   3.413
 9050TIP3    H127114   2.706   6.278   3.496
 9050TIP3    H227115   2.677   6.320   3.354
 9051TIP3   OH227116   0.159   5.026   3.585
 9051TIP3    H127117   0.195   4.952   3.535
 9051TIP3    H227118   0.099   5.069   3.525
 9052TIP3   OH227119   1.151   3.809   4.800
 9052TIP3    H127120   1.120   3.893   4.833
 9052TIP3    H227121   1.172   3.825   4.708
 9053TIP3   OH227122   5.421   5.758   3.067
 9053TIP3    H127123   5.482   5.825   3.038
 9053TIP3    H227124   5.453   5.732   3.154
 9054TIP3   OH227125   7.086   1.241   5.604
 9054TIP3    H127126   6.999   1.207   5.582
 9054TIP3    H227127   7.077   1.336   5.598
 9055TIP3   OH227128   4.927   4.989   5.646
 9055TIP3    H127129   4.892   5.016   5.561
 9055TIP3    H227130   5.018   5.018   5.645
 9056TIP3   OH227131   5.745   1.757   0.132
 9056TIP3    H127132   5.685   1.700   0.083
 9056TIP3    H227133   5.707   1.844   0.123
 9057TIP3   OH227134   3.080   5.137   0.226
 9057TIP3    H127135   3.115   5.196   0.292
 9057TIP3    H227136   3.052   5.060   0.275
 9058TIP3   OH227137   6.240   6.296   2.288
 9058TIP3    H127138   6.314   6.235   2.274
 9058TIP3    H227139   6.264   6.344   2.367
 9059TIP3   OH227140   4.795   2.801   3.509
 9059TIP3    H127141   4.783   2.800   3.414
 9059TIP3    H227142   4.862   2.734   3.526
 9060TIP3   OH227143   4.828   6.150   1.991
 9060TIP3    H127144   4.810   6.060   2.019
 9060TIP3    H227145   4.790   6.205   2.060
 9061TIP3   OH227146   4.354   4.097   4.995
 9061TIP3    H127147   4.423   4.032   5.008
 9061TIP3    H227148   4.351   4.110   4.900
 9062TIP3   OH227149   4.299   1.280   3.976
 9062TIP3    H127150   4.271   1.365   4.010
 9062TIP3    H227151   4.386   1.266   4.014
 9063TIP3   OH227152   5.901   1.540   4.003
 9063TIP3    H127153   5.943   1.532   3.917
 9063TIP3    H227154   5.967   1.583   4.057
 9064TIP3   OH227155   4.617   1.155   4.384
 9064TIP3    H127156   4.630   1.237   4.432
 9064TIP3    H227157   4.556   1.104   4.438
 9065TIP3   OH227158   5.499   2.766   1.463
 9065TIP3    H127159   5.580   2.777   1.413
 9065TIP3    H227160   5.452   2.697   1.416
 9066TIP3   OH227161   2.010   0.058   1.830
 9066TIP3    H127162   2.045   0.135   1.873
 9066TIP3    H227163   1.928   0.087   1.789
 9067TIP3   OH227164   0.495   5.409   5.113
 9067TIP3    H127165   0.568   5.468   5.096
 9067TIP3    H227166   0.425   5.466   5.147
 9068TIP3   OH227167   1.089   6.635   0.929
 9068TIP3    H127168   1.090   6.675   0.842
 9068TIP3    H227169   1.133   6.550   0.917
 9069TIP3   OH227170   1.919   0.636   1.827
 9069TIP3    H127171   1.852   0.579   1.789
 9069TIP3    H227172   1.903   0.633   1.921
 9070TIP3   OH227173   5.717   4.393   2.864
 9070TIP3    H127174   5.640   4.362   2.911
 9070TIP3    H227175   5.690   4.477   2.826
 9071TIP3   OH227176   1.912   3.336   1.227
 9071TIP3    H127177   1.839   3.363   1.284
 9071TIP3    H227178   1.967   3.282   1.284
 9072TIP3   OH227179   4.380   2.135   2.687
 9072TIP3    H127180   4.306   2.140   2.746
 9072TIP3    H227181   4.436   2.208   2.712
 9073TIP3   OH227182   4.505   3.504   3.105
 9073TIP3    H127183   4.519   3.409   3.105
 9073TIP3    H227184   4.456   3.521   3.025
 9074TIP3   OH227185   6.793   4.540   3.903
 9074TIP3    H127186   6.714   4.593   3.893
 9074TIP3    H227187   6.815   4.548   3.996
 9075TIP3   OH227188   3.485   6.215   4.319
 9075TIP3    H127189   3.546   6.274   4.364
 9075TIP3    H227190   3.463   6.261   4.237
 9076TIP3   OH227191   3.314   1.396   0.192
 9076TIP3    H127192   3.409   1.388   0.195
 9076TIP3    H227193   3.284   1.317   0.147
 9077TIP3   OH227194   4.720   6.600   0.893
 9077TIP3    H127195   4.792   6.587   0.832
 9077TIP3    H227196   4.761   6.591   0.980
 9078TIP3   OH227197   5.061   1.356   4.975
 9078TIP3    H127198   4.987   1.307   4.940
 9078TIP3    H227199   5.103   1.395   4.898
 9079TIP3   OH227200   6.197   6.180   4.636
 9079TIP3    H127201   6.227   6.265   4.669
 9079TIP3    H227202   6.251   6.164   4.559
 9080TIP3   OH227203   5.987   1.462   1.164
 9080TIP3    H127204   5.992   1.372   1.133
 9080TIP3    H227205   6.056   1.508   1.116
 9081TIP3   OH227206   5.934   4.850   3.754
 9081TIP3    H127207   5.990   4.865   3.677
 9081TIP3    H227208   5.872   4.923   3.753
 9082TIP3   OH227209   6.421   3.295   4.016
 9082TIP3    H127210   6.328   3.319   4.010
 9082TIP3    H227211   6.439   3.250   3.933
 9083TIP3   OH227212   3.215   3.169   3.442
 9083TIP3    H127213   3.243   3.192   3.353
 9083TIP3    H227214   3.132   3.215   3.454
 9084TIP3   OH227215   5.524   1.202   1.656
 9084TIP3    H127216   5.502   1.260   1.584
 9084TIP3    H227217   5.509   1.254   1.735
 9085TIP3   OH227218   4.746   0.116   3.413
 9085TIP3    H127219   4.794   0.040   3.380
 9085TIP3    H227220   4.663   0.081   3.444
 9086TIP3   OH227221   5.240   3.613   2.296
 9086TIP3    H127222   5.334   3.603   2.283
 9086TIP3    H227223   5.231   3.692   2.350
 9087TIP3   OH227224   0.552   1.631   0.768
 9087TIP3    H127225   0.548   1.718   0.808
 9087TIP3    H227226   0.476   1.627   0.711
 9088TIP3   OH227227   6.287   3.077   0.836
 9088TIP3    H127228   6.329   3.113   0.758
 9088TIP3    H227229   6.221   3.141   0.860
 9089TIP3   OH227230   0.759   0.958   2.267
 9089TIP3    H127231   0.678   0.933   2.310
 9089TIP3    H227232   0.827   0.911   2.315
 9090TIP3   OH227233   3.873   3.493   5.178
 9090TIP3    H127234   3.792   3.487   5.127
 9090TIP3    H227235   3.934   3.539   5.121
 9091TIP3   OH227236   4.976   6.140   4.462
 9091TIP3    H127237   4.943   6.146   4.372
 9091TIP3    H227238   5.028   6.219   4.474
 9092TIP3   OH227239   5.371   0.138   1.810
 9092TIP3    H127240   5.399   0.196   1.739
 9092TIP3    H227241   5.300   0.086   1.772
 9093TIP3   OH227242   5.125   5.826   0.704
 9093TIP3    H127243   5.056   5.807   0.641
 9093TIP3    H227244   5.200   5.775   0.673
 9094TIP3   OH227245   1.726   0.926   5.314
 9094TIP3    H127246   1.672   0.981   5.370
 9094TIP3    H227247   1.711   0.960   5.225
 9095TIP3   OH227248   6.346   5.238   0.938
 9095TIP3    H127249   6.309   5.249   1.025
 9095TIP3    H227250   6.312   5.312   0.888
 9096TIP3   OH227251   2.555   6.593   5.243
 9096TIP3    H127252   2.491   6.581   5.313
 9096TIP3    H227253   2.638   6.605   5.288
 9097TIP3   OH227254   4.240   2.710   1.334
 9097TIP3    H127255   4.231   2.669   1.248
 9097TIP3    H227256   4.203   2.647   1.395
 9098TIP3   OH227257   3.328   2.516   5.427
 9098TIP3    H127258   3.320   2.610   5.439
 9098TIP3    H227259   3.245   2.489   5.389
 9099TIP3   OH227260   0.830   5.545   2.075
 9099TIP3    H127261   0.823   5.513   2.165
 9099TIP3    H227262   0.916   5.516   2.045
 9100TIP3   OH227263   1.294   2.452   4.916
 9100TIP3    H127264   1.240   2.456   4.837
 9100TIP3    H227265   1.316   2.543   4.934
 9101TIP3   OH227266   2.473   2.271   2.658
 9101TIP3    H127267   2.517   2.193   2.623
 9101TIP3    H227268   2.389   2.238   2.690
 9102TIP3   OH227269   6.279   0.549   4.610
 9102TIP3    H127270   6.318   0.588   4.688
 9102TIP3    H227271   6.324   0.466   4.599
 9103TIP3   OH227272   5.391   6.377   0.994
 9103TIP3    H127273   5.462   6.438   1.016
 9103TIP3    H227274   5.435   6.303   0.952
 9104TIP3   OH227275   4.362   4.679   1.360
 9104TIP3    H127276   4.456   4.664   1.350
 9104TIP3    H227277   4.355   4.763   1.405
 9105TIP3   OH227278   4.362   5.384   5.861
 9105TIP3    H127279   4.409   5.300   5.857
 9105TIP3    H227280   4.416   5.444   5.810
 9106TIP3   OH227281   6.842   1.723   3.941
 9106TIP3    H127282   6.923   1.679   3.967
 9106TIP3    H227283   6.781   1.652   3.922
 9107TIP3   OH227284   4.523   3.501   4.633
 9107TIP3    H127285   4.524   3.566   4.563
 9107TIP3    H227286   4.541   3.418   4.589
 9108TIP3   OH227287   5.315   5.705   3.998
 9108TIP3    H127288   5.342   5.792   3.967
 9108TIP3    H227289   5.383   5.646   3.966
 9109TIP3   OH227290   3.517   4.484   3.205
 9109TIP3    H127291   3.597   4.526   3.234
 9109TIP3    H227292   3.545   4.424   3.135
 9110TIP3   OH227293   6.126   6.256   5.809
 9110TIP3    H127294   6.211   6.279   5.845
 9110TIP3    H227295   6.084   6.206   5.879
 9111TIP3   OH227296   6.250   0.817   1.060
 9111TIP3    H127297   6.219   0.901   1.094
 9111TIP3    H227298   6.171   0.770   1.035
 9112TIP3   OH227299   4.962   5.625   5.589
 9112TIP3    H127300   4.962   5.529   5.582
 9112TIP3    H227301   5.042   5.652   5.544
 9113TIP3   OH227302   6.275   0.015   5.760
 9113TIP3    H127303   6.346  -0.021   5.813
 9113TIP3    H227304   6.251   0.097   5.803
 9114TIP3   OH227305   2.550   3.688   4.816
 9114TIP3    H127306   2.557   3.604   4.769
 9114TIP3    H227307   2.523   3.663   4.905
 9115TIP3   OH227308   3.446   2.806   4.593
 9115TIP3    H127309   3.469   2.749   4.519
 9115TIP3    H227310   3.439   2.893   4.554
 9116TIP3   OH227311   1.750   6.689   3.463
 9116TIP3    H127312   1.678   6.656   3.518
 9116TIP3    H227313   1.720   6.776   3.436
 9117TIP3   OH227314   2.382   4.731   2.067
 9117TIP3    H127315   2.310   4.722   2.004
 9117TIP3    H227316   2.341   4.769   2.144
 9118TIP3   OH227317   5.008   1.335   5.252
 9118TIP3    H127318   5.040   1.325   5.162
 9118TIP3    H227319   5.081   1.305   5.306
 9119TIP3   OH227320   2.713   2.553   3.762
 9119TIP3    H127321   2.723   2.493   3.688
 9119TIP3    H227322   2.713   2.497   3.839
 9120TIP3   OH227323   0.469   0.421   1.385
 9120TIP3    H127324   0.454   0.420   1.291
 9120TIP3    H227325   0.550   0.471   1.396
 9121TIP3   OH227326   2.899   0.757   1.802
 9121TIP3    H127327   2.914   0.850   1.784
 9121TIP3    H227328   2.984   0.726   1.835
 9122TIP3   OH227329   6.019   5.698   5.767
 9122TIP3    H127330   6.006   5.680   5.860
 9122TIP3    H227331   5.935   5.733   5.738
 9123TIP3   OH227332   4.722   2.603   1.817
 9123TIP3    H127333   4.717   2.614   1.912
 9123TIP3    H227334   4.717   2.509   1.803
 9124TIP3   OH227335   3.446   3.705   5.072
 9124TIP3    H127336   3.514   3.675   5.011
 9124TIP3    H227337   3.472   3.794   5.095
 9125TIP3   OH227338   6.024   6.656   3.665
 9125TIP3    H127339   6.029   6.613   3.750
 9125TIP3    H227340   5.987   6.742   3.684
 9126TIP3   OH227341   2.385   4.437   1.425
 9126TIP3    H127342   2.360   4.528   1.408
 9126TIP3    H227343   2.403   4.434   1.519
 9127TIP3   OH227344   0.385   1.544   1.136
 9127TIP3    H127345   0.319   1.508   1.076
 9127TIP3    H227346   0.461   1.488   1.124
 9128TIP3   OH227347   2.325   3.185   1.846
 9128TIP3    H127348   2.240   3.149   1.867
 9128TIP3    H227349   2.384   3.151   1.914
 9129TIP3   OH227350   1.170   2.720   1.820
 9129TIP3    H127351   1.114   2.663   1.873
 9129TIP3    H227352   1.200   2.665   1.747
 9130TIP3   OH227353   0.245   4.913   4.386
 9130TIP3    H127354   0.187   4.868   4.447
 9130TIP3    H227355   0.220   5.005   4.393
 9131TIP3   OH227356   5.376   5.430   0.301
 9131TIP3    H127357   5.441   5.413   0.369
 9131TIP3    H227358   5.385   5.524   0.281
 9132TIP3   OH227359   1.955   1.662   2.333
 9132TIP3    H127360   1.919   1.647   2.246
 9132TIP3    H227361   2.019   1.592   2.345
 9133TIP3   OH227362   0.479   0.679   5.454
 9133TIP3    H127363   0.454   0.586   5.451
 9133TIP3    H227364   0.501   0.701   5.363
 9134TIP3   OH227365   2.870   2.388   5.196
 9134TIP3    H127366   2.797   2.441   5.164
 9134TIP3    H227367   2.833   2.300   5.204
 9135TIP3   OH227368   0.845   6.567   3.779
 9135TIP3    H127369   0.879   6.643   3.826
 9135TIP3    H227370   0.781   6.528   3.839
 9136TIP3   OH227371   4.835   2.354   3.849
 9136TIP3    H127372   4.877   2.434   3.815
 9136TIP3    H227373   4.744   2.361   3.820
 9137TIP3   OH227374   5.632   4.899   4.817
 9137TIP3    H127375   5.638   4.815   4.773
 9137TIP3    H227376   5.563   4.888   4.883
 9138TIP3   OH227377   6.824   2.655   1.491
 9138TIP3    H127378   6.807   2.619   1.578
 9138TIP3    H227379   6.912   2.625   1.469
 9139TIP3   OH227380   1.273   1.672   5.853
 9139TIP3    H127381   1.183   1.686   5.884
 9139TIP3    H227382   1.300   1.758   5.820
 9140TIP3   OH227383   4.590   3.313   1.002
 9140TIP3    H127384   4.522   3.247   1.013
 9140TIP3    H227385   4.567   3.358   0.921
 9141TIP3   OH227386   4.528   2.754   3.015
 9141TIP3    H127387   4.503   2.828   2.959
 9141TIP3    H227388   4.623   2.761   3.023
 9142TIP3   OH227389   2.295   2.188   1.933
 9142TIP3    H127390   2.343   2.111   1.962
 9142TIP3    H227391   2.303   2.250   2.005
 9143TIP3   OH227392   0.051   4.037   5.287
 9143TIP3    H127393   0.012   3.985   5.357
 9143TIP3    H227394   0.092   4.111   5.332
 9144TIP3   OH227395   4.699   3.400   2.761
 9144TIP3    H127396   4.667   3.317   2.794
 9144TIP3    H227397   4.717   3.384   2.668
 9145TIP3   OH227398   0.256   6.053   1.038
 9145TIP3    H127399   0.336   6.095   1.008
 9145TIP3    H227400   0.253   5.969   0.991
 9146TIP3   OH227401   2.679   4.008   2.386
 9146TIP3    H127402   2.595   3.963   2.375
 9146TIP3    H227403   2.732   3.979   2.312
 9147TIP3   OH227404   2.272   5.215   5.467
 9147TIP3    H127405   2.341   5.270   5.430
 9147TIP3    H227406   2.316   5.163   5.534
 9148TIP3   OH227407   1.090   5.375   2.299
 9148TIP3    H127408   1.122   5.299   2.348
 9148TIP3    H227409   1.011   5.344   2.255
 9149TIP3   OH227410   1.640   6.081   1.159
 9149TIP3    H127411   1.660   6.054   1.249
 9149TIP3    H227412   1.720   6.061   1.110
 9150TIP3   OH227413   3.850   5.415   5.540
 9150TIP3    H127414   3.828   5.322   5.532
 9150TIP3    H227415   3.765   5.459   5.543
 9151TIP3   OH227416   0.484   6.519   4.279
 9151TIP3    H127417   0.503   6.534   4.371
 9151TIP3    H227418   0.547   6.575   4.232
 9152TIP3   OH227419   3.455   5.773   1.182
 9152TIP3    H127420   3.424   5.807   1.266
 9152TIP3    H227421   3.471   5.680   1.198
 9153TIP3   OH227422   0.186   2.427   5.012
 9153TIP3    H127423   0.229   2.345   4.986
 9153TIP3    H227424   0.254   2.476   5.058
 9154TIP3   OH227425   0.423   5.799   3.794
 9154TIP3    H127426   0.339   5.782   3.752
 9154TIP3    H227427   0.452   5.882   3.756
 9155TIP3   OH227428   5.861   3.036   4.761
 9155TIP3    H127429   5.775   3.010   4.795
 9155TIP3    H227430   5.918   3.032   4.838
 9156TIP3   OH227431   0.529   2.318   1.914
 9156TIP3    H127432   0.479   2.357   1.842
 9156TIP3    H227433   0.488   2.351   1.993
 9157TIP3   OH227434   0.701   5.474   5.465
 9157TIP3    H127435   0.740   5.536   5.527
 9157TIP3    H227436   0.735   5.500   5.380
 9158TIP3   OH227437   1.666   5.552   2.191
 9158TIP3    H127438   1.592   5.496   2.213
 9158TIP3    H227439   1.709   5.508   2.117
 9159TIP3   OH227440   3.446   6.518   5.589
 9159TIP3    H127441   3.404   6.519   5.503
 9159TIP3    H227442   3.518   6.580   5.582
 9160TIP3   OH227443   5.937   1.722   5.482
 9160TIP3    H127444   5.867   1.705   5.418
 9160TIP3    H227445   5.895   1.711   5.567
 9161TIP3   OH227446   4.537   5.606   1.666
 9161TIP3    H127447   4.592   5.683   1.656
 9161TIP3    H227448   4.461   5.637   1.716
 9162TIP3   OH227449   5.317   3.046   4.729
 9162TIP3    H127450   5.405   3.011   4.738
 9162TIP3    H227451   5.329   3.128   4.680
 9163TIP3   OH227452   2.309   0.150   3.932
 9163TIP3    H127453   2.226   0.198   3.932
 9163TIP3    H227454   2.309   0.104   4.016
 9164TIP3   OH227455   0.850   2.901   3.184
 9164TIP3    H127456   0.908   2.977   3.200
 9164TIP3    H227457   0.910   2.830   3.164
 9165TIP3   OH227458   5.540   1.562   1.756
 9165TIP3    H127459   5.634   1.546   1.748
 9165TIP3    H227460   5.519   1.535   1.845
 9166TIP3   OH227461   4.839   1.158   5.512
 9166TIP3    H127462   4.759   1.135   5.465
 9166TIP3    H227463   4.851   1.251   5.496
 9167TIP3   OH227464   5.551   4.665   0.013
 9167TIP3    H127465   5.531   4.701   0.099
 9167TIP3    H227466   5.470   4.675  -0.037
 9168TIP3   OH227467   3.983   4.304   4.723
 9168TIP3    H127468   3.940   4.359   4.658
 9168TIP3    H227469   3.979   4.355   4.804
 9169TIP3   OH227470   2.788   4.366   5.672
 9169TIP3    H127471   2.710   4.367   5.616
 9169TIP3    H227472   2.760   4.322   5.752
 9170TIP3   OH227473   0.808   2.969   5.380
 9170TIP3    H127474   0.793   2.880   5.348
 9170TIP3    H227475   0.886   2.999   5.332
 9171TIP3   OH227476   4.300   4.810   0.065
 9171TIP3    H127477   4.390   4.800   0.033
 9171TIP3    H227478   4.283   4.904   0.061
 9172TIP3   OH227479   1.012   4.572   1.693
 9172TIP3    H127480   1.029   4.486   1.655
 9172TIP3    H227481   1.021   4.633   1.619
 9173TIP3   OH227482   5.678   1.363   4.015
 9173TIP3    H127483   5.754   1.419   3.998
 9173TIP3    H227484   5.705   1.307   4.087
 9174TIP3   OH227485   0.393   6.140   5.429
 9174TIP3    H127486   0.360   6.173   5.512
 9174TIP3    H227487   0.427   6.053   5.450
 9175TIP3   OH227488   6.226   3.058   3.240
 9175TIP3    H127489   6.276   3.139   3.230
 9175TIP3    H227490   6.246   3.008   3.161
 9176TIP3   OH227491   4.647   2.227   2.266
 9176TIP3    H127492   4.581   2.189   2.208
 9176TIP3    H227493   4.599   2.292   2.318
 9177TIP3   OH227494   1.527  -0.058   4.352
 9177TIP3    H127495   1.610  -0.010   4.361
 9177TIP3    H227496   1.461   0.003   4.383
 9178TIP3   OH227497   5.403   5.908   1.385
 9178TIP3    H127498   5.445   5.937   1.304
 9178TIP3    H227499   5.422   5.814   1.390
 9179TIP3   OH227500   0.780   3.131   0.583
 9179TIP3    H127501   0.804   3.094   0.498
 9179TIP3    H227502   0.854   3.111   0.640
 9180TIP3   OH227503   2.112   0.608   0.657
 9180TIP3    H127504   2.189   0.555   0.679
 9180TIP3    H227505   2.044   0.543   0.636
 9181TIP3   OH227506   3.101   0.554   1.513
 9181TIP3    H127507   3.096   0.634   1.462
 9181TIP3    H227508   3.193   0.546   1.537
 9182TIP3   OH227509   1.365   6.809   3.433
 9182TIP3    H127510   1.299   6.865   3.393
 9182TIP3    H227511   1.346   6.721   3.400
 9183TIP3   OH227512   0.311   3.022   3.904
 9183TIP3    H127513   0.260   3.001   3.982
 9183TIP3    H227514   0.288   2.953   3.841
 9184TIP3   OH227515   2.580   5.191   0.908
 9184TIP3    H127516   2.497   5.143   0.910
 9184TIP3    H227517   2.575   5.243   0.827
 9185TIP3   OH227518   4.849   4.231   2.293
 9185TIP3    H127519   4.767   4.185   2.274
 9185TIP3    H227520   4.906   4.163   2.329
 9186TIP3   OH227521   4.249   5.355   5.507
 9186TIP3    H127522   4.338   5.337   5.540
 9186TIP3    H227523   4.209   5.269   5.500
 9187TIP3   OH227524   4.977   2.495   2.202
 9187TIP3    H127525   5.073   2.498   2.195
 9187TIP3    H227526   4.957   2.403   2.216
 9188TIP3   OH227527   0.662   0.851   3.670
 9188TIP3    H127528   0.644   0.808   3.753
 9188TIP3    H227529   0.598   0.922   3.664
 9189TIP3   OH227530   0.446   1.794   0.997
 9189TIP3    H127531   0.418   1.729   1.061
 9189TIP3    H227532   0.539   1.807   1.015
 9190TIP3   OH227533   0.713   3.258   4.269
 9190TIP3    H127534   0.669   3.175   4.250
 9190TIP3    H227535   0.643   3.324   4.266
 9191TIP3   OH227536   3.747   0.927   3.265
 9191TIP3    H127537   3.809   0.902   3.334
 9191TIP3    H227538   3.799   0.975   3.201
 9192TIP3   OH227539   2.198   6.284   4.833
 9192TIP3    H127540   2.189   6.377   4.852
 9192TIP3    H227541   2.222   6.280   4.740
 9193TIP3   OH227542   5.007   2.595   5.177
 9193TIP3    H127543   5.030   2.505   5.157
 9193TIP3    H227544   4.978   2.592   5.268
 9194TIP3   OH227545   5.943   4.925   0.816
 9194TIP3    H127546   6.029   4.893   0.843
 9194TIP3    H227547   5.881   4.860   0.850
 9195TIP3   OH227548   1.268   2.377   0.517
 9195TIP3    H127549   1.238   2.295   0.556
 9195TIP3    H227550   1.357   2.388   0.548
 9196TIP3   OH227551   5.824   0.975   2.956
 9196TIP3    H127552   5.847   0.884   2.972
 9196TIP3    H227553   5.889   1.005   2.892
 9197TIP3   OH227554   4.788   6.323   0.660
 9197TIP3    H127555   4.721   6.356   0.719
 9197TIP3    H227556   4.870   6.355   0.696
 9198TIP3   OH227557   6.036   5.289   2.658
 9198TIP3    H127558   6.050   5.373   2.616
 9198TIP3    H227559   6.123   5.258   2.681
 9199TIP3   OH227560   0.598   3.275   2.819
 9199TIP3    H127561   0.591   3.316   2.905
 9199TIP3    H227562   0.685   3.301   2.787
 9200TIP3   OH227563   2.648   6.653   5.635
 9200TIP3    H127564   2.642   6.626   5.726
 9200TIP3    H227565   2.742   6.653   5.615
 9201TIP3   OH227566   1.447   0.591   2.877
 9201TIP3    H127567   1.482   0.631   2.797
 9201TIP3    H227568   1.390   0.521   2.847
 9202TIP3   OH227569   7.027   1.088   0.525
 9202TIP3    H127570   6.995   1.074   0.436
 9202TIP3    H227571   7.094   1.022   0.537
 9203TIP3   OH227572   3.658   6.636   5.059
 9203TIP3    H127573   3.632   6.556   5.015
 9203TIP3    H227574   3.754   6.635   5.056
 9204TIP3   OH227575   5.699   4.965   3.979
 9204TIP3    H127576   5.629   4.915   3.937
 9204TIP3    H227577   5.738   4.904   4.042
 9205TIP3   OH227578  -0.014   5.866   2.432
 9205TIP3    H127579  -0.075   5.828   2.495
 9205TIP3    H227580   0.071   5.863   2.475
 9206TIP3   OH227581   6.714   3.533   0.672
 9206TIP3    H127582   6.781   3.583   0.718
 9206TIP3    H227583   6.758   3.505   0.591
 9207TIP3   OH227584   1.017   0.857   4.091
 9207TIP3    H127585   1.026   0.825   4.181
 9207TIP3    H227586   1.057   0.944   4.093
 9208TIP3   OH227587   3.073   3.826   1.299
 9208TIP3    H127588   3.163   3.801   1.276
 9208TIP3    H227589   3.080   3.917   1.326
 9209TIP3   OH227590   2.922   2.893   4.453
 9209TIP3    H127591   3.013   2.874   4.430
 9209TIP3    H227592   2.870   2.832   4.400
 9210TIP3   OH227593   3.722   5.568   4.129
 9210TIP3    H127594   3.813   5.594   4.139
 9210TIP3    H227595   3.676   5.650   4.109
 9211TIP3   OH227596   6.110   5.348   4.950
 9211TIP3    H127597   6.134   5.310   4.865
 9211TIP3    H227598   6.135   5.440   4.943
 9212TIP3   OH227599   6.364   4.524   5.646
 9212TIP3    H127600   6.282   4.569   5.625
 9212TIP3    H227601   6.338   4.455   5.707
 9213TIP3   OH227602   0.075   1.301   1.939
 9213TIP3    H127603   0.081   1.381   1.887
 9213TIP3    H227604   0.141   1.243   1.902
 9214TIP3   OH227605   0.680   2.654   3.066
 9214TIP3    H127606   0.715   2.740   3.091
 9214TIP3    H227607   0.712   2.641   2.977
 9215TIP3   OH227608   6.158   3.906   2.339
 9215TIP3    H127609   6.087   3.849   2.310
 9215TIP3    H227610   6.223   3.901   2.269
 9216TIP3   OH227611   3.712   5.622   4.902
 9216TIP3    H127612   3.789   5.575   4.869
 9216TIP3    H227613   3.686   5.678   4.828
 9217TIP3   OH227614   2.302   3.964   4.693
 9217TIP3    H127615   2.224   3.915   4.666
 9217TIP3    H227616   2.337   3.913   4.766
 9218TIP3   OH227617   5.704   5.104   4.324
 9218TIP3    H127618   5.716   5.020   4.369
 9218TIP3    H227619   5.609   5.108   4.307
 9219TIP3   OH227620   2.157   2.345   5.681
 9219TIP3    H127621   2.245   2.347   5.719
 9219TIP3    H227622   2.171   2.333   5.587
 9220TIP3   OH227623   6.897   5.733   2.853
 9220TIP3    H127624   6.973   5.733   2.794
 9220TIP3    H227625   6.822   5.743   2.796
 9221TIP3   OH227626   3.051   6.619   1.251
 9221TIP3    H127627   3.033   6.705   1.214
 9221TIP3    H227628   3.145   6.605   1.235
 9222TIP3   OH227629   6.865   3.233   0.443
 9222TIP3    H127630   6.908   3.317   0.457
 9222TIP3    H227631   6.806   3.247   0.369
 9223TIP3   OH227632   6.163   1.943   2.304
 9223TIP3    H127633   6.244   1.977   2.266
 9223TIP3    H227634   6.191   1.869   2.358
 9224TIP3   OH227635   6.088   5.101   1.210
 9224TIP3    H127636   5.999   5.065   1.212
 9224TIP3    H227637   6.076   5.191   1.179
 9225TIP3   OH227638   5.075   4.545   5.120
 9225TIP3    H127639   5.082   4.568   5.027
 9225TIP3    H227640   5.156   4.498   5.139
 9226TIP3   OH227641   6.891   2.176   2.868
 9226TIP3    H127642   6.853   2.091   2.890
 9226TIP3    H227643   6.978   2.174   2.908
 9227TIP3   OH227644   0.830   3.928   3.821
 9227TIP3    H127645   0.863   3.844   3.788
 9227TIP3    H227646   0.893   3.953   3.889
 9228TIP3   OH227647   2.044   4.553   0.778
 9228TIP3    H127648   1.983   4.622   0.805
 9228TIP3    H227649   2.021   4.478   0.832
 9229TIP3   OH227650   3.915   5.841   3.772
 9229TIP3    H127651   4.009   5.823   3.776
 9229TIP3    H227652   3.874   5.767   3.817
 9230TIP3   OH227653   1.709   0.868   3.125
 9230TIP3    H127654   1.639   0.820   3.169
 9230TIP3    H227655   1.778   0.876   3.190
 9231TIP3   OH227656   4.986   2.296   0.883
 9231TIP3    H127657   5.016   2.232   0.948
 9231TIP3    H227658   4.960   2.243   0.808
 9232TIP3   OH227659   5.183   0.082   3.677
 9232TIP3    H127660   5.173   0.014   3.744
 9232TIP3    H227661   5.234   0.040   3.608
 9233TIP3   OH227662   2.248   1.758   2.253
 9233TIP3    H127663   2.278   1.677   2.211
 9233TIP3    H227664   2.207   1.729   2.334
 9234TIP3   OH227665   0.779   0.350   0.369
 9234TIP3    H127666   0.874   0.358   0.374
 9234TIP3    H227667   0.749   0.365   0.459
 9235TIP3   OH227668   5.742   1.626   2.867
 9235TIP3    H127669   5.825   1.669   2.845
 9235TIP3    H227670   5.758   1.533   2.849
 9236TIP3   OH227671   2.583   3.383   1.030
 9236TIP3    H127672   2.588   3.471   0.993
 9236TIP3    H227673   2.674   3.355   1.039
 9237TIP3   OH227674   1.119   2.174   2.742
 9237TIP3    H127675   1.120   2.154   2.836
 9237TIP3    H227676   1.071   2.101   2.703
 9238TIP3   OH227677   1.718   6.108   0.580
 9238TIP3    H127678   1.667   6.096   0.661
 9238TIP3    H227679   1.664   6.168   0.527
 9239TIP3   OH227680   2.466   3.116   1.322
 9239TIP3    H127681   2.414   3.134   1.400
 9239TIP3    H227682   2.433   3.178   1.257
 9240TIP3   OH227683   2.393   0.508   3.011
 9240TIP3    H127684   2.373   0.476   3.099
 9240TIP3    H227685   2.442   0.437   2.970
 9241TIP3   OH227686   2.314   2.605   1.885
 9241TIP3    H127687   2.240   2.593   1.826
 9241TIP3    H227688   2.339   2.697   1.873
 9242TIP3   OH227689   1.656   5.204   3.700
 9242TIP3    H127690   1.722   5.154   3.653
 9242TIP3    H227691   1.595   5.234   3.632
 9243TIP3   OH227692   6.650   0.345   4.577
 9243TIP3    H127693   6.663   0.331   4.484
 9243TIP3    H227694   6.718   0.407   4.602
 9244TIP3   OH227695  -0.017   0.333   0.214
 9244TIP3    H127696   0.074   0.363   0.211
 9244TIP3    H227697  -0.029   0.285   0.132
 9245TIP3   OH227698   6.922   0.545   3.923
 9245TIP3    H127699   6.974   0.613   3.879
 9245TIP3    H227700   6.949   0.549   4.014
 9246TIP3   OH227701   6.939   6.377   2.108
 9246TIP3    H127702   6.854   6.403   2.144
 9246TIP3    H227703   6.982   6.332   2.180
 9247TIP3   OH227704   1.403   6.795   2.715
 9247TIP3    H127705   1.490   6.813   2.751
 9247TIP3    H227706   1.389   6.702   2.730
 9248TIP3   OH227707   0.594   6.178   0.286
 9248TIP3    H127708   0.649   6.248   0.320
 9248TIP3    H227709   0.522   6.222   0.241
 9249TIP3   OH227710   2.632   5.262   2.482
 9249TIP3    H127711   2.626   5.193   2.417
 9249TIP3    H227712   2.547   5.262   2.526
 9250TIP3   OH227713   3.587   3.472   4.117
 9250TIP3    H127714   3.588   3.381   4.087
 9250TIP3    H227715   3.668   3.481   4.168
 9251TIP3   OH227716   6.185   4.974   2.809
 9251TIP3    H127717   6.107   5.014   2.771
 9251TIP3    H227718   6.252   4.985   2.742
 9252TIP3   OH227719   6.954   3.996   3.437
 9252TIP3    H127720   7.007   3.923   3.405
 9252TIP3    H227721   6.884   3.955   3.488
 9253TIP3   OH227722   0.267   4.425   2.447
 9253TIP3    H127723   0.351   4.418   2.402
 9253TIP3    H227724   0.286   4.398   2.537
 9254TIP3   OH227725   6.044   6.193   4.106
 9254TIP3    H127726   6.064   6.167   4.017
 9254TIP3    H227727   5.949   6.190   4.112
 9255TIP3   OH227728   6.485   0.110   3.452
 9255TIP3    H127729   6.467   0.022   3.486
 9255TIP3    H227730   6.534   0.153   3.521
 9256TIP3   OH227731   3.958   3.801   5.660
 9256TIP3    H127732   3.952   3.769   5.570
 9256TIP3    H227733   4.052   3.803   5.679
 9257TIP3   OH227734   3.562   5.447   5.051
 9257TIP3    H127735   3.589   5.447   5.143
 9257TIP3    H227736   3.610   5.520   5.011
 9258TIP3   OH227737   0.991   1.125   5.732
 9258TIP3    H127738   1.062   1.106   5.794
 9258TIP3    H227739   0.921   1.163   5.786
 9259TIP3   OH227740   4.730   1.483   1.870
 9259TIP3    H127741   4.697   1.428   1.941
 9259TIP3    H227742   4.810   1.522   1.904
 9260TIP3   OH227743   6.590   2.901   2.626
 9260TIP3    H127744   6.682   2.925   2.616
 9260TIP3    H227745   6.581   2.818   2.579
 9261TIP3   OH227746   6.211   4.121   4.547
 9261TIP3    H127747   6.220   4.053   4.614
 9261TIP3    H227748   6.162   4.079   4.477
 9262TIP3   OH227749   6.714   0.778   4.065
 9262TIP3    H127750   6.619   0.767   4.055
 9262TIP3    H227751   6.747   0.784   3.975
 9263TIP3   OH227752   5.218   3.021   2.018
 9263TIP3    H127753   5.236   3.095   2.076
 9263TIP3    H227754   5.157   2.966   2.068
 9264TIP3   OH227755   6.434   5.364   2.495
 9264TIP3    H127756   6.483   5.302   2.548
 9264TIP3    H227757   6.484   5.372   2.414
 9265TIP3   OH227758   3.394   5.870   0.448
 9265TIP3    H127759   3.452   5.890   0.374
 9265TIP3    H227760   3.353   5.787   0.426
 9266TIP3   OH227761   0.292   6.272   2.586
 9266TIP3    H127762   0.274   6.353   2.539
 9266TIP3    H227763   0.314   6.209   2.517
 9267TIP3   OH227764   1.294   0.774   2.615
 9267TIP3    H127765   1.326   0.805   2.700
 9267TIP3    H227766   1.288   0.679   2.626
 9268TIP3   OH227767   0.883   3.651   3.793
 9268TIP3    H127768   0.837   3.641   3.710
 9268TIP3    H227769   0.959   3.593   3.786
 9269TIP3   OH227770   5.862   0.557   3.546
 9269TIP3    H127771   5.897   0.625   3.487
 9269TIP3    H227772   5.917   0.481   3.530
 9270TIP3   OH227773   2.565   3.506   4.533
 9270TIP3    H127774   2.637   3.460   4.489
 9270TIP3    H227775   2.486   3.459   4.507
 9271TIP3   OH227776   0.551   4.756   5.042
 9271TIP3    H127777   0.621   4.801   5.088
 9271TIP3    H227778   0.595   4.705   4.974
 9272TIP3   OH227779   5.467   0.067   2.731
 9272TIP3    H127780   5.492   0.074   2.639
 9272TIP3    H227781   5.375   0.040   2.729
 9273TIP3   OH227782   4.481   5.883   5.542
 9273TIP3    H127783   4.509   5.867   5.452
 9273TIP3    H227784   4.524   5.815   5.594
 9274TIP3   OH227785   3.914   0.632   3.033
 9274TIP3    H127786   3.905   0.562   3.098
 9274TIP3    H227787   4.009   0.642   3.021
 9275TIP3   OH227788   6.338   6.542   1.787
 9275TIP3    H127789   6.381   6.510   1.867
 9275TIP3    H227790   6.376   6.488   1.717
 9276TIP3   OH227791   2.264   6.661   4.495
 9276TIP3    H127792   2.281   6.698   4.581
 9276TIP3    H227793   2.177   6.624   4.501
 9277TIP3   OH227794   3.676   2.065   3.008
 9277TIP3    H127795   3.630   1.989   3.044
 9277TIP3    H227796   3.682   2.048   2.914
 9278TIP3   OH227797   5.223   4.289   2.092
 9278TIP3    H127798   5.318   4.297   2.088
 9278TIP3    H227799   5.191   4.379   2.084
 9279TIP3   OH227800   5.572   5.996   5.216
 9279TIP3    H127801   5.578   6.074   5.271
 9279TIP3    H227802   5.661   5.985   5.182
 9280TIP3   OH227803   1.989   4.783   5.855
 9280TIP3    H127804   1.997   4.831   5.773
 9280TIP3    H227805   2.057   4.715   5.849
 9281TIP3   OH227806   4.639   3.116   3.454
 9281TIP3    H127807   4.648   3.093   3.547
 9281TIP3    H227808   4.597   3.041   3.414
 9282TIP3   OH227809   0.424   0.763   2.552
 9282TIP3    H127810   0.380   0.808   2.625
 9282TIP3    H227811   0.417   0.670   2.574
 9283TIP3   OH227812   6.271   6.135   0.913
 9283TIP3    H127813   6.238   6.108   0.999
 9283TIP3    H227814   6.356   6.174   0.931
 9284TIP3   OH227815   2.326   1.747   5.437
 9284TIP3    H127816   2.287   1.662   5.459
 9284TIP3    H227817   2.398   1.757   5.499
 9285TIP3   OH227818   1.604   4.571   0.323
 9285TIP3    H127819   1.546   4.613   0.386
 9285TIP3    H227820   1.612   4.634   0.252
 9286TIP3   OH227821   1.067   0.382   1.703
 9286TIP3    H127822   1.098   0.324   1.632
 9286TIP3    H227823   1.136   0.448   1.711
 9287TIP3   OH227824   1.781   2.993   1.796
 9287TIP3    H127825   1.789   2.900   1.817
 9287TIP3    H227826   1.687   3.008   1.791
 9288TIP3   OH227827   4.450   2.055   0.991
 9288TIP3    H127828   4.503   2.113   0.935
 9288TIP3    H227829   4.366   2.100   0.999
 9289TIP3   OH227830   5.735   1.348   2.281
 9289TIP3    H127831   5.652   1.393   2.266
 9289TIP3    H227832   5.759   1.372   2.371
 9290TIP3   OH227833   4.004   4.647   0.078
 9290TIP3    H127834   3.985   4.719   0.138
 9290TIP3    H227835   3.934   4.583   0.092
 9291TIP3   OH227836   1.439   4.415   2.228
 9291TIP3    H127837   1.443   4.421   2.133
 9291TIP3    H227838   1.355   4.371   2.246
 9292TIP3   OH227839   7.151   6.165   0.405
 9292TIP3    H127840   7.060   6.161   0.375
 9292TIP3    H227841   7.145   6.187   0.498
 9293TIP3   OH227842   5.286   1.772   4.641
 9293TIP3    H127843   5.233   1.776   4.562
 9293TIP3    H227844   5.280   1.859   4.680
 9294TIP3   OH227845   3.699   3.225   1.099
 9294TIP3    H127846   3.683   3.282   1.024
 9294TIP3    H227847   3.682   3.137   1.067
 9295TIP3   OH227848   1.493   5.176   5.725
 9295TIP3    H127849   1.440   5.146   5.799
 9295TIP3    H227850   1.499   5.271   5.738
 9296TIP3   OH227851   1.544   1.070   4.047
 9296TIP3    H127852   1.636   1.077   4.071
 9296TIP3    H227853   1.535   1.127   3.971
 9297TIP3   OH227854   2.865   6.712   1.481
 9297TIP3    H127855   2.942   6.655   1.475
 9297TIP3    H227856   2.814   6.691   1.402
 9298TIP3   OH227857   6.365   4.522   5.146
 9298TIP3    H127858   6.347   4.510   5.053
 9298TIP3    H227859   6.352   4.616   5.162
 9299TIP3   OH227860   1.456   5.413   0.814
 9299TIP3    H127861   1.545   5.425   0.782
 9299TIP3    H227862   1.435   5.496   0.857
 9300TIP3   OH227863   2.359   6.425   2.558
 9300TIP3    H127864   2.442   6.453   2.596
 9300TIP3    H227865   2.381   6.350   2.503
 9301TIP3   OH227866   3.093   4.510   1.659
 9301TIP3    H127867   3.176   4.513   1.707
 9301TIP3    H227868   3.027   4.494   1.726
 9302TIP3   OH227869   0.350   2.441   3.444
 9302TIP3    H127870   0.416   2.438   3.514
 9302TIP3    H227871   0.395   2.482   3.370
 9303TIP3   OH227872   3.912   1.695   3.743
 9303TIP3    H127873   3.885   1.758   3.676
 9303TIP3    H227874   4.008   1.690   3.734
 9304TIP3   OH227875   0.353   5.005   3.786
 9304TIP3    H127876   0.346   5.099   3.767
 9304TIP3    H227877   0.290   4.964   3.727
 9305TIP3   OH227878   5.078   3.674   2.055
 9305TIP3    H127879   5.087   3.630   2.140
 9305TIP3    H227880   5.022   3.749   2.072
 9306TIP3   OH227881   5.263   4.138   3.093
 9306TIP3    H127882   5.280   4.062   3.149
 9306TIP3    H227883   5.300   4.115   3.008
 9307TIP3   OH227884   6.860   1.771   2.639
 9307TIP3    H127885   6.894   1.755   2.728
 9307TIP3    H227886   6.825   1.686   2.612
 9308TIP3   OH227887   4.568   4.656   2.440
 9308TIP3    H127888   4.618   4.574   2.445
 9308TIP3    H227889   4.509   4.652   2.515
 9309TIP3   OH227890   6.439   6.213   5.865
 9309TIP3    H127891   6.512   6.241   5.921
 9309TIP3    H227892   6.402   6.138   5.911
 9310TIP3   OH227893   0.970   1.596   1.169
 9310TIP3    H127894   1.025   1.650   1.113
 9310TIP3    H227895   1.012   1.600   1.255
 9311TIP3   OH227896   0.618   5.266   3.258
 9311TIP3    H127897   0.667   5.343   3.232
 9311TIP3    H227898   0.635   5.257   3.351
 9312TIP3   OH227899   3.515   2.734   3.516
 9312TIP3    H127900   3.562   2.665   3.468
 9312TIP3    H227901   3.580   2.768   3.578
 9313TIP3   OH227902   6.709   0.215   1.502
 9313TIP3    H127903   6.616   0.194   1.515
 9313TIP3    H227904   6.745   0.223   1.590
 9314TIP3   OH227905   2.163   6.254   3.505
 9314TIP3    H127906   2.162   6.245   3.410
 9314TIP3    H227907   2.105   6.329   3.522
 9315TIP3   OH227908   6.016   1.621   4.738
 9315TIP3    H127909   5.970   1.601   4.819
 9315TIP3    H227910   6.095   1.667   4.765
 9316TIP3   OH227911   4.402   5.078   1.662
 9316TIP3    H127912   4.449   5.103   1.582
 9316TIP3    H227913   4.376   5.162   1.702
 9317TIP3   OH227914   2.066   5.383   2.165
 9317TIP3    H127915   2.137   5.442   2.140
 9317TIP3    H227916   2.091   5.351   2.251
 9318TIP3   OH227917   1.041   3.273   3.316
 9318TIP3    H127918   1.092   3.325   3.378
 9318TIP3    H227919   0.950   3.284   3.344
 9319TIP3   OH227920   2.041   2.729   3.451
 9319TIP3    H127921   1.997   2.809   3.421
 9319TIP3    H227922   2.075   2.752   3.538
 9320TIP3   OH227923   5.983   4.697   1.107
 9320TIP3    H127924   5.986   4.602   1.112
 9320TIP3    H227925   5.924   4.715   1.033
 9321TIP3   OH227926   0.914   2.332   4.973
 9321TIP3    H127927   0.995   2.282   4.986
 9321TIP3    H227928   0.849   2.267   4.947
 9322TIP3   OH227929   4.685   1.421   2.561
 9322TIP3    H127930   4.612   1.408   2.500
 9322TIP3    H227931   4.745   1.348   2.542
 9323TIP3   OH227932   0.638   4.325   2.702
 9323TIP3    H127933   0.658   4.412   2.734
 9323TIP3    H227934   0.686   4.318   2.619
 9324TIP3   OH227935   0.763   4.114   2.819
 9324TIP3    H127936   0.711   4.193   2.800
 9324TIP3    H227937   0.823   4.108   2.745
 9325TIP3   OH227938   0.602   1.021   1.825
 9325TIP3    H127939   0.583   0.984   1.911
 9325TIP3    H227940   0.602   0.946   1.766
 9326TIP3   OH227941   5.218   1.039   1.530
 9326TIP3    H127942   5.196   0.951   1.499
 9326TIP3    H227943   5.246   1.027   1.621
 9327TIP3   OH227944   2.262   5.430   4.020
 9327TIP3    H127945   2.267   5.523   4.041
 9327TIP3    H227946   2.177   5.419   3.978
 9328TIP3   OH227947  -0.033   4.767   3.536
 9328TIP3    H127948  -0.022   4.673   3.521
 9328TIP3    H227949   0.013   4.809   3.463
 9329TIP3   OH227950   4.063   1.040   3.420
 9329TIP3    H127951   4.106   1.065   3.338
 9329TIP3    H227952   4.041   1.123   3.462
 9330TIP3   OH227953   5.354   5.908   5.357
 9330TIP3    H127954   5.438   5.928   5.315
 9330TIP3    H227955   5.289   5.921   5.288
 9331TIP3   OH227956   6.347   6.617   1.312
 9331TIP3    H127957   6.360   6.539   1.258
 9331TIP3    H227958   6.257   6.644   1.295
 9332TIP3   OH227959   4.147   5.230   2.608
 9332TIP3    H127960   4.218   5.201   2.551
 9332TIP3    H227961   4.192   5.272   2.682
 9333TIP3   OH227962   2.291   5.249   1.327
 9333TIP3    H127963   2.363   5.305   1.298
 9333TIP3    H227964   2.310   5.230   1.419
 9334TIP3   OH227965   3.764   5.892   0.618
 9334TIP3    H127966   3.811   5.851   0.691
 9334TIP3    H227967   3.673   5.897   0.648
 9335TIP3   OH227968   0.400   2.902   1.278
 9335TIP3    H127969   0.392   2.828   1.339
 9335TIP3    H227970   0.349   2.875   1.201
 9336TIP3   OH227971   3.197   1.528   3.163
 9336TIP3    H127972   3.241   1.541   3.247
 9336TIP3    H227973   3.248   1.460   3.119
 9337TIP3   OH227974   3.506   2.399   2.513
 9337TIP3    H127975   3.429   2.370   2.561
 9337TIP3    H227976   3.503   2.495   2.518
 9338TIP3   OH227977   2.089   0.200   0.598
 9338TIP3    H127978   2.050   0.113   0.611
 9338TIP3    H227979   2.119   0.200   0.507
 9339TIP3   OH227980   5.237   2.243   5.234
 9339TIP3    H127981   5.154   2.242   5.186
 9339TIP3    H227982   5.288   2.171   5.196
 9340TIP3   OH227983   2.533   6.113   1.873
 9340TIP3    H127984   2.502   6.193   1.916
 9340TIP3    H227985   2.455   6.059   1.863
 9341TIP3   OH227986   3.991   2.557   2.090
 9341TIP3    H127987   4.002   2.650   2.110
 9341TIP3    H227988   4.066   2.514   2.132
 9342TIP3   OH227989   4.602   4.813   0.382
 9342TIP3    H127990   4.600   4.803   0.477
 9342TIP3    H227991   4.512   4.830   0.357
 9343TIP3   OH227992   2.973   2.245   1.509
 9343TIP3    H127993   3.015   2.249   1.595
 9343TIP3    H227994   2.887   2.286   1.522
 9344TIP3   OH227995   0.823   4.304   2.479
 9344TIP3    H127996   0.792   4.246   2.409
 9344TIP3    H227997   0.835   4.389   2.437
 9345TIP3   OH227998   1.372   6.496   4.377
 9345TIP3    H127999   1.299   6.557   4.371
 9345TIP3    H228000   1.391   6.490   4.471
 9346TIP3   OH228001   5.016   0.272   2.223
 9346TIP3    H128002   5.111   0.268   2.209
 9346TIP3    H228003   4.983   0.190   2.185
 9347TIP3   OH228004   1.265   4.425   0.047
 9347TIP3    H128005   1.276   4.364  -0.026
 9347TIP3    H228006   1.323   4.498   0.026
 9348TIP3   OH228007   7.114   2.764   5.872
 9348TIP3    H128008   7.141   2.787   5.783
 9348TIP3    H228009   7.180   2.804   5.928
 9349TIP3   OH228010   6.715   3.041   2.311
 9349TIP3    H128011   6.766   3.011   2.386
 9349TIP3    H228012   6.667   2.963   2.282
 9350TIP3   OH228013   6.785   6.692   1.195
 9350TIP3    H128014   6.848   6.734   1.254
 9350TIP3    H228015   6.839   6.662   1.121
 9351TIP3   OH228016   2.224   5.829   3.867
 9351TIP3    H128017   2.306   5.783   3.851
 9351TIP3    H228018   2.201   5.805   3.957
 9352TIP3   OH228019   6.118   4.770   0.539
 9352TIP3    H128020   6.195   4.795   0.488
 9352TIP3    H228021   6.049   4.829   0.508
 9353TIP3   OH228022   0.894   2.171   0.318
 9353TIP3    H128023   0.925   2.191   0.406
 9353TIP3    H228024   0.919   2.079   0.304
 9354TIP3   OH228025   5.100   1.616   5.296
 9354TIP3    H128026   5.032   1.675   5.263
 9354TIP3    H228027   5.052   1.551   5.348
 9355TIP3   OH228028   6.387   3.654   3.244
 9355TIP3    H128029   6.433   3.702   3.313
 9355TIP3    H228030   6.317   3.608   3.289
 9356TIP3   OH228031   1.438   1.782   3.081
 9356TIP3    H128032   1.365   1.804   3.024
 9356TIP3    H228033   1.407   1.707   3.132
 9357TIP3   OH228034   6.050   2.679   0.173
 9357TIP3    H128035   6.102   2.711   0.099
 9357TIP3    H228036   5.962   2.668   0.137
 9358TIP3   OH228037   6.386   4.150   3.170
 9358TIP3    H128038   6.465   4.203   3.159
 9358TIP3    H228039   6.377   4.104   3.087
 9359TIP3   OH228040   7.100   1.250   5.100
 9359TIP3    H128041   7.062   1.336   5.083
 9359TIP3    H228042   7.115   1.249   5.195
 9360TIP3   OH228043   1.954   2.606   1.257
 9360TIP3    H128044   2.046   2.595   1.234
 9360TIP3    H228045   1.912   2.637   1.176
 9361TIP3   OH228046   2.587   1.921   1.225
 9361TIP3    H128047   2.674   1.880   1.224
 9361TIP3    H228048   2.558   1.917   1.134
 9362TIP3   OH228049   4.604   6.298   4.096
 9362TIP3    H128050   4.657   6.368   4.133
 9362TIP3    H228051   4.515   6.315   4.127
 9363TIP3   OH228052   3.080   2.379   4.727
 9363TIP3    H128053   3.068   2.472   4.744
 9363TIP3    H228054   3.019   2.359   4.657
 9364TIP3   OH228055   1.737   6.219   3.660
 9364TIP3    H128056   1.791   6.297   3.650
 9364TIP3    H228057   1.671   6.226   3.591
 9365TIP3   OH228058   1.669   3.709   3.575
 9365TIP3    H128059   1.714   3.669   3.501
 9365TIP3    H228060   1.739   3.746   3.629
 9366TIP3   OH228061   1.406   4.717   4.864
 9366TIP3    H128062   1.367   4.800   4.839
 9366TIP3    H228063   1.336   4.653   4.854
 9367TIP3   OH228064   2.616   3.903   5.302
 9367TIP3    H128065   2.675   3.842   5.347
 9367TIP3    H228066   2.656   3.917   5.216
 9368TIP3   OH228067   4.878   3.693   1.064
 9368TIP3    H128068   4.869   3.621   1.126
 9368TIP3    H228069   4.837   3.661   0.984
 9369TIP3   OH228070   3.181   2.945   3.902
 9369TIP3    H128071   3.249   3.009   3.920
 9369TIP3    H228072   3.221   2.882   3.842
 9370TIP3   OH228073   4.291   6.065   2.251
 9370TIP3    H128074   4.224   6.015   2.205
 9370TIP3    H228075   4.368   6.007   2.253
 9371TIP3   OH228076   4.692   4.460   5.573
 9371TIP3    H128077   4.741   4.539   5.596
 9371TIP3    H228078   4.601   4.488   5.568
 9372TIP3   OH228079   0.454   3.083   2.013
 9372TIP3    H128080   0.432   3.047   1.927
 9372TIP3    H228081   0.398   3.161   2.022
 9373TIP3   OH228082   3.789   5.899   1.142
 9373TIP3    H128083   3.709   5.945   1.168
 9373TIP3    H228084   3.843   5.898   1.221
 9374TIP3   OH228085   6.856   6.241   5.837
 9374TIP3    H128086   6.816   6.161   5.801
 9374TIP3    H228087   6.913   6.273   5.767
 9375TIP3   OH228088   4.543   5.221   4.152
 9375TIP3    H128089   4.594   5.226   4.233
 9375TIP3    H228090   4.480   5.292   4.159
 9376TIP3   OH228091   5.134   6.682   1.529
 9376TIP3    H128092   5.086   6.635   1.597
 9376TIP3    H228093   5.181   6.751   1.575
 9377TIP3   OH228094   7.052   4.558   1.302
 9377TIP3    H128095   7.009   4.617   1.365
 9377TIP3    H228096   6.989   4.488   1.287
 9378TIP3   OH228097   6.481   3.707   3.483
 9378TIP3    H128098   6.510   3.703   3.574
 9378TIP3    H228099   6.516   3.790   3.449
 9379TIP3   OH228100   1.373   4.582   1.008
 9379TIP3    H128101   1.374   4.625   0.923
 9379TIP3    H228102   1.414   4.497   0.993
 9380TIP3   OH228103   0.389   2.768   2.748
 9380TIP3    H128104   0.422   2.857   2.757
 9380TIP3    H228105   0.450   2.715   2.800
 9381TIP3   OH228106   7.055   4.679   4.787
 9381TIP3    H128107   7.141   4.669   4.826
 9381TIP3    H228108   6.995   4.685   4.862
 9382TIP3   OH228109   6.676   1.247   1.210
 9382TIP3    H128110   6.659   1.251   1.304
 9382TIP3    H228111   6.598   1.286   1.171
 9383TIP3   OH228112   6.396   1.440   5.679
 9383TIP3    H128113   6.392   1.346   5.694
 9383TIP3    H228114   6.315   1.460   5.631
 9384TIP3   OH228115   1.841   6.234   4.933
 9384TIP3    H128116   1.845   6.139   4.933
 9384TIP3    H228117   1.764   6.255   4.987
 9385TIP3   OH228118   0.292   5.763   1.769
 9385TIP3    H128119   0.235   5.775   1.845
 9385TIP3    H228120   0.286   5.845   1.721
 9386TIP3   OH228121   6.966   4.226   0.247
 9386TIP3    H128122   7.016   4.240   0.327
 9386TIP3    H228123   6.877   4.254   0.268
 9387TIP3   OH228124   1.152   2.966   1.715
 9387TIP3    H128125   1.163   2.876   1.746
 9387TIP3    H228126   1.197   2.969   1.631
 9388TIP3   OH228127   2.862   1.806   2.322
 9388TIP3    H128128   2.770   1.820   2.300
 9388TIP3    H228129   2.860   1.761   2.407
 9389TIP3   OH228130   0.318   6.254   2.854
 9389TIP3    H128131   0.297   6.260   2.761
 9389TIP3    H228132   0.237   6.223   2.895
 9390TIP3   OH228133   5.172   0.372   0.503
 9390TIP3    H128134   5.112   0.383   0.429
 9390TIP3    H228135   5.208   0.459   0.518
 9391TIP3   OH228136   0.478   3.618   0.254
 9391TIP3    H128137   0.505   3.529   0.274
 9391TIP3    H228138   0.533   3.644   0.179
 9392TIP3   OH228139   0.955   6.054   2.585
 9392TIP3    H128140   1.017   5.984   2.563
 9392TIP3    H228141   0.996   6.134   2.553
 9393TIP3   OH228142   3.542   6.624   1.740
 9393TIP3    H128143   3.452   6.618   1.710
 9393TIP3    H228144   3.574   6.534   1.740
 9394TIP3   OH228145   0.749   1.153   1.545
 9394TIP3    H128146   0.773   1.204   1.468
 9394TIP3    H228147   0.735   1.065   1.511
 9395TIP3   OH228148   3.695   4.436   0.992
 9395TIP3    H128149   3.700   4.525   0.956
 9395TIP3    H228150   3.692   4.379   0.915
 9396TIP3   OH228151   0.172   3.392   4.750
 9396TIP3    H128152   0.193   3.311   4.797
 9396TIP3    H228153   0.202   3.462   4.807
 9397TIP3   OH228154   2.491   4.074   1.032
 9397TIP3    H128155   2.433   4.085   0.956
 9397TIP3    H228156   2.570   4.035   0.995
 9398TIP3   OH228157   1.007   2.098   1.857
 9398TIP3    H128158   1.063   2.120   1.782
 9398TIP3    H228159   0.922   2.078   1.818
 9399TIP3   OH228160   6.157   0.099   1.163
 9399TIP3    H128161   6.205   0.016   1.168
 9399TIP3    H228162   6.226   0.165   1.153
 9400TIP3   OH228163   2.974   5.773   4.511
 9400TIP3    H128164   2.884   5.805   4.514
 9400TIP3    H228165   3.007   5.782   4.601
 9401TIP3   OH228166   4.407   4.768   4.328
 9401TIP3    H128167   4.338   4.833   4.313
 9401TIP3    H228168   4.371   4.687   4.292
 9402TIP3   OH228169   2.048   2.249   0.665
 9402TIP3    H128170   2.076   2.226   0.576
 9402TIP3    H228171   2.084   2.336   0.679
 9403TIP3   OH228172   4.211   3.434   4.179
 9403TIP3    H128173   4.271   3.475   4.241
 9403TIP3    H228174   4.203   3.344   4.209
 9404TIP3   OH228175   0.060   1.398   2.324
 9404TIP3    H128176   0.015   1.326   2.281
 9404TIP3    H228177   0.004   1.474   2.309
 9405TIP3   OH228178   0.610   0.174   4.435
 9405TIP3    H128179   0.550   0.237   4.394
 9405TIP3    H228180   0.615   0.202   4.526
 9406TIP3   OH228181   3.572   6.445   4.876
 9406TIP3    H128182   3.509   6.378   4.901
 9406TIP3    H228183   3.548   6.470   4.787
 9407TIP3   OH228184   0.164   5.606   0.531
 9407TIP3    H128185   0.097   5.627   0.465
 9407TIP3    H228186   0.116   5.602   0.613
 9408TIP3   OH228187   4.056   5.652   4.612
 9408TIP3    H128188   3.992   5.601   4.662
 9408TIP3    H228189   4.139   5.637   4.656
 9409TIP3   OH228190   5.954   0.212   2.151
 9409TIP3    H128191   6.043   0.180   2.170
 9409TIP3    H228192   5.939   0.279   2.218
 9410TIP3   OH228193   3.346   0.472   1.593
 9410TIP3    H128194   3.369   0.552   1.639
 9410TIP3    H228195   3.374   0.402   1.652
 9411TIP3   OH228196   0.508   0.137   1.433
 9411TIP3    H128197   0.493   0.228   1.406
 9411TIP3    H228198   0.569   0.103   1.368
 9412TIP3   OH228199   2.292   3.840   0.003
 9412TIP3    H128200   2.244   3.838   0.086
 9412TIP3    H228201   2.235   3.890  -0.055
 9413TIP3   OH228202   3.455   6.068   2.402
 9413TIP3    H128203   3.434   6.160   2.387
 9413TIP3    H228204   3.436   6.053   2.495
 9414TIP3   OH228205   2.780   2.855   1.200
 9414TIP3    H128206   2.770   2.760   1.210
 9414TIP3    H228207   2.692   2.887   1.180
 9415TIP3   OH228208   0.558   5.692   5.295
 9415TIP3    H128209   0.592   5.780   5.280
 9415TIP3    H228210   0.614   5.635   5.242
 9416TIP3   OH228211   3.885   1.430   1.891
 9416TIP3    H128212   3.974   1.400   1.912
 9416TIP3    H228213   3.833   1.350   1.887
 9417TIP3   OH228214   2.204   1.677   2.883
 9417TIP3    H128215   2.127   1.663   2.938
 9417TIP3    H228216   2.204   1.602   2.823
 9418TIP3   OH228217   0.075   4.787   2.855
 9418TIP3    H128218   0.099   4.849   2.786
 9418TIP3    H228219   0.149   4.790   2.916
 9419TIP3   OH228220   6.340   3.891   4.975
 9419TIP3    H128221   6.287   3.847   5.042
 9419TIP3    H228222   6.419   3.919   5.021
 9420TIP3   OH228223   3.572   4.534   5.813
 9420TIP3    H128224   3.655   4.490   5.794
 9420TIP3    H228225   3.505   4.475   5.781
 9421TIP3   OH228226   1.993   4.103   3.669
 9421TIP3    H128227   1.928   4.147   3.724
 9421TIP3    H228228   2.070   4.160   3.672
 9422TIP3   OH228229   6.629   0.541   2.018
 9422TIP3    H128230   6.540   0.570   1.996
 9422TIP3    H228231   6.686   0.602   1.971
 9423TIP3   OH228232   5.823   6.001   3.906
 9423TIP3    H128233   5.776   6.068   3.956
 9423TIP3    H228234   5.847   5.935   3.971
 9424TIP3   OH228235   4.465   6.461   2.282
 9424TIP3    H128236   4.433   6.527   2.343
 9424TIP3    H228237   4.461   6.378   2.331
 9425TIP3   OH228238   1.914   2.198   5.708
 9425TIP3    H128239   1.846   2.254   5.746
 9425TIP3    H228240   1.981   2.259   5.677
 9426TIP3   OH228241   5.896   2.592   3.426
 9426TIP3    H128242   5.809   2.615   3.394
 9426TIP3    H228243   5.929   2.528   3.363
 9427TIP3   OH228244   5.030   5.944   3.094
 9427TIP3    H128245   5.104   5.883   3.098
 9427TIP3    H228246   5.024   5.981   3.182
 9428TIP3   OH228247   6.245   6.091   2.055
 9428TIP3    H128248   6.154   6.116   2.073
 9428TIP3    H228249   6.250   6.085   1.959
 9429TIP3   OH228250   4.441   6.336   3.863
 9429TIP3    H128251   4.533   6.327   3.889
 9429TIP3    H228252   4.426   6.264   3.802
 9430TIP3   OH228253   0.574   6.651   3.169
 9430TIP3    H128254   0.492   6.602   3.164
 9430TIP3    H228255   0.641   6.583   3.179
 9431TIP3   OH228256   1.527   0.066   3.365
 9431TIP3    H128257   1.601   0.045   3.307
 9431TIP3    H228258   1.453   0.080   3.306
 9432TIP3   OH228259   6.252   2.418   0.213
 9432TIP3    H128260   6.176   2.460   0.254
 9432TIP3    H228261   6.280   2.479   0.145
 9433TIP3   OH228262   3.921   6.070   0.476
 9433TIP3    H128263   3.850   6.123   0.441
 9433TIP3    H228264   3.880   6.014   0.542
 9434TIP3   OH228265   0.151   6.219   4.952
 9434TIP3    H128266   0.217   6.151   4.962
 9434TIP3    H228267   0.067   6.173   4.959
 9435TIP3   OH228268   2.027   2.886   3.015
 9435TIP3    H128269   1.982   2.910   2.934
 9435TIP3    H228270   2.039   2.969   3.062
 9436TIP3   OH228271   1.121   2.586   2.211
 9436TIP3    H128272   1.162   2.520   2.156
 9436TIP3    H228273   1.169   2.583   2.294
 9437TIP3   OH228274   3.954   1.068   4.758
 9437TIP3    H128275   4.029   1.050   4.701
 9437TIP3    H228276   3.886   1.007   4.729
 9438TIP3   OH228277   2.048   6.035   5.610
 9438TIP3    H128278   2.080   6.120   5.639
 9438TIP3    H228279   1.952   6.044   5.610
 9439TIP3   OH228280   5.936   5.275   1.951
 9439TIP3    H128281   5.933   5.193   2.001
 9439TIP3    H228282   5.898   5.341   2.009
 9440TIP3   OH228283   2.909   4.077   1.669
 9440TIP3    H128284   3.001   4.052   1.677
 9440TIP3    H228285   2.861   3.994   1.671
 9441TIP3   OH228286   1.516   0.422   4.619
 9441TIP3    H128287   1.576   0.436   4.546
 9441TIP3    H228288   1.429   0.424   4.579
 9442TIP3   OH228289   5.819   0.454   3.891
 9442TIP3    H128290   5.912   0.476   3.885
 9442TIP3    H228291   5.785   0.469   3.803
 9443TIP3   OH228292   2.412   5.833   0.763
 9443TIP3    H128293   2.323   5.806   0.782
 9443TIP3    H228294   2.467   5.766   0.803
 9444TIP3   OH228295   1.701   0.799   0.810
 9444TIP3    H128296   1.663   0.882   0.839
 9444TIP3    H228297   1.784   0.823   0.770
 9445TIP3   OH228298   5.029   0.507   1.453
 9445TIP3    H128299   4.935   0.522   1.455
 9445TIP3    H228300   5.042   0.426   1.504
 9446TIP3   OH228301   0.002   2.864   2.626
 9446TIP3    H128302   0.014   2.919   2.703
 9446TIP3    H228303   0.074   2.887   2.568
 9447TIP3   OH228304   6.580   5.875   2.044
 9447TIP3    H128305   6.535   5.832   2.116
 9447TIP3    H228306   6.659   5.823   2.029
 9448TIP3   OH228307   6.285   3.488   4.870
 9448TIP3    H128308   6.244   3.536   4.797
 9448TIP3    H228309   6.357   3.441   4.829
 9449TIP3   OH228310   2.961   1.345   0.245
 9449TIP3    H128311   2.988   1.421   0.296
 9449TIP3    H228312   2.880   1.315   0.288
 9450TIP3   OH228313   5.387   6.728   5.440
 9450TIP3    H128314   5.327   6.661   5.408
 9450TIP3    H228315   5.334   6.782   5.499
 9451TIP3   OH228316   4.501   4.747   3.978
 9451TIP3    H128317   4.502   4.824   3.921
 9451TIP3    H228318   4.519   4.783   4.066
 9452TIP3   OH228319   6.973   3.910   0.395
 9452TIP3    H128320   6.924   3.927   0.475
 9452TIP3    H228321   6.930   3.964   0.328
 9453TIP3   OH228322   2.536   3.062   3.496
 9453TIP3    H128323   2.542   2.969   3.472
 9453TIP3    H228324   2.626   3.089   3.513
 9454TIP3   OH228325   5.510   5.885   5.616
 9454TIP3    H128326   5.466   5.858   5.535
 9454TIP3    H228327   5.473   5.970   5.637
 9455TIP3   OH228328   6.435   2.343   5.663
 9455TIP3    H128329   6.431   2.438   5.657
 9455TIP3    H228330   6.344   2.315   5.669
 9456TIP3   OH228331   4.304   4.802   1.122
 9456TIP3    H128332   4.377   4.772   1.068
 9456TIP3    H228333   4.316   4.756   1.206
 9457TIP3   OH228334   0.726   6.635   3.531
 9457TIP3    H128335   0.733   6.596   3.618
 9457TIP3    H228336   0.813   6.671   3.514
 9458TIP3   OH228337   4.716   2.241   0.383
 9458TIP3    H128338   4.694   2.269   0.294
 9458TIP3    H228339   4.804   2.205   0.376
 9459TIP3   OH228340   0.469   0.315   1.113
 9459TIP3    H128341   0.444   0.226   1.091
 9459TIP3    H228342   0.408   0.370   1.063
 9460TIP3   OH228343   5.927   2.735   4.309
 9460TIP3    H128344   5.892   2.800   4.247
 9460TIP3    H228345   6.012   2.771   4.335
 9461TIP3   OH228346   4.164   5.864   0.472
 9461TIP3    H128347   4.187   5.789   0.417
 9461TIP3    H228348   4.126   5.928   0.411
 9462TIP3   OH228349   6.824   4.664   4.363
 9462TIP3    H128350   6.794   4.599   4.427
 9462TIP3    H228351   6.919   4.654   4.361
 9463TIP3   OH228352   2.220   2.756   3.685
 9463TIP3    H128353   2.265   2.816   3.745
 9463TIP3    H228354   2.290   2.703   3.647
 9464TIP3   OH228355   2.554   2.464   2.045
 9464TIP3    H128356   2.465   2.455   2.011
 9464TIP3    H228357   2.544   2.469   2.140
 9465TIP3   OH228358   5.698   0.464   0.997
 9465TIP3    H128359   5.689   0.534   1.062
 9465TIP3    H228360   5.609   0.439   0.976
 9466TIP3   OH228361   1.859   3.565   0.376
 9466TIP3    H128362   1.865   3.594   0.285
 9466TIP3    H228363   1.939   3.598   0.417
 9467TIP3   OH228364   6.535   1.690   5.681
 9467TIP3    H128365   6.456   1.743   5.686
 9467TIP3    H228366   6.508   1.609   5.636
 9468TIP3   OH228367   6.227   1.083   3.186
 9468TIP3    H128368   6.317   1.079   3.153
 9468TIP3    H228369   6.185   1.004   3.152
 9469TIP3   OH228370   1.442   3.626   0.065
 9469TIP3    H128371   1.408   3.715   0.063
 9469TIP3    H228372   1.365   3.571   0.079
 9470TIP3   OH228373   2.472   6.624   3.572
 9470TIP3    H128374   2.567   6.637   3.574
 9470TIP3    H228375   2.455   6.562   3.642
 9471TIP3   OH228376   0.923   3.744   3.236
 9471TIP3    H128377   0.993   3.703   3.184
 9471TIP3    H228378   0.902   3.824   3.188
 9472TIP3   OH228379   1.624   2.510   3.377
 9472TIP3    H128380   1.678   2.448   3.327
 9472TIP3    H228381   1.676   2.527   3.456
 9473TIP3   OH228382   4.178   2.072   5.092
 9473TIP3    H128383   4.220   2.150   5.054
 9473TIP3    H228384   4.158   2.098   5.182
 9474TIP3   OH228385   4.051   1.996   4.617
 9474TIP3    H128386   4.034   2.082   4.654
 9474TIP3    H228387   4.102   2.013   4.538
 9475TIP3   OH228388   1.706   5.205   4.163
 9475TIP3    H128389   1.736   5.248   4.083
 9475TIP3    H228390   1.756   5.246   4.233
 9476TIP3   OH228391   3.332   5.465   1.899
 9476TIP3    H128392   3.262   5.481   1.836
 9476TIP3    H228393   3.363   5.377   1.879
 9477TIP3   OH228394   3.891   0.812   5.780
 9477TIP3    H128395   3.917   0.724   5.807
 9477TIP3    H228396   3.798   0.817   5.799
 9478TIP3   OH228397  -0.011   4.199   4.180
 9478TIP3    H128398  -0.049   4.250   4.251
 9478TIP3    H228399   0.057   4.255   4.143
 9479TIP3   OH228400   0.967   6.747   0.635
 9479TIP3    H128401   0.995   6.658   0.612
 9479TIP3    H228402   0.896   6.766   0.574
 9480TIP3   OH228403   2.597   6.312   4.818
 9480TIP3    H128404   2.538   6.273   4.882
 9480TIP3    H228405   2.603   6.404   4.844
 9481TIP3   OH228406   1.613   0.868   2.722
 9481TIP3    H128407   1.568   0.821   2.652
 9481TIP3    H228408   1.589   0.960   2.708
 9482TIP3   OH228409   6.224   1.285   0.703
 9482TIP3    H128410   6.273   1.204   0.715
 9482TIP3    H228411   6.214   1.294   0.609
 9483TIP3   OH228412   0.981   5.330   5.285
 9483TIP3    H128413   0.947   5.241   5.272
 9483TIP3    H228414   1.065   5.330   5.238
 9484TIP3   OH228415   3.541   2.860   0.514
 9484TIP3    H128416   3.504   2.903   0.437
 9484TIP3    H228417   3.635   2.876   0.507
 9485TIP3   OH228418   5.358   1.550   4.254
 9485TIP3    H128419   5.317   1.545   4.340
 9485TIP3    H228420   5.429   1.485   4.257
 9486TIP3   OH228421   1.307   5.278   0.605
 9486TIP3    H128422   1.296   5.190   0.642
 9486TIP3    H228423   1.353   5.327   0.673
 9487TIP3   OH228424   6.503   0.506   1.137
 9487TIP3    H128425   6.523   0.566   1.064
 9487TIP3    H228426   6.565   0.532   1.206
 9488TIP3   OH228427   4.058   0.856   1.994
 9488TIP3    H128428   4.037   0.850   1.901
 9488TIP3    H228429   4.016   0.780   2.034
 9489TIP3   OH228430   6.025   2.202   0.247
 9489TIP3    H128431   6.039   2.190   0.341
 9489TIP3    H228432   6.109   2.234   0.214
 9490TIP3   OH228433   0.682   3.295   1.908
 9490TIP3    H128434   0.625   3.364   1.942
 9490TIP3    H228435   0.655   3.216   1.956
 9491TIP3   OH228436   2.940   2.106   3.536
 9491TIP3    H128437   2.912   2.020   3.503
 9491TIP3    H228438   2.941   2.162   3.458
 9492TIP3   OH228439   5.217   4.863   0.364
 9492TIP3    H128440   5.149   4.880   0.299
 9492TIP3    H228441   5.176   4.806   0.429
 9493TIP3   OH228442   1.626   3.550   4.202
 9493TIP3    H128443   1.612   3.504   4.285
 9493TIP3    H228444   1.716   3.528   4.177
 9494TIP3   OH228445   1.607   6.558   2.137
 9494TIP3    H128446   1.616   6.559   2.041
 9494TIP3    H228447   1.585   6.649   2.159
 9495TIP3   OH228448   4.492   3.947   5.595
 9495TIP3    H128449   4.570   3.925   5.647
 9495TIP3    H228450   4.525   4.004   5.526
 9496TIP3   OH228451   5.820   0.150   1.780
 9496TIP3    H128452   5.798   0.086   1.847
 9496TIP3    H228453   5.902   0.117   1.742
 9497TIP3   OH228454   6.610   6.834   0.418
 9497TIP3    H128455   6.661   6.801   0.344
 9497TIP3    H228456   6.660   6.807   0.495
 9498TIP3   OH228457   4.924   3.668   0.654
 9498TIP3    H128458   4.988   3.611   0.697
 9498TIP3    H228459   4.956   3.756   0.670
 9499TIP3   OH228460   0.863   4.598   5.397
 9499TIP3    H128461   0.849   4.504   5.387
 9499TIP3    H228462   0.832   4.618   5.486
 9500TIP3   OH228463   3.372   0.626   5.894
 9500TIP3    H128464   3.319   0.549   5.911
 9500TIP3    H228465   3.359   0.645   5.801
 9501TIP3   OH228466   0.126   6.567   4.248
 9501TIP3    H128467   0.064   6.504   4.213
 9501TIP3    H228468   0.210   6.544   4.208
 9502TIP3   OH228469   1.528   2.155   0.574
 9502TIP3    H128470   1.543   2.237   0.620
 9502TIP3    H228471   1.615   2.129   0.543
 9503TIP3   OH228472   6.245   4.029   1.070
 9503TIP3    H128473   6.156   4.014   1.102
 9503TIP3    H228474   6.236   4.031   0.975
 9504TIP3   OH228475   0.885   0.185   1.084
 9504TIP3    H128476   0.855   0.223   1.001
 9504TIP3    H228477   0.909   0.095   1.062
 9505TIP3   OH228478   3.866   3.491   1.454
 9505TIP3    H128479   3.906   3.404   1.453
 9505TIP3    H228480   3.773   3.474   1.439
 9506TIP3   OH228481   3.167   3.737   5.035
 9506TIP3    H128482   3.108   3.787   5.093
 9506TIP3    H228483   3.255   3.767   5.059
 9507TIP3   OH228484   3.801   3.027   5.079
 9507TIP3    H128485   3.839   3.113   5.063
 9507TIP3    H228486   3.723   3.045   5.131
 9508TIP3   OH228487   5.080   3.947   4.466
 9508TIP3    H128488   5.085   4.016   4.400
 9508TIP3    H228489   5.096   3.866   4.418
 9509TIP3   OH228490   2.247   5.547   5.424
 9509TIP3    H128491   2.337   5.513   5.424
 9509TIP3    H228492   2.256   5.636   5.461
 9510TIP3   OH228493   1.543   4.590   5.235
 9510TIP3    H128494   1.566   4.572   5.144
 9510TIP3    H228495   1.625   4.584   5.283
 9511TIP3   OH228496   2.493   5.427   1.270
 9511TIP3    H128497   2.585   5.449   1.251
 9511TIP3    H228498   2.443   5.475   1.205
 9512TIP3   OH228499   1.781   4.366   2.799
 9512TIP3    H128500   1.818   4.332   2.881
 9512TIP3    H228501   1.827   4.317   2.730
 9513TIP3   OH228502   2.981   0.154   5.801
 9513TIP3    H128503   2.969   0.060   5.795
 9513TIP3    H228504   3.018   0.179   5.716
 9514TIP3   OH228505   4.066   2.636   2.563
 9514TIP3    H128506   4.073   2.721   2.607
 9514TIP3    H228507   3.975   2.610   2.575
 9515TIP3   OH228508   2.338   2.884   1.683
 9515TIP3    H128509   2.340   2.979   1.677
 9515TIP3    H228510   2.427   2.860   1.709
 9516TIP3   OH228511   4.584   4.943   4.157
 9516TIP3    H128512   4.535   5.022   4.132
 9516TIP3    H228513   4.638   4.971   4.230
 9517TIP3   OH228514   1.357   1.163   4.321
 9517TIP3    H128515   1.308   1.106   4.263
 9517TIP3    H228516   1.315   1.249   4.312
 9518TIP3   OH228517   5.164   6.673   4.267
 9518TIP3    H128518   5.235   6.676   4.331
 9518TIP3    H228519   5.200   6.714   4.188
 9519TIP3   OH228520   1.480   6.731   0.878
 9519TIP3    H128521   1.450   6.715   0.967
 9519TIP3    H228522   1.404   6.713   0.823
 9520TIP3   OH228523   0.755   0.882   0.065
 9520TIP3    H128524   0.748   0.964   0.115
 9520TIP3    H228525   0.706   0.899  -0.015
 9521TIP3   OH228526   1.412   4.004   1.601
 9521TIP3    H128527   1.416   3.948   1.678
 9521TIP3    H228528   1.349   3.961   1.543
 9522TIP3   OH228529   4.917   3.339   0.815
 9522TIP3    H128530   4.956   3.262   0.774
 9522TIP3    H228531   4.990   3.399   0.828
 9523TIP3   OH228532   7.128   6.129   3.714
 9523TIP3    H128533   7.205   6.165   3.760
 9523TIP3    H228534   7.094   6.203   3.664
 9524TIP3   OH228535   1.333   1.037   0.825
 9524TIP3    H128536   1.252   0.991   0.800
 9524TIP3    H228537   1.387   1.035   0.747
 9525TIP3   OH228538   2.721   4.326   4.027
 9525TIP3    H128539   2.758   4.407   3.992
 9525TIP3    H228540   2.706   4.345   4.120
 9526TIP3   OH228541   0.833   0.777   1.099
 9526TIP3    H128542   0.892   0.707   1.126
 9526TIP3    H228543   0.830   0.770   1.003
 9527TIP3   OH228544   2.609   1.516   2.785
 9527TIP3    H128545   2.541   1.474   2.838
 9527TIP3    H228546   2.635   1.449   2.722
 9528TIP3   OH228547   0.331   0.158   3.708
 9528TIP3    H128548   0.240   0.174   3.732
 9528TIP3    H228549   0.326   0.117   3.621
 9529TIP3   OH228550   0.104   0.190   1.392
 9529TIP3    H128551   0.167   0.222   1.457
 9529TIP3    H228552   0.142   0.108   1.360
 9530TIP3   OH228553   6.407   0.786   1.290
 9530TIP3    H128554   6.339   0.779   1.222
 9530TIP3    H228555   6.483   0.744   1.251
 9531TIP3   OH228556   4.642   4.614   4.301
 9531TIP3    H128557   4.563   4.665   4.320
 9531TIP3    H228558   4.704   4.679   4.266
 9532TIP3   OH228559   4.392   1.816   1.117
 9532TIP3    H128560   4.438   1.795   1.199
 9532TIP3    H228561   4.451   1.876   1.071
 9533TIP3   OH228562   1.390   4.998   3.384
 9533TIP3    H128563   1.439   5.054   3.445
 9533TIP3    H228564   1.298   5.012   3.407
 9534TIP3   OH228565   5.809   4.786   2.456
 9534TIP3    H128566   5.894   4.825   2.437
 9534TIP3    H228567   5.818   4.695   2.427
 9535TIP3   OH228568   3.473   5.417   0.439
 9535TIP3    H128569   3.502   5.431   0.349
 9535TIP3    H228570   3.536   5.467   0.491
 9536TIP3   OH228571   7.141   0.073   0.355
 9536TIP3    H128572   7.111   0.164   0.355
 9536TIP3    H228573   7.164   0.056   0.446
 9537TIP3   OH228574   1.942   0.987   0.490
 9537TIP3    H128575   1.941   1.081   0.505
 9537TIP3    H228576   1.930   0.949   0.577
 9538TIP3   OH228577   4.771   5.044   0.390
 9538TIP3    H128578   4.696   4.984   0.392
 9538TIP3    H228579   4.747   5.110   0.324
 9539TIP3   OH228580   2.040   3.658   3.660
 9539TIP3    H128581   2.001   3.729   3.711
 9539TIP3    H228582   1.979   3.585   3.670
 9540TIP3   OH228583   4.671   3.001   4.909
 9540TIP3    H128584   4.587   3.033   4.942
 9540TIP3    H228585   4.663   2.906   4.910
 9541TIP3   OH228586   3.740   5.066   1.230
 9541TIP3    H128587   3.716   5.019   1.310
 9541TIP3    H228588   3.710   5.156   1.246
 9542TIP3   OH228589   1.277   4.114   5.712
 9542TIP3    H128590   1.267   4.201   5.673
 9542TIP3    H228591   1.356   4.078   5.672
 9543TIP3   OH228592   6.612   5.412   2.956
 9543TIP3    H128593   6.561   5.492   2.948
 9543TIP3    H228594   6.702   5.439   2.942
 9544TIP3   OH228595   5.937   3.712   0.855
 9544TIP3    H128596   5.993   3.780   0.818
 9544TIP3    H228597   5.870   3.759   0.904
 9545TIP3   OH228598   3.478   1.912   1.684
 9545TIP3    H128599   3.553   1.852   1.682
 9545TIP3    H228600   3.492   1.965   1.762
 9546TIP3   OH228601   0.524   0.290   3.816
 9546TIP3    H128602   0.497   0.381   3.826
 9546TIP3    H228603   0.447   0.247   3.778
 9547TIP3   OH228604   4.202   3.288   2.903
 9547TIP3    H128605   4.153   3.289   2.986
 9547TIP3    H228606   4.293   3.284   2.930
 9548TIP3   OH228607   5.891   3.671   4.582
 9548TIP3    H128608   5.911   3.688   4.490
 9548TIP3    H228609   5.809   3.621   4.580
 9549TIP3   OH228610   1.918   4.042   1.130
 9549TIP3    H128611   2.013   4.045   1.131
 9549TIP3    H228612   1.895   4.029   1.037
 9550TIP3   OH228613   2.194   3.356   0.396
 9550TIP3    H128614   2.165   3.382   0.483
 9550TIP3    H228615   2.114   3.327   0.352
 9551TIP3   OH228616   2.268   0.952   0.491
 9551TIP3    H128617   2.206   0.882   0.468
 9551TIP3    H228618   2.275   0.948   0.586
 9552TIP3   OH228619   4.636   0.429   4.000
 9552TIP3    H128620   4.609   0.387   4.082
 9552TIP3    H228621   4.688   0.362   3.955
 9553TIP3   OH228622   4.751   6.248   4.831
 9553TIP3    H128623   4.709   6.169   4.865
 9553TIP3    H228624   4.732   6.247   4.738
 9554TIP3   OH228625   2.968   0.653   5.357
 9554TIP3    H128626   2.917   0.611   5.427
 9554TIP3    H228627   2.935   0.743   5.356
 9555TIP3   OH228628   4.062   6.819   1.641
 9555TIP3    H128629   4.128   6.811   1.710
 9555TIP3    H228630   4.003   6.745   1.656
 9556TIP3   OH228631   1.274   6.051   5.006
 9556TIP3    H128632   1.301   6.000   4.930
 9556TIP3    H228633   1.198   6.100   4.975
 9557TIP3   OH228634   2.402   6.479   3.020
 9557TIP3    H128635   2.438   6.545   2.961
 9557TIP3    H228636   2.323   6.448   2.975
 9558TIP3   OH228637   2.865   4.806   1.205
 9558TIP3    H128638   2.954   4.773   1.192
 9558TIP3    H228639   2.814   4.767   1.134
 9559TIP3   OH228640   6.109   4.420   1.398
 9559TIP3    H128641   6.179   4.483   1.418
 9559TIP3    H228642   6.116   4.406   1.303
 9560TIP3   OH228643   6.767   6.210   1.094
 9560TIP3    H128644   6.829   6.169   1.155
 9560TIP3    H228645   6.785   6.303   1.101
 9561TIP3   OH228646   0.958   0.820   3.634
 9561TIP3    H128647   0.879   0.770   3.615
 9561TIP3    H228648   0.977   0.801   3.726
 9562TIP3   OH228649   1.185   3.521   0.047
 9562TIP3    H128650   1.111   3.564   0.090
 9562TIP3    H228651   1.145   3.470  -0.023
 9563TIP3   OH228652   2.862   4.563   0.384
 9563TIP3    H128653   2.835   4.560   0.292
 9563TIP3    H228654   2.958   4.561   0.380
 9564TIP3   OH228655   4.638   1.885   5.017
 9564TIP3    H128656   4.547   1.907   5.035
 9564TIP3    H228657   4.684   1.902   5.099
 9565TIP3   OH228658   3.940   0.838   3.538
 9565TIP3    H128659   3.998   0.771   3.502
 9565TIP3    H228660   3.965   0.918   3.494
 9566TIP3   OH228661   5.910   1.167   0.244
 9566TIP3    H128662   5.961   1.151   0.164
 9566TIP3    H228663   5.821   1.141   0.221
 9567TIP3   OH228664   6.137   2.872   2.702
 9567TIP3    H128665   6.182   2.836   2.778
 9567TIP3    H228666   6.162   2.815   2.629
 9568TIP3   OH228667   1.391   1.812   1.992
 9568TIP3    H128668   1.374   1.768   1.909
 9568TIP3    H228669   1.307   1.851   2.016
 9569TIP3   OH228670   0.504   0.821   5.089
 9569TIP3    H128671   0.450   0.899   5.087
 9569TIP3    H228672   0.586   0.848   5.131
 9570TIP3   OH228673   0.758   3.015   5.824
 9570TIP3    H128674   0.763   2.955   5.899
 9570TIP3    H228675   0.725   2.962   5.752
 9571TIP3   OH228676   6.765   4.573   0.997
 9571TIP3    H128677   6.769   4.666   1.016
 9571TIP3    H228678   6.793   4.565   0.906
 9572TIP3   OH228679   0.840   3.467   2.841
 9572TIP3    H128680   0.850   3.561   2.830
 9572TIP3    H228681   0.862   3.430   2.755
 9573TIP3   OH228682   3.504   6.068   3.156
 9573TIP3    H128683   3.512   6.160   3.180
 9573TIP3    H228684   3.493   6.022   3.239
 9574TIP3   OH228685   1.131   4.657   3.893
 9574TIP3    H128686   1.185   4.668   3.815
 9574TIP3    H228687   1.146   4.737   3.944
 9575TIP3   OH228688   5.496   1.459   2.422
 9575TIP3    H128689   5.473   1.407   2.499
 9575TIP3    H228690   5.495   1.549   2.453
 9576TIP3   OH228691   6.874   6.594   1.451
 9576TIP3    H128692   6.920   6.676   1.435
 9576TIP3    H228693   6.782   6.617   1.448
 9577TIP3   OH228694   2.527   1.709   3.917
 9577TIP3    H128695   2.597   1.724   3.981
 9577TIP3    H228696   2.565   1.739   3.834
 9578TIP3   OH228697   4.819   1.153   1.142
 9578TIP3    H128698   4.750   1.180   1.081
 9578TIP3    H228699   4.845   1.066   1.110
 9579TIP3   OH228700   2.828   2.660   5.638
 9579TIP3    H128701   2.845   2.672   5.544
 9579TIP3    H228702   2.788   2.742   5.666
 9580TIP3   OH228703   0.507   5.842   3.205
 9580TIP3    H128704   0.493   5.760   3.159
 9580TIP3    H228705   0.478   5.910   3.144
 9581TIP3   OH228706   4.758   0.261   1.481
 9581TIP3    H128707   4.710   0.287   1.402
 9581TIP3    H228708   4.848   0.250   1.451
 9582TIP3   OH228709   6.305   2.016   5.021
 9582TIP3    H128710   6.226   2.027   4.967
 9582TIP3    H228711   6.303   2.089   5.082
 9583TIP3   OH228712   5.692   5.755   0.257
 9583TIP3    H128713   5.627   5.825   0.268
 9583TIP3    H228714   5.640   5.680   0.225
 9584TIP3   OH228715   1.732   1.289   2.862
 9584TIP3    H128716   1.738   1.194   2.869
 9584TIP3    H228717   1.657   1.312   2.918
 9585TIP3   OH228718   5.915   4.697   3.266
 9585TIP3    H128719   5.985   4.642   3.302
 9585TIP3    H228720   5.870   4.732   3.342
 9586TIP3   OH228721   4.564   2.466   0.644
 9586TIP3    H128722   4.628   2.397   0.665
 9586TIP3    H228723   4.484   2.418   0.622
 9587TIP3   OH228724   0.331   3.249   0.738
 9587TIP3    H128725   0.257   3.300   0.771
 9587TIP3    H228726   0.324   3.257   0.642
 9588TIP3   OH228727   4.488   4.988   5.234
 9588TIP3    H128728   4.583   4.976   5.241
 9588TIP3    H228729   4.451   4.917   5.287
 9589TIP3   OH228730   2.420   3.190   0.471
 9589TIP3    H128731   2.428   3.136   0.393
 9589TIP3    H228732   2.339   3.239   0.458
 9590TIP3   OH228733   4.065   4.437   3.082
 9590TIP3    H128734   4.139   4.403   3.132
 9590TIP3    H228735   3.988   4.412   3.134
 9591TIP3   OH228736   1.238   1.100   4.072
 9591TIP3    H128737   1.244   1.194   4.056
 9591TIP3    H228738   1.329   1.071   4.079
 9592TIP3   OH228739   1.742   4.219   4.922
 9592TIP3    H128740   1.743   4.209   4.827
 9592TIP3    H228741   1.655   4.190   4.949
 9593TIP3   OH228742   4.005   0.050   4.934
 9593TIP3    H128743   3.913   0.064   4.956
 9593TIP3    H228744   4.024   0.116   4.866
 9594TIP3   OH228745   6.446   6.492   0.402
 9594TIP3    H128746   6.416   6.422   0.459
 9594TIP3    H228747   6.408   6.572   0.439
 9595TIP3   OH228748   1.729   5.009   0.257
 9595TIP3    H128749   1.637   5.002   0.285
 9595TIP3    H228750   1.779   4.984   0.335
 9596TIP3   OH228751   2.688   4.892   5.758
 9596TIP3    H128752   2.749   4.868   5.688
 9596TIP3    H228753   2.742   4.892   5.837
 9597TIP3   OH228754   2.487   3.166   0.881
 9597TIP3    H128755   2.408   3.141   0.929
 9597TIP3    H228756   2.530   3.230   0.937
 9598TIP3   OH228757   6.056   3.853   1.809
 9598TIP3    H128758   6.015   3.805   1.881
 9598TIP3    H228759   6.035   3.945   1.827
 9599TIP3   OH228760   3.176   3.139   2.391
 9599TIP3    H128761   3.160   3.155   2.298
 9599TIP3    H228762   3.269   3.154   2.402
 9600TIP3   OH228763   2.325   6.055   5.710
 9600TIP3    H128764   2.268   6.077   5.784
 9600TIP3    H228765   2.265   6.036   5.639
 9601TIP3   OH228766   6.339   4.181   2.402
 9601TIP3    H128767   6.374   4.197   2.490
 9601TIP3    H228768   6.297   4.096   2.407
 9602TIP3   OH228769   1.962   2.420   5.249
 9602TIP3    H128770   1.960   2.450   5.158
 9602TIP3    H228771   1.877   2.379   5.263
 9603TIP3   OH228772   2.732   4.543   2.585
 9603TIP3    H128773   2.746   4.508   2.674
 9603TIP3    H228774   2.749   4.636   2.593
 9604TIP3   OH228775   0.645   4.068   0.165
 9604TIP3    H128776   0.719   4.007   0.155
 9604TIP3    H228777   0.591   4.029   0.233
 9605TIP3   OH228778   3.051   1.938   3.935
 9605TIP3    H128779   3.064   1.844   3.945
 9605TIP3    H228780   3.070   1.974   4.022
 9606TIP3   OH228781   0.675   0.693   1.813
 9606TIP3    H128782   0.696   0.684   1.720
 9606TIP3    H228783   0.760   0.696   1.856
 9607TIP3   OH228784   5.747   0.698   2.892
 9607TIP3    H128785   5.681   0.666   2.953
 9607TIP3    H228786   5.744   0.636   2.819
 9608TIP3   OH228787   2.430   5.011   4.383
 9608TIP3    H128788   2.422   5.089   4.437
 9608TIP3    H228789   2.431   5.045   4.293
 9609TIP3   OH228790   3.528   1.492   0.464
 9609TIP3    H128791   3.516   1.473   0.371
 9609TIP3    H228792   3.502   1.583   0.473
 9610TIP3   OH228793   7.092   6.783   3.311
 9610TIP3    H128794   7.038   6.708   3.286
 9610TIP3    H228795   7.133   6.756   3.393
 9611TIP3   OH228796   1.284   1.694   3.295
 9611TIP3    H128797   1.298   1.650   3.379
 9611TIP3    H228798   1.266   1.785   3.318
 9612TIP3   OH228799   1.256   0.446   1.072
 9612TIP3    H128800   1.298   0.531   1.057
 9612TIP3    H228801   1.284   0.393   0.998
 9613TIP3   OH228802   4.568   6.583   3.065
 9613TIP3    H128803   4.645   6.619   3.107
 9613TIP3    H228804   4.509   6.561   3.137
 9614TIP3   OH228805   3.647   5.305   2.036
 9614TIP3    H128806   3.703   5.249   1.982
 9614TIP3    H228807   3.704   5.335   2.106
 9615TIP3   OH228808   4.657   4.045   5.803
 9615TIP3    H128809   4.710   4.122   5.784
 9615TIP3    H228810   4.632   4.054   5.895
 9616TIP3   OH228811   5.272   3.203   3.694
 9616TIP3    H128812   5.273   3.117   3.650
 9616TIP3    H228813   5.179   3.220   3.710
 9617TIP3   OH228814   2.521   0.508   2.070
 9617TIP3    H128815   2.522   0.433   2.010
 9617TIP3    H228816   2.437   0.501   2.115
 9618TIP3   OH228817   3.835   0.564   1.591
 9618TIP3    H128818   3.792   0.585   1.674
 9618TIP3    H228819   3.782   0.494   1.553
 9619TIP3   OH228820   7.143   0.410   2.451
 9619TIP3    H128821   7.214   0.468   2.422
 9619TIP3    H228822   7.103   0.379   2.370
 9620TIP3   OH228823   2.658   1.883   1.902
 9620TIP3    H128824   2.661   1.817   1.971
 9620TIP3    H228825   2.588   1.854   1.844
 9621TIP3   OH228826   7.159   1.426   4.349
 9621TIP3    H128827   7.081   1.387   4.309
 9621TIP3    H228828   7.226   1.359   4.341
 9622TIP3   OH228829   6.786   5.170   5.292
 9622TIP3    H128830   6.702   5.202   5.260
 9622TIP3    H228831   6.851   5.229   5.253
 9623TIP3   OH228832   6.638   0.243   2.882
 9623TIP3    H128833   6.649   0.264   2.789
 9623TIP3    H228834   6.711   0.185   2.903
 9624TIP3   OH228835   1.816   5.476   0.655
 9624TIP3    H128836   1.735   5.464   0.606
 9624TIP3    H228837   1.870   5.532   0.599
 9625TIP3   OH228838   4.519   3.499   0.180
 9625TIP3    H128839   4.573   3.430   0.218
 9625TIP3    H228840   4.474   3.457   0.106
 9626TIP3   OH228841   3.487   6.502   4.638
 9626TIP3    H128842   3.403   6.499   4.593
 9626TIP3    H228843   3.552   6.491   4.569
 9627TIP3   OH228844   5.354   0.660   4.768
 9627TIP3    H128845   5.423   0.605   4.805
 9627TIP3    H228846   5.344   0.732   4.831
 9628TIP3   OH228847   5.585   6.546   5.357
 9628TIP3    H128848   5.592   6.498   5.439
 9628TIP3    H228849   5.538   6.626   5.379
 9629TIP3   OH228850   0.547   5.920   5.509
 9629TIP3    H128851   0.599   5.879   5.578
 9629TIP3    H228852   0.605   5.921   5.433
 9630TIP3   OH228853   4.757   3.784   2.484
 9630TIP3    H128854   4.844   3.810   2.456
 9630TIP3    H228855   4.720   3.739   2.408
 9631TIP3   OH228856   0.131   4.306   5.454
 9631TIP3    H128857   0.181   4.361   5.394
 9631TIP3    H228858   0.050   4.355   5.469
 9632TIP3   OH228859   5.364   0.260   3.482
 9632TIP3    H128860   5.332   0.177   3.447
 9632TIP3    H228861   5.371   0.246   3.576
 9633TIP3   OH228862   6.869   4.626   5.883
 9633TIP3    H128863   6.909   4.651   5.800
 9633TIP3    H228864   6.942   4.617   5.943
 9634TIP3   OH228865   0.876   2.182   3.683
 9634TIP3    H128866   0.783   2.156   3.679
 9634TIP3    H228867   0.915   2.121   3.745
 9635TIP3   OH228868   4.229   2.469   4.486
 9635TIP3    H128869   4.262   2.555   4.510
 9635TIP3    H228870   4.140   2.486   4.453
 9636TIP3   OH228871   2.875   0.896   3.189
 9636TIP3    H128872   2.851   0.871   3.100
 9636TIP3    H228873   2.888   0.813   3.235
 9637TIP3   OH228874   3.094   5.974   5.453
 9637TIP3    H128875   3.177   6.013   5.426
 9637TIP3    H228876   3.027   6.034   5.420
 9638TIP3   OH228877   6.589   2.736   0.630
 9638TIP3    H128878   6.583   2.644   0.657
 9638TIP3    H228879   6.523   2.780   0.684
 9639TIP3   OH228880   4.908   6.577   0.146
 9639TIP3    H128881   4.818   6.609   0.139
 9639TIP3    H228882   4.957   6.653   0.178
 9640TIP3   OH228883   1.412   3.387   4.909
 9640TIP3    H128884   1.389   3.400   4.817
 9640TIP3    H228885   1.470   3.311   4.909
 9641TIP3   OH228886   3.518   2.235   4.170
 9641TIP3    H128887   3.565   2.298   4.116
 9641TIP3    H228888   3.517   2.275   4.258
 9642TIP3   OH228889   0.873   0.985   2.708
 9642TIP3    H128890   0.953   1.034   2.726
 9642TIP3    H228891   0.806   1.052   2.695
 9643TIP3   OH228892   3.906   4.592   3.935
 9643TIP3    H128893   3.926   4.684   3.915
 9643TIP3    H228894   3.811   4.586   3.926
 9644TIP3   OH228895   5.418   0.896   2.193
 9644TIP3    H128896   5.430   0.801   2.188
 9644TIP3    H228897   5.471   0.923   2.268
 9645TIP3   OH228898   4.797   1.797   1.983
 9645TIP3    H128899   4.716   1.789   1.932
 9645TIP3    H228900   4.862   1.750   1.932
 9646TIP3   OH228901   5.011   0.842   4.201
 9646TIP3    H128902   4.969   0.805   4.124
 9646TIP3    H228903   4.940   0.880   4.252
 9647TIP3   OH228904   7.227   3.951   0.495
 9647TIP3    H128905   7.144   3.943   0.448
 9647TIP3    H228906   7.207   3.920   0.584
 9648TIP3   OH228907   2.107   3.238   5.803
 9648TIP3    H128908   2.177   3.271   5.860
 9648TIP3    H228909   2.062   3.316   5.772
 9649TIP3   OH228910   5.966   1.826   5.052
 9649TIP3    H128911   5.955   1.873   4.970
 9649TIP3    H228912   5.918   1.879   5.116
 9650TIP3   OH228913   5.221   6.053   0.553
 9650TIP3    H128914   5.237   5.992   0.481
 9650TIP3    H228915   5.176   6.001   0.620
 9651TIP3   OH228916   5.284   0.614   0.539
 9651TIP3    H128917   5.256   0.702   0.517
 9651TIP3    H228918   5.367   0.626   0.585
 9652TIP3   OH228919   6.153   6.009   0.602
 9652TIP3    H128920   6.225   5.956   0.568
 9652TIP3    H228921   6.149   6.084   0.543
 9653TIP3   OH228922   3.336   4.618   0.751
 9653TIP3    H128923   3.315   4.711   0.739
 9653TIP3    H228924   3.338   4.606   0.846
 9654TIP3   OH228925   4.531   5.304   5.549
 9654TIP3    H128926   4.595   5.302   5.478
 9654TIP3    H228927   4.569   5.364   5.614
 9655TIP3   OH228928   1.394   5.800   2.321
 9655TIP3    H128929   1.308   5.758   2.317
 9655TIP3    H228930   1.422   5.791   2.412
 9656TIP3   OH228931   6.264   5.872   0.222
 9656TIP3    H128932   6.172   5.844   0.230
 9656TIP3    H228933   6.313   5.791   0.211
 9657TIP3   OH228934   1.098   3.257   5.233
 9657TIP3    H128935   1.185   3.297   5.225
 9657TIP3    H228936   1.103   3.204   5.312
 9658TIP3   OH228937   5.472   4.551   3.915
 9658TIP3    H128938   5.483   4.646   3.908
 9658TIP3    H228939   5.415   4.538   3.990
 9659TIP3   OH228940   4.241   0.532   2.685
 9659TIP3    H128941   4.228   0.438   2.678
 9659TIP3    H228942   4.154   0.570   2.676
 9660TIP3   OH228943   4.769   0.661   3.504
 9660TIP3    H128944   4.696   0.707   3.545
 9660TIP3    H228945   4.763   0.686   3.411
 9661TIP3   OH228946   4.213   4.991   4.935
 9661TIP3    H128947   4.304   4.970   4.955
 9661TIP3    H228948   4.164   4.965   5.012
 9662TIP3   OH228949   3.772   1.392   4.982
 9662TIP3    H128950   3.740   1.481   4.969
 9662TIP3    H228951   3.770   1.380   5.077
 9663TIP3   OH228952   6.531   5.576   0.486
 9663TIP3    H128953   6.444   5.597   0.454
 9663TIP3    H228954   6.590   5.600   0.414
 9664TIP3   OH228955   0.857   5.931   0.874
 9664TIP3    H128956   0.792   5.885   0.927
 9664TIP3    H228957   0.826   5.921   0.784
 9665TIP3   OH228958   3.791   5.188   1.846
 9665TIP3    H128959   3.827   5.181   1.757
 9665TIP3    H228960   3.853   5.140   1.901
 9666TIP3   OH228961   5.004   5.743   2.222
 9666TIP3    H128962   5.016   5.738   2.317
 9666TIP3    H228963   5.039   5.660   2.189
 9667TIP3   OH228964   3.229   3.953   0.434
 9667TIP3    H128965   3.261   3.869   0.468
 9667TIP3    H228966   3.135   3.940   0.424
 9668TIP3   OH228967   5.471   6.739   1.276
 9668TIP3    H128968   5.542   6.744   1.212
 9668TIP3    H228969   5.485   6.656   1.321
 9669TIP3   OH228970   1.273   5.468   3.976
 9669TIP3    H128971   1.349   5.413   3.956
 9669TIP3    H228972   1.250   5.444   4.066
 9670TIP3   OH228973   0.413   0.364   5.420
 9670TIP3    H128974   0.382   0.330   5.504
 9670TIP3    H228975   0.385   0.298   5.356
 9671TIP3   OH228976   3.693   0.285   5.429
 9671TIP3    H128977   3.723   0.289   5.520
 9671TIP3    H228978   3.738   0.209   5.392
 9672TIP3   OH228979   1.303   3.560   1.957
 9672TIP3    H128980   1.300   3.487   1.896
 9672TIP3    H228981   1.306   3.519   2.044
 9673TIP3   OH228982   2.748   0.297   2.473
 9673TIP3    H128983   2.681   0.342   2.524
 9673TIP3    H228984   2.782   0.229   2.531
 9674TIP3   OH228985   4.083   2.398   3.907
 9674TIP3    H128986   4.135   2.455   3.851
 9674TIP3    H228987   4.006   2.376   3.854
 9675TIP3   OH228988   6.138   1.631   0.530
 9675TIP3    H128989   6.161   1.578   0.454
 9675TIP3    H228990   6.047   1.607   0.549
 9676TIP3   OH228991   4.619   3.379   2.466
 9676TIP3    H128992   4.662   3.436   2.402
 9676TIP3    H228993   4.600   3.298   2.417
 9677TIP3   OH228994   1.227   4.792   3.650
 9677TIP3    H128995   1.315   4.756   3.656
 9677TIP3    H228996   1.225   4.861   3.717
 9678TIP3   OH228997   3.539   2.380   4.426
 9678TIP3    H128998   3.446   2.402   4.422
 9678TIP3    H228999   3.581   2.458   4.462
 9679TIP3   OH229000   2.625   2.930   1.525
 9679TIP3    H129001   2.720   2.914   1.528
 9679TIP3    H229002   2.586   2.844   1.538
 9680TIP3   OH229003   3.460   5.052   0.688
 9680TIP3    H129004   3.537   5.034   0.634
 9680TIP3    H229005   3.497   5.076   0.774
 9681TIP3   OH229006   6.765   3.975   0.210
 9681TIP3    H129007   6.761   4.062   0.171
 9681TIP3    H229008   6.763   3.915   0.135
 9682TIP3   OH229009   4.196   0.719   4.764
 9682TIP3    H129010   4.100   0.713   4.766
 9682TIP3    H229011   4.217   0.781   4.833
 9683TIP3   OH229012   4.433   2.112   5.273
 9683TIP3    H129013   4.487   2.087   5.348
 9683TIP3    H229014   4.425   2.032   5.221
 9684TIP3   OH229015   7.066   5.214   4.610
 9684TIP3    H129016   6.972   5.229   4.619
 9684TIP3    H229017   7.073   5.139   4.551
 9685TIP3   OH229018   5.369   5.649   4.396
 9685TIP3    H129019   5.315   5.727   4.384
 9685TIP3    H229020   5.341   5.589   4.328
 9686TIP3   OH229021   6.125   0.315   1.715
 9686TIP3    H129022   6.126   0.220   1.708
 9686TIP3    H229023   6.049   0.343   1.665
 9687TIP3   OH229024   4.727   4.573   3.025
 9687TIP3    H129025   4.758   4.599   3.112
 9687TIP3    H229026   4.632   4.567   3.034
 9688TIP3   OH229027   3.644   3.203   4.014
 9688TIP3    H129028   3.570   3.194   3.954
 9688TIP3    H229029   3.614   3.163   4.095
 9689TIP3   OH229030   0.458   2.617   4.142
 9689TIP3    H129031   0.416   2.687   4.192
 9689TIP3    H229032   0.525   2.662   4.090
 9690TIP3   OH229033   0.017   5.368   4.763
 9690TIP3    H129034  -0.014   5.300   4.704
 9690TIP3    H229035   0.001   5.450   4.717
 9691TIP3   OH229036   1.847   1.135   5.843
 9691TIP3    H129037   1.796   1.208   5.878
 9691TIP3    H229038   1.916   1.177   5.792
 9692TIP3   OH229039   5.754   5.472   5.946
 9692TIP3    H129040   5.814   5.398   5.946
 9692TIP3    H229041   5.715   5.472   5.858
 9693TIP3   OH229042   6.489   1.488   5.350
 9693TIP3    H129043   6.411   1.523   5.306
 9693TIP3    H229044   6.553   1.558   5.343
 9694TIP3   OH229045   0.247   1.494   2.113
 9694TIP3    H129046   0.246   1.473   2.206
 9694TIP3    H229047   0.173   1.444   2.077
 9695TIP3   OH229048   6.378   0.709   2.872
 9695TIP3    H129049   6.420   0.736   2.791
 9695TIP3    H229050   6.427   0.632   2.900
 9696TIP3   OH229051   1.369   4.752   0.026
 9696TIP3    H129052   1.465   4.752   0.026
 9696TIP3    H229053   1.345   4.841  -0.001
 9697TIP3   OH229054   1.801   4.486   4.615
 9697TIP3    H129055   1.714   4.447   4.605
 9697TIP3    H229056   1.816   4.485   4.710
 9698TIP3   OH229057   1.396   0.582   5.288
 9698TIP3    H129058   1.403   0.537   5.372
 9698TIP3    H229059   1.303   0.601   5.277
 9699TIP3   OH229060   1.897   3.913   0.845
 9699TIP3    H129061   1.884   3.941   0.755
 9699TIP3    H229062   1.991   3.896   0.851
 9700TIP3   OH229063   2.994   1.068   0.693
 9700TIP3    H129064   2.992   1.007   0.620
 9700TIP3    H229065   2.908   1.059   0.734
 9701TIP3   OH229066   0.795   5.512   0.875
 9701TIP3    H129067   0.862   5.528   0.941
 9701TIP3    H229068   0.743   5.592   0.873
 9702TIP3   OH229069   6.267   2.225   5.206
 9702TIP3    H129070   6.253   2.243   5.299
 9702TIP3    H229071   6.344   2.277   5.183
 9703TIP3   OH229072   5.937   0.394   5.700
 9703TIP3    H129073   5.932   0.332   5.773
 9703TIP3    H229074   6.007   0.360   5.644
 9704TIP3   OH229075   2.824   3.240   5.088
 9704TIP3    H129076   2.760   3.256   5.018
 9704TIP3    H229077   2.883   3.174   5.052
 9705TIP3   OH229078   2.836   5.051   3.312
 9705TIP3    H129079   2.815   5.047   3.405
 9705TIP3    H229080   2.931   5.056   3.308
 9706TIP3   OH229081   0.367   3.191   0.464
 9706TIP3    H129082   0.280   3.166   0.434
 9706TIP3    H229083   0.403   3.244   0.392
 9707TIP3   OH229084   1.336   1.606   1.805
 9707TIP3    H129085   1.360   1.578   1.717
 9707TIP3    H229086   1.388   1.550   1.863
 9708TIP3   OH229087   6.319   4.902   1.502
 9708TIP3    H129088   6.274   4.985   1.519
 9708TIP3    H229089   6.327   4.861   1.589
 9709TIP3   OH229090   3.034   3.665   5.323
 9709TIP3    H129091   3.002   3.591   5.270
 9709TIP3    H229092   3.127   3.646   5.334
 9710TIP3   OH229093   5.977   6.165   0.101
 9710TIP3    H129094   6.023   6.115   0.169
 9710TIP3    H229095   5.924   6.099   0.056
 9711TIP3   OH229096   6.399   3.266   2.066
 9711TIP3    H129097   6.473   3.325   2.080
 9711TIP3    H229098   6.416   3.225   1.981
 9712TIP3   OH229099   1.291   6.303   3.493
 9712TIP3    H129100   1.274   6.341   3.579
 9712TIP3    H229101   1.303   6.378   3.435
 9713TIP3   OH229102   5.134   1.525   2.961
 9713TIP3    H129103   5.061   1.503   2.904
 9713TIP3    H229104   5.096   1.579   3.029
 9714TIP3   OH229105   4.138   0.481   0.231
 9714TIP3    H129106   4.084   0.404   0.213
 9714TIP3    H229107   4.226   0.445   0.243
 9715TIP3   OH229108   1.905   4.103   5.267
 9715TIP3    H129109   1.815   4.121   5.240
 9715TIP3    H229110   1.916   4.010   5.253
 9716TIP3   OH229111   0.826   4.836   2.149
 9716TIP3    H129112   0.787   4.872   2.228
 9716TIP3    H229113   0.862   4.751   2.177
 9717TIP3   OH229114   1.202   4.794   0.688
 9717TIP3    H129115   1.169   4.706   0.705
 9717TIP3    H229116   1.147   4.827   0.617
 9718TIP3   OH229117   3.625   1.590   5.370
 9718TIP3    H129118   3.566   1.532   5.419
 9718TIP3    H229119   3.583   1.602   5.286
 9719TIP3   OH229120   6.062   2.706   1.722
 9719TIP3    H129121   6.103   2.793   1.722
 9719TIP3    H229122   6.081   2.671   1.635
 9720TIP3   OH229123   0.077   3.455   2.318
 9720TIP3    H129124   0.093   3.382   2.259
 9720TIP3    H229125  -0.013   3.442   2.349
 9721TIP3   OH229126   5.417   3.186   3.032
 9721TIP3    H129127   5.329   3.149   3.022
 9721TIP3    H229128   5.412   3.272   2.991
 9722TIP3   OH229129   2.911   3.493   2.660
 9722TIP3    H129130   2.838   3.545   2.626
 9722TIP3    H229131   2.985   3.554   2.662
 9723TIP3   OH229132   0.094   5.066   5.239
 9723TIP3    H129133   0.086   5.006   5.165
 9723TIP3    H229134   0.187   5.063   5.262
 9724TIP3   OH229135   3.553   1.504   3.128
 9724TIP3    H129136   3.480   1.443   3.120
 9724TIP3    H229137   3.607   1.486   3.051
 9725TIP3   OH229138   5.775   2.253   0.310
 9725TIP3    H129139   5.805   2.315   0.376
 9725TIP3    H229140   5.855   2.214   0.275
 9726TIP3   OH229141   2.448   5.094   4.108
 9726TIP3    H129142   2.396   5.075   4.030
 9726TIP3    H229143   2.396   5.158   4.156
 9727TIP3   OH229144   1.311   5.027   5.512
 9727TIP3    H129145   1.372   4.977   5.458
 9727TIP3    H229146   1.328   4.996   5.602
 9728TIP3   OH229147   2.321   6.597   2.079
 9728TIP3    H129148   2.283   6.627   1.996
 9728TIP3    H229149   2.333   6.503   2.067
 9729TIP3   OH229150   2.508   2.524   1.259
 9729TIP3    H129151   2.563   2.446   1.247
 9729TIP3    H229152   2.513   2.542   1.353
 9730TIP3   OH229153   0.353   6.294   4.689
 9730TIP3    H129154   0.381   6.237   4.761
 9730TIP3    H229155   0.260   6.276   4.679
 9731TIP3   OH229156   0.692   2.041   2.997
 9731TIP3    H129157   0.694   2.129   3.035
 9731TIP3    H229158   0.721   1.984   3.067
 9732TIP3   OH229159   3.845   1.099   3.675
 9732TIP3    H129160   3.925   1.118   3.726
 9732TIP3    H229161   3.848   1.004   3.661
 9733TIP3   OH229162   6.430   5.657   0.161
 9733TIP3    H129163   6.470   5.575   0.132
 9733TIP3    H229164   6.505   5.715   0.177
 9734TIP3   OH229165   1.453   1.535   2.399
 9734TIP3    H129166   1.491   1.567   2.317
 9734TIP3    H229167   1.512   1.567   2.467
 9735TIP3   OH229168   5.839   6.178   3.348
 9735TIP3    H129169   5.910   6.236   3.375
 9735TIP3    H229170   5.801   6.147   3.430
 9736TIP3   OH229171   5.639   3.822   5.097
 9736TIP3    H129172   5.716   3.787   5.142
 9736TIP3    H229173   5.591   3.867   5.166
 9737TIP3   OH229174   5.099   2.541   0.789
 9737TIP3    H129175   5.051   2.463   0.817
 9737TIP3    H229176   5.093   2.600   0.865
 9738TIP3   OH229177   0.924   3.719   1.018
 9738TIP3    H129178   0.830   3.719   1.000
 9738TIP3    H229179   0.950   3.811   1.008
 9739TIP3   OH229180   0.212   1.734   1.614
 9739TIP3    H129181   0.225   1.705   1.524
 9739TIP3    H229182   0.117   1.729   1.627
 9740TIP3   OH229183   5.576   4.026   2.256
 9740TIP3    H129184   5.565   3.993   2.167
 9740TIP3    H229185   5.568   4.121   2.248
 9741TIP3   OH229186   2.081   0.276   5.523
 9741TIP3    H129187   2.162   0.266   5.474
 9741TIP3    H229188   2.020   0.215   5.481
 9742TIP3   OH229189   2.923   4.028   5.775
 9742TIP3    H129190   2.983   4.102   5.766
 9742TIP3    H229191   2.972   3.963   5.825
 9743TIP3   OH229192   0.833   4.622   3.903
 9743TIP3    H129193   0.789   4.678   3.967
 9743TIP3    H229194   0.919   4.664   3.890
 9744TIP3   OH229195   1.521   3.520   0.426
 9744TIP3    H129196   1.497   3.612   0.438
 9744TIP3    H229197   1.577   3.520   0.348
 9745TIP3   OH229198   0.053   2.711   4.948
 9745TIP3    H129199   0.126   2.723   5.009
 9745TIP3    H229200   0.055   2.790   4.894
 9746TIP3   OH229201   6.099   3.164   4.243
 9746TIP3    H129202   6.180   3.186   4.290
 9746TIP3    H229203   6.128   3.106   4.173
 9747TIP3   OH229204   6.713   4.997   2.792
 9747TIP3    H129205   6.774   5.069   2.810
 9747TIP3    H229206   6.767   4.931   2.747
 9748TIP3   OH229207   4.929   6.442   4.785
 9748TIP3    H129208   4.864   6.373   4.789
 9748TIP3    H229209   4.879   6.523   4.790
 9749TIP3   OH229210   1.819   2.339   3.177
 9749TIP3    H129211   1.865   2.421   3.156
 9749TIP3    H229212   1.788   2.307   3.092
   7.20539   6.79332   5.88317   0.00000   0.00000  -2.40180   0.00000  -2.40180  -3.39666
